Protein in INSANE! Membrane UpperLeaflet>POPC=1.0 LowerLeaflet>POPC=1.0
239272
    1AU     AUC    1  31.050  13.723   7.510
    1AU     AUC    2  31.312  13.724   7.353
    1AU     AUC    3  31.297  13.723   7.659
    1AU     AUC    4  30.802  13.721   7.348
    1AU     AUC    5  30.788  13.746   7.664
    1AU     AUC    6  30.894  13.989   7.514
    1AU     AUC    7  31.217  13.969   7.512
    1AU     AUC    8  30.887  13.477   7.523
    1AU     AUC    9  31.187  13.458   7.527
    1AU     AUC   10  31.039  13.565   7.768
    1AU     AUC   11  31.060  13.889   7.762
    1AU     AUC   12  31.053  13.561   7.251
    1AU     AUC   13  31.040  13.856   7.249
    1AU     AUC   14  31.562  13.727   7.182
    1AU     AUC   15  31.570  13.736   7.489
    1AU     AUC   16  31.568  13.724   7.796
    1AU     AUC   17  30.548  13.699   7.189
    1AU     AUC   18  30.529  13.736   7.487
    1AU     AUC   19  30.531  13.779   7.811
    1AU     AUC   20  30.748  14.249   7.515
    1AU     AUC   21  31.057  14.246   7.514
    1AU     AUC   22  31.361  14.242   7.504
    1AU     AUC   23  30.710  13.222   7.535
    1AU     AUC   24  31.025  13.197   7.518
    1AU     AUC   25  31.345  13.196   7.530
    1AU     AUC   26  31.039  13.415   8.024
    1AU     AUC   27  31.063  13.715   8.036
    1AU     AUC   28  31.085  14.038   8.018
    1AU     AUC   29  31.059  13.375   7.019
    1AU     AUC   30  31.060  13.693   6.986
    1AU     AUC   31  31.038  14.009   6.984
    1AU     AUC   32  31.310  13.549   7.927
    1AU     AUC   33  31.319  13.888   7.931
    1AU     AUC   34  31.326  13.557   7.091
    1AU     AUC   35  31.317  13.866   7.077
    1AU     AUC   36  30.789  13.606   7.943
    1AU     AUC   37  30.784  13.912   7.918
    1AU     AUC   38  30.805  13.541   7.082
    1AU     AUC   39  30.793  13.857   7.080
    1AU     AUC   40  31.466  13.993   7.333
    1AU     AUC   41  31.479  13.964   7.673
    1AU     AUC   42  30.634  13.985   7.356
    1AU     AUC   43  30.642  14.022   7.662
    1AU     AUC   44  31.469  13.458   7.368
    1AU     AUC   45  31.447  13.440   7.674
    1AU     AUC   46  30.628  13.457   7.362
    1AU     AUC   47  30.624  13.499   7.701
    1AU     AUC   48  30.909  14.152   7.779
    1AU     AUC   49  31.239  14.144   7.759
    1AU     AUC   50  30.862  13.315   7.779
    1AU     AUC   51  31.182  13.302   7.784
    1AU     AUC   52  30.894  14.126   7.241
    1AU     AUC   53  31.208  14.124   7.238
    1AU     AUC   54  30.881  13.303   7.260
    1AU     AUC   55  31.213  13.299   7.272
    1AU    AUSL   56  31.562  13.607   8.231
    1AU    AUSL   57  31.343  13.234   8.143
    1AU     AUL   58  31.628  13.284   8.378
    1AU       S   59  31.659  12.868   8.148
    1AU     LIG   60  31.448  12.563   8.373
    1AU     LIG   61  31.515  12.166   8.598
    1AU     LIG   62  31.793  11.912   8.870
    1AU     LIG   63  32.061  11.674   9.183
    1AU     LIG   64  32.154  11.421   9.581
    1AU     LIG   65  32.293  11.193   9.981
    1AU       S   66  31.514  13.662   8.639
    1AU     LIG   67  31.713  13.475   9.017
    1AU     LIG   68  31.977  13.255   9.356
    1AU     LIG   69  32.224  13.074   9.730
    1AU     LIG   70  32.642  13.136   9.959
    1AU     LIG   71  32.819  13.307  10.362
    1AU     LIG   72  33.157  13.249  10.682
    1AU    AUSL   73  31.145  13.531   8.365
    1AU    AUSL   74  30.985  13.945   8.370
    1AU     AUL   75  31.049  13.860   8.713
    1AU       S   76  31.223  13.471   8.544
    1AU     LIG   77  31.368  13.145   8.809
    1AU     LIG   78  31.512  13.041   9.253
    1AU     LIG   79  31.698  12.972   9.692
    1AU     LIG   80  31.878  12.868  10.119
    1AU     LIG   81  31.840  12.872  10.591
    1AU     LIG   82  31.893  12.716  11.036
    1AU       S   83  30.628  13.707   8.695
    1AU     LIG   84  30.498  13.642   9.122
    1AU     LIG   85  30.433  13.434   9.537
    1AU     LIG   86  30.295  13.446   9.979
    1AU     LIG   87  30.294  13.769  10.331
    1AU     LIG   88  30.254  14.078  10.686
    1AU     LIG   89  30.119  14.240  11.103
    1AU    AUSL   90  31.244  13.821   8.073
    1AU    AUSL   91  31.672  13.935   7.989
    1AU     AUL   92  31.742  13.774   8.227
    1AU       S   93  31.448  13.929   8.540
    1AU     LIG   94  31.523  14.163   8.927
    1AU     LIG   95  31.698  14.403   9.320
    1AU     LIG   96  31.622  14.518   9.798
    1AU     LIG   97  31.676  14.671  10.260
    1AU     LIG   98  31.649  14.825  10.713
    1AU     LIG   99  31.759  14.848  11.173
    1AU       S  100  31.912  14.200   8.209
    1AU     LIG  101  32.281  14.173   8.431
    1AU     LIG  102  32.470  14.218   8.838
    1AU     LIG  103  32.718  14.517   9.078
    1AU     LIG  104  32.931  14.668   9.472
    1AU     LIG  105  33.312  14.754   9.760
    1AU     LIG  106  33.759  14.901   9.873
    1AU    AUSL  107  31.568  13.775   6.877
    1AU    AUSL  108  31.335  14.156   6.843
    1AU     AUL  109  31.282  14.138   6.577
    1AU       S  110  31.621  13.850   6.494
    1AU     LIG  111  31.910  13.663   6.244
    1AU     LIG  112  31.956  13.422   5.872
    1AU     LIG  113  32.056  13.271   5.440
    1AU     LIG  114  32.386  13.185   5.104
    1AU     LIG  115  32.728  13.187   4.768
    1AU     LIG  116  33.038  13.206   4.419
    1AU       S  117  31.711  14.327   6.652
    1AU     LIG  118  32.020  14.580   6.437
    1AU     LIG  119  32.295  14.811   6.162
    1AU     LIG  120  32.435  14.834   5.723
    1AU     LIG  121  32.740  14.906   5.380
    1AU     LIG  122  32.823  15.195   5.024
    1AU     LIG  123  32.712  15.559   4.735
    1AU    AUSL  124  31.348  13.450   6.696
    1AU    AUSL  125  31.686  13.397   7.010
    1AU     AUL  126  31.775  13.508   6.745
    1AU       S  127  31.729  13.047   6.813
    1AU     LIG  128  31.865  12.677   6.538
    1AU     LIG  129  32.087  12.311   6.376
    1AU     LIG  130  32.329  12.058   6.059
    1AU     LIG  131  32.671  11.997   5.729
    1AU     LIG  132  33.086  12.034   5.483
    1AU     LIG  133  33.440  12.041   5.183
    1AU       S  134  31.438  13.614   6.431
    1AU     LIG  135  31.577  13.235   6.236
    1AU     LIG  136  31.605  13.066   5.773
    1AU     LIG  137  31.637  13.001   5.282
    1AU     LIG  138  31.634  12.719   4.870
    1AU     LIG  139  31.686  12.551   4.411
    1AU     LIG  140  31.958  12.613   4.013
    1AU    AUSL  141  31.156  13.785   6.876
    1AU    AUSL  142  30.925  13.495   6.677
    1AU     AUL  143  31.139  13.283   6.582
    1AU       S  144  30.876  13.581   6.337
    1AU     LIG  145  30.856  13.250   6.066
    1AU     LIG  146  30.606  13.058   5.719
    1AU     LIG  147  30.488  13.024   5.266
    1AU     LIG  148  30.300  12.896   4.854
    1AU     LIG  149  30.229  12.714   4.420
    1AU     LIG  150  30.000  12.601   4.001
    1AU       S  151  31.326  13.701   6.482
    1AU     LIG  152  31.396  13.634   5.952
    1AU     LIG  153  31.590  13.515   5.513
    1AU     LIG  154  31.753  13.499   5.053
    1AU     LIG  155  31.759  13.712   4.594
    1AU     LIG  156  31.841  14.004   4.195
    1AU     LIG  157  31.963  14.315   3.830
    1AU    AUSL  158  30.586  13.859   8.249
    1AU    AUSL  159  30.863  14.078   7.995
    1AU     AUL  160  30.802  14.157   8.387
    1AU       S  161  30.493  13.877   8.619
    1AU     LIG  162  30.179  13.512   8.719
    1AU     LIG  163  30.096  13.300   9.150
    1AU     LIG  164  29.963  13.223   9.618
    1AU     LIG  165  29.631  13.209   9.984
    1AU     LIG  166  29.277  13.341  10.299
    1AU     LIG  167  29.085  13.539  10.694
    1AU       S  168  30.367  14.266   8.273
    1AU     LIG  169  30.486  14.371   8.722
    1AU     LIG  170  30.391  14.726   8.996
    1AU     LIG  171  30.104  14.928   9.301
    1AU     LIG  172  29.888  15.020   9.721
    1AU     LIG  173  29.662  15.244  10.082
    1AU     LIG  174  29.511  15.665  10.280
    1AU    AUSL  175  30.856  13.604   8.074
    1AU    AUSL  176  30.351  13.588   8.027
    1AU     AUL  177  30.453  13.595   8.260
    1AU       S  178  30.192  13.215   8.267
    1AU     LIG  179  29.821  13.005   8.088
    1AU     LIG  180  29.446  12.741   8.179
    1AU     LIG  181  29.243  12.475   8.516
    1AU     LIG  182  29.053  12.192   8.838
    1AU     LIG  183  28.738  12.092   9.178
    1AU     LIG  184  28.381  12.156   9.492
    1AU       S  185  30.733  13.528   8.604
    1AU     LIG  186  30.553  13.188   8.881
    1AU     LIG  187  30.466  12.974   9.315
    1AU     LIG  188  30.378  12.942   9.789
    1AU     LIG  189  30.209  12.721  10.185
    1AU     LIG  190  30.183  12.634  10.662
    1AU     LIG  191  30.183  12.713  11.140
    1AU    AUSL  192  30.662  13.651   6.964
    1AU    AUSL  193  30.803  13.213   6.951
    1AU     AUL  194  30.640  13.317   6.662
    1AU       S  195  30.626  13.655   6.328
    1AU     LIG  196  30.404  13.490   5.958
    1AU     LIG  197  30.187  13.333   5.556
    1AU     LIG  198  29.956  13.097   5.205
    1AU     LIG  199  29.570  13.071   4.909
    1AU     LIG  200  29.298  13.330   4.602
    1AU     LIG  201  28.954  13.541   4.327
    1AU       S  202  30.379  12.924   6.836
    1AU     LIG  203  30.115  12.567   6.782
    1AU     LIG  204  29.823  12.325   6.512
    1AU     LIG  205  29.555  12.073   6.213
    1AU     LIG  206  29.359  11.916   5.810
    1AU     LIG  207  29.356  11.861   5.339
    1AU     LIG  208  29.321  11.706   4.888
    1AU    AUSL  209  30.829  13.925   6.662
    1AU    AUSL  210  30.433  14.001   6.925
    1AU     AUL  211  30.428  13.748   6.728
    1AU       S  212  30.440  14.220   6.690
    1AU     LIG  213  30.157  14.281   6.333
    1AU     LIG  214  29.966  14.584   6.012
    1AU     LIG  215  29.732  14.715   5.609
    1AU     LIG  216  29.341  14.748   5.317
    1AU     LIG  217  28.923  14.830   5.087
    1AU     LIG  218  28.610  15.145   4.887
    1AU       S  219  30.851  13.830   6.466
    1AU     LIG  220  30.853  13.791   5.906
    1AU     LIG  221  30.673  13.536   5.518
    1AU     LIG  222  30.462  13.514   5.080
    1AU     LIG  223  30.440  13.776   4.659
    1AU     LIG  224  30.371  14.051   4.262
    1AU     LIG  225  30.087  14.290   3.948
    1AU    AUSL  226  31.682  14.342   7.434
    1AU    AUSL  227  31.705  14.110   7.076
    1AU     AUL  228  31.754  14.563   7.201
    1AU       S  229  31.861  14.154   6.814
    1AU     LIG  230  32.219  14.120   6.571
    1AU     LIG  231  32.502  14.350   6.266
    1AU     LIG  232  32.803  14.548   5.942
    1AU     LIG  233  33.157  14.655   5.624
    1AU     LIG  234  33.563  14.741   5.388
    1AU     LIG  235  33.767  14.988   5.034
    1AU       S  236  32.093  14.268   7.330
    1AU     LIG  237  32.521  14.484   7.348
    1AU     LIG  238  32.998  14.469   7.396
    1AU     LIG  239  33.478  14.516   7.507
    1AU     LIG  240  33.890  14.811   7.535
    1AU     LIG  241  34.203  15.216   7.551
    1AU     LIG  242  34.292  15.696   7.665
    1AU    AUSL  243  31.898  13.783   7.243
    1AU    AUSL  244  31.885  13.616   7.729
    1AU     AUL  245  32.104  13.644   7.494
    1AU       S  246  32.166  13.971   7.159
    1AU     LIG  247  32.581  14.104   7.013
    1AU     LIG  248  33.053  14.033   7.129
    1AU     LIG  249  33.532  14.083   7.216
    1AU     LIG  250  34.022  14.158   7.251
    1AU     LIG  251  34.488  14.328   7.188
    1AU     LIG  252  34.893  14.586   7.096
    1AU       S  253  32.235  13.246   7.717
    1AU     LIG  254  32.497  12.892   7.884
    1AU     LIG  255  32.930  12.669   7.864
    1AU     LIG  256  33.384  12.495   7.793
    1AU     LIG  257  33.839  12.306   7.754
    1AU     LIG  258  34.322  12.322   7.800
    1AU     LIG  259  34.746  12.398   8.034
    1AU    AUSL  260  31.684  13.946   7.572
    1AU    AUSL  261  31.603  14.321   7.838
    1AU     AUL  262  31.899  14.140   7.737
    1AU       S  263  31.814  14.402   8.105
    1AU     LIG  264  32.128  14.658   8.304
    1AU     LIG  265  32.527  14.636   8.543
    1AU     LIG  266  32.747  14.952   8.808
    1AU     LIG  267  32.983  15.351   8.908
    1AU     LIG  268  33.244  15.739   9.009
    1AU     LIG  269  33.537  16.113   9.019
    1AU       S  270  32.202  14.105   7.397
    1AU     LIG  271  32.695  14.038   7.523
    1AU     LIG  272  33.203  14.057   7.632
    1AU     LIG  273  33.711  14.067   7.698
    1AU     LIG  274  34.217  14.049   7.713
    1AU     LIG  275  34.577  14.355   7.721
    1AU     LIG  276  34.877  14.590   8.001
    1AU    AUSL  277  30.392  14.260   7.524
    1AU    AUSL  278  30.457  14.018   7.888
    1AU     AUL  279  30.187  14.352   7.805
    1AU       S  280  30.174  14.044   8.154
    1AU     LIG  281  30.027  14.159   8.617
    1AU     LIG  282  29.952  14.453   9.008
    1AU     LIG  283  29.728  14.595   9.433
    1AU     LIG  284  29.453  14.754   9.807
    1AU     LIG  285  29.051  14.874  10.024
    1AU     LIG  286  28.627  14.987  10.213
    1AU       S  287  29.950  14.366   7.421
    1AU     LIG  288  29.734  14.676   7.647
    1AU     LIG  289  29.446  15.044   7.620
    1AU     LIG  290  29.045  15.290   7.667
    1AU     LIG  291  28.660  15.435   7.882
    1AU     LIG  292  28.243  15.531   7.726
    1AU     LIG  293  27.962  15.921   7.755
    1AU    AUSL  294  30.481  13.910   7.322
    1AU    AUSL  295  30.574  14.359   7.158
    1AU     AUL  296  30.305  14.245   7.157
    1AU       S  297  29.895  14.195   7.418
    1AU     LIG  298  29.511  14.351   7.136
    1AU     LIG  299  29.113  14.490   6.840
    1AU     LIG  300  28.692  14.654   6.598
    1AU     LIG  301  28.225  14.687   6.436
    1AU     LIG  302  27.858  14.919   6.591
    1AU     LIG  303  27.520  15.239   6.564
    1AU       S  304  30.424  14.507   6.777
    1AU     LIG  305  30.318  14.760   6.399
    1AU     LIG  306  30.164  15.069   6.083
    1AU     LIG  307  30.143  15.503   5.905
    1AU     LIG  308  29.937  15.931   5.835
    1AU     LIG  309  29.580  16.200   5.666
    1AU     LIG  310  29.298  16.476   5.404
    1AU    AUSL  311  30.175  13.883   7.628
    1AU    AUSL  312  30.220  13.587   7.316
    1AU     AUL  313  30.089  13.841   7.219
    1AU       S  314  29.896  13.391   7.454
    1AU     LIG  315  29.536  13.306   7.774
    1AU     LIG  316  29.060  13.202   7.832
    1AU     LIG  317  28.579  13.173   7.738
    1AU     LIG  318  28.247  13.069   7.393
    1AU     LIG  319  27.801  12.984   7.239
    1AU     LIG  320  27.401  12.980   6.979
    1AU       S  321  29.979  13.943   7.679
    1AU     LIG  322  29.674  14.228   7.912
    1AU     LIG  323  29.211  14.362   8.097
    1AU     LIG  324  28.716  14.434   8.250
    1AU     LIG  325  28.229  14.446   8.417
    1AU     LIG  326  27.775  14.617   8.593
    1AU     LIG  327  27.340  14.661   8.428
    1AU    AUSL  328  31.764  13.239   7.572
    1AU    AUSL  329  31.503  13.493   7.840
    1AU     AUL  330  31.854  13.380   7.945
    1AU       S  331  31.930  13.032   7.589
    1AU     LIG  332  32.086  12.636   7.697
    1AU     LIG  333  32.526  12.438   7.620
    1AU     LIG  334  32.983  12.265   7.535
    1AU     LIG  335  33.436  12.099   7.460
    1AU     LIG  336  33.849  11.871   7.458
    1AU     LIG  337  34.229  11.798   7.715
    1AU       S  338  31.760  12.957   8.059
    1AU     LIG  339  32.042  12.572   8.209
    1AU     LIG  340  32.045  12.211   8.515
    1AU     LIG  341  32.306  12.027   8.873
    1AU     LIG  342  32.678  12.019   9.183
    1AU     LIG  343  33.084  12.082   9.438
    1AU     LIG  344  33.460  12.030   9.726
    1AU    AUSL  345  31.587  13.558   7.377
    1AU    AUSL  346  31.534  13.083   7.260
    1AU     AUL  347  31.873  13.306   7.206
    1AU       S  348  32.048  13.160   7.589
    1AU     LIG  349  32.409  12.901   7.378
    1AU     LIG  350  32.875  12.739   7.352
    1AU     LIG  351  33.342  12.575   7.284
    1AU     LIG  352  33.833  12.454   7.266
    1AU     LIG  353  34.304  12.621   7.227
    1AU     LIG  354  34.668  12.768   6.950
    1AU       S  355  31.795  12.887   7.001
    1AU     LIG  356  31.594  12.474   6.937
    1AU     LIG  357  31.775  12.086   6.730
    1AU     LIG  358  32.074  11.800   6.463
    1AU     LIG  359  32.396  11.560   6.188
    1AU     LIG  360  32.824  11.328   6.120
    1AU     LIG  361  33.205  11.024   6.102
    1AU    AUSL  362  30.345  13.221   7.521
    1AU    AUSL  363  30.418  13.332   7.066
    1AU     AUL  364  30.152  13.389   7.056
    1AU       S  365  30.361  12.984   7.088
    1AU     LIG  366  29.884  12.962   7.034
    1AU     LIG  367  29.584  12.730   6.743
    1AU     LIG  368  29.329  12.499   6.402
    1AU     LIG  369  29.068  12.245   6.082
    1AU     LIG  370  28.780  12.143   5.699
    1AU     LIG  371  28.578  12.124   5.259
    1AU       S  372  30.073  13.181   7.461
    1AU     LIG  373  29.748  12.898   7.550
    1AU     LIG  374  29.296  12.938   7.455
    1AU     LIG  375  28.830  12.854   7.439
    1AU     LIG  376  28.432  12.666   7.641
    1AU     LIG  377  28.043  12.408   7.735
    1AU     LIG  378  27.767  12.028   7.629
    1AU    AUSL  379  30.489  13.611   7.643
    1AU    AUSL  380  30.579  13.268   7.884
    1AU     AUL  381  30.197  13.413   7.835
    1AU       S  382  30.344  13.102   8.133
    1AU     LIG  383  30.209  12.811   7.819
    1AU     LIG  384  29.839  12.502   7.934
    1AU     LIG  385  29.501  12.194   8.171
    1AU     LIG  386  29.203  11.876   8.444
    1AU     LIG  387  28.945  11.451   8.585
    1AU     LIG  388  28.566  11.143   8.693
    1AU       S  389  29.936  13.483   7.475
    1AU     LIG  390  29.438  13.416   7.289
    1AU     LIG  391  28.952  13.368   7.355
    1AU     LIG  392  28.496  13.547   7.407
    1AU     LIG  393  28.106  13.467   7.667
    1AU     LIG  394  27.785  13.125   7.760
    1AU     LIG  395  27.384  12.922   7.958
    1AU    AUSL  396  31.050  14.444   8.023
    1AU    AUSL  397  30.647  14.391   7.824
    1AU     AUL  398  30.806  14.527   8.092
    1AU       S  399  30.409  14.359   8.205
    1AU     LIG  400  30.232  14.732   8.476
    1AU     LIG  401  30.278  15.160   8.724
    1AU     LIG  402  30.192  15.595   8.935
    1AU     LIG  403  29.929  15.996   9.035
    1AU     LIG  404  29.579  16.316   9.120
    1AU     LIG  405  29.148  16.517   9.190
    1AU       S  406  31.129  14.873   7.990
    1AU     LIG  407  31.271  15.171   8.284
    1AU     LIG  408  31.352  15.527   8.558
    1AU     LIG  409  31.535  15.736   8.921
    1AU     LIG  410  31.400  16.017   9.267
    1AU     LIG  411  31.189  16.369   9.507
    1AU     LIG  412  31.082  16.642   9.881
    1AU    AUSL  413  30.940  14.610   7.632
    1AU    AUSL  414  31.256  14.554   7.333
    1AU     AUL  415  30.794  14.780   7.453
    1AU       S  416  31.165  14.825   7.740
    1AU     LIG  417  31.034  15.300   7.766
    1AU     LIG  418  31.162  15.634   8.069
    1AU     LIG  419  30.978  16.028   8.232
    1AU     LIG  420  30.849  16.480   8.333
    1AU     LIG  421  30.953  16.965   8.387
    1AU     LIG  422  30.852  17.438   8.424
    1AU       S  423  31.343  14.840   7.242
    1AU     LIG  424  31.676  15.039   7.016
    1AU     LIG  425  31.801  15.429   6.732
    1AU     LIG  426  31.749  15.925   6.591
    1AU     LIG  427  31.722  16.447   6.580
    1AU     LIG  428  31.870  16.961   6.600
    1AU     LIG  429  32.139  17.406   6.585
    1AU    AUSL  430  31.233  14.303   7.675
    1AU    AUSL  431  31.356  14.197   8.167
    1AU     AUL  432  31.356  14.479   8.058
    1AU       S  433  31.686  14.251   8.306
    1AU     LIG  434  31.905  14.412   8.689
    1AU     LIG  435  32.203  14.644   8.953
    1AU     LIG  436  32.353  14.699   9.390
    1AU     LIG  437  32.568  14.977   9.683
    1AU     LIG  438  32.564  15.350   9.960
    1AU     LIG  439  32.598  15.766  10.171
    1AU       S  440  31.418  14.763   7.714
    1AU     LIG  441  31.530  15.185   7.840
    1AU     LIG  442  31.657  15.498   8.138
    1AU     LIG  443  31.762  15.833   8.443
    1AU     LIG  444  31.804  16.303   8.521
    1AU     LIG  445  31.762  16.788   8.540
    1AU     LIG  446  31.660  17.242   8.661
    1AU    AUSL  447  31.022  13.177   7.879
    1AU    AUSL  448  31.440  13.075   7.764
    1AU     AUL  449  31.218  12.977   8.137
    1AU       S  450  31.048  12.567   8.031
    1AU     LIG  451  31.210  12.153   8.143
    1AU     LIG  452  30.982  11.798   8.285
    1AU     LIG  453  30.856  11.383   8.464
    1AU     LIG  454  30.947  11.058   8.783
    1AU     LIG  455  30.760  10.793   9.146
    1AU     LIG  456  30.567  10.392   9.339
    1AU       S  457  31.579  12.850   7.852
    1AU     LIG  458  31.637  12.377   7.938
    1AU     LIG  459  31.715  11.940   8.187
    1AU     LIG  460  31.941  11.599   8.492
    1AU     LIG  461  32.202  11.175   8.515
    1AU     LIG  462  32.605  10.920   8.633
    1AU     LIG  463  33.078  10.913   8.743
    1AU    AUSL  464  30.723  12.952   7.673
    1AU    AUSL  465  30.813  13.231   8.238
    1AU     AUL  466  30.753  12.938   8.015
    1AU       S  467  30.860  12.502   7.900
    1AU     LIG  468  30.755  12.091   7.881
    1AU     LIG  469  30.664  11.649   7.881
    1AU     LIG  470  30.553  11.255   8.071
    1AU     LIG  471  30.420  10.858   8.270
    1AU     LIG  472  30.467  10.395   8.364
    1AU     LIG  473  30.385  10.065   8.682
    1AU       S  474  30.499  13.137   8.347
    1AU     LIG  475  30.186  12.711   8.368
    1AU     LIG  476  29.792  12.487   8.479
    1AU     LIG  477  29.575  12.127   8.700
    1AU     LIG  478  29.388  11.843   9.026
    1AU     LIG  479  29.428  11.690   9.478
    1AU     LIG  480  29.474  11.541   9.928
    1AU    AUSL  481  31.130  12.824   7.654
    1AU    AUSL  482  30.847  12.897   7.279
    1AU     AUL  483  30.687  12.712   7.530
    1AU       S  484  30.921  12.541   7.162
    1AU     LIG  485  30.534  12.420   7.066
    1AU     LIG  486  30.425  11.988   6.954
    1AU     LIG  487  30.481  11.509   6.957
    1AU     LIG  488  30.510  11.033   6.850
    1AU     LIG  489  30.494  10.562   6.777
    1AU     LIG  490  30.441  10.082   6.794
    1AU       S  491  31.100  12.683   7.762
    1AU     LIG  492  31.213  12.251   7.638
    1AU     LIG  493  31.140  11.793   7.733
    1AU     LIG  494  31.101  11.403   8.005
    1AU     LIG  495  31.232  11.046   8.282
    1AU     LIG  496  31.201  10.568   8.270
    1AU     LIG  497  31.176  10.086   8.268
    1AU    AUSL  498  31.034  14.403   6.995
    1AU    AUSL  499  31.348  14.154   7.271
    1AU     AUL  500  31.368  14.451   6.962
    1AU       S  501  31.114  14.841   6.941
    1AU     LIG  502  31.392  15.049   6.606
    1AU     LIG  503  31.475  15.415   6.323
    1AU     LIG  504  31.479  15.846   6.146
    1AU     LIG  505  31.483  16.127   5.764
    1AU     LIG  506  31.366  16.397   5.386
    1AU     LIG  507  31.369  16.667   4.999
    1AU       S  508  31.785  14.188   6.949
    1AU     LIG  509  32.197  14.511   6.917
    1AU     LIG  510  32.519  14.724   6.627
    1AU     LIG  511  32.738  15.041   6.313
    1AU     LIG  512  32.988  15.477   6.242
    1AU     LIG  513  33.284  15.896   6.190
    1AU     LIG  514  33.545  16.312   6.090
    1AU    AUSL  515  30.905  14.284   7.393
    1AU    AUSL  516  30.839  14.047   7.051
    1AU     AUL  517  30.791  14.525   7.069
    1AU       S  518  31.190  14.781   7.240
    1AU     LIG  519  31.233  15.305   7.079
    1AU     LIG  520  31.341  15.654   6.753
    1AU     LIG  521  31.250  16.119   6.616
    1AU     LIG  522  31.105  16.583   6.509
    1AU     LIG  523  30.920  17.054   6.495
    1AU     LIG  524  30.724  17.506   6.481
    1AU       S  525  30.674  14.350   6.660
    1AU     LIG  526  30.644  14.394   6.217
    1AU     LIG  527  30.453  14.678   5.885
    1AU     LIG  528  30.206  14.954   5.573
    1AU     LIG  529  30.154  15.214   5.163
    1AU     LIG  530  29.977  15.473   4.793
    1AU     LIG  531  29.677  15.832   4.708
    1AU    AUSL  532  31.159  13.001   7.001
    1AU    AUSL  533  30.719  13.284   7.357
    1AU     AUL  534  30.814  12.954   6.975
    1AU       S  535  30.386  12.882   7.202
    1AU     LIG  536  30.074  12.570   7.301
    1AU     LIG  537  29.728  12.337   7.044
    1AU     LIG  538  29.412  12.109   6.732
    1AU     LIG  539  29.150  11.822   6.424
    1AU     LIG  540  28.914  11.388   6.329
    1AU     LIG  541  28.700  10.940   6.248
    1AU       S  542  31.088  12.587   6.972
    1AU     LIG  543  30.903  12.239   6.743
    1AU     LIG  544  30.847  11.787   6.717
    1AU     LIG  545  30.787  11.353   6.558
    1AU     LIG  546  30.847  10.989   6.253
    1AU     LIG  547  30.862  10.830   5.781
    1AU     LIG  548  30.872  10.640   5.328
    1AU    AUSL  549  31.158  13.150   7.419
    1AU    AUSL  550  31.261  13.386   7.086
    1AU     AUL  551  31.371  12.892   7.175
    1AU       S  552  31.057  12.584   7.265
    1AU     LIG  553  31.199  12.114   7.147
    1AU     LIG  554  31.004  11.697   7.206
    1AU     LIG  555  30.915  11.265   7.085
    1AU     LIG  556  31.026  10.942   6.775
    1AU     LIG  557  31.017  10.466   6.727
    1AU     LIG  558  31.257  10.057   6.687
    1AU       S  559  31.544  13.031   6.749
    1AU     LIG  560  31.351  12.696   6.540
    1AU     LIG  561  31.535  12.302   6.340
    1AU     LIG  562  31.804  12.016   6.067
    1AU     LIG  563  32.031  11.743   5.751
    1AU     LIG  564  32.086  11.620   5.278
    1AU     LIG  565  32.278  11.439   4.862
    2AU     AUC  566   2.613  43.738   7.506
    2AU     AUC  567   2.874  43.736   7.349
    2AU     AUC  568   2.861  43.738   7.653
    2AU     AUC  569   2.364  43.736   7.346
    2AU     AUC  570   2.354  43.765   7.663
    2AU     AUC  571   2.459  44.005   7.509
    2AU     AUC  572   2.779  43.984   7.504
    2AU     AUC  573   2.449  43.494   7.521
    2AU     AUC  574   2.749  43.472   7.521
    2AU     AUC  575   2.605  43.580   7.763
    2AU     AUC  576   2.626  43.904   7.758
    2AU     AUC  577   2.614  43.576   7.245
    2AU     AUC  578   2.604  43.869   7.242
    2AU     AUC  579   3.129  43.736   7.180
    2AU     AUC  580   3.134  43.751   7.483
    2AU     AUC  581   3.134  43.739   7.785
    2AU     AUC  582   2.106  43.714   7.191
    2AU     AUC  583   2.093  43.755   7.487
    2AU     AUC  584   2.099  43.800   7.811
    2AU     AUC  585   2.316  44.267   7.508
    2AU     AUC  586   2.622  44.259   7.501
    2AU     AUC  587   2.921  44.257   7.491
    2AU     AUC  588   2.271  43.241   7.537
    2AU     AUC  589   2.585  43.213   7.516
    2AU     AUC  590   2.908  43.212   7.521
    2AU     AUC  591   2.607  43.431   8.020
    2AU     AUC  592   2.631  43.731   8.031
    2AU     AUC  593   2.656  44.056   8.011
    2AU     AUC  594   2.617  43.394   7.014
    2AU     AUC  595   2.620  43.706   6.983
    2AU     AUC  596   2.601  44.018   6.969
    2AU     AUC  597   2.878  43.564   7.920
    2AU     AUC  598   2.886  43.904   7.925
    2AU     AUC  599   2.886  43.566   7.086
    2AU     AUC  600   2.883  43.875   7.070
    2AU     AUC  601   2.357  43.625   7.942
    2AU     AUC  602   2.354  43.931   7.915
    2AU     AUC  603   2.365  43.556   7.081
    2AU     AUC  604   2.352  43.869   7.076
    2AU     AUC  605   3.031  44.007   7.329
    2AU     AUC  606   3.044  43.977   7.668
    2AU     AUC  607   2.198  44.002   7.353
    2AU     AUC  608   2.212  44.043   7.658
    2AU     AUC  609   3.031  43.467   7.362
    2AU     AUC  610   3.013  43.454   7.665
    2AU     AUC  611   2.188  43.474   7.363
    2AU     AUC  612   2.189  43.519   7.701
    2AU     AUC  613   2.479  44.169   7.774
    2AU     AUC  614   2.804  44.160   7.752
    2AU     AUC  615   2.427  43.334   7.778
    2AU     AUC  616   2.747  43.318   7.779
    2AU     AUC  617   2.459  44.139   7.230
    2AU     AUC  618   2.773  44.132   7.228
    2AU     AUC  619   2.440  43.319   7.259
    2AU     AUC  620   2.770  43.312   7.265
    2AU    AUSL  621   3.133  43.623   8.220
    2AU    AUSL  622   2.917  43.248   8.133
    2AU     AUL  623   3.206  43.303   8.364
    2AU       S  624   3.234  42.895   8.122
    2AU     LIG  625   3.052  42.582   8.345
    2AU     LIG  626   3.256  42.349   8.673
    2AU     LIG  627   3.481  42.125   9.029
    2AU     LIG  628   3.765  42.000   9.391
    2AU     LIG  629   3.820  42.004   9.875
    2AU     LIG  630   3.750  41.682  10.216
    2AU       S  631   3.087  43.673   8.632
    2AU     LIG  632   3.198  43.417   8.996
    2AU     LIG  633   3.415  43.287   9.406
    2AU     LIG  634   3.757  43.237   9.742
    2AU     LIG  635   4.159  43.181  10.013
    2AU     LIG  636   4.476  43.108  10.371
    2AU     LIG  637   4.571  43.174  10.833
    2AU    AUSL  638   2.719  43.543   8.357
    2AU    AUSL  639   2.558  43.954   8.369
    2AU     AUL  640   2.627  43.869   8.710
    2AU       S  641   2.800  43.479   8.541
    2AU     LIG  642   2.674  43.378   8.967
    2AU     LIG  643   2.901  43.156   9.348
    2AU     LIG  644   3.156  42.934   9.714
    2AU     LIG  645   3.234  42.725  10.158
    2AU     LIG  646   3.385  42.805  10.610
    2AU     LIG  647   3.632  42.726  11.012
    2AU       S  648   2.202  43.730   8.693
    2AU     LIG  649   2.103  43.643   9.123
    2AU     LIG  650   1.979  43.491   9.548
    2AU     LIG  651   1.811  43.502   9.982
    2AU     LIG  652   1.766  43.822  10.343
    2AU     LIG  653   1.700  44.208  10.630
    2AU     LIG  654   1.685  44.476  11.024
    2AU    AUSL  655   2.813  43.836   8.065
    2AU    AUSL  656   3.243  43.956   7.984
    2AU     AUL  657   3.306  43.790   8.217
    2AU       S  658   3.027  43.936   8.544
    2AU     LIG  659   3.025  44.314   8.778
    2AU     LIG  660   3.246  44.480   9.171
    2AU     LIG  661   3.284  44.596   9.648
    2AU     LIG  662   3.286  44.797  10.091
    2AU     LIG  663   3.332  44.648  10.547
    2AU     LIG  664   3.566  44.493  10.935
    2AU       S  665   3.539  44.180   8.156
    2AU     LIG  666   3.919  44.179   8.355
    2AU     LIG  667   4.088  44.266   8.757
    2AU     LIG  668   4.361  44.522   9.024
    2AU     LIG  669   4.562  44.807   9.325
    2AU     LIG  670   4.927  44.909   9.605
    2AU     LIG  671   5.216   0.056   9.958
    2AU    AUSL  672   3.133  43.772   6.901
    2AU    AUSL  673   2.930  44.161   6.819
    2AU     AUL  674   3.251  43.977   6.602
    2AU       S  675   2.839  43.915   6.414
    2AU     LIG  676   3.245  43.890   6.107
    2AU     LIG  677   3.519  43.590   5.870
    2AU     LIG  678   3.659  43.364   5.473
    2AU     LIG  679   3.903  43.307   5.051
    2AU     LIG  680   4.272  43.244   4.720
    2AU     LIG  681   4.605  43.259   4.364
    2AU       S  682   3.330  44.420   6.713
    2AU     LIG  683   3.527  44.468   6.323
    2AU     LIG  684   3.740  44.594   5.938
    2AU     LIG  685   3.988  44.865   5.680
    2AU     LIG  686   4.070   0.073   5.295
    2AU     LIG  687   4.083   0.315   4.914
    2AU     LIG  688   4.331   0.673   4.746
    2AU    AUSL  689   2.905  43.473   6.688
    2AU    AUSL  690   3.249  43.389   7.007
    2AU     AUL  691   3.285  43.510   6.700
    2AU       S  692   3.308  43.045   6.805
    2AU     LIG  693   3.589  42.717   6.575
    2AU     LIG  694   3.866  42.353   6.410
    2AU     LIG  695   4.140  42.157   6.103
    2AU     LIG  696   4.523  42.148   5.809
    2AU     LIG  697   4.714  41.855   5.492
    2AU     LIG  698   4.886  41.700   5.070
    2AU       S  699   2.934  43.668   6.421
    2AU     LIG  700   3.135  43.364   6.177
    2AU     LIG  701   3.210  43.198   5.729
    2AU     LIG  702   3.253  43.106   5.260
    2AU     LIG  703   3.291  42.835   4.861
    2AU     LIG  704   3.298  42.625   4.425
    2AU     LIG  705   3.543  42.620   4.012
    2AU    AUSL  706   2.718  43.809   6.869
    2AU    AUSL  707   2.482  43.509   6.682
    2AU     AUL  708   2.696  43.310   6.576
    2AU       S  709   2.420  43.593   6.323
    2AU     LIG  710   2.387  43.378   5.939
    2AU     LIG  711   2.112  43.168   5.633
    2AU     LIG  712   1.872  43.073   5.239
    2AU     LIG  713   1.801  42.833   4.830
    2AU     LIG  714   1.861  42.704   4.363
    2AU     LIG  715   1.797  42.772   3.902
    2AU       S  716   2.829  43.781   6.534
    2AU     LIG  717   2.792  43.699   5.965
    2AU     LIG  718   3.098  43.683   5.582
    2AU     LIG  719   3.337  43.616   5.159
    2AU     LIG  720   3.344  43.689   4.680
    2AU     LIG  721   3.400  43.838   4.220
    2AU     LIG  722   3.584  44.069   3.840
    2AU    AUSL  723   2.155  43.882   8.248
    2AU    AUSL  724   2.436  44.101   7.999
    2AU     AUL  725   2.382  44.176   8.389
    2AU       S  726   2.065  43.900   8.615
    2AU     LIG  727   1.764  43.522   8.722
    2AU     LIG  728   1.679  43.322   9.150
    2AU     LIG  729   1.496  43.287   9.607
    2AU     LIG  730   1.172  43.233   9.982
    2AU     LIG  731   0.823  43.175  10.336
    2AU     LIG  732   0.619  43.313  10.753
    2AU       S  733   1.949  44.293   8.268
    2AU     LIG  734   2.046  44.401   8.720
    2AU     LIG  735   1.955  44.742   9.028
    2AU     LIG  736   1.698   0.018   9.320
    2AU     LIG  737   1.580   0.190   9.752
    2AU     LIG  738   1.408   0.405  10.155
    2AU     LIG  739   1.270   0.812  10.360
    2AU    AUSL  740   2.423  43.623   8.074
    2AU    AUSL  741   1.918  43.610   8.029
    2AU     AUL  742   2.021  43.612   8.260
    2AU       S  743   1.762  43.228   8.272
    2AU     LIG  744   1.408  42.973   8.087
    2AU     LIG  745   1.101  42.622   8.147
    2AU     LIG  746   0.807  42.321   8.343
    2AU     LIG  747   0.642  42.074   8.697
    2AU     LIG  748   0.456  41.901   9.061
    2AU     LIG  749   0.122  41.933   9.372
    2AU       S  750   2.308  43.549   8.598
    2AU     LIG  751   2.162  43.208   8.866
    2AU     LIG  752   2.092  43.050   9.309
    2AU     LIG  753   1.911  43.005   9.757
    2AU     LIG  754   1.760  42.768  10.157
    2AU     LIG  755   1.713  42.645  10.625
    2AU     LIG  756   1.660  42.563  11.102
    2AU    AUSL  757   2.214  43.662   6.965
    2AU    AUSL  758   2.354  43.227   6.952
    2AU     AUL  759   2.194  43.331   6.667
    2AU       S  760   2.165  43.659   6.337
    2AU     LIG  761   1.910  43.574   5.972
    2AU     LIG  762   1.693  43.456   5.570
    2AU     LIG  763   1.371  43.229   5.310
    2AU     LIG  764   0.988  43.200   5.032
    2AU     LIG  765   0.760  43.257   4.623
    2AU     LIG  766   0.434  43.098   4.328
    2AU       S  767   1.931  42.926   6.848
    2AU     LIG  768   1.721  42.484   6.868
    2AU     LIG  769   1.431  42.120   6.709
    2AU     LIG  770   1.074  41.878   6.489
    2AU     LIG  771   0.739  41.808   6.148
    2AU     LIG  772   0.612  41.727   5.688
    2AU     LIG  773   0.648  41.480   5.279
    2AU    AUSL  774   2.381  43.932   6.659
    2AU    AUSL  775   1.987  44.012   6.923
    2AU     AUL  776   1.965  43.752   6.738
    2AU       S  777   1.989  44.224   6.683
    2AU     LIG  778   1.669  44.325   6.371
    2AU     LIG  779   1.475  44.562   6.006
    2AU     LIG  780   1.200  44.600   5.608
    2AU     LIG  781   0.892  44.700   5.248
    2AU     LIG  782   0.709   0.021   4.945
    2AU     LIG  783   0.323   0.122   4.676
    2AU       S  784   2.354  43.844   6.474
    2AU     LIG  785   2.323  43.927   5.960
    2AU     LIG  786   2.190  43.683   5.554
    2AU     LIG  787   1.965  43.592   5.139
    2AU     LIG  788   1.906  43.761   4.682
    2AU     LIG  789   1.899  43.979   4.240
    2AU     LIG  790   1.928  44.210   3.813
    2AU    AUSL  791   3.229  44.363   7.431
    2AU    AUSL  792   3.284  44.111   7.086
    2AU     AUL  793   3.329  44.579   7.222
    2AU       S  794   3.505  44.200   6.927
    2AU     LIG  795   3.772  44.111   6.608
    2AU     LIG  796   4.015  44.286   6.262
    2AU     LIG  797   4.269  44.576   6.000
    2AU     LIG  798   4.492  44.715   5.597
    2AU     LIG  799   4.900  44.816   5.368
    2AU     LIG  800   5.238   0.056   5.139
    2AU       S  801   3.693  44.290   7.367
    2AU     LIG  802   4.168  44.339   7.428
    2AU     LIG  803   4.653  44.286   7.535
    2AU     LIG  804   5.112  44.460   7.569
    2AU     LIG  805   5.579  44.636   7.548
    2AU     LIG  806   5.936  44.974   7.582
    2AU     LIG  807   6.131   0.435   7.531
    2AU    AUSL  808   3.478  43.788   7.264
    2AU    AUSL  809   3.452  43.633   7.710
    2AU     AUL  810   3.719  43.567   7.464
    2AU       S  811   3.670  44.021   7.354
    2AU     LIG  812   4.003  43.993   7.078
    2AU     LIG  813   4.472  44.053   7.101
    2AU     LIG  814   4.939  44.177   7.112
    2AU     LIG  815   5.318  44.297   6.846
    2AU     LIG  816   5.780  44.217   6.916
    2AU     LIG  817   6.147  44.458   6.814
    2AU       S  818   3.754  43.162   7.702
    2AU     LIG  819   4.190  43.031   7.657
    2AU     LIG  820   4.560  42.766   7.713
    2AU     LIG  821   4.859  42.491   7.944
    2AU     LIG  822   5.329  42.368   7.918
    2AU     LIG  823   5.791  42.372   8.035
    2AU     LIG  824   6.211  42.604   7.959
    2AU    AUSL  825   3.242  43.966   7.570
    2AU    AUSL  826   3.152  44.340   7.840
    2AU     AUL  827   3.398  44.262   7.718
    2AU       S  828   3.390  44.371   8.166
    2AU     LIG  829   3.685  44.635   8.434
    2AU     LIG  830   4.073  44.784   8.675
    2AU     LIG  831   4.375   0.072   8.908
    2AU     LIG  832   4.541   0.525   8.989
    2AU     LIG  833   4.692   0.989   9.048
    2AU     LIG  834   4.886   1.427   8.981
    2AU       S  835   3.758  44.021   7.593
    2AU     LIG  836   4.239  43.881   7.633
    2AU     LIG  837   4.666  43.921   7.895
    2AU     LIG  838   5.018  44.207   8.059
    2AU     LIG  839   5.484  44.329   7.953
    2AU     LIG  840   5.929  44.551   7.946
    2AU     LIG  841   6.446  44.551   7.988
    2AU    AUSL  842   1.966  44.284   7.522
    2AU    AUSL  843   2.032  44.038   7.884
    2AU     AUL  844   1.764  44.376   7.805
    2AU       S  845   1.747  44.069   8.150
    2AU     LIG  846   1.593  44.178   8.594
    2AU     LIG  847   1.507  44.509   8.929
    2AU     LIG  848   1.273  44.714   9.302
    2AU     LIG  849   0.940  44.680   9.663
    2AU     LIG  850   0.565  44.708   9.975
    2AU     LIG  851   0.097  44.772  10.067
    2AU       S  852   1.534  44.422   7.421
    2AU     LIG  853   1.212  44.711   7.543
    2AU     LIG  854   0.945   0.098   7.510
    2AU     LIG  855   0.537   0.339   7.566
    2AU     LIG  856   0.097   0.494   7.651
    2AU     LIG  857  44.711   0.668   7.827
    2AU     LIG  858  44.273   0.663   7.681
    2AU    AUSL  859   2.043  43.930   7.321
    2AU    AUSL  860   2.132  44.374   7.147
    2AU     AUL  861   1.869  44.259   7.152
    2AU       S  862   1.473  44.230   7.418
    2AU     LIG  863   1.122  44.393   7.123
    2AU     LIG  864   0.708  44.547   6.925
    2AU     LIG  865   0.245  44.693   6.902
    2AU     LIG  866  44.835  44.884   6.767
    2AU     LIG  867  44.430   0.000   6.622
    2AU     LIG  868  43.979  44.950   6.757
    2AU       S  869   1.975  44.524   6.768
    2AU     LIG  870   1.818  44.821   6.416
    2AU     LIG  871   1.754   0.233   6.159
    2AU     LIG  872   1.708   0.734   6.111
    2AU     LIG  873   1.512   1.172   6.002
    2AU     LIG  874   1.130   1.287   5.738
    2AU     LIG  875   0.682   1.413   5.787
    2AU    AUSL  876   1.741  43.908   7.631
    2AU    AUSL  877   1.781  43.608   7.320
    2AU     AUL  878   1.646  43.860   7.225
    2AU       S  879   1.460  43.428   7.470
    2AU     LIG  880   1.114  43.343   7.795
    2AU     LIG  881   0.632  43.280   7.721
    2AU     LIG  882   0.258  43.063   7.482
    2AU     LIG  883  44.792  43.090   7.283
    2AU     LIG  884  44.329  42.923   7.190
    2AU     LIG  885  43.958  42.616   7.073
    2AU       S  886   1.540  43.980   7.677
    2AU     LIG  887   1.258  44.307   7.894
    2AU     LIG  888   0.826  44.489   8.082
    2AU     LIG  889   0.351  44.619   8.227
    2AU     LIG  890  44.908  44.685   8.434
    2AU     LIG  891  44.427  44.765   8.354
    2AU     LIG  892  43.960  44.811   8.398
    2AU    AUSL  893   3.319  43.265   7.545
    2AU    AUSL  894   3.072  43.509   7.829
    2AU     AUL  895   3.440  43.415   7.930
    2AU       S  896   3.479  42.990   7.534
    2AU     LIG  897   3.681  42.655   7.731
    2AU     LIG  898   4.100  42.502   7.610
    2AU     LIG  899   4.515  42.313   7.486
    2AU     LIG  900   4.773  41.955   7.487
    2AU     LIG  901   5.051  41.641   7.464
    2AU     LIG  902   5.441  41.507   7.606
    2AU       S  903   3.341  42.988   8.039
    2AU     LIG  904   3.591  42.594   8.263
    2AU     LIG  905   3.757  42.283   8.591
    2AU     LIG  906   3.972  42.068   8.924
    2AU     LIG  907   4.390  42.001   9.080
    2AU     LIG  908   4.795  41.877   9.269
    2AU     LIG  909   5.081  41.846   9.644
    2AU    AUSL  910   3.137  43.585   7.355
    2AU    AUSL  911   3.085  43.081   7.252
    2AU     AUL  912   3.429  43.317   7.178
    2AU       S  913   3.484  43.131   7.577
    2AU     LIG  914   3.879  42.884   7.281
    2AU     LIG  915   4.366  42.737   7.221
    2AU     LIG  916   4.854  42.644   7.089
    2AU     LIG  917   5.377  42.643   7.159
    2AU     LIG  918   5.903  42.590   7.058
    2AU     LIG  919   6.309  42.289   6.913
    2AU       S  920   3.340  42.880   7.007
    2AU     LIG  921   3.419  42.411   6.960
    2AU     LIG  922   3.638  42.050   6.746
    2AU     LIG  923   3.856  41.800   6.415
    2AU     LIG  924   4.156  41.447   6.454
    2AU     LIG  925   4.589  41.278   6.281
    2AU     LIG  926   4.826  41.027   5.940
    2AU    AUSL  927   1.906  43.241   7.526
    2AU    AUSL  928   1.971  43.344   7.072
    2AU     AUL  929   1.704  43.402   7.065
    2AU       S  930   1.917  42.998   7.100
    2AU     LIG  931   1.443  42.909   7.014
    2AU     LIG  932   1.191  42.601   6.705
    2AU     LIG  933   0.827  42.348   6.481
    2AU     LIG  934   0.412  42.210   6.301
    2AU     LIG  935   0.235  41.996   5.935
    2AU     LIG  936   0.135  41.936   5.489
    2AU       S  937   1.618  43.200   7.470
    2AU     LIG  938   1.288  42.917   7.570
    2AU     LIG  939   0.823  42.837   7.558
    2AU     LIG  940   0.418  42.619   7.713
    2AU     LIG  941   0.017  42.337   7.696
    2AU     LIG  942  44.566  42.189   7.659
    2AU     LIG  943  44.259  41.959   7.412
    2AU    AUSL  944   2.053  43.631   7.644
    2AU    AUSL  945   2.145  43.289   7.886
    2AU     AUL  946   1.766  43.428   7.841
    2AU       S  947   1.910  43.121   8.143
    2AU     LIG  948   1.799  42.828   7.802
    2AU     LIG  949   1.480  42.456   7.853
    2AU     LIG  950   1.185  42.080   8.069
    2AU     LIG  951   0.865  41.785   8.342
    2AU     LIG  952   0.442  41.594   8.608
    2AU     LIG  953   0.183  41.471   9.026
    2AU       S  954   1.499  43.507   7.487
    2AU     LIG  955   1.026  43.305   7.298
    2AU     LIG  956   0.556  43.403   7.224
    2AU     LIG  957   0.126  43.535   7.399
    2AU     LIG  958  44.843  43.330   7.717
    2AU     LIG  959  44.471  43.013   7.733
    2AU     LIG  960  44.138  42.829   7.980
    2AU    AUSL  961   2.638  44.461   8.003
    2AU    AUSL  962   2.223  44.411   7.823
    2AU     AUL  963   2.396  44.543   8.093
    2AU       S  964   1.994  44.383   8.200
    2AU     LIG  965   1.708  44.692   8.474
    2AU     LIG  966   1.572   0.019   8.809
    2AU     LIG  967   1.486   0.436   9.048
    2AU     LIG  968   1.315   0.903   9.106
    2AU     LIG  969   1.035   1.312   9.122
    2AU     LIG  970   0.742   1.703   9.083
    2AU       S  971   2.711  44.886   7.969
    2AU     LIG  972   2.876   0.101   8.316
    2AU     LIG  973   2.995   0.481   8.542
    2AU     LIG  974   3.014   0.741   8.935
    2AU     LIG  975   3.033   0.972   9.356
    2AU     LIG  976   3.017   1.364   9.617
    2AU     LIG  977   2.956   1.809   9.772
    2AU    AUSL  978   2.512  44.625   7.620
    2AU    AUSL  979   2.818  44.566   7.313
    2AU     AUL  980   2.359  44.788   7.435
    2AU       S  981   2.741  44.848   7.718
    2AU     LIG  982   2.804   0.345   7.825
    2AU     LIG  983   2.735   0.708   8.135
    2AU     LIG  984   2.495   1.124   8.264
    2AU     LIG  985   2.559   1.547   8.473
    2AU     LIG  986   2.496   2.032   8.550
    2AU     LIG  987   2.405   2.486   8.666
    2AU       S  988   2.906  44.845   7.221
    2AU     LIG  989   3.260   0.109   7.124
    2AU     LIG  990   3.281   0.537   6.903
    2AU     LIG  991   3.466   0.962   6.731
    2AU     LIG  992   3.723   1.381   6.645
    2AU     LIG  993   3.842   1.828   6.501
    2AU     LIG  994   3.530   2.171   6.366
    2AU    AUSL  995   2.797  44.308   7.650
    2AU    AUSL  996   2.921  44.208   8.178
    2AU     AUL  997   2.943  44.494   8.044
    2AU       S  998   3.261  44.257   8.303
    2AU     LIG  999   3.523  44.233   8.694
    2AU     LIG 1000   3.731  44.554   8.985
    2AU     LIG 1001   4.022  44.851   9.226
    2AU     LIG 1002   4.211   0.083   9.606
    2AU     LIG 1003   4.190   0.285  10.049
    2AU     LIG 1004   4.074   0.607  10.394
    2AU       S 1005   2.984  44.775   7.692
    2AU     LIG 1006   3.225   0.084   7.945
    2AU     LIG 1007   3.276   0.554   8.099
    2AU     LIG 1008   3.587   0.965   8.158
    2AU     LIG 1009   3.851   1.402   8.172
    2AU     LIG 1010   3.912   1.869   8.275
    2AU     LIG 1011   3.939   2.332   8.390
    2AU    AUSL 1012   2.590  43.196   7.877
    2AU    AUSL 1013   3.007  43.090   7.752
    2AU     AUL 1014   2.786  42.989   8.129
    2AU       S 1015   2.599  42.582   8.033
    2AU     LIG 1016   2.402  42.144   8.206
    2AU     LIG 1017   2.166  41.719   8.214
    2AU     LIG 1018   2.058  41.252   8.353
    2AU     LIG 1019   2.056  40.816   8.584
    2AU     LIG 1020   2.102  40.533   8.987
    2AU     LIG 1021   2.329  40.477   9.402
    2AU       S 1022   3.142  42.870   7.843
    2AU     LIG 1023   3.250  42.408   7.909
    2AU     LIG 1024   3.443  42.092   8.240
    2AU     LIG 1025   3.699  41.744   8.508
    2AU     LIG 1026   3.851  41.318   8.712
    2AU     LIG 1027   4.168  41.108   8.969
    2AU     LIG 1028   4.642  41.025   9.089
    2AU    AUSL 1029   2.287  42.972   7.677
    2AU    AUSL 1030   2.383  43.247   8.236
    2AU     AUL 1031   2.318  42.958   8.016
    2AU       S 1032   2.414  42.520   7.895
    2AU     LIG 1033   1.991  42.353   7.895
    2AU     LIG 1034   1.698  41.984   7.960
    2AU     LIG 1035   1.708  41.521   8.060
    2AU     LIG 1036   1.658  41.038   8.067
    2AU     LIG 1037   1.748  40.591   8.218
    2AU     LIG 1038   1.884  40.324   8.570
    2AU       S 1039   2.071  43.156   8.351
    2AU     LIG 1040   1.850  42.673   8.304
    2AU     LIG 1041   1.506  42.346   8.367
    2AU     LIG 1042   1.173  42.120   8.646
    2AU     LIG 1043   0.983  42.083   9.087
    2AU     LIG 1044   0.794  41.846   9.442
    2AU     LIG 1045   0.577  41.538   9.731
    2AU    AUSL 1046   2.693  42.841   7.652
    2AU    AUSL 1047   2.399  42.913   7.281
    2AU     AUL 1048   2.237  42.744   7.542
    2AU       S 1049   2.446  42.564   7.168
    2AU     LIG 1050   2.055  42.375   7.268
    2AU     LIG 1051   1.728  42.059   7.198
    2AU     LIG 1052   1.745  41.601   7.067
    2AU     LIG 1053   1.746  41.154   6.899
    2AU     LIG 1054   1.849  40.716   6.795
    2AU     LIG 1055   1.781  40.293   6.636
    2AU       S 1056   2.659  42.693   7.758
    2AU     LIG 1057   2.739  42.213   7.688
    2AU     LIG 1058   2.590  41.780   7.882
    2AU     LIG 1059   2.491  41.325   8.059
    2AU     LIG 1060   2.536  40.831   8.144
    2AU     LIG 1061   2.835  40.478   8.268
    2AU     LIG 1062   3.007  40.416   8.704
    2AU    AUSL 1063   2.612  44.395   6.970
    2AU    AUSL 1064   2.913  44.165   7.247
    2AU     AUL 1065   2.947  44.453   6.957
    2AU       S 1066   2.680  44.834   6.915
    2AU     LIG 1067   3.026  44.983   6.688
    2AU     LIG 1068   3.067   0.392   6.456
    2AU     LIG 1069   3.077   0.688   6.076
    2AU     LIG 1070   3.146   0.976   5.689
    2AU     LIG 1071   3.124   1.375   5.429
    2AU     LIG 1072   2.976   1.750   5.177
    2AU       S 1073   3.370  44.199   6.989
    2AU     LIG 1074   3.771  44.587   6.824
    2AU     LIG 1075   3.952  44.784   6.397
    2AU     LIG 1076   4.218   0.090   6.113
    2AU     LIG 1077   4.472   0.523   6.045
    2AU     LIG 1078   4.728   0.956   6.036
    2AU     LIG 1079   4.962   1.373   5.900
    2AU    AUSL 1080   2.467  44.305   7.375
    2AU    AUSL 1081   2.392  44.058   7.046
    2AU     AUL 1082   2.356  44.532   7.048
    2AU       S 1083   2.749  44.788   7.212
    2AU     LIG 1084   2.795   0.301   7.042
    2AU     LIG 1085   2.773   0.715   6.790
    2AU     LIG 1086   2.507   1.135   6.722
    2AU     LIG 1087   2.489   1.576   6.544
    2AU     LIG 1088   2.513   2.023   6.365
    2AU     LIG 1089   2.160   2.324   6.356
    2AU       S 1090   2.220  44.356   6.647
    2AU     LIG 1091   2.136  44.464   6.208
    2AU     LIG 1092   1.930  44.775   5.900
    2AU     LIG 1093   1.710  44.907   5.490
    2AU     LIG 1094   1.578   0.163   5.091
    2AU     LIG 1095   1.351   0.487   4.811
    2AU     LIG 1096   1.074   0.807   4.602
    2AU    AUSL 1097   2.708  43.013   6.997
    2AU    AUSL 1098   2.278  43.302   7.358
    2AU     AUL 1099   2.368  42.974   6.972
    2AU       S 1100   1.937  42.892   7.209
    2AU     LIG 1101   1.616  42.587   7.365
    2AU     LIG 1102   1.269  42.360   7.140
    2AU     LIG 1103   0.887  42.109   6.924
    2AU     LIG 1104   0.560  41.856   6.643
    2AU     LIG 1105   0.282  41.615   6.313
    2AU     LIG 1106   0.085  41.187   6.143
    2AU       S 1107   2.618  42.586   6.976
    2AU     LIG 1108   2.230  42.339   6.787
    2AU     LIG 1109   1.935  41.973   6.733
    2AU     LIG 1110   1.934  41.516   6.595
    2AU     LIG 1111   1.952  41.070   6.425
    2AU     LIG 1112   1.916  40.846   6.000
    2AU     LIG 1113   2.096  40.927   5.559
    2AU    AUSL 1114   2.714  43.165   7.414
    2AU    AUSL 1115   2.822  43.397   7.077
    2AU     AUL 1116   2.909  42.898   7.168
    2AU       S 1117   2.591  42.593   7.272
    2AU     LIG 1118   2.477  42.082   7.218
    2AU     LIG 1119   2.256  41.681   7.023
    2AU     LIG 1120   2.259  41.194   6.910
    2AU     LIG 1121   2.538  40.775   6.931
    2AU     LIG 1122   2.940  40.558   6.781
    2AU     LIG 1123   3.183  40.360   6.450
    2AU       S 1124   3.091  43.037   6.742
    2AU     LIG 1125   3.089  42.599   6.598
    2AU     LIG 1126   3.360  42.261   6.363
    2AU     LIG 1127   3.613  42.020   6.008
    2AU     LIG 1128   3.585  41.769   5.569
    2AU     LIG 1129   3.705  41.642   5.117
    2AU     LIG 1130   3.823  41.369   4.711
    3AU     AUC 1131  31.571  37.346   7.511
    3AU     AUC 1132  31.831  37.344   7.350
    3AU     AUC 1133  31.821  37.346   7.655
    3AU     AUC 1134  31.321  37.344   7.352
    3AU     AUC 1135  31.313  37.372   7.668
    3AU     AUC 1136  31.418  37.614   7.516
    3AU     AUC 1137  31.741  37.592   7.509
    3AU     AUC 1138  31.407  37.101   7.527
    3AU     AUC 1139  31.707  37.080   7.527
    3AU     AUC 1140  31.564  37.189   7.769
    3AU     AUC 1141  31.587  37.514   7.761
    3AU     AUC 1142  31.570  37.183   7.251
    3AU     AUC 1143  31.558  37.478   7.248
    3AU     AUC 1144  32.079  37.344   7.174
    3AU     AUC 1145  32.091  37.356   7.481
    3AU     AUC 1146  32.094  37.347   7.789
    3AU     AUC 1147  31.064  37.323   7.198
    3AU     AUC 1148  31.051  37.361   7.496
    3AU     AUC 1149  31.058  37.407   7.818
    3AU     AUC 1150  31.273  37.874   7.517
    3AU     AUC 1151  31.583  37.869   7.510
    3AU     AUC 1152  31.886  37.863   7.497
    3AU     AUC 1153  31.230  36.847   7.542
    3AU     AUC 1154  31.543  36.821   7.521
    3AU     AUC 1155  31.863  36.818   7.529
    3AU     AUC 1156  31.566  37.041   8.026
    3AU     AUC 1157  31.592  37.342   8.036
    3AU     AUC 1158  31.616  37.664   8.015
    3AU     AUC 1159  31.572  36.997   7.021
    3AU     AUC 1160  31.573  37.314   6.986
    3AU     AUC 1161  31.552  37.630   6.983
    3AU     AUC 1162  31.836  37.173   7.925
    3AU     AUC 1163  31.848  37.513   7.926
    3AU     AUC 1164  31.840  37.176   7.088
    3AU     AUC 1165  31.833  37.485   7.072
    3AU     AUC 1166  31.317  37.234   7.948
    3AU     AUC 1167  31.313  37.539   7.920
    3AU     AUC 1168  31.319  37.164   7.087
    3AU     AUC 1169  31.308  37.480   7.084
    3AU     AUC 1170  31.987  37.612   7.326
    3AU     AUC 1171  32.006  37.585   7.665
    3AU     AUC 1172  31.154  37.610   7.361
    3AU     AUC 1173  31.169  37.649   7.666
    3AU     AUC 1174  31.986  37.078   7.363
    3AU     AUC 1175  31.969  37.062   7.670
    3AU     AUC 1176  31.146  37.081   7.370
    3AU     AUC 1177  31.148  37.125   7.709
    3AU     AUC 1178  31.438  37.778   7.778
    3AU     AUC 1179  31.767  37.768   7.753
    3AU     AUC 1180  31.385  36.941   7.785
    3AU     AUC 1181  31.705  36.926   7.785
    3AU     AUC 1182  31.414  37.749   7.241
    3AU     AUC 1183  31.728  37.744   7.234
    3AU     AUC 1184  31.397  36.927   7.265
    3AU     AUC 1185  31.728  36.920   7.272
    3AU    AUSL 1186  32.093  37.233   8.225
    3AU    AUSL 1187  31.871  36.859   8.142
    3AU     AUL 1188  32.159  36.911   8.376
    3AU       S 1189  32.184  36.493   8.149
    3AU     LIG 1190  32.018  36.128   8.327
    3AU     LIG 1191  32.131  35.789   8.631
    3AU     LIG 1192  32.404  35.571   8.947
    3AU     LIG 1193  32.697  35.287   9.182
    3AU     LIG 1194  32.907  35.228   9.607
    3AU     LIG 1195  32.864  35.163  10.096
    3AU       S 1196  32.049  37.294   8.633
    3AU     LIG 1197  32.197  37.113   9.032
    3AU     LIG 1198  32.477  36.880   9.339
    3AU     LIG 1199  32.806  36.800   9.669
    3AU     LIG 1200  33.181  36.828   9.966
    3AU     LIG 1201  33.354  36.780  10.398
    3AU     LIG 1202  33.672  36.832  10.736
    3AU    AUSL 1203  31.677  37.160   8.364
    3AU    AUSL 1204  31.522  37.576   8.369
    3AU     AUL 1205  31.581  37.492   8.705
    3AU       S 1206  31.759  37.101   8.547
    3AU     LIG 1207  31.898  36.758   8.812
    3AU     LIG 1208  32.022  36.642   9.269
    3AU     LIG 1209  32.136  36.504   9.733
    3AU     LIG 1210  32.151  36.359  10.213
    3AU     LIG 1211  32.255  36.303  10.690
    3AU     LIG 1212  32.381  36.374  11.138
    3AU       S 1213  31.168  37.312   8.700
    3AU     LIG 1214  30.979  37.304   9.115
    3AU     LIG 1215  30.824  37.161   9.523
    3AU     LIG 1216  30.679  37.189   9.958
    3AU     LIG 1217  30.771  37.506  10.316
    3AU     LIG 1218  30.852  37.808  10.691
    3AU     LIG 1219  30.691  37.901  11.130
    3AU    AUSL 1220  31.774  37.447   8.068
    3AU    AUSL 1221  32.201  37.556   7.976
    3AU     AUL 1222  32.273  37.400   8.216
    3AU       S 1223  31.983  37.556   8.534
    3AU     LIG 1224  31.978  37.811   8.902
    3AU     LIG 1225  32.065  37.976   9.345
    3AU     LIG 1226  32.057  38.153   9.795
    3AU     LIG 1227  32.222  38.222  10.234
    3AU     LIG 1228  32.237  38.178  10.697
    3AU     LIG 1229  32.489  38.055  11.067
    3AU       S 1230  32.467  37.817   8.188
    3AU     LIG 1231  32.842  37.970   8.403
    3AU     LIG 1232  33.171  38.062   8.728
    3AU     LIG 1233  33.405  38.282   9.071
    3AU     LIG 1234  33.722  38.355   9.428
    3AU     LIG 1235  34.083  38.386   9.762
    3AU     LIG 1236  34.386  38.597  10.073
    3AU    AUSL 1237  32.079  37.392   6.871
    3AU    AUSL 1238  31.852  37.775   6.838
    3AU     AUL 1239  31.787  37.762   6.574
    3AU       S 1240  32.117  37.464   6.487
    3AU     LIG 1241  32.442  37.311   6.267
    3AU     LIG 1242  32.537  37.089   5.884
    3AU     LIG 1243  32.644  36.972   5.434
    3AU     LIG 1244  32.973  36.815   5.102
    3AU     LIG 1245  33.358  36.690   4.813
    3AU     LIG 1246  33.629  36.718   4.407
    3AU       S 1247  32.221  37.938   6.640
    3AU     LIG 1248  32.438  38.231   6.371
    3AU     LIG 1249  32.693  38.401   6.011
    3AU     LIG 1250  32.958  38.323   5.638
    3AU     LIG 1251  33.206  38.525   5.309
    3AU     LIG 1252  33.161  38.840   4.969
    3AU     LIG 1253  33.294  39.251   4.786
    3AU    AUSL 1254  31.855  37.069   6.693
    3AU    AUSL 1255  32.197  37.013   7.002
    3AU     AUL 1256  32.283  37.125   6.738
    3AU       S 1257  32.238  36.664   6.804
    3AU     LIG 1258  32.400  36.280   6.539
    3AU     LIG 1259  32.625  35.928   6.308
    3AU     LIG 1260  32.877  35.647   6.009
    3AU     LIG 1261  33.285  35.671   5.742
    3AU     LIG 1262  33.677  35.842   5.502
    3AU     LIG 1263  34.063  35.818   5.223
    3AU       S 1264  31.940  37.231   6.430
    3AU     LIG 1265  32.124  36.890   6.224
    3AU     LIG 1266  32.189  36.730   5.771
    3AU     LIG 1267  32.223  36.707   5.292
    3AU     LIG 1268  32.277  36.478   4.869
    3AU     LIG 1269  32.333  36.390   4.402
    3AU     LIG 1270  32.506  36.594   4.018
    3AU    AUSL 1271  31.667  37.407   6.873
    3AU    AUSL 1272  31.431  37.117   6.679
    3AU     AUL 1273  31.641  36.905   6.582
    3AU       S 1274  31.375  37.200   6.330
    3AU     LIG 1275  31.217  36.934   5.981
    3AU     LIG 1276  31.050  36.695   5.615
    3AU     LIG 1277  30.825  36.585   5.223
    3AU     LIG 1278  30.550  36.418   4.875
    3AU     LIG 1279  30.527  36.296   4.415
    3AU     LIG 1280  30.547  36.401   3.949
    3AU       S 1281  31.827  37.324   6.480
    3AU     LIG 1282  31.996  37.341   5.968
    3AU     LIG 1283  32.165  37.194   5.540
    3AU     LIG 1284  32.267  37.196   5.076
    3AU     LIG 1285  32.196  37.432   4.648
    3AU     LIG 1286  32.339  37.720   4.287
    3AU     LIG 1287  32.359  37.889   3.843
    3AU    AUSL 1288  31.120  37.492   8.256
    3AU    AUSL 1289  31.394  37.707   7.996
    3AU     AUL 1290  31.332  37.795   8.382
    3AU       S 1291  31.059  37.506   8.634
    3AU     LIG 1292  30.659  37.282   8.699
    3AU     LIG 1293  30.504  37.078   9.100
    3AU     LIG 1294  30.353  36.948   9.539
    3AU     LIG 1295  30.080  37.033   9.923
    3AU     LIG 1296  29.740  37.046  10.266
    3AU     LIG 1297  29.414  37.218  10.597
    3AU       S 1298  30.894  37.896   8.275
    3AU     LIG 1299  30.877  37.961   8.733
    3AU     LIG 1300  30.764  38.243   9.093
    3AU     LIG 1301  30.560  38.583   9.356
    3AU     LIG 1302  30.506  38.749   9.818
    3AU     LIG 1303  30.352  39.006  10.206
    3AU     LIG 1304  30.219  39.417  10.424
    3AU    AUSL 1305  31.384  37.232   8.079
    3AU    AUSL 1306  30.882  37.218   8.039
    3AU     AUL 1307  30.981  37.238   8.268
    3AU       S 1308  30.721  36.860   8.290
    3AU     LIG 1309  30.333  36.704   8.087
    3AU     LIG 1310  29.981  36.431   8.237
    3AU     LIG 1311  29.785  36.141   8.553
    3AU     LIG 1312  29.577  35.795   8.789
    3AU     LIG 1313  29.397  35.618   9.184
    3AU     LIG 1314  29.051  35.675   9.499
    3AU       S 1315  31.268  37.152   8.606
    3AU     LIG 1316  30.947  36.870   8.838
    3AU     LIG 1317  30.827  36.715   9.274
    3AU     LIG 1318  30.744  36.680   9.748
    3AU     LIG 1319  30.620  36.419  10.138
    3AU     LIG 1320  30.595  36.293  10.597
    3AU     LIG 1321  30.400  36.251  11.031
    3AU    AUSL 1322  31.172  37.274   6.971
    3AU    AUSL 1323  31.315  36.837   6.958
    3AU     AUL 1324  31.145  36.942   6.670
    3AU       S 1325  31.123  37.281   6.340
    3AU     LIG 1326  30.831  37.284   6.000
    3AU     LIG 1327  30.646  37.014   5.663
    3AU     LIG 1328  30.376  36.825   5.328
    3AU     LIG 1329  30.096  36.763   4.961
    3AU     LIG 1330  29.884  36.943   4.579
    3AU     LIG 1331  29.537  37.136   4.315
    3AU       S 1332  30.890  36.544   6.846
    3AU     LIG 1333  30.613  36.204   6.737
    3AU     LIG 1334  30.385  35.889   6.496
    3AU     LIG 1335  30.137  35.605   6.210
    3AU     LIG 1336  29.895  35.361   5.875
    3AU     LIG 1337  29.894  35.271   5.390
    3AU     LIG 1338  29.841  35.134   4.925
    3AU    AUSL 1339  31.335  37.547   6.666
    3AU    AUSL 1340  30.943  37.625   6.937
    3AU     AUL 1341  30.931  37.370   6.742
    3AU       S 1342  30.941  37.840   6.707
    3AU     LIG 1343  30.533  37.900   6.485
    3AU     LIG 1344  30.340  38.128   6.102
    3AU     LIG 1345  30.240  38.272   5.639
    3AU     LIG 1346  29.985  38.470   5.262
    3AU     LIG 1347  29.579  38.580   5.012
    3AU     LIG 1348  29.185  38.823   4.871
    3AU       S 1349  31.350  37.454   6.478
    3AU     LIG 1350  31.313  37.489   5.938
    3AU     LIG 1351  31.116  37.232   5.560
    3AU     LIG 1352  30.985  37.190   5.091
    3AU     LIG 1353  31.033  37.395   4.633
    3AU     LIG 1354  30.978  37.630   4.200
    3AU     LIG 1355  30.857  37.794   3.760
    3AU    AUSL 1356  32.204  37.964   7.421
    3AU    AUSL 1357  32.225  37.725   7.068
    3AU     AUL 1358  32.286  38.185   7.191
    3AU       S 1359  32.373  37.759   6.799
    3AU     LIG 1360  32.670  37.760   6.471
    3AU     LIG 1361  32.968  38.025   6.227
    3AU     LIG 1362  33.327  38.232   5.984
    3AU     LIG 1363  33.691  38.292   5.659
    3AU     LIG 1364  34.120  38.404   5.437
    3AU     LIG 1365  34.300  38.664   5.073
    3AU       S 1366  32.638  37.896   7.299
    3AU     LIG 1367  33.167  37.869   7.297
    3AU     LIG 1368  33.629  37.929   7.478
    3AU     LIG 1369  34.097  38.081   7.529
    3AU     LIG 1370  34.370  38.486   7.594
    3AU     LIG 1371  34.629  38.876   7.477
    3AU     LIG 1372  34.835  39.309   7.528
    3AU    AUSL 1373  32.416  37.392   7.226
    3AU    AUSL 1374  32.409  37.237   7.718
    3AU     AUL 1375  32.624  37.285   7.481
    3AU       S 1376  32.697  37.575   7.121
    3AU     LIG 1377  33.097  37.347   7.216
    3AU     LIG 1378  33.550  37.461   7.248
    3AU     LIG 1379  33.991  37.635   7.263
    3AU     LIG 1380  34.447  37.676   7.118
    3AU     LIG 1381  34.854  37.892   6.992
    3AU     LIG 1382  35.228  38.187   7.026
    3AU       S 1383  32.767  36.903   7.715
    3AU     LIG 1384  33.116  36.672   7.879
    3AU     LIG 1385  33.528  36.511   7.805
    3AU     LIG 1386  33.901  36.263   7.713
    3AU     LIG 1387  34.332  36.325   7.851
    3AU     LIG 1388  34.767  36.347   8.039
    3AU     LIG 1389  35.201  36.499   7.994
    3AU    AUSL 1390  32.210  37.567   7.557
    3AU    AUSL 1391  32.136  37.942   7.826
    3AU     AUL 1392  32.430  37.759   7.713
    3AU       S 1393  32.347  38.008   8.090
    3AU     LIG 1394  32.504  38.363   8.310
    3AU     LIG 1395  32.885  38.473   8.568
    3AU     LIG 1396  33.179  38.715   8.846
    3AU     LIG 1397  33.320  39.136   9.011
    3AU     LIG 1398  33.660  39.462   9.056
    3AU     LIG 1399  33.986  39.811   9.039
    3AU       S 1400  32.685  37.745   7.338
    3AU     LIG 1401  33.001  37.562   7.668
    3AU     LIG 1402  33.484  37.522   7.755
    3AU     LIG 1403  33.979  37.627   7.785
    3AU     LIG 1404  34.475  37.681   7.790
    3AU     LIG 1405  34.955  37.546   7.744
    3AU     LIG 1406  35.454  37.637   7.758
    3AU    AUSL 1407  30.911  37.883   7.532
    3AU    AUSL 1408  30.988  37.647   7.894
    3AU     AUL 1409  30.719  37.994   7.780
    3AU       S 1410  30.726  37.694   8.141
    3AU     LIG 1411  30.457  37.728   8.514
    3AU     LIG 1412  30.372  37.975   8.900
    3AU     LIG 1413  30.123  38.180   9.247
    3AU     LIG 1414  29.814  38.253   9.620
    3AU     LIG 1415  29.515  38.515   9.915
    3AU     LIG 1416  29.240  38.883  10.068
    3AU       S 1417  30.357  37.819   7.550
    3AU     LIG 1418  30.223  38.273   7.615
    3AU     LIG 1419  29.884  38.604   7.511
    3AU     LIG 1420  29.557  38.979   7.492
    3AU     LIG 1421  29.241  39.350   7.552
    3AU     LIG 1422  28.819  39.493   7.718
    3AU     LIG 1423  28.368  39.636   7.762
    3AU    AUSL 1424  31.002  37.534   7.332
    3AU    AUSL 1425  31.092  37.982   7.166
    3AU     AUL 1426  30.823  37.879   7.173
    3AU       S 1427  30.436  37.865   7.406
    3AU     LIG 1428  30.281  37.797   6.969
    3AU     LIG 1429  29.960  38.012   6.674
    3AU     LIG 1430  29.474  38.067   6.523
    3AU     LIG 1431  28.985  38.142   6.617
    3AU     LIG 1432  28.506  38.193   6.649
    3AU     LIG 1433  28.142  38.528   6.638
    3AU       S 1434  30.940  38.131   6.782
    3AU     LIG 1435  30.747  38.357   6.396
    3AU     LIG 1436  30.548  38.643   6.056
    3AU     LIG 1437  30.476  39.111   5.910
    3AU     LIG 1438  30.350  39.589   5.858
    3AU     LIG 1439  30.025  39.943   5.791
    3AU     LIG 1440  29.742  40.300   5.632
    3AU    AUSL 1441  30.699  37.507   7.644
    3AU    AUSL 1442  30.738  37.214   7.329
    3AU     AUL 1443  30.606  37.475   7.253
    3AU       S 1444  30.415  37.022   7.483
    3AU     LIG 1445  29.992  36.894   7.706
    3AU     LIG 1446  29.482  36.832   7.684
    3AU     LIG 1447  28.985  36.746   7.634
    3AU     LIG 1448  28.613  36.684   7.297
    3AU     LIG 1449  28.167  36.584   7.057
    3AU     LIG 1450  27.738  36.383   6.991
    3AU       S 1451  30.507  37.551   7.729
    3AU     LIG 1452  30.297  37.923   8.037
    3AU     LIG 1453  29.897  38.102   8.248
    3AU     LIG 1454  29.412  38.137   8.172
    3AU     LIG 1455  28.982  38.297   8.350
    3AU     LIG 1456  28.591  38.555   8.416
    3AU     LIG 1457  28.171  38.677   8.577
    3AU    AUSL 1458  32.286  36.858   7.567
    3AU    AUSL 1459  32.027  37.116   7.835
    3AU     AUL 1460  32.374  36.996   7.936
    3AU       S 1461  32.469  36.660   7.593
    3AU     LIG 1462  32.726  36.347   7.775
    3AU     LIG 1463  33.157  36.188   7.643
    3AU     LIG 1464  33.559  35.962   7.477
    3AU     LIG 1465  33.933  35.631   7.438
    3AU     LIG 1466  34.295  35.273   7.393
    3AU     LIG 1467  34.741  35.157   7.240
    3AU       S 1468  32.280  36.576   8.059
    3AU     LIG 1469  32.571  36.229   8.287
    3AU     LIG 1470  32.648  35.913   8.631
    3AU     LIG 1471  32.924  35.615   8.863
    3AU     LIG 1472  33.212  35.497   9.231
    3AU     LIG 1473  33.655  35.511   9.446
    3AU     LIG 1474  34.078  35.426   9.676
    3AU    AUSL 1475  32.106  37.175   7.372
    3AU    AUSL 1476  32.049  36.703   7.258
    3AU     AUL 1477  32.385  36.916   7.200
    3AU       S 1478  32.602  36.809   7.575
    3AU     LIG 1479  33.019  36.642   7.372
    3AU     LIG 1480  33.435  36.439   7.280
    3AU     LIG 1481  33.881  36.284   7.192
    3AU     LIG 1482  34.342  36.419   7.172
    3AU     LIG 1483  34.812  36.503   7.060
    3AU     LIG 1484  35.260  36.359   7.124
    3AU       S 1485  32.300  36.504   6.987
    3AU     LIG 1486  32.111  36.087   6.931
    3AU     LIG 1487  32.285  35.727   6.656
    3AU     LIG 1488  32.563  35.418   6.388
    3AU     LIG 1489  32.785  35.120   6.073
    3AU     LIG 1490  33.089  34.786   5.892
    3AU     LIG 1491  33.508  34.569   5.953
    3AU    AUSL 1492  30.865  36.846   7.533
    3AU    AUSL 1493  30.931  36.954   7.078
    3AU     AUL 1494  30.664  37.024   7.072
    3AU       S 1495  30.873  36.617   7.096
    3AU     LIG 1496  30.400  36.602   7.010
    3AU     LIG 1497  30.104  36.313   6.760
    3AU     LIG 1498  29.877  35.984   6.478
    3AU     LIG 1499  29.639  35.751   6.124
    3AU     LIG 1500  29.369  35.691   5.723
    3AU     LIG 1501  29.043  35.584   5.378
    3AU       S 1502  30.589  36.808   7.475
    3AU     LIG 1503  30.248  36.517   7.495
    3AU     LIG 1504  29.781  36.543   7.364
    3AU     LIG 1505  29.288  36.498   7.313
    3AU     LIG 1506  28.849  36.239   7.404
    3AU     LIG 1507  28.503  35.861   7.440
    3AU     LIG 1508  28.095  35.728   7.652
    3AU    AUSL 1509  31.012  37.235   7.652
    3AU    AUSL 1510  31.103  36.894   7.894
    3AU     AUL 1511  30.724  37.037   7.850
    3AU       S 1512  30.871  36.730   8.151
    3AU     LIG 1513  30.699  36.447   7.850
    3AU     LIG 1514  30.330  36.147   7.990
    3AU     LIG 1515  30.023  35.807   8.236
    3AU     LIG 1516  29.811  35.416   8.499
    3AU     LIG 1517  29.667  34.945   8.648
    3AU     LIG 1518  29.375  34.539   8.687
    3AU       S 1519  30.461  37.105   7.491
    3AU     LIG 1520  30.032  36.977   7.202
    3AU     LIG 1521  29.553  36.993   7.192
    3AU     LIG 1522  29.056  37.003   7.198
    3AU     LIG 1523  28.701  37.149   7.509
    3AU     LIG 1524  28.400  36.882   7.772
    3AU     LIG 1525  28.083  36.541   7.893
    3AU    AUSL 1526  31.584  38.071   8.017
    3AU    AUSL 1527  31.179  38.018   7.819
    3AU     AUL 1528  31.335  38.158   8.085
    3AU       S 1529  30.931  38.000   8.190
    3AU     LIG 1530  30.559  38.235   8.442
    3AU     LIG 1531  30.492  38.567   8.797
    3AU     LIG 1532  30.474  39.018   8.993
    3AU     LIG 1533  30.308  39.482   9.048
    3AU     LIG 1534  29.960  39.808   9.120
    3AU     LIG 1535  29.606  39.945   9.413
    3AU       S 1536  31.664  38.501   7.985
    3AU     LIG 1537  31.945  38.691   8.324
    3AU     LIG 1538  32.095  39.073   8.583
    3AU     LIG 1539  32.116  39.393   8.943
    3AU     LIG 1540  31.911  39.650   9.298
    3AU     LIG 1541  31.836  40.050   9.545
    3AU     LIG 1542  32.011  40.496   9.616
    3AU    AUSL 1543  31.474  38.237   7.628
    3AU    AUSL 1544  31.783  38.175   7.322
    3AU     AUL 1545  31.369  38.433   7.456
    3AU       S 1546  31.742  38.465   7.739
    3AU     LIG 1547  31.833  38.957   7.890
    3AU     LIG 1548  31.927  39.346   8.170
    3AU     LIG 1549  31.874  39.787   8.373
    3AU     LIG 1550  31.638  40.226   8.414
    3AU     LIG 1551  31.392  40.649   8.510
    3AU     LIG 1552  31.168  41.030   8.732
    3AU       S 1553  31.848  38.452   7.230
    3AU     LIG 1554  32.209  38.727   7.060
    3AU     LIG 1555  32.341  39.172   6.878
    3AU     LIG 1556  32.322  39.619   6.698
    3AU     LIG 1557  32.308  40.078   6.683
    3AU     LIG 1558  32.426  40.419   6.396
    3AU     LIG 1559  32.600  40.840   6.467
    3AU    AUSL 1560  31.763  37.927   7.668
    3AU    AUSL 1561  31.890  37.822   8.158
    3AU     AUL 1562  31.892  38.106   8.047
    3AU       S 1563  32.221  37.873   8.291
    3AU     LIG 1564  32.411  38.005   8.681
    3AU     LIG 1565  32.731  38.186   8.968
    3AU     LIG 1566  32.961  38.485   9.248
    3AU     LIG 1567  33.126  38.891   9.425
    3AU     LIG 1568  33.220  39.148   9.814
    3AU     LIG 1569  33.214  39.389  10.222
    3AU       S 1570  31.960  38.384   7.697
    3AU     LIG 1571  32.260  38.675   7.922
    3AU     LIG 1572  32.384  39.088   8.154
    3AU     LIG 1573  32.390  39.545   8.321
    3AU     LIG 1574  32.336  40.005   8.243
    3AU     LIG 1575  32.519  40.392   8.430
    3AU     LIG 1576  32.569  40.837   8.597
    3AU    AUSL 1577  31.546  36.801   7.882
    3AU    AUSL 1578  31.961  36.697   7.762
    3AU     AUL 1579  31.743  36.599   8.135
    3AU       S 1580  31.567  36.190   8.034
    3AU     LIG 1581  31.686  35.760   8.129
    3AU     LIG 1582  31.456  35.379   8.246
    3AU     LIG 1583  31.225  34.993   8.371
    3AU     LIG 1584  31.194  34.724   8.753
    3AU     LIG 1585  31.340  34.544   9.167
    3AU     LIG 1586  31.426  34.132   9.366
    3AU       S 1587  32.103  36.482   7.844
    3AU     LIG 1588  32.285  36.047   7.901
    3AU     LIG 1589  32.427  35.695   8.222
    3AU     LIG 1590  32.592  35.328   8.539
    3AU     LIG 1591  32.762  34.921   8.791
    3AU     LIG 1592  33.104  34.559   8.891
    3AU     LIG 1593  33.564  34.364   8.925
    3AU    AUSL 1594  31.244  36.578   7.681
    3AU    AUSL 1595  31.343  36.859   8.244
    3AU     AUL 1596  31.278  36.564   8.022
    3AU       S 1597  31.368  36.122   7.910
    3AU     LIG 1598  31.218  35.681   7.887
    3AU     LIG 1599  31.082  35.210   7.919
    3AU     LIG 1600  30.748  34.840   8.020
    3AU     LIG 1601  30.401  34.459   8.037
    3AU     LIG 1602  30.300  33.998   8.199
    3AU     LIG 1603  30.540  33.592   8.369
    3AU       S 1604  31.027  36.778   8.346
    3AU     LIG 1605  30.684  36.375   8.417
    3AU     LIG 1606  30.309  36.123   8.526
    3AU     LIG 1607  30.095  35.767   8.760
    3AU     LIG 1608  29.871  35.439   9.035
    3AU     LIG 1609  29.754  35.267   9.468
    3AU     LIG 1610  29.785  34.990   9.871
    3AU    AUSL 1611  31.649  36.446   7.657
    3AU    AUSL 1612  31.358  36.521   7.285
    3AU     AUL 1613  31.201  36.342   7.544
    3AU       S 1614  31.363  36.149   7.148
    3AU     LIG 1615  30.984  35.967   6.994
    3AU     LIG 1616  30.683  35.611   6.838
    3AU     LIG 1617  30.507  35.140   6.790
    3AU     LIG 1618  30.343  34.659   6.702
    3AU     LIG 1619  30.159  34.239   6.547
    3AU     LIG 1620  30.234  33.777   6.473
    3AU       S 1621  31.620  36.300   7.763
    3AU     LIG 1622  31.659  35.844   7.617
    3AU     LIG 1623  31.604  35.371   7.737
    3AU     LIG 1624  31.578  34.956   7.971
    3AU     LIG 1625  31.759  34.515   8.011
    3AU     LIG 1626  31.908  34.051   8.073
    3AU     LIG 1627  31.937  33.560   8.165
    3AU    AUSL 1628  31.551  38.022   6.990
    3AU    AUSL 1629  31.869  37.773   7.265
    3AU     AUL 1630  31.896  38.066   6.962
    3AU       S 1631  31.612  38.421   6.880
    3AU     LIG 1632  32.007  38.489   6.652
    3AU     LIG 1633  32.136  38.926   6.473
    3AU     LIG 1634  32.091  39.346   6.214
    3AU     LIG 1635  32.117  39.619   5.802
    3AU     LIG 1636  32.042  39.978   5.473
    3AU     LIG 1637  31.981  40.350   5.173
    3AU       S 1638  32.303  37.803   6.942
    3AU     LIG 1639  32.668  38.149   6.834
    3AU     LIG 1640  32.881  38.458   6.506
    3AU     LIG 1641  33.015  38.795   6.171
    3AU     LIG 1642  33.310  39.166   6.061
    3AU     LIG 1643  33.533  39.588   6.001
    3AU     LIG 1644  33.880  39.887   5.848
    3AU    AUSL 1645  31.429  37.910   7.391
    3AU    AUSL 1646  31.352  37.670   7.054
    3AU     AUL 1647  31.296  38.153   7.092
    3AU       S 1648  31.694  38.443   7.146
    3AU     LIG 1649  31.767  38.897   6.883
    3AU     LIG 1650  31.876  39.343   6.696
    3AU     LIG 1651  31.824  39.830   6.598
    3AU     LIG 1652  31.527  40.237   6.519
    3AU     LIG 1653  31.296  40.651   6.356
    3AU     LIG 1654  31.036  41.074   6.286
    3AU       S 1655  31.186  37.975   6.673
    3AU     LIG 1656  31.008  37.946   6.219
    3AU     LIG 1657  30.796  38.223   5.868
    3AU     LIG 1658  30.683  38.504   5.473
    3AU     LIG 1659  30.651  38.759   5.045
    3AU     LIG 1660  30.464  39.074   4.718
    3AU     LIG 1661  30.139  39.420   4.633
    3AU    AUSL 1662  31.669  36.621   7.004
    3AU    AUSL 1663  31.237  36.909   7.364
    3AU     AUL 1664  31.326  36.581   6.978
    3AU       S 1665  30.899  36.502   7.210
    3AU     LIG 1666  30.576  36.183   7.251
    3AU     LIG 1667  30.277  35.893   7.007
    3AU     LIG 1668  30.060  35.555   6.724
    3AU     LIG 1669  29.764  35.311   6.407
    3AU     LIG 1670  29.542  34.891   6.291
    3AU     LIG 1671  29.251  34.519   6.170
    3AU       S 1672  31.597  36.213   6.978
    3AU     LIG 1673  31.416  35.947   6.686
    3AU     LIG 1674  31.225  35.542   6.757
    3AU     LIG 1675  31.318  35.107   6.621
    3AU     LIG 1676  31.453  34.807   6.291
    3AU     LIG 1677  31.523  34.669   5.840
    3AU     LIG 1678  31.448  34.376   5.477
    3AU    AUSL 1679  31.674  36.771   7.420
    3AU    AUSL 1680  31.773  37.006   7.085
    3AU     AUL 1681  31.884  36.510   7.180
    3AU       S 1682  31.552  36.214   7.260
    3AU     LIG 1683  31.644  35.733   7.111
    3AU     LIG 1684  31.585  35.275   7.043
    3AU     LIG 1685  31.489  34.825   7.027
    3AU     LIG 1686  31.757  34.455   7.047
    3AU     LIG 1687  31.971  34.059   6.922
    3AU     LIG 1688  31.927  33.577   6.876
    3AU       S 1689  32.048  36.646   6.745
    3AU     LIG 1690  31.884  36.289   6.522
    3AU     LIG 1691  32.099  35.962   6.237
    3AU     LIG 1692  32.344  35.640   5.974
    3AU     LIG 1693  32.546  35.344   5.664
    3AU     LIG 1694  32.780  35.168   5.289
    3AU     LIG 1695  33.164  34.981   5.097
    4AU     AUC 1696  39.373   6.263   7.501
    4AU     AUC 1697  39.635   6.260   7.342
    4AU     AUC 1698  39.621   6.258   7.649
    4AU     AUC 1699  39.126   6.266   7.337
    4AU     AUC 1700  39.111   6.293   7.652
    4AU     AUC 1701  39.222   6.533   7.503
    4AU     AUC 1702  39.543   6.507   7.499
    4AU     AUC 1703  39.205   6.021   7.514
    4AU     AUC 1704  39.507   5.996   7.521
    4AU     AUC 1705  39.360   6.108   7.759
    4AU     AUC 1706  39.387   6.431   7.750
    4AU     AUC 1707  39.374   6.098   7.243
    4AU     AUC 1708  39.368   6.396   7.238
    4AU     AUC 1709  39.885   6.254   7.177
    4AU     AUC 1710  39.893   6.264   7.477
    4AU     AUC 1711  39.891   6.254   7.788
    4AU     AUC 1712  38.873   6.249   7.178
    4AU     AUC 1713  38.853   6.287   7.475
    4AU     AUC 1714  38.854   6.330   7.799
    4AU     AUC 1715  39.080   6.793   7.505
    4AU     AUC 1716  39.391   6.786   7.502
    4AU     AUC 1717  39.696   6.777   7.489
    4AU     AUC 1718  39.021   5.771   7.528
    4AU     AUC 1719  39.335   5.739   7.513
    4AU     AUC 1720  39.656   5.732   7.528
    4AU     AUC 1721  39.356   5.961   8.016
    4AU     AUC 1722  39.386   6.260   8.026
    4AU     AUC 1723  39.413   6.581   8.007
    4AU     AUC 1724  39.377   5.911   7.012
    4AU     AUC 1725  39.386   6.228   6.976
    4AU     AUC 1726  39.367   6.544   6.971
    4AU     AUC 1727  39.631   6.088   7.919
    4AU     AUC 1728  39.644   6.427   7.921
    4AU     AUC 1729  39.647   6.085   7.083
    4AU     AUC 1730  39.643   6.396   7.066
    4AU     AUC 1731  39.109   6.155   7.933
    4AU     AUC 1732  39.110   6.459   7.906
    4AU     AUC 1733  39.128   6.084   7.073
    4AU     AUC 1734  39.123   6.402   7.069
    4AU     AUC 1735  39.793   6.523   7.316
    4AU     AUC 1736  39.806   6.497   7.662
    4AU     AUC 1737  38.963   6.533   7.343
    4AU     AUC 1738  38.970   6.571   7.649
    4AU     AUC 1739  39.786   5.988   7.362
    4AU     AUC 1740  39.763   5.971   7.668
    4AU     AUC 1741  38.946   6.005   7.352
    4AU     AUC 1742  38.943   6.049   7.691
    4AU     AUC 1743  39.239   6.696   7.766
    4AU     AUC 1744  39.571   6.681   7.745
    4AU     AUC 1745  39.175   5.862   7.771
    4AU     AUC 1746  39.496   5.842   7.778
    4AU     AUC 1747  39.226   6.671   7.228
    4AU     AUC 1748  39.539   6.658   7.225
    4AU     AUC 1749  39.196   5.846   7.252
    4AU     AUC 1750  39.528   5.832   7.268
    4AU    AUSL 1751  39.884   6.142   8.222
    4AU    AUSL 1752  39.656   5.774   8.137
    4AU     AUL 1753  39.942   5.819   8.374
    4AU       S 1754  39.960   5.402   8.146
    4AU     LIG 1755  39.814   5.022   8.311
    4AU     LIG 1756  39.915   4.669   8.608
    4AU     LIG 1757  40.180   4.489   8.947
    4AU     LIG 1758  40.452   4.234   9.229
    4AU     LIG 1759  40.514   3.943   9.605
    4AU     LIG 1760  40.680   3.685   9.978
    4AU       S 1761  39.836   6.205   8.629
    4AU     LIG 1762  39.930   6.106   9.076
    4AU     LIG 1763  40.182   5.941   9.451
    4AU     LIG 1764  40.542   5.913   9.767
    4AU     LIG 1765  40.908   5.889  10.083
    4AU     LIG 1766  41.187   5.931  10.474
    4AU     LIG 1767  41.504   5.995  10.823
    4AU    AUSL 1768  39.464   6.077   8.356
    4AU    AUSL 1769  39.311   6.494   8.357
    4AU     AUL 1770  39.373   6.409   8.702
    4AU       S 1771  39.542   6.016   8.538
    4AU     LIG 1772  39.700   5.710   8.832
    4AU     LIG 1773  39.811   5.609   9.290
    4AU     LIG 1774  39.856   5.457   9.753
    4AU     LIG 1775  39.966   5.276  10.192
    4AU     LIG 1776  40.018   5.175  10.663
    4AU     LIG 1777  40.230   5.354  11.048
    4AU       S 1778  38.955   6.245   8.683
    4AU     LIG 1779  38.791   6.209   9.104
    4AU     LIG 1780  38.694   5.994   9.512
    4AU     LIG 1781  38.524   5.978   9.948
    4AU     LIG 1782  38.543   6.258  10.339
    4AU     LIG 1783  38.532   6.573  10.698
    4AU     LIG 1784  38.423   6.802  11.094
    4AU    AUSL 1785  39.572   6.364   8.064
    4AU    AUSL 1786  40.005   6.473   7.989
    4AU     AUL 1787  40.071   6.304   8.217
    4AU       S 1788  39.770   6.472   8.519
    4AU     LIG 1789  39.763   6.745   8.869
    4AU     LIG 1790  39.876   6.871   9.318
    4AU     LIG 1791  39.905   6.951   9.797
    4AU     LIG 1792  39.973   7.177  10.208
    4AU     LIG 1793  40.181   7.259  10.624
    4AU     LIG 1794  40.223   7.186  11.089
    4AU       S 1795  40.250   6.728   8.188
    4AU     LIG 1796  40.644   6.865   8.352
    4AU     LIG 1797  40.959   6.907   8.680
    4AU     LIG 1798  41.055   6.967   9.125
    4AU     LIG 1799  41.246   7.245   9.444
    4AU     LIG 1800  41.645   7.298   9.700
    4AU     LIG 1801  42.037   7.498   9.874
    4AU    AUSL 1802  39.912   6.280   6.865
    4AU    AUSL 1803  39.647   6.689   6.809
    4AU     AUL 1804  39.972   6.619   6.435
    4AU       S 1805  39.966   6.306   6.725
    4AU     LIG 1806  40.227   6.219   6.334
    4AU     LIG 1807  40.267   6.043   5.914
    4AU     LIG 1808  40.392   5.855   5.490
    4AU     LIG 1809  40.743   5.709   5.174
    4AU     LIG 1810  41.135   5.641   4.883
    4AU     LIG 1811  41.366   5.669   4.461
    4AU       S 1812  39.627   6.775   6.649
    4AU     LIG 1813  39.938   7.106   6.524
    4AU     LIG 1814  40.287   7.154   6.202
    4AU     LIG 1815  40.621   7.344   5.895
    4AU     LIG 1816  40.971   7.520   5.613
    4AU     LIG 1817  41.101   7.676   5.180
    4AU     LIG 1818  41.059   8.002   4.823
    4AU    AUSL 1819  39.660   5.960   6.694
    4AU    AUSL 1820  40.003   5.900   7.005
    4AU     AUL 1821  40.039   5.887   6.649
    4AU       S 1822  40.119   5.492   6.887
    4AU     LIG 1823  40.216   5.167   6.562
    4AU     LIG 1824  40.440   4.839   6.314
    4AU     LIG 1825  40.682   4.556   6.027
    4AU     LIG 1826  41.051   4.574   5.723
    4AU     LIG 1827  41.385   4.623   5.391
    4AU     LIG 1828  41.755   4.548   5.120
    4AU       S 1829  39.728   6.188   6.442
    4AU     LIG 1830  39.841   5.845   6.179
    4AU     LIG 1831  39.972   5.642   5.770
    4AU     LIG 1832  39.969   5.603   5.299
    4AU     LIG 1833  39.952   5.410   4.863
    4AU     LIG 1834  39.953   5.367   4.392
    4AU     LIG 1835  40.205   5.159   4.051
    4AU    AUSL 1836  39.495   6.313   6.868
    4AU    AUSL 1837  39.244   6.039   6.666
    4AU     AUL 1838  39.462   5.829   6.571
    4AU       S 1839  39.202   6.128   6.320
    4AU     LIG 1840  39.157   5.837   5.993
    4AU     LIG 1841  38.877   5.632   5.674
    4AU     LIG 1842  38.599   5.464   5.326
    4AU     LIG 1843  38.394   5.348   4.915
    4AU     LIG 1844  38.402   5.224   4.455
    4AU     LIG 1845  38.330   5.235   3.970
    4AU       S 1846  39.621   6.299   6.514
    4AU     LIG 1847  39.783   6.326   5.990
    4AU     LIG 1848  39.900   6.111   5.563
    4AU     LIG 1849  40.078   6.080   5.122
    4AU     LIG 1850  40.105   6.259   4.676
    4AU     LIG 1851  40.021   6.513   4.272
    4AU     LIG 1852  40.049   6.685   3.829
    4AU    AUSL 1853  38.912   6.406   8.236
    4AU    AUSL 1854  39.191   6.623   7.981
    4AU     AUL 1855  39.131   6.707   8.374
    4AU       S 1856  38.835   6.425   8.613
    4AU     LIG 1857  38.479   6.118   8.686
    4AU     LIG 1858  38.359   5.907   9.098
    4AU     LIG 1859  38.228   5.768   9.541
    4AU     LIG 1860  37.962   5.749   9.938
    4AU     LIG 1861  37.655   5.897  10.279
    4AU     LIG 1862  37.350   5.890  10.664
    4AU       S 1863  38.692   6.809   8.269
    4AU     LIG 1864  38.791   6.915   8.722
    4AU     LIG 1865  38.712   7.203   9.076
    4AU     LIG 1866  38.477   7.493   9.355
    4AU     LIG 1867  38.270   7.663   9.740
    4AU     LIG 1868  38.094   7.891  10.120
    4AU     LIG 1869  37.771   8.147  10.357
    4AU    AUSL 1870  39.182   6.151   8.061
    4AU    AUSL 1871  38.665   6.146   8.013
    4AU     AUL 1872  38.773   6.153   8.248
    4AU       S 1873  38.495   5.787   8.265
    4AU     LIG 1874  38.132   5.588   8.069
    4AU     LIG 1875  37.801   5.291   8.208
    4AU     LIG 1876  37.592   5.002   8.523
    4AU     LIG 1877  37.373   4.714   8.823
    4AU     LIG 1878  37.129   4.571   9.194
    4AU     LIG 1879  36.746   4.664   9.469
    4AU       S 1880  39.053   6.078   8.595
    4AU     LIG 1881  38.814   5.756   8.859
    4AU     LIG 1882  38.676   5.540   9.277
    4AU     LIG 1883  38.605   5.490   9.752
    4AU     LIG 1884  38.466   5.292  10.165
    4AU     LIG 1885  38.430   5.254  10.637
    4AU     LIG 1886  38.258   5.164  11.084
    4AU    AUSL 1887  38.991   6.200   6.957
    4AU    AUSL 1888  39.120   5.759   6.942
    4AU     AUL 1889  38.963   5.868   6.650
    4AU       S 1890  38.948   6.207   6.321
    4AU     LIG 1891  38.691   6.058   5.959
    4AU     LIG 1892  38.448   5.905   5.570
    4AU     LIG 1893  38.166   5.741   5.213
    4AU     LIG 1894  37.786   5.703   4.926
    4AU     LIG 1895  37.444   5.900   4.660
    4AU     LIG 1896  37.334   6.110   4.248
    4AU       S 1897  38.697   5.481   6.820
    4AU     LIG 1898  38.516   5.077   6.824
    4AU     LIG 1899  38.233   4.822   6.564
    4AU     LIG 1900  37.933   4.658   6.236
    4AU     LIG 1901  37.637   4.457   5.916
    4AU     LIG 1902  37.535   4.354   5.457
    4AU     LIG 1903  37.459   4.172   5.022
    4AU    AUSL 1904  39.170   6.469   6.654
    4AU    AUSL 1905  38.772   6.553   6.907
    4AU     AUL 1906  38.754   6.299   6.721
    4AU       S 1907  38.785   6.771   6.667
    4AU     LIG 1908  38.497   6.897   6.306
    4AU     LIG 1909  38.202   7.118   5.983
    4AU     LIG 1910  37.908   7.219   5.599
    4AU     LIG 1911  37.482   7.205   5.328
    4AU     LIG 1912  37.056   7.381   5.168
    4AU     LIG 1913  36.838   7.756   4.979
    4AU       S 1914  39.155   6.389   6.455
    4AU     LIG 1915  39.140   6.378   5.904
    4AU     LIG 1916  38.959   6.127   5.520
    4AU     LIG 1917  38.855   6.108   5.044
    4AU     LIG 1918  38.929   6.270   4.580
    4AU     LIG 1919  38.837   6.480   4.144
    4AU     LIG 1920  38.560   6.719   3.820
    4AU    AUSL 1921  40.037   6.840   7.410
    4AU    AUSL 1922  40.019   6.641   7.034
    4AU     AUL 1923  40.123   7.093   7.223
    4AU       S 1924  40.117   6.778   6.843
    4AU     LIG 1925  40.448   6.737   6.514
    4AU     LIG 1926  40.761   6.937   6.202
    4AU     LIG 1927  41.087   7.098   5.883
    4AU     LIG 1928  41.387   7.218   5.513
    4AU     LIG 1929  41.692   7.381   5.186
    4AU     LIG 1930  41.958   7.730   5.002
    4AU       S 1931  40.440   6.767   7.279
    4AU     LIG 1932  40.878   6.974   7.392
    4AU     LIG 1933  41.315   6.887   7.532
    4AU     LIG 1934  41.775   7.001   7.491
    4AU     LIG 1935  42.109   7.363   7.489
    4AU     LIG 1936  42.391   7.769   7.498
    4AU     LIG 1937  42.764   8.024   7.657
    4AU    AUSL 1938  40.209   6.330   7.236
    4AU    AUSL 1939  40.210   6.141   7.723
    4AU     AUL 1940  40.424   6.201   7.484
    4AU       S 1941  40.477   6.483   7.103
    4AU     LIG 1942  40.990   6.509   7.176
    4AU     LIG 1943  41.492   6.530   7.210
    4AU     LIG 1944  41.921   6.309   7.152
    4AU     LIG 1945  42.388   6.206   7.029
    4AU     LIG 1946  42.866   6.360   7.028
    4AU     LIG 1947  43.326   6.506   6.947
    4AU       S 1948  40.559   5.808   7.706
    4AU     LIG 1949  40.969   5.692   7.856
    4AU     LIG 1950  41.197   5.322   7.839
    4AU     LIG 1951  41.592   5.153   7.757
    4AU     LIG 1952  42.036   5.167   7.877
    4AU     LIG 1953  42.487   5.144   7.989
    4AU     LIG 1954  42.971   5.054   8.029
    4AU    AUSL 1955  39.991   6.460   7.575
    4AU    AUSL 1956  39.941   6.852   7.811
    4AU     AUL 1957  40.239   6.649   7.714
    4AU       S 1958  40.156   6.919   8.079
    4AU     LIG 1959  40.298   7.250   8.351
    4AU     LIG 1960  40.703   7.362   8.563
    4AU     LIG 1961  41.025   7.668   8.688
    4AU     LIG 1962  41.385   7.892   8.876
    4AU     LIG 1963  41.626   8.302   8.886
    4AU     LIG 1964  41.880   8.660   9.085
    4AU       S 1965  40.513   6.652   7.354
    4AU     LIG 1966  40.828   6.515   7.659
    4AU     LIG 1967  41.296   6.385   7.667
    4AU     LIG 1968  41.772   6.503   7.663
    4AU     LIG 1969  42.184   6.538   7.913
    4AU     LIG 1970  42.672   6.531   7.973
    4AU     LIG 1971  43.035   6.656   8.279
    4AU    AUSL 1972  38.723   6.811   7.508
    4AU    AUSL 1973  38.782   6.573   7.879
    4AU     AUL 1974  38.521   6.909   7.795
    4AU       S 1975  38.500   6.595   8.138
    4AU     LIG 1976  38.362   6.640   8.600
    4AU     LIG 1977  38.276   6.949   8.957
    4AU     LIG 1978  38.049   7.213   9.304
    4AU     LIG 1979  37.767   7.322   9.701
    4AU     LIG 1980  37.378   7.486   9.961
    4AU     LIG 1981  36.980   7.706  10.150
    4AU       S 1982  38.290   6.937   7.406
    4AU     LIG 1983  38.030   7.274   7.587
    4AU     LIG 1984  37.839   7.725   7.538
    4AU     LIG 1985  37.490   8.053   7.562
    4AU     LIG 1986  37.232   8.296   7.863
    4AU     LIG 1987  36.817   8.523   7.850
    4AU     LIG 1988  36.342   8.548   7.816
    4AU    AUSL 1989  38.807   6.460   7.306
    4AU    AUSL 1990  38.910   6.903   7.144
    4AU     AUL 1991  38.639   6.797   7.135
    4AU       S 1992  38.236   6.758   7.399
    4AU     LIG 1993  37.780   6.684   7.321
    4AU     LIG 1994  37.384   6.819   7.060
    4AU     LIG 1995  37.058   7.138   6.876
    4AU     LIG 1996  36.657   7.363   6.690
    4AU     LIG 1997  36.215   7.555   6.735
    4AU     LIG 1998  35.729   7.532   6.700
    4AU       S 1999  38.805   7.055   6.765
    4AU     LIG 2000  38.634   7.367   6.460
    4AU     LIG 2001  38.336   7.599   6.162
    4AU     LIG 2002  38.033   7.975   6.070
    4AU     LIG 2003  37.925   8.437   5.995
    4AU     LIG 2004  37.739   8.868   5.859
    4AU     LIG 2005  37.483   9.229   6.039
    4AU    AUSL 2006  38.501   6.440   7.615
    4AU    AUSL 2007  38.541   6.141   7.306
    4AU     AUL 2008  38.417   6.396   7.200
    4AU       S 2009  38.207   5.961   7.447
    4AU     LIG 2010  37.868   5.947   7.788
    4AU     LIG 2011  37.392   6.044   7.775
    4AU     LIG 2012  36.959   5.851   7.696
    4AU     LIG 2013  36.612   5.643   7.397
    4AU     LIG 2014  36.148   5.691   7.264
    4AU     LIG 2015  35.818   5.343   7.305
    4AU       S 2016  38.303   6.510   7.658
    4AU     LIG 2017  37.992   6.808   7.855
    4AU     LIG 2018  37.539   6.949   8.020
    4AU     LIG 2019  37.095   7.076   8.222
    4AU     LIG 2020  36.593   7.094   8.176
    4AU     LIG 2021  36.161   7.142   8.386
    4AU     LIG 2022  35.728   7.312   8.525
    4AU    AUSL 2023  40.082   5.763   7.573
    4AU    AUSL 2024  39.824   6.028   7.832
    4AU     AUL 2025  40.168   5.901   7.939
    4AU       S 2026  40.258   5.563   7.590
    4AU     LIG 2027  40.528   5.259   7.806
    4AU     LIG 2028  40.886   4.959   7.664
    4AU     LIG 2029  41.334   4.761   7.555
    4AU     LIG 2030  41.798   4.584   7.546
    4AU     LIG 2031  42.211   4.285   7.593
    4AU     LIG 2032  42.679   4.234   7.694
    4AU       S 2033  40.061   5.483   8.056
    4AU     LIG 2034  40.340   5.124   8.274
    4AU     LIG 2035  40.424   4.812   8.606
    4AU     LIG 2036  40.692   4.520   8.860
    4AU     LIG 2037  41.001   4.427   9.201
    4AU     LIG 2038  41.388   4.553   9.466
    4AU     LIG 2039  41.723   4.516   9.804
    4AU    AUSL 2040  39.915   6.079   7.367
    4AU    AUSL 2041  39.841   5.606   7.269
    4AU     AUL 2042  40.194   5.847   7.204
    4AU       S 2043  40.394   5.707   7.577
    4AU     LIG 2044  40.806   5.458   7.426
    4AU     LIG 2045  41.190   5.190   7.315
    4AU     LIG 2046  41.650   5.113   7.242
    4AU     LIG 2047  42.104   5.211   7.093
    4AU     LIG 2048  42.610   5.168   7.078
    4AU     LIG 2049  43.088   5.072   7.155
    4AU       S 2050  40.105   5.391   7.110
    4AU     LIG 2051  39.944   4.984   6.962
    4AU     LIG 2052  40.147   4.633   6.688
    4AU     LIG 2053  40.444   4.325   6.441
    4AU     LIG 2054  40.659   3.941   6.222
    4AU     LIG 2055  40.927   3.523   6.140
    4AU     LIG 2056  41.288   3.319   5.884
    4AU    AUSL 2057  38.658   5.775   7.512
    4AU    AUSL 2058  38.736   5.888   7.050
    4AU     AUL 2059  38.464   5.937   7.051
    4AU       S 2060  38.679   5.536   7.075
    4AU     LIG 2061  38.201   5.468   6.970
    4AU     LIG 2062  37.892   5.208   6.663
    4AU     LIG 2063  37.550   4.970   6.381
    4AU     LIG 2064  37.226   4.726   6.106
    4AU     LIG 2065  36.841   4.694   5.801
    4AU     LIG 2066  36.681   4.752   5.347
    4AU       S 2067  38.372   5.731   7.452
    4AU     LIG 2068  37.997   5.502   7.549
    4AU     LIG 2069  37.521   5.610   7.516
    4AU     LIG 2070  37.075   5.403   7.479
    4AU     LIG 2071  36.679   5.130   7.585
    4AU     LIG 2072  36.304   4.881   7.792
    4AU     LIG 2073  36.035   4.504   7.685
    4AU    AUSL 2074  38.811   6.164   7.632
    4AU    AUSL 2075  38.891   5.821   7.878
    4AU     AUL 2076  38.517   5.959   7.823
    4AU       S 2077  38.653   5.667   8.145
    4AU     LIG 2078  38.534   5.389   7.824
    4AU     LIG 2079  38.182   5.083   7.917
    4AU     LIG 2080  37.869   4.772   8.144
    4AU     LIG 2081  37.607   4.477   8.427
    4AU     LIG 2082  37.453   4.183   8.781
    4AU     LIG 2083  37.243   3.774   8.936
    4AU       S 2084  38.256   6.050   7.467
    4AU     LIG 2085  37.745   6.123   7.334
    4AU     LIG 2086  37.252   6.057   7.277
    4AU     LIG 2087  36.779   6.151   7.340
    4AU     LIG 2088  36.438   6.008   7.684
    4AU     LIG 2089  36.037   5.813   7.755
    4AU     LIG 2090  35.749   5.480   7.806
    4AU    AUSL 2091  39.380   6.987   8.013
    4AU    AUSL 2092  38.982   6.938   7.806
    4AU     AUL 2093  39.121   7.066   8.071
    4AU       S 2094  38.729   6.904   8.204
    4AU     LIG 2095  38.413   7.164   8.487
    4AU     LIG 2096  38.316   7.456   8.852
    4AU     LIG 2097  38.211   7.855   9.081
    4AU     LIG 2098  37.953   8.255   9.104
    4AU     LIG 2099  37.787   8.685   9.221
    4AU     LIG 2100  37.436   8.994   9.326
    4AU       S 2101  39.446   7.412   8.039
    4AU     LIG 2102  39.661   7.666   8.376
    4AU     LIG 2103  39.934   8.010   8.560
    4AU     LIG 2104  40.011   8.362   8.862
    4AU     LIG 2105  40.006   8.552   9.312
    4AU     LIG 2106  39.943   8.860   9.677
    4AU     LIG 2107  39.618   9.151   9.879
    4AU    AUSL 2108  39.280   7.157   7.621
    4AU    AUSL 2109  39.609   7.097   7.331
    4AU     AUL 2110  39.275   7.390   7.441
    4AU       S 2111  39.505   7.433   7.834
    4AU     LIG 2112  39.566   7.902   7.929
    4AU     LIG 2113  39.655   8.277   8.210
    4AU     LIG 2114  39.479   8.694   8.385
    4AU     LIG 2115  39.209   9.098   8.464
    4AU     LIG 2116  39.109   9.545   8.631
    4AU     LIG 2117  38.875   9.923   8.833
    4AU       S 2118  39.660   7.447   7.156
    4AU     LIG 2119  39.982   7.734   6.947
    4AU     LIG 2120  40.094   8.196   6.960
    4AU     LIG 2121  40.319   8.610   6.908
    4AU     LIG 2122  40.383   9.012   6.693
    4AU     LIG 2123  40.459   9.462   6.719
    4AU     LIG 2124  40.454   9.781   6.384
    4AU    AUSL 2125  39.564   6.841   7.665
    4AU    AUSL 2126  39.690   6.742   8.145
    4AU     AUL 2127  39.706   7.029   8.015
    4AU       S 2128  40.011   6.788   8.283
    4AU     LIG 2129  40.240   6.847   8.684
    4AU     LIG 2130  40.552   7.066   8.954
    4AU     LIG 2131  40.824   7.426   9.102
    4AU     LIG 2132  40.923   7.687   9.477
    4AU     LIG 2133  40.817   7.996   9.831
    4AU     LIG 2134  40.969   8.345  10.111
    4AU       S 2135  39.718   7.353   7.700
    4AU     LIG 2136  39.989   7.608   7.984
    4AU     LIG 2137  40.122   8.058   8.086
    4AU     LIG 2138  40.215   8.465   8.338
    4AU     LIG 2139  40.414   8.926   8.375
    4AU     LIG 2140  40.332   9.405   8.370
    4AU     LIG 2141  40.361   9.897   8.444
    4AU    AUSL 2142  39.333   5.721   7.875
    4AU    AUSL 2143  39.747   5.611   7.757
    4AU     AUL 2144  39.521   5.517   8.131
    4AU       S 2145  39.338   5.112   8.033
    4AU     LIG 2146  39.466   4.690   8.121
    4AU     LIG 2147  39.208   4.351   8.255
    4AU     LIG 2148  38.996   3.943   8.342
    4AU     LIG 2149  38.985   3.591   8.650
    4AU     LIG 2150  39.101   3.374   9.058
    4AU     LIG 2151  39.205   3.055   9.391
    4AU       S 2152  39.883   5.400   7.842
    4AU     LIG 2153  40.058   4.976   7.861
    4AU     LIG 2154  40.177   4.625   8.174
    4AU     LIG 2155  40.370   4.310   8.499
    4AU     LIG 2156  40.611   4.000   8.795
    4AU     LIG 2157  40.940   3.675   8.959
    4AU     LIG 2158  41.315   3.347   8.993
    4AU    AUSL 2159  39.032   5.504   7.667
    4AU    AUSL 2160  39.124   5.783   8.233
    4AU     AUL 2161  39.055   5.490   8.011
    4AU       S 2162  39.148   5.046   7.899
    4AU     LIG 2163  39.018   4.621   7.830
    4AU     LIG 2164  38.929   4.157   7.863
    4AU     LIG 2165  38.602   3.829   7.988
    4AU     LIG 2166  38.327   3.433   7.939
    4AU     LIG 2167  38.256   3.008   8.170
    4AU     LIG 2168  38.357   2.594   8.361
    4AU       S 2169  38.805   5.695   8.342
    4AU     LIG 2170  38.473   5.279   8.365
    4AU     LIG 2171  38.122   5.012   8.520
    4AU     LIG 2172  37.903   4.683   8.793
    4AU     LIG 2173  37.681   4.468   9.155
    4AU     LIG 2174  37.616   4.316   9.593
    4AU     LIG 2175  37.605   3.969   9.919
    4AU    AUSL 2176  39.433   5.361   7.655
    4AU    AUSL 2177  39.145   5.440   7.272
    4AU     AUL 2178  38.971   5.273   7.543
    4AU       S 2179  39.120   5.080   7.146
    4AU     LIG 2180  38.806   4.781   7.131
    4AU     LIG 2181  38.758   4.311   7.137
    4AU     LIG 2182  38.693   3.865   6.967
    4AU     LIG 2183  38.406   3.458   6.924
    4AU     LIG 2184  38.338   3.009   6.746
    4AU     LIG 2185  38.276   2.543   6.646
    4AU       S 2186  39.395   5.223   7.756
    4AU     LIG 2187  39.471   4.782   7.611
    4AU     LIG 2188  39.427   4.318   7.749
    4AU     LIG 2189  39.421   3.943   8.036
    4AU     LIG 2190  39.555   3.498   8.000
    4AU     LIG 2191  39.701   3.086   8.195
    4AU     LIG 2192  39.767   2.636   8.363
    4AU    AUSL 2193  39.376   6.949   6.997
    4AU    AUSL 2194  39.678   6.695   7.252
    4AU     AUL 2195  39.719   7.015   7.014
    4AU       S 2196  39.406   7.274   6.794
    4AU     LIG 2197  39.688   7.547   6.560
    4AU     LIG 2198  39.821   7.970   6.393
    4AU     LIG 2199  39.890   8.191   5.947
    4AU     LIG 2200  39.897   8.555   5.616
    4AU     LIG 2201  39.856   8.938   5.328
    4AU     LIG 2202  39.828   9.305   5.026
    4AU       S 2203  40.081   6.733   6.929
    4AU     LIG 2204  40.393   7.168   6.781
    4AU     LIG 2205  40.671   7.403   6.436
    4AU     LIG 2206  40.901   7.715   6.125
    4AU     LIG 2207  41.184   8.102   6.017
    4AU     LIG 2208  41.353   8.569   6.043
    4AU     LIG 2209  41.608   9.000   6.103
    4AU    AUSL 2210  39.237   6.832   7.385
    4AU    AUSL 2211  39.178   6.593   7.042
    4AU     AUL 2212  39.112   7.090   7.117
    4AU       S 2213  39.459   7.403   7.029
    4AU     LIG 2214  39.497   7.890   6.881
    4AU     LIG 2215  39.609   8.357   6.729
    4AU     LIG 2216  39.466   8.852   6.658
    4AU     LIG 2217  39.250   9.326   6.606
    4AU     LIG 2218  39.082   9.793   6.482
    4AU     LIG 2219  38.690  10.057   6.316
    4AU       S 2220  39.040   6.904   6.675
    4AU     LIG 2221  38.991   7.036   6.253
    4AU     LIG 2222  38.698   7.261   5.954
    4AU     LIG 2223  38.395   7.475   5.649
    4AU     LIG 2224  38.293   7.688   5.230
    4AU     LIG 2225  38.129   7.875   4.814
    4AU     LIG 2226  37.924   8.171   4.499
    4AU    AUSL 2227  39.467   5.534   7.000
    4AU    AUSL 2228  39.031   5.832   7.346
    4AU     AUL 2229  39.132   5.502   6.958
    4AU       S 2230  38.693   5.437   7.186
    4AU     LIG 2231  38.385   5.168   7.340
    4AU     LIG 2232  38.070   4.936   7.067
    4AU     LIG 2233  37.774   4.694   6.757
    4AU     LIG 2234  37.518   4.433   6.437
    4AU     LIG 2235  37.409   4.048   6.171
    4AU     LIG 2236  37.232   3.603   6.141
    4AU       S 2237  39.371   5.111   6.989
    4AU     LIG 2238  39.123   4.890   6.693
    4AU     LIG 2239  39.002   4.464   6.717
    4AU     LIG 2240  39.056   4.027   6.608
    4AU     LIG 2241  39.206   3.658   6.370
    4AU     LIG 2242  39.343   3.456   5.952
    4AU     LIG 2243  39.280   3.241   5.528
    4AU    AUSL 2244  39.461   5.683   7.416
    4AU    AUSL 2245  39.581   5.915   7.087
    4AU     AUL 2246  39.655   5.407   7.199
    4AU       S 2247  39.309   5.125   7.260
    4AU     LIG 2248  39.294   4.610   7.147
    4AU     LIG 2249  39.243   4.116   7.090
    4AU     LIG 2250  39.189   3.657   6.931
    4AU     LIG 2251  39.431   3.314   6.687
    4AU     LIG 2252  39.724   3.031   6.419
    4AU     LIG 2253  39.903   2.580   6.348
    4AU       S 2254  39.870   5.487   6.793
    4AU     LIG 2255  39.690   5.159   6.553
    4AU     LIG 2256  39.906   4.836   6.281
    4AU     LIG 2257  40.149   4.495   6.051
    4AU     LIG 2258  40.229   4.136   5.746
    4AU     LIG 2259  40.354   3.978   5.313
    4AU     LIG 2260  40.540   3.874   4.893
    5AU     AUC 2261   8.173  15.601   7.507
    5AU     AUC 2262   8.431  15.600   7.347
    5AU     AUC 2263   8.423  15.595   7.655
    5AU     AUC 2264   7.924  15.602   7.343
    5AU     AUC 2265   7.912  15.629   7.660
    5AU     AUC 2266   8.018  15.869   7.508
    5AU     AUC 2267   8.334  15.847   7.504
    5AU     AUC 2268   8.008  15.357   7.520
    5AU     AUC 2269   8.312  15.335   7.524
    5AU     AUC 2270   8.165  15.445   7.765
    5AU     AUC 2271   8.185  15.769   7.756
    5AU     AUC 2272   8.174  15.437   7.248
    5AU     AUC 2273   8.167  15.737   7.244
    5AU     AUC 2274   8.685  15.602   7.186
    5AU     AUC 2275   8.693  15.604   7.484
    5AU     AUC 2276   8.694  15.591   7.793
    5AU     AUC 2277   7.669  15.582   7.186
    5AU     AUC 2278   7.652  15.619   7.485
    5AU     AUC 2279   7.657  15.662   7.810
    5AU     AUC 2280   7.873  16.128   7.508
    5AU     AUC 2281   8.185  16.124   7.505
    5AU     AUC 2282   8.494  16.116   7.494
    5AU     AUC 2283   7.828  15.105   7.535
    5AU     AUC 2284   8.140  15.076   7.517
    5AU     AUC 2285   8.461  15.071   7.527
    5AU     AUC 2286   8.166  15.297   8.021
    5AU     AUC 2287   8.190  15.597   8.031
    5AU     AUC 2288   8.210  15.919   8.012
    5AU     AUC 2289   8.178  15.250   7.017
    5AU     AUC 2290   8.180  15.568   6.983
    5AU     AUC 2291   8.164  15.888   6.980
    5AU     AUC 2292   8.439  15.428   7.922
    5AU     AUC 2293   8.441  15.768   7.930
    5AU     AUC 2294   8.446  15.430   7.088
    5AU     AUC 2295   8.439  15.740   7.072
    5AU     AUC 2296   7.914  15.490   7.941
    5AU     AUC 2297   7.911  15.794   7.914
    5AU     AUC 2298   7.925  15.420   7.080
    5AU     AUC 2299   7.916  15.738   7.075
    5AU     AUC 2300   8.592  15.866   7.331
    5AU     AUC 2301   8.598  15.840   7.675
    5AU     AUC 2302   7.757  15.866   7.350
    5AU     AUC 2303   7.768  15.905   7.657
    5AU     AUC 2304   8.589  15.331   7.365
    5AU     AUC 2305   8.567  15.308   7.669
    5AU     AUC 2306   7.748  15.339   7.361
    5AU     AUC 2307   7.748  15.383   7.700
    5AU     AUC 2308   8.034  16.033   7.771
    5AU     AUC 2309   8.364  16.023   7.752
    5AU     AUC 2310   7.982  15.198   7.777
    5AU     AUC 2311   8.302  15.180   7.781
    5AU     AUC 2312   8.021  16.006   7.233
    5AU     AUC 2313   8.338  16.000   7.232
    5AU     AUC 2314   7.998  15.183   7.258
    5AU     AUC 2315   8.330  15.174   7.269
    5AU    AUSL 2316   8.694  15.480   8.221
    5AU    AUSL 2317   8.466  15.113   8.137
    5AU     AUL 2318   8.755  15.162   8.374
    5AU       S 2319   8.775  14.752   8.138
    5AU     LIG 2320   8.577  14.419   8.326
    5AU     LIG 2321   8.729  14.137   8.655
    5AU     LIG 2322   8.972  13.805   8.891
    5AU     LIG 2323   9.225  13.436   9.075
    5AU     LIG 2324   9.308  13.142   9.455
    5AU     LIG 2325   9.430  13.007   9.913
    5AU       S 2326   8.650  15.551   8.623
    5AU     LIG 2327   8.716  15.431   9.066
    5AU     LIG 2328   8.982  15.241   9.413
    5AU     LIG 2329   9.237  15.191   9.812
    5AU     LIG 2330   9.599  15.122  10.129
    5AU     LIG 2331   9.900  15.154  10.503
    5AU     LIG 2332  10.263  15.400  10.694
    5AU    AUSL 2333   8.275  15.413   8.362
    5AU    AUSL 2334   8.114  15.826   8.365
    5AU     AUL 2335   8.187  15.746   8.707
    5AU       S 2336   8.356  15.354   8.542
    5AU     LIG 2337   8.511  15.027   8.817
    5AU     LIG 2338   8.600  14.914   9.279
    5AU     LIG 2339   8.619  14.719   9.729
    5AU     LIG 2340   8.638  14.566  10.189
    5AU     LIG 2341   8.802  14.673  10.620
    5AU     LIG 2342   9.020  14.576  11.027
    5AU       S 2343   7.766  15.589   8.693
    5AU     LIG 2344   7.599  15.544   9.115
    5AU     LIG 2345   7.498  15.342   9.528
    5AU     LIG 2346   7.491  15.377   9.996
    5AU     LIG 2347   7.513  15.698  10.363
    5AU     LIG 2348   7.331  16.022  10.675
    5AU     LIG 2349   7.165  16.138  11.109
    5AU    AUSL 2350   8.379  15.703   8.071
    5AU    AUSL 2351   8.806  15.836   8.021
    5AU     AUL 2352   8.891  15.642   8.213
    5AU       S 2353   8.579  15.807   8.513
    5AU     LIG 2354   8.573  16.082   8.866
    5AU     LIG 2355   8.622  16.240   9.323
    5AU     LIG 2356   8.616  16.381   9.795
    5AU     LIG 2357   8.758  16.633  10.181
    5AU     LIG 2358   8.754  16.642  10.657
    5AU     LIG 2359   8.888  16.433  11.072
    5AU       S 2360   8.987  16.093   8.231
    5AU     LIG 2361   9.399  16.109   8.346
    5AU     LIG 2362   9.682  16.196   8.684
    5AU     LIG 2363   9.925  16.484   8.941
    5AU     LIG 2364  10.176  16.590   9.322
    5AU     LIG 2365  10.450  16.674   9.710
    5AU     LIG 2366  10.856  16.853   9.894
    5AU    AUSL 2367   8.682  15.637   6.903
    5AU    AUSL 2368   8.449  16.027   6.833
    5AU     AUL 2369   8.421  15.993   6.573
    5AU       S 2370   8.745  15.688   6.486
    5AU     LIG 2371   8.999  15.577   6.163
    5AU     LIG 2372   9.133  15.272   5.873
    5AU     LIG 2373   9.198  15.176   5.428
    5AU     LIG 2374   9.522  15.090   5.083
    5AU     LIG 2375   9.919  15.055   4.806
    5AU     LIG 2376  10.287  15.124   4.510
    5AU       S 2377   8.835  16.203   6.617
    5AU     LIG 2378   9.092  16.449   6.323
    5AU     LIG 2379   9.401  16.593   5.989
    5AU     LIG 2380   9.684  16.668   5.607
    5AU     LIG 2381   9.816  16.897   5.198
    5AU     LIG 2382   9.793  17.300   4.933
    5AU     LIG 2383   9.692  17.614   4.592
    5AU    AUSL 2384   8.472  15.326   6.694
    5AU    AUSL 2385   8.806  15.252   6.999
    5AU     AUL 2386   8.940  15.434   6.808
    5AU       S 2387   8.827  14.979   6.739
    5AU     LIG 2388   8.982  14.627   6.417
    5AU     LIG 2389   9.206  14.194   6.322
    5AU     LIG 2390   9.450  13.887   6.033
    5AU     LIG 2391   9.737  13.788   5.655
    5AU     LIG 2392  10.127  13.818   5.362
    5AU     LIG 2393  10.495  13.806   5.045
    5AU       S 2394   8.623  15.409   6.463
    5AU     LIG 2395   8.738  15.090   6.205
    5AU     LIG 2396   8.750  14.951   5.751
    5AU     LIG 2397   8.751  14.958   5.273
    5AU     LIG 2398   8.836  14.736   4.851
    5AU     LIG 2399   9.060  14.606   4.447
    5AU     LIG 2400   9.234  14.646   3.998
    5AU    AUSL 2401   8.273  15.657   6.872
    5AU    AUSL 2402   8.046  15.368   6.671
    5AU     AUL 2403   8.249  15.154   6.580
    5AU       S 2404   8.009  15.461   6.326
    5AU     LIG 2405   7.988  15.188   5.978
    5AU     LIG 2406   7.700  14.965   5.675
    5AU     LIG 2407   7.499  14.865   5.256
    5AU     LIG 2408   7.229  14.693   4.899
    5AU     LIG 2409   7.116  14.586   4.447
    5AU     LIG 2410   7.082  14.579   3.974
    5AU       S 2411   8.468  15.554   6.492
    5AU     LIG 2412   8.467  15.515   6.007
    5AU     LIG 2413   8.725  15.443   5.600
    5AU     LIG 2414   8.856  15.464   5.137
    5AU     LIG 2415   8.871  15.686   4.702
    5AU     LIG 2416   8.885  15.981   4.309
    5AU     LIG 2417   9.080  16.158   3.909
    5AU    AUSL 2418   7.716  15.737   8.244
    5AU    AUSL 2419   7.990  15.964   7.993
    5AU     AUL 2420   7.938  16.049   8.383
    5AU       S 2421   7.641  15.763   8.618
    5AU     LIG 2422   7.289  15.455   8.697
    5AU     LIG 2423   7.174  15.236   9.108
    5AU     LIG 2424   7.019  15.129   9.555
    5AU     LIG 2425   6.662  15.056   9.882
    5AU     LIG 2426   6.347  15.122  10.236
    5AU     LIG 2427   6.232  15.304  10.638
    5AU       S 2428   7.496  16.139   8.284
    5AU     LIG 2429   7.587  16.251   8.737
    5AU     LIG 2430   7.502  16.560   9.079
    5AU     LIG 2431   7.259  16.828   9.387
    5AU     LIG 2432   7.148  16.944   9.850
    5AU     LIG 2433   6.973  17.130  10.265
    5AU     LIG 2434   6.708  17.401  10.570
    5AU    AUSL 2435   7.990  15.486   8.068
    5AU    AUSL 2436   7.468  15.476   8.023
    5AU     AUL 2437   7.582  15.482   8.259
    5AU       S 2438   7.301  15.118   8.286
    5AU     LIG 2439   6.943  14.935   8.065
    5AU     LIG 2440   6.590  14.640   8.164
    5AU     LIG 2441   6.382  14.357   8.490
    5AU     LIG 2442   6.172  14.067   8.788
    5AU     LIG 2443   5.967  13.914   9.185
    5AU     LIG 2444   5.587  13.974   9.468
    5AU       S 2445   7.866  15.416   8.602
    5AU     LIG 2446   7.633  15.098   8.861
    5AU     LIG 2447   7.522  14.894   9.277
    5AU     LIG 2448   7.416  14.844   9.739
    5AU     LIG 2449   7.199  14.657  10.121
    5AU     LIG 2450   7.168  14.586  10.588
    5AU     LIG 2451   7.307  14.619  11.034
    5AU    AUSL 2452   7.791  15.534   6.960
    5AU    AUSL 2453   7.914  15.093   6.948
    5AU     AUL 2454   7.758  15.202   6.656
    5AU       S 2455   7.755  15.533   6.320
    5AU     LIG 2456   7.523  15.417   5.933
    5AU     LIG 2457   7.324  15.283   5.515
    5AU     LIG 2458   7.005  15.067   5.218
    5AU     LIG 2459   6.552  15.024   5.024
    5AU     LIG 2460   6.206  15.111   4.694
    5AU     LIG 2461   6.059  15.312   4.289
    5AU       S 2462   7.492  14.816   6.830
    5AU     LIG 2463   7.315  14.405   6.822
    5AU     LIG 2464   7.033  14.155   6.546
    5AU     LIG 2465   6.699  14.039   6.215
    5AU     LIG 2466   6.425  13.852   5.854
    5AU     LIG 2467   6.340  13.742   5.378
    5AU     LIG 2468   6.245  13.420   5.020
    5AU    AUSL 2469   7.953  15.804   6.655
    5AU    AUSL 2470   7.556  15.880   6.920
    5AU     AUL 2471   7.558  15.634   6.720
    5AU       S 2472   7.561  16.107   6.675
    5AU     LIG 2473   7.307  16.221   6.277
    5AU     LIG 2474   7.058  16.483   5.935
    5AU     LIG 2475   6.831  16.594   5.499
    5AU     LIG 2476   6.467  16.716   5.183
    5AU     LIG 2477   6.061  16.813   4.915
    5AU     LIG 2478   5.631  17.012   4.789
    5AU       S 2479   7.988  15.706   6.463
    5AU     LIG 2480   7.976  15.722   5.916
    5AU     LIG 2481   7.843  15.443   5.528
    5AU     LIG 2482   7.653  15.345   5.092
    5AU     LIG 2483   7.618  15.483   4.614
    5AU     LIG 2484   7.558  15.716   4.176
    5AU     LIG 2485   7.428  15.896   3.735
    5AU    AUSL 2486   8.854  16.142   7.433
    5AU    AUSL 2487   8.829  15.994   7.035
    5AU     AUL 2488   8.888  16.401   7.224
    5AU       S 2489   9.014  15.964   6.812
    5AU     LIG 2490   9.262  15.968   6.461
    5AU     LIG 2491   9.598  16.245   6.317
    5AU     LIG 2492   9.905  16.484   6.046
    5AU     LIG 2493  10.187  16.525   5.657
    5AU     LIG 2494  10.559  16.625   5.372
    5AU     LIG 2495  10.758  16.881   5.028
    5AU       S 2496   9.249  16.124   7.360
    5AU     LIG 2497   9.731  16.181   7.373
    5AU     LIG 2498  10.225  16.134   7.411
    5AU     LIG 2499  10.716  16.260   7.423
    5AU     LIG 2500  11.083  16.611   7.407
    5AU     LIG 2501  11.397  16.985   7.500
    5AU     LIG 2502  11.525  17.412   7.322
    5AU    AUSL 2503   8.999  15.706   7.280
    5AU    AUSL 2504   9.025  15.480   7.700
    5AU     AUL 2505   9.204  15.450   7.326
    5AU       S 2506   9.264  15.907   7.253
    5AU     LIG 2507   9.721  15.700   7.185
    5AU     LIG 2508  10.230  15.646   7.227
    5AU     LIG 2509  10.730  15.760   7.263
    5AU     LIG 2510  11.153  15.968   7.107
    5AU     LIG 2511  11.541  16.182   6.911
    5AU     LIG 2512  11.988  16.381   6.984
    5AU       S 2513   9.376  15.212   7.697
    5AU     LIG 2514   9.754  14.950   7.808
    5AU     LIG 2515  10.070  14.625   7.886
    5AU     LIG 2516  10.534  14.588   7.854
    5AU     LIG 2517  10.996  14.596   7.962
    5AU     LIG 2518  11.449  14.407   7.946
    5AU     LIG 2519  11.869  14.617   7.942
    5AU    AUSL 2520   8.755  15.781   7.619
    5AU    AUSL 2521   8.723  16.204   7.821
    5AU     AUL 2522   9.015  16.005   7.757
    5AU       S 2523   8.936  16.302   8.100
    5AU     LIG 2524   9.180  16.582   8.363
    5AU     LIG 2525   9.571  16.698   8.598
    5AU     LIG 2526   9.799  16.994   8.885
    5AU     LIG 2527  10.079  17.359   8.931
    5AU     LIG 2528  10.103  17.819   8.937
    5AU     LIG 2529  10.338  18.232   8.980
    5AU       S 2530   9.371  15.838   7.541
    5AU     LIG 2531   9.849  15.774   7.676
    5AU     LIG 2532  10.329  15.735   7.721
    5AU     LIG 2533  10.784  15.671   7.814
    5AU     LIG 2534  11.154  15.837   8.020
    5AU     LIG 2535  11.578  15.998   7.940
    5AU     LIG 2536  11.905  16.044   8.258
    5AU    AUSL 2537   7.510  16.138   7.517
    5AU    AUSL 2538   7.583  15.907   7.890
    5AU     AUL 2539   7.318  16.239   7.811
    5AU       S 2540   7.302  15.924   8.153
    5AU     LIG 2541   7.159  15.975   8.606
    5AU     LIG 2542   7.079  16.299   8.940
    5AU     LIG 2543   6.834  16.565   9.246
    5AU     LIG 2544   6.470  16.641   9.559
    5AU     LIG 2545   6.060  16.796   9.774
    5AU     LIG 2546   5.647  16.959   9.966
    5AU       S 2547   7.082  16.256   7.425
    5AU     LIG 2548   6.739  16.494   7.616
    5AU     LIG 2549   6.524  16.916   7.652
    5AU     LIG 2550   6.200  17.270   7.636
    5AU     LIG 2551   5.859  17.575   7.734
    5AU     LIG 2552   5.454  17.701   7.543
    5AU     LIG 2553   5.005  17.844   7.657
    5AU    AUSL 2554   7.602  15.788   7.317
    5AU    AUSL 2555   7.696  16.237   7.155
    5AU     AUL 2556   7.425  16.122   7.146
    5AU       S 2557   7.026  16.076   7.423
    5AU     LIG 2558   6.606  16.084   7.257
    5AU     LIG 2559   6.312  16.262   6.933
    5AU     LIG 2560   5.958  16.419   6.665
    5AU     LIG 2561   5.494  16.395   6.579
    5AU     LIG 2562   5.037  16.351   6.699
    5AU     LIG 2563   4.574  16.430   6.752
    5AU       S 2564   7.578  16.389   6.777
    5AU     LIG 2565   7.459  16.684   6.428
    5AU     LIG 2566   7.257  16.983   6.103
    5AU     LIG 2567   7.088  17.454   6.063
    5AU     LIG 2568   6.757  17.805   5.994
    5AU     LIG 2569   6.377  18.088   5.895
    5AU     LIG 2570   6.199  18.507   5.748
    5AU    AUSL 2571   7.301  15.765   7.633
    5AU    AUSL 2572   7.337  15.467   7.325
    5AU     AUL 2573   7.209  15.718   7.219
    5AU       S 2574   6.998  15.274   7.483
    5AU     LIG 2575   6.552  15.274   7.736
    5AU     LIG 2576   6.034  15.303   7.799
    5AU     LIG 2577   5.529  15.309   7.759
    5AU     LIG 2578   5.236  15.296   7.382
    5AU     LIG 2579   4.917  14.995   7.217
    5AU     LIG 2580   4.618  14.654   7.061
    5AU       S 2581   7.111  15.832   7.677
    5AU     LIG 2582   6.823  16.082   7.920
    5AU     LIG 2583   6.448  16.241   8.179
    5AU     LIG 2584   6.019  16.379   8.369
    5AU     LIG 2585   5.567  16.222   8.334
    5AU     LIG 2586   5.134  16.435   8.386
    5AU     LIG 2587   4.688  16.303   8.299
    5AU    AUSL 2588   8.885  15.098   7.567
    5AU    AUSL 2589   8.641  15.365   7.831
    5AU     AUL 2590   8.978  15.241   7.933
    5AU       S 2591   9.108  14.898   7.620
    5AU     LIG 2592   9.439  14.566   7.673
    5AU     LIG 2593   9.842  14.308   7.560
    5AU     LIG 2594  10.334  14.213   7.517
    5AU     LIG 2595  10.721  13.861   7.478
    5AU     LIG 2596  11.087  13.507   7.619
    5AU     LIG 2597  11.454  13.189   7.772
    5AU       S 2598   8.868  14.825   8.061
    5AU     LIG 2599   9.108  14.498   8.382
    5AU     LIG 2600   9.252  14.201   8.699
    5AU     LIG 2601   9.493  13.850   8.871
    5AU     LIG 2602   9.841  13.749   9.159
    5AU     LIG 2603  10.236  13.833   9.406
    5AU     LIG 2604  10.594  13.765   9.704
    5AU    AUSL 2605   8.719  15.418   7.365
    5AU    AUSL 2606   8.643  14.947   7.257
    5AU     AUL 2607   8.941  15.079   7.202
    5AU       S 2608   9.204  15.052   7.569
    5AU     LIG 2609   9.584  14.928   7.320
    5AU     LIG 2610   9.991  14.694   7.262
    5AU     LIG 2611  10.466  14.624   7.199
    5AU     LIG 2612  10.927  14.612   7.051
    5AU     LIG 2613  11.395  14.522   7.029
    5AU     LIG 2614  11.700  14.175   7.065
    5AU       S 2615   8.843  14.734   6.894
    5AU     LIG 2616   8.895  14.267   6.787
    5AU     LIG 2617   8.995  13.820   6.621
    5AU     LIG 2618   9.288  13.528   6.383
    5AU     LIG 2619   9.451  13.173   6.110
    5AU     LIG 2620   9.697  12.780   6.040
    5AU     LIG 2621   9.979  12.415   5.978
    5AU    AUSL 2622   7.465  15.104   7.527
    5AU    AUSL 2623   7.533  15.227   7.059
    5AU     AUL 2624   7.254  15.256   7.079
    5AU       S 2625   7.478  14.861   7.087
    5AU     LIG 2626   7.005  14.800   6.983
    5AU     LIG 2627   6.710  14.543   6.687
    5AU     LIG 2628   6.345  14.345   6.432
    5AU     LIG 2629   6.065  14.132   6.117
    5AU     LIG 2630   5.785  14.134   5.730
    5AU     LIG 2631   5.592  13.953   5.331
    5AU       S 2632   7.162  15.047   7.478
    5AU     LIG 2633   6.769  14.818   7.586
    5AU     LIG 2634   6.273  14.854   7.610
    5AU     LIG 2635   5.841  14.629   7.664
    5AU     LIG 2636   5.456  14.330   7.575
    5AU     LIG 2637   5.052  14.063   7.598
    5AU     LIG 2638   4.896  13.752   7.297
    5AU    AUSL 2639   7.616  15.495   7.643
    5AU    AUSL 2640   7.701  15.155   7.890
    5AU     AUL 2641   7.330  15.276   7.839
    5AU       S 2642   7.466  15.002   8.177
    5AU     LIG 2643   7.352  14.719   7.847
    5AU     LIG 2644   6.987  14.418   7.920
    5AU     LIG 2645   6.657  14.104   8.134
    5AU     LIG 2646   6.381  13.785   8.394
    5AU     LIG 2647   6.247  13.343   8.569
    5AU     LIG 2648   5.945  12.975   8.645
    5AU       S 2649   7.058  15.374   7.496
    5AU     LIG 2650   6.634  15.574   7.338
    5AU     LIG 2651   6.220  15.325   7.320
    5AU     LIG 2652   5.800  15.060   7.384
    5AU     LIG 2653   5.384  14.849   7.542
    5AU     LIG 2654   4.941  14.868   7.718
    5AU     LIG 2655   4.601  14.530   7.717
    5AU    AUSL 2656   8.169  16.336   8.008
    5AU    AUSL 2657   7.779  16.270   7.802
    5AU     AUL 2658   7.907  16.403   8.070
    5AU       S 2659   7.526  16.231   8.220
    5AU     LIG 2660   7.225  16.514   8.491
    5AU     LIG 2661   7.122  16.827   8.849
    5AU     LIG 2662   7.076  17.296   8.970
    5AU     LIG 2663   6.914  17.764   8.986
    5AU     LIG 2664   6.579  18.064   9.156
    5AU     LIG 2665   6.153  18.075   9.389
    5AU       S 2666   8.220  16.753   7.997
    5AU     LIG 2667   8.422  16.852   8.382
    5AU     LIG 2668   8.519  17.268   8.575
    5AU     LIG 2669   8.542  17.672   8.829
    5AU     LIG 2670   8.498  17.905   9.261
    5AU     LIG 2671   8.334  18.197   9.617
    5AU     LIG 2672   8.112  18.595   9.781
    5AU    AUSL 2673   8.070  16.497   7.615
    5AU    AUSL 2674   8.399  16.431   7.327
    5AU     AUL 2675   8.030  16.728   7.447
    5AU       S 2676   8.325  16.773   7.799
    5AU     LIG 2677   8.328  17.239   8.048
    5AU     LIG 2678   8.319  17.662   8.288
    5AU     LIG 2679   8.054  18.080   8.334
    5AU     LIG 2680   7.838  18.513   8.392
    5AU     LIG 2681   7.711  18.944   8.586
    5AU     LIG 2682   7.530  19.383   8.640
    5AU       S 2683   8.472  16.713   7.215
    5AU     LIG 2684   8.832  16.956   6.976
    5AU     LIG 2685   9.002  17.375   6.765
    5AU     LIG 2686   8.996  17.849   6.686
    5AU     LIG 2687   9.203  18.292   6.668
    5AU     LIG 2688   9.411  18.697   6.482
    5AU     LIG 2689   9.317  19.142   6.335
    5AU    AUSL 2690   8.352  16.179   7.666
    5AU    AUSL 2691   8.469  16.088   8.154
    5AU     AUL 2692   8.479  16.370   8.035
    5AU       S 2693   8.794  16.157   8.307
    5AU     LIG 2694   9.052  16.233   8.718
    5AU     LIG 2695   9.372  16.459   9.005
    5AU     LIG 2696   9.650  16.717   9.306
    5AU     LIG 2697   9.916  16.849   9.681
    5AU     LIG 2698   9.959  17.175  10.017
    5AU     LIG 2699   9.762  17.576  10.182
    5AU       S 2700   8.524  16.670   7.703
    5AU     LIG 2701   8.758  16.963   8.010
    5AU     LIG 2702   8.815  17.426   8.182
    5AU     LIG 2703   9.088  17.825   8.313
    5AU     LIG 2704   9.211  18.294   8.298
    5AU     LIG 2705   9.254  18.756   8.225
    5AU     LIG 2706   9.220  19.190   8.397
    5AU    AUSL 2707   8.140  15.057   7.879
    5AU    AUSL 2708   8.553  14.949   7.758
    5AU     AUL 2709   8.333  14.850   8.129
    5AU       S 2710   8.137  14.449   8.029
    5AU     LIG 2711   8.242  14.040   8.155
    5AU     LIG 2712   7.994  13.697   8.314
    5AU     LIG 2713   7.782  13.318   8.443
    5AU     LIG 2714   7.717  12.878   8.557
    5AU     LIG 2715   7.819  12.628   8.944
    5AU     LIG 2716   8.032  12.436   9.323
    5AU       S 2717   8.697  14.729   7.835
    5AU     LIG 2718   8.909  14.296   7.952
    5AU     LIG 2719   9.049  13.951   8.294
    5AU     LIG 2720   9.229  13.537   8.536
    5AU     LIG 2721   9.399  13.093   8.710
    5AU     LIG 2722   9.763  12.780   8.822
    5AU     LIG 2723  10.125  12.467   8.938
    5AU    AUSL 2724   7.837  14.839   7.673
    5AU    AUSL 2725   7.939  15.118   8.241
    5AU     AUL 2726   7.861  14.829   8.017
    5AU       S 2727   7.942  14.386   7.906
    5AU     LIG 2728   7.768  13.964   7.906
    5AU     LIG 2729   7.666  13.494   7.965
    5AU     LIG 2730   7.491  13.060   8.102
    5AU     LIG 2731   7.298  12.630   8.213
    5AU     LIG 2732   7.218  12.157   8.097
    5AU     LIG 2733   7.258  11.730   8.305
    5AU       S 2734   7.620  15.027   8.358
    5AU     LIG 2735   7.291  14.604   8.373
    5AU     LIG 2736   6.913  14.368   8.488
    5AU     LIG 2737   6.699  14.015   8.723
    5AU     LIG 2738   6.476  13.752   9.055
    5AU     LIG 2739   6.377  13.677   9.510
    5AU     LIG 2740   6.383  13.385   9.885
    5AU    AUSL 2741   8.240  14.701   7.654
    5AU    AUSL 2742   7.955  14.778   7.279
    5AU     AUL 2743   7.784  14.607   7.538
    5AU       S 2744   8.026  14.443   7.178
    5AU     LIG 2745   7.623  14.267   7.210
    5AU     LIG 2746   7.481  13.836   7.134
    5AU     LIG 2747   7.435  13.380   6.985
    5AU     LIG 2748   7.210  12.945   6.948
    5AU     LIG 2749   7.074  12.509   6.779
    5AU     LIG 2750   7.361  12.149   6.738
    5AU       S 2751   8.200  14.554   7.761
    5AU     LIG 2752   8.212  14.084   7.627
    5AU     LIG 2753   8.155  13.637   7.817
    5AU     LIG 2754   8.130  13.218   8.063
    5AU     LIG 2755   8.366  12.797   8.180
    5AU     LIG 2756   8.584  12.353   8.189
    5AU     LIG 2757   8.618  11.871   8.287
    5AU    AUSL 2758   8.164  16.286   6.993
    5AU    AUSL 2759   8.488  16.032   7.262
    5AU     AUL 2760   8.504  16.323   6.955
    5AU       S 2761   8.207  16.665   6.857
    5AU     LIG 2762   8.585  16.708   6.602
    5AU     LIG 2763   8.729  17.124   6.403
    5AU     LIG 2764   8.701  17.519   6.110
    5AU     LIG 2765   8.560  17.800   5.719
    5AU     LIG 2766   8.405  18.196   5.463
    5AU     LIG 2767   8.329  18.639   5.281
    5AU       S 2768   8.911  16.066   6.908
    5AU     LIG 2769   9.273  16.391   6.816
    5AU     LIG 2770   9.492  16.713   6.515
    5AU     LIG 2771   9.682  17.003   6.191
    5AU     LIG 2772   9.960  17.377   6.132
    5AU     LIG 2773  10.163  17.753   5.942
    5AU     LIG 2774  10.191  18.215   5.980
    5AU    AUSL 2775   8.031  16.166   7.384
    5AU    AUSL 2776   7.963  15.932   7.042
    5AU     AUL 2777   7.904  16.422   7.114
    5AU       S 2778   8.307  16.716   7.096
    5AU     LIG 2779   8.386  17.141   6.822
    5AU     LIG 2780   8.521  17.576   6.635
    5AU     LIG 2781   8.361  18.048   6.600
    5AU     LIG 2782   8.062  18.460   6.588
    5AU     LIG 2783   7.831  18.904   6.531
    5AU     LIG 2784   7.691  19.385   6.489
    5AU       S 2785   7.815  16.236   6.682
    5AU     LIG 2786   7.810  16.327   6.250
    5AU     LIG 2787   7.566  16.572   5.929
    5AU     LIG 2788   7.310  16.785   5.586
    5AU     LIG 2789   7.153  16.958   5.164
    5AU     LIG 2790   7.134  17.273   4.793
    5AU     LIG 2791   6.870  17.603   4.592
    5AU    AUSL 2792   8.268  14.876   7.000
    5AU    AUSL 2793   7.833  15.167   7.352
    5AU     AUL 2794   7.928  14.839   6.964
    5AU       S 2795   7.498  14.775   7.196
    5AU     LIG 2796   7.178  14.505   7.355
    5AU     LIG 2797   6.888  14.244   7.070
    5AU     LIG 2798   6.583  14.021   6.750
    5AU     LIG 2799   6.319  13.764   6.424
    5AU     LIG 2800   6.187  13.314   6.275
    5AU     LIG 2801   6.008  12.898   6.087
    5AU       S 2802   8.189  14.461   6.978
    5AU     LIG 2803   7.837  14.281   6.744
    5AU     LIG 2804   7.731  13.834   6.692
    5AU     LIG 2805   7.788  13.378   6.595
    5AU     LIG 2806   7.853  13.020   6.306
    5AU     LIG 2807   7.881  12.813   5.881
    5AU     LIG 2808   7.895  12.443   5.588
    5AU    AUSL 2809   8.270  15.025   7.417
    5AU    AUSL 2810   8.382  15.259   7.083
    5AU     AUL 2811   8.481  14.760   7.178
    5AU       S 2812   8.149  14.464   7.267
    5AU     LIG 2813   8.031  13.963   7.142
    5AU     LIG 2814   7.950  13.515   7.063
    5AU     LIG 2815   8.177  13.109   6.909
    5AU     LIG 2816   8.521  12.744   6.937
    5AU     LIG 2817   8.712  12.291   6.851
    5AU     LIG 2818   8.662  11.838   6.685
    5AU       S 2819   8.640  14.894   6.736
    5AU     LIG 2820   8.497  14.511   6.558
    5AU     LIG 2821   8.694  14.144   6.320
    5AU     LIG 2822   8.933  13.778   6.106
    5AU     LIG 2823   9.183  13.500   5.811
    5AU     LIG 2824   9.410  13.481   5.393
    5AU     LIG 2825   9.606  13.297   5.006
    6AU     AUC 2826  12.030  33.095   7.508
    6AU     AUC 2827  12.293  33.092   7.352
    6AU     AUC 2828  12.277  33.093   7.658
    6AU     AUC 2829  11.783  33.096   7.345
    6AU     AUC 2830  11.769  33.121   7.660
    6AU     AUC 2831  11.878  33.363   7.512
    6AU     AUC 2832  12.201  33.340   7.511
    6AU     AUC 2833  11.865  32.851   7.520
    6AU     AUC 2834  12.164  32.828   7.524
    6AU     AUC 2835  12.018  32.937   7.765
    6AU     AUC 2836  12.043  33.262   7.759
    6AU     AUC 2837  12.033  32.933   7.248
    6AU     AUC 2838  12.023  33.229   7.246
    6AU     AUC 2839  12.543  33.093   7.180
    6AU     AUC 2840  12.551  33.102   7.488
    6AU     AUC 2841  12.548  33.090   7.795
    6AU     AUC 2842  11.529  33.077   7.186
    6AU     AUC 2843  11.510  33.114   7.484
    6AU     AUC 2844  11.512  33.155   7.808
    6AU     AUC 2845  11.734  33.622   7.515
    6AU     AUC 2846  12.044  33.618   7.512
    6AU     AUC 2847  12.348  33.611   7.503
    6AU     AUC 2848  11.685  32.598   7.531
    6AU     AUC 2849  11.999  32.570   7.515
    6AU     AUC 2850  12.319  32.565   7.528
    6AU     AUC 2851  12.016  32.787   8.021
    6AU     AUC 2852  12.043  33.087   8.033
    6AU     AUC 2853  12.068  33.410   8.015
    6AU     AUC 2854  12.037  32.748   7.016
    6AU     AUC 2855  12.041  33.065   6.984
    6AU     AUC 2856  12.023  33.382   6.983
    6AU     AUC 2857  12.288  32.918   7.925
    6AU     AUC 2858  12.300  33.258   7.929
    6AU     AUC 2859  12.305  32.925   7.089
    6AU     AUC 2860  12.300  33.235   7.075
    6AU     AUC 2861  11.768  32.981   7.940
    6AU     AUC 2862  11.766  33.285   7.915
    6AU     AUC 2863  11.785  32.916   7.079
    6AU     AUC 2864  11.776  33.233   7.078
    6AU     AUC 2865  12.451  33.359   7.332
    6AU     AUC 2866  12.463  33.331   7.672
    6AU     AUC 2867  11.617  33.362   7.353
    6AU     AUC 2868  11.626  33.398   7.659
    6AU     AUC 2869  12.446  32.825   7.366
    6AU     AUC 2870  12.424  32.807   7.672
    6AU     AUC 2871  11.606  32.834   7.358
    6AU     AUC 2872  11.602  32.875   7.697
    6AU     AUC 2873  11.893  33.525   7.776
    6AU     AUC 2874  12.223  33.515   7.756
    6AU     AUC 2875  11.837  32.689   7.775
    6AU     AUC 2876  12.157  32.672   7.781
    6AU     AUC 2877  11.879  33.501   7.237
    6AU     AUC 2878  12.193  33.492   7.238
    6AU     AUC 2879  11.858  32.677   7.256
    6AU     AUC 2880  12.189  32.669   7.269
    6AU    AUSL 2881  12.542  32.972   8.229
    6AU    AUSL 2882  12.318  32.601   8.140
    6AU     AUL 2883  12.605  32.649   8.377
    6AU       S 2884  12.630  32.239   8.141
    6AU     LIG 2885  12.434  31.927   8.358
    6AU     LIG 2886  12.625  31.656   8.676
    6AU     LIG 2887  12.898  31.378   8.944
    6AU     LIG 2888  13.172  31.167   9.277
    6AU     LIG 2889  13.235  31.031   9.738
    6AU     LIG 2890  13.325  30.959  10.210
    6AU       S 2891  12.495  33.028   8.638
    6AU     LIG 2892  12.721  32.813   8.996
    6AU     LIG 2893  12.965  32.621   9.368
    6AU     LIG 2894  13.233  32.469   9.734
    6AU     LIG 2895  13.619  32.535  10.020
    6AU     LIG 2896  13.939  32.729  10.317
    6AU     LIG 2897  14.130  33.006  10.651
    6AU    AUSL 2898  12.123  32.901   8.362
    6AU    AUSL 2899  11.966  33.315   8.369
    6AU     AUL 2900  12.029  33.227   8.712
    6AU       S 2901  12.203  32.836   8.546
    6AU     LIG 2902  12.360  32.495   8.815
    6AU     LIG 2903  12.523  32.379   9.265
    6AU     LIG 2904  12.699  32.314   9.732
    6AU     LIG 2905  12.676  32.175  10.220
    6AU     LIG 2906  12.718  32.168  10.716
    6AU     LIG 2907  12.940  31.990  11.108
    6AU       S 2908  11.608  33.071   8.692
    6AU     LIG 2909  11.465  33.025   9.119
    6AU     LIG 2910  11.358  32.838   9.541
    6AU     LIG 2911  11.192  32.811   9.987
    6AU     LIG 2912  11.216  33.069  10.405
    6AU     LIG 2913  11.194  33.288  10.842
    6AU     LIG 2914  11.193  33.366  11.313
    6AU    AUSL 2915  12.227  33.192   8.073
    6AU    AUSL 2916  12.653  33.301   7.989
    6AU     AUL 2917  12.725  33.139   8.225
    6AU       S 2918  12.425  33.295   8.531
    6AU     LIG 2919  12.438  33.632   8.822
    6AU     LIG 2920  12.650  33.823   9.216
    6AU     LIG 2921  12.651  33.938   9.698
    6AU     LIG 2922  12.771  34.104  10.136
    6AU     LIG 2923  12.906  34.015  10.582
    6AU     LIG 2924  12.873  33.912  11.048
    6AU       S 2925  12.892  33.566   8.210
    6AU     LIG 2926  13.298  33.602   8.353
    6AU     LIG 2927  13.528  33.691   8.730
    6AU     LIG 2928  13.767  33.989   8.988
    6AU     LIG 2929  13.981  34.156   9.379
    6AU     LIG 2930  14.357  34.147   9.694
    6AU     LIG 2931  14.772  34.162   9.952
    6AU    AUSL 2932  12.551  33.139   6.875
    6AU    AUSL 2933  12.322  33.526   6.845
    6AU     AUL 2934  12.266  33.520   6.580
    6AU       S 2935  12.602  33.222   6.523
    6AU     LIG 2936  12.845  33.111   6.187
    6AU     LIG 2937  12.941  32.853   5.830
    6AU     LIG 2938  13.070  32.665   5.422
    6AU     LIG 2939  13.440  32.610   5.114
    6AU     LIG 2940  13.873  32.603   4.903
    6AU     LIG 2941  14.136  32.736   4.543
    6AU       S 2942  12.694  33.705   6.657
    6AU     LIG 2943  12.963  33.969   6.422
    6AU     LIG 2944  13.245  34.100   6.069
    6AU     LIG 2945  13.494  34.327   5.746
    6AU     LIG 2946  13.575  34.449   5.304
    6AU     LIG 2947  13.698  34.692   4.919
    6AU     LIG 2948  13.815  35.143   4.819
    6AU    AUSL 2949  12.325  32.817   6.694
    6AU    AUSL 2950  12.665  32.761   7.010
    6AU     AUL 2951  12.739  32.845   6.730
    6AU       S 2952  12.729  32.387   6.829
    6AU     LIG 2953  12.876  32.038   6.543
    6AU     LIG 2954  13.097  31.712   6.283
    6AU     LIG 2955  13.336  31.433   5.985
    6AU     LIG 2956  13.669  31.412   5.637
    6AU     LIG 2957  14.098  31.413   5.413
    6AU     LIG 2958  14.356  31.303   5.032
    6AU       S 2959  12.408  32.998   6.428
    6AU     LIG 2960  12.532  32.679   6.147
    6AU     LIG 2961  12.600  32.493   5.702
    6AU     LIG 2962  12.635  32.437   5.224
    6AU     LIG 2963  12.626  32.168   4.806
    6AU     LIG 2964  12.728  31.995   4.354
    6AU     LIG 2965  12.868  31.875   3.907
    6AU    AUSL 2966  12.139  33.157   6.872
    6AU    AUSL 2967  11.903  32.871   6.672
    6AU     AUL 2968  12.116  32.658   6.578
    6AU       S 2969  11.856  32.957   6.325
    6AU     LIG 2970  11.735  32.670   5.986
    6AU     LIG 2971  11.517  32.437   5.628
    6AU     LIG 2972  11.375  32.283   5.209
    6AU     LIG 2973  11.067  32.079   4.909
    6AU     LIG 2974  10.981  31.870   4.488
    6AU     LIG 2975  11.087  31.901   4.036
    6AU       S 2976  12.299  33.081   6.489
    6AU     LIG 2977  12.331  33.138   5.975
    6AU     LIG 2978  12.517  32.989   5.565
    6AU     LIG 2979  12.731  32.977   5.148
    6AU     LIG 2980  12.709  33.234   4.737
    6AU     LIG 2981  12.776  33.303   4.263
    6AU     LIG 2982  12.833  33.519   3.844
    6AU    AUSL 2983  11.568  33.228   8.245
    6AU    AUSL 2984  11.846  33.451   7.994
    6AU     AUL 2985  11.793  33.533   8.386
    6AU       S 2986  11.492  33.248   8.615
    6AU     LIG 2987  11.128  32.960   8.705
    6AU     LIG 2988  11.018  32.757   9.126
    6AU     LIG 2989  10.864  32.690   9.579
    6AU     LIG 2990  10.603  32.673   9.977
    6AU     LIG 2991  10.202  32.777  10.237
    6AU     LIG 2992  10.012  32.921  10.640
    6AU       S 2993  11.351  33.630   8.283
    6AU     LIG 2994  11.471  33.737   8.736
    6AU     LIG 2995  11.393  34.031   9.084
    6AU     LIG 2996  11.097  34.281   9.341
    6AU     LIG 2997  10.917  34.504   9.708
    6AU     LIG 2998  10.784  34.807  10.049
    6AU     LIG 2999  10.556  35.172  10.247
    6AU    AUSL 3000  11.839  32.976   8.068
    6AU    AUSL 3001  11.325  32.967   8.020
    6AU     AUL 3002  11.431  32.969   8.255
    6AU       S 3003  11.149  32.605   8.264
    6AU     LIG 3004  10.782  32.424   8.041
    6AU     LIG 3005  10.411  32.151   8.147
    6AU     LIG 3006  10.207  31.868   8.487
    6AU     LIG 3007  10.001  31.584   8.817
    6AU     LIG 3008   9.788  31.318   9.138
    6AU     LIG 3009   9.545  31.239   9.531
    6AU       S 3010  11.712  32.899   8.599
    6AU     LIG 3011  11.463  32.590   8.841
    6AU     LIG 3012  11.375  32.407   9.259
    6AU     LIG 3013  11.222  32.340   9.697
    6AU     LIG 3014  11.085  32.212  10.123
    6AU     LIG 3015  10.958  32.092  10.565
    6AU     LIG 3016  11.049  32.178  11.023
    6AU    AUSL 3017  11.643  33.028   6.962
    6AU    AUSL 3018  11.779  32.590   6.947
    6AU     AUL 3019  11.616  32.699   6.657
    6AU       S 3020  11.605  33.039   6.327
    6AU     LIG 3021  11.326  32.994   5.969
    6AU     LIG 3022  11.120  32.762   5.611
    6AU     LIG 3023  10.919  32.504   5.261
    6AU     LIG 3024  10.633  32.389   4.899
    6AU     LIG 3025  10.359  32.607   4.575
    6AU     LIG 3026  10.105  32.657   4.173
    6AU       S 3027  11.350  32.305   6.828
    6AU     LIG 3028  11.072  31.944   6.813
    6AU     LIG 3029  10.734  31.690   6.598
    6AU     LIG 3030  10.425  31.513   6.286
    6AU     LIG 3031  10.235  31.293   5.901
    6AU     LIG 3032  10.170  31.104   5.453
    6AU     LIG 3033  10.090  30.973   4.989
    6AU    AUSL 3034  11.812  33.303   6.661
    6AU    AUSL 3035  11.418  33.381   6.921
    6AU     AUL 3036  11.408  33.130   6.727
    6AU       S 3037  11.425  33.604   6.678
    6AU     LIG 3038  11.158  33.740   6.307
    6AU     LIG 3039  10.900  33.922   5.935
    6AU     LIG 3040  10.559  33.918   5.583
    6AU     LIG 3041  10.211  34.081   5.293
    6AU     LIG 3042   9.896  34.388   5.139
    6AU     LIG 3043   9.524  34.591   4.949
    6AU       S 3044  11.828  33.213   6.467
    6AU     LIG 3045  11.812  33.219   5.917
    6AU     LIG 3046  11.627  32.945   5.551
    6AU     LIG 3047  11.368  32.828   5.158
    6AU     LIG 3048  11.260  33.033   4.723
    6AU     LIG 3049  11.189  33.299   4.308
    6AU     LIG 3050  11.051  33.518   3.889
    6AU    AUSL 3051  12.673  33.706   7.431
    6AU    AUSL 3052  12.690  33.471   7.076
    6AU     AUL 3053  12.762  33.934   7.200
    6AU       S 3054  12.827  33.538   6.826
    6AU     LIG 3055  13.113  33.465   6.496
    6AU     LIG 3056  13.460  33.671   6.265
    6AU     LIG 3057  13.735  33.920   5.958
    6AU     LIG 3058  14.016  33.989   5.558
    6AU     LIG 3059  14.425  34.144   5.344
    6AU     LIG 3060  14.780  34.356   5.102
    6AU       S 3061  13.087  33.629   7.326
    6AU     LIG 3062  13.516  33.850   7.336
    6AU     LIG 3063  13.981  33.795   7.465
    6AU     LIG 3064  14.475  33.799   7.523
    6AU     LIG 3065  14.926  34.013   7.544
    6AU     LIG 3066  15.240  34.415   7.558
    6AU     LIG 3067  15.420  34.862   7.677
    6AU    AUSL 3068  12.881  33.143   7.243
    6AU    AUSL 3069  12.864  32.979   7.729
    6AU     AUL 3070  13.087  33.024   7.501
    6AU       S 3071  13.156  33.321   7.141
    6AU     LIG 3072  13.601  33.434   7.049
    6AU     LIG 3073  14.072  33.373   7.185
    6AU     LIG 3074  14.563  33.359   7.254
    6AU     LIG 3075  15.039  33.419   7.134
    6AU     LIG 3076  15.527  33.498   7.042
    6AU     LIG 3077  15.991  33.568   6.888
    6AU       S 3078  13.214  32.622   7.714
    6AU     LIG 3079  13.444  32.265   7.899
    6AU     LIG 3080  13.864  32.049   7.861
    6AU     LIG 3081  14.322  32.018   7.741
    6AU     LIG 3082  14.727  32.177   7.913
    6AU     LIG 3083  15.144  31.993   7.893
    6AU     LIG 3084  15.460  31.665   7.959
    6AU    AUSL 3085  12.666  33.310   7.571
    6AU    AUSL 3086  12.591  33.686   7.834
    6AU     AUL 3087  12.888  33.499   7.735
    6AU       S 3088  12.804  33.757   8.108
    6AU     LIG 3089  13.056  34.060   8.355
    6AU     LIG 3090  13.419  34.191   8.639
    6AU     LIG 3091  13.680  34.510   8.889
    6AU     LIG 3092  13.825  34.977   8.947
    6AU     LIG 3093  14.146  35.336   8.979
    6AU     LIG 3094  14.417  35.660   8.747
    6AU       S 3095  13.163  33.485   7.370
    6AU     LIG 3096  13.598  33.390   7.560
    6AU     LIG 3097  14.065  33.341   7.700
    6AU     LIG 3098  14.531  33.359   7.788
    6AU     LIG 3099  14.969  33.549   7.804
    6AU     LIG 3100  15.424  33.634   7.949
    6AU     LIG 3101  15.853  33.851   7.924
    6AU    AUSL 3102  11.372  33.637   7.521
    6AU    AUSL 3103  11.439  33.397   7.889
    6AU     AUL 3104  11.175  33.730   7.816
    6AU       S 3105  11.154  33.415   8.157
    6AU     LIG 3106  11.026  33.486   8.626
    6AU     LIG 3107  10.944  33.810   8.975
    6AU     LIG 3108  10.680  33.973   9.347
    6AU     LIG 3109  10.383  34.015   9.728
    6AU     LIG 3110   9.999  34.170   9.968
    6AU     LIG 3111   9.641  34.431  10.138
    6AU       S 3112  10.950  33.753   7.425
    6AU     LIG 3113  10.740  34.094   7.611
    6AU     LIG 3114  10.521  34.509   7.517
    6AU     LIG 3115  10.157  34.805   7.427
    6AU     LIG 3116   9.743  35.044   7.407
    6AU     LIG 3117   9.310  35.224   7.439
    6AU     LIG 3118   8.954  35.412   7.703
    6AU    AUSL 3119  11.463  33.289   7.319
    6AU    AUSL 3120  11.560  33.734   7.158
    6AU     AUL 3121  11.292  33.625   7.147
    6AU       S 3122  10.889  33.583   7.422
    6AU     LIG 3123  10.556  33.647   7.107
    6AU     LIG 3124  10.156  33.765   6.883
    6AU     LIG 3125   9.692  33.814   6.804
    6AU     LIG 3126   9.244  33.908   6.751
    6AU     LIG 3127   8.831  34.090   6.709
    6AU     LIG 3128   8.379  34.228   6.715
    6AU       S 3129  11.451  33.888   6.780
    6AU     LIG 3130  11.312  34.205   6.475
    6AU     LIG 3131  11.142  34.542   6.183
    6AU     LIG 3132  10.979  34.996   6.177
    6AU     LIG 3133  10.736  35.372   6.046
    6AU     LIG 3134  10.348  35.523   5.877
    6AU     LIG 3135  10.009  35.813   5.830
    6AU    AUSL 3136  11.157  33.261   7.627
    6AU    AUSL 3137  11.199  32.968   7.312
    6AU     AUL 3138  11.070  33.225   7.217
    6AU       S 3139  10.872  32.784   7.448
    6AU     LIG 3140  10.498  32.747   7.747
    6AU     LIG 3141  10.021  32.741   7.691
    6AU     LIG 3142   9.642  32.466   7.573
    6AU     LIG 3143   9.304  32.271   7.283
    6AU     LIG 3144   8.836  32.317   7.213
    6AU     LIG 3145   8.361  32.330   7.167
    6AU       S 3146  10.967  33.324   7.678
    6AU     LIG 3147  10.667  33.616   7.901
    6AU     LIG 3148  10.197  33.693   8.082
    6AU     LIG 3149   9.695  33.734   8.190
    6AU     LIG 3150   9.227  33.916   8.225
    6AU     LIG 3151   8.765  34.023   8.255
    6AU     LIG 3152   8.329  33.875   8.389
    6AU    AUSL 3153  12.740  32.603   7.571
    6AU    AUSL 3154  12.479  32.860   7.837
    6AU     AUL 3155  12.829  32.741   7.942
    6AU       S 3156  12.910  32.397   7.591
    6AU     LIG 3157  13.086  31.997   7.660
    6AU     LIG 3158  13.523  31.805   7.565
    6AU     LIG 3159  13.997  31.654   7.531
    6AU     LIG 3160  14.446  31.470   7.446
    6AU     LIG 3161  14.752  31.107   7.526
    6AU     LIG 3162  15.206  30.990   7.464
    6AU       S 3163  12.729  32.320   8.057
    6AU     LIG 3164  13.035  32.012   8.301
    6AU     LIG 3165  13.151  31.753   8.679
    6AU     LIG 3166  13.416  31.448   8.912
    6AU     LIG 3167  13.700  31.321   9.266
    6AU     LIG 3168  14.111  31.341   9.517
    6AU     LIG 3169  14.398  31.282   9.895
    6AU    AUSL 3170  12.565  32.923   7.377
    6AU    AUSL 3171  12.507  32.449   7.259
    6AU     AUL 3172  12.850  32.671   7.207
    6AU       S 3173  13.039  32.533   7.586
    6AU     LIG 3174  13.421  32.292   7.383
    6AU     LIG 3175  13.889  32.128   7.349
    6AU     LIG 3176  14.326  31.929   7.228
    6AU     LIG 3177  14.708  31.686   7.038
    6AU     LIG 3178  15.182  31.695   6.941
    6AU     LIG 3179  15.498  32.005   6.771
    6AU       S 3180  12.769  32.244   7.029
    6AU     LIG 3181  12.593  31.842   6.927
    6AU     LIG 3182  12.790  31.500   6.644
    6AU     LIG 3183  13.082  31.192   6.394
    6AU     LIG 3184  13.322  30.775   6.293
    6AU     LIG 3185  13.715  30.504   6.246
    6AU     LIG 3186  14.031  30.303   5.972
    6AU    AUSL 3187  11.320  32.600   7.515
    6AU    AUSL 3188  11.395  32.712   7.061
    6AU     AUL 3189  11.131  32.774   7.051
    6AU       S 3190  11.333  32.365   7.082
    6AU     LIG 3191  10.841  32.358   7.021
    6AU     LIG 3192  10.554  32.161   6.693
    6AU     LIG 3193  10.200  31.960   6.440
    6AU     LIG 3194   9.949  31.681   6.137
    6AU     LIG 3195   9.746  31.419   5.782
    6AU     LIG 3196   9.495  31.349   5.374
    6AU       S 3197  11.033  32.562   7.451
    6AU     LIG 3198  10.662  32.309   7.519
    6AU     LIG 3199  10.223  32.279   7.645
    6AU     LIG 3200   9.828  32.022   7.713
    6AU     LIG 3201   9.338  31.939   7.671
    6AU     LIG 3202   8.919  31.673   7.594
    6AU     LIG 3203   8.597  31.358   7.383
    6AU    AUSL 3204  11.470  32.988   7.639
    6AU    AUSL 3205  11.553  32.645   7.881
    6AU     AUL 3206  11.175  32.785   7.826
    6AU       S 3207  11.313  32.482   8.136
    6AU     LIG 3208  11.178  32.206   7.808
    6AU     LIG 3209  10.784  31.926   7.861
    6AU     LIG 3210  10.441  31.634   8.083
    6AU     LIG 3211  10.174  31.349   8.388
    6AU     LIG 3212   9.933  31.054   8.700
    6AU     LIG 3213   9.703  30.622   8.791
    6AU       S 3214  10.914  32.866   7.468
    6AU     LIG 3215  10.434  32.704   7.247
    6AU     LIG 3216   9.933  32.672   7.185
    6AU     LIG 3217   9.423  32.773   7.245
    6AU     LIG 3218   9.107  32.608   7.602
    6AU     LIG 3219   8.818  32.237   7.716
    6AU     LIG 3220   8.344  32.210   7.688
    6AU    AUSL 3221  12.032  33.818   8.021
    6AU    AUSL 3222  11.636  33.763   7.815
    6AU     AUL 3223  11.769  33.891   8.080
    6AU       S 3224  11.384  33.720   8.223
    6AU     LIG 3225  11.103  34.005   8.507
    6AU     LIG 3226  11.048  34.339   8.831
    6AU     LIG 3227  10.987  34.790   8.991
    6AU     LIG 3228  10.692  35.161   9.027
    6AU     LIG 3229  10.298  35.404   9.115
    6AU     LIG 3230  10.058  35.811   9.060
    6AU       S 3231  12.086  34.236   8.022
    6AU     LIG 3232  12.279  34.363   8.398
    6AU     LIG 3233  12.351  34.794   8.554
    6AU     LIG 3234  12.407  35.140   8.868
    6AU     LIG 3235  12.434  35.357   9.298
    6AU     LIG 3236  12.345  35.689   9.628
    6AU     LIG 3237  12.153  36.013   9.916
    6AU    AUSL 3238  11.927  33.988   7.627
    6AU    AUSL 3239  12.254  33.926   7.329
    6AU     AUL 3240  11.920  34.228   7.449
    6AU       S 3241  12.161  34.266   7.838
    6AU     LIG 3242  12.130  34.738   8.066
    6AU     LIG 3243  12.074  35.181   8.289
    6AU     LIG 3244  11.826  35.627   8.356
    6AU     LIG 3245  11.859  36.109   8.461
    6AU     LIG 3246  11.913  36.542   8.692
    6AU     LIG 3247  11.584  36.850   8.845
    6AU       S 3248  12.326  34.237   7.178
    6AU     LIG 3249  12.556  34.624   6.957
    6AU     LIG 3250  12.843  34.976   6.766
    6AU     LIG 3251  13.180  35.342   6.742
    6AU     LIG 3252  13.187  35.786   6.586
    6AU     LIG 3253  12.907  36.162   6.496
    6AU     LIG 3254  13.075  36.600   6.390
    6AU    AUSL 3255  12.219  33.679   7.674
    6AU    AUSL 3256  12.338  33.570   8.161
    6AU     AUL 3257  12.354  33.859   8.038
    6AU       S 3258  12.662  33.622   8.307
    6AU     LIG 3259  12.931  33.708   8.706
    6AU     LIG 3260  13.185  33.944   9.030
    6AU     LIG 3261  13.445  34.252   9.282
    6AU     LIG 3262  13.640  34.467   9.651
    6AU     LIG 3263  13.586  34.748  10.033
    6AU     LIG 3264  13.602  35.176  10.229
    6AU       S 3265  12.375  34.165   7.706
    6AU     LIG 3266  12.581  34.492   8.001
    6AU     LIG 3267  12.621  34.955   8.137
    6AU     LIG 3268  12.921  35.348   8.141
    6AU     LIG 3269  13.089  35.791   8.239
    6AU     LIG 3270  13.224  36.198   8.427
    6AU     LIG 3271  13.201  36.577   8.697
    6AU    AUSL 3272  11.996  32.548   7.877
    6AU    AUSL 3273  12.412  32.442   7.759
    6AU     AUL 3274  12.188  32.342   8.129
    6AU       S 3275  12.001  31.939   8.026
    6AU     LIG 3276  12.082  31.541   8.190
    6AU     LIG 3277  11.813  31.213   8.352
    6AU     LIG 3278  11.704  30.777   8.425
    6AU     LIG 3279  11.560  30.471   8.737
    6AU     LIG 3280  11.580  30.370   9.203
    6AU     LIG 3281  11.771  30.206   9.596
    6AU       S 3282  12.550  32.214   7.843
    6AU     LIG 3283  12.724  31.770   7.968
    6AU     LIG 3284  12.937  31.474   8.304
    6AU     LIG 3285  13.162  31.122   8.581
    6AU     LIG 3286  13.310  30.673   8.747
    6AU     LIG 3287  13.585  30.268   8.808
    6AU     LIG 3288  14.029  30.113   8.791
    6AU    AUSL 3289  11.695  32.329   7.668
    6AU    AUSL 3290  11.786  32.605   8.235
    6AU     AUL 3291  11.721  32.317   8.012
    6AU       S 3292  11.803  31.875   7.900
    6AU     LIG 3293  11.621  31.454   7.919
    6AU     LIG 3294  11.489  30.992   8.007
    6AU     LIG 3295  11.256  30.602   8.211
    6AU     LIG 3296  10.955  30.205   8.263
    6AU     LIG 3297  10.940  29.738   8.198
    6AU     LIG 3298  11.032  29.284   8.065
    6AU       S 3299  11.456  32.510   8.338
    6AU     LIG 3300  11.107  32.098   8.339
    6AU     LIG 3301  10.731  31.844   8.454
    6AU     LIG 3302  10.514  31.516   8.737
    6AU     LIG 3303  10.292  31.217   9.050
    6AU     LIG 3304  10.091  31.032   9.457
    6AU     LIG 3305  10.119  30.893   9.917
    6AU    AUSL 3306  12.099  32.194   7.652
    6AU    AUSL 3307  11.815  32.272   7.274
    6AU     AUL 3308  11.646  32.095   7.531
    6AU       S 3309  11.857  31.925   7.154
    6AU     LIG 3310  11.457  31.736   7.115
    6AU     LIG 3311  11.347  31.260   7.079
    6AU     LIG 3312  11.303  30.777   6.938
    6AU     LIG 3313  11.052  30.335   6.853
    6AU     LIG 3314  10.885  29.861   6.798
    6AU     LIG 3315  10.960  29.375   6.745
    6AU       S 3316  12.061  32.043   7.758
    6AU     LIG 3317  12.084  31.555   7.657
    6AU     LIG 3318  12.004  31.113   7.876
    6AU     LIG 3319  12.033  30.647   8.029
    6AU     LIG 3320  12.264  30.196   8.031
    6AU     LIG 3321  12.361  29.725   8.096
    6AU     LIG 3322  12.448  29.519   8.525
    6AU    AUSL 3323  12.022  33.776   6.995
    6AU    AUSL 3324  12.335  33.522   7.273
    6AU     AUL 3325  12.369  33.817   6.980
    6AU       S 3326  12.055  34.112   6.814
    6AU     LIG 3327  12.415  34.289   6.597
    6AU     LIG 3328  12.483  34.737   6.409
    6AU     LIG 3329  12.545  34.997   5.974
    6AU     LIG 3330  12.619  35.321   5.593
    6AU     LIG 3331  12.617  35.784   5.424
    6AU     LIG 3332  12.533  36.174   5.155
    6AU       S 3333  12.771  33.548   6.957
    6AU     LIG 3334  13.220  33.813   6.874
    6AU     LIG 3335  13.446  34.099   6.555
    6AU     LIG 3336  13.584  34.463   6.265
    6AU     LIG 3337  13.749  34.929   6.279
    6AU     LIG 3338  14.070  35.269   6.203
    6AU     LIG 3339  14.411  35.603   6.102
    6AU    AUSL 3340  11.894  33.660   7.391
    6AU    AUSL 3341  11.824  33.423   7.051
    6AU     AUL 3342  11.764  33.920   7.128
    6AU       S 3343  12.139  34.216   7.056
    6AU     LIG 3344  12.070  34.623   6.802
    6AU     LIG 3345  12.127  35.093   6.753
    6AU     LIG 3346  11.940  35.546   6.799
    6AU     LIG 3347  11.881  35.985   6.604
    6AU     LIG 3348  11.803  36.449   6.473
    6AU     LIG 3349  11.617  36.905   6.468
    6AU       S 3350  11.676  33.736   6.686
    6AU     LIG 3351  11.653  33.870   6.262
    6AU     LIG 3352  11.379  34.119   5.965
    6AU     LIG 3353  11.182  34.365   5.606
    6AU     LIG 3354  11.198  34.643   5.196
    6AU     LIG 3355  11.097  34.871   4.773
    6AU     LIG 3356  10.838  35.183   4.522
    6AU    AUSL 3357  12.131  32.371   6.998
    6AU    AUSL 3358  11.695  32.661   7.353
    6AU     AUL 3359  11.787  32.336   6.962
    6AU       S 3360  11.358  32.260   7.191
    6AU     LIG 3361  11.031  32.000   7.334
    6AU     LIG 3362  10.645  31.850   7.103
    6AU     LIG 3363  10.276  31.651   6.841
    6AU     LIG 3364  10.016  31.325   6.543
    6AU     LIG 3365   9.766  30.895   6.413
    6AU     LIG 3366   9.571  30.434   6.324
    6AU       S 3367  12.051  31.957   6.971
    6AU     LIG 3368  11.774  31.744   6.696
    6AU     LIG 3369  11.630  31.319   6.659
    6AU     LIG 3370  11.629  30.868   6.539
    6AU     LIG 3371  11.715  30.466   6.302
    6AU     LIG 3372  11.758  30.181   5.907
    6AU     LIG 3373  11.922  29.786   5.679
    6AU    AUSL 3374  12.130  32.519   7.416
    6AU    AUSL 3375  12.239  32.755   7.084
    6AU     AUL 3376  12.335  32.255   7.179
    6AU       S 3377  12.007  31.954   7.261
    6AU     LIG 3378  11.889  31.443   7.155
    6AU     LIG 3379  11.795  30.986   7.025
    6AU     LIG 3380  11.893  30.542   6.852
    6AU     LIG 3381  12.217  30.168   6.810
    6AU     LIG 3382  12.455  29.795   6.630
    6AU     LIG 3383  12.585  29.376   6.474
    6AU       S 3384  12.522  32.392   6.757
    6AU     LIG 3385  12.354  32.052   6.529
    6AU     LIG 3386  12.563  31.730   6.243
    6AU     LIG 3387  12.800  31.391   6.002
    6AU     LIG 3388  13.033  31.122   5.687
    6AU     LIG 3389  13.132  30.946   5.255
    6AU     LIG 3390  13.314  30.684   4.897
    7AU     AUC 3391  44.039  19.944   7.502
    7AU     AUC 3392  44.299  19.942   7.341
    7AU     AUC 3393  44.288  19.936   7.651
    7AU     AUC 3394  43.792  19.947   7.338
    7AU     AUC 3395  43.776  19.972   7.653
    7AU     AUC 3396  43.887  20.213   7.505
    7AU     AUC 3397  44.203  20.188   7.500
    7AU     AUC 3398  43.872  19.702   7.514
    7AU     AUC 3399  44.175  19.677   7.520
    7AU     AUC 3400  44.027  19.788   7.760
    7AU     AUC 3401  44.052  20.109   7.752
    7AU     AUC 3402  44.041  19.780   7.243
    7AU     AUC 3403  44.036  20.081   7.241
    7AU     AUC 3404  44.550  19.940   7.179
    7AU     AUC 3405  44.559  19.941   7.479
    7AU     AUC 3406  44.557  19.929   7.790
    7AU     AUC 3407  43.541  19.931   7.178
    7AU     AUC 3408  43.519  19.966   7.475
    7AU     AUC 3409  43.519  20.006   7.801
    7AU     AUC 3410  43.743  20.474   7.508
    7AU     AUC 3411  44.054  20.467   7.508
    7AU     AUC 3412  44.363  20.457   7.492
    7AU     AUC 3413  43.688  19.451   7.526
    7AU     AUC 3414  44.001  19.419   7.512
    7AU     AUC 3415  44.323  19.413   7.527
    7AU     AUC 3416  44.025  19.640   8.016
    7AU     AUC 3417  44.053  19.938   8.027
    7AU     AUC 3418  44.075  20.257   8.012
    7AU     AUC 3419  44.045  19.593   7.012
    7AU     AUC 3420  44.053  19.911   6.978
    7AU     AUC 3421  44.036  20.231   6.975
    7AU     AUC 3422  44.299  19.768   7.919
    7AU     AUC 3423  44.308  20.107   7.925
    7AU     AUC 3424  44.314  19.766   7.084
    7AU     AUC 3425  44.311  20.080   7.067
    7AU     AUC 3426  43.775  19.832   7.934
    7AU     AUC 3427  43.774  20.136   7.908
    7AU     AUC 3428  43.796  19.766   7.073
    7AU     AUC 3429  43.790  20.085   7.070
    7AU     AUC 3430  44.457  20.206   7.319
    7AU     AUC 3431  44.469  20.178   7.668
    7AU     AUC 3432  43.627  20.213   7.344
    7AU     AUC 3433  43.633  20.249   7.652
    7AU     AUC 3434  44.453  19.668   7.364
    7AU     AUC 3435  44.429  19.649   7.668
    7AU     AUC 3436  43.613  19.686   7.351
    7AU     AUC 3437  43.609  19.728   7.691
    7AU     AUC 3438  43.901  20.375   7.770
    7AU     AUC 3439  44.235  20.361   7.749
    7AU     AUC 3440  43.842  19.541   7.770
    7AU     AUC 3441  44.162  19.521   7.777
    7AU     AUC 3442  43.891  20.353   7.234
    7AU     AUC 3443  44.205  20.342   7.230
    7AU     AUC 3444  43.863  19.527   7.251
    7AU     AUC 3445  44.195  19.513   7.267
    7AU    AUSL 3446  44.554  19.820   8.221
    7AU    AUSL 3447  44.324  19.452   8.135
    7AU     AUL 3448  44.612  19.499   8.370
    7AU       S 3449  44.625  19.079   8.149
    7AU     LIG 3450  44.506  18.708   8.368
    7AU     LIG 3451  44.664  18.402   8.692
    7AU     LIG 3452  44.910  18.217   9.051
    7AU     LIG 3453  44.960  17.998   9.474
    7AU     LIG 3454   0.151  17.705   9.789
    7AU     LIG 3455   0.327  17.450  10.141
    7AU       S 3456  44.507  19.887   8.624
    7AU     LIG 3457  44.635  19.773   9.057
    7AU     LIG 3458  44.874  19.630   9.450
    7AU     LIG 3459   0.234  19.633   9.766
    7AU     LIG 3460   0.674  19.700   9.939
    7AU     LIG 3461   1.073  19.589  10.176
    7AU     LIG 3462   1.218  19.671  10.607
    7AU    AUSL 3463  44.133  19.756   8.357
    7AU    AUSL 3464  43.975  20.171   8.358
    7AU     AUL 3465  44.045  20.088   8.704
    7AU       S 3466  44.212  19.697   8.535
    7AU     LIG 3467  44.375  19.388   8.817
    7AU     LIG 3468  44.528  19.280   9.257
    7AU     LIG 3469  44.566  19.106   9.706
    7AU     LIG 3470  44.586  18.927  10.158
    7AU     LIG 3471  44.825  18.902  10.573
    7AU     LIG 3472  44.973  18.941  11.030
    7AU       S 3473  43.626  19.927   8.682
    7AU     LIG 3474  43.494  19.894   9.112
    7AU     LIG 3475  43.417  19.726   9.541
    7AU     LIG 3476  43.321  19.755   9.998
    7AU     LIG 3477  43.440  20.016  10.391
    7AU     LIG 3478  43.316  20.289  10.758
    7AU     LIG 3479  43.177  20.547  11.118
    7AU    AUSL 3480  44.241  20.045   8.067
    7AU    AUSL 3481  44.677  20.164   8.006
    7AU     AUL 3482  44.745  19.983   8.216
    7AU       S 3483  44.436  20.155   8.509
    7AU     LIG 3484  44.465  20.386   8.888
    7AU     LIG 3485  44.662  20.538   9.299
    7AU     LIG 3486  44.638  20.596   9.789
    7AU     LIG 3487  44.569  20.674  10.265
    7AU     LIG 3488  44.722  20.796  10.706
    7AU     LIG 3489  44.786  20.748  11.175
    7AU       S 3490  44.899  20.421   8.195
    7AU     LIG 3491   0.305  20.495   8.369
    7AU     LIG 3492   0.572  20.510   8.738
    7AU     LIG 3493   0.794  20.746   9.064
    7AU     LIG 3494   1.080  20.903   9.415
    7AU     LIG 3495   1.470  20.899   9.716
    7AU     LIG 3496   1.824  21.087   9.988
    7AU    AUSL 3497  44.583  19.951   6.881
    7AU    AUSL 3498  44.297  20.378   6.811
    7AU     AUL 3499  44.630  20.278   6.483
    7AU       S 3500  44.764  19.962   6.755
    7AU     LIG 3501  44.890  19.887   6.326
    7AU     LIG 3502  44.966  19.724   5.908
    7AU     LIG 3503   0.088  19.575   5.466
    7AU     LIG 3504   0.444  19.442   5.141
    7AU     LIG 3505   0.798  19.427   4.792
    7AU     LIG 3506   1.094  19.381   4.414
    7AU       S 3507  44.274  20.486   6.633
    7AU     LIG 3508  44.604  20.809   6.517
    7AU     LIG 3509  44.997  20.842   6.237
    7AU     LIG 3510   0.300  21.026   5.897
    7AU     LIG 3511   0.471  21.214   5.476
    7AU     LIG 3512   0.586  21.445   5.051
    7AU     LIG 3513   0.787  21.829   4.825
    7AU    AUSL 3514  44.327  19.648   6.693
    7AU    AUSL 3515  44.669  19.566   7.002
    7AU     AUL 3516  44.652  19.553   6.651
    7AU       S 3517  44.812  19.180   6.894
    7AU     LIG 3518  44.921  18.865   6.548
    7AU     LIG 3519   0.149  18.555   6.265
    7AU     LIG 3520   0.424  18.281   5.986
    7AU     LIG 3521   0.846  18.235   5.750
    7AU     LIG 3522   1.245  18.360   5.484
    7AU     LIG 3523   1.644  18.450   5.219
    7AU       S 3524  44.393  19.876   6.448
    7AU     LIG 3525  44.515  19.539   6.159
    7AU     LIG 3526  44.659  19.344   5.746
    7AU     LIG 3527  44.683  19.307   5.273
    7AU     LIG 3528  44.685  19.146   4.817
    7AU     LIG 3529  44.888  18.930   4.440
    7AU     LIG 3530   0.077  19.032   4.020
    7AU    AUSL 3531  44.167  19.996   6.871
    7AU    AUSL 3532  43.912  19.724   6.667
    7AU     AUL 3533  44.128  19.512   6.570
    7AU       S 3534  43.876  19.818   6.317
    7AU     LIG 3535  43.773  19.561   5.963
    7AU     LIG 3536  43.484  19.371   5.657
    7AU     LIG 3537  43.286  19.319   5.233
    7AU     LIG 3538  42.995  19.102   4.901
    7AU     LIG 3539  42.922  18.833   4.488
    7AU     LIG 3540  43.052  18.766   4.027
    7AU       S 3541  44.294  19.972   6.535
    7AU     LIG 3542  44.459  20.026   6.001
    7AU     LIG 3543  44.601  19.827   5.565
    7AU     LIG 3544  44.736  19.795   5.097
    7AU     LIG 3545  44.670  19.929   4.623
    7AU     LIG 3546  44.766  20.151   4.194
    7AU     LIG 3547  44.890  20.446   3.820
    7AU    AUSL 3548  43.577  20.077   8.236
    7AU    AUSL 3549  43.854  20.299   7.982
    7AU     AUL 3550  43.792  20.380   8.377
    7AU       S 3551  43.496  20.096   8.613
    7AU     LIG 3552  43.149  19.795   8.722
    7AU     LIG 3553  43.051  19.618   9.163
    7AU     LIG 3554  42.929  19.587   9.640
    7AU     LIG 3555  42.617  19.626  10.018
    7AU     LIG 3556  42.310  19.588  10.400
    7AU     LIG 3557  41.944  19.652  10.710
    7AU       S 3558  43.354  20.479   8.275
    7AU     LIG 3559  43.455  20.584   8.732
    7AU     LIG 3560  43.370  20.878   9.092
    7AU     LIG 3561  43.130  21.160   9.391
    7AU     LIG 3562  42.942  21.488   9.692
    7AU     LIG 3563  42.867  21.752  10.106
    7AU     LIG 3564  42.790  22.103  10.441
    7AU    AUSL 3565  43.852  19.828   8.059
    7AU    AUSL 3566  43.327  19.821   8.012
    7AU     AUL 3567  43.440  19.821   8.249
    7AU       S 3568  43.150  19.462   8.268
    7AU     LIG 3569  42.775  19.235   8.080
    7AU     LIG 3570  42.418  18.926   8.176
    7AU     LIG 3571  42.147  18.609   8.431
    7AU     LIG 3572  41.823  18.310   8.620
    7AU     LIG 3573  41.604  18.082   8.955
    7AU     LIG 3574  41.631  17.992   9.423
    7AU       S 3575  43.723  19.759   8.594
    7AU     LIG 3576  43.500  19.443   8.861
    7AU     LIG 3577  43.412  19.275   9.296
    7AU     LIG 3578  43.319  19.240   9.762
    7AU     LIG 3579  43.302  18.941  10.145
    7AU     LIG 3580  43.159  18.812  10.581
    7AU     LIG 3581  43.217  18.791  11.054
    7AU    AUSL 3582  43.661  19.883   6.959
    7AU    AUSL 3583  43.788  19.441   6.940
    7AU     AUL 3584  43.632  19.553   6.647
    7AU       S 3585  43.621  19.897   6.323
    7AU     LIG 3586  43.323  19.825   5.986
    7AU     LIG 3587  43.080  19.683   5.604
    7AU     LIG 3588  42.828  19.538   5.236
    7AU     LIG 3589  42.519  19.332   4.956
    7AU     LIG 3590  42.213  19.337   4.596
    7AU     LIG 3591  42.067  19.610   4.238
    7AU       S 3592  43.361  19.158   6.817
    7AU     LIG 3593  43.173  18.732   6.849
    7AU     LIG 3594  42.853  18.435   6.677
    7AU     LIG 3595  42.507  18.300   6.366
    7AU     LIG 3596  42.475  18.077   5.933
    7AU     LIG 3597  42.611  17.884   5.506
    7AU     LIG 3598  42.496  17.726   5.073
    7AU    AUSL 3599  43.841  20.153   6.658
    7AU    AUSL 3600  43.442  20.235   6.907
    7AU     AUL 3601  43.423  19.982   6.722
    7AU       S 3602  43.456  20.453   6.666
    7AU     LIG 3603  43.186  20.513   6.271
    7AU     LIG 3604  42.915  20.700   5.903
    7AU     LIG 3605  42.644  20.870   5.537
    7AU     LIG 3606  42.296  20.953   5.214
    7AU     LIG 3607  41.925  21.231   5.052
    7AU     LIG 3608  41.609  21.595   4.997
    7AU       S 3609  43.830  20.079   6.463
    7AU     LIG 3610  43.791  20.106   5.920
    7AU     LIG 3611  43.572  19.874   5.539
    7AU     LIG 3612  43.276  19.854   5.150
    7AU     LIG 3613  43.198  20.028   4.697
    7AU     LIG 3614  43.162  20.296   4.287
    7AU     LIG 3615  42.993  20.384   3.841
    7AU    AUSL 3616  44.727  20.477   7.413
    7AU    AUSL 3617  44.671  20.329   7.017
    7AU     AUL 3618  44.755  20.752   7.268
    7AU       S 3619  44.768  20.501   6.857
    7AU     LIG 3620   0.122  20.295   6.624
    7AU     LIG 3621   0.392  20.493   6.307
    7AU     LIG 3622   0.704  20.730   6.034
    7AU     LIG 3623   0.995  20.831   5.667
    7AU     LIG 3624   1.353  20.892   5.351
    7AU     LIG 3625   1.624  21.119   5.035
    7AU       S 3626   0.115  20.459   7.262
    7AU     LIG 3627   0.561  20.666   7.276
    7AU     LIG 3628   1.026  20.627   7.403
    7AU     LIG 3629   1.510  20.596   7.461
    7AU     LIG 3630   1.920  20.859   7.515
    7AU     LIG 3631   2.210  21.270   7.563
    7AU     LIG 3632   2.366  21.697   7.360
    7AU    AUSL 3633  44.865  20.044   7.259
    7AU    AUSL 3634  44.881  19.818   7.725
    7AU     AUL 3635   0.087  19.871   7.490
    7AU       S 3636   0.108  20.173   7.128
    7AU     LIG 3637   0.554  20.223   7.013
    7AU     LIG 3638   1.023  20.186   7.133
    7AU     LIG 3639   1.500  20.196   7.099
    7AU     LIG 3640   1.971  20.300   7.041
    7AU     LIG 3641   2.415  20.505   7.020
    7AU     LIG 3642   2.873  20.486   6.942
    7AU       S 3643   0.225  19.464   7.697
    7AU     LIG 3644   0.545  19.138   7.855
    7AU     LIG 3645   0.967  18.886   7.834
    7AU     LIG 3646   1.412  18.679   7.768
    7AU     LIG 3647   1.901  18.566   7.732
    7AU     LIG 3648   2.370  18.596   7.928
    7AU     LIG 3649   2.696  18.828   8.234
    7AU    AUSL 3650  44.629  20.121   7.602
    7AU    AUSL 3651  44.605  20.535   7.804
    7AU     AUL 3652  44.904  20.315   7.724
    7AU       S 3653  44.818  20.622   8.059
    7AU     LIG 3654   0.021  20.925   8.345
    7AU     LIG 3655   0.415  20.991   8.622
    7AU     LIG 3656   0.766  21.230   8.864
    7AU     LIG 3657   1.048  21.610   9.006
    7AU     LIG 3658   1.295  22.036   9.090
    7AU     LIG 3659   1.490  22.489   9.123
    7AU       S 3660   0.216  20.318   7.396
    7AU     LIG 3661   0.682  20.226   7.528
    7AU     LIG 3662   1.173  20.197   7.641
    7AU     LIG 3663   1.535  20.351   7.922
    7AU     LIG 3664   1.987  20.502   7.882
    7AU     LIG 3665   2.457  20.466   7.892
    7AU     LIG 3666   2.894  20.557   7.905
    7AU    AUSL 3667  43.386  20.489   7.511
    7AU    AUSL 3668  43.444  20.249   7.882
    7AU     AUL 3669  43.182  20.582   7.800
    7AU       S 3670  43.165  20.266   8.141
    7AU     LIG 3671  43.025  20.306   8.601
    7AU     LIG 3672  42.953  20.608   8.953
    7AU     LIG 3673  42.711  20.886   9.258
    7AU     LIG 3674  42.360  20.953   9.575
    7AU     LIG 3675  41.972  21.089   9.819
    7AU     LIG 3676  41.602  21.318  10.010
    7AU       S 3677  42.961  20.621   7.406
    7AU     LIG 3678  42.634  20.897   7.548
    7AU     LIG 3679  42.341  21.249   7.454
    7AU     LIG 3680  42.179  21.674   7.538
    7AU     LIG 3681  41.926  22.022   7.367
    7AU     LIG 3682  41.539  22.207   7.220
    7AU     LIG 3683  41.137  22.361   7.066
    7AU    AUSL 3684  43.471  20.140   7.306
    7AU    AUSL 3685  43.574  20.583   7.147
    7AU     AUL 3686  43.304  20.476   7.134
    7AU       S 3687  42.896  20.436   7.394
    7AU     LIG 3688  42.458  20.544   7.212
    7AU     LIG 3689  42.178  20.908   7.012
    7AU     LIG 3690  41.691  21.032   6.901
    7AU     LIG 3691  41.209  21.012   6.768
    7AU     LIG 3692  40.779  21.140   6.684
    7AU     LIG 3693  40.332  20.945   6.730
    7AU       S 3694  43.454  20.732   6.755
    7AU     LIG 3695  43.279  21.002   6.418
    7AU     LIG 3696  43.107  21.347   6.128
    7AU     LIG 3697  42.926  21.808   6.074
    7AU     LIG 3698  42.778  22.267   6.020
    7AU     LIG 3699  42.396  22.538   6.109
    7AU     LIG 3700  41.962  22.547   5.904
    7AU    AUSL 3701  43.166  20.117   7.615
    7AU    AUSL 3702  43.208  19.818   7.306
    7AU     AUL 3703  43.084  20.075   7.202
    7AU       S 3704  42.870  19.631   7.447
    7AU     LIG 3705  42.460  19.570   7.680
    7AU     LIG 3706  41.982  19.524   7.753
    7AU     LIG 3707  41.568  19.365   7.597
    7AU     LIG 3708  41.373  19.170   7.183
    7AU     LIG 3709  40.958  18.928   7.085
    7AU     LIG 3710  40.488  18.869   6.972
    7AU       S 3711  42.941  20.201   7.654
    7AU     LIG 3712  42.479  20.425   7.731
    7AU     LIG 3713  42.075  20.631   8.007
    7AU     LIG 3714  41.719  20.946   8.230
    7AU     LIG 3715  41.234  21.126   8.288
    7AU     LIG 3716  40.819  20.877   8.386
    7AU     LIG 3717  40.355  21.048   8.476
    7AU    AUSL 3718  44.748  19.444   7.571
    7AU    AUSL 3719  44.493  19.707   7.831
    7AU     AUL 3720  44.843  19.583   7.937
    7AU       S 3721  44.913  19.251   7.582
    7AU     LIG 3722   0.117  18.878   7.716
    7AU     LIG 3723   0.542  18.666   7.617
    7AU     LIG 3724   0.982  18.462   7.527
    7AU     LIG 3725   1.415  18.245   7.479
    7AU     LIG 3726   1.776  18.065   7.693
    7AU     LIG 3727   2.220  17.998   7.644
    7AU       S 3728  44.729  19.165   8.051
    7AU     LIG 3729   0.049  18.848   8.236
    7AU     LIG 3730   0.142  18.602   8.628
    7AU     LIG 3731   0.400  18.345   8.934
    7AU     LIG 3732   0.740  18.098   9.160
    7AU     LIG 3733   1.129  18.077   9.438
    7AU     LIG 3734   1.509  18.074   9.733
    7AU    AUSL 3735  44.587  19.760   7.360
    7AU    AUSL 3736  44.506  19.282   7.272
    7AU     AUL 3737  44.864  19.545   7.199
    7AU       S 3738   0.042  19.372   7.568
    7AU     LIG 3739   0.417  19.118   7.359
    7AU     LIG 3740   0.895  18.932   7.322
    7AU     LIG 3741   1.361  18.712   7.256
    7AU     LIG 3742   1.829  18.488   7.210
    7AU     LIG 3743   2.296  18.521   6.993
    7AU     LIG 3744   2.757  18.745   7.077
    7AU       S 3745  44.773  19.079   7.126
    7AU     LIG 3746  44.673  18.656   6.951
    7AU     LIG 3747  44.882  18.333   6.654
    7AU     LIG 3748   0.177  18.045   6.384
    7AU     LIG 3749   0.562  17.800   6.181
    7AU     LIG 3750   0.936  17.475   6.087
    7AU     LIG 3751   1.349  17.256   5.911
    7AU    AUSL 3752  43.326  19.452   7.512
    7AU    AUSL 3753  43.404  19.570   7.046
    7AU     AUL 3754  43.131  19.615   7.053
    7AU       S 3755  43.343  19.212   7.072
    7AU     LIG 3756  42.862  19.120   6.999
    7AU     LIG 3757  42.521  18.848   6.732
    7AU     LIG 3758  42.117  18.631   6.517
    7AU     LIG 3759  41.827  18.574   6.134
    7AU     LIG 3760  41.733  18.696   5.677
    7AU     LIG 3761  41.541  18.483   5.302
    7AU       S 3762  43.034  19.406   7.451
    7AU     LIG 3763  42.691  19.125   7.552
    7AU     LIG 3764  42.202  19.082   7.562
    7AU     LIG 3765  41.736  18.901   7.487
    7AU     LIG 3766  41.256  18.922   7.602
    7AU     LIG 3767  40.913  18.612   7.659
    7AU     LIG 3768  40.674  18.196   7.650
    7AU    AUSL 3769  43.477  19.843   7.632
    7AU    AUSL 3770  43.559  19.500   7.878
    7AU     AUL 3771  43.188  19.624   7.824
    7AU       S 3772  43.317  19.340   8.157
    7AU     LIG 3773  43.183  19.061   7.828
    7AU     LIG 3774  42.815  18.735   7.894
    7AU     LIG 3775  42.463  18.404   8.077
    7AU     LIG 3776  42.131  18.071   8.286
    7AU     LIG 3777  41.773  17.773   8.495
    7AU     LIG 3778  41.640  17.290   8.585
    7AU       S 3779  42.930  19.729   7.473
    7AU     LIG 3780  42.539  20.009   7.396
    7AU     LIG 3781  42.092  19.839   7.366
    7AU     LIG 3782  41.670  19.653   7.197
    7AU     LIG 3783  41.183  19.600   7.357
    7AU     LIG 3784  40.869  19.261   7.463
    7AU     LIG 3785  40.558  19.034   7.732
    7AU    AUSL 3786  44.036  20.666   8.023
    7AU    AUSL 3787  43.642  20.615   7.810
    7AU     AUL 3788  43.778  20.743   8.078
    7AU       S 3789  43.387  20.575   8.211
    7AU     LIG 3790  43.085  20.843   8.500
    7AU     LIG 3791  42.974  21.128   8.871
    7AU     LIG 3792  42.852  21.506   9.130
    7AU     LIG 3793  42.624  21.915   9.211
    7AU     LIG 3794  42.280  22.253   9.207
    7AU     LIG 3795  41.864  22.501   9.213
    7AU       S 3796  44.104  21.088   8.024
    7AU     LIG 3797  44.275  21.319   8.399
    7AU     LIG 3798  44.320  21.728   8.636
    7AU     LIG 3799  44.344  22.179   8.779
    7AU     LIG 3800  44.604  22.426   9.083
    7AU     LIG 3801  44.672  22.771   9.398
    7AU     LIG 3802  44.419  23.147   9.531
    7AU    AUSL 3803  43.942  20.837   7.633
    7AU    AUSL 3804  44.264  20.781   7.345
    7AU     AUL 3805  43.827  21.021   7.475
    7AU       S 3806  44.174  21.088   7.778
    7AU     LIG 3807  44.184  21.572   7.955
    7AU     LIG 3808  44.159  21.982   8.218
    7AU     LIG 3809  44.165  22.444   8.325
    7AU     LIG 3810  44.067  22.901   8.400
    7AU     LIG 3811  43.905  23.269   8.605
    7AU     LIG 3812  43.464  23.446   8.773
    7AU       S 3813  44.276  21.089   7.256
    7AU     LIG 3814  44.586  21.190   6.915
    7AU     LIG 3815  44.681  21.639   6.750
    7AU     LIG 3816  44.674  22.080   6.550
    7AU     LIG 3817  44.630  22.553   6.611
    7AU     LIG 3818  44.578  23.019   6.604
    7AU     LIG 3819  44.602  23.478   6.504
    7AU    AUSL 3820  44.223  20.520   7.675
    7AU    AUSL 3821  44.354  20.426   8.141
    7AU     AUL 3822  44.359  20.703   8.034
    7AU       S 3823  44.685  20.477   8.284
    7AU     LIG 3824  44.916  20.562   8.701
    7AU     LIG 3825   0.212  20.750   9.030
    7AU     LIG 3826   0.467  21.083   9.268
    7AU     LIG 3827   0.615  21.398   9.602
    7AU     LIG 3828   0.582  21.721   9.975
    7AU     LIG 3829   0.649  21.891  10.426
    7AU       S 3830  44.398  21.018   7.719
    7AU     LIG 3831  44.617  21.268   8.023
    7AU     LIG 3832  44.618  21.704   8.217
    7AU     LIG 3833  44.627  22.163   8.356
    7AU     LIG 3834  44.592  22.610   8.548
    7AU     LIG 3835  44.533  23.082   8.469
    7AU     LIG 3836  44.477  23.437   8.177
    7AU    AUSL 3837  44.000  19.399   7.874
    7AU    AUSL 3838  44.413  19.290   7.756
    7AU     AUL 3839  44.187  19.194   8.127
    7AU       S 3840  43.998  18.790   8.030
    7AU     LIG 3841  44.080  18.357   8.152
    7AU     LIG 3842  43.816  17.985   8.284
    7AU     LIG 3843  43.528  17.620   8.390
    7AU     LIG 3844  43.446  17.207   8.592
    7AU     LIG 3845  43.538  16.975   8.991
    7AU     LIG 3846  43.695  16.654   9.279
    7AU       S 3847  44.550  19.076   7.840
    7AU     LIG 3848  44.683  18.639   7.895
    7AU     LIG 3849  44.886  18.356   8.226
    7AU     LIG 3850   0.095  18.091   8.576
    7AU     LIG 3851   0.426  17.838   8.827
    7AU     LIG 3852   0.837  17.603   8.960
    7AU     LIG 3853   1.187  17.251   8.990
    7AU    AUSL 3854  43.699  19.184   7.664
    7AU    AUSL 3855  43.792  19.461   8.233
    7AU     AUL 3856  43.718  19.172   8.010
    7AU       S 3857  43.805  18.730   7.901
    7AU     LIG 3858  43.610  18.321   7.913
    7AU     LIG 3859  43.451  17.869   7.928
    7AU     LIG 3860  43.327  17.401   7.949
    7AU     LIG 3861  43.162  16.970   8.060
    7AU     LIG 3862  42.966  16.638   8.332
    7AU     LIG 3863  43.152  16.242   8.537
    7AU       S 3864  43.469  19.366   8.348
    7AU     LIG 3865  43.138  18.939   8.356
    7AU     LIG 3866  42.771  18.634   8.426
    7AU     LIG 3867  42.495  18.270   8.599
    7AU     LIG 3868  42.168  17.988   8.825
    7AU     LIG 3869  42.076  17.791   9.243
    7AU     LIG 3870  42.192  17.707   9.697
    7AU    AUSL 3871  44.099  19.041   7.653
    7AU    AUSL 3872  43.811  19.122   7.268
    7AU     AUL 3873  43.633  18.956   7.542
    7AU       S 3874  43.788  18.765   7.150
    7AU     LIG 3875  43.473  18.436   7.144
    7AU     LIG 3876  43.207  18.048   6.998
    7AU     LIG 3877  43.001  17.602   6.948
    7AU     LIG 3878  42.895  17.136   6.800
    7AU     LIG 3879  42.857  16.645   6.639
    7AU     LIG 3880  43.215  16.401   6.440
    7AU       S 3881  44.058  18.897   7.753
    7AU     LIG 3882  44.076  18.423   7.630
    7AU     LIG 3883  43.962  17.968   7.784
    7AU     LIG 3884  43.839  17.532   7.992
    7AU     LIG 3885  43.691  17.083   8.152
    7AU     LIG 3886  43.878  16.707   8.381
    7AU     LIG 3887  44.038  16.254   8.394
    7AU    AUSL 3888  44.036  20.639   7.007
    7AU    AUSL 3889  44.347  20.385   7.259
    7AU     AUL 3890  44.370  20.707   7.011
    7AU       S 3891  44.073  21.029   6.867
    7AU     LIG 3892  44.266  21.208   6.506
    7AU     LIG 3893  44.350  21.636   6.366
    7AU     LIG 3894  44.480  21.962   6.072
    7AU     LIG 3895  44.489  22.235   5.698
    7AU     LIG 3896  44.435  22.675   5.603
    7AU     LIG 3897  44.336  23.067   5.385
    7AU       S 3898  44.733  20.425   6.928
    7AU     LIG 3899   0.135  20.784   6.746
    7AU     LIG 3900   0.455  20.997   6.420
    7AU     LIG 3901   0.751  21.261   6.121
    7AU     LIG 3902   1.052  21.671   6.059
    7AU     LIG 3903   1.334  22.102   6.043
    7AU     LIG 3904   1.524  22.553   6.149
    7AU    AUSL 3905  43.897  20.513   7.392
    7AU    AUSL 3906  43.848  20.276   7.046
    7AU     AUL 3907  43.771  20.760   7.097
    7AU       S 3908  44.125  21.081   7.142
    7AU     LIG 3909  44.189  21.524   6.909
    7AU     LIG 3910  44.214  21.980   6.743
    7AU     LIG 3911  44.122  22.456   6.647
    7AU     LIG 3912  43.815  22.830   6.580
    7AU     LIG 3913  43.610  23.236   6.427
    7AU     LIG 3914  43.361  23.606   6.297
    7AU       S 3915  43.712  20.587   6.665
    7AU     LIG 3916  43.663  20.693   6.231
    7AU     LIG 3917  43.379  20.914   5.911
    7AU     LIG 3918  43.139  21.025   5.498
    7AU     LIG 3919  43.044  21.300   5.098
    7AU     LIG 3920  42.919  21.635   4.773
    7AU     LIG 3921  42.629  21.914   4.522
    7AU    AUSL 3922  44.136  19.215   6.997
    7AU    AUSL 3923  43.697  19.513   7.344
    7AU     AUL 3924  43.796  19.186   6.955
    7AU       S 3925  43.359  19.119   7.182
    7AU     LIG 3926  43.085  18.827   7.358
    7AU     LIG 3927  42.714  18.614   7.150
    7AU     LIG 3928  42.371  18.361   6.879
    7AU     LIG 3929  42.043  18.105   6.599
    7AU     LIG 3930  41.897  17.700   6.384
    7AU     LIG 3931  41.985  17.219   6.293
    7AU       S 3932  44.037  18.798   6.972
    7AU     LIG 3933  43.676  18.694   6.686
    7AU     LIG 3934  43.502  18.276   6.645
    7AU     LIG 3935  43.551  17.815   6.541
    7AU     LIG 3936  43.555  17.457   6.204
    7AU     LIG 3937  43.542  17.212   5.783
    7AU     LIG 3938  43.798  16.956   5.462
    7AU    AUSL 3939  44.126  19.364   7.414
    7AU    AUSL 3940  44.250  19.596   7.087
    7AU     AUL 3941  44.317  19.086   7.202
    7AU       S 3942  43.970  18.808   7.258
    7AU     LIG 3943  43.986  18.318   7.130
    7AU     LIG 3944  43.726  17.959   7.019
    7AU     LIG 3945  43.756  17.502   6.931
    7AU     LIG 3946  43.736  17.038   6.831
    7AU     LIG 3947  43.957  16.638   6.714
    7AU     LIG 3948  44.302  16.307   6.668
    7AU       S 3949  44.551  19.138   6.809
    7AU     LIG 3950  44.401  18.819   6.541
    7AU     LIG 3951  44.626  18.521   6.248
    7AU     LIG 3952  44.872  18.209   5.977
    7AU     LIG 3953  44.847  17.938   5.575
    7AU     LIG 3954  44.981  17.745   5.166
    7AU     LIG 3955   0.361  17.741   4.887
    8AU     AUC 3956  23.827   1.280   7.508
    8AU     AUC 3957  24.089   1.278   7.350
    8AU     AUC 3958  24.075   1.278   7.655
    8AU     AUC 3959  23.579   1.280   7.347
    8AU     AUC 3960  23.567   1.306   7.663
    8AU     AUC 3961  23.674   1.548   7.513
    8AU     AUC 3962  23.998   1.526   7.509
    8AU     AUC 3963  23.663   1.035   7.521
    8AU     AUC 3964  23.962   1.013   7.523
    8AU     AUC 3965  23.818   1.122   7.765
    8AU     AUC 3966  23.841   1.447   7.759
    8AU     AUC 3967  23.828   1.118   7.247
    8AU     AUC 3968  23.818   1.414   7.246
    8AU     AUC 3969  24.338   1.280   7.177
    8AU     AUC 3970  24.348   1.289   7.483
    8AU     AUC 3971  24.348   1.277   7.790
    8AU     AUC 3972  23.322   1.261   7.190
    8AU     AUC 3973  23.307   1.297   7.488
    8AU     AUC 3974  23.311   1.339   7.812
    8AU     AUC 3975  23.530   1.807   7.516
    8AU     AUC 3976  23.840   1.803   7.511
    8AU     AUC 3977  24.143   1.796   7.501
    8AU     AUC 3978  23.484   0.783   7.533
    8AU     AUC 3979  23.797   0.755   7.514
    8AU     AUC 3980  24.118   0.751   7.524
    8AU     AUC 3981  23.819   0.971   8.021
    8AU     AUC 3982  23.845   1.271   8.033
    8AU     AUC 3983  23.869   1.594   8.014
    8AU     AUC 3984  23.831   0.934   7.015
    8AU     AUC 3985  23.835   1.251   6.983
    8AU     AUC 3986  23.815   1.567   6.982
    8AU     AUC 3987  24.089   1.103   7.923
    8AU     AUC 3988  24.101   1.443   7.927
    8AU     AUC 3989  24.100   1.112   7.087
    8AU     AUC 3990  24.094   1.421   7.073
    8AU     AUC 3991  23.569   1.165   7.942
    8AU     AUC 3992  23.566   1.470   7.917
    8AU     AUC 3993  23.579   1.101   7.081
    8AU     AUC 3994  23.569   1.417   7.080
    8AU     AUC 3995  24.246   1.546   7.329
    8AU     AUC 3996  24.261   1.517   7.668
    8AU     AUC 3997  23.412   1.545   7.356
    8AU     AUC 3998  23.424   1.583   7.662
    8AU     AUC 3999  24.243   1.011   7.362
    8AU     AUC 4000  24.224   0.993   7.668
    8AU     AUC 4001  23.402   1.017   7.361
    8AU     AUC 4002  23.402   1.060   7.700
    8AU     AUC 4003  23.692   1.710   7.777
    8AU     AUC 4004  24.021   1.700   7.755
    8AU     AUC 4005  23.638   0.874   7.776
    8AU     AUC 4006  23.958   0.858   7.780
    8AU     AUC 4007  23.674   1.685   7.238
    8AU     AUC 4008  23.988   1.679   7.236
    8AU     AUC 4009  23.654   0.862   7.257
    8AU     AUC 4010  23.985   0.855   7.267
    8AU    AUSL 4011  24.346   1.158   8.224
    8AU    AUSL 4012  24.122   0.786   8.137
    8AU     AUL 4013  24.410   0.836   8.372
    8AU       S 4014  24.432   0.423   8.141
    8AU     LIG 4015  24.235   0.109   8.361
    8AU     LIG 4016  24.400  44.816   8.674
    8AU     LIG 4017  24.666  44.556   8.958
    8AU     LIG 4018  24.788  44.285   9.333
    8AU     LIG 4019  24.828  44.092   9.776
    8AU     LIG 4020  24.934  43.907  10.210
    8AU       S 4021  24.300   1.216   8.632
    8AU     LIG 4022  24.476   1.017   9.017
    8AU     LIG 4023  24.745   0.796   9.349
    8AU     LIG 4024  25.090   0.710   9.668
    8AU     LIG 4025  25.370   0.791  10.045
    8AU     LIG 4026  25.716   0.673  10.343
    8AU     LIG 4027  26.008   0.839  10.682
    8AU    AUSL 4028  23.928   1.085   8.361
    8AU    AUSL 4029  23.771   1.499   8.369
    8AU     AUL 4030  23.835   1.412   8.712
    8AU       S 4031  24.008   1.023   8.542
    8AU     LIG 4032  24.156   0.676   8.793
    8AU     LIG 4033  24.301   0.552   9.237
    8AU     LIG 4034  24.414   0.422   9.695
    8AU     LIG 4035  24.380   0.262  10.162
    8AU     LIG 4036  24.381   0.361  10.631
    8AU     LIG 4037  24.603   0.269  11.036
    8AU       S 4038  23.414   1.254   8.695
    8AU     LIG 4039  23.256   1.233   9.117
    8AU     LIG 4040  23.166   1.030   9.532
    8AU     LIG 4041  23.003   1.011   9.973
    8AU     LIG 4042  22.962   1.289  10.359
    8AU     LIG 4043  22.888   1.609  10.713
    8AU     LIG 4044  22.819   1.850  11.120
    8AU    AUSL 4045  24.028   1.376   8.070
    8AU    AUSL 4046  24.453   1.487   7.983
    8AU     AUL 4047  24.528   1.325   8.218
    8AU       S 4048  24.231   1.478   8.530
    8AU     LIG 4049  24.211   1.784   8.847
    8AU     LIG 4050  24.320   1.895   9.301
    8AU     LIG 4051  24.401   1.959   9.775
    8AU     LIG 4052  24.475   2.076  10.231
    8AU     LIG 4053  24.509   2.153  10.695
    8AU     LIG 4054  24.680   2.220  11.121
    8AU       S 4055  24.693   1.753   8.207
    8AU     LIG 4056  25.094   1.802   8.356
    8AU     LIG 4057  25.357   1.866   8.705
    8AU     LIG 4058  25.595   2.165   8.941
    8AU     LIG 4059  25.838   2.358   9.279
    8AU     LIG 4060  26.212   2.450   9.560
    8AU     LIG 4061  26.555   2.691   9.783
    8AU    AUSL 4062  24.341   1.329   6.876
    8AU    AUSL 4063  24.117   1.712   6.841
    8AU     AUL 4064  24.055   1.701   6.578
    8AU       S 4065  24.378   1.399   6.482
    8AU     LIG 4066  24.705   1.262   6.271
    8AU     LIG 4067  24.768   1.066   5.877
    8AU     LIG 4068  24.869   0.905   5.450
    8AU     LIG 4069  25.043   0.850   5.008
    8AU     LIG 4070  25.407   0.743   4.698
    8AU     LIG 4071  25.727   0.707   4.332
    8AU       S 4072  24.491   1.869   6.649
    8AU     LIG 4073  24.696   2.191   6.415
    8AU     LIG 4074  24.960   2.222   6.022
    8AU     LIG 4075  25.175   2.360   5.629
    8AU     LIG 4076  25.391   2.519   5.252
    8AU     LIG 4077  25.524   2.842   4.931
    8AU     LIG 4078  25.517   3.209   4.632
    8AU    AUSL 4079  24.120   1.008   6.691
    8AU    AUSL 4080  24.458   0.948   7.004
    8AU     AUL 4081  24.553   1.074   6.745
    8AU       S 4082  24.492   0.614   6.799
    8AU     LIG 4083  24.680   0.286   6.498
    8AU     LIG 4084  24.913  44.899   6.324
    8AU     LIG 4085  25.157  44.605   6.032
    8AU     LIG 4086  25.485  44.465   5.723
    8AU     LIG 4087  25.857  44.497   5.416
    8AU     LIG 4088  26.130  44.470   5.029
    8AU       S 4089  24.208   1.169   6.435
    8AU     LIG 4090  24.395   0.821   6.254
    8AU     LIG 4091  24.429   0.692   5.789
    8AU     LIG 4092  24.453   0.641   5.305
    8AU     LIG 4093  24.613   0.595   4.848
    8AU     LIG 4094  24.717   0.424   4.397
    8AU     LIG 4095  24.787   0.335   3.923
    8AU    AUSL 4096  23.930   1.344   6.872
    8AU    AUSL 4097  23.697   1.056   6.674
    8AU     AUL 4098  23.907   0.843   6.578
    8AU       S 4099  23.647   1.144   6.332
    8AU     LIG 4100  23.572   0.816   6.048
    8AU     LIG 4101  23.285   0.620   5.735
    8AU     LIG 4102  23.092   0.533   5.313
    8AU     LIG 4103  22.816   0.348   4.967
    8AU     LIG 4104  22.755   0.163   4.538
    8AU     LIG 4105  22.826   0.218   4.072
    8AU       S 4106  24.096   1.263   6.481
    8AU     LIG 4107  24.251   1.243   5.963
    8AU     LIG 4108  24.398   1.139   5.515
    8AU     LIG 4109  24.561   1.093   5.069
    8AU     LIG 4110  24.601   1.228   4.625
    8AU     LIG 4111  24.563   1.527   4.249
    8AU     LIG 4112  24.701   1.815   3.896
    8AU    AUSL 4113  23.371   1.414   8.249
    8AU    AUSL 4114  23.647   1.637   7.997
    8AU     AUL 4115  23.597   1.719   8.388
    8AU       S 4116  23.295   1.436   8.619
    8AU     LIG 4117  22.934   1.143   8.704
    8AU     LIG 4118  22.817   0.945   9.128
    8AU     LIG 4119  22.683   0.852   9.587
    8AU     LIG 4120  22.466   0.914  10.025
    8AU     LIG 4121  22.069   0.935  10.333
    8AU     LIG 4122  21.709   0.983  10.659
    8AU       S 4123  23.154   1.816   8.287
    8AU     LIG 4124  23.258   1.928   8.737
    8AU     LIG 4125  23.176   2.257   9.053
    8AU     LIG 4126  22.914   2.539   9.322
    8AU     LIG 4127  22.814   2.860   9.646
    8AU     LIG 4128  22.640   3.128   9.997
    8AU     LIG 4129  22.364   3.221  10.381
    8AU    AUSL 4130  23.640   1.161   8.071
    8AU    AUSL 4131  23.127   1.150   8.027
    8AU     AUL 4132  23.236   1.156   8.260
    8AU       S 4133  22.957   0.790   8.283
    8AU     LIG 4134  22.598   0.612   8.049
    8AU     LIG 4135  22.224   0.333   8.123
    8AU     LIG 4136  22.003   0.058   8.454
    8AU     LIG 4137  21.802  44.777   8.786
    8AU     LIG 4138  21.607  44.618   9.186
    8AU     LIG 4139  21.287  44.718   9.535
    8AU       S 4140  23.518   1.082   8.603
    8AU     LIG 4141  23.265   0.777   8.873
    8AU     LIG 4142  23.135   0.576   9.300
    8AU     LIG 4143  23.036   0.509   9.769
    8AU     LIG 4144  22.909   0.286  10.186
    8AU     LIG 4145  22.797   0.347  10.655
    8AU     LIG 4146  22.803   0.486  11.116
    8AU    AUSL 4147  23.438   1.213   6.963
    8AU    AUSL 4148  23.571   0.774   6.948
    8AU     AUL 4149  23.409   0.883   6.660
    8AU       S 4150  23.394   1.220   6.330
    8AU     LIG 4151  23.125   1.070   5.987
    8AU     LIG 4152  22.879   0.919   5.608
    8AU     LIG 4153  22.612   0.724   5.269
    8AU     LIG 4154  22.372   0.626   4.871
    8AU     LIG 4155  22.005   0.621   4.557
    8AU     LIG 4156  21.667   0.804   4.268
    8AU       S 4157  23.146   0.490   6.829
    8AU     LIG 4158  22.927   0.088   6.825
    8AU     LIG 4159  22.568  44.882   6.590
    8AU     LIG 4160  22.250  44.696   6.279
    8AU     LIG 4161  22.127  44.500   5.855
    8AU     LIG 4162  22.129  44.271   5.424
    8AU     LIG 4163  22.073  43.913   5.093
    8AU    AUSL 4164  23.602   1.487   6.661
    8AU    AUSL 4165  23.208   1.563   6.926
    8AU     AUL 4166  23.200   1.314   6.730
    8AU       S 4167  23.218   1.789   6.687
    8AU     LIG 4168  22.928   1.902   6.337
    8AU     LIG 4169  22.651   2.105   5.998
    8AU     LIG 4170  22.381   2.108   5.595
    8AU     LIG 4171  21.968   2.190   5.371
    8AU     LIG 4172  21.641   2.480   5.195
    8AU     LIG 4173  21.260   2.630   4.948
    8AU       S 4174  23.621   1.390   6.465
    8AU     LIG 4175  23.590   1.355   5.901
    8AU     LIG 4176  23.376   1.095   5.538
    8AU     LIG 4177  23.094   1.042   5.142
    8AU     LIG 4178  23.020   1.255   4.703
    8AU     LIG 4179  22.989   1.545   4.304
    8AU     LIG 4180  22.961   1.778   3.876
    8AU    AUSL 4181  24.464   1.896   7.429
    8AU    AUSL 4182  24.487   1.659   7.075
    8AU     AUL 4183  24.551   2.121   7.196
    8AU       S 4184  24.653   1.675   6.794
    8AU     LIG 4185  24.945   1.733   6.435
    8AU     LIG 4186  25.298   1.853   6.130
    8AU     LIG 4187  25.578   2.126   5.850
    8AU     LIG 4188  25.953   2.243   5.551
    8AU     LIG 4189  26.325   2.329   5.249
    8AU     LIG 4190  26.729   2.557   5.123
    8AU       S 4191  24.878   1.819   7.323
    8AU     LIG 4192  25.278   2.053   7.311
    8AU     LIG 4193  25.722   1.984   7.429
    8AU     LIG 4194  26.192   1.983   7.524
    8AU     LIG 4195  26.628   2.219   7.516
    8AU     LIG 4196  26.925   2.619   7.426
    8AU     LIG 4197  27.103   2.942   7.113
    8AU    AUSL 4198  24.677   1.327   7.236
    8AU    AUSL 4199  24.663   1.166   7.722
    8AU     AUL 4200  24.883   1.205   7.488
    8AU       S 4201  24.965   1.523   7.146
    8AU     LIG 4202  25.453   1.613   7.109
    8AU     LIG 4203  25.956   1.590   7.192
    8AU     LIG 4204  26.445   1.620   7.259
    8AU     LIG 4205  26.911   1.628   7.121
    8AU     LIG 4206  27.349   1.672   6.962
    8AU     LIG 4207  27.679   2.022   6.927
    8AU       S 4208  25.015   0.808   7.709
    8AU     LIG 4209  25.252   0.460   7.916
    8AU     LIG 4210  25.672   0.238   7.881
    8AU     LIG 4211  26.120   0.153   7.745
    8AU     LIG 4212  26.595   0.069   7.813
    8AU     LIG 4213  26.983   0.262   8.049
    8AU     LIG 4214  27.455   0.304   7.990
    8AU    AUSL 4215  24.466   1.499   7.565
    8AU    AUSL 4216  24.388   1.873   7.833
    8AU     AUL 4217  24.683   1.690   7.733
    8AU       S 4218  24.602   1.949   8.106
    8AU     LIG 4219  24.839   2.248   8.381
    8AU     LIG 4220  25.246   2.374   8.605
    8AU     LIG 4221  25.528   2.690   8.838
    8AU     LIG 4222  25.755   3.124   8.822
    8AU     LIG 4223  25.902   3.591   8.829
    8AU     LIG 4224  26.248   3.862   9.028
    8AU       S 4225  24.956   1.670   7.370
    8AU     LIG 4226  25.370   1.620   7.611
    8AU     LIG 4227  25.861   1.562   7.696
    8AU     LIG 4228  26.342   1.550   7.781
    8AU     LIG 4229  26.722   1.661   8.047
    8AU     LIG 4230  27.186   1.692   7.995
    8AU     LIG 4231  27.548   2.030   7.969
    8AU    AUSL 4232  23.170   1.820   7.527
    8AU    AUSL 4233  23.240   1.581   7.893
    8AU     AUL 4234  22.976   1.914   7.824
    8AU       S 4235  22.955   1.598   8.163
    8AU     LIG 4236  22.819   1.674   8.622
    8AU     LIG 4237  22.733   2.014   8.953
    8AU     LIG 4238  22.488   2.230   9.312
    8AU     LIG 4239  22.132   2.254   9.657
    8AU     LIG 4240  21.753   2.427   9.909
    8AU     LIG 4241  21.323   2.633   9.883
    8AU       S 4242  22.753   1.958   7.436
    8AU     LIG 4243  22.444   2.261   7.603
    8AU     LIG 4244  22.240   2.697   7.593
    8AU     LIG 4245  21.968   3.103   7.547
    8AU     LIG 4246  21.578   3.389   7.667
    8AU     LIG 4247  21.099   3.465   7.838
    8AU     LIG 4248  20.609   3.543   7.916
    8AU    AUSL 4249  23.257   1.471   7.323
    8AU    AUSL 4250  23.352   1.918   7.161
    8AU     AUL 4251  23.083   1.803   7.154
    8AU       S 4252  22.684   1.771   7.416
    8AU     LIG 4253  22.395   2.078   7.113
    8AU     LIG 4254  22.048   2.363   6.914
    8AU     LIG 4255  21.558   2.388   6.806
    8AU     LIG 4256  21.075   2.331   6.660
    8AU     LIG 4257  20.598   2.162   6.674
    8AU     LIG 4258  20.194   2.380   6.727
    8AU       S 4259  23.212   2.082   6.788
    8AU     LIG 4260  22.947   2.390   6.516
    8AU     LIG 4261  22.839   2.798   6.283
    8AU     LIG 4262  22.612   3.198   6.155
    8AU     LIG 4263  22.248   3.479   6.082
    8AU     LIG 4264  21.850   3.675   5.957
    8AU     LIG 4265  21.740   4.074   5.754
    8AU    AUSL 4266  22.955   1.445   7.634
    8AU    AUSL 4267  22.994   1.149   7.323
    8AU     AUL 4268  22.863   1.402   7.226
    8AU       S 4269  22.663   0.945   7.479
    8AU     LIG 4270  22.248   0.886   7.750
    8AU     LIG 4271  21.756   0.883   7.803
    8AU     LIG 4272  21.311   1.000   7.655
    8AU     LIG 4273  20.995   0.805   7.310
    8AU     LIG 4274  20.584   0.578   7.253
    8AU     LIG 4275  20.143   0.541   7.080
    8AU       S 4276  22.760   1.518   7.680
    8AU     LIG 4277  22.476   1.817   7.905
    8AU     LIG 4278  22.030   1.935   8.085
    8AU     LIG 4279  21.541   1.949   8.205
    8AU     LIG 4280  21.062   2.011   8.313
    8AU     LIG 4281  20.628   2.198   8.334
    8AU     LIG 4282  20.155   2.090   8.310
    8AU    AUSL 4283  24.539   0.790   7.564
    8AU    AUSL 4284  24.280   1.046   7.833
    8AU     AUL 4285  24.629   0.927   7.935
    8AU       S 4286  24.714   0.584   7.586
    8AU     LIG 4287  24.873   0.193   7.708
    8AU     LIG 4288  25.304  44.979   7.633
    8AU     LIG 4289  25.771  44.797   7.596
    8AU     LIG 4290  26.262  44.677   7.595
    8AU     LIG 4291  26.751  44.597   7.597
    8AU     LIG 4292  27.121  44.372   7.816
    8AU       S 4293  24.532   0.505   8.051
    8AU     LIG 4294  24.840   0.165   8.236
    8AU     LIG 4295  24.926  44.895   8.626
    8AU     LIG 4296  25.181  44.618   8.919
    8AU     LIG 4297  25.564  44.518   9.179
    8AU     LIG 4298  25.967  44.450   9.428
    8AU     LIG 4299  26.332  44.248   9.664
    8AU    AUSL 4300  24.361   1.111   7.371
    8AU    AUSL 4301  24.304   0.635   7.253
    8AU     AUL 4302  24.643   0.852   7.200
    8AU       S 4303  24.839   0.721   7.578
    8AU     LIG 4304  25.217   0.449   7.402
    8AU     LIG 4305  25.673   0.252   7.362
    8AU     LIG 4306  26.096   0.019   7.241
    8AU     LIG 4307  26.533  44.791   7.155
    8AU     LIG 4308  26.957  44.709   6.923
    8AU     LIG 4309  27.373  44.708   6.663
    8AU       S 4310  24.553   0.442   6.979
    8AU     LIG 4311  24.424   0.018   6.863
    8AU     LIG 4312  24.619  44.631   6.654
    8AU     LIG 4313  24.902  44.346   6.395
    8AU     LIG 4314  25.123  44.014   6.121
    8AU     LIG 4315  25.360  43.580   6.066
    8AU     LIG 4316  25.733  43.406   5.831
    8AU    AUSL 4317  23.120   0.782   7.523
    8AU    AUSL 4318  23.188   0.899   7.064
    8AU     AUL 4319  22.914   0.944   7.074
    8AU       S 4320  23.127   0.542   7.081
    8AU     LIG 4321  22.643   0.507   6.959
    8AU     LIG 4322  22.270   0.306   6.669
    8AU     LIG 4323  21.927   0.080   6.392
    8AU     LIG 4324  21.506  44.917   6.258
    8AU     LIG 4325  21.129  44.803   5.990
    8AU     LIG 4326  21.041  44.628   5.570
    8AU       S 4327  22.818   0.728   7.471
    8AU     LIG 4328  22.436   0.455   7.566
    8AU     LIG 4329  21.953   0.421   7.677
    8AU     LIG 4330  21.517   0.361   7.908
    8AU     LIG 4331  21.114   0.071   7.809
    8AU     LIG 4332  20.668  44.969   7.596
    8AU     LIG 4333  20.197  44.818   7.528
    8AU    AUSL 4334  23.268   1.172   7.644
    8AU    AUSL 4335  23.356   0.829   7.887
    8AU     AUL 4336  22.983   0.954   7.837
    8AU       S 4337  23.122   0.674   8.168
    8AU     LIG 4338  23.007   0.395   7.836
    8AU     LIG 4339  22.641   0.099   7.915
    8AU     LIG 4340  22.298  44.802   8.115
    8AU     LIG 4341  21.993  44.525   8.376
    8AU     LIG 4342  21.814  44.198   8.684
    8AU     LIG 4343  21.725  43.717   8.769
    8AU       S 4344  22.711   1.052   7.493
    8AU     LIG 4345  22.244   1.064   7.271
    8AU     LIG 4346  21.861   0.783   7.305
    8AU     LIG 4347  21.459   0.573   7.458
    8AU     LIG 4348  21.042   0.574   7.748
    8AU     LIG 4349  20.558   0.590   7.770
    8AU     LIG 4350  20.160   0.315   7.803
    8AU    AUSL 4351  23.835   2.003   8.019
    8AU    AUSL 4352  23.435   1.948   7.818
    8AU     AUL 4353  23.578   2.080   8.084
    8AU       S 4354  23.192   1.907   8.225
    8AU     LIG 4355  22.901   2.200   8.492
    8AU     LIG 4356  22.796   2.533   8.820
    8AU     LIG 4357  22.749   2.972   9.036
    8AU     LIG 4358  22.569   3.426   8.977
    8AU     LIG 4359  22.312   3.806   9.159
    8AU     LIG 4360  21.881   4.010   9.139
    8AU       S 4361  23.900   2.421   7.996
    8AU     LIG 4362  24.067   2.579   8.370
    8AU     LIG 4363  24.225   2.962   8.570
    8AU     LIG 4364  24.178   3.290   8.910
    8AU     LIG 4365  24.062   3.505   9.327
    8AU     LIG 4366  23.941   3.797   9.686
    8AU     LIG 4367  23.855   4.197   9.925
    8AU    AUSL 4368  23.727   2.171   7.627
    8AU    AUSL 4369  24.044   2.111   7.327
    8AU     AUL 4370  23.660   2.397   7.454
    8AU       S 4371  23.996   2.408   7.769
    8AU     LIG 4372  23.936   2.899   7.921
    8AU     LIG 4373  23.985   3.264   8.215
    8AU     LIG 4374  23.752   3.669   8.334
    8AU     LIG 4375  23.532   4.093   8.270
    8AU     LIG 4376  23.320   4.527   8.294
    8AU     LIG 4377  23.310   4.946   8.532
    8AU       S 4378  24.108   2.391   7.224
    8AU     LIG 4379  24.435   2.679   6.981
    8AU     LIG 4380  24.588   3.114   6.778
    8AU     LIG 4381  24.889   3.516   6.723
    8AU     LIG 4382  24.911   3.989   6.637
    8AU     LIG 4383  24.848   4.421   6.445
    8AU     LIG 4384  24.793   4.871   6.267
    8AU    AUSL 4385  24.017   1.861   7.671
    8AU    AUSL 4386  24.138   1.753   8.162
    8AU     AUL 4387  24.147   2.036   8.050
    8AU       S 4388  24.467   1.803   8.303
    8AU     LIG 4389  24.708   1.871   8.708
    8AU     LIG 4390  25.006   2.125   8.982
    8AU     LIG 4391  25.277   2.436   9.230
    8AU     LIG 4392  25.513   2.560   9.623
    8AU     LIG 4393  25.599   2.879   9.959
    8AU     LIG 4394  25.487   3.297  10.144
    8AU       S 4395  24.202   2.324   7.706
    8AU     LIG 4396  24.393   2.684   7.990
    8AU     LIG 4397  24.536   3.126   8.174
    8AU     LIG 4398  24.887   3.479   8.260
    8AU     LIG 4399  25.064   3.938   8.265
    8AU     LIG 4400  24.968   4.334   8.488
    8AU     LIG 4401  24.989   4.717   8.764
    8AU    AUSL 4402  23.798   0.734   7.876
    8AU    AUSL 4403  24.213   0.628   7.756
    8AU     AUL 4404  23.990   0.527   8.128
    8AU       S 4405  23.802   0.125   8.025
    8AU     LIG 4406  23.888  44.727   8.186
    8AU     LIG 4407  23.608  44.410   8.352
    8AU     LIG 4408  23.460  43.997   8.469
    8AU     LIG 4409  23.568  43.550   8.509
    8AU     LIG 4410  23.511  43.264   8.873
    8AU     LIG 4411  23.299  43.288   9.293
    8AU       S 4412  24.350   0.412   7.839
    8AU     LIG 4413  24.449  44.962   7.924
    8AU     LIG 4414  24.654  44.671   8.248
    8AU     LIG 4415  24.915  44.367   8.537
    8AU     LIG 4416  25.136  43.947   8.689
    8AU     LIG 4417  25.458  43.581   8.777
    8AU     LIG 4418  25.924  43.551   8.858
    8AU    AUSL 4419  23.495   0.514   7.670
    8AU    AUSL 4420  23.593   0.789   8.238
    8AU     AUL 4421  23.519   0.502   8.013
    8AU       S 4422  23.604   0.061   7.901
    8AU     LIG 4423  23.422  44.643   7.913
    8AU     LIG 4424  23.303  44.179   7.999
    8AU     LIG 4425  23.171  43.728   8.127
    8AU     LIG 4426  22.818  43.377   8.128
    8AU     LIG 4427  22.712  42.909   8.091
    8AU     LIG 4428  22.979  42.502   8.162
    8AU       S 4429  23.276   0.698   8.355
    8AU     LIG 4430  22.944   0.276   8.363
    8AU     LIG 4431  22.539   0.081   8.469
    8AU     LIG 4432  22.324  44.730   8.707
    8AU     LIG 4433  22.112  44.451   9.033
    8AU     LIG 4434  21.996  44.311   9.469
    8AU     LIG 4435  21.998  44.109   9.904
    8AU    AUSL 4436  23.900   0.380   7.650
    8AU    AUSL 4437  23.614   0.457   7.275
    8AU     AUL 4438  23.449   0.280   7.531
    8AU       S 4439  23.688   0.121   7.165
    8AU     LIG 4440  23.277  44.947   7.192
    8AU     LIG 4441  23.166  44.497   7.129
    8AU     LIG 4442  23.129  44.044   6.955
    8AU     LIG 4443  23.119  43.615   6.724
    8AU     LIG 4444  22.889  43.175   6.639
    8AU     LIG 4445  22.874  42.699   6.569
    8AU       S 4446  23.863   0.229   7.759
    8AU     LIG 4447  23.891  44.744   7.659
    8AU     LIG 4448  23.804  44.301   7.874
    8AU     LIG 4449  23.711  43.846   8.047
    8AU     LIG 4450  23.826  43.374   8.091
    8AU     LIG 4451  23.919  42.950   8.286
    8AU     LIG 4452  23.974  42.577   8.559
    8AU    AUSL 4453  23.815   1.959   6.992
    8AU    AUSL 4454  24.130   1.708   7.268
    8AU     AUL 4455  24.163   2.000   6.969
    8AU       S 4456  23.858   2.324   6.850
    8AU     LIG 4457  24.226   2.395   6.613
    8AU     LIG 4458  24.320   2.827   6.432
    8AU     LIG 4459  24.219   3.235   6.175
    8AU     LIG 4460  24.113   3.534   5.799
    8AU     LIG 4461  24.106   3.870   5.452
    8AU     LIG 4462  24.040   4.057   5.014
    8AU       S 4463  24.569   1.737   6.947
    8AU     LIG 4464  24.963   2.041   6.867
    8AU     LIG 4465  25.210   2.213   6.492
    8AU     LIG 4466  25.368   2.530   6.159
    8AU     LIG 4467  25.523   3.007   6.130
    8AU     LIG 4468  25.697   3.473   6.105
    8AU     LIG 4469  26.068   3.753   6.018
    8AU    AUSL 4470  23.688   1.845   7.390
    8AU    AUSL 4471  23.615   1.607   7.051
    8AU     AUL 4472  23.553   2.096   7.113
    8AU       S 4473  23.949   2.388   7.109
    8AU     LIG 4474  23.969   2.808   6.837
    8AU     LIG 4475  24.056   3.239   6.673
    8AU     LIG 4476  23.815   3.652   6.574
    8AU     LIG 4477  23.452   3.990   6.606
    8AU     LIG 4478  23.239   4.424   6.531
    8AU     LIG 4479  23.330   4.875   6.555
    8AU       S 4480  23.460   1.920   6.682
    8AU     LIG 4481  23.371   2.160   6.298
    8AU     LIG 4482  23.081   2.389   5.998
    8AU     LIG 4483  22.978   2.520   5.539
    8AU     LIG 4484  23.050   2.759   5.111
    8AU     LIG 4485  22.822   3.074   4.823
    8AU     LIG 4486  22.463   3.327   4.646
    8AU    AUSL 4487  23.926   0.558   6.996
    8AU    AUSL 4488  23.491   0.845   7.354
    8AU     AUL 4489  23.581   0.520   6.965
    8AU       S 4490  23.155   0.448   7.196
    8AU     LIG 4491  22.812   0.193   7.326
    8AU     LIG 4492  22.424   0.034   7.079
    8AU     LIG 4493  22.089  44.803   6.784
    8AU     LIG 4494  21.768  44.517   6.504
    8AU     LIG 4495  21.417  44.119   6.456
    8AU     LIG 4496  21.205  43.644   6.424
    8AU       S 4497  23.851   0.145   6.961
    8AU     LIG 4498  23.502  44.938   6.735
    8AU     LIG 4499  23.370  44.503   6.660
    8AU     LIG 4500  23.420  44.055   6.537
    8AU     LIG 4501  23.453  43.656   6.304
    8AU     LIG 4502  23.524  43.491   5.859
    8AU     LIG 4503  23.612  43.335   5.427
    8AU    AUSL 4504  23.929   0.705   7.414
    8AU    AUSL 4505  24.033   0.942   7.081
    8AU     AUL 4506  24.135   0.443   7.172
    8AU       S 4507  23.815   0.137   7.264
    8AU     LIG 4508  23.696  44.639   7.166
    8AU     LIG 4509  23.611  44.207   7.014
    8AU     LIG 4510  23.609  43.745   6.905
    8AU     LIG 4511  23.901  43.364   6.884
    8AU     LIG 4512  24.017  42.918   6.922
    8AU     LIG 4513  24.145  42.590   6.620
    8AU       S 4514  24.310   0.586   6.744
    8AU     LIG 4515  24.154   0.266   6.508
    8AU     LIG 4516  24.378  44.907   6.293
    8AU     LIG 4517  24.622  44.584   6.032
    8AU     LIG 4518  24.861  44.300   5.728
    8AU     LIG 4519  24.900  44.022   5.340
    8AU     LIG 4520  25.061  43.907   4.906
    9AU     AUC 4521   1.498  27.565   7.500
    9AU     AUC 4522   1.759  27.562   7.340
    9AU     AUC 4523   1.748  27.557   7.650
    9AU     AUC 4524   1.249  27.567   7.334
    9AU     AUC 4525   1.237  27.592   7.651
    9AU     AUC 4526   1.347  27.834   7.502
    9AU     AUC 4527   1.666  27.806   7.498
    9AU     AUC 4528   1.331  27.323   7.513
    9AU     AUC 4529   1.635  27.298   7.518
    9AU     AUC 4530   1.487  27.410   7.759
    9AU     AUC 4531   1.512  27.733   7.748
    9AU     AUC 4532   1.497  27.401   7.242
    9AU     AUC 4533   1.496  27.700   7.236
    9AU     AUC 4534   2.012  27.559   7.176
    9AU     AUC 4535   2.019  27.561   7.477
    9AU     AUC 4536   2.017  27.549   7.788
    9AU     AUC 4537   0.995  27.550   7.173
    9AU     AUC 4538   0.978  27.585   7.476
    9AU     AUC 4539   0.980  27.626   7.799
    9AU     AUC 4540   1.202  28.094   7.507
    9AU     AUC 4541   1.514  28.087   7.503
    9AU     AUC 4542   1.826  28.076   7.488
    9AU     AUC 4543   1.149  27.070   7.526
    9AU     AUC 4544   1.462  27.040   7.511
    9AU     AUC 4545   1.783  27.034   7.526
    9AU     AUC 4546   1.484  27.263   8.015
    9AU     AUC 4547   1.513  27.562   8.025
    9AU     AUC 4548   1.536  27.884   8.006
    9AU     AUC 4549   1.501  27.215   7.007
    9AU     AUC 4550   1.508  27.534   6.975
    9AU     AUC 4551   1.496  27.852   6.971
    9AU     AUC 4552   1.758  27.390   7.919
    9AU     AUC 4553   1.768  27.730   7.922
    9AU     AUC 4554   1.772  27.386   7.082
    9AU     AUC 4555   1.771  27.699   7.065
    9AU     AUC 4556   1.236  27.454   7.932
    9AU     AUC 4557   1.235  27.759   7.905
    9AU     AUC 4558   1.250  27.392   7.069
    9AU     AUC 4559   1.246  27.705   7.070
    9AU     AUC 4560   1.918  27.825   7.316
    9AU     AUC 4561   1.929  27.799   7.665
    9AU     AUC 4562   1.085  27.834   7.344
    9AU     AUC 4563   1.093  27.869   7.650
    9AU     AUC 4564   1.913  27.289   7.362
    9AU     AUC 4565   1.889  27.270   7.667
    9AU     AUC 4566   1.073  27.306   7.349
    9AU     AUC 4567   1.069  27.349   7.690
    9AU     AUC 4568   1.360  27.997   7.765
    9AU     AUC 4569   1.694  27.983   7.743
    9AU     AUC 4570   1.303  27.162   7.772
    9AU     AUC 4571   1.622  27.143   7.777
    9AU     AUC 4572   1.351  27.971   7.226
    9AU     AUC 4573   1.664  27.956   7.227
    9AU     AUC 4574   1.323  27.152   7.251
    9AU     AUC 4575   1.655  27.136   7.266
    9AU    AUSL 4576   2.014  27.440   8.219
    9AU    AUSL 4577   1.780  27.076   8.136
    9AU     AUL 4578   2.068  27.119   8.370
    9AU       S 4579   2.076  26.691   8.160
    9AU     LIG 4580   1.943  26.302   8.367
    9AU     LIG 4581   1.961  25.890   8.600
    9AU     LIG 4582   2.247  25.742   8.946
    9AU     LIG 4583   2.551  25.537   9.245
    9AU     LIG 4584   2.683  25.261   9.603
    9AU     LIG 4585   2.867  25.011   9.968
    9AU       S 4586   1.968  27.512   8.619
    9AU     LIG 4587   2.113  27.445   9.057
    9AU     LIG 4588   2.388  27.288   9.419
    9AU     LIG 4589   2.660  27.150   9.783
    9AU     LIG 4590   3.021  27.063  10.075
    9AU     LIG 4591   3.357  27.154  10.396
    9AU     LIG 4592   3.664  27.443  10.625
    9AU    AUSL 4593   1.592  27.381   8.357
    9AU    AUSL 4594   1.438  27.798   8.356
    9AU     AUL 4595   1.509  27.712   8.703
    9AU       S 4596   1.670  27.320   8.534
    9AU     LIG 4597   1.854  27.041   8.840
    9AU     LIG 4598   2.034  26.942   9.269
    9AU     LIG 4599   2.235  26.852   9.702
    9AU     LIG 4600   2.382  26.647  10.124
    9AU     LIG 4601   2.407  26.481  10.583
    9AU     LIG 4602   2.290  26.495  11.053
    9AU       S 4603   1.079  27.577   8.688
    9AU     LIG 4604   0.919  27.502   9.111
    9AU     LIG 4605   0.800  27.331   9.536
    9AU     LIG 4606   0.598  27.316   9.966
    9AU     LIG 4607   0.500  27.590  10.358
    9AU     LIG 4608   0.596  27.935  10.692
    9AU     LIG 4609   0.555  28.223  11.071
    9AU    AUSL 4610   1.703  27.668   8.066
    9AU    AUSL 4611   2.133  27.787   8.007
    9AU     AUL 4612   2.209  27.601   8.212
    9AU       S 4613   1.896  27.778   8.501
    9AU     LIG 4614   1.968  27.984   8.889
    9AU     LIG 4615   2.192  28.176   9.266
    9AU     LIG 4616   2.182  28.322   9.735
    9AU     LIG 4617   2.274  28.450  10.200
    9AU     LIG 4618   2.336  28.531  10.676
    9AU     LIG 4619   2.438  28.460  11.143
    9AU       S 4620   2.344  28.043   8.202
    9AU     LIG 4621   2.757  28.138   8.328
    9AU     LIG 4622   2.973  28.115   8.729
    9AU     LIG 4623   3.182  28.257   9.110
    9AU     LIG 4624   3.449  28.578   9.310
    9AU     LIG 4625   3.779  28.727   9.606
    9AU     LIG 4626   4.120  28.808   9.930
    9AU    AUSL 4627   2.038  27.573   6.881
    9AU    AUSL 4628   1.768  27.995   6.805
    9AU     AUL 4629   2.096  27.890   6.497
    9AU       S 4630   2.256  27.577   6.759
    9AU     LIG 4631   2.366  27.507   6.329
    9AU     LIG 4632   2.479  27.329   5.922
    9AU     LIG 4633   2.607  27.176   5.488
    9AU     LIG 4634   2.979  27.105   5.175
    9AU     LIG 4635   3.387  27.076   4.911
    9AU     LIG 4636   3.691  27.106   4.548
    9AU       S 4637   1.768  28.165   6.609
    9AU     LIG 4638   2.064  28.450   6.400
    9AU     LIG 4639   2.476  28.524   6.184
    9AU     LIG 4640   2.773  28.615   5.821
    9AU     LIG 4641   2.837  28.843   5.400
    9AU     LIG 4642   2.955  29.228   5.138
    9AU     LIG 4643   3.074  29.508   4.764
    9AU    AUSL 4644   1.777  27.274   6.689
    9AU    AUSL 4645   2.129  27.187   7.000
    9AU     AUL 4646   2.090  27.180   6.663
    9AU       S 4647   2.270  26.801   6.883
    9AU     LIG 4648   2.348  26.402   6.616
    9AU     LIG 4649   2.535  26.028   6.392
    9AU     LIG 4650   2.795  25.885   6.006
    9AU     LIG 4651   3.140  25.904   5.650
    9AU     LIG 4652   3.555  25.808   5.401
    9AU     LIG 4653   4.000  25.794   5.177
    9AU       S 4654   1.857  27.501   6.439
    9AU     LIG 4655   2.003  27.184   6.132
    9AU     LIG 4656   2.157  26.983   5.715
    9AU     LIG 4657   2.234  26.880   5.253
    9AU     LIG 4658   2.170  26.586   4.868
    9AU     LIG 4659   2.111  26.428   4.418
    9AU     LIG 4660   2.158  26.514   3.959
    9AU    AUSL 4661   1.623  27.620   6.879
    9AU    AUSL 4662   1.362  27.354   6.668
    9AU     AUL 4663   1.567  27.162   6.551
    9AU       S 4664   1.161  27.436   6.355
    9AU     LIG 4665   1.130  27.049   6.154
    9AU     LIG 4666   0.899  26.875   5.784
    9AU     LIG 4667   0.655  26.730   5.397
    9AU     LIG 4668   0.407  26.606   4.995
    9AU     LIG 4669   0.383  26.516   4.527
    9AU     LIG 4670   0.365  26.447   4.050
    9AU       S 4671   1.753  27.597   6.531
    9AU     LIG 4672   1.970  27.692   6.019
    9AU     LIG 4673   2.114  27.485   5.601
    9AU     LIG 4674   2.268  27.410   5.152
    9AU     LIG 4675   2.281  27.598   4.699
    9AU     LIG 4676   2.368  27.784   4.259
    9AU     LIG 4677   2.617  27.945   3.876
    9AU    AUSL 4678   1.039  27.706   8.236
    9AU    AUSL 4679   1.318  27.925   7.978
    9AU     AUL 4680   1.245  27.994   8.376
    9AU       S 4681   0.928  27.736   8.614
    9AU     LIG 4682   0.615  27.397   8.689
    9AU     LIG 4683   0.496  27.190   9.100
    9AU     LIG 4684   0.358  27.066   9.545
    9AU     LIG 4685   0.138  27.056   9.972
    9AU     LIG 4686  44.740  27.193  10.208
    9AU     LIG 4687  44.465  27.199  10.590
    9AU       S 4688   0.824  28.121   8.250
    9AU     LIG 4689   0.905  28.235   8.699
    9AU     LIG 4690   0.809  28.525   9.057
    9AU     LIG 4691   0.518  28.816   9.300
    9AU     LIG 4692   0.378  29.011   9.725
    9AU     LIG 4693   0.216  29.180  10.158
    9AU     LIG 4694  44.972  29.399  10.516
    9AU    AUSL 4695   1.312  27.454   8.059
    9AU    AUSL 4696   0.795  27.442   8.014
    9AU     AUL 4697   0.903  27.458   8.249
    9AU       S 4698   0.631  27.087   8.267
    9AU     LIG 4699   0.263  26.861   8.141
    9AU     LIG 4700  44.919  26.615   8.318
    9AU     LIG 4701  44.671  26.327   8.578
    9AU     LIG 4702  44.490  26.027   8.881
    9AU     LIG 4703  44.171  25.792   9.125
    9AU     LIG 4704  43.782  25.813   9.401
    9AU       S 4705   1.180  27.391   8.596
    9AU     LIG 4706   0.966  27.057   8.861
    9AU     LIG 4707   0.852  26.878   9.299
    9AU     LIG 4708   0.760  26.842   9.774
    9AU     LIG 4709   0.654  26.634  10.194
    9AU     LIG 4710   0.662  26.488  10.644
    9AU     LIG 4711   0.479  26.460  11.077
    9AU    AUSL 4712   1.082  27.511   6.930
    9AU    AUSL 4713   1.256  27.070   6.947
    9AU     AUL 4714   1.105  27.117   6.675
    9AU       S 4715   0.870  27.409   6.423
    9AU     LIG 4716   0.678  27.283   6.049
    9AU     LIG 4717   0.431  27.090   5.716
    9AU     LIG 4718   0.212  26.975   5.329
    9AU     LIG 4719   0.054  26.985   4.894
    9AU     LIG 4720  44.717  26.927   4.575
    9AU     LIG 4721  44.480  27.195   4.266
    9AU       S 4722   0.847  26.738   6.850
    9AU     LIG 4723   0.560  26.424   6.702
    9AU     LIG 4724   0.228  26.266   6.404
    9AU     LIG 4725  44.936  26.047   6.108
    9AU     LIG 4726  44.795  25.813   5.714
    9AU     LIG 4727  44.895  25.670   5.247
    9AU     LIG 4728  44.919  25.297   4.927
    9AU    AUSL 4729   1.323  27.788   6.643
    9AU    AUSL 4730   0.869  27.873   6.928
    9AU     AUL 4731   0.967  27.758   6.681
    9AU       S 4732   0.780  28.185   6.681
    9AU     LIG 4733   0.572  28.293   6.265
    9AU     LIG 4734   0.359  28.452   5.856
    9AU     LIG 4735   0.096  28.521   5.454
    9AU     LIG 4736  44.690  28.611   5.204
    9AU     LIG 4737  44.276  28.767   5.012
    9AU     LIG 4738  43.887  29.045   4.966
    9AU       S 4739   1.290  27.570   6.400
    9AU     LIG 4740   1.172  27.503   5.885
    9AU     LIG 4741   0.872  27.345   5.559
    9AU     LIG 4742   0.780  27.383   5.095
    9AU     LIG 4743   0.847  27.621   4.672
    9AU     LIG 4744   0.785  27.896   4.278
    9AU     LIG 4745   0.706  28.061   3.836
    9AU    AUSL 4746   2.188  28.096   7.410
    9AU    AUSL 4747   2.138  27.949   7.015
    9AU     AUL 4748   2.224  28.375   7.260
    9AU       S 4749   2.219  28.213   6.798
    9AU     LIG 4750   2.549  28.092   6.478
    9AU     LIG 4751   2.887  28.208   6.155
    9AU     LIG 4752   3.246  28.396   5.912
    9AU     LIG 4753   3.564  28.398   5.555
    9AU     LIG 4754   3.926  28.531   5.282
    9AU     LIG 4755   4.161  28.861   5.025
    9AU       S 4756   2.568  28.073   7.307
    9AU     LIG 4757   2.995  28.313   7.340
    9AU     LIG 4758   3.444  28.235   7.489
    9AU     LIG 4759   3.927  28.185   7.555
    9AU     LIG 4760   4.358  28.425   7.610
    9AU     LIG 4761   4.578  28.795   7.825
    9AU     LIG 4762   4.750  29.227   7.961
    9AU    AUSL 4763   2.326  27.661   7.257
    9AU    AUSL 4764   2.341  27.436   7.727
    9AU     AUL 4765   2.544  27.493   7.481
    9AU       S 4766   2.588  27.813   7.129
    9AU     LIG 4767   3.085  27.861   7.109
    9AU     LIG 4768   3.574  27.818   7.218
    9AU     LIG 4769   4.066  27.767   7.276
    9AU     LIG 4770   4.545  27.852   7.232
    9AU     LIG 4771   4.948  28.023   6.997
    9AU     LIG 4772   5.294  28.329   6.915
    9AU       S 4773   2.682  27.095   7.697
    9AU     LIG 4774   3.037  26.855   7.856
    9AU     LIG 4775   3.488  26.722   7.837
    9AU     LIG 4776   3.889  26.594   8.056
    9AU     LIG 4777   4.325  26.384   8.117
    9AU     LIG 4778   4.809  26.475   8.106
    9AU     LIG 4779   5.275  26.394   8.190
    9AU    AUSL 4780   2.092  27.740   7.602
    9AU    AUSL 4781   2.066  28.154   7.801
    9AU     AUL 4782   2.364  27.931   7.731
    9AU       S 4783   2.283  28.236   8.066
    9AU     LIG 4784   2.438  28.553   8.338
    9AU     LIG 4785   2.786  28.586   8.640
    9AU     LIG 4786   3.172  28.719   8.873
    9AU     LIG 4787   3.423  29.058   9.098
    9AU     LIG 4788   3.581  29.518   9.112
    9AU     LIG 4789   3.635  29.994   9.216
    9AU       S 4790   2.671  27.940   7.400
    9AU     LIG 4791   3.075  27.873   7.625
    9AU     LIG 4792   3.539  27.781   7.732
    9AU     LIG 4793   4.008  27.720   7.783
    9AU     LIG 4794   4.432  27.942   7.752
    9AU     LIG 4795   4.729  28.282   7.965
    9AU     LIG 4796   5.132  28.405   8.194
    9AU    AUSL 4797   0.843  28.104   7.512
    9AU    AUSL 4798   0.911  27.864   7.875
    9AU     AUL 4799   0.638  28.212   7.760
    9AU       S 4800   0.649  27.916   8.125
    9AU     LIG 4801   0.453  28.009   8.557
    9AU     LIG 4802   0.354  28.345   8.900
    9AU     LIG 4803   0.090  28.499   9.290
    9AU     LIG 4804  44.670  28.570   9.554
    9AU     LIG 4805  44.246  28.709   9.778
    9AU     LIG 4806  43.870  28.908  10.037
    9AU       S 4807   0.281  28.035   7.522
    9AU     LIG 4808   0.098  28.452   7.651
    9AU     LIG 4809  44.820  28.826   7.559
    9AU     LIG 4810  44.516  29.194   7.562
    9AU     LIG 4811  44.071  29.290   7.572
    9AU     LIG 4812  43.709  29.561   7.618
    9AU     LIG 4813  43.355  29.777   7.463
    9AU    AUSL 4814   0.939  27.755   7.313
    9AU    AUSL 4815   1.037  28.217   7.157
    9AU     AUL 4816   0.766  28.116   7.159
    9AU       S 4817   0.371  28.108   7.376
    9AU     LIG 4818  44.956  28.242   7.182
    9AU     LIG 4819  44.604  28.474   6.959
    9AU     LIG 4820  44.239  28.729   6.770
    9AU     LIG 4821  43.779  28.848   6.690
    9AU     LIG 4822  43.336  28.909   6.558
    9AU     LIG 4823  42.886  28.851   6.660
    9AU       S 4824   0.928  28.381   6.783
    9AU     LIG 4825   0.810  28.708   6.472
    9AU     LIG 4826   0.757  29.058   6.153
    9AU     LIG 4827   0.611  29.398   5.861
    9AU     LIG 4828   0.345  29.798   5.807
    9AU     LIG 4829  44.916  30.032   5.812
    9AU     LIG 4830  44.454  30.199   5.807
    9AU    AUSL 4831   0.624  27.732   7.617
    9AU    AUSL 4832   0.667  27.442   7.299
    9AU     AUL 4833   0.540  27.712   7.234
    9AU       S 4834   0.338  27.252   7.431
    9AU     LIG 4835   0.024  27.185   7.787
    9AU     LIG 4836  44.555  27.083   7.791
    9AU     LIG 4837  44.124  26.935   7.641
    9AU     LIG 4838  43.751  26.778   7.385
    9AU     LIG 4839  43.277  26.725   7.328
    9AU     LIG 4840  42.939  26.543   7.070
    9AU       S 4841   0.428  27.770   7.706
    9AU     LIG 4842   0.197  28.091   8.018
    9AU     LIG 4843  44.821  28.374   8.143
    9AU     LIG 4844  44.363  28.519   8.263
    9AU     LIG 4845  43.933  28.741   8.326
    9AU     LIG 4846  43.475  28.749   8.455
    9AU     LIG 4847  43.021  28.681   8.370
    9AU    AUSL 4848   2.207  27.064   7.570
    9AU    AUSL 4849   1.950  27.329   7.829
    9AU     AUL 4850   2.295  27.194   7.936
    9AU       S 4851   2.376  26.863   7.580
    9AU     LIG 4852   2.640  26.529   7.748
    9AU     LIG 4853   3.105  26.372   7.684
    9AU     LIG 4854   3.588  26.262   7.631
    9AU     LIG 4855   3.952  25.991   7.492
    9AU     LIG 4856   4.382  25.877   7.601
    9AU     LIG 4857   4.564  25.514   7.856
    9AU       S 4858   2.185  26.777   8.057
    9AU     LIG 4859   2.431  26.359   8.195
    9AU     LIG 4860   2.451  26.062   8.556
    9AU     LIG 4861   2.745  25.831   8.850
    9AU     LIG 4862   3.068  25.700   9.175
    9AU     LIG 4863   3.459  25.851   9.428
    9AU     LIG 4864   3.843  25.937   9.707
    9AU    AUSL 4865   2.046  27.379   7.358
    9AU    AUSL 4866   1.967  26.901   7.269
    9AU     AUL 4867   2.322  27.159   7.197
    9AU       S 4868   2.508  26.997   7.567
    9AU     LIG 4869   2.902  26.762   7.366
    9AU     LIG 4870   3.385  26.612   7.312
    9AU     LIG 4871   3.849  26.408   7.195
    9AU     LIG 4872   4.326  26.231   7.196
    9AU     LIG 4873   4.806  26.366   7.137
    9AU     LIG 4874   5.254  26.323   6.901
    9AU       S 4875   2.234  26.689   7.113
    9AU     LIG 4876   2.035  26.252   7.003
    9AU     LIG 4877   2.152  25.828   6.752
    9AU     LIG 4878   2.397  25.462   6.504
    9AU     LIG 4879   2.676  25.168   6.229
    9AU     LIG 4880   2.965  24.840   6.041
    9AU     LIG 4881   3.141  24.404   6.094
    9AU    AUSL 4882   0.784  27.072   7.507
    9AU    AUSL 4883   0.866  27.180   7.056
    9AU     AUL 4884   0.599  27.270   7.035
    9AU       S 4885   0.810  26.866   7.051
    9AU     LIG 4886   0.442  26.935   6.704
    9AU     LIG 4887   0.064  26.709   6.611
    9AU     LIG 4888  44.738  26.451   6.401
    9AU     LIG 4889  44.455  26.220   6.097
    9AU     LIG 4890  44.213  26.032   5.736
    9AU     LIG 4891  44.155  26.007   5.264
    9AU       S 4892   0.505  27.048   7.427
    9AU     LIG 4893   0.266  26.764   7.626
    9AU     LIG 4894  44.869  26.671   7.819
    9AU     LIG 4895  44.468  26.562   7.611
    9AU     LIG 4896  43.999  26.394   7.637
    9AU     LIG 4897  43.610  26.071   7.684
    9AU     LIG 4898  43.267  25.724   7.826
    9AU    AUSL 4899   0.934  27.457   7.630
    9AU    AUSL 4900   1.018  27.117   7.875
    9AU     AUL 4901   0.644  27.246   7.819
    9AU       S 4902   0.781  26.969   8.158
    9AU     LIG 4903   0.676  26.641   7.907
    9AU     LIG 4904   0.274  26.371   7.969
    9AU     LIG 4905  44.923  26.109   8.179
    9AU     LIG 4906  44.631  25.814   8.432
    9AU     LIG 4907  44.432  25.508   8.747
    9AU     LIG 4908  44.295  25.051   8.837
    9AU       S 4909   0.384  27.340   7.461
    9AU     LIG 4910  44.885  27.439   7.356
    9AU     LIG 4911  44.415  27.263   7.317
    9AU     LIG 4912  43.906  27.291   7.354
    9AU     LIG 4913  43.483  27.164   7.583
    9AU     LIG 4914  43.101  26.926   7.776
    9AU     LIG 4915  42.784  26.579   7.880
    9AU    AUSL 4916   1.495  28.297   8.007
    9AU    AUSL 4917   1.095  28.237   7.815
    9AU     AUL 4918   1.256  28.360   8.087
    9AU       S 4919   0.844  28.216   8.172
    9AU     LIG 4920   0.565  28.515   8.441
    9AU     LIG 4921   0.543  28.861   8.771
    9AU     LIG 4922   0.528  29.302   8.967
    9AU     LIG 4923   0.248  29.688   9.074
    9AU     LIG 4924  44.848  29.970   9.132
    9AU     LIG 4925  44.433  30.241   9.136
    9AU       S 4926   1.571  28.711   7.996
    9AU     LIG 4927   1.666  28.903   8.360
    9AU     LIG 4928   1.624  29.310   8.532
    9AU     LIG 4929   1.774  29.647   8.785
    9AU     LIG 4930   1.620  30.004   9.042
    9AU     LIG 4931   1.760  30.289   9.394
    9AU     LIG 4932   1.709  30.578   9.765
    9AU    AUSL 4933   1.381  28.453   7.610
    9AU    AUSL 4934   1.727  28.401   7.332
    9AU     AUL 4935   1.407  28.703   7.427
    9AU       S 4936   1.435  28.765   7.876
    9AU     LIG 4937   1.508  29.217   7.904
    9AU     LIG 4938   1.611  29.600   8.111
    9AU     LIG 4939   1.542  29.914   8.429
    9AU     LIG 4940   1.485  30.345   8.387
    9AU     LIG 4941   1.098  30.591   8.463
    9AU     LIG 4942   0.894  31.001   8.527
    9AU       S 4943   1.788  28.754   7.151
    9AU     LIG 4944   2.040  28.968   6.843
    9AU     LIG 4945   2.032  29.419   6.717
    9AU     LIG 4946   2.037  29.895   6.696
    9AU     LIG 4947   2.247  30.333   6.645
    9AU     LIG 4948   2.490  30.759   6.602
    9AU     LIG 4949   2.679  31.206   6.547
    9AU    AUSL 4950   1.684  28.149   7.667
    9AU    AUSL 4951   1.807  28.053   8.134
    9AU     AUL 4952   1.834  28.339   8.000
    9AU       S 4953   2.133  28.110   8.284
    9AU     LIG 4954   2.405  28.184   8.700
    9AU     LIG 4955   2.659  28.346   9.078
    9AU     LIG 4956   2.928  28.657   9.323
    9AU     LIG 4957   3.202  28.953   9.582
    9AU     LIG 4958   3.199  29.277   9.944
    9AU     LIG 4959   3.229  29.608  10.295
    9AU       S 4960   1.786  28.685   7.714
    9AU     LIG 4961   1.982  29.035   7.978
    9AU     LIG 4962   2.057  29.413   8.266
    9AU     LIG 4963   2.052  29.881   8.382
    9AU     LIG 4964   2.228  30.339   8.419
    9AU     LIG 4965   2.492  30.759   8.425
    9AU     LIG 4966   2.774  31.162   8.427
    9AU    AUSL 4967   1.458  27.019   7.873
    9AU    AUSL 4968   1.874  26.912   7.758
    9AU     AUL 4969   1.643  26.819   8.130
    9AU       S 4970   1.464  26.413   8.027
    9AU     LIG 4971   1.579  26.010   8.166
    9AU     LIG 4972   1.322  25.686   8.341
    9AU     LIG 4973   1.224  25.265   8.428
    9AU     LIG 4974   1.262  24.889   8.676
    9AU     LIG 4975   1.254  24.515   8.936
    9AU     LIG 4976   1.193  24.343   9.367
    9AU       S 4977   2.010  26.707   7.848
    9AU     LIG 4978   2.024  26.256   7.866
    9AU     LIG 4979   2.170  25.877   8.127
    9AU     LIG 4980   2.340  25.562   8.457
    9AU     LIG 4981   2.633  25.337   8.772
    9AU     LIG 4982   3.023  25.124   8.947
    9AU     LIG 4983   3.455  24.939   8.882
    9AU    AUSL 4984   1.159  26.800   7.664
    9AU    AUSL 4985   1.251  27.087   8.231
    9AU     AUL 4986   1.176  26.789   8.007
    9AU       S 4987   1.277  26.351   7.888
    9AU     LIG 4988   1.047  26.028   8.047
    9AU     LIG 4989   0.914  25.590   8.040
    9AU     LIG 4990   0.912  25.145   8.028
    9AU     LIG 4991   1.081  24.767   8.211
    9AU     LIG 4992   0.972  24.431   8.498
    9AU     LIG 4993   0.798  23.984   8.463
    9AU       S 4994   0.949  27.005   8.347
    9AU     LIG 4995   0.646  26.609   8.456
    9AU     LIG 4996   0.291  26.307   8.493
    9AU     LIG 4997   0.029  25.981   8.708
    9AU     LIG 4998  44.842  25.681   9.023
    9AU     LIG 4999  44.807  25.466   9.447
    9AU     LIG 5000  44.938  25.215   9.841
    9AU    AUSL 5001   1.563  26.663   7.650
    9AU    AUSL 5002   1.276  26.743   7.269
    9AU     AUL 5003   1.114  26.567   7.519
    9AU       S 5004   1.343  26.365   7.161
    9AU     LIG 5005   0.967  26.263   7.039
    9AU     LIG 5006   0.926  25.815   6.988
    9AU     LIG 5007   1.048  25.362   6.969
    9AU     LIG 5008   0.998  24.916   6.803
    9AU     LIG 5009   0.900  24.493   6.585
    9AU     LIG 5010   0.917  24.026   6.456
    9AU       S 5011   1.528  26.523   7.756
    9AU     LIG 5012   1.596  26.058   7.646
    9AU     LIG 5013   1.374  25.690   7.820
    9AU     LIG 5014   1.413  25.248   7.951
    9AU     LIG 5015   1.569  24.918   8.247
    9AU     LIG 5016   1.502  24.484   8.458
    9AU     LIG 5017   1.683  24.038   8.524
    9AU    AUSL 5018   1.496  28.246   6.998
    9AU    AUSL 5019   1.810  28.001   7.254
    9AU     AUL 5020   1.829  28.318   7.025
    9AU       S 5021   1.525  28.583   6.795
    9AU     LIG 5022   1.710  28.835   6.477
    9AU     LIG 5023   1.856  29.231   6.267
    9AU     LIG 5024   1.995  29.487   5.872
    9AU     LIG 5025   2.097  29.816   5.530
    9AU     LIG 5026   1.941  30.164   5.244
    9AU     LIG 5027   1.681  30.506   5.048
    9AU       S 5028   2.210  28.055   6.921
    9AU     LIG 5029   2.672  28.332   6.906
    9AU     LIG 5030   2.865  28.556   6.536
    9AU     LIG 5031   3.101  28.810   6.202
    9AU     LIG 5032   3.418  29.174   6.090
    9AU     LIG 5033   3.695  29.580   6.023
    9AU     LIG 5034   3.975  29.983   5.999
    9AU    AUSL 5035   1.366  28.118   7.383
    9AU    AUSL 5036   1.283  27.896   7.034
    9AU     AUL 5037   1.242  28.391   7.121
    9AU       S 5038   1.579  28.703   7.011
    9AU     LIG 5039   1.561  29.163   6.869
    9AU     LIG 5040   1.601  29.634   6.919
    9AU     LIG 5041   1.525  30.008   6.662
    9AU     LIG 5042   1.303  30.428   6.654
    9AU     LIG 5043   0.941  30.745   6.614
    9AU     LIG 5044   0.747  31.191   6.600
    9AU       S 5045   1.140  28.212   6.685
    9AU     LIG 5046   1.090  28.336   6.256
    9AU     LIG 5047   0.849  28.600   5.937
    9AU     LIG 5048   0.608  28.843   5.586
    9AU     LIG 5049   0.553  29.042   5.131
    9AU     LIG 5050   0.431  29.393   4.810
    9AU     LIG 5051   0.238  29.733   4.534
    9AU    AUSL 5052   1.598  26.836   6.994
    9AU    AUSL 5053   1.161  27.133   7.352
    9AU     AUL 5054   1.272  26.789   6.989
    9AU       S 5055   0.814  26.732   7.184
    9AU     LIG 5056   0.349  26.639   7.121
    9AU     LIG 5057   0.106  26.283   6.908
    9AU     LIG 5058  44.823  26.008   6.634
    9AU     LIG 5059  44.557  25.742   6.325
    9AU     LIG 5060  44.321  25.323   6.206
    9AU     LIG 5061  44.070  24.974   5.968
    9AU       S 5062   1.523  26.408   6.966
    9AU     LIG 5063   1.341  26.078   6.721
    9AU     LIG 5064   1.202  25.671   6.571
    9AU     LIG 5065   1.322  25.227   6.539
    9AU     LIG 5066   1.171  24.850   6.306
    9AU     LIG 5067   1.034  24.665   5.885
    9AU     LIG 5068   1.074  24.492   5.442
    9AU    AUSL 5069   1.589  26.987   7.413
    9AU    AUSL 5070   1.711  27.217   7.084
    9AU     AUL 5071   1.781  26.713   7.195
    9AU       S 5072   1.474  26.400   7.271
    9AU     LIG 5073   1.604  25.935   7.141
    9AU     LIG 5074   1.552  25.531   6.913
    9AU     LIG 5075   1.471  25.068   7.024
    9AU     LIG 5076   1.659  24.645   6.941
    9AU     LIG 5077   1.826  24.183   6.895
    9AU     LIG 5078   1.850  23.770   6.617
    9AU       S 5079   2.012  26.753   6.801
    9AU     LIG 5080   1.835  26.403   6.553
    9AU     LIG 5081   2.018  26.040   6.303
    9AU     LIG 5082   2.285  25.715   6.065
    9AU     LIG 5083   2.541  25.528   5.716
    9AU     LIG 5084   2.739  25.419   5.292
    9AU     LIG 5085   2.974  25.170   4.948
   10AU     AUC 5086  30.746  27.401   7.509
   10AU     AUC 5087  31.005  27.395   7.347
   10AU     AUC 5088  30.996  27.390   7.658
   10AU     AUC 5089  30.499  27.407   7.346
   10AU     AUC 5090  30.485  27.432   7.661
   10AU     AUC 5091  30.597  27.671   7.513
   10AU     AUC 5092  30.914  27.643   7.506
   10AU     AUC 5093  30.576  27.161   7.522
   10AU     AUC 5094  30.879  27.132   7.527
   10AU     AUC 5095  30.734  27.245   7.768
   10AU     AUC 5096  30.763  27.567   7.758
   10AU     AUC 5097  30.744  27.236   7.250
   10AU     AUC 5098  30.744  27.538   7.248
   10AU     AUC 5099  31.256  27.389   7.182
   10AU     AUC 5100  31.266  27.390   7.483
   10AU     AUC 5101  31.266  27.379   7.794
   10AU     AUC 5102  30.245  27.395   7.188
   10AU     AUC 5103  30.226  27.429   7.486
   10AU     AUC 5104  30.230  27.469   7.812
   10AU     AUC 5105  30.456  27.933   7.517
   10AU     AUC 5106  30.768  27.923   7.515
   10AU     AUC 5107  31.078  27.908   7.497
   10AU     AUC 5108  30.389  26.913   7.536
   10AU     AUC 5109  30.701  26.877   7.520
   10AU     AUC 5110  31.023  26.866   7.533
   10AU     AUC 5111  30.732  27.098   8.024
   10AU     AUC 5112  30.765  27.396   8.034
   10AU     AUC 5113  30.790  27.716   8.019
   10AU     AUC 5114  30.744  27.049   7.019
   10AU     AUC 5115  30.756  27.367   6.986
   10AU     AUC 5116  30.745  27.688   6.983
   10AU     AUC 5117  31.006  27.222   7.926
   10AU     AUC 5118  31.020  27.561   7.930
   10AU     AUC 5119  31.015  27.217   7.090
   10AU     AUC 5120  31.017  27.532   7.073
   10AU     AUC 5121  30.484  27.292   7.942
   10AU     AUC 5122  30.486  27.596   7.917
   10AU     AUC 5123  30.497  27.227   7.081
   10AU     AUC 5124  30.497  27.547   7.079
   10AU     AUC 5125  31.167  27.656   7.323
   10AU     AUC 5126  31.180  27.629   7.671
   10AU     AUC 5127  30.336  27.675   7.354
   10AU     AUC 5128  30.345  27.710   7.662
   10AU     AUC 5129  31.156  27.119   7.369
   10AU     AUC 5130  31.134  27.100   7.673
   10AU     AUC 5131  30.316  27.148   7.362
   10AU     AUC 5132  30.317  27.190   7.701
   10AU     AUC 5133  30.615  27.833   7.777
   10AU     AUC 5134  30.949  27.815   7.754
   10AU     AUC 5135  30.545  27.000   7.778
   10AU     AUC 5136  30.865  26.977   7.785
   10AU     AUC 5137  30.602  27.812   7.242
   10AU     AUC 5138  30.917  27.796   7.237
   10AU     AUC 5139  30.562  26.986   7.259
   10AU     AUC 5140  30.894  26.968   7.274
   10AU    AUSL 5141  31.264  27.271   8.225
   10AU    AUSL 5142  31.028  26.907   8.142
   10AU     AUL 5143  31.319  26.951   8.377
   10AU       S 5144  31.322  26.528   8.156
   10AU     LIG 5145  31.223  26.132   8.334
   10AU     LIG 5146  31.370  25.818   8.660
   10AU     LIG 5147  31.581  25.578   9.016
   10AU     LIG 5148  31.601  25.286   9.394
   10AU     LIG 5149  31.742  25.245   9.847
   10AU     LIG 5150  31.893  24.894  10.128
   10AU       S 5151  31.221  27.342   8.628
   10AU     LIG 5152  31.369  27.139   9.020
   10AU     LIG 5153  31.635  26.934   9.361
   10AU     LIG 5154  32.023  26.892   9.635
   10AU     LIG 5155  32.364  27.026   9.942
   10AU     LIG 5156  32.521  27.215  10.349
   10AU     LIG 5157  32.636  27.322  10.794
   10AU    AUSL 5158  30.844  27.214   8.365
   10AU    AUSL 5159  30.690  27.631   8.366
   10AU     AUL 5160  30.763  27.542   8.714
   10AU       S 5161  30.921  27.151   8.541
   10AU     LIG 5162  31.046  26.803   8.799
   10AU     LIG 5163  31.203  26.669   9.239
   10AU     LIG 5164  31.329  26.499   9.682
   10AU     LIG 5165  31.368  26.337  10.148
   10AU     LIG 5166  31.391  26.400  10.636
   10AU     LIG 5167  31.462  26.288  11.093
   10AU       S 5168  30.327  27.428   8.701
   10AU     LIG 5169  30.263  27.286   9.120
   10AU     LIG 5170  30.082  27.166   9.525
   10AU     LIG 5171  29.893  27.199   9.940
   10AU     LIG 5172  29.934  27.471  10.326
   10AU     LIG 5173  30.031  27.676  10.732
   10AU     LIG 5174  29.847  27.980  11.028
   10AU    AUSL 5175  30.955  27.502   8.074
   10AU    AUSL 5176  31.390  27.615   8.010
   10AU     AUL 5177  31.458  27.432   8.219
   10AU       S 5178  31.149  27.608   8.510
   10AU     LIG 5179  31.129  27.904   8.837
   10AU     LIG 5180  31.375  28.069   9.212
   10AU     LIG 5181  31.383  28.185   9.685
   10AU     LIG 5182  31.523  28.218  10.142
   10AU     LIG 5183  31.581  28.323  10.595
   10AU     LIG 5184  31.782  28.134  10.981
   10AU       S 5185  31.603  27.870   8.198
   10AU     LIG 5186  32.004  27.883   8.374
   10AU     LIG 5187  32.237  27.952   8.759
   10AU     LIG 5188  32.506  28.223   9.024
   10AU     LIG 5189  32.745  28.408   9.398
   10AU     LIG 5190  33.107  28.380   9.741
   10AU     LIG 5191  33.492  28.538   9.993
   10AU    AUSL 5192  31.287  27.396   6.885
   10AU    AUSL 5193  31.004  27.831   6.817
   10AU     AUL 5194  31.332  27.722   6.488
   10AU       S 5195  31.477  27.406   6.758
   10AU     LIG 5196  31.604  27.337   6.337
   10AU     LIG 5197  31.671  27.191   5.914
   10AU     LIG 5198  31.763  27.077   5.476
   10AU     LIG 5199  32.026  26.976   5.092
   10AU     LIG 5200  32.382  26.958   4.760
   10AU     LIG 5201  32.601  26.952   4.328
   10AU       S 5202  30.984  27.940   6.642
   10AU     LIG 5203  31.312  28.253   6.541
   10AU     LIG 5204  31.678  28.300   6.257
   10AU     LIG 5205  31.983  28.431   5.905
   10AU     LIG 5206  32.259  28.539   5.514
   10AU     LIG 5207  32.289  28.829   5.118
   10AU     LIG 5208  32.354  29.167   4.775
   10AU    AUSL 5209  31.025  27.098   6.699
   10AU    AUSL 5210  31.367  27.011   7.007
   10AU     AUL 5211  31.350  26.999   6.660
   10AU       S 5212  31.505  26.617   6.895
   10AU     LIG 5213  31.618  26.295   6.542
   10AU     LIG 5214  31.823  25.968   6.228
   10AU     LIG 5215  32.023  25.661   5.891
   10AU     LIG 5216  32.369  25.538   5.558
   10AU     LIG 5217  32.761  25.604   5.241
   10AU     LIG 5218  33.218  25.642   5.053
   10AU       S 5219  31.100  27.321   6.451
   10AU     LIG 5220  31.216  27.025   6.131
   10AU     LIG 5221  31.352  26.836   5.704
   10AU     LIG 5222  31.436  26.749   5.234
   10AU     LIG 5223  31.416  26.459   4.835
   10AU     LIG 5224  31.449  26.369   4.362
   10AU     LIG 5225  31.498  26.401   3.887
   10AU    AUSL 5226  30.872  27.450   6.877
   10AU    AUSL 5227  30.611  27.182   6.674
   10AU     AUL 5228  30.823  26.965   6.577
   10AU       S 5229  30.579  27.278   6.326
   10AU     LIG 5230  30.497  26.961   6.040
   10AU     LIG 5231  30.210  26.802   5.713
   10AU     LIG 5232  30.052  26.787   5.274
   10AU     LIG 5233  29.853  26.697   4.854
   10AU     LIG 5234  29.783  26.501   4.412
   10AU     LIG 5235  29.579  26.494   3.978
   10AU       S 5236  30.994  27.423   6.546
   10AU     LIG 5237  31.021  27.496   6.016
   10AU     LIG 5238  31.269  27.341   5.618
   10AU     LIG 5239  31.424  27.308   5.154
   10AU     LIG 5240  31.462  27.505   4.700
   10AU     LIG 5241  31.507  27.721   4.267
   10AU     LIG 5242  31.620  27.937   3.860
   10AU    AUSL 5243  30.293  27.535   8.245
   10AU    AUSL 5244  30.569  27.758   7.989
   10AU     AUL 5245  30.505  27.834   8.388
   10AU       S 5246  30.184  27.572   8.621
   10AU     LIG 5247  29.862  27.252   8.707
   10AU     LIG 5248  29.776  27.034   9.110
   10AU     LIG 5249  29.574  27.031   9.544
   10AU     LIG 5250  29.218  26.952   9.868
   10AU     LIG 5251  29.019  26.890  10.310
   10AU     LIG 5252  28.775  26.991  10.722
   10AU       S 5253  30.069  27.941   8.287
   10AU     LIG 5254  30.096  28.051   8.747
   10AU     LIG 5255  29.941  28.322   9.090
   10AU     LIG 5256  29.796  28.696   9.330
   10AU     LIG 5257  29.618  28.884   9.722
   10AU     LIG 5258  29.576  29.129  10.133
   10AU     LIG 5259  29.380  29.380  10.487
   10AU    AUSL 5260  30.566  27.287   8.065
   10AU    AUSL 5261  30.033  27.287   8.022
   10AU     AUL 5262  30.155  27.290   8.261
   10AU       S 5263  29.845  26.950   8.284
   10AU     LIG 5264  29.502  26.781   8.052
   10AU     LIG 5265  29.171  26.475   8.185
   10AU     LIG 5266  28.961  26.183   8.511
   10AU     LIG 5267  28.759  25.914   8.844
   10AU     LIG 5268  28.617  25.811   9.286
   10AU     LIG 5269  28.301  25.906   9.632
   10AU       S 5270  30.431  27.225   8.608
   10AU     LIG 5271  30.224  26.873   8.844
   10AU     LIG 5272  30.146  26.717   9.288
   10AU     LIG 5273  29.950  26.702   9.733
   10AU     LIG 5274  29.839  26.483  10.157
   10AU     LIG 5275  29.812  26.274  10.601
   10AU     LIG 5276  29.687  26.151  11.047
   10AU    AUSL 5277  30.367  27.347   6.969
   10AU    AUSL 5278  30.483  26.901   6.948
   10AU     AUL 5279  30.330  27.017   6.654
   10AU       S 5280  30.325  27.361   6.329
   10AU     LIG 5281  30.056  27.235   5.980
   10AU     LIG 5282  29.806  27.115   5.594
   10AU     LIG 5283  29.558  26.985   5.210
   10AU     LIG 5284  29.111  26.948   5.023
   10AU     LIG 5285  28.827  26.917   4.641
   10AU     LIG 5286  28.626  26.984   4.217
   10AU       S 5287  30.051  26.633   6.827
   10AU     LIG 5288  29.874  26.217   6.836
   10AU     LIG 5289  29.586  25.958   6.568
   10AU     LIG 5290  29.259  25.830   6.227
   10AU     LIG 5291  29.032  25.745   5.795
   10AU     LIG 5292  28.995  25.607   5.312
   10AU     LIG 5293  28.913  25.459   4.851
   10AU    AUSL 5294  30.549  27.613   6.665
   10AU    AUSL 5295  30.149  27.701   6.919
   10AU     AUL 5296  30.132  27.451   6.729
   10AU       S 5297  30.171  27.922   6.685
   10AU     LIG 5298  29.909  28.005   6.299
   10AU     LIG 5299  29.618  28.173   5.945
   10AU     LIG 5300  29.226  28.236   5.662
   10AU     LIG 5301  28.786  28.343   5.496
   10AU     LIG 5302  28.424  28.525   5.231
   10AU     LIG 5303  28.298  28.886   4.942
   10AU       S 5304  30.536  27.537   6.460
   10AU     LIG 5305  30.507  27.516   5.904
   10AU     LIG 5306  30.298  27.281   5.522
   10AU     LIG 5307  30.002  27.285   5.133
   10AU     LIG 5308  29.894  27.485   4.702
   10AU     LIG 5309  29.929  27.692   4.255
   10AU     LIG 5310  29.986  27.805   3.776
   10AU    AUSL 5311  31.446  27.919   7.413
   10AU    AUSL 5312  31.379  27.773   7.020
   10AU     AUL 5313  31.481  28.195   7.267
   10AU       S 5314  31.482  27.930   6.863
   10AU     LIG 5315  31.813  27.864   6.542
   10AU     LIG 5316  32.118  28.010   6.191
   10AU     LIG 5317  32.452  28.215   5.901
   10AU     LIG 5318  32.758  28.326   5.548
   10AU     LIG 5319  33.118  28.402   5.249
   10AU     LIG 5320  33.356  28.771   5.082
   10AU       S 5321  31.835  27.893   7.273
   10AU     LIG 5322  32.317  28.010   7.232
   10AU     LIG 5323  32.786  27.949   7.331
   10AU     LIG 5324  33.250  28.032   7.446
   10AU     LIG 5325  33.609  28.318   7.613
   10AU     LIG 5326  33.944  28.697   7.608
   10AU     LIG 5327  34.103  29.126   7.418
   10AU    AUSL 5328  31.574  27.489   7.262
   10AU    AUSL 5329  31.588  27.263   7.728
   10AU     AUL 5330  31.787  27.305   7.483
   10AU       S 5331  31.827  27.620   7.129
   10AU     LIG 5332  32.302  27.499   7.100
   10AU     LIG 5333  32.798  27.448   7.178
   10AU     LIG 5334  33.277  27.559   7.207
   10AU     LIG 5335  33.728  27.684   7.096
   10AU     LIG 5336  34.180  27.832   7.066
   10AU     LIG 5337  34.424  28.241   7.180
   10AU       S 5338  31.922  26.907   7.694
   10AU     LIG 5339  32.334  26.724   7.680
   10AU     LIG 5340  32.651  26.423   7.742
   10AU     LIG 5341  33.052  26.247   7.682
   10AU     LIG 5342  33.471  26.334   7.847
   10AU     LIG 5343  33.824  26.294   8.116
   10AU     LIG 5344  34.287  26.270   8.142
   10AU    AUSL 5345  31.339  27.568   7.607
   10AU    AUSL 5346  31.323  27.984   7.802
   10AU     AUL 5347  31.618  27.761   7.726
   10AU       S 5348  31.544  28.064   8.070
   10AU     LIG 5349  31.767  28.341   8.391
   10AU     LIG 5350  32.149  28.454   8.673
   10AU     LIG 5351  32.496  28.727   8.872
   10AU     LIG 5352  32.777  29.129   8.870
   10AU     LIG 5353  32.980  29.581   8.865
   10AU     LIG 5354  32.963  29.998   9.085
   10AU       S 5355  31.946  27.738   7.416
   10AU     LIG 5356  32.453  27.611   7.568
   10AU     LIG 5357  32.973  27.577   7.642
   10AU     LIG 5358  33.457  27.637   7.700
   10AU     LIG 5359  33.820  27.640   8.016
   10AU     LIG 5360  34.228  27.914   8.042
   10AU     LIG 5361  34.633  28.000   8.301
   10AU    AUSL 5362  30.097  27.952   7.523
   10AU    AUSL 5363  30.157  27.714   7.895
   10AU     AUL 5364  29.899  28.060   7.815
   10AU       S 5365  29.888  27.734   8.149
   10AU     LIG 5366  29.677  27.813   8.551
   10AU     LIG 5367  29.523  28.133   8.835
   10AU     LIG 5368  29.410  28.361   9.220
   10AU     LIG 5369  29.047  28.419   9.532
   10AU     LIG 5370  28.614  28.539   9.723
   10AU     LIG 5371  28.302  28.688  10.057
   10AU       S 5372  29.659  28.067   7.430
   10AU     LIG 5373  29.297  28.378   7.509
   10AU     LIG 5374  29.044  28.819   7.467
   10AU     LIG 5375  28.807  29.253   7.486
   10AU     LIG 5376  28.545  29.642   7.502
   10AU     LIG 5377  28.117  29.771   7.658
   10AU     LIG 5378  27.688  29.659   7.537
   10AU    AUSL 5379  30.177  27.602   7.316
   10AU    AUSL 5380  30.286  28.046   7.160
   10AU     AUL 5381  30.008  27.940   7.152
   10AU       S 5382  29.600  27.888   7.422
   10AU     LIG 5383  29.222  27.742   7.190
   10AU     LIG 5384  28.788  27.801   6.954
   10AU     LIG 5385  28.428  28.032   6.714
   10AU     LIG 5386  28.071  28.362   6.647
   10AU     LIG 5387  27.663  28.605   6.589
   10AU     LIG 5388  27.234  28.710   6.798
   10AU       S 5389  30.171  28.200   6.778
   10AU     LIG 5390  29.964  28.495   6.469
   10AU     LIG 5391  29.706  28.896   6.381
   10AU     LIG 5392  29.548  29.336   6.276
   10AU     LIG 5393  29.290  29.544   5.960
   10AU     LIG 5394  28.986  29.870   5.847
   10AU     LIG 5395  28.579  30.074   5.962
   10AU    AUSL 5396  29.877  27.582   7.631
   10AU    AUSL 5397  29.911  27.282   7.324
   10AU     AUL 5398  29.788  27.536   7.211
   10AU       S 5399  29.563  27.120   7.493
   10AU     LIG 5400  29.146  27.045   7.782
   10AU     LIG 5401  28.658  27.029   7.823
   10AU     LIG 5402  28.213  26.895   7.684
   10AU     LIG 5403  27.896  26.681   7.352
   10AU     LIG 5404  27.418  26.824   7.221
   10AU     LIG 5405  26.982  26.718   6.999
   10AU       S 5406  29.719  27.650   7.671
   10AU     LIG 5407  29.438  27.864   7.994
   10AU     LIG 5408  29.013  27.818   8.197
   10AU     LIG 5409  28.593  28.049   8.266
   10AU     LIG 5410  28.116  28.067   8.292
   10AU     LIG 5411  27.704  28.346   8.253
   10AU     LIG 5412  27.361  28.719   8.254
   10AU    AUSL 5413  31.447  26.892   7.573
   10AU    AUSL 5414  31.198  27.158   7.836
   10AU     AUL 5415  31.547  27.029   7.942
   10AU       S 5416  31.608  26.690   7.587
   10AU     LIG 5417  31.909  26.388   7.757
   10AU     LIG 5418  32.251  26.186   7.525
   10AU     LIG 5419  32.684  26.043   7.383
   10AU     LIG 5420  33.081  25.771   7.456
   10AU     LIG 5421  33.395  25.395   7.531
   10AU     LIG 5422  33.820  25.179   7.623
   10AU       S 5423  31.427  26.615   8.060
   10AU     LIG 5424  31.748  26.317   8.284
   10AU     LIG 5425  31.846  26.027   8.652
   10AU     LIG 5426  32.077  25.750   8.966
   10AU     LIG 5427  32.393  25.738   9.333
   10AU     LIG 5428  32.771  25.745   9.634
   10AU     LIG 5429  33.109  25.588   9.930
   10AU    AUSL 5430  31.289  27.210   7.362
   10AU    AUSL 5431  31.201  26.729   7.278
   10AU     AUL 5432  31.561  26.986   7.196
   10AU       S 5433  31.724  26.815   7.571
   10AU     LIG 5434  32.030  26.616   7.277
   10AU     LIG 5435  32.504  26.520   7.222
   10AU     LIG 5436  32.943  26.389   7.071
   10AU     LIG 5437  33.384  26.324   6.899
   10AU     LIG 5438  33.839  26.258   6.996
   10AU     LIG 5439  34.234  26.473   7.142
   10AU       S 5440  31.463  26.519   7.131
   10AU     LIG 5441  31.363  26.097   6.947
   10AU     LIG 5442  31.549  25.772   6.633
   10AU     LIG 5443  31.758  25.457   6.316
   10AU     LIG 5444  31.983  25.149   6.018
   10AU     LIG 5445  32.207  24.808   5.771
   10AU     LIG 5446  32.561  24.495   5.672
   10AU    AUSL 5447  30.026  26.917   7.528
   10AU    AUSL 5448  30.102  27.043   7.053
   10AU     AUL 5449  29.819  27.069   7.084
   10AU       S 5450  30.037  26.672   7.083
   10AU     LIG 5451  29.558  26.611   6.987
   10AU     LIG 5452  29.258  26.355   6.680
   10AU     LIG 5453  28.895  26.141   6.415
   10AU     LIG 5454  28.570  25.897   6.144
   10AU     LIG 5455  28.166  25.744   5.927
   10AU     LIG 5456  27.996  25.702   5.490
   10AU       S 5457  29.710  26.870   7.480
   10AU     LIG 5458  29.359  26.621   7.570
   10AU     LIG 5459  28.885  26.626   7.581
   10AU     LIG 5460  28.422  26.471   7.517
   10AU     LIG 5461  27.980  26.316   7.704
   10AU     LIG 5462  27.571  26.053   7.855
   10AU     LIG 5463  27.178  25.856   8.059
   10AU    AUSL 5464  30.187  27.307   7.644
   10AU    AUSL 5465  30.265  26.964   7.891
   10AU     AUL 5466  29.899  27.087   7.835
   10AU       S 5467  30.022  26.816   8.179
   10AU     LIG 5468  29.904  26.541   7.845
   10AU     LIG 5469  29.540  26.246   7.905
   10AU     LIG 5470  29.193  25.952   8.105
   10AU     LIG 5471  28.925  25.666   8.400
   10AU     LIG 5472  28.815  25.266   8.643
   10AU     LIG 5473  28.622  24.850   8.771
   10AU       S 5474  29.621  27.196   7.495
   10AU     LIG 5475  29.133  27.009   7.285
   10AU     LIG 5476  28.600  26.980   7.309
   10AU     LIG 5477  28.087  27.134   7.255
   10AU     LIG 5478  27.709  27.078   7.578
   10AU     LIG 5479  27.400  26.779   7.775
   10AU     LIG 5480  26.945  26.808   7.924
   10AU    AUSL 5481  30.751  28.125   8.030
   10AU    AUSL 5482  30.359  28.075   7.818
   10AU     AUL 5483  30.487  28.192   8.084
   10AU       S 5484  30.098  28.035   8.228
   10AU     LIG 5485  29.796  28.342   8.451
   10AU     LIG 5486  29.664  28.649   8.809
   10AU     LIG 5487  29.651  29.090   9.018
   10AU     LIG 5488  29.491  29.542   9.082
   10AU     LIG 5489  29.166  29.875   9.209
   10AU     LIG 5490  28.802  30.143   9.389
   10AU       S 5491  30.806  28.534   8.056
   10AU     LIG 5492  31.072  28.636   8.378
   10AU     LIG 5493  31.214  29.054   8.510
   10AU     LIG 5494  31.112  29.469   8.717
   10AU     LIG 5495  31.039  29.715   9.119
   10AU     LIG 5496  30.915  29.981   9.496
   10AU     LIG 5497  30.875  30.372   9.758
   10AU    AUSL 5498  30.656  28.296   7.637
   10AU    AUSL 5499  30.988  28.236   7.354
   10AU     AUL 5500  30.613  28.517   7.466
   10AU       S 5501  30.854  28.576   7.852
   10AU     LIG 5502  30.794  29.028   7.989
   10AU     LIG 5503  30.937  29.391   8.229
   10AU     LIG 5504  30.771  29.789   8.416
   10AU     LIG 5505  30.476  30.163   8.320
   10AU     LIG 5506  30.319  30.609   8.341
   10AU     LIG 5507  30.171  31.080   8.385
   10AU       S 5508  31.033  28.565   7.222
   10AU     LIG 5509  31.326  28.684   6.865
   10AU     LIG 5510  31.432  29.159   6.752
   10AU     LIG 5511  31.634  29.603   6.670
   10AU     LIG 5512  31.813  30.058   6.645
   10AU     LIG 5513  31.824  30.529   6.487
   10AU     LIG 5514  31.923  30.874   6.165
   10AU    AUSL 5515  30.936  27.978   7.683
   10AU    AUSL 5516  31.071  27.885   8.141
   10AU     AUL 5517  31.094  28.175   8.001
   10AU       S 5518  31.384  27.934   8.283
   10AU     LIG 5519  31.615  27.964   8.704
   10AU     LIG 5520  31.865  28.200   9.023
   10AU     LIG 5521  32.145  28.530   9.212
   10AU     LIG 5522  32.350  28.778   9.558
   10AU     LIG 5523  32.306  29.056   9.952
   10AU     LIG 5524  32.314  29.371  10.312
   10AU       S 5525  31.069  28.526   7.721
   10AU     LIG 5526  31.282  28.892   7.989
   10AU     LIG 5527  31.466  29.337   8.131
   10AU     LIG 5528  31.770  29.750   8.105
   10AU     LIG 5529  32.003  30.193   8.172
   10AU     LIG 5530  32.011  30.644   8.334
   10AU     LIG 5531  31.927  30.946   8.717
   10AU    AUSL 5532  30.701  26.856   7.884
   10AU    AUSL 5533  31.113  26.742   7.762
   10AU     AUL 5534  30.886  26.650   8.136
   10AU       S 5535  30.687  26.251   8.038
   10AU     LIG 5536  30.798  25.836   8.146
   10AU     LIG 5537  30.546  25.489   8.281
   10AU     LIG 5538  30.354  25.113   8.433
   10AU     LIG 5539  30.478  24.725   8.630
   10AU     LIG 5540  30.602  24.533   9.035
   10AU     LIG 5541  30.787  24.448   9.467
   10AU       S 5542  31.245  26.527   7.849
   10AU     LIG 5543  31.473  26.122   7.881
   10AU     LIG 5544  31.636  25.815   8.212
   10AU     LIG 5545  31.811  25.522   8.554
   10AU     LIG 5546  32.093  25.235   8.818
   10AU     LIG 5547  32.424  24.872   8.868
   10AU     LIG 5548  32.771  24.524   8.879
   10AU    AUSL 5549  30.396  26.646   7.673
   10AU    AUSL 5550  30.498  26.924   8.244
   10AU     AUL 5551  30.415  26.634   8.020
   10AU       S 5552  30.494  26.189   7.904
   10AU     LIG 5553  30.330  25.762   7.874
   10AU     LIG 5554  30.212  25.295   7.940
   10AU     LIG 5555  30.096  24.843   8.079
   10AU     LIG 5556  29.817  24.477   8.244
   10AU     LIG 5557  29.645  24.031   8.200
   10AU     LIG 5558  29.589  23.588   8.357
   10AU       S 5559  30.164  26.834   8.352
   10AU     LIG 5560  29.803  26.435   8.362
   10AU     LIG 5561  29.478  26.142   8.483
   10AU     LIG 5562  29.266  25.815   8.750
   10AU     LIG 5563  29.029  25.526   9.047
   10AU     LIG 5564  28.890  25.395   9.477
   10AU     LIG 5565  28.862  25.161   9.891
   10AU    AUSL 5566  30.795  26.497   7.661
   10AU    AUSL 5567  30.506  26.582   7.277
   10AU     AUL 5568  30.330  26.418   7.544
   10AU       S 5569  30.550  26.243   7.171
   10AU     LIG 5570  30.170  26.051   7.230
   10AU     LIG 5571  30.071  25.612   7.115
   10AU     LIG 5572  30.047  25.168   6.909
   10AU     LIG 5573  29.849  24.721   6.809
   10AU     LIG 5574  29.654  24.265   6.742
   10AU     LIG 5575  29.666  23.806   6.584
   10AU       S 5576  30.750  26.356   7.764
   10AU     LIG 5577  30.783  25.890   7.631
   10AU     LIG 5578  30.715  25.430   7.786
   10AU     LIG 5579  30.645  25.013   8.018
   10AU     LIG 5580  30.622  24.570   8.157
   10AU     LIG 5581  30.908  24.224   8.305
   10AU     LIG 5582  31.100  23.794   8.284
   10AU    AUSL 5583  30.753  28.097   7.019
   10AU    AUSL 5584  31.060  27.837   7.267
   10AU     AUL 5585  31.090  28.156   7.021
   10AU       S 5586  30.787  28.455   6.845
   10AU     LIG 5587  30.960  28.617   6.482
   10AU     LIG 5588  31.162  28.997   6.352
   10AU     LIG 5589  31.224  29.415   6.150
   10AU     LIG 5590  31.203  29.661   5.730
   10AU     LIG 5591  31.084  30.023   5.434
   10AU     LIG 5592  31.197  30.396   5.173
   10AU       S 5593  31.442  27.867   6.933
   10AU     LIG 5594  31.773  28.298   6.821
   10AU     LIG 5595  32.111  28.425   6.500
   10AU     LIG 5596  32.361  28.676   6.175
   10AU     LIG 5597  32.546  29.120   6.078
   10AU     LIG 5598  32.724  29.578   6.037
   10AU     LIG 5599  33.067  29.924   5.956
   10AU    AUSL 5600  30.613  27.970   7.400
   10AU    AUSL 5601  30.556  27.738   7.052
   10AU     AUL 5602  30.487  28.228   7.124
   10AU       S 5603  30.850  28.546   7.086
   10AU     LIG 5604  30.914  28.976   6.851
   10AU     LIG 5605  30.946  29.400   6.626
   10AU     LIG 5606  30.666  29.803   6.562
   10AU     LIG 5607  30.443  30.229   6.479
   10AU     LIG 5608  30.339  30.674   6.318
   10AU     LIG 5609  30.157  31.139   6.376
   10AU       S 5610  30.425  28.050   6.686
   10AU     LIG 5611  30.373  28.226   6.277
   10AU     LIG 5612  30.090  28.398   5.934
   10AU     LIG 5613  30.021  28.547   5.466
   10AU     LIG 5614  29.982  28.782   5.044
   10AU     LIG 5615  29.808  29.036   4.675
   10AU     LIG 5616  29.446  29.300   4.530
   10AU    AUSL 5617  30.828  26.671   7.003
   10AU    AUSL 5618  30.394  26.975   7.352
   10AU     AUL 5619  30.487  26.647   6.962
   10AU       S 5620  30.051  26.592   7.196
   10AU     LIG 5621  29.742  26.321   7.361
   10AU     LIG 5622  29.434  26.079   7.084
   10AU     LIG 5623  29.130  25.847   6.772
   10AU     LIG 5624  28.848  25.606   6.462
   10AU     LIG 5625  28.473  25.381   6.241
   10AU     LIG 5626  28.155  25.004   6.220
   10AU       S 5627  30.728  26.254   6.972
   10AU     LIG 5628  30.381  26.020   6.758
   10AU     LIG 5629  30.329  25.571   6.677
   10AU     LIG 5630  30.443  25.133   6.559
   10AU     LIG 5631  30.459  24.851   6.174
   10AU     LIG 5632  30.451  24.635   5.745
   10AU     LIG 5633  30.419  24.348   5.365
   10AU    AUSL 5634  30.824  26.819   7.422
   10AU    AUSL 5635  30.949  27.049   7.093
   10AU     AUL 5636  31.008  26.540   7.205
   10AU       S 5637  30.675  26.249   7.277
   10AU     LIG 5638  30.592  25.754   7.162
   10AU     LIG 5639  30.534  25.296   7.070
   10AU     LIG 5640  30.672  24.857   6.949
   10AU     LIG 5641  30.961  24.490   6.839
   10AU     LIG 5642  31.190  24.114   6.654
   10AU     LIG 5643  31.253  23.630   6.637
   10AU       S 5644  31.243  26.584   6.814
   10AU     LIG 5645  31.094  26.270   6.540
   10AU     LIG 5646  31.299  25.978   6.232
   10AU     LIG 5647  31.497  25.675   5.925
   10AU     LIG 5648  31.664  25.324   5.663
   10AU     LIG 5649  31.983  25.108   5.410
   10AU     LIG 5650  32.029  25.006   4.944
   11POPC   NC3 5651  22.720  29.008   9.931
   11POPC   PO4 5652  23.140  29.462   9.565
   11POPC   GL1 5653  22.808  29.246   9.301
   11POPC   GL2 5654  22.517  29.431   9.162
   11POPC   C1A 5655  22.873  29.161   8.853
   11POPC   D2A 5656  23.077  29.334   8.496
   11POPC   C3A 5657  22.958  29.181   8.120
   11POPC   C4A 5658  23.017  29.163   7.682
   11POPC   C1B 5659  22.470  29.503   8.698
   11POPC   C2B 5660  22.627  29.540   8.283
   11POPC   C3B 5661  22.607  29.425   7.864
   11POPC   C4B 5662  22.730  29.500   7.402
   12POPC   NC3 5663  29.717  23.389   9.785
   12POPC   PO4 5664  29.921  22.754   9.498
   12POPC   GL1 5665  30.055  22.569   9.107
   12POPC   GL2 5666  29.840  22.854   8.990
   12POPC   C1A 5667  30.172  22.639   8.662
   12POPC   D2A 5668  29.894  22.771   8.319
   12POPC   C3A 5669  30.157  22.803   7.951
   12POPC   C4A 5670  30.146  23.200   7.705
   12POPC   C1B 5671  29.483  22.958   8.701
   12POPC   C2B 5672  29.425  23.054   8.258
   12POPC   C3B 5673  29.680  22.992   7.876
   12POPC   C4B 5674  29.671  23.184   7.452
   13POPC   NC3 5675  35.863  25.824   9.437
   13POPC   PO4 5676  36.312  26.215   9.788
   13POPC   GL1 5677  36.331  26.082   9.316
   13POPC   GL2 5678  36.037  26.096   9.047
   13POPC   C1A 5679  36.472  26.039   8.856
   13POPC   D2A 5680  36.172  26.006   8.499
   13POPC   C3A 5681  36.264  26.220   8.128
   13POPC   C4A 5682  36.166  26.024   7.760
   13POPC   C1B 5683  36.076  26.449   8.734
   13POPC   C2B 5684  36.086  26.669   8.326
   13POPC   C3B 5685  35.941  26.602   7.927
   13POPC   C4B 5686  35.801  26.398   7.533
   14POPC   NC3 5687  34.246  20.986   9.532
   14POPC   PO4 5688  33.774  21.442   9.566
   14POPC   GL1 5689  33.726  21.482   9.156
   14POPC   GL2 5690  34.038  21.279   9.126
   14POPC   C1A 5691  33.876  21.604   8.757
   14POPC   D2A 5692  33.902  21.295   8.458
   14POPC   C3A 5693  33.581  21.342   8.180
   14POPC   C4A 5694  33.777  21.545   7.832
   14POPC   C1B 5695  34.273  21.077   8.771
   14POPC   C2B 5696  34.229  20.903   8.328
   14POPC   C3B 5697  34.104  21.157   7.949
   14POPC   C4B 5698  34.043  21.099   7.489
   15POPC   NC3 5699  39.633   0.828   9.420
   15POPC   PO4 5700  38.970   0.982   9.474
   15POPC   GL1 5701  39.185   1.141   9.109
   15POPC   GL2 5702  38.913   1.369   9.050
   15POPC   C1A 5703  39.480   1.128   8.779
   15POPC   D2A 5704  39.486   1.325   8.371
   15POPC   C3A 5705  39.471   1.159   8.019
   15POPC   C4A 5706  39.487   1.285   7.593
   15POPC   C1B 5707  38.998   1.301   8.609
   15POPC   C2B 5708  38.971   1.341   8.163
   15POPC   C3B 5709  38.969   1.353   7.734
   15POPC   C4B 5710  38.916   1.179   7.332
   16POPC   NC3 5711   4.916  39.533   9.522
   16POPC   PO4 5712   4.557  38.958   9.505
   16POPC   GL1 5713   4.738  39.221   9.174
   16POPC   GL2 5714   5.089  39.274   9.108
   16POPC   C1A 5715   4.717  39.365   8.762
   16POPC   D2A 5716   4.871  39.154   8.441
   16POPC   C3A 5717   4.885  39.341   8.088
   16POPC   C4A 5718   4.846  39.134   7.744
   16POPC   C1B 5719   5.335  39.216   8.724
   16POPC   C2B 5720   5.353  39.004   8.364
   16POPC   C3B 5721   5.238  38.915   7.959
   16POPC   C4B 5722   5.324  39.326   7.807
   17POPC   NC3 5723  27.466   4.147   9.714
   17POPC   PO4 5724  27.846   4.600   9.681
   17POPC   GL1 5725  27.564   4.504   9.345
   17POPC   GL2 5726  27.595   4.766   9.113
   17POPC   C1A 5727  27.463   4.320   8.937
   17POPC   D2A 5728  27.339   4.529   8.572
   17POPC   C3A 5729  27.347   4.463   8.118
   17POPC   C4A 5730  27.314   4.218   7.731
   17POPC   C1B 5731  27.871   4.644   8.781
   17POPC   C2B 5732  27.857   4.645   8.345
   17POPC   C3B 5733  27.759   4.744   7.938
   17POPC   C4B 5734  28.073   4.595   7.676
   18POPC   NC3 5735  24.227  41.147   9.502
   18POPC   PO4 5736  24.535  41.665   9.479
   18POPC   GL1 5737  24.521  41.419   9.136
   18POPC   GL2 5738  24.889  41.335   9.126
   18POPC   C1A 5739  24.515  41.564   8.710
   18POPC   D2A 5740  24.409  41.405   8.309
   18POPC   C3A 5741  24.183  41.721   8.092
   18POPC   C4A 5742  24.252  41.963   7.719
   18POPC   C1B 5743  25.029  41.633   8.771
   18POPC   C2B 5744  24.855  41.781   8.344
   18POPC   C3B 5745  24.668  41.694   7.913
   18POPC   C4B 5746  24.391  41.331   7.791
   19POPC   NC3 5747   7.433  27.173   9.178
   19POPC   PO4 5748   7.574  27.795   9.494
   19POPC   GL1 5749   7.669  27.622   9.118
   19POPC   GL2 5750   7.314  27.682   9.057
   19POPC   C1A 5751   7.721  27.758   8.680
   19POPC   D2A 5752   7.499  27.781   8.302
   19POPC   C3A 5753   7.636  27.666   7.926
   19POPC   C4A 5754   7.515  27.991   7.690
   19POPC   C1B 5755   7.177  27.599   8.656
   19POPC   C2B 5756   6.948  27.436   8.294
   19POPC   C3B 5757   7.129  27.406   7.885
   19POPC   C4B 5758   7.117  27.080   7.584
   20POPC   NC3 5759   4.304   6.194   9.583
   20POPC   PO4 5760   4.162   6.830   9.721
   20POPC   GL1 5761   4.178   6.663   9.291
   20POPC   GL2 5762   4.443   6.859   9.138
   20POPC   C1A 5763   4.124   6.585   8.831
   20POPC   D2A 5764   3.992   6.389   8.451
   20POPC   C3A 5765   4.100   6.575   8.083
   20POPC   C4A 5766   3.921   6.738   7.697
   20POPC   C1B 5767   4.634   6.635   8.775
   20POPC   C2B 5768   4.522   6.333   8.465
   20POPC   C3B 5769   4.605   6.376   8.020
   20POPC   C4B 5770   4.548   6.602   7.610
   21POPC   NC3 5771  41.251  25.532   9.565
   21POPC   PO4 5772  41.656  24.936   9.552
   21POPC   GL1 5773  41.598  25.277   9.222
   21POPC   GL2 5774  41.319  25.232   8.983
   21POPC   C1A 5775  41.713  25.511   8.809
   21POPC   D2A 5776  41.505  25.595   8.391
   21POPC   C3A 5777  41.583  25.378   8.006
   21POPC   C4A 5778  41.309  25.052   7.818
   21POPC   C1B 5779  41.641  24.990   8.736
   21POPC   C2B 5780  41.749  24.689   8.392
   21POPC   C3B 5781  41.751  24.851   7.981
   21POPC   C4B 5782  41.786  25.103   7.584
   22POPC   NC3 5783   7.281  34.393   9.395
   22POPC   PO4 5784   7.590  35.036   9.494
   22POPC   GL1 5785   7.522  34.805   9.105
   22POPC   GL2 5786   7.208  34.779   8.980
   22POPC   C1A 5787   7.562  34.662   8.645
   22POPC   D2A 5788   7.324  34.710   8.256
   22POPC   C3A 5789   7.423  34.602   7.814
   22POPC   C4A 5790   7.725  34.363   7.493
   22POPC   C1B 5791   7.095  34.423   8.733
   22POPC   C2B 5792   7.151  34.186   8.358
   22POPC   C3B 5793   7.031  34.200   7.939
   22POPC   C4B 5794   7.222  34.186   7.535
   23POPC   NC3 5795  12.276  42.592   9.599
   23POPC   PO4 5796  12.039  41.956   9.694
   23POPC   GL1 5797  12.268  42.123   9.352
   23POPC   GL2 5798  12.010  42.366   9.234
   23POPC   C1A 5799  12.327  42.059   8.897
   23POPC   D2A 5800  12.579  42.139   8.513
   23POPC   C3A 5801  12.415  42.169   8.067
   23POPC   C4A 5802  12.260  42.435   7.707
   23POPC   C1B 5803  11.882  42.321   8.826
   23POPC   C2B 5804  12.042  42.138   8.449
   23POPC   C3B 5805  11.908  42.307   8.062
   23POPC   C4B 5806  11.744  42.636   7.809
   24POPC   NC3 5807   0.399  15.370   9.511
   24POPC   PO4 5808   0.474  14.739   9.307
   24POPC   GL1 5809   0.490  15.109   9.075
   24POPC   GL2 5810   0.151  15.268   9.085
   24POPC   C1A 5811   0.700  15.218   8.710
   24POPC   D2A 5812   0.591  15.078   8.334
   24POPC   C3A 5813   0.636  15.323   8.006
   24POPC   C4A 5814   0.343  15.080   7.799
   24POPC   C1B 5815   0.180  15.231   8.647
   24POPC   C2B 5816   0.112  15.254   8.231
   24POPC   C3B 5817   0.193  15.571   7.924
   24POPC   C4B 5818   0.181  15.470   7.508
   25POPC   NC3 5819  17.662  21.848   9.574
   25POPC   PO4 5820  17.023  21.946   9.512
   25POPC   GL1 5821  17.350  21.921   9.151
   25POPC   GL2 5822  17.688  22.110   9.140
   25POPC   C1A 5823  17.395  22.162   8.742
   25POPC   D2A 5824  17.587  22.046   8.344
   25POPC   C3A 5825  17.607  22.393   8.117
   25POPC   C4A 5826  17.385  22.584   7.761
   25POPC   C1B 5827  17.908  22.174   8.738
   25POPC   C2B 5828  18.087  22.001   8.345
   25POPC   C3B 5829  17.896  21.937   7.933
   25POPC   C4B 5830  17.493  22.056   7.746
   26POPC   NC3 5831  15.974  26.535   9.487
   26POPC   PO4 5832  15.754  27.196   9.536
   26POPC   GL1 5833  15.915  26.949   9.198
   26POPC   GL2 5834  15.641  26.725   9.109
   26POPC   C1A 5835  16.044  26.712   8.819
   26POPC   D2A 5836  15.763  26.686   8.474
   26POPC   C3A 5837  15.936  26.827   8.098
   26POPC   C4A 5838  16.005  26.650   7.716
   26POPC   C1B 5839  15.593  27.039   8.819
   26POPC   C2B 5840  15.642  27.169   8.412
   26POPC   C3B 5841  15.731  27.283   8.002
   26POPC   C4B 5842  16.171  27.276   7.842
   27POPC   NC3 5843  40.673  23.948   9.584
   27POPC   PO4 5844  40.479  23.381   9.184
   27POPC   GL1 5845  40.800  23.691   9.073
   27POPC   GL2 5846  40.771  24.043   9.088
   27POPC   C1A 5847  40.925  23.683   8.674
   27POPC   D2A 5848  40.637  23.658   8.318
   27POPC   C3A 5849  40.854  23.627   7.915
   27POPC   C4A 5850  40.797  23.606   7.428
   27POPC   C1B 5851  40.955  24.181   8.666
   27POPC   C2B 5852  40.927  24.086   8.219
   27POPC   C3B 5853  40.822  24.114   7.788
   27POPC   C4B 5854  41.066  24.014   7.411
   28POPC   NC3 5855   2.743  37.935   9.626
   28POPC   PO4 5856   2.604  37.344   9.757
   28POPC   GL1 5857   2.528  37.531   9.340
   28POPC   GL2 5858   2.860  37.607   9.268
   28POPC   C1A 5859   2.476  37.659   8.901
   28POPC   D2A 5860   2.580  37.538   8.484
   28POPC   C3A 5861   2.672  37.797   8.119
   28POPC   C4A 5862   2.565  38.058   7.769
   28POPC   C1B 5863   3.003  37.505   8.883
   28POPC   C2B 5864   3.103  37.628   8.490
   28POPC   C3B 5865   3.179  37.670   8.092
   28POPC   C4B 5866   3.057  37.923   7.741
   29POPC   NC3 5867  35.195  25.144   9.738
   29POPC   PO4 5868  34.978  25.741   9.557
   29POPC   GL1 5869  35.038  25.341   9.273
   29POPC   GL2 5870  35.388  25.178   9.244
   29POPC   C1A 5871  35.130  25.274   8.810
   29POPC   D2A 5872  35.110  25.472   8.402
   29POPC   C3A 5873  35.215  25.287   8.023
   29POPC   C4A 5874  35.186  25.133   7.621
   29POPC   C1B 5875  35.536  24.973   8.834
   29POPC   C2B 5876  35.650  25.089   8.408
   29POPC   C3B 5877  35.563  24.932   7.987
   29POPC   C4B 5878  35.605  24.851   7.545
   30POPC   NC3 5879  34.912   8.772   9.439
   30POPC   PO4 5880  34.254   8.643   9.625
   30POPC   GL1 5881  34.351   8.856   9.178
   30POPC   GL2 5882  34.595   8.666   9.072
   30POPC   C1A 5883  34.514   8.965   8.708
   30POPC   D2A 5884  34.728   9.000   8.309
   30POPC   C3A 5885  34.451   9.122   7.986
   30POPC   C4A 5886  34.321   8.934   7.614
   30POPC   C1B 5887  34.775   8.483   8.670
   30POPC   C2B 5888  34.804   8.483   8.245
   30POPC   C3B 5889  34.584   8.580   7.870
   30POPC   C4B 5890  34.749   8.676   7.432
   31POPC   NC3 5891  44.764   6.328   9.931
   31POPC   PO4 5892  44.641   5.764   9.595
   31POPC   GL1 5893  44.882   5.888   9.241
   31POPC   GL2 5894  44.829   6.216   9.128
   31POPC   C1A 5895  44.970   5.769   8.797
   31POPC   D2A 5896  44.805   5.989   8.412
   31POPC   C3A 5897  44.863   5.728   8.043
   31POPC   C4A 5898  44.917   5.801   7.597
   31POPC   C1B 5899  44.516   5.974   8.866
   31POPC   C2B 5900  44.349   5.687   8.525
   31POPC   C3B 5901  44.358   5.725   8.075
   31POPC   C4B 5902  44.123   5.834   7.704
   32POPC   NC3 5903  27.080  11.406   9.319
   32POPC   PO4 5904  26.817  11.989   9.589
   32POPC   GL1 5905  26.632  12.073   9.190
   32POPC   GL2 5906  26.687  11.736   9.094
   32POPC   C1A 5907  26.548  12.352   8.825
   32POPC   D2A 5908  26.706  12.368   8.391
   32POPC   C3A 5909  26.903  12.088   8.115
   32POPC   C4A 5910  26.765  12.240   7.746
   32POPC   C1B 5911  26.551  11.861   8.677
   32POPC   C2B 5912  26.606  11.700   8.278
   32POPC   C3B 5913  26.658  11.718   7.842
   32POPC   C4B 5914  26.964  11.797   7.512
   33POPC   NC3 5915  14.919   2.570   9.440
   33POPC   PO4 5916  15.375   3.178   9.583
   33POPC   GL1 5917  15.316   2.873   9.246
   33POPC   GL2 5918  14.997   2.930   9.092
   33POPC   C1A 5919  15.292   2.590   8.860
   33POPC   D2A 5920  15.218   2.734   8.423
   33POPC   C3A 5921  15.118   2.593   8.006
   33POPC   C4A 5922  15.301   2.748   7.592
   33POPC   C1B 5923  14.804   2.714   8.745
   33POPC   C2B 5924  14.721   2.953   8.395
   33POPC   C3B 5925  14.789   3.012   8.006
   33POPC   C4B 5926  14.817   2.814   7.644
   34POPC   NC3 5927  39.644  13.031   9.465
   34POPC   PO4 5928  39.192  12.465   9.486
   34POPC   GL1 5929  39.419  12.681   9.174
   34POPC   GL2 5930  39.210  12.964   9.162
   34POPC   C1A 5931  39.494  12.815   8.726
   34POPC   D2A 5932  39.644  12.811   8.308
   34POPC   C3A 5933  39.286  12.877   8.087
   34POPC   C4A 5934  39.180  13.154   7.729
   34POPC   C1B 5935  39.013  12.691   8.831
   34POPC   C2B 5936  38.957  12.978   8.495
   34POPC   C3B 5937  38.836  13.088   8.106
   34POPC   C4B 5938  38.846  12.793   7.813
   35POPC   NC3 5939  30.813   7.344   9.544
   35POPC   PO4 5940  30.199   7.562   9.554
   35POPC   GL1 5941  30.510   7.571   9.198
   35POPC   GL2 5942  30.609   7.190   9.098
   35POPC   C1A 5943  30.543   7.572   8.753
   35POPC   D2A 5944  30.683   7.256   8.465
   35POPC   C3A 5945  30.597   7.311   8.033
   35POPC   C4A 5946  30.383   7.431   7.684
   35POPC   C1B 5947  30.991   7.354   8.884
   35POPC   C2B 5948  31.039   7.606   8.505
   35POPC   C3B 5949  31.055   7.544   8.074
   35POPC   C4B 5950  31.121   7.464   7.646
   36POPC   NC3 5951  30.831   0.093   9.602
   36POPC   PO4 5952  30.546  44.555   9.450
   36POPC   GL1 5953  30.630  44.865   9.147
   36POPC   GL2 5954  30.754   0.216   9.117
   36POPC   C1A 5955  30.795  44.894   8.725
   36POPC   D2A 5956  31.019  44.903   8.355
   36POPC   C3A 5957  30.835  44.562   8.123
   36POPC   C4A 5958  30.586  44.451   7.775
   36POPC   C1B 5959  30.371   0.169   8.846
   36POPC   C2B 5960  30.332  44.966   8.443
   36POPC   C3B 5961  30.584   0.040   8.043
   36POPC   C4B 5962  31.026   0.069   7.867
   37POPC   NC3 5963  26.865  39.621   9.793
   37POPC   PO4 5964  27.325  40.242   9.648
   37POPC   GL1 5965  26.986  40.275   9.217
   37POPC   GL2 5966  26.681  40.196   9.065
   37POPC   C1A 5967  26.996  39.956   8.787
   37POPC   D2A 5968  26.819  39.769   8.387
   37POPC   C3A 5969  26.906  39.921   7.962
   37POPC   C4A 5970  26.775  39.848   7.529
   37POPC   C1B 5971  26.487  39.890   8.763
   37POPC   C2B 5972  26.325  40.035   8.380
   37POPC   C3B 5973  26.592  40.293   8.134
   37POPC   C4B 5974  26.676  40.334   7.673
   38POPC   NC3 5975  24.940   9.923   9.637
   38POPC   PO4 5976  25.135   9.327   9.472
   38POPC   GL1 5977  25.142   9.481   9.082
   38POPC   GL2 5978  24.902   9.745   9.129
   38POPC   C1A 5979  25.419   9.598   8.728
   38POPC   D2A 5980  25.389   9.840   8.367
   38POPC   C3A 5981  25.481   9.665   7.983
   38POPC   C4A 5982  25.676   9.402   7.695
   38POPC   C1B 5983  24.936   9.723   8.673
   38POPC   C2B 5984  24.898  10.008   8.352
   38POPC   C3B 5985  25.099  10.040   7.962
   38POPC   C4B 5986  25.262   9.902   7.570
   39POPC   NC3 5987   6.938  19.609   9.507
   39POPC   PO4 5988   6.336  19.963   9.543
   39POPC   GL1 5989   6.716  20.052   9.312
   39POPC   GL2 5990   6.645  19.745   9.120
   39POPC   C1A 5991   6.873  20.129   8.883
   39POPC   D2A 5992   6.694  19.901   8.549
   39POPC   C3A 5993   6.907  19.959   8.177
   39POPC   C4A 5994   6.871  19.981   7.732
   39POPC   C1B 5995   6.371  19.589   8.832
   39POPC   C2B 5996   6.411  19.498   8.371
   39POPC   C3B 5997   6.503  19.698   7.958
   39POPC   C4B 5998   6.167  19.807   7.614
   40POPC   NC3 5999  35.310  44.053   9.576
   40POPC   PO4 6000  35.190  43.508   9.160
   40POPC   GL1 6001  35.395  43.911   9.094
   40POPC   GL2 6002  35.066  44.106   9.141
   40POPC   C1A 6003  35.634  43.960   8.708
   40POPC   D2A 6004  35.483  43.668   8.406
   40POPC   C3A 6005  35.279  43.754   8.015
   40POPC   C4A 6006  35.505  43.999   7.739
   40POPC   C1B 6007  35.093  43.978   8.703
   40POPC   C2B 6008  35.257  44.154   8.364
   40POPC   C3B 6009  35.121  44.244   7.959
   40POPC   C4B 6010  34.995  43.989   7.602
   41POPC   NC3 6011   1.202  30.113   9.690
   41POPC   PO4 6012   1.010  30.617   9.684
   41POPC   GL1 6013   1.114  30.355   9.245
   41POPC   GL2 6014   1.030  29.980   9.213
   41POPC   C1A 6015   1.208  30.192   8.788
   41POPC   D2A 6016   1.046  30.061   8.359
   41POPC   C3A 6017   1.316  30.002   7.977
   41POPC   C4A 6018   1.495  29.727   7.618
   41POPC   C1B 6019   1.080  29.697   8.825
   41POPC   C2B 6020   1.177  29.556   8.391
   41POPC   C3B 6021   1.105  29.542   7.935
   41POPC   C4B 6022   1.162  29.332   7.526
   42POPC   NC3 6023   9.298  26.248   9.453
   42POPC   PO4 6024   9.860  25.987   9.654
   42POPC   GL1 6025   9.769  26.048   9.198
   42POPC   GL2 6026   9.491  26.225   8.991
   42POPC   C1A 6027   9.931  26.097   8.775
   42POPC   D2A 6028   9.746  26.276   8.406
   42POPC   C3A 6029   9.981  26.190   8.058
   42POPC   C4A 6030   9.934  25.951   7.684
   42POPC   C1B 6031   9.311  26.427   8.636
   42POPC   C2B 6032   9.267  26.231   8.220
   42POPC   C3B 6033   9.507  26.175   7.864
   42POPC   C4B 6034   9.475  26.431   7.521
   43POPC   NC3 6035   7.899   1.682   9.392
   43POPC   PO4 6036   8.433   1.233   9.560
   43POPC   GL1 6037   8.198   1.281   9.195
   43POPC   GL2 6038   8.324   1.603   9.136
   43POPC   C1A 6039   8.053   1.100   8.800
   43POPC   D2A 6040   8.261   1.022   8.402
   43POPC   C3A 6041   8.013   1.067   8.025
   43POPC   C4A 6042   8.148   1.180   7.629
   43POPC   C1B 6043   8.346   1.503   8.733
   43POPC   C2B 6044   8.561   1.454   8.405
   43POPC   C3B 6045   8.386   1.455   7.991
   43POPC   C4B 6046   8.454   1.554   7.539
   44POPC   NC3 6047   6.178   9.367   9.568
   44POPC   PO4 6048   5.547   9.651   9.352
   44POPC   GL1 6049   5.933   9.755   9.160
   44POPC   GL2 6050   6.257   9.561   9.099
   44POPC   C1A 6051   6.011   9.838   8.726
   44POPC   D2A 6052   5.889   9.630   8.349
   44POPC   C3A 6053   5.792   9.960   8.090
   44POPC   C4A 6054   5.449   9.991   7.838
   44POPC   C1B 6055   6.065   9.337   8.743
   44POPC   C2B 6056   6.184   9.215   8.304
   44POPC   C3B 6057   6.076   9.413   7.878
   44POPC   C4B 6058   5.886   9.749   7.645
   45POPC   NC3 6059  36.331  31.544   9.535
   45POPC   PO4 6060  35.665  31.766   9.476
   45POPC   GL1 6061  35.947  31.587   9.195
   45POPC   GL2 6062  35.944  31.225   9.225
   45POPC   C1A 6063  36.332  31.692   8.898
   45POPC   D2A 6064  36.261  31.773   8.456
   45POPC   C3A 6065  36.289  31.481   8.107
   45POPC   C4A 6066  36.152  31.665   7.733
   45POPC   C1B 6067  36.023  31.319   8.787
   45POPC   C2B 6068  35.850  31.448   8.404
   45POPC   C3B 6069  35.778  31.401   7.981
   45POPC   C4B 6070  35.787  31.350   7.543
   46POPC   NC3 6071  28.214  38.568   9.495
   46POPC   PO4 6072  28.183  39.160   9.597
   46POPC   GL1 6073  28.025  39.166   9.166
   46POPC   GL2 6074  27.975  39.526   9.051
   46POPC   C1A 6075  27.958  39.147   8.699
   46POPC   D2A 6076  28.098  39.407   8.337
   46POPC   C3A 6077  27.960  39.295   7.903
   46POPC   C4A 6078  28.048  39.341   7.451
   46POPC   C1B 6079  28.383  39.372   8.877
   46POPC   C2B 6080  28.488  39.106   8.526
   46POPC   C3B 6081  28.533  39.236   8.095
   46POPC   C4B 6082  28.419  39.112   7.700
   47POPC   NC3 6083  27.754  42.251   9.526
   47POPC   PO4 6084  27.182  41.868   9.243
   47POPC   GL1 6085  27.543  42.175   9.081
   47POPC   GL2 6086  27.970  42.301   9.100
   47POPC   C1A 6087  27.520  42.120   8.678
   47POPC   D2A 6088  27.594  41.939   8.353
   47POPC   C3A 6089  27.441  42.223   8.088
   47POPC   C4A 6090  27.575  42.250   7.695
   47POPC   C1B 6091  28.022  42.207   8.751
   47POPC   C2B 6092  27.928  42.331   8.379
   47POPC   C3B 6093  27.883  42.489   8.018
   47POPC   C4B 6094  27.833  42.666   7.602
   48POPC   NC3 6095  12.738   4.325   9.471
   48POPC   PO4 6096  13.323   4.393   9.718
   48POPC   GL1 6097  13.135   4.355   9.172
   48POPC   GL2 6098  12.862   4.634   9.082
   48POPC   C1A 6099  13.054   4.205   8.732
   48POPC   D2A 6100  13.250   4.299   8.303
   48POPC   C3A 6101  13.113   4.008   7.976
   48POPC   C4A 6102  12.737   4.064   7.721
   48POPC   C1B 6103  12.883   4.669   8.623
   48POPC   C2B 6104  12.759   4.466   8.221
   48POPC   C3B 6105  12.986   4.509   7.835
   48POPC   C4B 6106  12.956   4.730   7.413
   49POPC   NC3 6107  13.015  17.073   9.401
   49POPC   PO4 6108  12.705  17.694   9.404
   49POPC   GL1 6109  13.116  17.583   9.223
   49POPC   GL2 6110  13.333  17.869   9.129
   49POPC   C1A 6111  13.167  17.446   8.798
   49POPC   D2A 6112  12.906  17.313   8.459
   49POPC   C3A 6113  12.893  17.491   8.033
   49POPC   C4A 6114  12.666  17.384   7.638
   49POPC   C1B 6115  12.997  17.938   8.788
   49POPC   C2B 6116  12.747  17.854   8.410
   49POPC   C3B 6117  12.656  17.946   7.968
   49POPC   C4B 6118  12.935  17.842   7.614
   50POPC   NC3 6119  10.248  11.058   9.442
   50POPC   PO4 6120  10.809  11.459   9.616
   50POPC   GL1 6121  10.553  11.384   9.177
   50POPC   GL2 6122  10.379  11.116   8.974
   50POPC   C1A 6123  10.346  11.630   8.819
   50POPC   D2A 6124  10.228  11.699   8.366
   50POPC   C3A 6125  10.478  11.612   7.998
   50POPC   C4A 6126  10.453  11.267   7.726
   50POPC   C1B 6127  10.564  11.213   8.611
   50POPC   C2B 6128  10.685  11.203   8.211
   50POPC   C3B 6129  10.965  10.991   7.980
   50POPC   C4B 6130  10.939  11.179   7.592
   51POPC   NC3 6131  30.949  42.186   9.297
   51POPC   PO4 6132  30.759  42.729   9.532
   51POPC   GL1 6133  30.584  42.532   9.121
   51POPC   GL2 6134  30.468  42.153   9.083
   51POPC   C1A 6135  30.376  42.483   8.714
   51POPC   D2A 6136  30.565  42.271   8.345
   51POPC   C3A 6137  30.493  42.402   7.951
   51POPC   C4A 6138  30.900  42.377   7.778
   51POPC   C1B 6139  30.728  41.986   8.724
   51POPC   C2B 6140  30.910  41.876   8.332
   51POPC   C3B 6141  30.702  41.932   7.936
   51POPC   C4B 6142  30.752  41.975   7.481
   52POPC   NC3 6143  21.715  16.932   9.530
   52POPC   PO4 6144  22.341  16.593   9.429
   52POPC   GL1 6145  22.049  16.745   9.157
   52POPC   GL2 6146  22.336  17.013   9.089
   52POPC   C1A 6147  21.864  16.608   8.758
   52POPC   D2A 6148  21.834  16.847   8.365
   52POPC   C3A 6149  22.049  16.776   7.953
   52POPC   C4A 6150  21.987  16.725   7.497
   52POPC   C1B 6151  22.387  16.675   8.773
   52POPC   C2B 6152  22.267  16.534   8.369
   52POPC   C3B 6153  22.464  16.441   7.969
   52POPC   C4B 6154  22.468  16.738   7.630
   53POPC   NC3 6155  27.019  42.820   9.654
   53POPC   PO4 6156  26.412  43.097   9.571
   53POPC   GL1 6157  26.634  42.900   9.225
   53POPC   GL2 6158  27.012  42.866   9.158
   53POPC   C1A 6159  26.694  42.864   8.771
   53POPC   D2A 6160  26.567  43.051   8.422
   53POPC   C3A 6161  26.675  42.935   8.010
   53POPC   C4A 6162  26.697  43.300   7.746
   53POPC   C1B 6163  27.218  42.911   8.736
   53POPC   C2B 6164  27.093  42.973   8.320
   53POPC   C3B 6165  27.148  43.119   7.883
   53POPC   C4B 6166  26.914  42.896   7.540
   54POPC   NC3 6167   9.575   9.332   9.389
   54POPC   PO4 6168   9.866   8.699   9.439
   54POPC   GL1 6169   9.713   8.798   8.995
   54POPC   GL2 6170   9.641   9.152   8.933
   54POPC   C1A 6171   9.888   8.909   8.578
   54POPC   D2A 6172   9.696   9.170   8.281
   54POPC   C3A 6173   9.399   8.908   8.091
   54POPC   C4A 6174   9.750   8.687   7.913
   54POPC   C1B 6175   9.548   9.500   8.660
   54POPC   C2B 6176   9.544   9.644   8.223
   54POPC   C3B 6177   9.364   9.441   7.885
   54POPC   C4B 6178   9.614   9.148   7.713
   55POPC   NC3 6179  37.960  20.362   9.635
   55POPC   PO4 6180  38.590  20.380   9.671
   55POPC   GL1 6181  38.470  20.540   9.282
   55POPC   GL2 6182  38.197  20.360   9.164
   55POPC   C1A 6183  38.587  20.479   8.843
   55POPC   D2A 6184  38.377  20.547   8.462
   55POPC   C3A 6185  38.574  20.528   8.073
   55POPC   C4A 6186  38.386  20.779   7.729
   55POPC   C1B 6187  38.121  20.207   8.771
   55POPC   C2B 6188  37.889  20.395   8.418
   55POPC   C3B 6189  38.052  20.495   8.008
   55POPC   C4B 6190  38.186  20.255   7.635
   56POPC   NC3 6191   8.660  35.942   9.672
   56POPC   PO4 6192   9.276  36.126   9.613
   56POPC   GL1 6193   9.043  36.292   9.219
   56POPC   GL2 6194   8.671  36.349   9.308
   56POPC   C1A 6195   9.259  36.503   8.837
   56POPC   D2A 6196   9.200  36.615   8.377
   56POPC   C3A 6197   9.047  36.233   8.152
   56POPC   C4A 6198   8.964  35.932   7.785
   56POPC   C1B 6199   8.504  36.227   8.910
   56POPC   C2B 6200   8.597  36.197   8.472
   56POPC   C3B 6201   8.558  36.121   8.025
   56POPC   C4B 6202   8.521  36.084   7.548
   57POPC   NC3 6203  44.689   7.883   9.477
   57POPC   PO4 6204  44.295   8.397   9.433
   57POPC   GL1 6205  44.593   8.240   9.132
   57POPC   GL2 6206  44.418   7.918   9.059
   57POPC   C1A 6207  44.822   8.351   8.732
   57POPC   D2A 6208  44.772   8.181   8.298
   57POPC   C3A 6209  44.815   8.396   7.931
   57POPC   C4A 6210  44.848   8.403   7.462
   57POPC   C1B 6211  44.549   7.885   8.653
   57POPC   C2B 6212  44.336   7.919   8.259
   57POPC   C3B 6213  44.562   7.899   7.905
   57POPC   C4B 6214  44.989   7.957   7.768
   58POPC   NC3 6215  42.610  14.949   9.324
   58POPC   PO4 6216  42.107  15.357   9.511
   58POPC   GL1 6217  42.099  15.061   9.148
   58POPC   GL2 6218  42.388  15.131   8.922
   58POPC   C1A 6219  41.975  14.986   8.711
   58POPC   D2A 6220  42.137  15.214   8.362
   58POPC   C3A 6221  42.284  15.107   7.960
   58POPC   C4A 6222  42.151  15.073   7.553
   58POPC   C1B 6223  42.508  15.440   8.602
   58POPC   C2B 6224  42.626  15.410   8.186
   58POPC   C3B 6225  42.681  15.729   7.882
   58POPC   C4B 6226  42.682  15.754   7.427
   59POPC   NC3 6227  16.183  22.739   9.371
   59POPC   PO4 6228  15.861  23.384   9.636
   59POPC   GL1 6229  15.963  23.208   9.243
   59POPC   GL2 6230  16.263  23.237   9.249
   59POPC   C1A 6231  15.788  23.068   8.817
   59POPC   D2A 6232  16.000  22.887   8.459
   59POPC   C3A 6233  15.761  22.886   8.060
   59POPC   C4A 6234  15.704  23.219   7.803
   59POPC   C1B 6235  16.281  23.212   8.820
   59POPC   C2B 6236  16.343  23.350   8.398
   59POPC   C3B 6237  16.254  23.101   8.046
   59POPC   C4B 6238  16.580  22.990   7.724
   60POPC   NC3 6239  40.977  15.194   9.405
   60POPC   PO4 6240  40.777  15.739   9.720
   60POPC   GL1 6241  40.683  15.584   9.219
   60POPC   GL2 6242  40.654  15.223   9.042
   60POPC   C1A 6243  40.759  15.591   8.737
   60POPC   D2A 6244  40.641  15.205   8.485
   60POPC   C3A 6245  40.600  15.292   8.039
   60POPC   C4A 6246  40.886  15.555   7.758
   60POPC   C1B 6247  40.970  14.957   8.794
   60POPC   C2B 6248  41.031  14.802   8.374
   60POPC   C3B 6249  40.933  14.895   7.944
   60POPC   C4B 6250  41.005  14.610   7.621
   61POPC   NC3 6251  13.984  36.752   9.925
   61POPC   PO4 6252  13.460  36.936   9.547
   61POPC   GL1 6253  13.592  37.022   9.130
   61POPC   GL2 6254  13.828  36.770   9.052
   61POPC   C1A 6255  13.430  37.061   8.702
   61POPC   D2A 6256  13.439  36.825   8.311
   61POPC   C3A 6257  13.273  36.989   7.951
   61POPC   C4A 6258  13.226  36.861   7.503
   61POPC   C1B 6259  13.868  36.814   8.589
   61POPC   C2B 6260  13.920  36.794   8.121
   61POPC   C3B 6261  13.694  36.746   7.744
   61POPC   C4B 6262  13.748  36.519   7.331
   62POPC   NC3 6263  41.409  10.290   9.480
   62POPC   PO4 6264  42.001  10.295   9.426
   62POPC   GL1 6265  41.749  10.501   9.130
   62POPC   GL2 6266  41.570  10.783   9.220
   62POPC   C1A 6267  41.628  10.413   8.729
   62POPC   D2A 6268  41.611  10.699   8.401
   62POPC   C3A 6269  41.646  10.476   8.028
   62POPC   C4A 6270  41.801  10.443   7.640
   62POPC   C1B 6271  41.425  10.959   8.835
   62POPC   C2B 6272  41.185  11.048   8.443
   62POPC   C3B 6273  41.112  10.880   8.027
   62POPC   C4B 6274  41.413  10.781   7.722
   63POPC   NC3 6275  38.672  34.048   9.586
   63POPC   PO4 6276  38.106  33.722   9.602
   63POPC   GL1 6277  38.218  33.746   9.175
   63POPC   GL2 6278  38.429  34.037   9.148
   63POPC   C1A 6279  38.219  33.863   8.716
   63POPC   D2A 6280  38.254  33.834   8.298
   63POPC   C3A 6281  38.180  33.716   7.898
   63POPC   C4A 6282  38.584  33.595   7.681
   63POPC   C1B 6283  38.659  33.726   8.881
   63POPC   C2B 6284  38.764  33.797   8.419
   63POPC   C3B 6285  38.640  33.993   8.014
   63POPC   C4B 6286  38.245  34.205   7.828
   64POPC   NC3 6287  39.095  32.140   9.512
   64POPC   PO4 6288  39.734  32.189   9.306
   64POPC   GL1 6289  39.417  32.028   9.100
   64POPC   GL2 6290  39.289  32.355   9.070
   64POPC   C1A 6291  39.381  32.045   8.667
   64POPC   D2A 6292  39.323  32.382   8.401
   64POPC   C3A 6293  39.490  32.304   7.992
   64POPC   C4A 6294  39.294  32.463   7.646
   64POPC   C1B 6295  38.932  32.079   8.910
   64POPC   C2B 6296  38.898  31.956   8.499
   64POPC   C3B 6297  39.009  32.087   8.107
   64POPC   C4B 6298  38.944  32.091   7.686
   65POPC   NC3 6299  12.092   8.454   9.552
   65POPC   PO4 6300  12.458   8.018   9.198
   65POPC   GL1 6301  12.049   8.209   9.048
   65POPC   GL2 6302  11.935   8.586   9.100
   65POPC   C1A 6303  12.017   8.141   8.597
   65POPC   D2A 6304  12.309   8.270   8.261
   65POPC   C3A 6305  12.191   8.210   7.839
   65POPC   C4A 6306  12.010   7.935   7.628
   65POPC   C1B 6307  11.802   8.614   8.722
   65POPC   C2B 6308  11.879   8.534   8.320
   65POPC   C3B 6309  11.998   8.650   7.962
   65POPC   C4B 6310  11.949   8.558   7.508
   66POPC   NC3 6311  27.071  30.926   9.561
   66POPC   PO4 6312  26.640  30.363   9.493
   66POPC   GL1 6313  26.748  30.676   9.192
   66POPC   GL2 6314  27.071  30.629   9.122
   66POPC   C1A 6315  26.778  30.790   8.744
   66POPC   D2A 6316  26.721  30.398   8.463
   66POPC   C3A 6317  26.679  30.442   8.014
   66POPC   C4A 6318  26.861  30.770   7.784
   66POPC   C1B 6319  27.179  30.479   8.712
   66POPC   C2B 6320  27.116  30.651   8.278
   66POPC   C3B 6321  27.232  30.468   7.883
   66POPC   C4B 6322  27.203  30.547   7.448
   67POPC   NC3 6323  12.358  27.481   9.521
   67POPC   PO4 6324  11.728  27.389   9.419
   67POPC   GL1 6325  12.069  27.405   9.100
   67POPC   GL2 6326  12.358  27.154   9.121
   67POPC   C1A 6327  12.125  27.591   8.697
   67POPC   D2A 6328  11.951  27.535   8.285
   67POPC   C3A 6329  12.106  27.780   7.929
   67POPC   C4A 6330  11.928  27.745   7.503
   67POPC   C1B 6331  12.557  27.232   8.740
   67POPC   C2B 6332  12.424  27.360   8.319
   67POPC   C3B 6333  12.380  27.356   7.879
   67POPC   C4B 6334  12.707  27.211   7.598
   68POPC   NC3 6335  44.762  15.840   9.543
   68POPC   PO4 6336  44.211  15.703   9.409
   68POPC   GL1 6337  44.465  15.749   9.043
   68POPC   GL2 6338  44.674  15.508   9.129
   68POPC   C1A 6339  44.479  15.714   8.551
   68POPC   D2A 6340  44.173  15.787   8.181
   68POPC   C3A 6341  44.296  15.880   7.745
   68POPC   C4A 6342  44.583  16.153   7.459
   68POPC   C1B 6343  44.953  15.678   8.844
   68POPC   C2B 6344  44.982  15.710   8.408
   68POPC   C3B 6345  44.705  15.666   8.060
   68POPC   C4B 6346  44.771  15.718   7.632
   69POPC   NC3 6347  32.843  19.625   9.276
   69POPC   PO4 6348  33.274  19.997   9.552
   69POPC   GL1 6349  33.167  20.016   9.081
   69POPC   GL2 6350  32.853  20.153   9.040
   69POPC   C1A 6351  32.958  19.826   8.658
   69POPC   D2A 6352  32.960  19.616   8.234
   69POPC   C3A 6353  33.248  19.799   7.879
   69POPC   C4A 6354  33.191  19.797   7.421
   69POPC   C1B 6355  32.542  20.148   8.683
   69POPC   C2B 6356  32.618  20.010   8.227
   69POPC   C3B 6357  32.758  19.898   7.762
   69POPC   C4B 6358  32.854  20.157   7.378
   70POPC   NC3 6359   8.196   7.731   9.631
   70POPC   PO4 6360   8.315   7.027   9.441
   70POPC   GL1 6361   8.102   7.240   9.143
   70POPC   GL2 6362   8.033   7.580   9.190
   70POPC   C1A 6363   8.292   7.259   8.763
   70POPC   D2A 6364   8.321   7.072   8.392
   70POPC   C3A 6365   8.466   7.434   8.200
   70POPC   C4A 6366   8.389   7.378   7.802
   70POPC   C1B 6367   7.844   7.518   8.795
   70POPC   C2B 6368   7.944   7.428   8.383
   70POPC   C3B 6369   7.977   7.627   8.002
   70POPC   C4B 6370   7.948   7.468   7.596
   71POPC   NC3 6371  32.604   3.269   9.339
   71POPC   PO4 6372  33.125   3.700   9.510
   71POPC   GL1 6373  33.083   3.493   9.113
   71POPC   GL2 6374  32.790   3.632   9.017
   71POPC   C1A 6375  33.180   3.611   8.666
   71POPC   D2A 6376  33.190   3.824   8.261
   71POPC   C3A 6377  32.814   3.798   7.974
   71POPC   C4A 6378  32.697   3.724   7.531
   71POPC   C1B 6379  32.823   3.257   8.739
   71POPC   C2B 6380  32.779   3.369   8.330
   71POPC   C3B 6381  33.123   3.343   8.117
   71POPC   C4B 6382  33.136   3.462   7.739
   72POPC   NC3 6383  44.737  37.509   9.772
   72POPC   PO4 6384  44.567  38.099   9.496
   72POPC   GL1 6385  44.615  37.838   9.160
   72POPC   GL2 6386  44.742  37.499   9.227
   72POPC   C1A 6387  44.822  37.820   8.766
   72POPC   D2A 6388  44.878  37.561   8.394
   72POPC   C3A 6389  44.804  37.805   8.013
   72POPC   C4A 6390  44.807  38.087   7.668
   72POPC   C1B 6391  44.494  37.448   8.818
   72POPC   C2B 6392  44.366  37.590   8.410
   72POPC   C3B 6393  44.401  37.498   7.973
   72POPC   C4B 6394  44.389  37.783   7.623
   73POPC   NC3 6395  23.165   9.596   9.526
   73POPC   PO4 6396  22.602   9.864   9.493
   73POPC   GL1 6397  22.843   9.756   9.153
   73POPC   GL2 6398  23.135   9.994   9.194
   73POPC   C1A 6399  22.685   9.600   8.760
   73POPC   D2A 6400  22.844   9.537   8.336
   73POPC   C3A 6401  22.880   9.873   8.055
   73POPC   C4A 6402  22.636   9.884   7.695
   73POPC   C1B 6403  23.159   9.819   8.753
   73POPC   C2B 6404  23.331   9.955   8.355
   73POPC   C3B 6405  23.327  10.107   7.940
   73POPC   C4B 6406  23.273  10.071   7.475
   74POPC   NC3 6407  16.340  41.017   9.413
   74POPC   PO4 6408  15.791  40.720   9.688
   74POPC   GL1 6409  15.917  40.634   9.278
   74POPC   GL2 6410  15.624  40.539   9.104
   74POPC   C1A 6411  16.063  40.580   8.846
   74POPC   D2A 6412  16.012  40.831   8.468
   74POPC   C3A 6413  16.110  40.695   8.029
   74POPC   C4A 6414  16.249  40.964   7.687
   74POPC   C1B 6415  15.592  40.888   8.820
   74POPC   C2B 6416  15.507  40.868   8.380
   74POPC   C3B 6417  15.700  40.981   8.004
   74POPC   C4B 6418  15.766  40.755   7.634
   75POPC   NC3 6419   8.578   6.373   9.513
   75POPC   PO4 6420   9.141   6.775   9.504
   75POPC   GL1 6421   8.956   6.563   9.199
   75POPC   GL2 6422   9.091   6.285   9.304
   75POPC   C1A 6423   8.823   6.562   8.783
   75POPC   D2A 6424   8.774   6.873   8.513
   75POPC   C3A 6425   8.858   6.684   8.136
   75POPC   C4A 6426   8.945   6.607   7.726
   75POPC   C1B 6427   9.201   6.236   8.869
   75POPC   C2B 6428   9.027   6.166   8.444
   75POPC   C3B 6429   9.186   6.267   8.027
   75POPC   C4B 6430   9.168   6.170   7.570
   76POPC   NC3 6431  43.779  23.401   9.383
   76POPC   PO4 6432  44.229  23.859   9.499
   76POPC   GL1 6433  44.048  23.763   9.097
   76POPC   GL2 6434  44.152  23.434   9.023
   76POPC   C1A 6435  43.824  23.769   8.692
   76POPC   D2A 6436  43.630  23.563   8.313
   76POPC   C3A 6437  43.695  23.651   7.926
   76POPC   C4A 6438  43.454  23.801   7.641
   76POPC   C1B 6439  44.300  23.643   8.631
   76POPC   C2B 6440  44.092  23.766   8.231
   76POPC   C3B 6441  44.199  23.646   7.798
   76POPC   C4B 6442  44.214  23.792   7.349
   77POPC   NC3 6443  30.512  43.134   9.552
   77POPC   PO4 6444  31.135  43.246   9.685
   77POPC   GL1 6445  30.926  43.329   9.244
   77POPC   GL2 6446  30.836  43.010   9.126
   77POPC   C1A 6447  30.772  43.347   8.768
   77POPC   D2A 6448  30.901  43.177   8.392
   77POPC   C3A 6449  30.773  43.281   7.972
   77POPC   C4A 6450  30.711  43.614   7.668
   77POPC   C1B 6451  30.802  42.795   8.734
   77POPC   C2B 6452  30.571  42.791   8.362
   77POPC   C3B 6453  30.434  42.901   7.972
   77POPC   C4B 6454  30.699  42.807   7.601
   78POPC   NC3 6455  26.979   8.604   9.396
   78POPC   PO4 6456  26.346   8.919   9.222
   78POPC   GL1 6457  26.674   8.799   9.049
   78POPC   GL2 6458  26.907   9.027   9.141
   78POPC   C1A 6459  26.759   8.855   8.652
   78POPC   D2A 6460  26.639   9.193   8.426
   78POPC   C3A 6461  26.733   9.153   8.010
   78POPC   C4A 6462  26.869   8.877   7.739
   78POPC   C1B 6463  27.115   9.208   8.759
   78POPC   C2B 6464  27.151   9.124   8.340
   78POPC   C3B 6465  27.252   9.216   7.939
   78POPC   C4B 6466  27.023   9.459   7.665
   79POPC   NC3 6467   6.783  40.682   9.845
   79POPC   PO4 6468   7.422  40.884   9.598
   79POPC   GL1 6469   7.535  40.832   9.156
   79POPC   GL2 6470   7.225  40.989   9.083
   79POPC   C1A 6471   7.495  40.723   8.698
   79POPC   D2A 6472   7.595  40.738   8.238
   79POPC   C3A 6473   7.821  41.003   7.949
   79POPC   C4A 6474   7.619  41.147   7.532
   79POPC   C1B 6475   6.990  40.840   8.738
   79POPC   C2B 6476   6.800  40.868   8.346
   79POPC   C3B 6477   7.007  40.958   7.984
   79POPC   C4B 6478   7.350  40.805   7.788
   80POPC   NC3 6479   7.862  38.088   9.950
   80POPC   PO4 6480   8.255  37.770   9.551
   80POPC   GL1 6481   8.294  37.656   9.145
   80POPC   GL2 6482   8.384  37.308   9.186
   80POPC   C1A 6483   8.169  37.826   8.742
   80POPC   D2A 6484   8.393  38.104   8.457
   80POPC   C3A 6485   8.361  37.942   8.020
   80POPC   C4A 6486   8.184  38.091   7.647
   80POPC   C1B 6487   8.133  37.282   8.790
   80POPC   C2B 6488   7.929  37.458   8.415
   80POPC   C3B 6489   8.048  37.288   8.022
   80POPC   C4B 6490   8.383  37.425   7.759
   81POPC   NC3 6491   0.606  37.249   9.582
   81POPC   PO4 6492   0.835  36.623   9.503
   81POPC   GL1 6493   0.566  36.830   9.175
   81POPC   GL2 6494   0.382  37.146   9.120
   81POPC   C1A 6495   0.253  36.748   8.837
   81POPC   D2A 6496   0.441  36.664   8.425
   81POPC   C3A 6497   0.467  36.908   8.074
   81POPC   C4A 6498   0.308  37.060   7.696
   81POPC   C1B 6499   0.592  37.090   8.695
   81POPC   C2B 6500   0.792  37.199   8.342
   81POPC   C3B 6501   0.684  37.365   7.963
   81POPC   C4B 6502   0.715  37.334   7.522
   82POPC   NC3 6503  10.617  29.086   9.524
   82POPC   PO4 6504  10.076  28.744   9.366
   82POPC   GL1 6505  10.354  28.991   9.108
   82POPC   GL2 6506  10.344  29.347   9.080
   82POPC   C1A 6507  10.482  29.012   8.701
   82POPC   D2A 6508  10.645  28.847   8.343
   82POPC   C3A 6509  10.506  28.992   7.959
   82POPC   C4A 6510  10.833  29.007   7.678
   82POPC   C1B 6511  10.609  29.493   8.697
   82POPC   C2B 6512  10.567  29.403   8.250
   82POPC   C3B 6513  10.629  29.474   7.775
   82POPC   C4B 6514  10.913  29.421   7.384
   83POPC   NC3 6515  22.232  37.543   9.676
   83POPC   PO4 6516  22.440  38.163   9.588
   83POPC   GL1 6517  22.289  37.940   9.220
   83POPC   GL2 6518  22.101  37.647   9.205
   83POPC   C1A 6519  22.125  37.916   8.787
   83POPC   D2A 6520  21.990  37.712   8.405
   83POPC   C3A 6521  22.117  37.966   8.065
   83POPC   C4A 6522  22.254  37.844   7.693
   83POPC   C1B 6523  22.339  37.462   8.858
   83POPC   C2B 6524  22.310  37.306   8.446
   83POPC   C3B 6525  22.361  37.492   8.077
   83POPC   C4B 6526  22.186  37.314   7.729
   84POPC   NC3 6527  24.202   7.059   9.575
   84POPC   PO4 6528  24.579   7.524   9.392
   84POPC   GL1 6529  24.296   7.339   9.161
   84POPC   GL2 6530  24.015   7.555   9.165
   84POPC   C1A 6531  24.324   7.136   8.793
   84POPC   D2A 6532  24.536   7.299   8.444
   84POPC   C3A 6533  24.438   7.231   8.039
   84POPC   C4A 6534  24.553   7.062   7.643
   84POPC   C1B 6535  24.220   7.651   8.764
   84POPC   C2B 6536  24.352   7.774   8.347
   84POPC   C3B 6537  24.361   7.724   7.937
   84POPC   C4B 6538  24.054   7.461   7.799
   85POPC   NC3 6539  26.548  29.250   9.623
   85POPC   PO4 6540  27.182  29.535   9.635
   85POPC   GL1 6541  26.986  29.245   9.346
   85POPC   GL2 6542  26.872  29.526   9.185
   85POPC   C1A 6543  26.893  29.102   8.902
   85POPC   D2A 6544  27.014  29.161   8.455
   85POPC   C3A 6545  26.801  28.970   8.114
   85POPC   C4A 6546  26.782  29.073   7.695
   85POPC   C1B 6547  26.699  29.560   8.777
   85POPC   C2B 6548  26.585  29.424   8.387
   85POPC   C3B 6549  26.828  29.483   8.004
   85POPC   C4B 6550  27.200  29.616   7.760
   86POPC   NC3 6551  15.450  41.545   9.366
   86POPC   PO4 6552  16.031  41.346   9.538
   86POPC   GL1 6553  15.946  41.350   9.109
   86POPC   GL2 6554  15.874  41.699   9.106
   86POPC   C1A 6555  16.111  41.375   8.649
   86POPC   D2A 6556  16.156  41.223   8.186
   86POPC   C3A 6557  16.248  41.474   7.832
   86POPC   C4A 6558  16.270  41.410   7.377
   86POPC   C1B 6559  15.621  41.535   8.750
   86POPC   C2B 6560  15.673  41.334   8.375
   86POPC   C3B 6561  15.722  41.512   7.975
   86POPC   C4B 6562  15.880  41.748   7.585
   87POPC   NC3 6563   0.032  14.625   9.363
   87POPC   PO4 6564  44.519  14.085   9.404
   87POPC   GL1 6565  44.720  14.296   9.132
   87POPC   GL2 6566  44.548  14.588   9.150
   87POPC   C1A 6567  44.785  14.461   8.725
   87POPC   D2A 6568  44.575  14.538   8.382
   87POPC   C3A 6569  44.805  14.484   7.986
   87POPC   C4A 6570   0.113  14.412   7.711
   87POPC   C1B 6571  44.308  14.343   8.835
   87POPC   C2B 6572  44.350  14.061   8.511
   87POPC   C3B 6573  44.486  14.102   8.084
   87POPC   C4B 6574  44.650  14.110   7.656
   88POPC   NC3 6575  11.217  25.644   9.525
   88POPC   PO4 6576  11.378  26.247   9.578
   88POPC   GL1 6577  11.250  26.053   9.207
   88POPC   GL2 6578  11.504  25.900   9.141
   88POPC   C1A 6579  11.058  25.835   8.819
   88POPC   D2A 6580  10.780  25.911   8.441
   88POPC   C3A 6581  10.978  26.027   8.036
   88POPC   C4A 6582  10.794  26.025   7.636
   88POPC   C1B 6583  11.448  26.188   8.778
   88POPC   C2B 6584  11.339  26.003   8.401
   88POPC   C3B 6585  11.443  25.830   8.024
   88POPC   C4B 6586  11.411  26.156   7.743
   89POPC   NC3 6587  26.347  31.650   9.873
   89POPC   PO4 6588  25.723  31.686   9.629
   89POPC   GL1 6589  25.924  31.686   9.223
   89POPC   GL2 6590  26.215  31.461   9.219
   89POPC   C1A 6591  25.797  31.867   8.818
   89POPC   D2A 6592  25.761  31.675   8.419
   89POPC   C3A 6593  25.642  31.768   7.996
   89POPC   C4A 6594  25.883  31.507   7.744
   89POPC   C1B 6595  26.045  31.395   8.772
   89POPC   C2B 6596  26.103  31.254   8.335
   89POPC   C3B 6597  26.315  31.402   7.975
   89POPC   C4B 6598  26.249  31.196   7.564
   90POPC   NC3 6599  35.715  18.915   9.485
   90POPC   PO4 6600  35.132  19.156   9.516
   90POPC   GL1 6601  35.352  19.080   9.134
   90POPC   GL2 6602  35.657  19.289   9.165
   90POPC   C1A 6603  35.231  18.933   8.711
   90POPC   D2A 6604  34.976  18.869   8.304
   90POPC   C3A 6605  35.276  18.937   7.990
   90POPC   C4A 6606  35.561  18.616   7.872
   90POPC   C1B 6607  35.460  19.420   8.767
   90POPC   C2B 6608  35.348  19.294   8.359
   90POPC   C3B 6609  35.340  19.463   7.953
   90POPC   C4B 6610  35.605  19.295   7.686
   91POPC   NC3 6611  15.038  10.382   9.412
   91POPC   PO4 6612  15.612  10.690   9.443
   91POPC   GL1 6613  15.319  10.657   9.061
   91POPC   GL2 6614  14.925  10.658   9.000
   91POPC   C1A 6615  15.210  10.323   8.732
   91POPC   D2A 6616  15.298  10.230   8.294
   91POPC   C3A 6617  15.282  10.525   7.956
   91POPC   C4A 6618  15.119  10.909   7.752
   91POPC   C1B 6619  14.736  10.506   8.655
   91POPC   C2B 6620  14.848  10.543   8.228
   91POPC   C3B 6621  14.804  10.504   7.776
   91POPC   C4B 6622  14.888  10.134   7.510
   92POPC   NC3 6623  37.317  25.624   9.408
   92POPC   PO4 6624  37.778  25.151   9.527
   92POPC   GL1 6625  37.721  25.346   9.146
   92POPC   GL2 6626  37.426  25.194   9.033
   92POPC   C1A 6627  37.870  25.261   8.746
   92POPC   D2A 6628  37.731  25.168   8.360
   92POPC   C3A 6629  37.855  25.288   7.970
   92POPC   C4A 6630  37.446  25.237   7.871
   92POPC   C1B 6631  37.465  24.873   8.684
   92POPC   C2B 6632  37.273  24.909   8.251
   92POPC   C3B 6633  37.227  24.781   7.802
   92POPC   C4B 6634  37.271  24.813   7.315
   93POPC   NC3 6635  39.480  11.306   9.563
   93POPC   PO4 6636  38.832  11.533   9.523
   93POPC   GL1 6637  39.141  11.369   9.150
   93POPC   GL2 6638  39.460  11.554   9.108
   93POPC   C1A 6639  39.322  11.282   8.703
   93POPC   D2A 6640  39.181  11.121   8.288
   93POPC   C3A 6641  39.149  11.280   7.883
   93POPC   C4A 6642  39.236  11.075   7.465
   93POPC   C1B 6643  39.410  11.788   8.709
   93POPC   C2B 6644  39.521  11.560   8.317
   93POPC   C3B 6645  39.534  11.610   7.890
   93POPC   C4B 6646  39.449  11.567   7.431
   94POPC   NC3 6647  30.398  20.698   9.375
   94POPC   PO4 6648  31.102  20.824   9.504
   94POPC   GL1 6649  30.820  20.737   9.122
   94POPC   GL2 6650  30.751  20.363   9.103
   94POPC   C1A 6651  30.560  20.742   8.720
   94POPC   D2A 6652  30.406  20.480   8.420
   94POPC   C3A 6653  30.568  20.403   8.013
   94POPC   C4A 6654  30.559  20.650   7.652
   94POPC   C1B 6655  30.967  20.451   8.706
   94POPC   C2B 6656  30.929  20.664   8.307
   94POPC   C3B 6657  31.030  20.604   7.860
   94POPC   C4B 6658  30.914  20.302   7.553
   95POPC   NC3 6659  18.793  30.440   9.268
   95POPC   PO4 6660  19.216  30.926   9.443
   95POPC   GL1 6661  19.151  30.715   9.038
   95POPC   GL2 6662  19.401  30.422   9.010
   95POPC   C1A 6663  18.874  30.805   8.641
   95POPC   D2A 6664  18.577  30.610   8.318
   95POPC   C3A 6665  18.761  30.520   7.901
   95POPC   C4A 6666  19.069  30.834   7.843
   95POPC   C1B 6667  19.112  30.361   8.669
   95POPC   C2B 6668  19.121  30.496   8.259
   95POPC   C3B 6669  19.352  30.392   7.869
   95POPC   C4B 6670  19.453  30.202   7.473
   96POPC   NC3 6671  14.809  41.112   9.503
   96POPC   PO4 6672  14.873  40.381   9.481
   96POPC   GL1 6673  14.611  40.706   9.237
   96POPC   GL2 6674  14.663  40.971   9.047
   96POPC   C1A 6675  14.271  40.688   8.895
   96POPC   D2A 6676  14.129  40.463   8.541
   96POPC   C3A 6677  14.180  40.636   8.120
   96POPC   C4A 6678  14.314  40.841   7.738
   96POPC   C1B 6679  14.450  41.164   8.748
   96POPC   C2B 6680  14.158  41.022   8.444
   96POPC   C3B 6681  14.473  41.087   8.146
   96POPC   C4B 6682  14.816  41.092   7.834
   97POPC   NC3 6683  10.404  41.156   9.536
   97POPC   PO4 6684  10.916  41.543   9.475
   97POPC   GL1 6685  10.619  41.700   9.186
   97POPC   GL2 6686  10.281  41.573   9.183
   97POPC   C1A 6687  10.709  41.732   8.778
   97POPC   D2A 6688  10.571  41.517   8.429
   97POPC   C3A 6689  10.770  41.512   8.038
   97POPC   C4A 6690  10.685  41.187   7.759
   97POPC   C1B 6691  10.183  41.720   8.755
   97POPC   C2B 6692  10.207  41.857   8.312
   97POPC   C3B 6693  10.246  41.532   7.998
   97POPC   C4B 6694  10.413  41.614   7.634
   98POPC   NC3 6695  18.925  25.137   9.799
   98POPC   PO4 6696  19.398  25.487   9.530
   98POPC   GL1 6697  19.291  25.316   9.154
   98POPC   GL2 6698  19.014  25.146   9.259
   98POPC   C1A 6699  19.131  25.453   8.755
   98POPC   D2A 6700  18.900  25.539   8.396
   98POPC   C3A 6701  19.006  25.336   8.019
   98POPC   C4A 6702  18.842  25.392   7.602
   98POPC   C1B 6703  19.112  24.940   8.849
   98POPC   C2B 6704  19.247  25.026   8.465
   98POPC   C3B 6705  19.163  24.830   8.071
   98POPC   C4B 6706  19.160  24.961   7.704
   99POPC   NC3 6707  26.627  38.185   9.492
   99POPC   PO4 6708  27.038  38.703   9.351
   99POPC   GL1 6709  26.791  38.462   9.065
   99POPC   GL2 6710  26.476  38.607   9.162
   99POPC   C1A 6711  26.876  38.404   8.616
   99POPC   D2A 6712  26.973  38.503   8.182
   99POPC   C3A 6713  26.766  38.297   7.887
   99POPC   C4A 6714  26.891  38.110   7.489
   99POPC   C1B 6715  26.383  38.430   8.742
   99POPC   C2B 6716  26.472  38.485   8.290
   99POPC   C3B 6717  26.345  38.603   7.875
   99POPC   C4B 6718  26.610  38.594   7.497
  100POPC   NC3 6719  18.999  33.641   9.479
  100POPC   PO4 6720  19.389  34.149   9.452
  100POPC   GL1 6721  19.101  34.071   9.144
  100POPC   GL2 6722  19.074  33.747   9.000
  100POPC   C1A 6723  19.201  34.127   8.723
  100POPC   D2A 6724  19.172  33.798   8.438
  100POPC   C3A 6725  19.005  33.980   8.082
  100POPC   C4A 6726  19.183  34.245   7.804
  100POPC   C1B 6727  18.697  33.633   8.785
  100POPC   C2B 6728  18.747  33.532   8.335
  100POPC   C3B 6729  19.082  33.507   7.995
  100POPC   C4B 6730  19.042  33.734   7.585
  101POPC   NC3 6731  32.531   0.158   9.798
  101POPC   PO4 6732  31.942   0.483   9.534
  101POPC   GL1 6733  32.211   0.393   9.200
  101POPC   GL2 6734  32.136   0.024   9.218
  101POPC   C1A 6735  32.430   0.542   8.810
  101POPC   D2A 6736  32.491   0.333   8.428
  101POPC   C3A 6737  32.479   0.518   8.031
  101POPC   C4A 6738  32.344   0.419   7.638
  101POPC   C1B 6739  32.088   0.107   8.774
  101POPC   C2B 6740  31.979   0.164   8.362
  101POPC   C3B 6741  32.107   0.026   7.971
  101POPC   C4B 6742  31.965   0.086   7.565
  102POPC   NC3 6743   9.293   9.897   9.918
  102POPC   PO4 6744   9.880   9.968   9.631
  102POPC   GL1 6745   9.797   9.848   9.199
  102POPC   GL2 6746   9.956   9.545   9.107
  102POPC   C1A 6747   9.868   9.909   8.734
  102POPC   D2A 6748   9.719  10.104   8.337
  102POPC   C3A 6749   9.968   9.971   7.973
  102POPC   C4A 6750   9.959   9.833   7.509
  102POPC   C1B 6751  10.055   9.407   8.713
  102POPC   C2B 6752  10.057   9.612   8.326
  102POPC   C3B 6753  10.021   9.455   7.901
  102POPC   C4B 6754  10.288   9.162   7.673
  103POPC   NC3 6755   6.565  34.382   9.709
  103POPC   PO4 6756   6.948  34.746   9.390
  103POPC   GL1 6757   6.733  34.585   9.077
  103POPC   GL2 6758   6.620  34.267   9.117
  103POPC   C1A 6759   6.706  34.764   8.692
  103POPC   D2A 6760   6.840  34.602   8.313
  103POPC   C3A 6761   6.892  34.832   7.956
  103POPC   C4A 6762   6.956  34.646   7.603
  103POPC   C1B 6763   6.398  34.350   8.705
  103POPC   C2B 6764   6.338  34.567   8.302
  103POPC   C3B 6765   6.503  34.521   7.894
  103POPC   C4B 6766   6.468  34.645   7.456
  104POPC   NC3 6767  38.869  35.500   9.399
  104POPC   PO4 6768  39.327  35.099   9.729
  104POPC   GL1 6769  39.446  35.347   9.312
  104POPC   GL2 6770  39.513  35.728   9.330
  104POPC   C1A 6771  39.625  35.296   8.877
  104POPC   D2A 6772  39.577  35.140   8.405
  104POPC   C3A 6773  39.229  35.233   8.088
  104POPC   C4A 6774  38.930  35.285   7.732
  104POPC   C1B 6775  39.518  35.884   8.897
  104POPC   C2B 6776  39.490  35.641   8.531
  104POPC   C3B 6777  39.468  35.691   8.132
  104POPC   C4B 6778  39.373  35.601   7.740
  105POPC   NC3 6779   2.980  17.040   9.507
  105POPC   PO4 6780   2.637  16.453   9.383
  105POPC   GL1 6781   2.745  16.743   9.059
  105POPC   GL2 6782   3.121  16.822   9.068
  105POPC   C1A 6783   2.581  16.669   8.640
  105POPC   D2A 6784   2.785  16.481   8.299
  105POPC   C3A 6785   2.530  16.603   7.997
  105POPC   C4A 6786   2.375  16.707   7.642
  105POPC   C1B 6787   3.037  16.871   8.630
  105POPC   C2B 6788   2.935  16.975   8.188
  105POPC   C3B 6789   2.996  16.726   7.815
  105POPC   C4B 6790   3.171  16.625   7.417
  106POPC   NC3 6791  18.101  11.873   9.558
  106POPC   PO4 6792  18.551  12.292   9.384
  106POPC   GL1 6793  18.355  11.938   9.133
  106POPC   GL2 6794  17.973  11.945   9.073
  106POPC   C1A 6795  18.367  11.707   8.782
  106POPC   D2A 6796  18.526  11.923   8.448
  106POPC   C3A 6797  18.479  11.819   8.041
  106POPC   C4A 6798  18.736  11.867   7.688
  106POPC   C1B 6799  18.020  12.047   8.639
  106POPC   C2B 6800  18.120  12.155   8.233
  106POPC   C3B 6801  18.287  12.263   7.848
  106POPC   C4B 6802  17.937  12.146   7.657
  107POPC   NC3 6803   0.109   7.094   9.558
  107POPC   PO4 6804  44.548   7.432   9.515
  107POPC   GL1 6805  44.738   7.483   9.119
  107POPC   GL2 6806  44.879   7.168   9.099
  107POPC   C1A 6807  44.906   7.482   8.676
  107POPC   D2A 6808  44.897   7.690   8.269
  107POPC   C3A 6809  44.769   7.426   7.961
  107POPC   C4A 6810  44.561   7.338   7.582
  107POPC   C1B 6811  44.649   7.037   8.733
  107POPC   C2B 6812  44.723   7.014   8.275
  107POPC   C3B 6813  44.512   6.972   7.924
  107POPC   C4B 6814  44.171   7.046   7.682
  108POPC   NC3 6815  33.905  42.984   9.488
  108POPC   PO4 6816  33.546  42.652   9.170
  108POPC   GL1 6817  33.527  43.101   9.102
  108POPC   GL2 6818  33.814  43.352   9.136
  108POPC   C1A 6819  33.629  43.169   8.678
  108POPC   D2A 6820  33.821  42.868   8.411
  108POPC   C3A 6821  33.614  42.750   8.068
  108POPC   C4A 6822  33.699  42.652   7.672
  108POPC   C1B 6823  33.958  43.558   8.771
  108POPC   C2B 6824  33.773  43.558   8.367
  108POPC   C3B 6825  33.865  43.352   8.015
  108POPC   C4B 6826  34.008  43.044   7.753
  109POPC   NC3 6827  13.896  13.096   9.289
  109POPC   PO4 6828  13.437  12.925   9.816
  109POPC   GL1 6829  13.590  12.691   9.260
  109POPC   GL2 6830  13.928  12.597   9.176
  109POPC   C1A 6831  13.591  12.910   8.755
  109POPC   D2A 6832  13.444  13.234   8.427
  109POPC   C3A 6833  13.323  13.076   8.011
  109POPC   C4A 6834  13.498  13.011   7.616
  109POPC   C1B 6835  13.686  12.426   8.813
  109POPC   C2B 6836  13.531  12.550   8.399
  109POPC   C3B 6837  13.711  12.727   8.043
  109POPC   C4B 6838  13.596  12.506   7.712
  110POPC   NC3 6839  36.162  23.955   9.609
  110POPC   PO4 6840  36.256  23.356   9.309
  110POPC   GL1 6841  36.124  23.748   9.134
  110POPC   GL2 6842  36.349  24.021   9.133
  110POPC   C1A 6843  35.948  23.917   8.750
  110POPC   D2A 6844  36.068  23.848   8.293
  110POPC   C3A 6845  36.026  23.487   8.011
  110POPC   C4A 6846  35.908  23.611   7.610
  110POPC   C1B 6847  36.445  23.870   8.719
  110POPC   C2B 6848  36.579  23.922   8.291
  110POPC   C3B 6849  36.457  23.741   7.880
  110POPC   C4B 6850  36.468  23.853   7.420
  111POPC   NC3 6851  20.629  41.198   9.526
  111POPC   PO4 6852  20.266  41.702   9.804
  111POPC   GL1 6853  20.387  41.623   9.341
  111POPC   GL2 6854  20.730  41.615   9.200
  111POPC   C1A 6855  20.396  41.738   8.854
  111POPC   D2A 6856  20.645  41.731   8.487
  111POPC   C3A 6857  20.474  41.545   8.139
  111POPC   C4A 6858  20.566  41.717   7.737
  111POPC   C1B 6859  20.828  41.391   8.820
  111POPC   C2B 6860  20.867  41.237   8.404
  111POPC   C3B 6861  20.934  41.420   7.995
  111POPC   C4B 6862  20.805  41.296   7.596
  112POPC   NC3 6863   3.378  33.048   9.511
  112POPC   PO4 6864   3.874  32.570   9.557
  112POPC   GL1 6865   3.735  32.836   9.219
  112POPC   GL2 6866   3.800  33.184   9.235
  112POPC   C1A 6867   3.426  32.793   8.898
  112POPC   D2A 6868   3.222  33.053   8.569
  112POPC   C3A 6869   3.417  33.048   8.152
  112POPC   C4A 6870   3.190  32.860   7.774
  112POPC   C1B 6871   3.737  33.161   8.771
  112POPC   C2B 6872   3.829  33.415   8.394
  112POPC   C3B 6873   3.772  33.430   7.938
  112POPC   C4B 6874   4.020  33.356   7.558
  113POPC   NC3 6875   9.971  11.968   9.446
  113POPC   PO4 6876   9.353  11.734   9.456
  113POPC   GL1 6877   9.606  11.881   9.096
  113POPC   GL2 6878   9.673  12.249   9.097
  113POPC   C1A 6879   9.847  11.780   8.714
  113POPC   D2A 6880   9.729  11.597   8.287
  113POPC   C3A 6881   9.804  11.902   7.925
  113POPC   C4A 6882   9.851  12.159   7.550
  113POPC   C1B 6883   9.758  12.284   8.625
  113POPC   C2B 6884   9.802  12.357   8.160
  113POPC   C3B 6885   9.507  12.444   7.801
  113POPC   C4B 6886   9.486  12.464   7.334
  114POPC   NC3 6887  18.396  42.624   9.511
  114POPC   PO4 6888  17.815  42.247   9.528
  114POPC   GL1 6889  18.037  42.217   9.142
  114POPC   GL2 6890  18.414  42.217   9.160
  114POPC   C1A 6891  18.117  42.477   8.777
  114POPC   D2A 6892  18.287  42.476   8.361
  114POPC   C3A 6893  18.193  42.144   8.064
  114POPC   C4A 6894  18.215  42.156   7.629
  114POPC   C1B 6895  18.517  42.146   8.706
  114POPC   C2B 6896  18.659  42.138   8.270
  114POPC   C3B 6897  18.539  41.819   7.883
  114POPC   C4B 6898  18.582  41.915   7.396
  115POPC   NC3 6899  23.385  23.623   9.848
  115POPC   PO4 6900  23.933  23.862   9.472
  115POPC   GL1 6901  23.756  23.597   9.195
  115POPC   GL2 6902  23.412  23.614   9.276
  115POPC   C1A 6903  23.595  23.668   8.777
  115POPC   D2A 6904  23.475  23.936   8.439
  115POPC   C3A 6905  23.726  23.733   8.185
  115POPC   C4A 6906  23.893  23.745   7.772
  115POPC   C1B 6907  23.217  23.369   8.903
  115POPC   C2B 6908  23.374  23.274   8.484
  115POPC   C3B 6909  23.342  23.379   8.056
  115POPC   C4B 6910  23.546  23.369   7.635
  116POPC   NC3 6911   3.248  38.719   9.597
  116POPC   PO4 6912   3.812  38.307   9.652
  116POPC   GL1 6913   3.768  38.405   9.221
  116POPC   GL2 6914   3.410  38.340   9.196
  116POPC   C1A 6915   3.704  38.325   8.757
  116POPC   D2A 6916   3.620  38.547   8.350
  116POPC   C3A 6917   3.777  38.457   7.915
  116POPC   C4A 6918   3.969  38.273   7.555
  116POPC   C1B 6919   3.191  38.478   8.798
  116POPC   C2B 6920   3.117  38.675   8.381
  116POPC   C3B 6921   3.287  38.584   7.970
  116POPC   C4B 6922   3.374  38.430   7.580
  117POPC   NC3 6923  43.612  36.218   9.618
  117POPC   PO4 6924  43.791  35.606   9.446
  117POPC   GL1 6925  43.944  35.822   9.104
  117POPC   GL2 6926  43.765  36.129   9.136
  117POPC   C1A 6927  43.775  35.909   8.682
  117POPC   D2A 6928  43.629  35.817   8.215
  117POPC   C3A 6929  43.778  36.022   7.771
  117POPC   C4A 6930  43.679  36.000   7.260
  117POPC   C1B 6931  43.733  36.416   8.789
  117POPC   C2B 6932  43.660  36.313   8.362
  117POPC   C3B 6933  43.744  36.519   7.971
  117POPC   C4B 6934  44.139  36.502   7.740
  118POPC   NC3 6935   3.443  31.316   9.393
  118POPC   PO4 6936   3.978  31.613   9.701
  118POPC   GL1 6937   3.889  31.458   9.218
  118POPC   GL2 6938   3.759  31.693   9.030
  118POPC   C1A 6939   3.719  31.299   8.746
  118POPC   D2A 6940   3.971  31.158   8.368
  118POPC   C3A 6941   3.848  31.295   7.962
  118POPC   C4A 6942   3.475  31.421   7.760
  118POPC   C1B 6943   3.563  31.784   8.681
  118POPC   C2B 6944   3.554  31.672   8.260
  118POPC   C3B 6945   3.741  31.821   7.932
  118POPC   C4B 6946   3.527  31.904   7.618
  119POPC   NC3 6947   9.617  28.761   9.348
  119POPC   PO4 6948  10.007  29.228   9.658
  119POPC   GL1 6949   9.855  29.182   9.180
  119POPC   GL2 6950   9.908  28.870   8.924
  119POPC   C1A 6951   9.505  29.102   8.813
  119POPC   D2A 6952   9.646  28.815   8.463
  119POPC   C3A 6953   9.525  28.902   8.025
  119POPC   C4A 6954   9.663  29.066   7.616
  119POPC   C1B 6955  10.006  29.218   8.701
  119POPC   C2B 6956  10.144  29.153   8.330
  119POPC   C3B 6957   9.985  29.153   7.993
  119POPC   C4B 6958  10.163  29.143   7.604
  120POPC   NC3 6959   7.702  43.672   9.314
  120POPC   PO4 6960   7.352  44.223   9.477
  120POPC   GL1 6961   7.485  44.074   9.108
  120POPC   GL2 6962   7.849  44.082   9.041
  120POPC   C1A 6963   7.433  44.253   8.744
  120POPC   D2A 6964   7.244  44.061   8.418
  120POPC   C3A 6965   7.430  44.145   8.078
  120POPC   C4A 6966   7.586  43.866   7.810
  120POPC   C1B 6967   7.697  43.824   8.681
  120POPC   C2B 6968   7.858  43.846   8.294
  120POPC   C3B 6969   7.945  43.545   7.970
  120POPC   C4B 6970   7.832  43.541   7.527
  121POPC   NC3 6971   9.505   3.949   9.848
  121POPC   PO4 6972   9.723   4.470   9.508
  121POPC   GL1 6973   9.874   4.333   9.138
  121POPC   GL2 6974   9.942   4.691   9.093
  121POPC   C1A 6975   9.709   4.133   8.755
  121POPC   D2A 6976   9.492   4.298   8.418
  121POPC   C3A 6977   9.713   4.112   8.085
  121POPC   C4A 6978   9.662   3.938   7.698
  121POPC   C1B 6979   9.598   4.656   8.796
  121POPC   C2B 6980   9.480   4.828   8.378
  121POPC   C3B 6981   9.457   4.577   7.987
  121POPC   C4B 6982   9.767   4.457   7.686
  122POPC   NC3 6983  11.781   1.214   9.668
  122POPC   PO4 6984  11.182   0.871   9.710
  122POPC   GL1 6985  11.279   1.207   9.374
  122POPC   GL2 6986  11.554   1.189   9.209
  122POPC   C1A 6987  11.138   1.232   8.940
  122POPC   D2A 6988  10.964   1.132   8.555
  122POPC   C3A 6989  11.141   1.188   8.198
  122POPC   C4A 6990  11.130   1.207   7.771
  122POPC   C1B 6991  11.647   1.153   8.764
  122POPC   C2B 6992  11.659   1.002   8.353
  122POPC   C3B 6993  11.625   1.210   7.968
  122POPC   C4B 6994  11.564   1.048   7.560
  123POPC   NC3 6995  36.456  34.259   9.516
  123POPC   PO4 6996  36.938  34.620   9.344
  123POPC   GL1 6997  36.989  34.525   8.957
  123POPC   GL2 6998  36.779  34.331   8.726
  123POPC   C1A 6999  37.085  34.745   8.641
  123POPC   D2A 7000  36.993  34.531   8.282
  123POPC   C3A 7001  37.069  34.841   8.001
  123POPC   C4A 7002  37.011  34.859   7.580
  123POPC   C1B 7003  36.573  34.722   8.566
  123POPC   C2B 7004  36.545  34.785   8.111
  123POPC   C3B 7005  36.424  34.468   7.780
  123POPC   C4B 7006  36.597  34.243   7.379
  124POPC   NC3 7007  17.170  43.914   9.838
  124POPC   PO4 7008  17.733  43.592   9.605
  124POPC   GL1 7009  17.615  43.724   9.192
  124POPC   GL2 7010  17.304  43.815   9.259
  124POPC   C1A 7011  17.506  44.038   8.835
  124POPC   D2A 7012  17.229  44.063   8.472
  124POPC   C3A 7013  17.404  43.998   8.047
  124POPC   C4A 7014  17.648  44.271   7.780
  124POPC   C1B 7015  17.203  43.615   8.825
  124POPC   C2B 7016  16.998  43.597   8.379
  124POPC   C3B 7017  17.036  43.641   7.902
  124POPC   C4B 7018  17.081  43.683   7.431
  125POPC   NC3 7019  43.261  32.123   9.707
  125POPC   PO4 7020  42.784  32.577   9.517
  125POPC   GL1 7021  42.943  32.512   9.139
  125POPC   GL2 7022  43.249  32.309   9.210
  125POPC   C1A 7023  43.027  32.374   8.750
  125POPC   D2A 7024  42.895  32.132   8.436
  125POPC   C3A 7025  43.063  32.266   8.086
  125POPC   C4A 7026  42.848  32.254   7.708
  125POPC   C1B 7027  43.441  32.078   8.859
  125POPC   C2B 7028  43.437  32.076   8.404
  125POPC   C3B 7029  43.577  32.208   7.990
  125POPC   C4B 7030  43.343  32.352   7.642
  126POPC   NC3 7031  26.519  25.258   9.628
  126POPC   PO4 7032  27.153  25.176   9.408
  126POPC   GL1 7033  26.748  25.297   9.180
  126POPC   GL2 7034  26.521  25.020   9.109
  126POPC   C1A 7035  26.694  25.424   8.764
  126POPC   D2A 7036  26.882  25.279   8.375
  126POPC   C3A 7037  26.772  25.449   7.969
  126POPC   C4A 7038  27.068  25.536   7.678
  126POPC   C1B 7039  26.405  24.985   8.650
  126POPC   C2B 7040  26.497  25.017   8.192
  126POPC   C3B 7041  26.782  24.973   7.819
  126POPC   C4B 7042  26.650  24.841   7.428
  127POPC   NC3 7043  12.341  22.653   9.396
  127POPC   PO4 7044  12.206  23.218   9.774
  127POPC   GL1 7045  11.990  23.032   9.330
  127POPC   GL2 7046  12.121  23.225   9.038
  127POPC   C1A 7047  11.934  22.761   8.916
  127POPC   D2A 7048  11.899  22.659   8.463
  127POPC   C3A 7049  11.846  22.986   8.146
  127POPC   C4A 7050  11.776  23.123   7.714
  127POPC   C1B 7051  12.374  22.931   8.723
  127POPC   C2B 7052  12.406  22.670   8.350
  127POPC   C3B 7053  12.322  22.886   7.970
  127POPC   C4B 7054  12.508  23.242   7.824
  128POPC   NC3 7055  21.514  12.203   9.562
  128POPC   PO4 7056  21.058  12.706   9.520
  128POPC   GL1 7057  21.097  12.435   9.126
  128POPC   GL2 7058  21.309  12.125   9.109
  128POPC   C1A 7059  21.235  12.355   8.682
  128POPC   D2A 7060  21.265  12.056   8.376
  128POPC   C3A 7061  21.085  12.171   8.001
  128POPC   C4A 7062  21.246  12.216   7.610
  128POPC   C1B 7063  21.604  11.954   8.807
  128POPC   C2B 7064  21.696  11.798   8.392
  128POPC   C3B 7065  21.605  11.932   7.982
  128POPC   C4B 7066  21.561  11.766   7.565
  129POPC   NC3 7067   4.404  20.759   9.529
  129POPC   PO4 7068   4.099  20.217   9.452
  129POPC   GL1 7069   4.142  20.558   9.148
  129POPC   GL2 7070   4.471  20.681   9.049
  129POPC   C1A 7071   4.083  20.711   8.728
  129POPC   D2A 7072   4.171  20.573   8.329
  129POPC   C3A 7073   3.946  20.684   7.975
  129POPC   C4A 7074   4.116  20.965   7.650
  129POPC   C1B 7075   4.569  20.586   8.655
  129POPC   C2B 7076   4.657  20.482   8.241
  129POPC   C3B 7077   4.463  20.669   7.910
  129POPC   C4B 7078   4.624  20.736   7.536
  130POPC   NC3 7079  17.085  40.969   9.533
  130POPC   PO4 7080  16.545  40.491   9.480
  130POPC   GL1 7081  16.728  40.599   9.110
  130POPC   GL2 7082  16.810  40.949   9.101
  130POPC   C1A 7083  16.561  40.745   8.715
  130POPC   D2A 7084  16.508  40.834   8.301
  130POPC   C3A 7085  16.615  40.529   8.025
  130POPC   C4A 7086  16.642  40.618   7.622
  130POPC   C1B 7087  17.131  40.778   8.837
  130POPC   C2B 7088  17.015  40.625   8.443
  130POPC   C3B 7089  17.035  40.817   8.068
  130POPC   C4B 7090  17.157  40.791   7.659
  131POPC   NC3 7091  36.663  35.919   9.353
  131POPC   PO4 7092  37.091  36.421   9.398
  131POPC   GL1 7093  37.141  36.090   9.097
  131POPC   GL2 7094  37.168  35.731   9.202
  131POPC   C1A 7095  36.920  36.185   8.719
  131POPC   D2A 7096  36.957  36.489   8.388
  131POPC   C3A 7097  36.902  36.303   8.015
  131POPC   C4A 7098  37.234  36.021   7.933
  131POPC   C1B 7099  37.011  35.667   8.774
  131POPC   C2B 7100  37.001  35.818   8.356
  131POPC   C3B 7101  36.775  35.787   7.987
  131POPC   C4B 7102  36.609  35.693   7.598
  132POPC   NC3 7103  37.346  24.842   9.446
  132POPC   PO4 7104  36.874  25.429   9.468
  132POPC   GL1 7105  36.919  25.230   9.078
  132POPC   GL2 7106  36.617  25.255   8.943
  132POPC   C1A 7107  37.064  25.199   8.651
  132POPC   D2A 7108  37.177  25.432   8.290
  132POPC   C3A 7109  36.966  25.462   7.886
  132POPC   C4A 7110  37.084  25.241   7.509
  132POPC   C1B 7111  36.584  25.034   8.611
  132POPC   C2B 7112  36.770  25.057   8.204
  132POPC   C3B 7113  36.530  25.173   7.854
  132POPC   C4B 7114  36.580  25.340   7.451
  133POPC   NC3 7115  40.361  19.721   9.504
  133POPC   PO4 7116  39.609  19.927   9.480
  133POPC   GL1 7117  39.968  19.918   9.209
  133POPC   GL2 7118  39.950  19.599   9.198
  133POPC   C1A 7119  40.150  19.786   8.778
  133POPC   D2A 7120  40.099  19.563   8.406
  133POPC   C3A 7121  40.274  19.648   7.999
  133POPC   C4A 7122  40.224  19.972   7.693
  133POPC   C1B 7123  39.638  19.804   8.844
  133POPC   C2B 7124  39.586  19.694   8.425
  133POPC   C3B 7125  39.796  19.823   8.080
  133POPC   C4B 7126  39.760  19.817   7.680
  134POPC   NC3 7127  40.116  21.472   9.498
  134POPC   PO4 7128  40.072  20.751   9.736
  134POPC   GL1 7129  39.945  21.030   9.340
  134POPC   GL2 7130  40.255  21.101   9.092
  134POPC   C1A 7131  39.815  21.209   8.904
  134POPC   D2A 7132  39.769  21.272   8.436
  134POPC   C3A 7133  40.061  21.183   8.086
  134POPC   C4A 7134  40.109  21.025   7.662
  134POPC   C1B 7135  40.245  21.460   8.825
  134POPC   C2B 7136  40.256  21.576   8.420
  134POPC   C3B 7137  40.092  21.704   8.079
  134POPC   C4B 7138  40.064  21.532   7.672
  135POPC   NC3 7139  10.449   5.318   9.215
  135POPC   PO4 7140  10.656   4.823   9.575
  135POPC   GL1 7141  10.438   4.828   9.136
  135POPC   GL2 7142  10.705   4.882   9.068
  135POPC   C1A 7143  10.489   5.048   8.666
  135POPC   D2A 7144  10.738   5.235   8.336
  135POPC   C3A 7145  10.560   5.197   7.945
  135POPC   C4A 7146  10.350   5.546   7.815
  135POPC   C1B 7147  10.813   4.670   8.699
  135POPC   C2B 7148  10.665   4.713   8.297
  135POPC   C3B 7149  10.859   4.771   7.929
  135POPC   C4B 7150  10.688   4.683   7.557
  136POPC   NC3 7151  20.582  33.514   9.830
  136POPC   PO4 7152  20.319  34.003   9.388
  136POPC   GL1 7153  20.511  34.040   9.019
  136POPC   GL2 7154  20.832  33.995   9.133
  136POPC   C1A 7155  20.438  33.783   8.662
  136POPC   D2A 7156  20.328  33.887   8.288
  136POPC   C3A 7157  20.293  33.695   7.917
  136POPC   C4A 7158  20.436  33.889   7.524
  136POPC   C1B 7159  20.924  33.748   8.789
  136POPC   C2B 7160  20.902  33.935   8.367
  136POPC   C3B 7161  20.801  33.783   7.962
  136POPC   C4B 7162  20.934  33.753   7.539
  137POPC   NC3 7163  20.848  35.296   9.423
  137POPC   PO4 7164  20.099  35.483   9.419
  137POPC   GL1 7165  20.414  35.320   9.092
  137POPC   GL2 7166  20.739  35.393   8.965
  137POPC   C1A 7167  20.429  35.139   8.682
  137POPC   D2A 7168  20.689  35.125   8.341
  137POPC   C3A 7169  20.517  35.246   7.962
  137POPC   C4A 7170  20.672  35.161   7.568
  137POPC   C1B 7171  20.949  35.536   8.638
  137POPC   C2B 7172  21.011  35.539   8.245
  137POPC   C3B 7173  20.973  35.455   7.883
  137POPC   C4B 7174  20.881  35.648   7.538
  138POPC   NC3 7175  19.690  43.116   9.514
  138POPC   PO4 7176  20.221  42.916   9.330
  138POPC   GL1 7177  19.887  43.037   9.047
  138POPC   GL2 7178  19.698  43.395   9.094
  138POPC   C1A 7179  19.912  42.985   8.580
  138POPC   D2A 7180  19.863  43.081   8.126
  138POPC   C3A 7181  20.213  43.000   7.884
  138POPC   C4A 7182  20.156  42.940   7.481
  138POPC   C1B 7183  19.699  43.438   8.652
  138POPC   C2B 7184  19.736  43.572   8.230
  138POPC   C3B 7185  19.741  43.513   7.791
  138POPC   C4B 7186  19.609  43.259   7.519
  139POPC   NC3 7187   4.278  22.372   9.591
  139POPC   PO4 7188   4.572  21.773   9.435
  139POPC   GL1 7189   4.423  22.084   9.139
  139POPC   GL2 7190   4.069  22.207   9.140
  139POPC   C1A 7191   4.323  21.973   8.705
  139POPC   D2A 7192   4.348  22.177   8.298
  139POPC   C3A 7193   4.331  21.955   7.895
  139POPC   C4A 7194   4.252  21.995   7.429
  139POPC   C1B 7195   4.183  22.463   8.750
  139POPC   C2B 7196   4.136  22.674   8.354
  139POPC   C3B 7197   3.887  22.587   7.979
  139POPC   C4B 7198   3.913  22.199   7.738
  140POPC   NC3 7199   3.341  34.671   9.444
  140POPC   PO4 7200   3.909  34.339   9.516
  140POPC   GL1 7201   3.612  34.264   9.174
  140POPC   GL2 7202   3.272  34.108   9.108
  140POPC   C1A 7203   3.451  34.471   8.782
  140POPC   D2A 7204   3.229  34.632   8.407
  140POPC   C3A 7205   3.556  34.711   8.069
  140POPC   C4A 7206   3.890  34.554   7.758
  140POPC   C1B 7207   3.238  34.040   8.624
  140POPC   C2B 7208   3.327  34.192   8.192
  140POPC   C3B 7209   3.442  34.301   7.776
  140POPC   C4B 7210   3.492  34.084   7.379
  141POPC   NC3 7211  25.806   4.079   9.481
  141POPC   PO4 7212  25.319   4.551   9.446
  141POPC   GL1 7213  25.662   4.437   9.164
  141POPC   GL2 7214  25.710   4.748   9.043
  141POPC   C1A 7215  25.793   4.115   8.821
  141POPC   D2A 7216  25.663   4.163   8.373
  141POPC   C3A 7217  25.456   4.080   7.950
  141POPC   C4A 7218  25.668   4.182   7.549
  141POPC   C1B 7219  25.455   4.492   8.709
  141POPC   C2B 7220  25.361   4.540   8.264
  141POPC   C3B 7221  25.076   4.419   7.951
  141POPC   C4B 7222  24.857   4.637   7.624
  142POPC   NC3 7223  35.892   6.365   9.702
  142POPC   PO4 7224  35.856   6.945   9.362
  142POPC   GL1 7225  35.938   6.625   9.080
  142POPC   GL2 7226  35.762   6.329   9.203
  142POPC   C1A 7227  36.134   6.710   8.682
  142POPC   D2A 7228  36.286   6.656   8.250
  142POPC   C3A 7229  36.104   6.905   7.913
  142POPC   C4A 7230  36.115   6.898   7.443
  142POPC   C1B 7231  35.614   6.339   8.778
  142POPC   C2B 7232  35.875   6.371   8.411
  142POPC   C3B 7233  36.005   6.240   8.024
  142POPC   C4B 7234  35.860   6.260   7.589
  143POPC   NC3 7235  36.669  33.093   9.376
  143POPC   PO4 7236  37.278  33.352   9.463
  143POPC   GL1 7237  37.099  33.133   9.089
  143POPC   GL2 7238  36.801  32.865   8.961
  143POPC   C1A 7239  36.988  33.222   8.677
  143POPC   D2A 7240  36.710  33.375   8.383
  143POPC   C3A 7241  36.817  33.120   8.034
  143POPC   C4A 7242  36.945  33.187   7.623
  143POPC   C1B 7243  37.203  32.727   8.791
  143POPC   C2B 7244  37.285  32.635   8.373
  143POPC   C3B 7245  37.020  32.638   8.002
  143POPC   C4B 7246  37.137  32.680   7.585
  144POPC   NC3 7247  12.187  11.660   9.333
  144POPC   PO4 7248  11.818  11.200   9.537
  144POPC   GL1 7249  11.974  11.256   9.102
  144POPC   GL2 7250  12.364  11.342   8.983
  144POPC   C1A 7251  11.944  11.424   8.700
  144POPC   D2A 7252  11.890  11.132   8.390
  144POPC   C3A 7253  12.120  11.266   8.039
  144POPC   C4A 7254  11.867  11.560   7.854
  144POPC   C1B 7255  12.399  11.709   8.669
  144POPC   C2B 7256  12.450  11.695   8.201
  144POPC   C3B 7257  12.358  11.657   7.726
  144POPC   C4B 7258  12.465  11.641   7.219
  145POPC   NC3 7259   6.589  35.503   9.394
  145POPC   PO4 7260   6.336  34.923   9.582
  145POPC   GL1 7261   6.506  35.042   9.152
  145POPC   GL2 7262   6.805  35.224   9.013
  145POPC   C1A 7263   6.395  35.172   8.714
  145POPC   D2A 7264   6.577  35.066   8.285
  145POPC   C3A 7265   6.656  35.405   7.958
  145POPC   C4A 7266   6.479  35.551   7.553
  145POPC   C1B 7267   6.797  35.507   8.580
  145POPC   C2B 7268   6.986  35.735   8.170
  145POPC   C3B 7269   7.121  35.530   7.741
  145POPC   C4B 7270   6.875  35.174   7.539
  146POPC   NC3 7271   7.151  40.560   9.395
  146POPC   PO4 7272   6.496  40.873   9.525
  146POPC   GL1 7273   6.684  40.858   9.138
  146POPC   GL2 7274   6.729  40.516   9.124
  146POPC   C1A 7275   6.482  40.706   8.734
  146POPC   D2A 7276   6.470  40.419   8.383
  146POPC   C3A 7277   6.529  40.604   7.997
  146POPC   C4A 7278   6.613  40.924   7.697
  146POPC   C1B 7279   7.029  40.340   8.801
  146POPC   C2B 7280   7.160  40.458   8.400
  146POPC   C3B 7281   7.007  40.437   8.009
  146POPC   C4B 7282   6.935  40.538   7.593
  147POPC   NC3 7283  27.495   7.239   9.453
  147POPC   PO4 7284  27.988   7.665   9.629
  147POPC   GL1 7285  27.737   7.606   9.203
  147POPC   GL2 7286  27.414   7.765   9.252
  147POPC   C1A 7287  27.478   7.387   8.834
  147POPC   D2A 7288  27.649   7.283   8.443
  147POPC   C3A 7289  27.480   7.279   8.027
  147POPC   C4A 7290  27.751   7.180   7.635
  147POPC   C1B 7291  27.427   7.888   8.814
  147POPC   C2B 7292  27.336   7.691   8.420
  147POPC   C3B 7293  27.317   7.785   8.008
  147POPC   C4B 7294  27.616   7.668   7.745
  148POPC   NC3 7295  39.163  18.532   9.537
  148POPC   PO4 7296  39.502  17.917   9.388
  148POPC   GL1 7297  39.328  18.224   9.125
  148POPC   GL2 7298  39.014  18.426   9.065
  148POPC   C1A 7299  39.225  18.049   8.749
  148POPC   D2A 7300  39.014  17.837   8.438
  148POPC   C3A 7301  39.098  18.002   8.010
  148POPC   C4A 7302  39.302  18.065   7.636
  148POPC   C1B 7303  38.837  18.364   8.686
  148POPC   C2B 7304  39.110  18.363   8.351
  148POPC   C3B 7305  39.167  18.577   7.962
  148POPC   C4B 7306  39.207  18.593   7.508
  149POPC   NC3 7307  36.826  11.693   9.567
  149POPC   PO4 7308  37.141  11.035   9.463
  149POPC   GL1 7309  37.097  11.335   9.163
  149POPC   GL2 7310  36.753  11.347   9.194
  149POPC   C1A 7311  36.930  11.456   8.745
  149POPC   D2A 7312  37.111  11.422   8.365
  149POPC   C3A 7313  36.886  11.529   8.021
  149POPC   C4A 7314  37.136  11.350   7.716
  149POPC   C1B 7315  36.690  11.034   8.868
  149POPC   C2B 7316  36.617  11.119   8.426
  149POPC   C3B 7317  36.685  11.073   8.008
  149POPC   C4B 7318  36.659  11.236   7.578
  150POPC   NC3 7319  32.983  40.731   9.560
  150POPC   PO4 7320  32.477  41.090   9.369
  150POPC   GL1 7321  32.785  40.787   9.085
  150POPC   GL2 7322  33.164  40.800   9.078
  150POPC   C1A 7323  32.946  40.495   8.720
  150POPC   D2A 7324  32.946  40.629   8.271
  150POPC   C3A 7325  33.150  40.455   7.890
  150POPC   C4A 7326  32.944  40.364   7.498
  150POPC   C1B 7327  33.044  40.999   8.678
  150POPC   C2B 7328  33.180  41.101   8.273
  150POPC   C3B 7329  33.062  40.957   7.889
  150POPC   C4B 7330  33.287  40.814   7.511
  151POPC   NC3 7331  19.220   5.615   9.359
  151POPC   PO4 7332  18.824   5.081   9.642
  151POPC   GL1 7333  18.906   5.183   9.218
  151POPC   GL2 7334  19.269   5.107   9.193
  151POPC   C1A 7335  19.010   5.140   8.755
  151POPC   D2A 7336  18.936   5.205   8.306
  151POPC   C3A 7337  19.250   4.971   7.997
  151POPC   C4A 7338  19.270   4.932   7.516
  151POPC   C1B 7339  19.505   5.303   8.825
  151POPC   C2B 7340  19.422   5.281   8.398
  151POPC   C3B 7341  19.262   5.489   8.042
  151POPC   C4B 7342  19.256   5.662   7.644
  152POPC   NC3 7343  39.689  22.365   9.424
  152POPC   PO4 7344  40.188  21.956   9.518
  152POPC   GL1 7345  40.134  22.220   9.162
  152POPC   GL2 7346  40.025  21.918   9.000
  152POPC   C1A 7347  39.986  22.349   8.730
  152POPC   D2A 7348  39.863  22.183   8.313
  152POPC   C3A 7349  40.132  22.195   7.937
  152POPC   C4A 7350  40.442  21.890   7.748
  152POPC   C1B 7351  39.794  21.744   8.665
  152POPC   C2B 7352  39.599  21.744   8.258
  152POPC   C3B 7353  39.683  21.857   7.822
  152POPC   C4B 7354  39.669  21.687   7.386
  153POPC   NC3 7355   2.997  35.427   9.464
  153POPC   PO4 7356   2.356  35.283   9.500
  153POPC   GL1 7357   2.603  35.126   9.188
  153POPC   GL2 7358   2.703  35.444   9.032
  153POPC   C1A 7359   2.809  34.989   8.815
  153POPC   D2A 7360   2.748  35.253   8.453
  153POPC   C3A 7361   2.745  35.049   8.047
  153POPC   C4A 7362   2.748  35.295   7.666
  153POPC   C1B 7363   2.884  35.744   8.731
  153POPC   C2B 7364   3.103  35.667   8.358
  153POPC   C3B 7365   2.943  35.647   7.975
  153POPC   C4B 7366   2.822  35.816   7.607
  154POPC   NC3 7367  22.166  19.096   9.570
  154POPC   PO4 7368  21.709  18.590   9.654
  154POPC   GL1 7369  21.926  18.779   9.229
  154POPC   GL2 7370  22.117  19.133   9.087
  154POPC   C1A 7371  22.026  18.754   8.784
  154POPC   D2A 7372  22.334  19.003   8.578
  154POPC   C3A 7373  22.401  19.022   8.131
  154POPC   C4A 7374  22.709  19.267   7.856
  154POPC   C1B 7375  21.866  19.231   8.738
  154POPC   C2B 7376  21.869  18.996   8.345
  154POPC   C3B 7377  21.920  19.167   7.956
  154POPC   C4B 7378  21.820  19.571   7.768
  155POPC   NC3 7379  41.634   1.646   9.549
  155POPC   PO4 7380  42.083   2.031   9.432
  155POPC   GL1 7381  41.662   2.040   9.171
  155POPC   GL2 7382  41.504   1.736   9.059
  155POPC   C1A 7383  41.523   2.085   8.711
  155POPC   D2A 7384  41.830   2.028   8.384
  155POPC   C3A 7385  41.611   2.064   8.023
  155POPC   C4A 7386  41.262   1.954   7.805
  155POPC   C1B 7387  41.688   1.601   8.667
  155POPC   C2B 7388  41.560   1.595   8.222
  155POPC   C3B 7389  41.802   1.632   7.826
  155POPC   C4B 7390  41.720   1.502   7.411
  156POPC   NC3 7391  20.835  27.132   9.563
  156POPC   PO4 7392  20.575  26.456   9.594
  156POPC   GL1 7393  20.567  26.709   9.198
  156POPC   GL2 7394  20.787  26.949   9.109
  156POPC   C1A 7395  20.468  26.554   8.780
  156POPC   D2A 7396  20.670  26.459   8.399
  156POPC   C3A 7397  20.562  26.663   8.037
  156POPC   C4A 7398  20.647  27.056   7.841
  156POPC   C1B 7399  20.499  27.073   8.786
  156POPC   C2B 7400  20.519  27.077   8.359
  156POPC   C3B 7401  20.395  27.414   8.103
  156POPC   C4B 7402  20.293  27.415   7.736
  157POPC   NC3 7403  34.341   3.255   9.425
  157POPC   PO4 7404  34.358   2.587   9.495
  157POPC   GL1 7405  34.624   2.680   9.169
  157POPC   GL2 7406  34.653   3.007   9.112
  157POPC   C1A 7407  34.738   2.618   8.762
  157POPC   D2A 7408  34.679   2.437   8.375
  157POPC   C3A 7409  34.834   2.661   8.012
  157POPC   C4A 7410  34.676   2.683   7.624
  157POPC   C1B 7411  34.385   2.954   8.709
  157POPC   C2B 7412  34.589   2.979   8.327
  157POPC   C3B 7413  34.618   3.135   7.908
  157POPC   C4B 7414  34.365   3.114   7.531
  158POPC   NC3 7415  14.895  18.214   9.537
  158POPC   PO4 7416  15.430  18.490   9.369
  158POPC   GL1 7417  15.158  18.303   9.108
  158POPC   GL2 7418  14.872  18.510   9.107
  158POPC   C1A 7419  15.296  18.201   8.734
  158POPC   D2A 7420  15.565  18.005   8.445
  158POPC   C3A 7421  15.302  17.918   8.099
  158POPC   C4A 7422  15.249  18.076   7.691
  158POPC   C1B 7423  14.743  18.629   8.692
  158POPC   C2B 7424  14.996  18.408   8.375
  158POPC   C3B 7425  15.218  18.442   8.016
  158POPC   C4B 7426  14.878  18.464   7.688
  159POPC   NC3 7427   3.127  18.123   9.390
  159POPC   PO4 7428   2.657  18.270   9.855
  159POPC   GL1 7429   2.672  18.348   9.355
  159POPC   GL2 7430   2.943  18.571   9.209
  159POPC   C1A 7431   2.738  18.204   8.865
  159POPC   D2A 7432   2.768  18.310   8.385
  159POPC   C3A 7433   2.841  18.047   7.992
  159POPC   C4A 7434   2.731  18.006   7.549
  159POPC   C1B 7435   2.990  18.646   8.738
  159POPC   C2B 7436   3.175  18.608   8.308
  159POPC   C3B 7437   3.013  18.629   7.891
  159POPC   C4B 7438   2.966  18.481   7.496
  160POPC   NC3 7439  41.191  41.453   9.663
  160POPC   PO4 7440  40.565  41.555   9.690
  160POPC   GL1 7441  40.803  41.737   9.314
  160POPC   GL2 7442  41.135  41.848   9.206
  160POPC   C1A 7443  40.763  41.749   8.826
  160POPC   D2A 7444  40.568  41.609   8.405
  160POPC   C3A 7445  40.675  41.496   7.942
  160POPC   C4A 7446  40.707  41.792   7.556
  160POPC   C1B 7447  41.263  41.833   8.753
  160POPC   C2B 7448  41.087  41.627   8.388
  160POPC   C3B 7449  41.076  41.788   7.958
  160POPC   C4B 7450  41.100  41.462   7.590
  161POPC   NC3 7451  43.848   1.396   9.484
  161POPC   PO4 7452  44.244   0.837   9.384
  161POPC   GL1 7453  43.844   0.975   9.159
  161POPC   GL2 7454  43.509   1.006   9.275
  161POPC   C1A 7455  43.860   1.188   8.740
  161POPC   D2A 7456  44.116   1.355   8.415
  161POPC   C3A 7457  43.857   1.359   8.110
  161POPC   C4A 7458  43.967   1.135   7.830
  161POPC   C1B 7459  43.403   0.954   8.836
  161POPC   C2B 7460  43.502   1.051   8.393
  161POPC   C3B 7461  43.467   1.060   7.942
  161POPC   C4B 7462  43.624   1.251   7.494
  162POPC   NC3 7463   6.862   6.987   9.467
  162POPC   PO4 7464   6.421   6.520   9.684
  162POPC   GL1 7465   6.590   6.587   9.293
  162POPC   GL2 7466   6.388   6.877   9.235
  162POPC   C1A 7467   6.849   6.616   8.911
  162POPC   D2A 7468   6.812   6.507   8.484
  162POPC   C3A 7469   6.811   6.789   8.138
  162POPC   C4A 7470   6.789   6.683   7.676
  162POPC   C1B 7471   6.213   6.984   8.833
  162POPC   C2B 7472   6.363   7.051   8.375
  162POPC   C3B 7473   6.344   6.912   7.928
  162POPC   C4B 7474   6.302   6.780   7.500
  163POPC   NC3 7475  23.888   7.999   9.446
  163POPC   PO4 7476  23.448   8.500   9.430
  163POPC   GL1 7477  23.674   8.330   9.118
  163POPC   GL2 7478  23.475   8.036   9.120
  163POPC   C1A 7479  23.689   8.346   8.700
  163POPC   D2A 7480  23.476   8.340   8.333
  163POPC   C3A 7481  23.602   8.283   7.913
  163POPC   C4A 7482  23.996   8.415   7.714
  163POPC   C1B 7483  23.737   7.861   8.832
  163POPC   C2B 7484  23.749   7.844   8.430
  163POPC   C3B 7485  23.947   7.977   8.107
  163POPC   C4B 7486  23.923   7.930   7.684
  164POPC   NC3 7487  26.627   1.325   9.928
  164POPC   PO4 7488  27.052   1.056   9.685
  164POPC   GL1 7489  27.052   1.143   9.230
  164POPC   GL2 7490  27.194   0.864   9.065
  164POPC   C1A 7491  26.969   1.239   8.769
  164POPC   D2A 7492  26.968   1.136   8.308
  164POPC   C3A 7493  26.745   1.172   7.913
  164POPC   C4A 7494  26.839   1.470   7.590
  164POPC   C1B 7495  27.111   0.740   8.627
  164POPC   C2B 7496  27.285   0.757   8.198
  164POPC   C3B 7497  27.037   0.729   7.825
  164POPC   C4B 7498  26.942   0.985   7.463
  165POPC   NC3 7499  19.981   5.637   9.484
  165POPC   PO4 7500  20.248   6.270   9.445
  165POPC   GL1 7501  20.058   6.054   9.129
  165POPC   GL2 7502  19.719   6.056   9.248
  165POPC   C1A 7503  20.056   5.798   8.756
  165POPC   D2A 7504  19.847   5.542   8.456
  165POPC   C3A 7505  19.731   5.670   8.070
  165POPC   C4A 7506  19.971   5.636   7.764
  165POPC   C1B 7507  19.618   6.039   8.811
  165POPC   C2B 7508  19.808   6.108   8.371
  165POPC   C3B 7509  19.778   6.156   7.904
  165POPC   C4B 7510  19.856   6.385   7.521
  166POPC   NC3 7511  36.310   6.904   9.318
  166POPC   PO4 7512  36.349   6.396   9.667
  166POPC   GL1 7513  36.405   6.405   9.161
  166POPC   GL2 7514  36.670   6.636   9.057
  166POPC   C1A 7515  36.491   6.342   8.652
  166POPC   D2A 7516  36.509   6.204   8.172
  166POPC   C3A 7517  36.800   6.343   7.817
  166POPC   C4A 7518  37.151   6.489   7.535
  166POPC   C1B 7519  36.673   6.817   8.628
  166POPC   C2B 7520  36.809   6.640   8.232
  166POPC   C3B 7521  36.900   6.840   7.819
  166POPC   C4B 7522  37.041   6.997   7.401
  167POPC   NC3 7523   7.958  43.186   9.602
  167POPC   PO4 7524   8.488  42.873   9.697
  167POPC   GL1 7525   8.262  42.931   9.277
  167POPC   GL2 7526   8.399  43.234   9.225
  167POPC   C1A 7527   7.958  43.092   8.922
  167POPC   D2A 7528   7.982  43.312   8.481
  167POPC   C3A 7529   7.974  43.045   8.084
  167POPC   C4A 7530   7.894  42.868   7.660
  167POPC   C1B 7531   8.394  43.316   8.813
  167POPC   C2B 7532   8.586  43.244   8.427
  167POPC   C3B 7533   8.417  43.284   8.027
  167POPC   C4B 7534   8.374  43.031   7.682
  168POPC   NC3 7535  12.784   1.029   9.682
  168POPC   PO4 7536  12.472   1.469   9.289
  168POPC   GL1 7537  12.710   1.234   9.038
  168POPC   GL2 7538  12.854   0.910   9.161
  168POPC   C1A 7539  12.532   1.144   8.672
  168POPC   D2A 7540  12.667   1.009   8.319
  168POPC   C3A 7541  12.728   1.311   8.049
  168POPC   C4A 7542  12.535   1.360   7.659
  168POPC   C1B 7543  13.047   0.957   8.771
  168POPC   C2B 7544  13.160   1.093   8.400
  168POPC   C3B 7545  13.068   0.895   8.011
  168POPC   C4B 7546  12.757   0.921   7.717
  169POPC   NC3 7547  22.354  27.824   9.557
  169POPC   PO4 7548  22.102  27.188   9.515
  169POPC   GL1 7549  22.164  27.452   9.129
  169POPC   GL2 7550  22.284  27.824   9.061
  169POPC   C1A 7551  22.293  27.470   8.700
  169POPC   D2A 7552  22.249  27.774   8.376
  169POPC   C3A 7553  22.146  27.569   7.989
  169POPC   C4A 7554  22.253  27.196   7.850
  169POPC   C1B 7555  21.906  27.811   8.815
  169POPC   C2B 7556  21.659  27.985   8.478
  169POPC   C3B 7557  21.865  27.985   8.075
  169POPC   C4B 7558  21.959  27.953   7.638
  170POPC   NC3 7559  33.379  33.178   9.673
  170POPC   PO4 7560  34.009  33.348   9.546
  170POPC   GL1 7561  33.864  33.058   9.208
  170POPC   GL2 7562  34.057  32.744   9.175
  170POPC   C1A 7563  33.790  32.956   8.767
  170POPC   D2A 7564  33.833  33.196   8.394
  170POPC   C3A 7565  33.759  32.961   8.044
  170POPC   C4A 7566  33.372  32.929   7.781
  170POPC   C1B 7567  34.265  32.816   8.781
  170POPC   C2B 7568  34.113  32.771   8.371
  170POPC   C3B 7569  34.231  32.674   7.957
  170POPC   C4B 7570  34.107  32.929   7.599
  171POPC   NC3 7571   0.249   6.290   9.435
  171POPC   PO4 7572   0.547   5.752   9.604
  171POPC   GL1 7573   0.584   5.731   9.178
  171POPC   GL2 7574   0.361   5.935   9.071
  171POPC   C1A 7575   0.723   5.662   8.738
  171POPC   D2A 7576   0.661   5.402   8.358
  171POPC   C3A 7577   0.395   5.637   8.043
  171POPC   C4A 7578   0.458   5.909   7.680
  171POPC   C1B 7579   0.215   6.225   8.765
  171POPC   C2B 7580   0.281   6.223   8.332
  171POPC   C3B 7581   0.091   6.164   7.920
  171POPC   C4B 7582   0.130   6.229   7.447
  172POPC   NC3 7583  39.612  17.409   9.415
  172POPC   PO4 7584  40.286  17.580   9.457
  172POPC   GL1 7585  40.039  17.318   9.161
  172POPC   GL2 7586  39.903  17.639   9.051
  172POPC   C1A 7587  39.833  17.231   8.745
  172POPC   D2A 7588  39.844  17.539   8.381
  172POPC   C3A 7589  39.729  17.341   7.970
  172POPC   C4A 7590  40.091  17.155   7.766
  172POPC   C1B 7591  39.725  17.932   8.746
  172POPC   C2B 7592  39.528  17.957   8.325
  172POPC   C3B 7593  39.692  17.862   7.917
  172POPC   C4B 7594  40.061  17.678   7.733
  173POPC   NC3 7595   5.665  33.645   9.656
  173POPC   PO4 7596   6.182  34.134   9.543
  173POPC   GL1 7597   5.995  33.864   9.262
  173POPC   GL2 7598   5.663  33.945   9.228
  173POPC   C1A 7599   5.999  34.024   8.828
  173POPC   D2A 7600   6.225  33.925   8.463
  173POPC   C3A 7601   5.996  33.889   8.093
  173POPC   C4A 7602   5.978  33.720   7.692
  173POPC   C1B 7603   5.550  33.761   8.829
  173POPC   C2B 7604   5.547  33.907   8.422
  173POPC   C3B 7605   5.522  33.689   8.043
  173POPC   C4B 7606   5.435  33.801   7.635
  174POPC   NC3 7607  28.735  32.330   9.494
  174POPC   PO4 7608  28.085  32.107   9.571
  174POPC   GL1 7609  28.375  32.095   9.229
  174POPC   GL2 7610  28.273  32.416   9.118
  174POPC   C1A 7611  28.673  32.266   8.871
  174POPC   D2A 7612  28.506  32.468   8.493
  174POPC   C3A 7613  28.605  32.358   8.084
  174POPC   C4A 7614  28.322  32.212   7.782
  174POPC   C1B 7615  28.203  32.127   8.760
  174POPC   C2B 7616  27.858  32.017   8.543
  174POPC   C3B 7617  27.946  32.042   8.129
  174POPC   C4B 7618  27.830  32.120   7.718
  175POPC   NC3 7619  18.493  41.109   9.234
  175POPC   PO4 7620  19.092  40.735   9.419
  175POPC   GL1 7621  18.831  40.470   9.123
  175POPC   GL2 7622  18.538  40.635   9.098
  175POPC   C1A 7623  18.871  40.323   8.676
  175POPC   D2A 7624  18.850  40.492   8.236
  175POPC   C3A 7625  19.128  40.576   7.902
  175POPC   C4A 7626  19.313  40.964   7.782
  175POPC   C1B 7627  18.571  40.812   8.661
  175POPC   C2B 7628  18.433  40.778   8.238
  175POPC   C3B 7629  18.678  40.879   7.869
  175POPC   C4B 7630  18.507  40.921   7.460
  176POPC   NC3 7631  40.339  44.448   9.549
  176POPC   PO4 7632  39.678  44.700   9.576
  176POPC   GL1 7633  39.902  44.553   9.225
  176POPC   GL2 7634  40.050  44.842   9.097
  176POPC   C1A 7635  39.642  44.473   8.867
  176POPC   D2A 7636  39.591  44.558   8.462
  176POPC   C3A 7637  39.888  44.582   8.171
  176POPC   C4A 7638  39.749  44.343   7.823
  176POPC   C1B 7639  40.063  44.692   8.675
  176POPC   C2B 7640  40.247  44.929   8.340
  176POPC   C3B 7641  40.395  44.757   8.001
  176POPC   C4B 7642  40.082  44.727   7.691
  177POPC   NC3 7643  11.463   5.402   9.247
  177POPC   PO4 7644  11.481   6.006   9.415
  177POPC   GL1 7645  11.144   5.838   9.129
  177POPC   GL2 7646  10.957   5.489   9.158
  177POPC   C1A 7647  11.211   5.953   8.698
  177POPC   D2A 7648  11.551   6.149   8.450
  177POPC   C3A 7649  11.632   6.053   8.000
  177POPC   C4A 7650  11.443   5.734   7.717
  177POPC   C1B 7651  10.819   5.607   8.731
  177POPC   C2B 7652  10.910   5.761   8.301
  177POPC   C3B 7653  10.890   5.625   7.850
  177POPC   C4B 7654  11.035   5.646   7.426
  178POPC   NC3 7655  42.627  38.668   9.358
  178POPC   PO4 7656  42.163  39.098   9.540
  178POPC   GL1 7657  42.427  39.119   9.186
  178POPC   GL2 7658  42.311  39.443   9.104
  178POPC   C1A 7659  42.464  38.920   8.788
  178POPC   D2A 7660  42.260  38.999   8.435
  178POPC   C3A 7661  42.467  39.084   8.081
  178POPC   C4A 7662  42.461  38.966   7.687
  178POPC   C1B 7663  42.462  39.419   8.680
  178POPC   C2B 7664  42.265  39.516   8.273
  178POPC   C3B 7665  42.212  39.448   7.817
  178POPC   C4B 7666  42.445  39.382   7.399
  179POPC   NC3 7667  27.694  10.652   9.554
  179POPC   PO4 7668  27.174  10.242   9.532
  179POPC   GL1 7669  27.447  10.414   9.182
  179POPC   GL2 7670  27.804  10.316   9.176
  179POPC   C1A 7671  27.645  10.545   8.766
  179POPC   D2A 7672  27.746  10.379   8.400
  179POPC   C3A 7673  27.518  10.585   8.105
  179POPC   C4A 7674  27.426  10.537   7.684
  179POPC   C1B 7675  27.931  10.111   8.829
  179POPC   C2B 7676  27.802   9.867   8.479
  179POPC   C3B 7677  27.904  10.002   8.069
  179POPC   C4B 7678  27.791  10.200   7.693
  180POPC   NC3 7679  32.960  18.032   9.556
  180POPC   PO4 7680  33.453  17.475   9.577
  180POPC   GL1 7681  33.182  17.528   9.204
  180POPC   GL2 7682  32.882  17.703   9.156
  180POPC   C1A 7683  33.079  17.428   8.758
  180POPC   D2A 7684  33.032  17.258   8.318
  180POPC   C3A 7685  33.201  17.421   7.935
  180POPC   C4A 7686  33.029  17.608   7.560
  180POPC   C1B 7687  32.614  17.648   8.777
  180POPC   C2B 7688  32.544  17.436   8.361
  180POPC   C3B 7689  32.679  17.399   7.910
  180POPC   C4B 7690  32.476  17.497   7.497
  181POPC   NC3 7691  22.757  24.341   9.549
  181POPC   PO4 7692  23.297  24.701   9.387
  181POPC   GL1 7693  23.082  24.331   9.127
  181POPC   GL2 7694  22.694  24.228   9.069
  181POPC   C1A 7695  22.990  24.324   8.667
  181POPC   D2A 7696  23.172  24.487   8.327
  181POPC   C3A 7697  23.338  24.309   7.977
  181POPC   C4A 7698  23.257  24.594   7.660
  181POPC   C1B 7699  22.577  24.006   8.697
  181POPC   C2B 7700  22.659  24.114   8.261
  181POPC   C3B 7701  22.810  24.434   7.947
  181POPC   C4B 7702  22.743  24.606   7.531
  182POPC   NC3 7703  43.691  13.788   9.436
  182POPC   PO4 7704  44.066  13.235   9.376
  182POPC   GL1 7705  43.780  13.412   9.051
  182POPC   GL2 7706  43.528  13.703   8.973
  182POPC   C1A 7707  43.811  13.351   8.625
  182POPC   D2A 7708  44.160  13.543   8.397
  182POPC   C3A 7709  44.028  13.585   7.996
  182POPC   C4A 7710  43.699  13.720   7.721
  182POPC   C1B 7711  43.922  13.830   8.773
  182POPC   C2B 7712  43.859  13.969   8.351
  182POPC   C3B 7713  43.990  14.123   7.963
  182POPC   C4B 7714  44.195  13.926   7.665
  183POPC   NC3 7715  30.112   7.944   9.310
  183POPC   PO4 7716  29.594   8.354   9.600
  183POPC   GL1 7717  29.799   8.338   9.157
  183POPC   GL2 7718  30.168   8.464   9.194
  183POPC   C1A 7719  29.891   8.084   8.725
  183POPC   D2A 7720  29.927   7.920   8.270
  183POPC   C3A 7721  30.151   8.033   7.868
  183POPC   C4A 7722  29.964   8.156   7.435
  183POPC   C1B 7723  30.036   8.559   8.763
  183POPC   C2B 7724  29.851   8.448   8.383
  183POPC   C3B 7725  29.787   8.381   7.968
  183POPC   C4B 7726  30.023   8.601   7.690
  184POPC   NC3 7727  14.196  18.326   9.754
  184POPC   PO4 7728  13.547  18.172   9.554
  184POPC   GL1 7729  13.660  18.415   9.193
  184POPC   GL2 7730  13.788  18.104   9.005
  184POPC   C1A 7731  13.759  18.545   8.755
  184POPC   D2A 7732  13.865  18.231   8.445
  184POPC   C3A 7733  13.691  18.288   8.041
  184POPC   C4A 7734  13.690  18.542   7.670
  184POPC   C1B 7735  13.543  17.879   8.684
  184POPC   C2B 7736  13.258  17.726   8.357
  184POPC   C3B 7737  13.360  17.677   7.924
  184POPC   C4B 7738  13.632  17.925   7.694
  185POPC   NC3 7739  44.789  10.415   9.769
  185POPC   PO4 7740  44.246  10.746   9.476
  185POPC   GL1 7741  44.664  10.633   9.301
  185POPC   GL2 7742  44.636  10.281   9.276
  185POPC   C1A 7743  44.749  10.661   8.843
  185POPC   D2A 7744  44.542  10.420   8.523
  185POPC   C3A 7745  44.612  10.453   8.078
  185POPC   C4A 7746  44.536  10.673   7.690
  185POPC   C1B 7747  44.960  10.229   8.961
  185POPC   C2B 7748   0.031  10.241   8.487
  185POPC   C3B 7749  44.977  10.107   8.017
  185POPC   C4B 7750  44.696  10.197   7.625
  186POPC   NC3 7751  16.165   8.989   9.598
  186POPC   PO4 7752  15.528   8.903   9.554
  186POPC   GL1 7753  15.831   8.936   9.162
  186POPC   GL2 7754  16.182   8.820   9.140
  186POPC   C1A 7755  16.015   8.955   8.694
  186POPC   D2A 7756  15.887   8.785   8.292
  186POPC   C3A 7757  15.941   9.081   7.944
  186POPC   C4A 7758  15.610   9.230   7.671
  186POPC   C1B 7759  16.308   8.535   8.862
  186POPC   C2B 7760  16.376   8.620   8.438
  186POPC   C3B 7761  16.302   8.729   8.010
  186POPC   C4B 7762  16.313   8.814   7.574
  187POPC   NC3 7763  41.648  42.399   9.653
  187POPC   PO4 7764  42.376  42.380   9.530
  187POPC   GL1 7765  42.475  42.485   9.145
  187POPC   GL2 7766  42.366  42.149   9.043
  187POPC   C1A 7767  42.420  42.564   8.742
  187POPC   D2A 7768  42.427  42.366   8.384
  187POPC   C3A 7769  42.129  42.552   8.090
  187POPC   C4A 7770  42.307  42.442   7.660
  187POPC   C1B 7771  42.146  42.056   8.699
  187POPC   C2B 7772  41.959  42.142   8.340
  187POPC   C3B 7773  42.205  42.071   7.984
  187POPC   C4B 7774  42.004  42.031   7.575
  188POPC   NC3 7775  17.953   6.990   9.436
  188POPC   PO4 7776  18.528   6.642   9.509
  188POPC   GL1 7777  18.265   6.548   9.137
  188POPC   GL2 7778  18.244   6.871   9.048
  188POPC   C1A 7779  17.938   6.570   8.778
  188POPC   D2A 7780  18.062   6.779   8.392
  188POPC   C3A 7781  18.209   6.640   7.968
  188POPC   C4A 7782  18.385   6.548   7.542
  188POPC   C1B 7783  18.591   6.733   8.782
  188POPC   C2B 7784  18.866   6.799   8.450
  188POPC   C3B 7785  18.685   6.832   8.031
  188POPC   C4B 7786  18.646   6.979   7.616
  189POPC   NC3 7787  35.375  14.551   9.425
  189POPC   PO4 7788  35.157  13.990   9.514
  189POPC   GL1 7789  35.292  14.033   9.081
  189POPC   GL2 7790  35.595  14.188   9.089
  189POPC   C1A 7791  35.273  14.358   8.726
  189POPC   D2A 7792  35.316  14.585   8.321
  189POPC   C3A 7793  35.255  14.254   7.986
  189POPC   C4A 7794  35.071  14.349   7.534
  189POPC   C1B 7795  35.772  14.422   8.762
  189POPC   C2B 7796  35.697  14.264   8.370
  189POPC   C3B 7797  35.748  14.452   7.987
  189POPC   C4B 7798  35.584  14.301   7.600
  190POPC   NC3 7799   0.767   4.081   9.389
  190POPC   PO4 7800   1.199   4.584   9.527
  190POPC   GL1 7801   1.258   4.346   9.177
  190POPC   GL2 7802   1.276   4.001   9.291
  190POPC   C1A 7803   1.362   4.251   8.762
  190POPC   D2A 7804   1.145   4.032   8.445
  190POPC   C3A 7805   1.252   4.199   8.067
  190POPC   C4A 7806   1.258   4.325   7.656
  190POPC   C1B 7807   1.461   3.790   8.949
  190POPC   C2B 7808   1.524   3.683   8.529
  190POPC   C3B 7809   1.526   3.758   8.102
  190POPC   C4B 7810   1.598   3.960   7.722
  191POPC   NC3 7811  25.520  16.305   9.507
  191POPC   PO4 7812  24.921  16.087   9.510
  191POPC   GL1 7813  25.206  16.015   9.196
  191POPC   GL2 7814  25.262  15.658   9.173
  191POPC   C1A 7815  25.171  16.115   8.765
  191POPC   D2A 7816  24.947  16.090   8.370
  191POPC   C3A 7817  25.144  15.932   7.969
  191POPC   C4A 7818  25.046  15.846   7.526
  191POPC   C1B 7819  25.425  15.675   8.782
  191POPC   C2B 7820  25.419  15.815   8.399
  191POPC   C3B 7821  25.687  15.813   8.061
  191POPC   C4B 7822  25.551  15.730   7.656
  192POPC   NC3 7823  13.362  15.913   9.851
  192POPC   PO4 7824  13.808  16.244   9.437
  192POPC   GL1 7825  13.694  15.945   9.117
  192POPC   GL2 7826  13.909  15.631   9.105
  192POPC   C1A 7827  13.499  16.040   8.701
  192POPC   D2A 7828  13.428  16.004   8.258
  192POPC   C3A 7829  13.511  16.258   7.932
  192POPC   C4A 7830  13.769  16.092   7.647
  192POPC   C1B 7831  13.919  15.726   8.666
  192POPC   C2B 7832  13.918  15.789   8.224
  192POPC   C3B 7833  14.028  15.711   7.807
  192POPC   C4B 7834  13.774  15.619   7.423
  193POPC   NC3 7835   1.905  15.838   9.545
  193POPC   PO4 7836   2.330  15.581   9.209
  193POPC   GL1 7837   2.049  15.796   9.010
  193POPC   GL2 7838   1.721  15.719   9.052
  193POPC   C1A 7839   2.072  15.858   8.595
  193POPC   D2A 7840   1.824  15.709   8.291
  193POPC   C3A 7841   2.060  15.848   7.941
  193POPC   C4A 7842   2.038  15.760   7.520
  193POPC   C1B 7843   1.706  16.125   8.806
  193POPC   C2B 7844   1.789  16.214   8.338
  193POPC   C3B 7845   1.621  16.076   7.948
  193POPC   C4B 7846   1.715  16.151   7.542
  194POPC   NC3 7847  32.736  44.387   9.770
  194POPC   PO4 7848  32.952   0.054   9.613
  194POPC   GL1 7849  32.985  44.723   9.381
  194POPC   GL2 7850  33.295  44.891   9.204
  194POPC   C1A 7851  32.960  44.590   8.972
  194POPC   D2A 7852  32.999  44.751   8.555
  194POPC   C3A 7853  32.867  44.497   8.193
  194POPC   C4A 7854  32.813  44.677   7.771
  194POPC   C1B 7855  33.409   0.044   8.780
  194POPC   C2B 7856  33.454  44.893   8.336
  194POPC   C3B 7857  33.327   0.055   7.930
  194POPC   C4B 7858  33.238  44.888   7.519
  195POPC   NC3 7859  39.632  15.519   9.371
  195POPC   PO4 7860  39.081  15.071   9.456
  195POPC   GL1 7861  39.065  15.180   9.065
  195POPC   GL2 7862  38.787  15.411   9.087
  195POPC   C1A 7863  39.389  15.229   8.742
  195POPC   D2A 7864  39.560  15.393   8.345
  195POPC   C3A 7865  39.378  15.139   8.013
  195POPC   C4A 7866  39.279  15.186   7.594
  195POPC   C1B 7867  38.940  15.521   8.676
  195POPC   C2B 7868  38.962  15.433   8.226
  195POPC   C3B 7869  39.158  15.598   7.858
  195POPC   C4B 7870  39.065  15.658   7.431
  196POPC   NC3 7871  24.838  39.029   9.873
  196POPC   PO4 7872  25.591  39.106   9.740
  196POPC   GL1 7873  25.324  39.107   9.336
  196POPC   GL2 7874  25.181  39.429   9.318
  196POPC   C1A 7875  25.107  39.185   8.887
  196POPC   D2A 7876  24.984  39.352   8.464
  196POPC   C3A 7877  25.092  39.134   8.088
  196POPC   C4A 7878  24.974  39.142   7.637
  196POPC   C1B 7879  25.539  39.456   9.020
  196POPC   C2B 7880  25.488  39.394   8.572
  196POPC   C3B 7881  25.497  39.441   8.133
  196POPC   C4B 7882  25.444  39.518   7.706
  197POPC   NC3 7883   9.311  37.454   9.481
  197POPC   PO4 7884   9.935  37.620   9.637
  197POPC   GL1 7885   9.885  37.727   9.190
  197POPC   GL2 7886   9.575  37.888   9.072
  197POPC   C1A 7887  10.013  37.681   8.758
  197POPC   D2A 7888  10.024  37.517   8.330
  197POPC   C3A 7889   9.948  37.703   7.955
  197POPC   C4A 7890  10.063  37.430   7.602
  197POPC   C1B 7891   9.716  38.086   8.686
  197POPC   C2B 7892   9.615  37.944   8.285
  197POPC   C3B 7893   9.469  37.599   8.063
  197POPC   C4B 7894   9.551  37.565   7.626
  198POPC   NC3 7895  17.425   8.398   9.491
  198POPC   PO4 7896  17.269   7.778   9.401
  198POPC   GL1 7897  17.541   7.928   9.040
  198POPC   GL2 7898  17.622   8.278   9.036
  198POPC   C1A 7899  17.607   8.002   8.593
  198POPC   D2A 7900  17.560   7.782   8.201
  198POPC   C3A 7901  17.413   8.056   7.865
  198POPC   C4A 7902  17.153   7.913   7.517
  198POPC   C1B 7903  17.859   8.453   8.702
  198POPC   C2B 7904  17.744   8.621   8.299
  198POPC   C3B 7905  17.797   8.512   7.848
  198POPC   C4B 7906  17.896   8.332   7.401
  199POPC   NC3 7907  22.384  35.999   9.678
  199POPC   PO4 7908  23.013  36.357   9.574
  199POPC   GL1 7909  22.941  36.110   9.222
  199POPC   GL2 7910  22.709  36.281   9.065
  199POPC   C1A 7911  23.125  36.137   8.808
  199POPC   D2A 7912  22.825  36.151   8.456
  199POPC   C3A 7913  22.955  36.098   8.063
  199POPC   C4A 7914  22.660  36.068   7.733
  199POPC   C1B 7915  22.858  36.573   8.722
  199POPC   C2B 7916  22.900  36.617   8.261
  199POPC   C3B 7917  22.615  36.539   7.927
  199POPC   C4B 7918  22.659  36.462   7.435
  200POPC   NC3 7919   8.714   5.387   9.420
  200POPC   PO4 7920   9.376   5.405   9.441
  200POPC   GL1 7921   9.129   5.331   9.102
  200POPC   GL2 7922   8.980   4.997   9.192
  200POPC   C1A 7923   8.827   5.333   8.777
  200POPC   D2A 7924   8.564   5.278   8.422
  200POPC   C3A 7925   8.747   5.330   8.005
  200POPC   C4A 7926   9.108   5.306   7.744
  200POPC   C1B 7927   9.124   4.893   8.780
  200POPC   C2B 7928   9.016   5.051   8.368
  200POPC   C3B 7929   9.026   4.863   7.958
  200POPC   C4B 7930   8.811   4.857   7.540
  201POPC   NC3 7931  22.402  26.462   9.335
  201POPC   PO4 7932  21.885  26.468   9.737
  201POPC   GL1 7933  21.928  26.686   9.326
  201POPC   GL2 7934  21.745  26.980   9.207
  201POPC   C1A 7935  21.930  26.560   8.874
  201POPC   D2A 7936  21.798  26.696   8.471
  201POPC   C3A 7937  22.098  26.636   8.130
  201POPC   C4A 7938  22.110  26.748   7.708
  201POPC   C1B 7939  21.981  27.074   8.815
  201POPC   C2B 7940  22.110  27.101   8.366
  201POPC   C3B 7941  21.791  27.048   8.037
  201POPC   C4B 7942  21.788  27.201   7.615
  202POPC   NC3 7943  15.247  41.977   9.747
  202POPC   PO4 7944  15.173  42.637   9.629
  202POPC   GL1 7945  15.306  42.447   9.242
  202POPC   GL2 7946  15.260  42.069   9.243
  202POPC   C1A 7947  15.186  42.448   8.810
  202POPC   D2A 7948  15.308  42.636   8.430
  202POPC   C3A 7949  15.010  42.640   8.098
  202POPC   C4A 7950  15.052  42.413   7.715
  202POPC   C1B 7951  15.318  41.946   8.825
  202POPC   C2B 7952  15.408  42.090   8.414
  202POPC   C3B 7953  15.291  41.957   7.994
  202POPC   C4B 7954  15.447  42.096   7.620
  203POPC   NC3 7955  44.734   8.625   9.451
  203POPC   PO4 7956  44.365   9.105   9.765
  203POPC   GL1 7957  44.375   8.973   9.310
  203POPC   GL2 7958  44.437   9.268   9.105
  203POPC   C1A 7959  44.511   8.815   8.865
  203POPC   D2A 7960  44.697   9.038   8.501
  203POPC   C3A 7961  44.789   8.889   8.090
  203POPC   C4A 7962  44.547   8.764   7.726
  203POPC   C1B 7963  44.586   9.483   8.738
  203POPC   C2B 7964  44.464   9.452   8.286
  203POPC   C3B 7965  44.462   9.248   7.870
  203POPC   C4B 7966  44.276   9.095   7.459
  204POPC   NC3 7967   1.256   9.521   9.422
  204POPC   PO4 7968   0.831  10.149   9.448
  204POPC   GL1 7969   1.018   9.842   9.103
  204POPC   GL2 7970   0.927   9.436   9.057
  204POPC   C1A 7971   1.252   9.947   8.712
  204POPC   D2A 7972   0.997   9.975   8.283
  204POPC   C3A 7973   1.210   9.922   7.836
  204POPC   C4A 7974   1.340   9.846   7.378
  204POPC   C1B 7975   0.961   9.550   8.667
  204POPC   C2B 7976   1.063   9.439   8.260
  204POPC   C3B 7977   0.813   9.608   7.928
  204POPC   C4B 7978   0.946   9.542   7.497
  205POPC   NC3 7979  11.919  37.245   9.615
  205POPC   PO4 7980  11.811  36.676   9.440
  205POPC   GL1 7981  11.971  37.015   9.153
  205POPC   GL2 7982  12.289  37.152   9.205
  205POPC   C1A 7983  12.051  37.084   8.725
  205POPC   D2A 7984  11.776  36.965   8.394
  205POPC   C3A 7985  11.810  37.117   8.005
  205POPC   C4A 7986  11.637  36.918   7.639
  205POPC   C1B 7987  12.480  37.367   8.825
  205POPC   C2B 7988  12.584  37.441   8.372
  205POPC   C3B 7989  12.656  37.265   7.932
  205POPC   C4B 7990  12.567  37.029   7.509
  206POPC   NC3 7991   3.944  31.970   9.414
  206POPC   PO4 7992   4.498  32.285   9.695
  206POPC   GL1 7993   4.544  32.328   9.257
  206POPC   GL2 7994   4.199  32.354   9.161
  206POPC   C1A 7995   4.543  32.134   8.848
  206POPC   D2A 7996   4.330  32.273   8.477
  206POPC   C3A 7997   4.547  32.235   8.116
  206POPC   C4A 7998   4.370  32.132   7.725
  206POPC   C1B 7999   3.977  32.111   8.801
  206POPC   C2B 8000   3.845  32.123   8.381
  206POPC   C3B 8001   4.000  32.310   8.039
  206POPC   C4B 8002   3.890  32.257   7.630
  207POPC   NC3 8003  34.284  36.814   9.802
  207POPC   PO4 8004  34.823  36.570   9.586
  207POPC   GL1 8005  34.678  36.761   9.163
  207POPC   GL2 8006  34.432  37.030   9.259
  207POPC   C1A 8007  34.584  36.644   8.696
  207POPC   D2A 8008  34.392  36.643   8.267
  207POPC   C3A 8009  34.583  36.794   7.900
  207POPC   C4A 8010  34.691  36.530   7.549
  207POPC   C1B 8011  34.321  37.059   8.789
  207POPC   C2B 8012  34.469  37.134   8.332
  207POPC   C3B 8013  34.262  37.188   7.902
  207POPC   C4B 8014  34.337  37.326   7.466
  208POPC   NC3 8015  37.419  21.561   9.375
  208POPC   PO4 8016  37.881  21.084   9.629
  208POPC   GL1 8017  37.794  21.225   9.242
  208POPC   GL2 8018  38.001  21.505   9.279
  208POPC   C1A 8019  37.655  21.232   8.814
  208POPC   D2A 8020  37.682  21.481   8.457
  208POPC   C3A 8021  37.594  21.309   8.089
  208POPC   C4A 8022  37.377  21.492   7.778
  208POPC   C1B 8023  38.129  21.395   8.857
  208POPC   C2B 8024  38.125  21.162   8.447
  208POPC   C3B 8025  38.076  21.132   7.987
  208POPC   C4B 8026  37.922  21.480   7.739
  209POPC   NC3 8027  25.439  27.480   9.696
  209POPC   PO4 8028  25.383  28.149   9.456
  209POPC   GL1 8029  25.213  27.832   9.169
  209POPC   GL2 8030  25.294  27.465   9.190
  209POPC   C1A 8031  25.230  27.914   8.730
  209POPC   D2A 8032  25.350  27.724   8.356
  209POPC   C3A 8033  25.199  27.828   7.974
  209POPC   C4A 8034  25.398  27.855   7.590
  209POPC   C1B 8035  25.371  27.403   8.760
  209POPC   C2B 8036  25.142  27.259   8.375
  209POPC   C3B 8037  25.071  27.325   7.917
  209POPC   C4B 8038  25.190  27.416   7.458
  210POPC   NC3 8039  24.933  28.127   9.554
  210POPC   PO4 8040  25.463  28.707   9.464
  210POPC   GL1 8041  25.464  28.488   9.059
  210POPC   GL2 8042  25.159  28.319   9.031
  210POPC   C1A 8043  25.309  28.532   8.609
  210POPC   D2A 8044  25.186  28.242   8.285
  210POPC   C3A 8045  25.411  28.277   7.862
  210POPC   C4A 8046  25.450  28.326   7.382
  210POPC   C1B 8047  24.824  28.472   8.746
  210POPC   C2B 8048  24.804  28.597   8.342
  210POPC   C3B 8049  24.989  28.727   7.977
  210POPC   C4B 8050  25.244  28.710   7.674
  211POPC   NC3 8051  34.916  17.595   9.451
  211POPC   PO4 8052  34.403  17.163   9.611
  211POPC   GL1 8053  34.492  17.400   9.227
  211POPC   GL2 8054  34.525  17.772   9.169
  211POPC   C1A 8055  34.572  17.458   8.774
  211POPC   D2A 8056  34.393  17.545   8.377
  211POPC   C3A 8057  34.580  17.342   8.038
  211POPC   C4A 8058  34.562  17.340   7.594
  211POPC   C1B 8059  34.774  17.921   8.806
  211POPC   C2B 8060  34.820  17.820   8.338
  211POPC   C3B 8061  34.936  18.003   7.932
  211POPC   C4B 8062  34.892  17.731   7.545
  212POPC   NC3 8063  22.257  10.954   9.489
  212POPC   PO4 8064  21.838  10.406   9.516
  212POPC   GL1 8065  22.058  10.467   9.124
  212POPC   GL2 8066  22.417  10.455   9.174
  212POPC   C1A 8067  22.200  10.555   8.673
  212POPC   D2A 8068  22.116  10.837   8.271
  212POPC   C3A 8069  22.027  10.600   7.870
  212POPC   C4A 8070  21.850  10.251   7.531
  212POPC   C1B 8071  22.598  10.138   8.860
  212POPC   C2B 8072  22.519   9.955   8.427
  212POPC   C3B 8073  22.487  10.229   8.084
  212POPC   C4B 8074  22.404  10.333   7.676
  213POPC   NC3 8075  32.172  20.296   9.588
  213POPC   PO4 8076  32.089  20.973   9.564
  213POPC   GL1 8077  32.138  20.675   9.187
  213POPC   GL2 8078  32.487  20.512   9.104
  213POPC   C1A 8079  32.064  20.493   8.764
  213POPC   D2A 8080  32.172  20.276   8.338
  213POPC   C3A 8081  32.040  20.473   7.945
  213POPC   C4A 8082  32.041  20.697   7.554
  213POPC   C1B 8083  32.483  20.775   8.716
  213POPC   C2B 8084  32.176  20.824   8.405
  213POPC   C3B 8085  32.211  20.940   8.008
  213POPC   C4B 8086  32.493  20.743   7.779
  214POPC   NC3 8087  12.215  20.350   9.635
  214POPC   PO4 8088  11.604  20.635   9.528
  214POPC   GL1 8089  11.954  20.667   9.234
  214POPC   GL2 8090  12.121  20.362   9.133
  214POPC   C1A 8091  11.874  20.688   8.797
  214POPC   D2A 8092  12.065  20.702   8.419
  214POPC   C3A 8093  11.939  20.774   7.992
  214POPC   C4A 8094  12.145  20.992   7.618
  214POPC   C1B 8095  12.280  20.285   8.716
  214POPC   C2B 8096  12.128  20.206   8.293
  214POPC   C3B 8097  12.076  20.277   7.868
  214POPC   C4B 8098  12.475  20.245   7.697
  215POPC   NC3 8099  24.682  11.348   9.399
  215POPC   PO4 8100  24.304  10.771   9.615
  215POPC   GL1 8101  24.375  10.973   9.211
  215POPC   GL2 8102  24.688  10.870   9.087
  215POPC   C1A 8103  24.322  11.018   8.759
  215POPC   D2A 8104  24.201  11.114   8.321
  215POPC   C3A 8105  24.263  11.559   8.195
  215POPC   C4A 8106  24.448  11.701   7.803
  215POPC   C1B 8107  24.838  11.125   8.755
  215POPC   C2B 8108  24.721  11.367   8.408
  215POPC   C3B 8109  24.878  11.517   8.023
  215POPC   C4B 8110  25.026  11.206   7.742
  216POPC   NC3 8111   9.676  27.810   9.650
  216POPC   PO4 8112  10.129  27.297   9.521
  216POPC   GL1 8113   9.938  27.468   9.153
  216POPC   GL2 8114   9.867  27.804   9.177
  216POPC   C1A 8115   9.688  27.551   8.782
  216POPC   D2A 8116   9.591  27.838   8.476
  216POPC   C3A 8117   9.635  27.713   8.050
  216POPC   C4A 8118   9.727  27.992   7.681
  216POPC   C1B 8119  10.042  27.919   8.770
  216POPC   C2B 8120  10.077  27.738   8.334
  216POPC   C3B 8121  10.123  27.709   7.906
  216POPC   C4B 8122   9.907  27.533   7.565
  217POPC   NC3 8123  12.512   6.715   9.456
  217POPC   PO4 8124  13.094   6.384   9.229
  217POPC   GL1 8125  12.897   6.757   9.119
  217POPC   GL2 8126  13.182   6.922   9.247
  217POPC   C1A 8127  12.599   6.841   8.782
  217POPC   D2A 8128  12.558   6.545   8.489
  217POPC   C3A 8129  12.691   6.722   8.120
  217POPC   C4A 8130  12.739   6.438   7.847
  217POPC   C1B 8131  13.350   6.810   8.838
  217POPC   C2B 8132  13.082   6.732   8.499
  217POPC   C3B 8133  13.215   6.747   8.098
  217POPC   C4B 8134  13.271   6.441   7.823
  218POPC   NC3 8135   3.745  37.852   9.612
  218POPC   PO4 8136   3.373  37.376   9.554
  218POPC   GL1 8137   3.693  37.504   9.230
  218POPC   GL2 8138   3.717  37.891   9.111
  218POPC   C1A 8139   3.764  37.508   8.793
  218POPC   D2A 8140   3.623  37.728   8.429
  218POPC   C3A 8141   3.759  37.513   8.095
  218POPC   C4A 8142   3.523  37.532   7.755
  218POPC   C1B 8143   3.354  37.949   8.829
  218POPC   C2B 8144   3.282  38.128   8.395
  218POPC   C3B 8145   3.491  38.051   7.970
  218POPC   C4B 8146   3.542  37.979   7.497
  219POPC   NC3 8147  37.502  44.652   9.387
  219POPC   PO4 8148  38.143  44.461   9.442
  219POPC   GL1 8149  37.928  44.584   9.114
  219POPC   GL2 8150  38.016  44.874   9.105
  219POPC   C1A 8151  37.670  44.546   8.742
  219POPC   D2A 8152  37.816  44.498   8.332
  219POPC   C3A 8153  37.619  44.661   7.998
  219POPC   C4A 8154  37.651  44.590   7.569
  219POPC   C1B 8155  38.034  44.941   8.737
  219POPC   C2B 8156  37.800   0.027   8.403
  219POPC   C3B 8157  38.031  44.918   8.080
  219POPC   C4B 8158  38.001  44.928   7.677
  220POPC   NC3 8159  15.848   2.930   9.523
  220POPC   PO4 8160  15.549   2.306   9.415
  220POPC   GL1 8161  15.759   2.637   9.096
  220POPC   GL2 8162  16.016   2.935   9.048
  220POPC   C1A 8163  15.674   2.852   8.677
  220POPC   D2A 8164  15.707   2.522   8.390
  220POPC   C3A 8165  15.631   2.578   7.956
  220POPC   C4A 8166  15.763   2.573   7.510
  220POPC   C1B 8167  16.134   2.677   8.700
  220POPC   C2B 8168  16.036   2.876   8.263
  220POPC   C3B 8169  16.124   2.695   7.854
  220POPC   C4B 8170  16.108   2.904   7.429
  221POPC   NC3 8171  31.528   1.538   9.539
  221POPC   PO4 8172  31.082   2.021   9.641
  221POPC   GL1 8173  31.384   2.057   9.233
  221POPC   GL2 8174  31.628   2.360   9.182
  221POPC   C1A 8175  31.430   1.941   8.774
  221POPC   D2A 8176  31.208   1.906   8.362
  221POPC   C3A 8177  31.428   1.861   7.979
  221POPC   C4A 8178  31.823   1.675   7.901
  221POPC   C1B 8179  31.368   2.445   8.823
  221POPC   C2B 8180  31.485   2.393   8.377
  221POPC   C3B 8181  31.415   2.387   7.924
  221POPC   C4B 8182  31.503   2.180   7.533
  222POPC   NC3 8183   7.083  37.495   9.491
  222POPC   PO4 8184   7.479  38.002   9.650
  222POPC   GL1 8185   7.474  37.762   9.264
  222POPC   GL2 8186   7.167  37.863   9.139
  222POPC   C1A 8187   7.604  37.782   8.817
  222POPC   D2A 8188   7.375  37.675   8.446
  222POPC   C3A 8189   7.550  37.713   8.060
  222POPC   C4A 8190   7.397  37.649   7.638
  222POPC   C1B 8191   7.117  37.510   8.854
  222POPC   C2B 8192   7.047  37.236   8.503
  222POPC   C3B 8193   7.122  37.409   8.068
  222POPC   C4B 8194   7.098  37.246   7.654
  223POPC   NC3 8195  24.017  32.277   9.764
  223POPC   PO4 8196  23.639  32.105   9.278
  223POPC   GL1 8197  23.856  32.357   9.047
  223POPC   GL2 8198  24.084  32.142   8.944
  223POPC   C1A 8199  23.606  32.433   8.706
  223POPC   D2A 8200  23.499  32.222   8.322
  223POPC   C3A 8201  23.660  32.347   7.929
  223POPC   C4A 8202  23.980  32.502   7.665
  223POPC   C1B 8203  24.036  32.220   8.519
  223POPC   C2B 8204  23.867  31.880   8.251
  223POPC   C3B 8205  23.685  31.815   7.877
  223POPC   C4B 8206  23.754  32.055   7.508
  224POPC   NC3 8207  38.506  36.241   9.535
  224POPC   PO4 8208  38.391  35.470   9.475
  224POPC   GL1 8209  38.515  35.838   9.176
  224POPC   GL2 8210  38.302  36.173   9.086
  224POPC   C1A 8211  38.641  35.980   8.772
  224POPC   D2A 8212  38.467  35.853   8.399
  224POPC   C3A 8213  38.626  36.056   8.084
  224POPC   C4A 8214  38.475  36.189   7.716
  224POPC   C1B 8215  38.263  36.330   8.640
  224POPC   C2B 8216  38.071  36.519   8.287
  224POPC   C3B 8217  38.097  36.504   7.842
  224POPC   C4B 8218  38.164  36.622   7.404
  225POPC   NC3 8219  32.571  20.971   9.322
  225POPC   PO4 8220  33.152  20.911   9.471
  225POPC   GL1 8221  33.027  20.680   9.098
  225POPC   GL2 8222  33.364  20.661   8.966
  225POPC   C1A 8223  32.909  20.493   8.672
  225POPC   D2A 8224  32.631  20.517   8.288
  225POPC   C3A 8225  32.849  20.397   7.901
  225POPC   C4A 8226  32.913  20.630   7.518
  225POPC   C1B 8227  33.185  20.901   8.629
  225POPC   C2B 8228  33.197  20.674   8.230
  225POPC   C3B 8229  33.330  20.632   7.815
  225POPC   C4B 8230  33.698  20.401   7.721
  226POPC   NC3 8231  22.077  19.749   9.529
  226POPC   PO4 8232  22.324  20.331   9.217
  226POPC   GL1 8233  22.295  19.860   9.065
  226POPC   GL2 8234  21.977  19.622   9.049
  226POPC   C1A 8235  22.304  19.562   8.694
  226POPC   D2A 8236  22.147  19.424   8.339
  226POPC   C3A 8237  22.307  19.564   7.974
  226POPC   C4A 8238  22.434  19.965   7.799
  226POPC   C1B 8239  21.928  19.918   8.681
  226POPC   C2B 8240  22.042  19.926   8.244
  226POPC   C3B 8241  21.933  20.070   7.849
  226POPC   C4B 8242  21.618  20.079   7.539
  227POPC   NC3 8243  23.789  25.785   9.377
  227POPC   PO4 8244  23.897  26.468   9.415
  227POPC   GL1 8245  23.997  26.144   9.081
  227POPC   GL2 8246  24.230  25.785   9.152
  227POPC   C1A 8247  23.654  26.014   8.761
  227POPC   D2A 8248  23.324  25.769   8.511
  227POPC   C3A 8249  23.387  25.877   8.068
  227POPC   C4A 8250  23.572  26.235   7.849
  227POPC   C1B 8251  24.074  25.728   8.738
  227POPC   C2B 8252  24.048  26.067   8.426
  227POPC   C3B 8253  24.052  26.176   8.030
  227POPC   C4B 8254  23.980  25.859   7.802
  228POPC   NC3 8255   8.613   1.709   9.742
  228POPC   PO4 8256   8.074   2.094   9.508
  228POPC   GL1 8257   8.249   2.150   9.120
  228POPC   GL2 8258   8.006   1.989   8.964
  228POPC   C1A 8259   8.441   2.011   8.730
  228POPC   D2A 8260   8.299   1.891   8.350
  228POPC   C3A 8261   8.415   2.219   8.084
  228POPC   C4A 8262   8.285   1.999   7.738
  228POPC   C1B 8263   7.870   1.643   8.762
  228POPC   C2B 8264   7.966   1.460   8.371
  228POPC   C3B 8265   7.942   1.695   7.977
  228POPC   C4B 8266   7.959   1.679   7.516
  229POPC   NC3 8267  21.777   7.317   9.480
  229POPC   PO4 8268  21.182   7.551   9.541
  229POPC   GL1 8269  21.325   7.621   9.175
  229POPC   GL2 8270  21.003   7.522   9.068
  229POPC   C1A 8271  21.630   7.757   8.866
  229POPC   D2A 8272  21.691   7.603   8.449
  229POPC   C3A 8273  21.406   7.525   8.098
  229POPC   C4A 8274  21.589   7.738   7.728
  229POPC   C1B 8275  21.230   7.508   8.689
  229POPC   C2B 8276  21.399   7.158   8.498
  229POPC   C3B 8277  21.496   7.003   8.147
  229POPC   C4B 8278  21.455   7.032   7.753
  230POPC   NC3 8279  15.472  11.119   9.377
  230POPC   PO4 8280  16.152  11.205   9.505
  230POPC   GL1 8281  15.925  11.271   9.131
  230POPC   GL2 8282  15.871  10.918   9.072
  230POPC   C1A 8283  15.849  11.251   8.675
  230POPC   D2A 8284  16.099  11.408   8.333
  230POPC   C3A 8285  15.919  11.252   7.975
  230POPC   C4A 8286  15.672  11.356   7.692
  230POPC   C1B 8287  16.140  10.824   8.734
  230POPC   C2B 8288  16.057  10.897   8.314
  230POPC   C3B 8289  16.120  10.774   7.884
  230POPC   C4B 8290  16.001  10.988   7.501
  231POPC   NC3 8291  19.875  41.543   9.615
  231POPC   PO4 8292  19.966  42.082   9.331
  231POPC   GL1 8293  19.959  41.743   9.104
  231POPC   GL2 8294  19.683  41.619   9.124
  231POPC   C1A 8295  19.967  41.458   8.731
  231POPC   D2A 8296  19.738  41.287   8.373
  231POPC   C3A 8297  20.026  41.322   8.064
  231POPC   C4A 8298  20.083  41.633   7.790
  231POPC   C1B 8299  19.466  41.685   8.769
  231POPC   C2B 8300  19.379  41.689   8.358
  231POPC   C3B 8301  19.444  41.525   7.974
  231POPC   C4B 8302  19.627  41.718   7.656
  232POPC   NC3 8303  38.888  33.077   9.481
  232POPC   PO4 8304  39.259  32.567   9.574
  232POPC   GL1 8305  39.278  32.861   9.201
  232POPC   GL2 8306  39.294  33.249   9.208
  232POPC   C1A 8307  39.284  32.956   8.757
  232POPC   D2A 8308  39.433  32.877   8.340
  232POPC   C3A 8309  39.154  32.852   7.982
  232POPC   C4A 8310  39.212  32.965   7.544
  232POPC   C1B 8311  39.078  33.417   8.831
  232POPC   C2B 8312  39.128  33.331   8.382
  232POPC   C3B 8313  38.985  33.485   7.976
  232POPC   C4B 8314  39.048  33.461   7.527
  233POPC   NC3 8315   8.736  29.781   9.347
  233POPC   PO4 8316   9.206  30.189   9.686
  233POPC   GL1 8317   9.334  30.042   9.142
  233POPC   GL2 8318   9.095  29.794   8.990
  233POPC   C1A 8319   9.268  30.155   8.685
  233POPC   D2A 8320   9.105  29.859   8.399
  233POPC   C3A 8321   8.681  29.908   8.289
  233POPC   C4A 8322   8.689  30.055   7.882
  233POPC   C1B 8323   8.770  29.605   8.716
  233POPC   C2B 8324   8.571  29.406   8.364
  233POPC   C3B 8325   8.657  29.537   7.946
  233POPC   C4B 8326   9.044  29.668   7.864
  234POPC   NC3 8327  25.533   5.707   9.279
  234POPC   PO4 8328  25.427   6.274   9.692
  234POPC   GL1 8329  25.185   6.153   9.266
  234POPC   GL2 8330  25.253   5.962   8.960
  234POPC   C1A 8331  24.909   6.301   8.881
  234POPC   D2A 8332  25.013   6.193   8.463
  234POPC   C3A 8333  25.085   5.842   8.150
  234POPC   C4A 8334  25.119   5.846   7.675
  234POPC   C1B 8335  25.467   5.887   8.579
  234POPC   C2B 8336  25.589   5.753   8.152
  234POPC   C3B 8337  25.630   5.863   7.728
  234POPC   C4B 8338  25.522   5.990   7.289
  235POPC   NC3 8339  26.580   6.214   9.417
  235POPC   PO4 8340  27.011   6.660   9.672
  235POPC   GL1 8341  27.034   6.903   9.277
  235POPC   GL2 8342  27.056   6.587   9.114
  235POPC   C1A 8343  26.959   6.978   8.803
  235POPC   D2A 8344  27.093   6.741   8.406
  235POPC   C3A 8345  26.777   6.702   8.059
  235POPC   C4A 8346  26.301   6.705   8.008
  235POPC   C1B 8347  26.736   6.500   8.792
  235POPC   C2B 8348  26.774   6.282   8.395
  235POPC   C3B 8349  27.098   6.316   8.080
  235POPC   C4B 8350  27.164   6.511   7.704
  236POPC   NC3 8351  36.005  14.819   9.540
  236POPC   PO4 8352  36.029  15.526   9.512
  236POPC   GL1 8353  36.127  15.280   9.148
  236POPC   GL2 8354  36.282  14.952   9.121
  236POPC   C1A 8355  36.308  15.317   8.742
  236POPC   D2A 8356  36.210  15.113   8.366
  236POPC   C3A 8357  36.246  15.363   7.989
  236POPC   C4A 8358  36.305  15.555   7.556
  236POPC   C1B 8359  36.012  14.874   8.777
  236POPC   C2B 8360  35.803  14.795   8.371
  236POPC   C3B 8361  35.765  14.972   7.950
  236POPC   C4B 8362  36.004  15.128   7.606
  237POPC   NC3 8363  10.979  10.554   9.421
  237POPC   PO4 8364  11.650  10.359   9.249
  237POPC   GL1 8365  11.572  10.631   8.989
  237POPC   GL2 8366  11.250  10.726   9.034
  237POPC   C1A 8367  11.634  10.449   8.593
  237POPC   D2A 8368  11.637  10.359   8.175
  237POPC   C3A 8369  11.374  10.629   7.886
  237POPC   C4A 8370  11.368  10.889   7.485
  237POPC   C1B 8371  11.135  10.436   8.759
  237POPC   C2B 8372  11.138  10.351   8.350
  237POPC   C3B 8373  10.895  10.468   8.006
  237POPC   C4B 8374  10.944  10.657   7.575
  238POPC   NC3 8375   7.735  29.944   9.495
  238POPC   PO4 8376   7.009  29.990   9.525
  238POPC   GL1 8377   7.280  30.066   9.141
  238POPC   GL2 8378   7.593  30.271   9.091
  238POPC   C1A 8379   7.195  29.976   8.700
  238POPC   D2A 8380   7.218  29.626   8.409
  238POPC   C3A 8381   7.213  29.761   8.001
  238POPC   C4A 8382   7.380  30.033   7.707
  238POPC   C1B 8383   7.675  30.142   8.682
  238POPC   C2B 8384   7.486  30.142   8.278
  238POPC   C3B 8385   7.712  30.333   7.950
  238POPC   C4B 8386   7.879  30.205   7.594
  239POPC   NC3 8387   2.875   3.089   9.519
  239POPC   PO4 8388   2.653   2.508   9.331
  239POPC   GL1 8389   2.677   2.907   9.091
  239POPC   GL2 8390   3.026   3.034   9.019
  239POPC   C1A 8391   2.609   3.085   8.698
  239POPC   D2A 8392   2.718   2.858   8.340
  239POPC   C3A 8393   2.509   2.979   7.982
  239POPC   C4A 8394   2.558   2.805   7.557
  239POPC   C1B 8395   3.077   3.286   8.608
  239POPC   C2B 8396   2.878   3.325   8.174
  239POPC   C3B 8397   2.978   3.024   7.807
  239POPC   C4B 8398   3.042   2.758   7.416
  240POPC   NC3 8399  23.094   3.652   9.658
  240POPC   PO4 8400  23.391   4.128   9.409
  240POPC   GL1 8401  23.175   3.789   9.171
  240POPC   GL2 8402  22.841   3.771   9.211
  240POPC   C1A 8403  23.060   3.633   8.758
  240POPC   D2A 8404  23.219   3.683   8.343
  240POPC   C3A 8405  22.937   3.624   7.998
  240POPC   C4A 8406  22.863   3.482   7.570
  240POPC   C1B 8407  22.676   3.954   8.839
  240POPC   C2B 8408  22.690   3.858   8.419
  240POPC   C3B 8409  22.556   3.993   8.025
  240POPC   C4B 8410  22.786   3.981   7.669
  241POPC   NC3 8411  31.454  17.559   9.565
  241POPC   PO4 8412  31.358  17.051   9.350
  241POPC   GL1 8413  31.360  17.444   9.066
  241POPC   GL2 8414  31.375  17.819   9.129
  241POPC   C1A 8415  31.289  17.602   8.649
  241POPC   D2A 8416  31.347  17.394   8.259
  241POPC   C3A 8417  31.380  17.565   7.845
  241POPC   C4A 8418  31.469  17.379   7.404
  241POPC   C1B 8419  31.747  17.732   8.864
  241POPC   C2B 8420  31.766  17.699   8.402
  241POPC   C3B 8421  31.780  17.869   7.968
  241POPC   C4B 8422  31.663  17.835   7.515
  242POPC   NC3 8423  31.301   8.801   9.465
  242POPC   PO4 8424  31.872   8.457   9.334
  242POPC   GL1 8425  31.702   8.703   9.005
  242POPC   GL2 8426  31.356   8.745   8.965
  242POPC   C1A 8427  31.597   8.673   8.540
  242POPC   D2A 8428  31.470   8.939   8.225
  242POPC   C3A 8429  31.684   8.892   7.874
  242POPC   C4A 8430  31.811   8.581   7.587
  242POPC   C1B 8431  31.106   8.870   8.596
  242POPC   C2B 8432  31.031   9.202   8.267
  242POPC   C3B 8433  31.220   9.240   7.830
  242POPC   C4B 8434  31.318   9.379   7.382
  243POPC   NC3 8435  28.245   1.676   9.480
  243POPC   PO4 8436  28.381   2.307   9.570
  243POPC   GL1 8437  28.350   2.088   9.183
  243POPC   GL2 8438  28.599   1.853   9.115
  243POPC   C1A 8439  28.364   2.237   8.758
  243POPC   D2A 8440  28.354   2.480   8.352
  243POPC   C3A 8441  28.036   2.288   8.093
  243POPC   C4A 8442  28.004   2.056   7.719
  243POPC   C1B 8443  28.722   1.838   8.694
  243POPC   C2B 8444  28.553   1.999   8.338
  243POPC   C3B 8445  28.493   2.101   7.909
  243POPC   C4B 8446  28.434   1.836   7.547
  244POPC   NC3 8447  19.027  39.357   9.524
  244POPC   PO4 8448  18.709  38.779   9.385
  244POPC   GL1 8449  18.719  39.098   9.017
  244POPC   GL2 8450  18.942  39.408   9.038
  244POPC   C1A 8451  18.796  39.298   8.591
  244POPC   D2A 8452  19.111  39.396   8.301
  244POPC   C3A 8453  18.941  39.198   7.963
  244POPC   C4A 8454  18.945  38.805   7.756
  244POPC   C1B 8455  19.323  39.336   8.788
  244POPC   C2B 8456  19.575  39.591   8.499
  244POPC   C3B 8457  19.520  39.655   8.068
  244POPC   C4B 8458  19.364  39.372   7.738
  245POPC   NC3 8459  37.271  15.826   9.764
  245POPC   PO4 8460  37.720  15.583   9.363
  245POPC   GL1 8461  37.605  15.914   9.104
  245POPC   GL2 8462  37.878  15.960   8.971
  245POPC   C1A 8463  37.373  16.252   8.825
  245POPC   D2A 8464  37.452  16.450   8.398
  245POPC   C3A 8465  37.386  16.254   7.973
  245POPC   C4A 8466  37.660  15.914   7.793
  245POPC   C1B 8467  37.708  15.961   8.583
  245POPC   C2B 8468  37.837  16.150   8.232
  245POPC   C3B 8469  38.154  15.995   8.011
  245POPC   C4B 8470  38.131  15.897   7.599
  246POPC   NC3 8471  42.065  30.668   9.572
  246POPC   PO4 8472  42.647  30.303   9.712
  246POPC   GL1 8473  42.445  30.476   9.283
  246POPC   GL2 8474  42.292  30.824   9.152
  246POPC   C1A 8475  42.585  30.562   8.841
  246POPC   D2A 8476  42.635  30.812   8.467
  246POPC   C3A 8477  42.360  30.684   8.121
  246POPC   C4A 8478  42.481  30.616   7.696
  246POPC   C1B 8479  42.111  30.754   8.755
  246POPC   C2B 8480  41.875  30.634   8.440
  246POPC   C3B 8481  41.879  30.946   8.115
  246POPC   C4B 8482  41.965  30.752   7.740
  247POPC   NC3 8483  12.312  18.842   9.810
  247POPC   PO4 8484  12.961  19.125   9.603
  247POPC   GL1 8485  12.982  19.227   9.185
  247POPC   GL2 8486  12.944  18.917   9.050
  247POPC   C1A 8487  12.870  19.333   8.751
  247POPC   D2A 8488  12.868  19.148   8.328
  247POPC   C3A 8489  12.889  19.421   7.927
  247POPC   C4A 8490  12.659  19.174   7.646
  247POPC   C1B 8491  13.183  18.844   8.648
  247POPC   C2B 8492  13.488  18.725   8.325
  247POPC   C3B 8493  13.290  18.616   7.955
  247POPC   C4B 8494  13.074  18.843   7.644
  248POPC   NC3 8495  18.821  14.630   9.514
  248POPC   PO4 8496  18.753  13.958   9.508
  248POPC   GL1 8497  18.919  14.246   9.185
  248POPC   GL2 8498  18.628  14.372   9.124
  248POPC   C1A 8499  19.160  14.309   8.785
  248POPC   D2A 8500  19.054  14.447   8.362
  248POPC   C3A 8501  19.280  14.277   7.963
  248POPC   C4A 8502  19.326  14.234   7.513
  248POPC   C1B 8503  18.494  14.394   8.713
  248POPC   C2B 8504  18.543  14.547   8.295
  248POPC   C3B 8505  18.780  14.367   7.935
  248POPC   C4B 8506  18.844  14.437   7.492
  249POPC   NC3 8507   6.739  12.602   9.461
  249POPC   PO4 8508   6.466  13.045   9.266
  249POPC   GL1 8509   6.477  12.629   9.009
  249POPC   GL2 8510   6.793  12.406   9.004
  249POPC   C1A 8511   6.347  12.649   8.585
  249POPC   D2A 8512   6.517  12.933   8.294
  249POPC   C3A 8513   6.583  12.865   7.850
  249POPC   C4A 8514   6.480  13.029   7.417
  249POPC   C1B 8515   6.847  12.552   8.582
  249POPC   C2B 8516   6.800  12.485   8.153
  249POPC   C3B 8517   7.040  12.527   7.770
  249POPC   C4B 8518   7.078  12.399   7.296
  250POPC   NC3 8519  26.946  23.200   9.267
  250POPC   PO4 8520  26.360  22.894   9.122
  250POPC   GL1 8521  26.779  22.775   9.026
  250POPC   GL2 8522  26.919  22.508   9.179
  250POPC   C1A 8523  26.907  22.893   8.623
  250POPC   D2A 8524  26.600  23.139   8.378
  250POPC   C3A 8525  26.591  23.046   7.947
  250POPC   C4A 8526  26.905  23.264   7.699
  250POPC   C1B 8527  27.167  22.453   8.818
  250POPC   C2B 8528  27.386  22.433   8.421
  250POPC   C3B 8529  27.346  22.559   8.012
  250POPC   C4B 8530  27.017  22.776   7.858
  251POPC   NC3 8531   8.527  23.895   9.839
  251POPC   PO4 8532   8.142  23.408   9.555
  251POPC   GL1 8533   8.213  23.650   9.126
  251POPC   GL2 8534   8.341  23.459   8.901
  251POPC   C1A 8535   8.261  23.997   8.838
  251POPC   D2A 8536   8.167  24.134   8.436
  251POPC   C3A 8537   8.092  23.842   8.111
  251POPC   C4A 8538   8.254  23.788   7.704
  251POPC   C1B 8539   8.042  23.601   8.588
  251POPC   C2B 8540   7.803  23.429   8.255
  251POPC   C3B 8541   7.908  23.429   7.817
  251POPC   C4B 8542   8.015  23.465   7.361
  252POPC   NC3 8543  39.385  19.506   9.477
  252POPC   PO4 8544  38.756  19.792   9.678
  252POPC   GL1 8545  39.088  19.932   9.327
  252POPC   GL2 8546  39.190  19.670   9.047
  252POPC   C1A 8547  39.198  20.137   8.912
  252POPC   D2A 8548  39.115  19.873   8.532
  252POPC   C3A 8549  39.335  20.064   8.159
  252POPC   C4A 8550  39.528  20.261   7.774
  252POPC   C1B 8551  39.302  19.375   8.723
  252POPC   C2B 8552  39.184  19.285   8.313
  252POPC   C3B 8553  39.037  19.561   8.004
  252POPC   C4B 8554  39.252  19.816   7.721
  253POPC   NC3 8555  25.290  19.705   9.560
  253POPC   PO4 8556  25.062  20.294   9.823
  253POPC   GL1 8557  25.371  20.254   9.348
  253POPC   GL2 8558  25.428  19.911   9.129
  253POPC   C1A 8559  25.324  20.272   8.814
  253POPC   D2A 8560  24.988  20.179   8.444
  253POPC   C3A 8561  25.072  20.045   7.998
  253POPC   C4A 8562  25.385  19.755   7.762
  253POPC   C1B 8563  25.144  19.767   8.739
  253POPC   C2B 8564  25.174  19.596   8.284
  253POPC   C3B 8565  24.926  19.571   7.889
  253POPC   C4B 8566  24.963  19.575   7.420
  254POPC   NC3 8567  14.748  13.029   9.482
  254POPC   PO4 8568  15.400  12.857   9.532
  254POPC   GL1 8569  15.382  12.760   9.148
  254POPC   GL2 8570  15.075  12.539   9.222
  254POPC   C1A 8571  15.459  12.899   8.723
  254POPC   D2A 8572  15.196  12.897   8.357
  254POPC   C3A 8573  15.294  12.859   7.906
  254POPC   C4A 8574  14.860  12.891   7.685
  254POPC   C1B 8575  15.126  12.527   8.781
  254POPC   C2B 8576  15.122  12.395   8.396
  254POPC   C3B 8577  14.943  12.524   8.048
  254POPC   C4B 8578  15.119  12.444   7.646
  255POPC   NC3 8579   8.724  26.043   9.449
  255POPC   PO4 8580   9.296  25.833   9.255
  255POPC   GL1 8581   9.022  26.009   9.029
  255POPC   GL2 8582   8.920  26.326   9.078
  255POPC   C1A 8583   8.995  26.024   8.615
  255POPC   D2A 8584   8.937  25.764   8.301
  255POPC   C3A 8585   9.302  25.722   8.081
  255POPC   C4A 8586   9.156  25.860   7.702
  255POPC   C1B 8587   8.659  26.370   8.724
  255POPC   C2B 8588   8.820  26.447   8.321
  255POPC   C3B 8589   8.816  26.183   7.932
  255POPC   C4B 8590   8.483  26.092   7.603
  256POPC   NC3 8591   3.647  40.833   9.686
  256POPC   PO4 8592   4.109  40.442   9.453
  256POPC   GL1 8593   4.034  40.456   8.989
  256POPC   GL2 8594   4.344  40.637   8.955
  256POPC   C1A 8595   4.142  40.520   8.514
  256POPC   D2A 8596   4.482  40.581   8.191
  256POPC   C3A 8597   4.258  40.758   7.843
  256POPC   C4A 8598   3.902  40.749   7.579
  256POPC   C1B 8599   4.468  40.907   8.601
  256POPC   C2B 8600   4.538  41.118   8.209
  256POPC   C3B 8601   4.367  41.242   7.830
  256POPC   C4B 8602   4.441  41.088   7.418
  257POPC   NC3 8603  24.138  41.885   9.419
  257POPC   PO4 8604  23.772  41.328   9.523
  257POPC   GL1 8605  23.971  41.400   9.135
  257POPC   GL2 8606  23.778  41.692   9.081
  257POPC   C1A 8607  24.040  41.325   8.691
  257POPC   D2A 8608  23.774  41.350   8.294
  257POPC   C3A 8609  23.816  41.496   7.842
  257POPC   C4A 8610  24.066  41.558   7.464
  257POPC   C1B 8611  23.616  41.709   8.654
  257POPC   C2B 8612  23.330  41.673   8.287
  257POPC   C3B 8613  23.349  41.760   7.828
  257POPC   C4B 8614  23.631  41.840   7.482
  258POPC   NC3 8615   8.921  28.906   9.795
  258POPC   PO4 8616   9.068  29.429   9.380
  258POPC   GL1 8617   9.068  29.083   9.109
  258POPC   GL2 8618   8.832  28.865   9.285
  258POPC   C1A 8619   9.004  29.151   8.654
  258POPC   D2A 8620   9.094  29.369   8.288
  258POPC   C3A 8621   9.042  29.129   7.931
  258POPC   C4A 8622   9.211  28.894   7.594
  258POPC   C1B 8623   8.651  28.856   8.878
  258POPC   C2B 8624   8.482  28.898   8.456
  258POPC   C3B 8625   8.585  28.678   8.076
  258POPC   C4B 8626   8.721  28.764   7.664
  259POPC   NC3 8627  23.335  27.653   9.420
  259POPC   PO4 8628  23.930  27.228   9.574
  259POPC   GL1 8629  23.707  27.378   9.209
  259POPC   GL2 8630  23.811  27.714   9.093
  259POPC   C1A 8631  23.458  27.404   8.798
  259POPC   D2A 8632  23.626  27.437   8.407
  259POPC   C3A 8633  23.454  27.387   8.035
  259POPC   C4A 8634  23.519  27.716   7.772
  259POPC   C1B 8635  23.981  27.389   8.789
  259POPC   C2B 8636  24.134  27.374   8.376
  259POPC   C3B 8637  23.960  27.523   7.995
  259POPC   C4B 8638  23.828  27.290   7.645
  260POPC   NC3 8639  37.945  13.189   9.331
  260POPC   PO4 8640  37.550  12.594   9.364
  260POPC   GL1 8641  37.852  12.691   9.129
  260POPC   GL2 8642  37.680  12.935   8.937
  260POPC   C1A 8643  37.948  12.509   8.752
  260POPC   D2A 8644  37.763  12.739   8.413
  260POPC   C3A 8645  37.789  12.585   7.992
  260POPC   C4A 8646  37.716  12.709   7.544
  260POPC   C1B 8647  38.051  13.046   8.713
  260POPC   C2B 8648  38.013  13.198   8.308
  260POPC   C3B 8649  37.926  13.097   7.889
  260POPC   C4B 8650  37.966  13.307   7.522
  261POPC   NC3 8651  23.338  35.983   9.524
  261POPC   PO4 8652  23.967  36.321   9.561
  261POPC   GL1 8653  23.695  36.201   9.229
  261POPC   GL2 8654  23.382  36.399   9.198
  261POPC   C1A 8655  23.635  36.114   8.809
  261POPC   D2A 8656  23.792  36.127   8.404
  261POPC   C3A 8657  23.508  36.017   8.104
  261POPC   C4A 8658  23.573  36.015   7.689
  261POPC   C1B 8659  23.403  36.585   8.802
  261POPC   C2B 8660  23.335  36.392   8.412
  261POPC   C3B 8661  23.331  36.502   7.972
  261POPC   C4B 8662  23.136  36.297   7.639
  262POPC   NC3 8663  10.258  10.062   9.353
  262POPC   PO4 8664  10.533  10.675   9.358
  262POPC   GL1 8665  10.681  10.427   9.023
  262POPC   GL2 8666  10.745  10.748   8.899
  262POPC   C1A 8667  10.538  10.393   8.591
  262POPC   D2A 8668  10.434  10.020   8.350
  262POPC   C3A 8669  10.425  10.251   8.009
  262POPC   C4A 8670  10.595  10.288   7.609
  262POPC   C1B 8671  10.854  10.789   8.478
  262POPC   C2B 8672  10.500  10.737   8.208
  262POPC   C3B 8673  10.501  10.755   7.792
  262POPC   C4B 8674  10.537  10.900   7.373
  263POPC   NC3 8675  41.071  33.636   9.523
  263POPC   PO4 8676  40.634  34.133   9.470
  263POPC   GL1 8677  40.841  33.930   9.162
  263POPC   GL2 8678  41.138  34.053   9.053
  263POPC   C1A 8679  40.870  33.719   8.782
  263POPC   D2A 8680  40.660  33.804   8.414
  263POPC   C3A 8681  40.921  33.669   8.109
  263POPC   C4A 8682  40.839  33.577   7.699
  263POPC   C1B 8683  40.888  34.216   8.684
  263POPC   C2B 8684  41.001  34.200   8.204
  263POPC   C3B 8685  41.117  34.006   7.764
  263POPC   C4B 8686  41.080  34.181   7.309
  264POPC   NC3 8687  35.020  42.072   9.470
  264POPC   PO4 8688  35.643  42.032   9.399
  264POPC   GL1 8689  35.353  41.967   9.072
  264POPC   GL2 8690  35.233  42.313   9.087
  264POPC   C1A 8691  35.184  42.051   8.651
  264POPC   D2A 8692  34.960  42.026   8.246
  264POPC   C3A 8693  35.221  42.188   7.888
  264POPC   C4A 8694  35.448  41.988   7.531
  264POPC   C1B 8695  35.582  42.367   8.777
  264POPC   C2B 8696  35.790  42.413   8.374
  264POPC   C3B 8697  35.662  42.455   7.960
  264POPC   C4B 8698  35.494  42.499   7.577
  265POPC   NC3 8699  38.544   1.118   9.577
  265POPC   PO4 8700  37.898   1.283   9.461
  265POPC   GL1 8701  38.209   1.100   9.203
  265POPC   GL2 8702  38.391   1.359   9.156
  265POPC   C1A 8703  38.500   0.964   8.831
  265POPC   D2A 8704  38.343   0.824   8.390
  265POPC   C3A 8705  38.623   0.952   8.039
  265POPC   C4A 8706  38.535   1.030   7.611
  265POPC   C1B 8707  38.492   1.485   8.772
  265POPC   C2B 8708  38.504   1.305   8.382
  265POPC   C3B 8709  38.470   1.430   7.932
  265POPC   C4B 8710  38.590   1.601   7.501
  266POPC   NC3 8711  39.437  39.733   9.237
  266POPC   PO4 8712  39.049  40.162   9.661
  266POPC   GL1 8713  39.028  40.159   9.160
  266POPC   GL2 8714  39.315  40.212   9.012
  266POPC   C1A 8715  39.032  39.894   8.734
  266POPC   D2A 8716  39.213  39.582   8.463
  266POPC   C3A 8717  39.184  39.706   8.052
  266POPC   C4A 8718  39.072  40.119   7.933
  266POPC   C1B 8719  39.450  40.310   8.599
  266POPC   C2B 8720  39.514  40.061   8.242
  266POPC   C3B 8721  39.546  40.062   7.801
  266POPC   C4B 8722  39.614  40.195   7.402
  267POPC   NC3 8723  36.694  25.898   9.989
  267POPC   PO4 8724  37.045  26.396   9.659
  267POPC   GL1 8725  36.834  26.214   9.230
  267POPC   GL2 8726  36.808  25.858   9.202
  267POPC   C1A 8727  36.926  26.200   8.741
  267POPC   D2A 8728  37.171  25.930   8.439
  267POPC   C3A 8729  37.101  25.977   8.008
  267POPC   C4A 8730  36.754  26.245   7.867
  267POPC   C1B 8731  36.874  25.672   8.796
  267POPC   C2B 8732  36.676  25.530   8.425
  267POPC   C3B 8733  36.585  25.786   8.069
  267POPC   C4B 8734  36.627  25.816   7.621
  268POPC   NC3 8735  22.350   5.949   9.653
  268POPC   PO4 8736  21.697   6.180   9.458
  268POPC   GL1 8737  22.016   5.936   9.191
  268POPC   GL2 8738  22.331   5.719   9.198
  268POPC   C1A 8739  21.946   5.848   8.730
  268POPC   D2A 8740  21.975   5.556   8.380
  268POPC   C3A 8741  22.042   5.702   7.971
  268POPC   C4A 8742  22.106   5.990   7.614
  268POPC   C1B 8743  22.446   5.950   8.862
  268POPC   C2B 8744  22.352   5.911   8.439
  268POPC   C3B 8745  22.456   5.991   8.043
  268POPC   C4B 8746  22.555   5.795   7.695
  269POPC   NC3 8747  34.243   4.581   9.708
  269POPC   PO4 8748  34.188   5.261   9.509
  269POPC   GL1 8749  34.328   5.007   9.153
  269POPC   GL2 8750  34.585   5.183   8.939
  269POPC   C1A 8751  34.208   4.894   8.726
  269POPC   D2A 8752  34.554   4.890   8.463
  269POPC   C3A 8753  34.551   4.996   8.045
  269POPC   C4A 8754  34.865   4.856   7.725
  269POPC   C1B 8755  34.342   5.441   8.643
  269POPC   C2B 8756  34.286   5.483   8.191
  269POPC   C3B 8757  34.399   5.403   7.763
  269POPC   C4B 8758  34.430   5.015   7.549
  270POPC   NC3 8759   4.836  33.990   9.985
  270POPC   PO4 8760   4.383  33.852   9.450
  270POPC   GL1 8761   4.487  33.697   9.078
  270POPC   GL2 8762   4.722  33.986   9.124
  270POPC   C1A 8763   4.226  33.752   8.708
  270POPC   D2A 8764   4.188  34.027   8.416
  270POPC   C3A 8765   4.167  33.740   8.071
  270POPC   C4A 8766   4.381  33.693   7.667
  270POPC   C1B 8767   4.615  34.054   8.749
  270POPC   C2B 8768   4.631  33.767   8.409
  270POPC   C3B 8769   4.612  33.974   8.060
  270POPC   C4B 8770   4.776  34.031   7.702
  271POPC   NC3 8771  33.725  33.753   9.556
  271POPC   PO4 8772  34.193  34.083   9.425
  271POPC   GL1 8773  33.879  33.923   9.088
  271POPC   GL2 8774  33.902  33.572   9.112
  271POPC   C1A 8775  33.935  33.764   8.648
  271POPC   D2A 8776  34.104  33.615   8.283
  271POPC   C3A 8777  33.910  33.744   7.930
  271POPC   C4A 8778  33.858  34.139   7.733
  271POPC   C1B 8779  33.600  33.425   8.845
  271POPC   C2B 8780  33.397  33.443   8.438
  271POPC   C3B 8781  33.465  33.394   8.011
  271POPC   C4B 8782  33.764  33.299   7.683
  272POPC   NC3 8783  21.332  38.932   9.801
  272POPC   PO4 8784  21.503  38.315   9.487
  272POPC   GL1 8785  21.291  38.427   9.148
  272POPC   GL2 8786  21.208  38.781   9.284
  272POPC   C1A 8787  21.352  38.350   8.692
  272POPC   D2A 8788  21.492  38.477   8.263
  272POPC   C3A 8789  21.251  38.369   7.946
  272POPC   C4A 8790  21.245  38.266   7.533
  272POPC   C1B 8791  21.131  38.794   8.850
  272POPC   C2B 8792  21.052  38.723   8.421
  272POPC   C3B 8793  21.245  38.880   8.029
  272POPC   C4B 8794  21.392  38.766   7.642
  273POPC   NC3 8795   4.447   2.551   9.587
  273POPC   PO4 8796   4.242   3.170   9.719
  273POPC   GL1 8797   4.210   2.970   9.319
  273POPC   GL2 8798   4.548   2.955   9.270
  273POPC   C1A 8799   4.227   2.943   8.835
  273POPC   D2A 8800   4.361   2.586   8.564
  273POPC   C3A 8801   4.397   2.581   8.128
  273POPC   C4A 8802   4.159   2.756   7.805
  273POPC   C1B 8803   4.711   2.781   8.887
  273POPC   C2B 8804   4.770   2.893   8.439
  273POPC   C3B 8805   4.699   2.960   8.001
  273POPC   C4B 8806   4.686   2.675   7.650
  274POPC   NC3 8807  21.540  34.635   9.522
  274POPC   PO4 8808  21.058  34.110   9.568
  274POPC   GL1 8809  21.325  34.299   9.230
  274POPC   GL2 8810  21.040  34.487   9.166
  274POPC   C1A 8811  21.402  34.612   8.841
  274POPC   D2A 8812  21.100  34.602   8.450
  274POPC   C3A 8813  21.363  34.598   8.062
  274POPC   C4A 8814  21.473  34.802   7.675
  274POPC   C1B 8815  21.137  34.199   8.774
  274POPC   C2B 8816  21.405  34.204   8.403
  274POPC   C3B 8817  21.250  34.099   7.986
  274POPC   C4B 8818  21.308  34.306   7.595
  275POPC   NC3 8819  34.657   6.401   9.641
  275POPC   PO4 8820  34.800   7.027   9.597
  275POPC   GL1 8821  34.657   6.753   9.248
  275POPC   GL2 8822  34.308   6.602   9.288
  275POPC   C1A 8823  34.641   6.807   8.804
  275POPC   D2A 8824  34.843   6.803   8.416
  275POPC   C3A 8825  34.667   6.883   8.037
  275POPC   C4A 8826  34.849   7.064   7.679
  275POPC   C1B 8827  34.479   6.346   8.974
  275POPC   C2B 8828  34.610   6.361   8.540
  275POPC   C3B 8829  34.837   6.379   8.140
  275POPC   C4B 8830  34.669   6.458   7.743
  276POPC   NC3 8831   6.120   5.282   9.512
  276POPC   PO4 8832   5.462   5.113   9.603
  276POPC   GL1 8833   5.726   5.069   9.223
  276POPC   GL2 8834   6.074   4.944   9.152
  276POPC   C1A 8835   5.795   5.079   8.768
  276POPC   D2A 8836   5.941   5.178   8.387
  276POPC   C3A 8837   5.663   5.012   8.116
  276POPC   C4A 8838   5.796   5.236   7.758
  276POPC   C1B 8839   6.267   4.780   8.777
  276POPC   C2B 8840   6.173   4.713   8.369
  276POPC   C3B 8841   6.085   4.791   7.950
  276POPC   C4B 8842   5.751   4.702   7.687
  277POPC   NC3 8843  30.389  42.427   9.574
  277POPC   PO4 8844  29.887  41.962   9.538
  277POPC   GL1 8845  29.949  42.184   9.153
  277POPC   GL2 8846  30.069  42.505   9.133
  277POPC   C1A 8847  30.065  42.063   8.765
  277POPC   D2A 8848  30.063  42.247   8.367
  277POPC   C3A 8849  29.772  42.106   8.064
  277POPC   C4A 8850  30.080  42.082   7.717
  277POPC   C1B 8851  29.788  42.505   8.760
  277POPC   C2B 8852  29.665  42.537   8.329
  277POPC   C3B 8853  29.953  42.558   7.920
  277POPC   C4B 8854  29.853  42.490   7.470
  278POPC   NC3 8855  38.414  34.947   9.504
  278POPC   PO4 8856  39.012  35.068   9.214
  278POPC   GL1 8857  38.567  35.195   9.078
  278POPC   GL2 8858  38.182  35.143   9.078
  278POPC   C1A 8859  38.481  35.485   8.775
  278POPC   D2A 8860  38.736  35.404   8.419
  278POPC   C3A 8861  38.520  35.410   8.068
  278POPC   C4A 8862  38.484  35.678   7.768
  278POPC   C1B 8863  37.974  35.395   8.766
  278POPC   C2B 8864  38.058  35.550   8.313
  278POPC   C3B 8865  38.032  35.436   7.840
  278POPC   C4B 8866  38.223  35.484   7.389
  279POPC   NC3 8867   8.670  24.375   9.423
  279POPC   PO4 8868   9.288  24.575   9.400
  279POPC   GL1 8869   9.142  24.778   9.043
  279POPC   GL2 8870   8.850  24.584   8.997
  279POPC   C1A 8871   9.182  24.725   8.607
  279POPC   D2A 8872   9.059  24.362   8.366
  279POPC   C3A 8873   8.895  24.451   7.956
  279POPC   C4A 8874   9.061  24.587   7.576
  279POPC   C1B 8875   8.730  24.225   8.749
  279POPC   C2B 8876   8.677  24.018   8.376
  279POPC   C3B 8877   8.531  24.090   7.991
  279POPC   C4B 8878   8.642  24.153   7.586
  280POPC   NC3 8879  16.303  15.212   9.405
  280POPC   PO4 8880  16.993  15.449   9.382
  280POPC   GL1 8881  16.758  15.406   9.025
  280POPC   GL2 8882  16.636  15.054   8.996
  280POPC   C1A 8883  16.659  15.372   8.590
  280POPC   D2A 8884  16.638  15.057   8.303
  280POPC   C3A 8885  16.747  15.227   7.962
  280POPC   C4A 8886  16.649  15.231   7.557
  280POPC   C1B 8887  16.960  14.945   8.669
  280POPC   C2B 8888  17.101  14.871   8.201
  280POPC   C3B 8889  17.077  14.933   7.726
  280POPC   C4B 8890  17.001  15.028   7.250
  281POPC   NC3 8891  29.840  34.323   9.556
  281POPC   PO4 8892  30.181  34.728   9.396
  281POPC   GL1 8893  29.894  34.563   9.067
  281POPC   GL2 8894  29.908  34.207   9.055
  281POPC   C1A 8895  29.872  34.444   8.611
  281POPC   D2A 8896  29.647  34.515   8.233
  281POPC   C3A 8897  29.882  34.502   7.840
  281POPC   C4A 8898  29.812  34.685   7.413
  281POPC   C1B 8899  29.547  34.051   8.790
  281POPC   C2B 8900  29.401  34.073   8.363
  281POPC   C3B 8901  29.451  34.150   7.913
  281POPC   C4B 8902  29.607  34.230   7.494
  282POPC   NC3 8903  12.954  11.020   9.386
  282POPC   PO4 8904  12.650  11.621   9.333
  282POPC   GL1 8905  12.815  11.651   8.962
  282POPC   GL2 8906  12.991  11.390   9.015
  282POPC   C1A 8907  12.781  11.401   8.553
  282POPC   D2A 8908  12.932  11.525   8.150
  282POPC   C3A 8909  12.696  11.313   7.913
  282POPC   C4A 8910  12.646  11.303   7.518
  282POPC   C1B 8911  13.237  11.569   8.665
  282POPC   C2B 8912  13.372  11.353   8.322
  282POPC   C3B 8913  13.248  11.188   7.917
  282POPC   C4B 8914  13.405  10.825   7.710
  283POPC   NC3 8915  10.170  39.782   9.325
  283POPC   PO4 8916  10.814  40.169   9.358
  283POPC   GL1 8917  10.807  40.106   8.953
  283POPC   GL2 8918  10.567  39.853   9.025
  283POPC   C1A 8919  10.598  40.233   8.564
  283POPC   D2A 8920  10.212  40.078   8.348
  283POPC   C3A 8921  10.323  39.982   7.932
  283POPC   C4A 8922  10.693  40.219   7.872
  283POPC   C1B 8923  10.519  39.730   8.614
  283POPC   C2B 8924  10.684  39.789   8.219
  283POPC   C3B 8925  10.689  39.597   7.822
  283POPC   C4B 8926  10.432  39.513   7.493
  284POPC   NC3 8927   8.694   9.760   9.466
  284POPC   PO4 8928   9.310   9.464   9.765
  284POPC   GL1 8929   9.258   9.802   9.356
  284POPC   GL2 8930   8.955   9.749   9.046
  284POPC   C1A 8931   9.382   9.946   8.898
  284POPC   D2A 8932   9.150   9.798   8.505
  284POPC   C3A 8933   9.165   9.927   8.036
  284POPC   C4A 8934   9.519   9.910   7.749
  284POPC   C1B 8935   8.712   9.589   8.657
  284POPC   C2B 8936   8.752   9.633   8.200
  284POPC   C3B 8937   8.697   9.761   7.779
  284POPC   C4B 8938   8.599   9.930   7.353
  285POPC   NC3 8939  21.070  42.802   9.503
  285POPC   PO4 8940  21.615  42.341   9.434
  285POPC   GL1 8941  21.576  42.051   9.067
  285POPC   GL2 8942  21.248  42.197   9.096
  285POPC   C1A 8943  21.531  41.946   8.604
  285POPC   D2A 8944  21.246  42.145   8.313
  285POPC   C3A 8945  21.451  42.321   7.957
  285POPC   C4A 8946  21.726  42.196   7.629
  285POPC   C1B 8947  21.407  42.421   8.730
  285POPC   C2B 8948  21.079  42.597   8.466
  285POPC   C3B 8949  21.009  42.552   8.056
  285POPC   C4B 8950  20.929  42.633   7.622
  286POPC   NC3 8951   5.084  34.989   9.305
  286POPC   PO4 8952   5.262  35.626   9.413
  286POPC   GL1 8953   5.217  35.407   9.045
  286POPC   GL2 8954   5.517  35.207   9.047
  286POPC   C1A 8955   5.032  35.290   8.643
  286POPC   D2A 8956   4.811  35.604   8.422
  286POPC   C3A 8957   4.801  35.694   7.968
  286POPC   C4A 8958   5.129  35.747   7.646
  286POPC   C1B 8959   5.523  35.462   8.651
  286POPC   C2B 8960   5.314  35.516   8.246
  286POPC   C3B 8961   5.370  35.218   7.921
  286POPC   C4B 8962   5.482  35.244   7.472
  287POPC   NC3 8963  21.945  22.200   9.871
  287POPC   PO4 8964  22.348  22.421   9.411
  287POPC   GL1 8965  22.113  22.205   9.150
  287POPC   GL2 8966  21.874  21.956   9.290
  287POPC   C1A 8967  22.275  22.169   8.770
  287POPC   D2A 8968  22.295  22.377   8.417
  287POPC   C3A 8969  22.352  22.113   8.060
  287POPC   C4A 8970  22.270  22.279   7.673
  287POPC   C1B 8971  21.868  21.854   8.853
  287POPC   C2B 8972  21.984  21.942   8.403
  287POPC   C3B 8973  21.871  21.922   7.950
  287POPC   C4B 8974  21.922  21.952   7.500
  288POPC   NC3 8975  37.313  13.002   9.287
  288POPC   PO4 8976  36.748  13.135   9.493
  288POPC   GL1 8977  36.847  12.906   9.081
  288POPC   GL2 8978  37.086  12.594   9.070
  288POPC   C1A 8979  36.706  12.664   8.703
  288POPC   D2A 8980  36.849  12.481   8.302
  288POPC   C3A 8981  36.863  12.792   7.937
  288POPC   C4A 8982  36.728  13.059   7.576
  288POPC   C1B 8983  37.204  12.796   8.657
  288POPC   C2B 8984  37.304  12.689   8.221
  288POPC   C3B 8985  37.434  12.957   7.895
  288POPC   C4B 8986  37.245  13.016   7.482
  289POPC   NC3 8987  42.916  35.679   9.295
  289POPC   PO4 8988  43.082  36.297   9.633
  289POPC   GL1 8989  43.255  36.204   9.238
  289POPC   GL2 8990  42.947  36.204   9.122
  289POPC   C1A 8991  43.316  36.130   8.786
  289POPC   D2A 8992  43.166  36.085   8.379
  289POPC   C3A 8993  43.341  36.193   7.981
  289POPC   C4A 8994  43.279  36.089   7.551
  289POPC   C1B 8995  42.819  36.382   8.730
  289POPC   C2B 8996  42.673  36.205   8.332
  289POPC   C3B 8997  42.847  36.054   7.969
  289POPC   C4B 8998  42.828  36.295   7.642
  290POPC   NC3 8999   1.807   1.662   9.477
  290POPC   PO4 9000   2.387   1.672   9.422
  290POPC   GL1 9001   2.156   1.408   9.114
  290POPC   GL2 9002   1.819   1.488   9.003
  290POPC   C1A 9003   2.157   1.227   8.682
  290POPC   D2A 9004   1.934   1.365   8.297
  290POPC   C3A 9005   2.119   1.267   7.904
  290POPC   C4A 9006   2.092   1.077   7.478
  290POPC   C1B 9007   1.613   1.758   8.716
  290POPC   C2B 9008   1.751   1.871   8.315
  290POPC   C3B 9009   1.770   1.728   7.891
  290POPC   C4B 9010   1.997   1.601   7.534
  291POPC   NC3 9011  30.356  22.865   9.384
  291POPC   PO4 9012  30.883  23.101   9.458
  291POPC   GL1 9013  30.761  22.889   9.076
  291POPC   GL2 9014  30.615  22.546   9.054
  291POPC   C1A 9015  30.637  22.914   8.653
  291POPC   D2A 9016  30.600  22.739   8.257
  291POPC   C3A 9017  30.653  22.966   7.862
  291POPC   C4A 9018  30.440  22.852   7.487
  291POPC   C1B 9019  30.974  22.535   8.787
  291POPC   C2B 9020  31.124  22.503   8.376
  291POPC   C3B 9021  31.020  22.599   7.967
  291POPC   C4B 9022  31.030  22.364   7.624
  292POPC   NC3 9023  35.567  15.557   9.546
  292POPC   PO4 9024  35.550  14.949   9.549
  292POPC   GL1 9025  35.690  14.939   9.155
  292POPC   GL2 9026  35.606  15.289   9.111
  292POPC   C1A 9027  35.489  14.868   8.764
  292POPC   D2A 9028  35.324  15.138   8.435
  292POPC   C3A 9029  35.200  15.011   8.025
  292POPC   C4A 9030  35.351  14.705   7.808
  292POPC   C1B 9031  35.794  15.335   8.729
  292POPC   C2B 9032  35.767  15.338   8.312
  292POPC   C3B 9033  35.491  15.423   7.975
  292POPC   C4B 9034  35.501  15.244   7.547
  293POPC   NC3 9035   0.026  38.114   9.402
  293POPC   PO4 9036  44.699  38.626   9.671
  293POPC   GL1 9037  44.664  38.511   9.206
  293POPC   GL2 9038  44.293  38.451   9.221
  293POPC   C1A 9039  44.911  38.333   8.800
  293POPC   D2A 9040   0.037  38.112   8.385
  293POPC   C3A 9041  44.857  38.403   8.076
  293POPC   C4A 9042  44.876  38.631   7.688
  293POPC   C1B 9043  44.413  38.191   8.842
  293POPC   C2B 9044  44.528  38.075   8.419
  293POPC   C3B 9045  44.413  38.130   8.008
  293POPC   C4B 9046  44.409  38.425   7.679
  294POPC   NC3 9047  24.825  10.603   9.493
  294POPC   PO4 9048  25.362  10.139   9.610
  294POPC   GL1 9049  25.121  10.205   9.209
  294POPC   GL2 9050  24.852  10.355   9.039
  294POPC   C1A 9051  25.206  10.152   8.749
  294POPC   D2A 9052  25.446  10.352   8.405
  294POPC   C3A 9053  25.331  10.484   7.981
  294POPC   C4A 9054  25.107  10.391   7.567
  294POPC   C1B 9055  25.007  10.641   8.716
  294POPC   C2B 9056  25.056  10.818   8.296
  294POPC   C3B 9057  24.887  10.746   7.884
  294POPC   C4B 9058  24.831  10.806   7.443
  295POPC   NC3 9059  12.791  41.925   9.490
  295POPC   PO4 9060  12.692  42.506   9.772
  295POPC   GL1 9061  12.711  42.417   9.298
  295POPC   GL2 9062  12.449  42.519   9.044
  295POPC   C1A 9063  12.916  42.415   8.873
  295POPC   D2A 9064  13.128  42.134   8.577
  295POPC   C3A 9065  12.950  42.178   8.162
  295POPC   C4A 9066  13.107  42.373   7.826
  295POPC   C1B 9067  12.451  42.644   8.613
  295POPC   C2B 9068  12.652  42.621   8.201
  295POPC   C3B 9069  12.712  42.694   7.745
  295POPC   C4B 9070  12.509  42.673   7.306
  296POPC   NC3 9071  40.833   1.599   9.529
  296POPC   PO4 9072  40.956   0.905   9.563
  296POPC   GL1 9073  40.856   1.216   9.182
  296POPC   GL2 9074  40.515   1.131   9.016
  296POPC   C1A 9075  40.875   1.293   8.713
  296POPC   D2A 9076  40.681   0.956   8.473
  296POPC   C3A 9077  40.830   0.844   8.070
  296POPC   C4A 9078  40.921   1.096   7.726
  296POPC   C1B 9079  40.381   1.383   8.640
  296POPC   C2B 9080  40.546   1.384   8.218
  296POPC   C3B 9081  40.462   1.315   7.788
  296POPC   C4B 9082  40.549   1.289   7.309
  297POPC   NC3 9083  33.412   0.523   9.560
  297POPC   PO4 9084  32.668   0.573   9.457
  297POPC   GL1 9085  32.872   0.533   9.089
  297POPC   GL2 9086  33.219   0.449   9.088
  297POPC   C1A 9087  32.930   0.263   8.712
  297POPC   D2A 9088  33.212   0.337   8.384
  297POPC   C3A 9089  32.998   0.490   8.024
  297POPC   C4A 9090  32.837   0.194   7.727
  297POPC   C1B 9091  33.115   0.756   8.712
  297POPC   C2B 9092  33.311   0.827   8.321
  297POPC   C3B 9093  33.499   0.576   7.990
  297POPC   C4B 9094  33.287   0.508   7.589
  298POPC   NC3 9095  11.660  12.403   9.601
  298POPC   PO4 9096  11.175  11.944   9.714
  298POPC   GL1 9097  11.326  11.809   9.262
  298POPC   GL2 9098  11.203  12.023   9.026
  298POPC   C1A 9099  11.370  11.585   8.822
  298POPC   D2A 9100  11.558  11.555   8.382
  298POPC   C3A 9101  11.471  11.868   8.057
  298POPC   C4A 9102  11.273  12.176   7.782
  298POPC   C1B 9103  11.110  11.989   8.584
  298POPC   C2B 9104  11.198  12.284   8.281
  298POPC   C3B 9105  10.909  12.473   7.942
  298POPC   C4B 9106  10.911  12.430   7.461
  299POPC   NC3 9107  31.252  19.933   9.437
  299POPC   PO4 9108  31.682  19.474   9.561
  299POPC   GL1 9109  31.495  19.588   9.158
  299POPC   GL2 9110  31.640  19.901   9.035
  299POPC   C1A 9111  31.384  19.627   8.722
  299POPC   D2A 9112  31.344  19.801   8.328
  299POPC   C3A 9113  31.519  19.633   7.965
  299POPC   C4A 9114  31.219  19.540   7.672
  299POPC   C1B 9115  31.396  20.165   8.739
  299POPC   C2B 9116  31.257  20.287   8.315
  299POPC   C3B 9117  31.230  20.099   7.903
  299POPC   C4B 9118  31.534  20.190   7.612
  300POPC   NC3 9119   8.799  22.549   9.284
  300POPC   PO4 9120   8.899  21.925   9.361
  300POPC   GL1 9121   9.034  22.159   9.022
  300POPC   GL2 9122   9.266  22.382   9.150
  300POPC   C1A 9123   8.972  22.138   8.577
  300POPC   D2A 9124   8.662  21.880   8.357
  300POPC   C3A 9125   8.753  21.888   7.912
  300POPC   C4A 9126   9.148  21.915   7.690
  300POPC   C1B 9127   9.362  22.454   8.737
  300POPC   C2B 9128   9.246  22.511   8.325
  300POPC   C3B 9129   9.330  22.305   7.971
  300POPC   C4B 9130   9.654  22.504   7.787
  301POPC   NC3 9131  23.371   6.142   9.558
  301POPC   PO4 9132  23.850   6.752   9.565
  301POPC   GL1 9133  23.825   6.676   9.160
  301POPC   GL2 9134  23.924   6.996   9.091
  301POPC   C1A 9135  23.555   6.526   8.835
  301POPC   D2A 9136  23.507   6.383   8.434
  301POPC   C3A 9137  23.737   6.553   8.114
  301POPC   C4A 9138  23.692   6.286   7.725
  301POPC   C1B 9139  23.862   6.885   8.661
  301POPC   C2B 9140  23.508   6.925   8.438
  301POPC   C3B 9141  23.376   6.997   8.021
  301POPC   C4B 9142  23.341   6.642   7.818
  302POPC   NC3 9143   5.367   4.731   9.872
  302POPC   PO4 9144   5.011   4.345   9.400
  302POPC   GL1 9145   5.158   4.155   9.047
  302POPC   GL2 9146   4.958   3.862   9.036
  302POPC   C1A 9147   5.388   4.277   8.692
  302POPC   D2A 9148   5.281   4.610   8.421
  302POPC   C3A 9149   5.330   4.618   7.984
  302POPC   C4A 9150   5.016   4.527   7.711
  302POPC   C1B 9151   4.891   4.093   8.621
  302POPC   C2B 9152   5.002   4.234   8.199
  302POPC   C3B 9153   4.793   4.082   7.855
  302POPC   C4B 9154   4.967   3.875   7.535
  303POPC   NC3 9155  20.619  36.094   9.523
  303POPC   PO4 9156  21.065  35.684   9.255
  303POPC   GL1 9157  20.749  35.905   9.059
  303POPC   GL2 9158  20.393  35.833   9.155
  303POPC   C1A 9159  20.551  36.168   8.774
  303POPC   D2A 9160  20.394  36.137   8.375
  303POPC   C3A 9161  20.696  36.308   8.094
  303POPC   C4A 9162  20.751  36.158   7.683
  303POPC   C1B 9163  20.431  35.672   8.716
  303POPC   C2B 9164  20.521  35.626   8.341
  303POPC   C3B 9165  20.601  35.785   7.985
  303POPC   C4B 9166  20.377  35.620   7.650
  304POPC   NC3 9167  38.121  25.470   9.520
  304POPC   PO4 9168  38.529  24.922   9.524
  304POPC   GL1 9169  38.484  25.220   9.194
  304POPC   GL2 9170  38.171  25.095   9.139
  304POPC   C1A 9171  38.323  25.465   8.799
  304POPC   D2A 9172  38.115  25.558   8.366
  304POPC   C3A 9173  38.344  25.463   7.932
  304POPC   C4A 9174  38.386  25.461   7.448
  304POPC   C1B 9175  38.423  24.966   8.747
  304POPC   C2B 9176  38.244  25.055   8.348
  304POPC   C3B 9177  38.205  24.891   7.940
  304POPC   C4B 9178  38.486  24.993   7.613
  305POPC   NC3 9179  10.631  25.021   9.578
  305POPC   PO4 9180  10.022  25.339   9.584
  305POPC   GL1 9181  10.285  25.198   9.265
  305POPC   GL2 9182  10.133  24.929   9.092
  305POPC   C1A 9183  10.624  25.338   8.972
  305POPC   D2A 9184  10.648  25.413   8.507
  305POPC   C3A 9185  10.547  25.115   8.195
  305POPC   C4A 9186  10.615  25.068   7.760
  305POPC   C1B 9187  10.150  25.256   8.779
  305POPC   C2B 9188  10.129  25.388   8.363
  305POPC   C3B 9189  10.104  25.183   7.952
  305POPC   C4B 9190  10.245  25.403   7.593
  306POPC   NC3 9191  40.560  13.400   9.311
  306POPC   PO4 9192  40.878  13.944   9.357
  306POPC   GL1 9193  40.905  13.686   8.991
  306POPC   GL2 9194  41.062  13.369   9.106
  306POPC   C1A 9195  40.825  13.747   8.530
  306POPC   D2A 9196  40.501  13.908   8.226
  306POPC   C3A 9197  40.710  13.892   7.864
  306POPC   C4A 9198  41.115  13.730   7.895
  306POPC   C1B 9199  40.889  13.243   8.672
  306POPC   C2B 9200  40.937  13.338   8.206
  306POPC   C3B 9201  40.859  13.305   7.749
  306POPC   C4B 9202  40.580  13.277   7.385
  307POPC   NC3 9203  26.064  39.280   9.983
  307POPC   PO4 9204  26.520  39.428   9.508
  307POPC   GL1 9205  26.267  39.111   9.213
  307POPC   GL2 9206  25.875  39.090   9.253
  307POPC   C1A 9207  26.322  38.942   8.765
  307POPC   D2A 9208  26.138  38.861   8.341
  307POPC   C3A 9209  26.353  39.104   7.981
  307POPC   C4A 9210  26.233  38.989   7.537
  307POPC   C1B 9211  25.844  39.101   8.780
  307POPC   C2B 9212  25.957  39.330   8.361
  307POPC   C3B 9213  25.860  39.137   7.946
  307POPC   C4B 9214  25.484  39.023   7.778
  308POPC   NC3 9215  17.350   1.161   9.550
  308POPC   PO4 9216  17.965   1.348   9.557
  308POPC   GL1 9217  17.691   1.293   9.163
  308POPC   GL2 9218  17.586   1.593   8.958
  308POPC   C1A 9219  17.578   1.151   8.717
  308POPC   D2A 9220  17.490   1.464   8.389
  308POPC   C3A 9221  17.705   1.322   8.028
  308POPC   C4A 9222  17.715   0.942   7.814
  308POPC   C1B 9223  17.163   1.382   8.839
  308POPC   C2B 9224  17.137   1.089   8.444
  308POPC   C3B 9225  17.199   1.193   8.003
  308POPC   C4B 9226  17.064   1.481   7.670
  309POPC   NC3 9227  39.401  22.860   9.716
  309POPC   PO4 9228  38.782  23.055   9.622
  309POPC   GL1 9229  39.027  22.861   9.298
  309POPC   GL2 9230  39.382  22.924   9.222
  309POPC   C1A 9231  39.062  22.665   8.906
  309POPC   D2A 9232  39.269  22.825   8.544
  309POPC   C3A 9233  39.077  22.806   8.144
  309POPC   C4A 9234  39.185  22.987   7.790
  309POPC   C1B 9235  39.634  22.747   8.901
  309POPC   C2B 9236  39.794  22.784   8.506
  309POPC   C3B 9237  39.632  22.869   8.122
  309POPC   C4B 9238  39.682  23.081   7.776
  310POPC   NC3 9239   4.699  28.971   9.516
  310POPC   PO4 9240   5.260  28.723   9.549
  310POPC   GL1 9241   5.258  29.029   9.246
  310POPC   GL2 9242   5.004  28.864   9.077
  310POPC   C1A 9243   5.242  29.307   8.883
  310POPC   D2A 9244   5.050  29.364   8.474
  310POPC   C3A 9245   5.232  29.419   8.081
  310POPC   C4A 9246   5.224  29.171   7.757
  310POPC   C1B 9247   5.156  28.863   8.639
  310POPC   C2B 9248   5.088  28.911   8.180
  310POPC   C3B 9249   5.071  28.683   7.748
  310POPC   C4B 9250   4.984  28.625   7.283
  311POPC   NC3 9251  37.990  38.781   9.690
  311POPC   PO4 9252  37.439  38.319   9.545
  311POPC   GL1 9253  37.635  38.516   9.179
  311POPC   GL2 9254  37.893  38.287   9.132
  311POPC   C1A 9255  37.722  38.569   8.717
  311POPC   D2A 9256  37.491  38.506   8.344
  311POPC   C3A 9257  37.630  38.643   7.951
  311POPC   C4A 9258  37.571  38.498   7.547
  311POPC   C1B 9259  37.920  38.056   8.720
  311POPC   C2B 9260  37.912  38.220   8.308
  311POPC   C3B 9261  37.886  38.194   7.846
  311POPC   C4B 9262  37.959  38.172   7.398
  312POPC   NC3 9263   7.706  35.964   9.410
  312POPC   PO4 9264   8.292  36.225   9.664
  312POPC   GL1 9265   8.149  36.189   9.275
  312POPC   GL2 9266   8.231  35.869   9.231
  312POPC   C1A 9267   8.027  36.410   8.920
  312POPC   D2A 9268   7.930  36.436   8.502
  312POPC   C3A 9269   8.230  36.489   8.197
  312POPC   C4A 9270   8.232  36.436   7.758
  312POPC   C1B 9271   8.038  35.926   8.807
  312POPC   C2B 9272   8.135  35.997   8.362
  312POPC   C3B 9273   8.106  35.947   7.926
  312POPC   C4B 9274   8.447  35.645   7.770
  313POPC   NC3 9275  33.800  37.208  10.157
  313POPC   PO4 9276  33.938  37.034   9.597
  313POPC   GL1 9277  33.943  36.885   9.160
  313POPC   GL2 9278  34.180  36.624   9.076
  313POPC   C1A 9279  33.812  36.991   8.739
  313POPC   D2A 9280  33.984  36.981   8.324
  313POPC   C3A 9281  33.722  37.118   7.979
  313POPC   C4A 9282  33.844  37.194   7.571
  313POPC   C1B 9283  34.060  36.555   8.645
  313POPC   C2B 9284  33.912  36.485   8.210
  313POPC   C3B 9285  34.012  36.729   7.863
  313POPC   C4B 9286  33.820  36.717   7.449
  314POPC   NC3 9287  19.690  21.087   9.535
  314POPC   PO4 9288  19.971  21.616   9.530
  314POPC   GL1 9289  19.662  21.470   9.198
  314POPC   GL2 9290  19.985  21.442   9.057
  314POPC   C1A 9291  19.610  21.205   8.839
  314POPC   D2A 9292  19.965  21.305   8.572
  314POPC   C3A 9293  19.822  21.249   8.210
  314POPC   C4A 9294  19.933  21.223   7.821
  314POPC   C1B 9295  20.182  21.744   8.779
  314POPC   C2B 9296  20.267  21.859   8.367
  314POPC   C3B 9297  20.155  21.637   8.042
  314POPC   C4B 9298  20.172  21.736   7.666
  315POPC   NC3 9299  39.700  42.457   9.328
  315POPC   PO4 9300  40.315  42.317   9.406
  315POPC   GL1 9301  40.182  42.128   9.035
  315POPC   GL2 9302  39.836  42.027   9.072
  315POPC   C1A 9303  40.111  42.286   8.607
  315POPC   D2A 9304  40.263  42.701   8.409
  315POPC   C3A 9305  40.110  42.679   7.992
  315POPC   C4A 9306  40.049  42.255   7.834
  315POPC   C1B 9307  39.640  42.150   8.682
  315POPC   C2B 9308  39.715  42.194   8.244
  315POPC   C3B 9309  39.715  41.876   7.920
  315POPC   C4B 9310  39.878  41.807   7.542
  316POPC   NC3 9311  17.108  14.967   9.351
  316POPC   PO4 9312  17.812  15.147   9.530
  316POPC   GL1 9313  17.644  15.065   9.137
  316POPC   GL2 9314  17.453  15.358   9.146
  316POPC   C1A 9315  17.805  14.985   8.715
  316POPC   D2A 9316  17.856  15.134   8.313
  316POPC   C3A 9317  17.502  15.155   8.020
  316POPC   C4A 9318  17.638  15.403   7.671
  316POPC   C1B 9319  17.360  15.255   8.728
  316POPC   C2B 9320  17.127  15.351   8.369
  316POPC   C3B 9321  17.139  15.565   8.013
  316POPC   C4B 9322  17.134  15.433   7.609
  317POPC   NC3 9323  13.093  27.505   9.600
  317POPC   PO4 9324  12.602  27.871   9.485
  317POPC   GL1 9325  12.696  27.591   9.165
  317POPC   GL2 9326  12.987  27.740   9.130
  317POPC   C1A 9327  12.603  27.742   8.768
  317POPC   D2A 9328  12.780  27.715   8.373
  317POPC   C3A 9329  12.847  27.519   7.981
  317POPC   C4A 9330  12.623  27.822   7.767
  317POPC   C1B 9331  13.036  27.493   8.749
  317POPC   C2B 9332  13.128  27.346   8.356
  317POPC   C3B 9333  13.442  27.434   8.143
  317POPC   C4B 9334  13.541  27.468   7.724
  318POPC   NC3 9335  33.427  20.425   9.410
  318POPC   PO4 9336  34.077  20.583   9.657
  318POPC   GL1 9337  33.939  20.742   9.215
  318POPC   GL2 9338  33.658  20.963   9.311
  318POPC   C1A 9339  34.005  20.641   8.743
  318POPC   D2A 9340  33.918  20.425   8.340
  318POPC   C3A 9341  34.131  20.507   7.956
  318POPC   C4A 9342  34.135  20.537   7.476
  318POPC   C1B 9343  33.702  21.030   8.862
  318POPC   C2B 9344  33.649  20.858   8.460
  318POPC   C3B 9345  33.736  20.825   8.064
  318POPC   C4B 9346  33.608  21.063   7.751
  319POPC   NC3 9347   7.304  40.040   9.687
  319POPC   PO4 9348   7.006  39.461   9.644
  319POPC   GL1 9349   7.150  39.735   9.256
  319POPC   GL2 9350   7.246  40.109   9.193
  319POPC   C1A 9351   7.270  39.809   8.804
  319POPC   D2A 9352   7.419  39.803   8.422
  319POPC   C3A 9353   7.209  39.975   8.101
  319POPC   C4A 9354   7.342  39.885   7.698
  319POPC   C1B 9355   7.541  40.236   8.816
  319POPC   C2B 9356   7.625  40.252   8.338
  319POPC   C3B 9357   7.502  40.339   7.882
  319POPC   C4B 9358   7.583  40.222   7.426
  320POPC   NC3 9359  29.598  20.473   9.260
  320POPC   PO4 9360  30.236  20.258   9.452
  320POPC   GL1 9361  30.070  20.404   9.083
  320POPC   GL2 9362  30.296  20.284   8.877
  320POPC   C1A 9363  30.018  20.716   8.728
  320POPC   D2A 9364  30.162  20.912   8.365
  320POPC   C3A 9365  29.914  20.937   8.010
  320POPC   C4A 9366  30.189  20.981   7.679
  320POPC   C1B 9367  29.906  20.237   8.619
  320POPC   C2B 9368  29.924  20.463   8.233
  320POPC   C3B 9369  30.073  20.483   7.817
  320POPC   C4B 9370  29.815  20.296   7.494
  321POPC   NC3 9371   7.494  21.933   9.527
  321POPC   PO4 9372   7.463  22.674   9.548
  321POPC   GL1 9373   7.480  22.343   9.252
  321POPC   GL2 9374   7.131  22.230   9.281
  321POPC   C1A 9375   7.533  22.167   8.855
  321POPC   D2A 9376   7.584  22.267   8.417
  321POPC   C3A 9377   7.591  21.966   8.099
  321POPC   C4A 9378   7.677  22.175   7.716
  321POPC   C1B 9379   7.024  22.144   8.861
  321POPC   C2B 9380   7.192  21.935   8.516
  321POPC   C3B 9381   7.100  21.917   8.079
  321POPC   C4B 9382   7.154  22.061   7.688
  322POPC   NC3 9383  17.744   2.208   9.635
  322POPC   PO4 9384  17.413   1.673   9.434
  322POPC   GL1 9385  17.526   2.046   9.197
  322POPC   GL2 9386  17.258   2.035   8.999
  322POPC   C1A 9387  17.728   2.067   8.780
  322POPC   D2A 9388  17.912   1.796   8.493
  322POPC   C3A 9389  17.699   1.888   8.147
  322POPC   C4A 9390  17.460   1.727   7.849
  322POPC   C1B 9391  17.088   2.229   8.692
  322POPC   C2B 9392  17.281   2.215   8.323
  322POPC   C3B 9393  17.320   2.246   7.919
  322POPC   C4B 9394  17.178   2.030   7.556
  323POPC   NC3 9395  40.421  24.726   9.591
  323POPC   PO4 9396  40.028  24.156   9.578
  323POPC   GL1 9397  40.064  24.295   9.177
  323POPC   GL2 9398  40.202  24.620   9.138
  323POPC   C1A 9399  40.044  24.233   8.754
  323POPC   D2A 9400  40.059  24.524   8.437
  323POPC   C3A 9401  40.004  24.294   8.095
  323POPC   C4A 9402  40.287  24.202   7.753
  323POPC   C1B 9403  39.841  24.735   8.881
  323POPC   C2B 9404  39.655  24.832   8.480
  323POPC   C3B 9405  39.762  24.783   8.047
  323POPC   C4B 9406  40.169  24.722   7.908
  324POPC   NC3 9407  27.681  31.880   9.538
  324POPC   PO4 9408  27.273  31.347   9.446
  324POPC   GL1 9409  27.603  31.474   9.175
  324POPC   GL2 9410  27.385  31.770   9.133
  324POPC   C1A 9411  27.721  31.247   8.783
  324POPC   D2A 9412  27.995  31.128   8.465
  324POPC   C3A 9413  27.812  31.136   8.062
  324POPC   C4A 9414  27.852  31.303   7.667
  324POPC   C1B 9415  27.492  31.679   8.715
  324POPC   C2B 9416  27.716  31.562   8.354
  324POPC   C3B 9417  27.649  31.678   7.932
  324POPC   C4B 9418  27.617  31.737   7.478
  325POPC   NC3 9419  25.813  17.748   9.362
  325POPC   PO4 9420  26.286  18.040   9.733
  325POPC   GL1 9421  26.251  18.043   9.268
  325POPC   GL2 9422  26.250  18.402   9.180
  325POPC   C1A 9423  26.272  18.024   8.784
  325POPC   D2A 9424  26.045  18.152   8.370
  325POPC   C3A 9425  26.072  17.968   7.924
  325POPC   C4A 9426  26.223  18.093   7.479
  325POPC   C1B 9427  26.047  18.502   8.771
  325POPC   C2B 9428  25.791  18.623   8.400
  325POPC   C3B 9429  25.847  18.491   8.024
  325POPC   C4B 9430  26.180  18.598   7.790
  326POPC   NC3 9431  29.835  20.093   9.612
  326POPC   PO4 9432  29.966  19.491   9.219
  326POPC   GL1 9433  30.001  19.876   9.034
  326POPC   GL2 9434  29.689  20.012   9.042
  326POPC   C1A 9435  30.211  19.841   8.661
  326POPC   D2A 9436  30.251  20.035   8.264
  326POPC   C3A 9437  29.967  20.008   7.975
  326POPC   C4A 9438  29.995  19.838   7.593
  326POPC   C1B 9439  29.551  19.735   8.706
  326POPC   C2B 9440  29.823  19.666   8.353
  326POPC   C3B 9441  29.806  19.510   7.949
  326POPC   C4B 9442  29.539  19.612   7.594
  327POPC   NC3 9443   5.261  12.768   9.599
  327POPC   PO4 9444   4.708  12.901   9.381
  327POPC   GL1 9445   4.928  12.628   9.087
  327POPC   GL2 9446   5.291  12.628   9.103
  327POPC   C1A 9447   5.090  12.565   8.642
  327POPC   D2A 9448   5.001  12.794   8.246
  327POPC   C3A 9449   5.110  12.572   7.851
  327POPC   C4A 9450   5.492  12.356   7.674
  327POPC   C1B 9451   5.429  12.922   8.750
  327POPC   C2B 9452   5.480  12.955   8.273
  327POPC   C3B 9453   5.226  13.072   7.855
  327POPC   C4B 9454   5.154  13.305   7.444
  328POPC   NC3 9455  38.305   9.068   9.514
  328POPC   PO4 9456  38.499   8.611   9.279
  328POPC   GL1 9457  38.373   8.976   9.008
  328POPC   GL2 9458  38.538   9.294   9.116
  328POPC   C1A 9459  38.266   9.194   8.605
  328POPC   D2A 9460  38.330   9.416   8.190
  328POPC   C3A 9461  38.190   9.139   7.832
  328POPC   C4A 9462  38.332   8.811   7.504
  328POPC   C1B 9463  38.760   9.193   8.739
  328POPC   C2B 9464  38.704   9.082   8.308
  328POPC   C3B 9465  38.684   8.995   7.860
  328POPC   C4B 9466  38.746   9.094   7.410
  329POPC   NC3 9467  11.060   3.822   9.405
  329POPC   PO4 9468  11.367   3.174   9.456
  329POPC   GL1 9469  11.296   3.446   9.116
  329POPC   GL2 9470  11.459   3.786   9.047
  329POPC   C1A 9471  11.221   3.246   8.749
  329POPC   D2A 9472  11.177   3.232   8.320
  329POPC   C3A 9473  11.489   3.359   7.990
  329POPC   C4A 9474  11.465   3.786   7.793
  329POPC   C1B 9475  11.079   3.759   8.752
  329POPC   C2B 9476  10.888   3.778   8.343
  329POPC   C3B 9477  11.023   3.600   7.957
  329POPC   C4B 9478  11.005   3.818   7.543
  330POPC   NC3 9479  17.136  12.255   9.650
  330POPC   PO4 9480  17.657  11.857   9.489
  330POPC   GL1 9481  17.433  11.885   9.134
  330POPC   GL2 9482  17.356  12.229   9.168
  330POPC   C1A 9483  17.496  11.948   8.705
  330POPC   D2A 9484  17.659  11.866   8.313
  330POPC   C3A 9485  17.552  12.149   8.017
  330POPC   C4A 9486  17.193  12.292   7.782
  330POPC   C1B 9487  17.713  12.357   8.912
  330POPC   C2B 9488  17.708  12.424   8.453
  330POPC   C3B 9489  17.868  12.571   8.038
  330POPC   C4B 9490  17.624  12.524   7.670
  331POPC   NC3 9491  18.840  16.511   9.336
  331POPC   PO4 9492  19.337  16.879   9.434
  331POPC   GL1 9493  19.028  16.947   9.155
  331POPC   GL2 9494  19.209  16.657   8.974
  331POPC   C1A 9495  18.803  16.865   8.781
  331POPC   D2A 9496  19.066  16.748   8.446
  331POPC   C3A 9497  18.849  16.518   8.152
  331POPC   C4A 9498  18.553  16.571   7.840
  331POPC   C1B 9499  19.482  16.965   8.750
  331POPC   C2B 9500  19.363  17.193   8.365
  331POPC   C3B 9501  19.175  16.997   7.999
  331POPC   C4B 9502  19.467  16.999   7.680
  332POPC   NC3 9503   6.556  28.862   9.523
  332POPC   PO4 9504   6.757  28.154   9.504
  332POPC   GL1 9505   6.565  28.355   9.179
  332POPC   GL2 9506   6.623  28.703   9.062
  332POPC   C1A 9507   6.407  28.341   8.788
  332POPC   D2A 9508   6.636  28.343   8.439
  332POPC   C3A 9509   6.476  28.321   8.049
  332POPC   C4A 9510   6.716  28.199   7.724
  332POPC   C1B 9511   6.961  28.798   8.807
  332POPC   C2B 9512   7.098  28.568   8.455
  332POPC   C3B 9513   6.939  28.516   8.069
  332POPC   C4B 9514   6.783  28.697   7.737
  333POPC   NC3 9515   4.278   5.232   9.309
  333POPC   PO4 9516   4.541   4.734   9.660
  333POPC   GL1 9517   4.503   4.763   9.190
  333POPC   GL2 9518   4.151   4.758   9.125
  333POPC   C1A 9519   4.550   5.003   8.741
  333POPC   D2A 9520   4.451   5.004   8.270
  333POPC   C3A 9521   4.400   5.311   7.909
  333POPC   C4A 9522   4.537   5.368   7.468
  333POPC   C1B 9523   4.097   4.757   8.673
  333POPC   C2B 9524   4.142   4.592   8.252
  333POPC   C3B 9525   4.164   4.838   7.885
  333POPC   C4B 9526   3.904   5.216   7.798
  334POPC   NC3 9527  31.304  42.831   9.586
  334POPC   PO4 9528  31.405  42.207   9.329
  334POPC   GL1 9529  31.634  42.391   9.016
  334POPC   GL2 9530  31.660  42.696   9.210
  334POPC   C1A 9531  31.493  42.388   8.600
  334POPC   D2A 9532  31.113  42.354   8.337
  334POPC   C3A 9533  31.372  42.457   8.006
  334POPC   C4A 9534  31.692  42.197   7.875
  334POPC   C1B 9535  31.278  42.736   8.930
  334POPC   C2B 9536  31.248  42.826   8.471
  334POPC   C3B 9537  30.984  42.785   8.070
  334POPC   C4B 9538  31.194  42.797   7.670
  335POPC   NC3 9539  35.165  10.309   9.466
  335POPC   PO4 9540  35.012  10.936   9.414
  335POPC   GL1 9541  35.275  10.672   9.138
  335POPC   GL2 9542  35.607  10.495   9.221
  335POPC   C1A 9543  35.290  10.375   8.790
  335POPC   D2A 9544  35.488  10.360   8.381
  335POPC   C3A 9545  35.269  10.519   8.033
  335POPC   C4A 9546  35.233  10.432   7.597
  335POPC   C1B 9547  35.717  10.676   8.815
  335POPC   C2B 9548  35.830  10.746   8.380
  335POPC   C3B 9549  35.774  10.569   7.945
  335POPC   C4B 9550  35.986  10.705   7.558
  336POPC   NC3 9551  44.155  33.719   9.541
  336POPC   PO4 9552  44.770  33.632   9.506
  336POPC   GL1 9553  44.555  33.788   9.161
  336POPC   GL2 9554  44.481  33.438   9.036
  336POPC   C1A 9555  44.645  34.134   8.851
  336POPC   D2A 9556  44.650  34.339   8.438
  336POPC   C3A 9557  44.651  34.162   8.035
  336POPC   C4A 9558  44.776  33.993   7.631
  336POPC   C1B 9559  44.777  33.642   8.729
  336POPC   C2B 9560  44.844  33.857   8.392
  336POPC   C3B 9561  44.837  33.661   8.011
  336POPC   C4B 9562   0.162  33.468   7.841
  337POPC   NC3 9563  24.703   5.678   9.131
  337POPC   PO4 9564  24.572   6.258   9.446
  337POPC   GL1 9565  24.398   6.204   9.041
  337POPC   GL2 9566  24.031   6.205   9.075
  337POPC   C1A 9567  24.494   6.148   8.587
  337POPC   D2A 9568  24.637   6.199   8.120
  337POPC   C3A 9569  24.612   5.802   7.907
  337POPC   C4A 9570  24.826   5.425   7.717
  337POPC   C1B 9571  23.969   6.251   8.622
  337POPC   C2B 9572  24.190   6.383   8.245
  337POPC   C3B 9573  24.226   6.311   7.780
  337POPC   C4B 9574  24.284   6.169   7.338
  338POPC   NC3 9575  41.110  19.971   9.571
  338POPC   PO4 9576  41.670  20.211   9.439
  338POPC   GL1 9577  41.471  19.932   9.175
  338POPC   GL2 9578  41.184  20.036   9.073
  338POPC   C1A 9579  41.499  19.716   8.778
  338POPC   D2A 9580  41.728  19.786   8.393
  338POPC   C3A 9581  41.551  19.725   7.979
  338POPC   C4A 9582  41.541  19.925   7.588
  338POPC   C1B 9583  41.019  19.905   8.727
  338POPC   C2B 9584  41.183  19.776   8.355
  338POPC   C3B 9585  41.068  19.905   7.963
  338POPC   C4B 9586  41.004  20.041   7.538
  339POPC   NC3 9587  27.971  40.444   9.201
  339POPC   PO4 9588  28.180  40.854   9.678
  339POPC   GL1 9589  28.053  40.964   9.252
  339POPC   GL2 9590  28.339  40.797   9.130
  339POPC   C1A 9591  27.961  40.937   8.794
  339POPC   D2A 9592  28.221  40.954   8.473
  339POPC   C3A 9593  28.154  40.879   8.061
  339POPC   C4A 9594  28.354  40.729   7.671
  339POPC   C1B 9595  28.583  40.735   8.776
  339POPC   C2B 9596  28.510  40.556   8.387
  339POPC   C3B 9597  28.385  40.389   8.033
  339POPC   C4B 9598  28.731  40.344   7.747
  340POPC   NC3 9599  33.904   2.520   9.491
  340POPC   PO4 9600  33.887   3.224   9.486
  340POPC   GL1 9601  33.796   2.917   9.167
  340POPC   GL2 9602  34.134   2.859   9.130
  340POPC   C1A 9603  33.839   2.782   8.718
  340POPC   D2A 9604  33.679   2.557   8.366
  340POPC   C3A 9605  33.694   2.699   7.933
  340POPC   C4A 9606  33.567   2.579   7.503
  340POPC   C1B 9607  34.244   2.467   8.877
  340POPC   C2B 9608  34.165   2.331   8.477
  340POPC   C3B 9609  34.088   2.375   8.084
  340POPC   C4B 9610  34.210   2.733   7.840
  341POPC   NC3 9611  13.281  39.265   9.482
  341POPC   PO4 9612  12.710  38.944   9.408
  341POPC   GL1 9613  12.715  39.154   9.017
  341POPC   GL2 9614  13.003  39.356   9.054
  341POPC   C1A 9615  12.753  39.109   8.569
  341POPC   D2A 9616  12.792  38.867   8.175
  341POPC   C3A 9617  12.939  39.152   7.899
  341POPC   C4A 9618  13.195  39.210   7.596
  341POPC   C1B 9619  13.161  39.546   8.705
  341POPC   C2B 9620  13.097  39.474   8.270
  341POPC   C3B 9621  13.316  39.606   7.894
  341POPC   C4B 9622  13.322  39.679   7.421
  342POPC   NC3 9623  13.089  42.668   9.574
  342POPC   PO4 9624  12.517  42.894   9.350
  342POPC   GL1 9625  12.906  42.917   9.158
  342POPC   GL2 9626  13.057  43.264   9.200
  342POPC   C1A 9627  12.863  42.943   8.745
  342POPC   D2A 9628  12.797  43.245   8.454
  342POPC   C3A 9629  12.914  43.056   8.088
  342POPC   C4A 9630  13.036  43.136   7.695
  342POPC   C1B 9631  13.282  43.225   8.796
  342POPC   C2B 9632  13.296  43.434   8.429
  342POPC   C3B 9633  13.397  43.297   8.034
  342POPC   C4B 9634  13.365  43.523   7.661
  343POPC   NC3 9635  42.498  14.194   9.629
  343POPC   PO4 9636  42.218  14.735   9.535
  343POPC   GL1 9637  42.344  14.534   9.169
  343POPC   GL2 9638  42.398  14.161   9.141
  343POPC   C1A 9639  42.385  14.604   8.735
  343POPC   D2A 9640  42.210  14.423   8.365
  343POPC   C3A 9641  42.302  14.612   8.018
  343POPC   C4A 9642  42.254  14.590   7.605
  343POPC   C1B 9643  42.273  14.086   8.745
  343POPC   C2B 9644  42.400  13.941   8.334
  343POPC   C3B 9645  42.402  14.110   7.943
  343POPC   C4B 9646  42.663  14.368   7.734
  344POPC   NC3 9647  41.042  14.384   9.384
  344POPC   PO4 9648  40.546  14.882   9.455
  344POPC   GL1 9649  40.661  14.644   9.095
  344POPC   GL2 9650  40.609  14.277   9.073
  344POPC   C1A 9651  40.615  14.622   8.644
  344POPC   D2A 9652  40.528  14.765   8.234
  344POPC   C3A 9653  40.615  14.434   7.934
  344POPC   C4A 9654  40.618  14.273   7.497
  344POPC   C1B 9655  40.908  14.198   8.751
  344POPC   C2B 9656  40.896  14.267   8.330
  344POPC   C3B 9657  41.094  14.235   7.947
  344POPC   C4B 9658  41.087  14.097   7.514
  345POPC   NC3 9659  15.266   9.412   9.482
  345POPC   PO4 9660  14.725   9.967   9.511
  345POPC   GL1 9661  15.007   9.794   9.222
  345POPC   GL2 9662  15.317  10.001   9.136
  345POPC   C1A 9663  15.068   9.661   8.806
  345POPC   D2A 9664  15.346   9.759   8.471
  345POPC   C3A 9665  15.156   9.746   8.090
  345POPC   C4A 9666  15.221   9.338   7.970
  345POPC   C1B 9667  15.638  10.039   8.793
  345POPC   C2B 9668  15.792   9.999   8.385
  345POPC   C3B 9669  15.613   9.974   7.977
  345POPC   C4B 9670  15.431   9.702   7.656
  346POPC   NC3 9671  14.993  39.870   9.457
  346POPC   PO4 9672  15.613  40.121   9.628
  346POPC   GL1 9673  15.398  40.099   9.236
  346POPC   GL2 9674  15.461  39.772   9.185
  346POPC   C1A 9675  15.156  40.167   8.848
  346POPC   D2A 9676  14.946  40.016   8.452
  346POPC   C3A 9677  15.065  40.235   8.073
  346POPC   C4A 9678  15.335  40.010   7.834
  346POPC   C1B 9679  15.157  39.629   8.857
  346POPC   C2B 9680  15.026  39.461   8.469
  346POPC   C3B 9681  15.038  39.629   8.065
  346POPC   C4B 9682  14.788  39.922   7.814
  347POPC   NC3 9683  29.485   8.724   9.333
  347POPC   PO4 9684  29.036   9.158   9.735
  347POPC   GL1 9685  29.053   9.032   9.263
  347POPC   GL2 9686  29.366   9.165   9.109
  347POPC   C1A 9687  29.070   8.774   8.842
  347POPC   D2A 9688  28.928   8.884   8.426
  347POPC   C3A 9689  28.946   8.591   8.077
  347POPC   C4A 9690  29.216   8.661   7.755
  347POPC   C1B 9691  29.199   9.240   8.692
  347POPC   C2B 9692  29.320   9.170   8.228
  347POPC   C3B 9693  29.268   9.167   7.755
  347POPC   C4B 9694  29.411   9.377   7.354
  348POPC   NC3 9695   0.083  13.826   9.545
  348POPC   PO4 9696   0.803  13.895   9.491
  348POPC   GL1 9697   0.531  13.683   9.145
  348POPC   GL2 9698   0.690  13.401   9.021
  348POPC   C1A 9699   0.251  13.520   8.784
  348POPC   D2A 9700   0.174  13.693   8.402
  348POPC   C3A 9701   0.017  13.445   8.079
  348POPC   C4A 9702   0.151  13.538   7.673
  348POPC   C1B 9703   0.698  13.285   8.636
  348POPC   C2B 9704   0.435  13.261   8.335
  348POPC   C3B 9705   0.507  13.589   8.039
  348POPC   C4B 9706   0.655  13.636   7.651
  349POPC   NC3 9707  25.468  39.598   9.696
  349POPC   PO4 9708  25.058  40.064   9.370
  349POPC   GL1 9709  25.298  39.901   9.108
  349POPC   GL2 9710  25.036  39.709   8.894
  349POPC   C1A 9711  25.472  39.877   8.731
  349POPC   D2A 9712  25.251  39.811   8.366
  349POPC   C3A 9713  25.419  39.937   7.992
  349POPC   C4A 9714  25.087  40.019   7.731
  349POPC   C1B 9715  25.049  40.142   8.706
  349POPC   C2B 9716  24.935  40.301   8.316
  349POPC   C3B 9717  24.738  40.339   7.929
  349POPC   C4B 9718  24.885  40.441   7.522
  350POPC   NC3 9719   8.365  31.374   9.486
  350POPC   PO4 9720   7.732  31.454   9.468
  350POPC   GL1 9721   7.960  31.395   9.109
  350POPC   GL2 9722   8.286  31.235   9.007
  350POPC   C1A 9723   7.878  31.296   8.700
  350POPC   D2A 9724   8.095  30.996   8.512
  350POPC   C3A 9725   8.114  31.242   8.146
  350POPC   C4A 9726   8.185  31.187   7.733
  350POPC   C1B 9727   8.378  31.420   8.586
  350POPC   C2B 9728   8.498  31.579   8.163
  350POPC   C3B 9729   8.405  31.680   7.726
  350POPC   C4B 9730   8.519  31.865   7.316
  351POPC   NC3 9731  33.097   2.414   9.502
  351POPC   PO4 9732  33.033   3.115   9.538
  351POPC   GL1 9733  33.018   2.921   9.148
  351POPC   GL2 9734  32.733   2.656   9.212
  351POPC   C1A 9735  33.250   2.673   8.790
  351POPC   D2A 9736  33.205   2.376   8.416
  351POPC   C3A 9737  33.201   2.609   8.032
  351POPC   C4A 9738  33.071   2.602   7.626
  351POPC   C1B 9739  32.737   2.757   8.771
  351POPC   C2B 9740  32.955   2.885   8.382
  351POPC   C3B 9741  32.795   3.002   7.949
  351POPC   C4B 9742  32.857   3.063   7.507
  352POPC   NC3 9743  30.407   6.379   9.479
  352POPC   PO4 9744  30.941   6.909   9.455
  352POPC   GL1 9745  30.746   6.671   9.139
  352POPC   GL2 9746  30.574   6.356   9.008
  352POPC   C1A 9747  30.676   6.809   8.742
  352POPC   D2A 9748  30.523   6.802   8.336
  352POPC   C3A 9749  30.843   6.870   8.049
  352POPC   C4A 9750  30.553   6.651   7.787
  352POPC   C1B 9751  30.986   6.339   8.828
  352POPC   C2B 9752  31.003   6.533   8.443
  352POPC   C3B 9753  30.859   6.366   8.085
  352POPC   C4B 9754  31.058   6.313   7.736
  353POPC   NC3 9755   6.057   2.307   9.437
  353POPC   PO4 9756   5.567   1.954   9.475
  353POPC   GL1 9757   5.723   2.064   9.136
  353POPC   GL2 9758   5.643   2.380   9.119
  353POPC   C1A 9759   6.059   2.186   8.807
  353POPC   D2A 9760   6.202   2.341   8.409
  353POPC   C3A 9761   6.197   2.082   8.041
  353POPC   C4A 9762   5.993   1.901   7.687
  353POPC   C1B 9763   5.568   2.280   8.724
  353POPC   C2B 9764   5.788   2.042   8.403
  353POPC   C3B 9765   5.690   2.149   8.024
  353POPC   C4B 9766   5.547   2.179   7.642
  354POPC   NC3 9767  32.026  32.090   9.782
  354POPC   PO4 9768  32.400  32.563   9.400
  354POPC   GL1 9769  32.361  32.362   9.053
  354POPC   GL2 9770  32.565  32.085   9.150
  354POPC   C1A 9771  32.330  32.415   8.591
  354POPC   D2A 9772  32.647  32.431   8.316
  354POPC   C3A 9773  32.502  32.568   7.926
  354POPC   C4A 9774  32.068  32.544   7.757
  354POPC   C1B 9775  32.347  31.957   8.773
  354POPC   C2B 9776  32.545  31.935   8.401
  354POPC   C3B 9777  32.431  32.067   7.999
  354POPC   C4B 9778  32.065  32.037   7.812
  355POPC   NC3 9779  19.519  42.132   9.463
  355POPC   PO4 9780  18.808  42.360   9.514
  355POPC   GL1 9781  19.142  42.405   9.197
  355POPC   GL2 9782  18.900  42.306   8.979
  355POPC   C1A 9783  19.309  42.478   8.772
  355POPC   D2A 9784  19.416  42.196   8.451
  355POPC   C3A 9785  19.145  42.362   8.139
  355POPC   C4A 9786  19.188  42.527   7.717
  355POPC   C1B 9787  18.839  42.553   8.560
  355POPC   C2B 9788  18.636  42.810   8.198
  355POPC   C3B 9789  18.473  42.573   7.881
  355POPC   C4B 9790  18.760  42.249   7.791
  356POPC   NC3 9791  27.786  35.244   9.349
  356POPC   PO4 9792  27.153  35.266   9.412
  356POPC   GL1 9793  27.401  35.169   9.021
  356POPC   GL2 9794  27.171  35.049   8.832
  356POPC   C1A 9795  27.765  35.201   8.689
  356POPC   D2A 9796  28.037  34.987   8.358
  356POPC   C3A 9797  28.071  35.160   7.926
  356POPC   C4A 9798  27.775  35.275   7.635
  356POPC   C1B 9799  27.303  35.274   8.482
  356POPC   C2B 9800  27.627  35.340   8.179
  356POPC   C3B 9801  27.533  35.653   7.869
  356POPC   C4B 9802  27.237  35.715   7.560
  357POPC   NC3 9803  43.362  44.972   9.515
  357POPC   PO4 9804  43.493   0.649   9.616
  357POPC   GL1 9805  43.152   0.513   9.349
  357POPC   GL2 9806  43.013   0.794   9.156
  357POPC   C1A 9807  43.129   0.317   8.946
  357POPC   D2A 9808  43.076   0.358   8.496
  357POPC   C3A 9809  43.280   0.107   8.208
  357POPC   C4A 9810  43.106   0.135   7.822
  357POPC   C1B 9811  42.878   0.764   8.728
  357POPC   C2B 9812  43.049   0.824   8.287
  357POPC   C3B 9813  43.013   0.804   7.842
  357POPC   C4B 9814  43.341   0.848   7.510
  358POPC   NC3 9815  24.711  16.470   9.384
  358POPC   PO4 9816  24.679  17.133   9.560
  358POPC   GL1 9817  24.480  16.956   9.149
  358POPC   GL2 9818  24.424  16.577   8.983
  358POPC   C1A 9819  24.604  16.950   8.697
  358POPC   D2A 9820  24.296  16.779   8.377
  358POPC   C3A 9821  24.467  16.599   7.990
  358POPC   C4A 9822  24.701  16.737   7.636
  358POPC   C1B 9823  24.829  16.498   8.755
  358POPC   C2B 9824  24.909  16.625   8.347
  358POPC   C3B 9825  24.968  16.421   7.970
  358POPC   C4B 9826  24.749  16.230   7.636
  359POPC   NC3 9827  18.702  26.671   9.915
  359POPC   PO4 9828  18.152  26.709   9.550
  359POPC   GL1 9829  18.185  26.801   9.133
  359POPC   GL2 9830  18.502  26.935   9.115
  359POPC   C1A 9831  18.234  26.705   8.714
  359POPC   D2A 9832  18.139  26.492   8.366
  359POPC   C3A 9833  18.281  26.708   8.048
  359POPC   C4A 9834  18.232  26.740   7.644
  359POPC   C1B 9835  18.498  27.153   8.734
  359POPC   C2B 9836  18.341  27.145   8.311
  359POPC   C3B 9837  18.455  27.170   7.866
  359POPC   C4B 9838  18.533  27.102   7.403
  360POPC   NC3 9839  20.384  30.036   9.645
  360POPC   PO4 9840  21.001  29.748   9.806
  360POPC   GL1 9841  20.856  29.800   9.358
  360POPC   GL2 9842  20.643  30.092   9.185
  360POPC   C1A 9843  20.824  29.719   8.903
  360POPC   D2A 9844  20.641  29.895   8.514
  360POPC   C3A 9845  20.608  29.766   8.071
  360POPC   C4A 9846  20.640  29.856   7.636
  360POPC   C1B 9847  20.344  30.298   8.882
  360POPC   C2B 9848  20.123  30.101   8.540
  360POPC   C3B 9849  20.211  30.105   8.138
  360POPC   C4B 9850  20.325  30.260   7.763
  361POPC   NC3 9851   0.687  32.658   9.376
  361POPC   PO4 9852   1.164  33.086   9.466
  361POPC   GL1 9853   0.992  32.959   9.093
  361POPC   GL2 9854   0.781  33.194   9.130
  361POPC   C1A 9855   1.179  32.999   8.683
  361POPC   D2A 9856   1.345  32.920   8.305
  361POPC   C3A 9857   1.388  33.057   7.925
  361POPC   C4A 9858   1.266  32.772   7.591
  361POPC   C1B 9859   0.868  33.381   8.754
  361POPC   C2B 9860   1.018  33.341   8.345
  361POPC   C3B 9861   0.974  33.401   7.968
  361POPC   C4B 9862   1.040  33.247   7.582
  362POPC   NC3 9863  20.129  36.508   9.580
  362POPC   PO4 9864  19.613  36.856   9.618
  362POPC   GL1 9865  19.754  36.673   9.223
  362POPC   GL2 9866  19.792  36.998   9.131
  362POPC   C1A 9867  19.904  36.669   8.772
  362POPC   D2A 9868  19.803  36.825   8.384
  362POPC   C3A 9869  19.892  36.687   7.982
  362POPC   C4A 9870  20.013  37.027   7.737
  362POPC   C1B 9871  19.595  37.122   8.762
  362POPC   C2B 9872  19.364  37.062   8.369
  362POPC   C3B 9873  19.548  37.075   7.962
  362POPC   C4B 9874  19.593  36.818   7.548
  363POPC   NC3 9875  44.506  44.435  10.246
  363POPC   PO4 9876  44.557  44.539   9.619
  363POPC   GL1 9877  44.456  44.565   9.135
  363POPC   GL2 9878  44.437  44.866   8.898
  363POPC   C1A 9879  44.517  44.394   8.701
  363POPC   D2A 9880  44.659  44.278   8.267
  363POPC   C3A 9881  44.702  44.608   7.956
  363POPC   C4A 9882  44.794  44.497   7.546
  363POPC   C1B 9883  44.698   0.130   8.585
  363POPC   C2B 9884  44.843   0.102   8.125
  363POPC   C3B 9885   0.018  44.956   7.720
  363POPC   C4B 9886  44.905  44.913   7.272
  364POPC   NC3 9887  31.890  29.622   9.827
  364POPC   PO4 9888  32.083  30.083   9.591
  364POPC   GL1 9889  32.232  30.222   9.126
  364POPC   GL2 9890  32.566  30.376   9.120
  364POPC   C1A 9891  32.194  30.103   8.660
  364POPC   D2A 9892  32.232  29.751   8.344
  364POPC   C3A 9893  32.287  29.876   7.894
  364POPC   C4A 9894  32.005  30.064   7.583
  364POPC   C1B 9895  32.683  30.226   8.724
  364POPC   C2B 9896  32.628  30.067   8.324
  364POPC   C3B 9897  32.672  30.238   7.932
  364POPC   C4B 9898  32.507  30.219   7.517
  365POPC   NC3 9899   2.879  16.047   9.456
  365POPC   PO4 9900   2.274  16.042   9.726
  365POPC   GL1 9901   2.414  16.063   9.210
  365POPC   GL2 9902   2.712  15.845   9.034
  365POPC   C1A 9903   2.445  16.176   8.747
  365POPC   D2A 9904   2.321  16.195   8.290
  365POPC   C3A 9905   2.535  16.026   7.947
  365POPC   C4A 9906   2.474  15.556   7.819
  365POPC   C1B 9907   2.863  15.667   8.663
  365POPC   C2B 9908   2.740  15.642   8.242
  365POPC   C3B 9909   2.972  15.775   7.859
  365POPC   C4B 9910   3.127  16.225   7.829
  366POPC   NC3 9911  20.078   7.346   9.734
  366POPC   PO4 9912  19.560   7.711   9.424
  366POPC   GL1 9913  19.962   7.544   9.253
  366POPC   GL2 9914  20.085   7.174   9.223
  366POPC   C1A 9915  20.030   7.505   8.812
  366POPC   D2A 9916  19.675   7.500   8.528
  366POPC   C3A 9917  19.750   7.615   8.108
  366POPC   C4A 9918  20.125   7.575   7.815
  366POPC   C1B 9919  19.900   6.984   8.831
  366POPC   C2B 9920  19.996   7.120   8.418
  366POPC   C3B 9921  19.900   7.130   7.999
  366POPC   C4B 9922  19.484   7.257   7.831
  367POPC   NC3 9923  40.214  39.334   9.480
  367POPC   PO4 9924  39.867  38.791   9.534
  367POPC   GL1 9925  40.118  38.929   9.193
  367POPC   GL2 9926  39.885  39.219   9.085
  367POPC   C1A 9927  40.273  39.063   8.799
  367POPC   D2A 9928  39.948  39.134   8.521
  367POPC   C3A 9929  39.983  39.204   8.102
  367POPC   C4A 9930  39.835  39.069   7.736
  367POPC   C1B 9931  40.103  39.545   8.811
  367POPC   C2B 9932  40.238  39.556   8.400
  367POPC   C3B 9933  40.305  39.599   7.955
  367POPC   C4B 9934  40.176  39.389   7.572
  368POPC   NC3 9935  36.350   9.221   9.407
  368POPC   PO4 9936  36.342   9.843   9.666
  368POPC   GL1 9937  36.146   9.787   9.236
  368POPC   GL2 9938  36.328   9.582   9.044
  368POPC   C1A 9939  36.009   9.889   8.804
  368POPC   D2A 9940  35.919   9.736   8.380
  368POPC   C3A 9941  35.935   9.911   7.995
  368POPC   C4A 9942  36.183   9.819   7.677
  368POPC   C1B 9943  36.398   9.620   8.603
  368POPC   C2B 9944  36.314   9.430   8.219
  368POPC   C3B 9945  36.520   9.469   7.810
  368POPC   C4B 9946  36.513   9.530   7.336
  369POPC   NC3 9947  41.016  44.834   9.511
  369POPC   PO4 9948  40.354  44.920   9.514
  369POPC   GL1 9949  40.608  44.724   9.204
  369POPC   GL2 9950  40.419  44.489   9.022
  369POPC   C1A 9951  40.938  44.634   8.871
  369POPC   D2A 9952  41.169  44.514   8.481
  369POPC   C3A 9953  41.064  44.227   8.146
  369POPC   C4A 9954  41.004  44.390   7.741
  369POPC   C1B 9955  40.516  44.890   8.761
  369POPC   C2B 9956  40.773  44.907   8.421
  369POPC   C3B 9957  40.910  44.770   8.063
  369POPC   C4B 9958  40.800  44.940   7.683
  370POPC   NC3 9959  13.061   7.628   9.474
  370POPC   PO4 9960  12.548   7.183   9.510
  370POPC   GL1 9961  12.787   7.281   9.169
  370POPC   GL2 9962  12.774   7.616   9.043
  370POPC   C1A 9963  12.989   7.155   8.807
  370POPC   D2A 9964  12.805   7.164   8.392
  370POPC   C3A 9965  12.955   7.158   7.992
  370POPC   C4A 9966  12.939   6.890   7.672
  370POPC   C1B 9967  13.007   7.609   8.634
  370POPC   C2B 9968  13.115   7.581   8.214
  370POPC   C3B 9969  12.762   7.614   7.923
  370POPC   C4B 9970  12.724   7.769   7.518
  371POPC   NC3 9971  22.549  31.201   9.349
  371POPC   PO4 9972  22.072  31.760   9.514
  371POPC   GL1 9973  22.147  31.506   9.183
  371POPC   GL2 9974  22.456  31.609   9.085
  371POPC   C1A 9975  21.922  31.375   8.843
  371POPC   D2A 9976  21.870  31.098   8.497
  371POPC   C3A 9977  21.854  31.288   8.093
  371POPC   C4A 9978  22.069  31.456   7.742
  371POPC   C1B 9979  22.402  31.402   8.638
  371POPC   C2B 9980  22.373  31.471   8.167
  371POPC   C3B 9981  22.383  31.827   7.860
  371POPC   C4B 9982  22.360  31.727   7.400
  372POPC   NC3 9983  17.935   0.035   9.417
  372POPC   PO4 9984  18.429   0.499   9.378
  372POPC   GL1 9985  18.194   0.702   9.111
  372POPC   GL2 9986  17.900   0.841   9.266
  372POPC   C1A 9987  18.256   0.680   8.696
  372POPC   D2A 9988  18.311   0.610   8.293
  372POPC   C3A 9989  18.403   0.269   8.041
  372POPC   C4A 9990  18.719   0.394   7.752
  372POPC   C1B 9991  17.752   0.700   8.869
  372POPC   C2B 9992  17.832   0.795   8.420
  372POPC   C3B 9993  17.904   0.546   8.030
  372POPC   C4B 9994  18.200   0.574   7.659
  373POPC   NC3 9995  14.191  44.100   9.433
  373POPC   PO4 9996  14.738  43.810   9.840
  373POPC   GL1 9997  14.761  43.756   9.259
  373POPC   GL2 9998  14.408  43.808   9.108
  373POPC   C1A 9999  14.722  43.829   8.744
  373POPC   D2A10000  14.373  43.731   8.416
  373POPC   C3A10001  14.552  43.721   7.982
  373POPC   C4A10002  14.774  44.008   7.770
  373POPC   C1B10003  14.286  44.132   8.788
  373POPC   C2B10004  14.133  44.315   8.403
  373POPC   C3B10005  14.240  44.129   8.022
  373POPC   C4B10006  14.139  43.855   7.697
  374POPC   NC310007  27.121  25.624   9.320
  374POPC   PO410008  26.554  25.719   9.553
  374POPC   GL110009  26.589  25.812   9.133
  374POPC   GL210010  26.505  26.178   9.082
  374POPC   C1A10011  26.833  25.922   8.755
  374POPC   D2A10012  26.744  25.778   8.349
  374POPC   C3A10013  26.680  25.960   7.923
  374POPC   C4A10014  26.700  25.833   7.495
  374POPC   C1B10015  26.610  26.376   8.672
  374POPC   C2B10016  26.879  26.276   8.281
  374POPC   C3B10017  27.080  26.311   7.845
  374POPC   C4B10018  27.033  26.558   7.472
  375POPC   NC310019  38.292  42.988   9.556
  375POPC   PO410020  38.801  43.384   9.566
  375POPC   GL110021  38.439  43.373   9.248
  375POPC   GL210022  38.584  43.078   9.129
  375POPC   C1A10023  38.274  43.293   8.806
  375POPC   D2A10024  38.446  43.177   8.412
  375POPC   C3A10025  38.205  43.298   8.052
  375POPC   C4A10026  38.382  43.529   7.743
  375POPC   C1B10027  38.494  42.821   8.786
  375POPC   C2B10028  38.368  42.676   8.355
  375POPC   C3B10029  38.531  42.892   7.981
  375POPC   C4B10030  38.372  42.963   7.550
  376POPC   NC310031  30.515  19.260   9.375
  376POPC   PO410032  30.915  18.868   9.772
  376POPC   GL110033  30.948  19.007   9.254
  376POPC   GL210034  31.079  19.282   9.054
  376POPC   C1A10035  30.733  18.980   8.825
  376POPC   D2A10036  30.642  19.095   8.398
  376POPC   C3A10037  30.583  18.913   7.991
  376POPC   C4A10038  30.510  18.829   7.544
  376POPC   C1B10039  31.113  19.233   8.625
  376POPC   C2B10040  30.975  19.477   8.322
  376POPC   C3B10041  30.785  19.397   7.969
  376POPC   C4B10042  30.798  19.224   7.618
  377POPC   NC310043  16.451  12.254   9.568
  377POPC   PO410044  16.914  11.874   9.800
  377POPC   GL110045  16.915  11.974   9.290
  377POPC   GL210046  16.628  12.150   9.110
  377POPC   C1A10047  16.975  11.890   8.828
  377POPC   D2A10048  17.133  11.703   8.434
  377POPC   C3A10049  17.066  11.861   8.027
  377POPC   C4A10050  16.730  12.114   7.887
  377POPC   C1B10051  16.448  12.044   8.737
  377POPC   C2B10052  16.631  11.881   8.375
  377POPC   C3B10053  16.436  11.688   8.046
  377POPC   C4B10054  16.309  11.928   7.712
  378POPC   NC310055  24.102  31.864   9.384
  378POPC   PO410056  24.480  32.325   9.780
  378POPC   GL110057  24.409  32.304   9.320
  378POPC   GL210058  24.559  32.046   9.103
  378POPC   C1A10059  24.471  32.495   8.889
  378POPC   D2A10060  24.566  32.602   8.451
  378POPC   C3A10061  24.342  32.393   8.133
  378POPC   C4A10062  24.484  32.417   7.728
  378POPC   C1B10063  24.814  32.143   8.724
  378POPC   C2B10064  24.773  32.130   8.267
  378POPC   C3B10065  24.832  32.052   7.841
  378POPC   C4B10066  24.742  31.983   7.407
  379POPC   NC310067  35.314  22.858   9.741
  379POPC   PO410068  35.338  23.272   9.225
  379POPC   GL110069  35.617  23.167   8.925
  379POPC   GL210070  35.954  23.327   8.881
  379POPC   C1A10071  35.503  22.828   8.708
  379POPC   D2A10072  35.249  22.766   8.367
  379POPC   C3A10073  35.361  23.096   8.112
  379POPC   C4A10074  35.173  23.008   7.747
  379POPC   C1B10075  35.824  23.174   8.448
  379POPC   C2B10076  35.751  22.731   8.284
  379POPC   C3B10077  35.631  22.745   7.863
  379POPC   C4B10078  35.719  23.117   7.612
  380POPC   NC310079  14.186   2.555   9.794
  380POPC   PO410080  14.608   2.918   9.409
  380POPC   GL110081  14.452   2.725   9.115
  380POPC   GL210082  14.145   2.551   9.278
  380POPC   C1A10083  14.361   2.998   8.751
  380POPC   D2A10084  14.206   3.202   8.370
  380POPC   C3A10085  14.400   3.333   7.977
  380POPC   C4A10086  14.384   3.040   7.666
  380POPC   C1B10087  14.069   2.561   8.845
  380POPC   C2B10088  14.350   2.548   8.476
  380POPC   C3B10089  14.609   2.532   8.112
  380POPC   C4B10090  14.477   2.444   7.711
  381POPC   NC310091  15.547  13.632   9.493
  381POPC   PO410092  14.904  13.770   9.527
  381POPC   GL110093  15.079  13.576   9.178
  381POPC   GL210094  15.094  13.905   9.073
  381POPC   C1A10095  15.141  13.326   8.787
  381POPC   D2A10096  15.297  13.392   8.372
  381POPC   C3A10097  15.045  13.276   8.015
  381POPC   C4A10098  15.177  13.313   7.607
  381POPC   C1B10099  15.344  13.815   8.745
  381POPC   C2B10100  15.163  13.881   8.360
  381POPC   C3B10101  15.182  13.755   7.952
  381POPC   C4B10102  15.394  13.816   7.568
  382POPC   NC310103   0.064   4.753   9.387
  382POPC   PO410104   0.312   4.090   9.506
  382POPC   GL110105   0.442   4.442   9.208
  382POPC   GL210106   0.791   4.575   9.201
  382POPC   C1A10107   0.359   4.492   8.767
  382POPC   D2A10108   0.487   4.295   8.373
  382POPC   C3A10109   0.337   4.571   8.056
  382POPC   C4A10110  44.942   4.552   7.861
  382POPC   C1B10111   0.843   4.343   8.779
  382POPC   C2B10112   0.933   4.506   8.337
  382POPC   C3B10113   0.803   4.383   7.920
  382POPC   C4B10114   0.792   4.148   7.543
  383POPC   NC310115  43.388  11.586   9.315
  383POPC   PO410116  43.297  11.010   9.645
  383POPC   GL110117  43.054  11.183   9.238
  383POPC   GL210118  42.784  11.435   9.127
  383POPC   C1A10119  43.113  11.336   8.775
  383POPC   D2A10120  43.357  11.267   8.454
  383POPC   C3A10121  43.339  11.558   8.136
  383POPC   C4A10122  43.161  11.470   7.740
  383POPC   C1B10123  42.684  11.083   8.869
  383POPC   C2B10124  42.730  11.049   8.446
  383POPC   C3B10125  42.967  11.132   8.085
  383POPC   C4B10126  42.921  10.965   7.673
  384POPC   NC310127  11.559  38.823   9.491
  384POPC   PO410128  11.292  39.410   9.663
  384POPC   GL110129  11.205  39.167   9.271
  384POPC   GL210130  10.932  39.355   9.204
  384POPC   C1A10131  11.084  39.046   8.806
  384POPC   D2A10132  11.086  38.833   8.347
  384POPC   C3A10133  11.341  38.982   7.942
  384POPC   C4A10134  11.659  39.291   7.717
  384POPC   C1B10135  10.971  39.607   8.871
  384POPC   C2B10136  10.993  39.459   8.480
  384POPC   C3B10137  11.141  39.583   8.111
  384POPC   C4B10138  11.183  39.433   7.722
  385POPC   NC310139  16.713  24.797   9.513
  385POPC   PO410140  16.325  24.212   9.542
  385POPC   GL110141  16.573  24.302   9.183
  385POPC   GL210142  16.758  24.580   9.035
  385POPC   C1A10143  16.506  24.204   8.777
  385POPC   D2A10144  16.691  24.323   8.445
  385POPC   C3A10145  16.594  24.224   8.056
  385POPC   C4A10146  16.740  24.488   7.747
  385POPC   C1B10147  17.022  24.637   8.655
  385POPC   C2B10148  17.039  24.578   8.192
  385POPC   C3B10149  17.046  24.886   7.893
  385POPC   C4B10150  16.985  24.836   7.457
  386POPC   NC310151  36.102  36.746   9.364
  386POPC   PO410152  36.091  37.399   9.327
  386POPC   GL110153  36.235  37.100   8.986
  386POPC   GL210154  36.447  36.792   8.997
  386POPC   C1A10155  36.106  36.817   8.623
  386POPC   D2A10156  35.937  36.736   8.219
  386POPC   C3A10157  35.927  37.140   8.039
  386POPC   C4A10158  36.244  37.340   7.779
  386POPC   C1B10159  36.509  36.503   8.662
  386POPC   C2B10160  36.485  36.566   8.224
  386POPC   C3B10161  36.372  36.879   7.956
  386POPC   C4B10162  36.062  36.820   7.659
  387POPC   NC310163   2.987  40.258   9.357
  387POPC   PO410164   2.552  39.764   9.228
  387POPC   GL110165   2.769  39.990   8.965
  387POPC   GL210166   2.592  40.280   9.002
  387POPC   C1A10167   2.756  40.023   8.535
  387POPC   D2A10168   2.975  39.775   8.239
  387POPC   C3A10169   2.812  40.034   7.938
  387POPC   C4A10170   2.866  40.140   7.506
  387POPC   C1B10171   2.426  40.411   8.606
  387POPC   C2B10172   2.380  40.247   8.199
  387POPC   C3B10173   2.524  40.428   7.800
  387POPC   C4B10174   2.476  40.462   7.351
  388POPC   NC310175  21.583  36.317   9.667
  388POPC   PO410176  21.151  35.866   9.753
  388POPC   GL110177  21.335  36.096   9.287
  388POPC   GL210178  21.575  36.366   9.157
  388POPC   C1A10179  21.365  36.047   8.800
  388POPC   D2A10180  21.011  36.013   8.456
  388POPC   C3A10181  21.135  35.977   8.003
  388POPC   C4A10182  21.257  36.300   7.696
  388POPC   C1B10183  21.779  36.391   8.733
  388POPC   C2B10184  21.664  36.170   8.336
  388POPC   C3B10185  21.679  36.077   7.889
  388POPC   C4B10186  21.745  36.389   7.531
  389POPC   NC310187   2.401  14.163   9.285
  389POPC   PO410188   1.711  14.184   9.545
  389POPC   GL110189   1.957  14.376   9.200
  389POPC   GL210190   1.721  14.517   9.048
  389POPC   C1A10191   2.150  14.503   8.768
  389POPC   D2A10192   1.910  14.597   8.397
  389POPC   C3A10193   2.109  14.486   7.997
  389POPC   C4A10194   2.158  14.720   7.653
  389POPC   C1B10195   1.753  14.202   8.736
  389POPC   C2B10196   1.515  14.249   8.377
  389POPC   C3B10197   1.428  14.130   7.988
  389POPC   C4B10198   1.794  14.120   7.687
  390POPC   NC310199  34.124   9.090   9.570
  390POPC   PO410200  33.418   9.182   9.521
  390POPC   GL110201  33.773   9.167   9.209
  390POPC   GL210202  33.813   8.797   9.233
  390POPC   C1A10203  34.015   9.005   8.813
  390POPC   D2A10204  34.123   8.800   8.422
  390POPC   C3A10205  33.971   8.857   8.030
  390POPC   C4A10206  33.950   9.216   7.804
  390POPC   C1B10207  33.524   8.926   8.847
  390POPC   C2B10208  33.610   8.940   8.425
  390POPC   C3B10209  33.487   9.070   8.019
  390POPC   C4B10210  33.600   8.904   7.618
  391POPC   NC310211  12.557  29.638   9.482
  391POPC   PO410212  13.166  29.650   9.535
  391POPC   GL110213  13.014  29.820   9.143
  391POPC   GL210214  12.714  29.656   8.995
  391POPC   C1A10215  12.934  30.059   8.747
  391POPC   D2A10216  12.702  29.966   8.368
  391POPC   C3A10217  12.832  29.907   7.910
  391POPC   C4A10218  13.029  30.060   7.493
  391POPC   C1B10219  12.956  29.541   8.631
  391POPC   C2B10220  12.867  29.483   8.194
  391POPC   C3B10221  12.656  29.405   7.803
  391POPC   C4B10222  12.572  29.172   7.396
  392POPC   NC310223  36.702  23.282   9.446
  392POPC   PO410224  36.610  23.896   9.666
  392POPC   GL110225  36.768  23.738   9.176
  392POPC   GL210226  36.965  23.418   9.052
  392POPC   C1A10227  36.938  23.791   8.717
  392POPC   D2A10228  36.938  23.556   8.324
  392POPC   C3A10229  36.997  23.818   7.972
  392POPC   C4A10230  36.982  23.894   7.492
  392POPC   C1B10231  37.262  23.401   8.736
  392POPC   C2B10232  37.416  23.395   8.322
  392POPC   C3B10233  37.250  23.387   7.912
  392POPC   C4B10234  36.842  23.442   7.687
  393POPC   NC310235  13.005  13.252   9.544
  393POPC   PO410236  13.006  14.019   9.597
  393POPC   GL110237  12.830  13.663   9.314
  393POPC   GL210238  13.144  13.574   9.173
  393POPC   C1A10239  12.746  13.498   8.863
  393POPC   D2A10240  12.950  13.401   8.432
  393POPC   C3A10241  12.788  13.508   7.999
  393POPC   C4A10242  12.533  13.354   7.640
  393POPC   C1B10243  13.267  13.729   8.782
  393POPC   C2B10244  13.282  13.813   8.359
  393POPC   C3B10245  13.332  13.598   7.994
  393POPC   C4B10246  13.105  13.728   7.647
  394POPC   NC310247  37.962  29.092   9.496
  394POPC   PO410248  38.585  29.259   9.512
  394POPC   GL110249  38.405  28.988   9.201
  394POPC   GL210250  38.132  29.153   9.018
  394POPC   C1A10251  38.510  28.873   8.786
  394POPC   D2A10252  38.381  28.725   8.381
  394POPC   C3A10253  38.681  28.848   8.123
  394POPC   C4A10254  38.658  29.125   7.824
  394POPC   C1B10255  38.144  29.157   8.554
  394POPC   C2B10256  38.264  29.217   8.126
  394POPC   C3B10257  38.148  29.320   7.685
  394POPC   C4B10258  38.121  29.540   7.275
  395POPC   NC310259  20.822   4.854   9.771
  395POPC   PO410260  20.400   4.544   9.456
  395POPC   GL110261  20.538   4.433   9.087
  395POPC   GL210262  20.629   4.099   9.201
  395POPC   C1A10263  20.626   4.480   8.648
  395POPC   D2A10264  20.837   4.484   8.244
  395POPC   C3A10265  20.672   4.559   7.837
  395POPC   C4A10266  20.853   4.554   7.419
  395POPC   C1B10267  20.423   4.018   8.796
  395POPC   C2B10268  20.451   4.117   8.339
  395POPC   C3B10269  20.709   4.049   7.946
  395POPC   C4B10270  20.836   4.059   7.515
  396POPC   NC310271   3.781  18.799   9.355
  396POPC   PO410272   3.678  19.435   9.493
  396POPC   GL110273   3.503  19.225   9.140
  396POPC   GL210274   3.325  18.909   9.102
  396POPC   C1A10275   3.692  19.142   8.733
  396POPC   D2A10276   3.640  19.372   8.349
  396POPC   C3A10277   3.780  19.251   7.938
  396POPC   C4A10278   3.773  18.969   7.570
  396POPC   C1B10279   3.195  19.110   8.694
  396POPC   C2B10280   3.186  19.113   8.257
  396POPC   C3B10281   3.332  19.017   7.879
  396POPC   C4B10282   3.281  18.883   7.434
  397POPC   NC310283  12.323  41.609   9.851
  397POPC   PO410284  12.977  41.576   9.724
  397POPC   GL110285  12.954  41.562   9.177
  397POPC   GL210286  12.663  41.287   9.036
  397POPC   C1A10287  12.762  41.708   8.775
  397POPC   D2A10288  12.649  41.451   8.397
  397POPC   C3A10289  12.713  41.723   8.034
  397POPC   C4A10290  13.003  41.874   7.712
  397POPC   C1B10291  13.017  41.252   8.759
  397POPC   C2B10292  13.169  41.375   8.370
  397POPC   C3B10293  13.143  41.176   7.999
  397POPC   C4B10294  13.174  41.381   7.641
  398POPC   NC310295  23.807  22.010   9.642
  398POPC   PO410296  24.065  22.564   9.442
  398POPC   GL110297  23.745  22.317   9.215
  398POPC   GL210298  23.783  21.965   9.123
  398POPC   C1A10299  23.516  22.304   8.824
  398POPC   D2A10300  23.684  22.137   8.433
  398POPC   C3A10301  23.511  22.236   8.050
  398POPC   C4A10302  23.706  22.471   7.765
  398POPC   C1B10303  24.041  21.952   8.748
  398POPC   C2B10304  24.205  22.125   8.351
  398POPC   C3B10305  24.034  22.063   7.933
  398POPC   C4B10306  23.731  22.003   7.606
  399POPC   NC310307  20.891  14.050   9.242
  399POPC   PO410308  20.645  13.458   9.562
  399POPC   GL110309  20.539  13.616   9.161
  399POPC   GL210310  20.385  13.954   9.117
  399POPC   C1A10311  20.637  13.631   8.737
  399POPC   D2A10312  20.526  13.453   8.367
  399POPC   C3A10313  20.727  13.626   8.014
  399POPC   C4A10314  20.581  13.434   7.657
  399POPC   C1B10315  20.165  13.858   8.704
  399POPC   C2B10316  20.047  13.642   8.340
  399POPC   C3B10317  20.228  13.657   7.973
  399POPC   C4B10318  20.371  13.900   7.653
  400POPC   NC310319  11.553  26.917   9.486
  400POPC   PO410320  10.940  26.820   9.185
  400POPC   GL110321  11.366  26.781   9.037
  400POPC   GL210322  11.458  27.130   9.029
  400POPC   C1A10323  11.633  26.676   8.683
  400POPC   D2A10324  11.605  26.458   8.279
  400POPC   C3A10325  11.457  26.645   7.882
  400POPC   C4A10326  11.036  26.530   7.686
  400POPC   C1B10327  11.313  27.105   8.635
  400POPC   C2B10328  11.487  26.993   8.273
  400POPC   C3B10329  11.369  27.170   7.908
  400POPC   C4B10330  11.231  26.998   7.579
  401POPC   NC310331  36.934   2.833   9.479
  401POPC   PO410332  37.298   2.299   9.484
  401POPC   GL110333  37.029   2.352   9.122
  401POPC   GL210334  37.122   2.668   9.045
  401POPC   C1A10335  36.868   2.427   8.654
  401POPC   D2A10336  36.778   2.363   8.181
  401POPC   C3A10337  36.924   2.640   7.850
  401POPC   C4A10338  36.921   3.092   7.901
  401POPC   C1B10339  36.976   2.929   8.760
  401POPC   C2B10340  37.017   2.845   8.341
  401POPC   C3B10341  37.350   2.767   8.072
  401POPC   C4B10342  37.364   2.917   7.674
  402POPC   NC310343  39.010   2.200   9.584
  402POPC   PO410344  38.643   1.603   9.551
  402POPC   GL110345  38.623   1.813   9.186
  402POPC   GL210346  38.977   1.869   9.196
  402POPC   C1A10347  38.462   2.015   8.788
  402POPC   D2A10348  38.744   2.251   8.479
  402POPC   C3A10349  38.576   2.221   8.051
  402POPC   C4A10350  38.306   1.908   7.874
  402POPC   C1B10351  38.910   1.794   8.762
  402POPC   C2B10352  38.688   1.766   8.361
  402POPC   C3B10353  38.826   1.791   7.953
  402POPC   C4B10354  38.976   1.965   7.601
  403POPC   NC310355  31.941  32.466   9.363
  403POPC   PO410356  31.987  33.134   9.477
  403POPC   GL110357  32.142  32.890   9.094
  403POPC   GL210358  31.985  32.662   8.889
  403POPC   C1A10359  32.485  32.855   8.779
  403POPC   D2A10360  32.561  32.930   8.321
  403POPC   C3A10361  32.234  33.002   8.031
  403POPC   C4A10362  32.330  32.970   7.619
  403POPC   C1B10363  32.016  32.990   8.593
  403POPC   C2B10364  31.769  33.053   8.246
  403POPC   C3B10365  31.701  32.861   7.880
  403POPC   C4B10366  31.840  33.016   7.504
  404POPC   NC310367  20.999  30.810   9.496
  404POPC   PO410368  21.565  30.516   9.550
  404POPC   GL110369  21.656  30.688   9.125
  404POPC   GL210370  21.696  31.053   9.153
  404POPC   C1A10371  21.597  30.651   8.648
  404POPC   D2A10372  21.144  30.644   8.445
  404POPC   C3A10373  21.114  30.736   8.008
  404POPC   C4A10374  21.558  30.677   7.941
  404POPC   C1B10375  21.397  31.094   8.775
  404POPC   C2B10376  21.396  31.080   8.300
  404POPC   C3B10377  21.403  31.159   7.855
  404POPC   C4B10378  21.070  31.143   7.569
  405POPC   NC310379  10.195  21.703   9.441
  405POPC   PO410380  10.689  22.248   9.610
  405POPC   GL110381  10.537  22.177   9.243
  405POPC   GL210382  10.813  22.134   9.040
  405POPC   C1A10383  10.329  22.209   8.867
  405POPC   D2A10384  10.180  22.052   8.466
  405POPC   C3A10385  10.469  22.119   8.162
  405POPC   C4A10386  10.547  22.154   7.727
  405POPC   C1B10387  10.958  21.851   8.736
  405POPC   C2B10388  10.800  21.737   8.333
  405POPC   C3B10389  10.903  21.870   7.921
  405POPC   C4B10390  11.042  21.914   7.481
  406POPC   NC310391  13.157  12.745   9.480
  406POPC   PO410392  12.544  13.140   9.475
  406POPC   GL110393  12.804  12.940   9.110
  406POPC   GL210394  12.831  12.598   9.118
  406POPC   C1A10395  12.737  12.701   8.650
  406POPC   D2A10396  13.012  12.841   8.331
  406POPC   C3A10397  12.809  12.938   7.942
  406POPC   C4A10398  12.390  12.877   7.800
  406POPC   C1B10399  13.179  12.543   8.816
  406POPC   C2B10400  13.078  12.341   8.411
  406POPC   C3B10401  13.143  12.456   7.982
  406POPC   C4B10402  13.128  12.667   7.573
  407POPC   NC310403   6.999  36.672   9.366
  407POPC   PO410404   7.620  36.420   9.465
  407POPC   GL110405   7.467  36.784   9.192
  407POPC   GL210406   7.433  37.172   9.176
  407POPC   C1A10407   7.293  36.835   8.777
  407POPC   D2A10408   7.469  36.620   8.453
  407POPC   C3A10409   7.349  36.696   8.069
  407POPC   C4A10410   7.465  36.758   7.677
  407POPC   C1B10411   7.559  37.273   8.731
  407POPC   C2B10412   7.495  37.162   8.291
  407POPC   C3B10413   7.577  37.216   7.866
  407POPC   C4B10414   7.555  37.202   7.429
  408POPC   NC310415   9.437  24.107   9.484
  408POPC   PO410416   9.772  23.501   9.426
  408POPC   GL110417   9.993  23.720   9.100
  408POPC   GL210418   9.705  23.902   9.075
  408POPC   C1A10419  10.121  23.536   8.697
  408POPC   D2A10420   9.884  23.266   8.388
  408POPC   C3A10421   9.647  23.510   8.099
  408POPC   C4A10422   9.828  23.625   7.686
  408POPC   C1B10423   9.636  23.725   8.663
  408POPC   C2B10424   9.531  23.964   8.300
  408POPC   C3B10425   9.790  24.070   7.965
  408POPC   C4B10426   9.733  24.115   7.519
  409POPC   NC310427  40.379  35.171   9.478
  409POPC   PO410428  40.986  35.496   9.285
  409POPC   GL110429  40.636  35.405   9.081
  409POPC   GL210430  40.436  35.734   9.107
  409POPC   C1A10431  40.630  35.151   8.694
  409POPC   D2A10432  40.726  35.361   8.302
  409POPC   C3A10433  40.736  35.067   8.023
  409POPC   C4A10434  40.827  34.952   7.627
  409POPC   C1B10435  40.429  35.603   8.653
  409POPC   C2B10436  40.357  35.722   8.232
  409POPC   C3B10437  40.442  35.642   7.791
  409POPC   C4B10438  40.866  35.510   7.787
  410POPC   NC310439  35.782  19.696   9.605
  410POPC   PO410440  35.193  20.042   9.536
  410POPC   GL110441  35.201  19.895   9.152
  410POPC   GL210442  35.479  19.751   9.191
  410POPC   C1A10443  35.091  19.922   8.736
  410POPC   D2A10444  35.111  19.732   8.360
  410POPC   C3A10445  35.277  19.969   8.051
  410POPC   C4A10446  35.139  19.970   7.654
  410POPC   C1B10447  35.610  19.906   8.817
  410POPC   C2B10448  35.621  19.874   8.414
  410POPC   C3B10449  35.803  20.019   8.033
  410POPC   C4B10450  35.630  19.818   7.675
  411POPC   NC310451  26.122   8.534   9.357
  411POPC   PO410452  25.763   7.927   9.277
  411POPC   GL110453  25.812   8.143   9.000
  411POPC   GL210454  25.653   8.432   9.130
  411POPC   C1A10455  25.899   8.064   8.576
  411POPC   D2A10456  26.206   8.335   8.374
  411POPC   C3A10457  26.346   8.154   8.025
  411POPC   C4A10458  26.165   7.930   7.729
  411POPC   C1B10459  25.875   8.560   8.731
  411POPC   C2B10460  25.849   8.702   8.343
  411POPC   C3B10461  26.068   8.594   7.936
  411POPC   C4B10462  25.941   8.404   7.571
  412POPC   NC310463  43.089  24.723   9.585
  412POPC   PO410464  42.593  24.153   9.481
  412POPC   GL110465  42.906  24.453   9.190
  412POPC   GL210466  43.285  24.514   9.164
  412POPC   C1A10467  42.925  24.677   8.778
  412POPC   D2A10468  43.037  24.791   8.363
  412POPC   C3A10469  42.900  24.696   7.994
  412POPC   C4A10470  43.073  24.621   7.603
  412POPC   C1B10471  43.425  24.673   8.752
  412POPC   C2B10472  43.411  24.469   8.340
  412POPC   C3B10473  43.492  24.575   7.898
  412POPC   C4B10474  43.516  24.311   7.502
  413POPC   NC310475  27.045  15.393   9.603
  413POPC   PO410476  26.839  14.797   9.466
  413POPC   GL110477  26.714  15.199   9.246
  413POPC   GL210478  27.019  15.257   9.101
  413POPC   C1A10479  26.454  15.200   8.866
  413POPC   D2A10480  26.519  14.967   8.504
  413POPC   C3A10481  26.615  15.108   8.095
  413POPC   C4A10482  26.634  15.009   7.655
  413POPC   C1B10483  26.941  15.208   8.660
  413POPC   C2B10484  27.093  15.100   8.235
  413POPC   C3B10485  27.052  15.286   7.801
  413POPC   C4B10486  27.110  15.504   7.386
  414POPC   NC310487  13.794  20.014   9.493
  414POPC   PO410488  13.335  19.525   9.440
  414POPC   GL110489  13.672  19.528   9.183
  414POPC   GL210490  13.603  19.844   9.050
  414POPC   C1A10491  13.908  19.497   8.797
  414POPC   D2A10492  13.988  19.744   8.430
  414POPC   C3A10493  13.652  19.742   8.130
  414POPC   C4A10494  13.698  19.467   7.784
  414POPC   C1B10495  13.643  20.068   8.676
  414POPC   C2B10496  13.886  20.242   8.341
  414POPC   C3B10497  13.744  20.209   7.953
  414POPC   C4B10498  13.821  19.932   7.652
  415POPC   NC310499  39.785  20.392   9.543
  415POPC   PO410500  40.447  20.209   9.563
  415POPC   GL110501  40.191  20.357   9.245
  415POPC   GL210502  40.149  20.619   9.159
  415POPC   C1A10503  40.071  20.276   8.807
  415POPC   D2A10504  39.806  20.170   8.461
  415POPC   C3A10505  39.969  20.297   8.048
  415POPC   C4A10506  40.161  20.518   7.749
  415POPC   C1B10507  40.002  20.774   8.737
  415POPC   C2B10508  39.886  20.750   8.296
  415POPC   C3B10509  39.707  20.762   7.861
  415POPC   C4B10510  39.816  20.702   7.407
  416POPC   NC310511   1.262   8.575   9.562
  416POPC   PO410512   0.871   8.015   9.568
  416POPC   GL110513   1.065   8.244   9.250
  416POPC   GL210514   1.424   8.152   9.296
  416POPC   C1A10515   1.148   8.229   8.823
  416POPC   D2A10516   1.214   7.941   8.490
  416POPC   C3A10517   1.051   8.081   8.105
  416POPC   C4A10518   1.076   7.911   7.704
  416POPC   C1B10519   1.632   8.354   8.949
  416POPC   C2B10520   1.606   8.268   8.536
  416POPC   C3B10521   1.570   8.121   8.139
  416POPC   C4B10522   1.428   8.278   7.771
  417POPC   NC310523  30.268  19.755   9.446
  417POPC   PO410524  30.938  19.552   9.446
  417POPC   GL110525  30.912  19.780   9.089
  417POPC   GL210526  30.566  19.866   9.048
  417POPC   C1A10527  30.960  19.908   8.689
  417POPC   D2A10528  30.735  20.094   8.416
  417POPC   C3A10529  30.769  19.914   8.044
  417POPC   C4A10530  30.770  19.795   7.631
  417POPC   C1B10531  30.630  19.515   8.743
  417POPC   C2B10532  30.475  19.578   8.328
  417POPC   C3B10533  30.334  19.636   7.922
  417POPC   C4B10534  30.274  19.295   7.669
  418POPC   NC310535  39.195  39.650   9.834
  418POPC   PO410536  39.062  39.080   9.546
  418POPC   GL110537  39.136  39.240   9.175
  418POPC   GL210538  38.894  39.030   9.038
  418POPC   C1A10539  39.315  39.148   8.764
  418POPC   D2A10540  39.132  39.089   8.365
  418POPC   C3A10541  39.406  39.206   8.035
  418POPC   C4A10542  39.353  39.084   7.606
  418POPC   C1B10543  38.824  39.393   8.783
  418POPC   C2B10544  38.715  39.427   8.347
  418POPC   C3B10545  38.872  39.295   7.953
  418POPC   C4B10546  38.859  39.161   7.539
  419POPC   NC310547   4.672   3.307   9.643
  419POPC   PO410548   4.287   3.944   9.699
  419POPC   GL110549   4.449   3.805   9.274
  419POPC   GL210550   4.348   3.465   9.257
  419POPC   C1A10551   4.482   3.802   8.779
  419POPC   D2A10552   4.222   3.775   8.378
  419POPC   C3A10553   4.381   3.736   7.930
  419POPC   C4A10554   4.114   3.561   7.592
  419POPC   C1B10555   4.593   3.302   8.892
  419POPC   C2B10556   4.478   3.317   8.428
  419POPC   C3B10557   4.274   3.247   8.009
  419POPC   C4B10558   4.422   3.130   7.605
  420POPC   NC310559  32.785  33.969   9.819
  420POPC   PO410560  33.298  33.644   9.664
  420POPC   GL110561  33.371  33.733   9.193
  420POPC   GL210562  33.221  34.026   9.071
  420POPC   C1A10563  33.110  33.588   8.829
  420POPC   D2A10564  33.005  33.766   8.404
  420POPC   C3A10565  33.032  33.727   7.936
  420POPC   C4A10566  32.656  33.845   7.670
  420POPC   C1B10567  33.453  33.920   8.667
  420POPC   C2B10568  33.475  33.897   8.186
  420POPC   C3B10569  33.331  34.138   7.800
  420POPC   C4B10570  33.492  34.151   7.347
  421POPC   NC310571  10.398  40.353   9.239
  421POPC   PO410572  10.856  40.888   9.469
  421POPC   GL110573  10.754  40.696   9.118
  421POPC   GL210574  10.441  40.860   9.124
  421POPC   C1A10575  10.646  40.757   8.684
  421POPC   D2A10576  10.773  41.019   8.363
  421POPC   C3A10577  10.582  40.775   8.073
  421POPC   C4A10578  10.645  40.691   7.680
  421POPC   C1B10579  10.368  41.191   8.798
  421POPC   C2B10580  10.267  41.102   8.348
  421POPC   C3B10581  10.148  40.990   7.916
  421POPC   C4B10582  10.182  41.179   7.515
  422POPC   NC310583  21.925  15.279   9.540
  422POPC   PO410584  22.637  15.409   9.555
  422POPC   GL110585  22.313  15.399   9.211
  422POPC   GL210586  22.226  15.051   9.148
  422POPC   C1A10587  22.403  15.345   8.759
  422POPC   D2A10588  22.279  15.054   8.431
  422POPC   C3A10589  22.420  15.016   8.007
  422POPC   C4A10590  22.615  15.053   7.616
  422POPC   C1B10591  21.923  14.937   8.783
  422POPC   C2B10592  21.838  14.819   8.332
  422POPC   C3B10593  21.868  14.833   7.873
  422POPC   C4B10594  21.753  14.917   7.405
  423POPC   NC310595  42.149  24.263   9.366
  423POPC   PO410596  42.454  24.587   9.904
  423POPC   GL110597  42.495  24.648   9.404
  423POPC   GL210598  42.232  24.765   9.230
  423POPC   C1A10599  42.494  24.476   8.902
  423POPC   D2A10600  42.526  24.607   8.476
  423POPC   C3A10601  42.557  24.336   8.100
  423POPC   C4A10602  42.587  24.428   7.664
  423POPC   C1B10603  42.087  24.753   8.789
  423POPC   C2B10604  42.142  25.001   8.459
  423POPC   C3B10605  42.231  24.771   8.117
  423POPC   C4B10606  42.191  24.834   7.726
  424POPC   NC310607  29.607  40.793   9.721
  424POPC   PO410608  30.083  40.402   9.599
  424POPC   GL110609  30.054  40.759   9.274
  424POPC   GL210610  29.752  40.990   9.252
  424POPC   C1A10611  30.033  40.818   8.818
  424POPC   D2A10612  29.830  40.874   8.392
  424POPC   C3A10613  30.045  40.761   7.989
  424POPC   C4A10614  30.013  40.378   7.707
  424POPC   C1B10615  29.623  41.148   8.818
  424POPC   C2B10616  29.648  41.351   8.371
  424POPC   C3B10617  29.667  41.145   7.973
  424POPC   C4B10618  29.763  41.092   7.544
  425POPC   NC310619  15.802  18.724   9.492
  425POPC   PO410620  16.330  19.140   9.480
  425POPC   GL110621  16.127  18.960   9.174
  425POPC   GL210622  15.843  19.159   9.160
  425POPC   C1A10623  16.125  18.870   8.749
  425POPC   D2A10624  16.001  18.734   8.371
  425POPC   C3A10625  16.040  19.019   8.068
  425POPC   C4A10626  16.110  18.786   7.715
  425POPC   C1B10627  15.646  18.980   8.839
  425POPC   C2B10628  15.577  19.050   8.420
  425POPC   C3B10629  15.554  18.872   8.025
  425POPC   C4B10630  15.690  19.156   7.710
  426POPC   NC310631  10.278   9.744   9.836
  426POPC   PO410632  10.718  10.028   9.399
  426POPC   GL110633  10.538   9.807   9.032
  426POPC   GL210634  10.355  10.026   8.863
  426POPC   C1A10635  10.551   9.583   8.681
  426POPC   D2A10636  10.763   9.360   8.404
  426POPC   C3A10637  10.556   9.492   8.066
  426POPC   C4A10638  10.728   9.420   7.666
  426POPC   C1B10639  10.842  10.020   8.721
  426POPC   C2B10640  10.950   9.868   8.341
  426POPC   C3B10641  10.794   9.911   7.930
  426POPC   C4B10642  10.400   9.822   7.723
  427POPC   NC310643  14.268  21.600   9.484
  427POPC   PO410644  14.817  21.132   9.508
  427POPC   GL110645  14.561  21.289   9.159
  427POPC   GL210646  14.717  21.604   9.196
  427POPC   C1A10647  14.300  21.527   8.834
  427POPC   D2A10648  13.927  21.500   8.571
  427POPC   C3A10649  13.984  21.581   8.137
  427POPC   C4A10650  14.205  21.393   7.839
  427POPC   C1B10651  14.813  21.551   8.760
  427POPC   C2B10652  14.587  21.545   8.367
  427POPC   C3B10653  14.692  21.564   7.931
  427POPC   C4B10654  14.441  21.781   7.587
  428POPC   NC310655  21.972  38.293   9.498
  428POPC   PO410656  22.366  38.732   9.202
  428POPC   GL110657  22.156  38.383   8.995
  428POPC   GL210658  21.791  38.236   9.038
  428POPC   C1A10659  22.304  38.374   8.586
  428POPC   D2A10660  22.465  38.784   8.334
  428POPC   C3A10661  22.324  38.777   7.904
  428POPC   C4A10662  22.333  38.360   7.764
  428POPC   C1B10663  21.737  38.651   8.870
  428POPC   C2B10664  21.989  38.773   8.526
  428POPC   C3B10665  22.031  38.475   8.173
  428POPC   C4B10666  21.806  38.435   7.794
  429POPC   NC310667  11.801  26.044   9.530
  429POPC   PO410668  12.349  25.591   9.394
  429POPC   GL110669  12.423  25.919   9.102
  429POPC   GL210670  12.281  26.216   9.225
  429POPC   C1A10671  12.390  26.166   8.711
  429POPC   D2A10672  12.308  25.940   8.304
  429POPC   C3A10673  12.375  26.073   7.891
  429POPC   C4A10674  12.446  25.745   7.551
  429POPC   C1B10675  11.940  26.110   8.912
  429POPC   C2B10676  11.841  26.026   8.500
  429POPC   C3B10677  11.876  26.086   8.052
  429POPC   C4B10678  11.940  25.846   7.692
  430POPC   NC310679  27.149  11.421   9.888
  430POPC   PO410680  26.698  11.209   9.507
  430POPC   GL110681  26.710  10.952   9.178
  430POPC   GL210682  27.012  10.999   9.004
  430POPC   C1A10683  26.551  10.965   8.760
  430POPC   D2A10684  26.490  11.215   8.392
  430POPC   C3A10685  26.747  11.132   8.111
  430POPC   C4A10686  26.651  11.199   7.710
  430POPC   C1B10687  26.861  11.369   8.714
  430POPC   C2B10688  27.062  11.499   8.325
  430POPC   C3B10689  27.079  11.447   7.882
  430POPC   C4B10690  27.097  11.302   7.472
  431POPC   NC310691  30.390  30.782   9.438
  431POPC   PO410692  29.929  30.418   9.698
  431POPC   GL110693  29.929  30.642   9.245
  431POPC   GL210694  29.715  30.944   9.165
  431POPC   C1A10695  30.037  30.768   8.796
  431POPC   D2A10696  29.827  30.707   8.383
  431POPC   C3A10697  30.010  30.799   7.965
  431POPC   C4A10698  30.174  30.756   7.533
  431POPC   C1B10699  29.514  30.782   8.790
  431POPC   C2B10700  29.322  30.831   8.396
  431POPC   C3B10701  29.502  30.802   7.996
  431POPC   C4B10702  29.648  30.882   7.576
  432POPC   NC310703  28.304   3.495   9.634
  432POPC   PO410704  28.824   3.800   9.391
  432POPC   GL110705  28.498   3.612   9.147
  432POPC   GL210706  28.481   3.230   9.220
  432POPC   C1A10707  28.347   3.788   8.726
  432POPC   D2A10708  28.234   3.917   8.273
  432POPC   C3A10709  28.421   3.746   7.875
  432POPC   C4A10710  28.509   3.848   7.418
  432POPC   C1B10711  28.305   3.251   8.804
  432POPC   C2B10712  28.454   3.396   8.386
  432POPC   C3B10713  28.435   3.251   7.981
  432POPC   C4B10714  28.029   3.314   7.825
  433POPC   NC310715  34.290  42.178   9.521
  433POPC   PO410716  34.926  42.608   9.508
  433POPC   GL110717  34.716  42.365   9.166
  433POPC   GL210718  34.373  42.420   9.070
  433POPC   C1A10719  34.737  42.304   8.709
  433POPC   D2A10720  34.776  42.582   8.366
  433POPC   C3A10721  34.764  42.429   7.979
  433POPC   C4A10722  34.516  42.539   7.678
  433POPC   C1B10723  34.398  41.984   8.909
  433POPC   C2B10724  34.374  41.936   8.477
  433POPC   C3B10725  34.227  42.074   8.089
  433POPC   C4B10726  34.490  42.045   7.757
  434POPC   NC310727  38.468  11.654   9.276
  434POPC   PO410728  37.970  11.139   9.456
  434POPC   GL110729  38.282  11.110   9.122
  434POPC   GL210730  38.658  11.142   9.172
  434POPC   C1A10731  38.411  11.297   8.744
  434POPC   D2A10732  38.454  11.605   8.448
  434POPC   C3A10733  38.276  11.456   8.116
  434POPC   C4A10734  38.223  11.528   7.719
  434POPC   C1B10735  38.861  11.083   8.737
  434POPC   C2B10736  38.676  11.184   8.290
  434POPC   C3B10737  38.636  11.177   7.813
  434POPC   C4B10738  38.736  10.995   7.406
  435POPC   NC310739   4.272  26.627   9.872
  435POPC   PO410740   4.776  26.876   9.533
  435POPC   GL110741   4.624  26.785   9.141
  435POPC   GL210742   4.445  27.094   9.154
  435POPC   C1A10743   4.655  26.697   8.660
  435POPC   D2A10744   4.628  26.950   8.271
  435POPC   C3A10745   4.468  26.782   7.861
  435POPC   C4A10746   4.611  26.374   7.626
  435POPC   C1B10747   4.369  27.122   8.688
  435POPC   C2B10748   4.130  27.016   8.270
  435POPC   C3B10749   4.031  27.037   7.809
  435POPC   C4B10750   3.826  26.847   7.460
  436POPC   NC310751  31.944  18.292   9.553
  436POPC   PO410752  32.609  18.316   9.473
  436POPC   GL110753  32.548  18.439   9.044
  436POPC   GL210754  32.633  18.114   8.982
  436POPC   C1A10755  32.208  18.459   8.715
  436POPC   D2A10756  31.943  18.195   8.411
  436POPC   C3A10757  32.180  18.172   8.014
  436POPC   C4A10758  32.213  18.548   7.800
  436POPC   C1B10759  32.582  18.140   8.546
  436POPC   C2B10760  32.547  18.445   8.224
  436POPC   C3B10761  32.704  18.350   7.815
  436POPC   C4B10762  32.685  17.972   7.518
  437POPC   NC310763  40.224  40.265   9.550
  437POPC   PO410764  39.872  39.664   9.405
  437POPC   GL110765  40.086  39.965   9.151
  437POPC   GL210766  39.807  40.164   9.105
  437POPC   C1A10767  40.247  40.174   8.795
  437POPC   D2A10768  40.369  40.092   8.412
  437POPC   C3A10769  40.029  39.967   8.176
  437POPC   C4A10770  40.042  40.054   7.774
  437POPC   C1B10771  39.799  39.940   8.684
  437POPC   C2B10772  39.727  39.597   8.377
  437POPC   C3B10773  39.758  39.610   7.929
  437POPC   C4B10774  39.461  39.569   7.649
  438POPC   NC310775  40.300  36.725   9.356
  438POPC   PO410776  40.036  37.348   9.492
  438POPC   GL110777  39.988  37.033   9.110
  438POPC   GL210778  39.981  36.673   8.969
  438POPC   C1A10779  40.073  37.069   8.682
  438POPC   D2A10780  39.740  37.050   8.428
  438POPC   C3A10781  39.944  36.990   8.075
  438POPC   C4A10782  39.790  36.816   7.776
  438POPC   C1B10783  40.352  36.614   8.707
  438POPC   C2B10784  40.455  36.733   8.300
  438POPC   C3B10785  40.248  36.587   7.929
  438POPC   C4B10786  40.011  36.417   7.591
  439POPC   NC310787  26.719  41.912   9.360
  439POPC   PO410788  26.632  42.572   9.693
  439POPC   GL110789  26.758  42.417   9.283
  439POPC   GL210790  27.115  42.381   9.346
  439POPC   C1A10791  26.598  42.378   8.825
  439POPC   D2A10792  26.627  42.524   8.358
  439POPC   C3A10793  26.726  42.155   8.088
  439POPC   C4A10794  26.497  41.804   7.877
  439POPC   C1B10795  27.131  42.438   8.900
  439POPC   C2B10796  27.108  42.411   8.462
  439POPC   C3B10797  27.046  42.557   8.028
  439POPC   C4B10798  27.064  42.257   7.707
  440POPC   NC310799  24.123  28.436   9.691
  440POPC   PO410800  23.590  28.070   9.418
  440POPC   GL110801  23.595  28.275   9.057
  440POPC   GL210802  23.525  28.597   9.264
  440POPC   C1A10803  23.813  28.082   8.671
  440POPC   D2A10804  23.685  27.920   8.239
  440POPC   C3A10805  23.833  28.111   7.857
  440POPC   C4A10806  23.642  28.118   7.451
  440POPC   C1B10807  23.564  28.757   8.853
  440POPC   C2B10808  23.774  28.580   8.523
  440POPC   C3B10809  23.651  28.527   8.111
  440POPC   C4B10810  23.717  28.577   7.686
  441POPC   NC310811  28.975  24.700   9.335
  441POPC   PO410812  28.739  24.146   9.393
  441POPC   GL110813  28.902  24.296   9.020
  441POPC   GL210814  29.254  24.318   9.049
  441POPC   C1A10815  28.981  24.514   8.629
  441POPC   D2A10816  28.858  24.734   8.246
  441POPC   C3A10817  28.971  24.528   7.845
  441POPC   C4A10818  29.264  24.172   7.760
  441POPC   C1B10819  29.338  24.143   8.620
  441POPC   C2B10820  29.280  24.379   8.233
  441POPC   C3B10821  29.470  24.628   7.894
  441POPC   C4B10822  29.291  24.819   7.521
  442POPC   NC310823  36.146  35.569   9.584
  442POPC   PO410824  36.196  34.888   9.616
  442POPC   GL110825  36.196  35.172   9.194
  442POPC   GL210826  36.006  35.460   9.112
  442POPC   C1A10827  36.253  35.212   8.709
  442POPC   D2A10828  36.026  35.365   8.297
  442POPC   C3A10829  35.980  35.130   7.891
  442POPC   C4A10830  36.002  35.082   7.420
  442POPC   C1B10831  36.068  35.702   8.730
  442POPC   C2B10832  35.837  35.849   8.377
  442POPC   C3B10833  35.825  35.759   7.945
  442POPC   C4B10834  36.130  35.562   7.671
  443POPC   NC310835  28.350   0.995   9.642
  443POPC   PO410836  28.710   1.592   9.537
  443POPC   GL110837  28.768   1.353   9.163
  443POPC   GL210838  28.417   1.261   9.193
  443POPC   C1A10839  28.696   1.151   8.740
  443POPC   D2A10840  28.733   1.010   8.290
  443POPC   C3A10841  28.366   1.096   8.031
  443POPC   C4A10842  28.186   0.971   7.633
  443POPC   C1B10843  28.344   1.515   8.840
  443POPC   C2B10844  28.455   1.471   8.417
  443POPC   C3B10845  28.471   1.606   8.022
  443POPC   C4B10846  28.122   1.505   7.762
  444POPC   NC310847  12.388   1.000   9.344
  444POPC   PO410848  12.208   1.532   9.734
  444POPC   GL110849  11.973   1.467   9.267
  444POPC   GL210850  12.041   1.170   9.064
  444POPC   C1A10851  11.978   1.577   8.808
  444POPC   D2A10852  12.079   1.284   8.450
  444POPC   C3A10853  12.173   1.411   8.023
  444POPC   C4A10854  12.033   1.209   7.630
  444POPC   C1B10855  12.090   0.862   8.732
  444POPC   C2B10856  12.228   0.755   8.372
  444POPC   C3B10857  12.299   0.919   7.982
  444POPC   C4B10858  12.313   0.697   7.638
  445POPC   NC310859   1.460   3.546   9.857
  445POPC   PO410860   0.842   3.650   9.525
  445POPC   GL110861   1.017   3.527   9.173
  445POPC   GL210862   1.351   3.465   9.329
  445POPC   C1A10863   1.058   3.579   8.722
  445POPC   D2A10864   1.103   3.546   8.279
  445POPC   C3A10865   0.936   3.469   7.923
  445POPC   C4A10866   1.092   3.829   7.752
  445POPC   C1B10867   1.336   3.204   8.950
  445POPC   C2B10868   1.313   3.157   8.509
  445POPC   C3B10869   1.461   3.227   8.075
  445POPC   C4B10870   1.424   3.463   7.695
  446POPC   NC310871  40.967  38.224   9.463
  446POPC   PO410872  40.553  38.720   9.409
  446POPC   GL110873  40.821  38.584   9.131
  446POPC   GL210874  40.626  38.315   9.034
  446POPC   C1A10875  40.968  38.591   8.740
  446POPC   D2A10876  41.035  38.929   8.418
  446POPC   C3A10877  40.868  38.855   8.006
  446POPC   C4A10878  40.919  38.536   7.688
  446POPC   C1B10879  40.471  38.611   8.673
  446POPC   C2B10880  40.493  38.535   8.216
  446POPC   C3B10881  40.469  38.343   7.800
  446POPC   C4B10882  40.492  38.202   7.349
  447POPC   NC310883  25.881  27.000   9.462
  447POPC   PO410884  26.135  26.474   9.339
  447POPC   GL110885  25.940  26.717   9.056
  447POPC   GL210886  26.166  26.974   9.042
  447POPC   C1A10887  25.784  26.598   8.723
  447POPC   D2A10888  25.944  26.426   8.335
  447POPC   C3A10889  25.949  26.695   7.990
  447POPC   C4A10890  26.359  26.794   7.827
  447POPC   C1B10891  26.231  26.842   8.603
  447POPC   C2B10892  26.125  27.096   8.240
  447POPC   C3B10893  25.985  27.190   7.816
  447POPC   C4B10894  26.197  27.290   7.418
  448POPC   NC310895  38.038  17.705   9.494
  448POPC   PO410896  38.707  17.395   9.407
  448POPC   GL110897  38.401  17.549   9.174
  448POPC   GL210898  38.492  17.864   9.244
  448POPC   C1A10899  38.255  17.456   8.796
  448POPC   D2A10900  38.455  17.158   8.530
  448POPC   C3A10901  38.442  17.237   8.085
  448POPC   C4A10902  38.287  17.478   7.752
  448POPC   C1B10903  38.547  17.890   8.794
  448POPC   C2B10904  38.555  17.633   8.416
  448POPC   C3B10905  38.725  17.664   8.007
  448POPC   C4B10906  38.842  17.791   7.572
  449POPC   NC310907  26.852   3.602   9.599
  449POPC   PO410908  26.616   3.207   9.306
  449POPC   GL110909  26.721   3.610   9.079
  449POPC   GL210910  27.043   3.768   9.155
  449POPC   C1A10911  26.654   3.813   8.672
  449POPC   D2A10912  26.512   3.884   8.230
  449POPC   C3A10913  26.699   3.693   7.854
  449POPC   C4A10914  26.612   3.798   7.412
  449POPC   C1B10915  27.135   3.633   8.722
  449POPC   C2B10916  27.164   3.389   8.314
  449POPC   C3B10917  27.087   3.303   7.866
  449POPC   C4B10918  27.189   3.320   7.445
  450POPC   NC310919   5.393  15.443   9.379
  450POPC   PO410920   4.783  15.576   9.540
  450POPC   GL110921   4.856  15.837   9.164
  450POPC   GL210922   5.202  15.848   9.079
  450POPC   C1A10923   4.876  16.076   8.745
  450POPC   D2A10924   5.083  15.945   8.338
  450POPC   C3A10925   5.053  16.167   7.934
  450POPC   C4A10926   5.144  16.208   7.472
  450POPC   C1B10927   5.013  15.586   8.724
  450POPC   C2B10928   4.983  15.457   8.275
  450POPC   C3B10929   5.086  15.647   7.870
  450POPC   C4B10930   5.344  15.761   7.538
  451POPC   NC310931  26.779  37.312   9.526
  451POPC   PO410932  27.037  37.949   9.551
  451POPC   GL110933  27.058  37.696   9.157
  451POPC   GL210934  26.696  37.588   9.060
  451POPC   C1A10935  27.057  37.730   8.687
  451POPC   D2A10936  26.765  37.529   8.429
  451POPC   C3A10937  26.959  37.434   8.039
  451POPC   C4A10938  27.144  37.694   7.706
  451POPC   C1B10939  26.617  37.961   8.752
  451POPC   C2B10940  26.545  37.973   8.276
  451POPC   C3B10941  26.662  37.796   7.835
  451POPC   C4B10942  26.552  37.745   7.371
  452POPC   NC310943  17.142  31.258   9.891
  452POPC   PO410944  17.571  31.501   9.506
  452POPC   GL110945  17.429  31.437   9.128
  452POPC   GL210946  17.549  31.763   9.064
  452POPC   C1A10947  17.477  31.388   8.709
  452POPC   D2A10948  17.238  31.200   8.390
  452POPC   C3A10949  17.518  31.319   8.120
  452POPC   C4A10950  17.483  31.532   7.804
  452POPC   C1B10951  17.844  31.762   8.756
  452POPC   C2B10952  17.828  31.674   8.335
  452POPC   C3B10953  17.851  31.864   7.929
  452POPC   C4B10954  18.112  31.737   7.587
  453POPC   NC310955  40.286  31.125   9.509
  453POPC   PO410956  39.731  31.519   9.575
  453POPC   GL110957  39.878  31.354   9.213
  453POPC   GL210958  40.211  31.487   9.146
  453POPC   C1A10959  39.841  31.599   8.833
  453POPC   D2A10960  39.831  31.821   8.458
  453POPC   C3A10961  40.052  31.711   8.086
  453POPC   C4A10962  39.796  31.585   7.743
  453POPC   C1B10963  40.160  31.149   8.835
  453POPC   C2B10964  40.199  31.129   8.400
  453POPC   C3B10965  40.231  31.237   7.978
  453POPC   C4B10966  40.226  31.403   7.568
  454POPC   NC310967   8.885  40.303   9.309
  454POPC   PO410968   8.791  39.700   9.500
  454POPC   GL110969   8.905  39.721   9.105
  454POPC   GL210970   9.234  39.858   9.170
  454POPC   C1A10971   8.680  39.929   8.753
  454POPC   D2A10972   8.601  39.747   8.345
  454POPC   C3A10973   8.802  39.928   7.996
  454POPC   C4A10974   8.978  40.091   7.635
  454POPC   C1B10975   9.176  39.941   8.733
  454POPC   C2B10976   9.051  40.148   8.376
  454POPC   C3B10977   9.316  40.105   8.016
  454POPC   C4B10978   9.507  40.011   7.582
  455POPC   NC310979  28.650   8.182   9.421
  455POPC   PO410980  28.083   8.474   9.319
  455POPC   GL110981  28.201   8.398   8.967
  455POPC   GL210982  28.319   8.082   9.061
  455POPC   C1A10983  28.093   8.353   8.563
  455POPC   D2A10984  28.293   8.163   8.245
  455POPC   C3A10985  28.240   8.373   7.909
  455POPC   C4A10986  28.593   8.473   7.696
  455POPC   C1B10987  28.489   8.065   8.694
  455POPC   C2B10988  28.601   7.772   8.445
  455POPC   C3B10989  28.452   7.714   8.056
  455POPC   C4B10990  28.528   7.976   7.750
  456POPC   NC310991  35.762  34.759   9.510
  456POPC   PO410992  35.386  34.222   9.618
  456POPC   GL110993  35.388  34.406   9.199
  456POPC   GL210994  35.673  34.481   9.033
  456POPC   C1A10995  35.222  34.302   8.754
  456POPC   D2A10996  35.168  34.527   8.346
  456POPC   C3A10997  35.205  34.293   7.951
  456POPC   C4A10998  35.530  34.351   7.607
  456POPC   C1B10999  35.498  34.743   8.706
  456POPC   C2B11000  35.642  34.924   8.331
  456POPC   C3B11001  35.527  34.766   7.963
  456POPC   C4B11002  35.509  35.000   7.596
  457POPC   NC311003  29.292  37.543   9.548
  457POPC   PO411004  28.746  37.586   9.609
  457POPC   GL111005  28.931  37.610   9.179
  457POPC   GL211006  28.632  37.493   9.029
  457POPC   C1A11007  29.266  37.632   8.805
  457POPC   D2A11008  29.525  37.701   8.398
  457POPC   C3A11009  29.332  37.627   7.972
  457POPC   C4A11010  28.879  37.517   7.858
  457POPC   C1B11011  28.775  37.788   8.709
  457POPC   C2B11012  28.985  37.792   8.306
  457POPC   C3B11013  28.975  38.026   7.905
  457POPC   C4B11014  28.807  38.153   7.479
  458POPC   NC311015  43.281  23.039   9.559
  458POPC   PO411016  42.716  23.163   9.413
  458POPC   GL111017  42.982  22.914   9.147
  458POPC   GL211018  43.250  23.103   9.066
  458POPC   C1A11019  43.027  22.759   8.711
  458POPC   D2A11020  42.843  22.960   8.324
  458POPC   C3A11021  42.990  22.762   7.940
  458POPC   C4A11022  43.415  22.755   7.807
  458POPC   C1B11023  42.988  23.254   8.744
  458POPC   C2B11024  43.147  23.370   8.358
  458POPC   C3B11025  43.125  23.241   7.954
  458POPC   C4B11026  43.464  23.264   7.733
  459POPC   NC311027  39.121   1.434   9.507
  459POPC   PO411028  39.429   2.023   9.576
  459POPC   GL111029  39.509   1.929   9.169
  459POPC   GL211030  39.408   1.616   9.129
  459POPC   C1A11031  39.310   2.125   8.807
  459POPC   D2A11032  39.454   2.214   8.392
  459POPC   C3A11033  39.189   2.159   8.039
  459POPC   C4A11034  39.230   2.398   7.659
  459POPC   C1B11035  39.393   1.638   8.738
  459POPC   C2B11036  39.205   1.753   8.358
  459POPC   C3B11037  39.333   1.657   7.959
  459POPC   C4B11038  39.494   1.900   7.670
  460POPC   NC311039   7.421   6.056   9.394
  460POPC   PO411040   7.562   5.401   9.282
  460POPC   GL111041   7.272   5.489   8.934
  460POPC   GL211042   7.260   5.839   8.985
  460POPC   C1A11043   7.243   5.697   8.517
  460POPC   D2A11044   7.532   5.875   8.269
  460POPC   C3A11045   7.343   5.855   7.895
  460POPC   C4A11046   7.555   5.851   7.543
  460POPC   C1B11047   7.065   6.131   8.720
  460POPC   C2B11048   7.071   6.114   8.274
  460POPC   C3B11049   7.078   6.325   7.916
  460POPC   C4B11050   7.172   6.177   7.508
  461POPC   NC311051  11.811  10.742   9.459
  461POPC   PO411052  12.132  10.130   9.613
  461POPC   GL111053  12.112  10.247   9.146
  461POPC   GL211054  12.186  10.583   9.149
  461POPC   C1A11055  12.160  10.236   8.705
  461POPC   D2A11056  12.177  10.025   8.290
  461POPC   C3A11057  12.120  10.320   7.969
  461POPC   C4A11058  11.787  10.394   7.683
  461POPC   C1B11059  12.015  10.788   8.791
  461POPC   C2B11060  12.058  10.638   8.377
  461POPC   C3B11061  11.869  10.778   8.017
  461POPC   C4B11062  11.819  11.024   7.694
  462POPC   NC311063  35.436   5.793   9.529
  462POPC   PO411064  35.029   5.345   9.445
  462POPC   GL111065  35.055   5.715   9.186
  462POPC   GL211066  34.901   6.007   9.358
  462POPC   C1A11067  35.357   5.873   8.834
  462POPC   D2A11068  35.523   6.017   8.384
  462POPC   C3A11069  35.528   5.956   7.916
  462POPC   C4A11070  35.279   5.626   7.692
  462POPC   C1B11071  34.916   6.116   8.919
  462POPC   C2B11072  35.027   6.065   8.499
  462POPC   C3B11073  35.026   5.880   8.100
  462POPC   C4B11074  35.072   6.130   7.729
  463POPC   NC311075  15.692  42.642   9.565
  463POPC   PO411076  15.669  41.935   9.546
  463POPC   GL111077  15.770  42.204   9.172
  463POPC   GL211078  15.946  42.548   9.149
  463POPC   C1A11079  15.825  42.051   8.741
  463POPC   D2A11080  15.858  41.802   8.381
  463POPC   C3A11081  15.815  42.017   8.018
  463POPC   C4A11082  15.928  42.251   7.662
  463POPC   C1B11083  15.703  42.539   8.780
  463POPC   C2B11084  15.810  42.423   8.362
  463POPC   C3B11085  15.520  42.425   8.027
  463POPC   C4B11086  15.534  42.587   7.675
  464POPC   NC311087   2.972  12.699   9.596
  464POPC   PO411088   2.429  12.992   9.453
  464POPC   GL111089   2.723  12.909   9.139
  464POPC   GL211090   2.544  13.112   8.921
  464POPC   C1A11091   2.950  12.881   8.708
  464POPC   D2A11092   2.902  12.797   8.271
  464POPC   C3A11093   2.924  13.123   7.911
  464POPC   C4A11094   2.968  13.101   7.440
  464POPC   C1B11095   2.517  12.641   8.731
  464POPC   C2B11096   2.621  12.369   8.351
  464POPC   C3B11097   2.410  12.287   7.929
  464POPC   C4B11098   2.465  12.408   7.455
  465POPC   NC311099  23.776  16.380   9.464
  465POPC   PO411100  23.565  15.720   9.615
  465POPC   GL111101  23.735  15.655   9.189
  465POPC   GL211102  23.996  15.901   9.335
  465POPC   C1A11103  23.641  15.683   8.716
  465POPC   D2A11104  23.542  16.003   8.367
  465POPC   C3A11105  23.470  15.876   7.931
  465POPC   C4A11106  23.478  15.757   7.477
  465POPC   C1B11107  24.110  15.853   8.898
  465POPC   C2B11108  24.180  15.848   8.451
  465POPC   C3B11109  23.967  15.972   8.073
  465POPC   C4B11110  23.824  16.187   7.700
  466POPC   NC311111   0.354  10.100   9.531
  466POPC   PO411112   0.793   9.562   9.522
  466POPC   GL111113   0.476   9.631   9.201
  466POPC   GL211114   0.517   9.960   9.074
  466POPC   C1A11115   0.394   9.413   8.796
  466POPC   D2A11116   0.563   9.423   8.388
  466POPC   C3A11117   0.343   9.393   8.043
  466POPC   C4A11118   0.305   9.701   7.784
  466POPC   C1B11119   0.554   9.887   8.659
  466POPC   C2B11120   0.351   9.878   8.282
  466POPC   C3B11121   0.512  10.121   7.960
  466POPC   C4B11122   0.710   9.992   7.610
  467POPC   NC311123  34.875   7.366   9.902
  467POPC   PO411124  35.265   7.495   9.449
  467POPC   GL111125  35.221   7.531   9.032
  467POPC   GL211126  35.477   7.287   8.988
  467POPC   C1A11127  35.254   7.542   8.572
  467POPC   D2A11128  35.094   7.550   8.174
  467POPC   C3A11129  35.315   7.647   7.816
  467POPC   C4A11130  35.564   7.614   7.450
  467POPC   C1B11131  35.149   7.067   8.780
  467POPC   C2B11132  35.270   7.063   8.386
  467POPC   C3B11133  35.491   7.215   8.060
  467POPC   C4B11134  35.380   7.156   7.652
  468POPC   NC311135   3.366  21.240   9.550
  468POPC   PO411136   3.698  21.803   9.351
  468POPC   GL111137   3.479  21.515   9.130
  468POPC   GL211138   3.714  21.293   9.163
  468POPC   C1A11139   3.369  21.304   8.748
  468POPC   D2A11140   3.432  21.095   8.330
  468POPC   C3A11141   3.357  21.340   7.974
  468POPC   C4A11142   3.668  21.734   7.876
  468POPC   C1B11143   3.823  21.131   8.756
  468POPC   C2B11144   3.961  21.055   8.347
  468POPC   C3B11145   3.840  21.234   7.968
  468POPC   C4B11146   3.644  21.349   7.559
  469POPC   NC311147  42.440  11.880   9.441
  469POPC   PO411148  41.905  12.250   9.467
  469POPC   GL111149  42.056  12.005   9.144
  469POPC   GL211150  42.294  12.290   9.129
  469POPC   C1A11151  42.330  11.968   8.764
  469POPC   D2A11152  42.592  12.135   8.420
  469POPC   C3A11153  42.441  12.081   7.986
  469POPC   C4A11154  42.498  11.907   7.563
  469POPC   C1B11155  42.213  12.481   8.716
  469POPC   C2B11156  42.316  12.572   8.279
  469POPC   C3B11157  42.143  12.468   7.879
  469POPC   C4B11158  42.313  12.363   7.449
  470POPC   NC311159  43.498  29.241   9.537
  470POPC   PO411160  43.079  28.768   9.784
  470POPC   GL111161  43.158  28.904   9.302
  470POPC   GL211162  43.128  29.265   9.196
  470POPC   C1A11163  43.106  28.950   8.804
  470POPC   D2A11164  43.186  29.173   8.386
  470POPC   C3A11165  42.882  29.080   8.048
  470POPC   C4A11166  43.011  28.922   7.644
  470POPC   C1B11167  42.756  29.319   8.928
  470POPC   C2B11168  42.736  29.382   8.490
  470POPC   C3B11169  42.923  29.582   8.143
  470POPC   C4B11170  42.919  29.601   7.710
  471POPC   NC311171  25.442  22.293   9.538
  471POPC   PO411172  24.798  21.884   9.417
  471POPC   GL111173  25.088  22.076   9.124
  471POPC   GL211174  25.394  21.961   9.171
  471POPC   C1A11175  25.060  22.283   8.723
  471POPC   D2A11176  25.021  22.516   8.340
  471POPC   C3A11177  25.092  22.218   7.990
  471POPC   C4A11178  25.409  21.908   7.905
  471POPC   C1B11179  25.547  22.131   8.783
  471POPC   C2B11180  25.514  22.159   8.346
  471POPC   C3B11181  25.675  22.354   7.978
  471POPC   C4B11182  25.515  22.396   7.583
  472POPC   NC311183  24.148   6.398   9.548
  472POPC   PO411184  24.633   6.880   9.653
  472POPC   GL111185  24.605   6.925   9.227
  472POPC   GL211186  24.349   6.707   9.194
  472POPC   C1A11187  24.775   6.813   8.838
  472POPC   D2A11188  24.691   6.598   8.468
  472POPC   C3A11189  24.731   6.790   8.082
  472POPC   C4A11190  24.695   6.566   7.719
  472POPC   C1B11191  24.282   6.625   8.769
  472POPC   C2B11192  24.269   6.864   8.357
  472POPC   C3B11193  24.223   6.788   7.917
  472POPC   C4B11194  23.857   6.764   7.663
  473POPC   NC311195  35.491  40.967   9.601
  473POPC   PO411196  34.890  40.668   9.538
  473POPC   GL111197  35.191  40.756   9.223
  473POPC   GL211198  34.934  40.742   9.005
  473POPC   C1A11199  35.400  40.885   8.825
  473POPC   D2A11200  35.695  40.704   8.495
  473POPC   C3A11201  35.645  40.833   8.034
  473POPC   C4A11202  35.577  40.526   7.704
  473POPC   C1B11203  34.972  40.732   8.595
  473POPC   C2B11204  35.229  40.855   8.321
  473POPC   C3B11205  35.128  40.674   7.959
  473POPC   C4B11206  34.959  40.630   7.581
  474POPC   NC311207  15.226  23.954   9.436
  474POPC   PO411208  14.954  23.391   9.668
  474POPC   GL111209  15.182  23.507   9.181
  474POPC   GL211210  15.517  23.399   9.124
  474POPC   C1A11211  15.108  23.844   8.779
  474POPC   D2A11212  15.165  24.049   8.358
  474POPC   C3A11213  15.048  23.900   7.947
  474POPC   C4A11214  14.940  23.713   7.562
  474POPC   C1B11215  15.452  23.485   8.727
  474POPC   C2B11216  15.533  23.723   8.426
  474POPC   C3B11217  15.493  23.634   8.027
  474POPC   C4B11218  15.644  23.723   7.650
  475POPC   NC311219   9.427   4.873   9.475
  475POPC   PO411220  10.095   5.106   9.427
  475POPC   GL111221   9.947   5.201   9.051
  475POPC   GL211222   9.603   5.123   9.042
  475POPC   C1A11223   9.967   4.981   8.654
  475POPC   D2A11224  10.218   4.988   8.266
  475POPC   C3A11225  10.040   5.088   7.911
  475POPC   C4A11226   9.856   4.931   7.529
  475POPC   C1B11227   9.416   5.313   8.654
  475POPC   C2B11228   9.389   5.353   8.197
  475POPC   C3B11229   9.530   5.084   7.891
  475POPC   C4B11230   9.361   4.836   7.536
  476POPC   NC311231  12.070  13.125   9.876
  476POPC   PO411232  11.688  12.833   9.400
  476POPC   GL111233  11.538  12.492   9.116
  476POPC   GL211234  11.188  12.505   9.172
  476POPC   C1A11235  11.468  12.618   8.691
  476POPC   D2A11236  11.643  12.826   8.333
  476POPC   C3A11237  11.403  12.664   8.011
  476POPC   C4A11238  11.293  12.717   7.629
  476POPC   C1B11239  10.992  12.470   8.749
  476POPC   C2B11240  11.038  12.756   8.368
  476POPC   C3B11241  10.997  12.989   7.952
  476POPC   C4B11242  10.856  12.956   7.509
  477POPC   NC311243  19.213   1.316   9.646
  477POPC   PO411244  18.813   0.828   9.660
  477POPC   GL111245  18.984   0.946   9.250
  477POPC   GL211246  19.292   1.114   9.195
  477POPC   C1A11247  18.963   1.154   8.822
  477POPC   D2A11248  18.997   1.391   8.465
  477POPC   C3A11249  18.903   1.242   8.055
  477POPC   C4A11250  18.807   1.256   7.578
  477POPC   C1B11251  19.354   1.483   8.899
  477POPC   C2B11252  19.545   1.475   8.503
  477POPC   C3B11253  19.328   1.531   8.095
  477POPC   C4B11254  19.305   1.226   7.767
  478POPC   NC311255   9.537  10.294   9.514
  478POPC   PO411256   9.799  10.908   9.442
  478POPC   GL111257   9.859  10.552   9.164
  478POPC   GL211258  10.181  10.523   9.028
  478POPC   C1A11259   9.743  10.431   8.740
  478POPC   D2A11260   9.471  10.599   8.403
  478POPC   C3A11261   9.547  10.460   7.989
  478POPC   C4A11262   9.645  10.715   7.630
  478POPC   C1B11263  10.167  10.760   8.641
  478POPC   C2B11264  10.007  10.552   8.255
  478POPC   C3B11265  10.023  10.438   7.801
  478POPC   C4B11266  10.190  10.548   7.432
  479POPC   NC311267  14.119  26.371   9.679
  479POPC   PO411268  14.661  26.004   9.660
  479POPC   GL111269  14.550  25.944   9.220
  479POPC   GL211270  14.819  25.730   9.128
  479POPC   C1A11271  14.282  26.177   8.907
  479POPC   D2A11272  14.149  26.395   8.513
  479POPC   C3A11273  14.196  26.209   8.103
  479POPC   C4A11274  14.344  26.285   7.712
  479POPC   C1B11275  14.635  25.828   8.718
  479POPC   C2B11276  14.632  26.078   8.337
  479POPC   C3B11277  14.704  25.991   7.890
  479POPC   C4B11278  14.632  25.682   7.562
  480POPC   NC311279  13.352  41.706   9.495
  480POPC   PO411280  13.934  41.942   9.508
  480POPC   GL111281  13.737  41.739   9.152
  480POPC   GL211282  13.380  41.820   9.002
  480POPC   C1A11283  13.816  41.805   8.737
  480POPC   D2A11284  13.588  41.861   8.395
  480POPC   C3A11285  13.914  41.851   8.105
  480POPC   C4A11286  13.971  41.725   7.669
  480POPC   C1B11287  13.487  41.433   8.772
  480POPC   C2B11288  13.689  41.364   8.381
  480POPC   C3B11289  13.573  41.480   7.965
  480POPC   C4B11290  13.730  41.255   7.614
  481POPC   NC311291   8.581   8.640   9.466
  481POPC   PO411292   8.173   8.193   9.641
  481POPC   GL111293   8.179   8.140   9.190
  481POPC   GL211294   8.444   7.932   9.239
  481POPC   C1A11295   8.312   8.280   8.726
  481POPC   D2A11296   8.009   8.391   8.378
  481POPC   C3A11297   7.899   8.142   8.028
  481POPC   C4A11298   7.925   8.258   7.601
  481POPC   C1B11299   8.305   7.782   8.826
  481POPC   C2B11300   8.197   7.875   8.415
  481POPC   C3B11301   8.386   7.955   8.050
  481POPC   C4B11302   8.312   7.864   7.634
  482POPC   NC311303  13.526   9.928   9.647
  482POPC   PO411304  13.870   9.491   9.305
  482POPC   GL111305  13.584   9.763   9.081
  482POPC   GL211306  13.340  10.029   9.188
  482POPC   C1A11307  13.552   9.814   8.639
  482POPC   D2A11308  13.603   9.854   8.184
  482POPC   C3A11309  13.922   9.662   7.938
  482POPC   C4A11310  14.033   9.681   7.503
  482POPC   C1B11311  13.107  10.025   8.806
  482POPC   C2B11312  13.110   9.886   8.367
  482POPC   C3B11313  13.178   9.896   7.925
  482POPC   C4B11314  13.543   9.865   7.620
  483POPC   NC311315   6.950   1.843   9.422
  483POPC   PO411316   6.462   2.172   9.731
  483POPC   GL111317   6.471   1.990   9.297
  483POPC   GL211318   6.756   2.157   9.089
  483POPC   C1A11319   6.430   1.842   8.871
  483POPC   D2A11320   6.280   1.817   8.469
  483POPC   C3A11321   6.517   1.659   8.107
  483POPC   C4A11322   6.639   1.738   7.672
  483POPC   C1B11323   6.628   2.269   8.684
  483POPC   C2B11324   6.658   2.125   8.283
  483POPC   C3B11325   6.768   2.150   7.892
  483POPC   C4B11326   6.434   2.242   7.626
  484POPC   NC311327   0.229   3.274   9.629
  484POPC   PO411328   0.513   2.818   9.299
  484POPC   GL111329   0.150   2.835   9.091
  484POPC   GL211330   0.021   3.148   9.153
  484POPC   C1A11331   0.162   2.671   8.667
  484POPC   D2A11332   0.595   2.715   8.536
  484POPC   C3A11333   0.691   2.608   8.145
  484POPC   C4A11334   0.604   2.687   7.767
  484POPC   C1B11335   0.316   3.162   8.743
  484POPC   C2B11336   0.324   3.089   8.321
  484POPC   C3B11337   0.188   2.722   8.134
  484POPC   C4B11338   0.102   2.635   7.729
  485POPC   NC311339   8.564  44.059   9.638
  485POPC   PO411340   8.127  43.592   9.468
  485POPC   GL111341   8.400  43.781   9.150
  485POPC   GL211342   8.463  44.157   9.101
  485POPC   C1A11343   8.211  43.827   8.740
  485POPC   D2A11344   8.337  43.672   8.362
  485POPC   C3A11345   8.375  43.790   7.940
  485POPC   C4A11346   8.330  43.519   7.562
  485POPC   C1B11347   8.588  44.140   8.636
  485POPC   C2B11348   8.281  44.183   8.288
  485POPC   C3B11349   8.008  44.170   7.943
  485POPC   C4B11350   8.074  44.004   7.587
  486POPC   NC311351  43.220  37.569   9.559
  486POPC   PO411352  42.628  37.854   9.811
  486POPC   GL111353  42.829  37.779   9.329
  486POPC   GL211354  42.906  37.495   9.135
  486POPC   C1A11355  42.940  37.913   8.861
  486POPC   D2A11356  42.970  38.129   8.451
  486POPC   C3A11357  43.206  37.949   8.105
  486POPC   C4A11358  43.557  37.841   7.819
  486POPC   C1B11359  42.770  37.419   8.729
  486POPC   C2B11360  42.870  37.545   8.309
  486POPC   C3B11361  43.248  37.434   8.077
  486POPC   C4B11362  43.114  37.603   7.732
  487POPC   NC311363  17.783   5.356   9.502
  487POPC   PO411364  17.250   4.882   9.464
  487POPC   GL111365  17.449   5.143   9.189
  487POPC   GL211366  17.528   4.861   8.974
  487POPC   C1A11367  17.649   5.307   8.808
  487POPC   D2A11368  17.582   5.038   8.431
  487POPC   C3A11369  17.721   5.173   8.017
  487POPC   C4A11370  17.552   5.465   7.744
  487POPC   C1B11371  17.254   4.662   8.679
  487POPC   C2B11372  17.298   4.553   8.265
  487POPC   C3B11373  17.114   4.739   7.909
  487POPC   C4B11374  17.037   4.651   7.451
  488POPC   NC311375   9.054  36.736   9.466
  488POPC   PO411376   8.996  37.305   9.773
  488POPC   GL111377   8.904  37.219   9.243
  488POPC   GL211378   9.029  36.935   9.011
  488POPC   C1A11379   8.647  37.145   8.799
  488POPC   D2A11380   8.867  37.256   8.432
  488POPC   C3A11381   8.988  36.995   8.089
  488POPC   C4A11382   9.364  36.893   7.839
  488POPC   C1B11383   8.782  36.644   8.763
  488POPC   C2B11384   8.684  36.668   8.325
  488POPC   C3B11385   8.763  36.569   7.906
  488POPC   C4B11386   9.144  36.468   7.689
  489POPC   NC311387   1.892  33.599   9.628
  489POPC   PO411388   2.007  34.257   9.762
  489POPC   GL111389   1.972  33.951   9.285
  489POPC   GL211390   2.087  33.644   9.155
  489POPC   C1A11391   1.773  33.874   8.839
  489POPC   D2A11392   1.979  33.761   8.454
  489POPC   C3A11393   1.830  33.844   8.044
  489POPC   C4A11394   2.071  33.977   7.727
  489POPC   C1B11395   2.342  33.562   8.794
  489POPC   C2B11396   2.335  33.397   8.373
  489POPC   C3B11397   2.329  33.632   8.017
  489POPC   C4B11398   2.370  33.599   7.588
  490POPC   NC311399  13.600  23.362   9.516
  490POPC   PO411400  13.396  22.721   9.666
  490POPC   GL111401  13.524  22.912   9.249
  490POPC   GL211402  13.812  23.119   9.149
  490POPC   C1A11403  13.520  22.922   8.780
  490POPC   D2A11404  13.772  22.948   8.388
  490POPC   C3A11405  13.505  23.058   8.032
  490POPC   C4A11406  13.361  23.022   7.591
  490POPC   C1B11407  13.836  23.330   8.759
  490POPC   C2B11408  13.706  23.464   8.330
  490POPC   C3B11409  13.954  23.330   7.974
  490POPC   C4B11410  13.877  23.049   7.653
  491POPC   NC311411  18.455  19.835   9.273
  491POPC   PO411412  17.985  19.384   9.569
  491POPC   GL111413  18.117  19.523   9.133
  491POPC   GL211414  18.122  19.772   8.883
  491POPC   C1A11415  18.418  19.407   8.748
  491POPC   D2A11416  18.307  19.633   8.418
  491POPC   C3A11417  18.415  19.576   8.020
  491POPC   C4A11418  18.067  19.715   7.802
  491POPC   C1B11419  18.267  20.116   8.609
  491POPC   C2B11420  18.411  20.125   8.191
  491POPC   C3B11421  18.298  20.189   7.769
  491POPC   C4B11422  18.523  20.340   7.388
  492POPC   NC311423   3.344  10.281   9.461
  492POPC   PO411424   3.719  10.869   9.387
  492POPC   GL111425   3.425  10.684   9.140
  492POPC   GL211426   3.629  10.806   8.867
  492POPC   C1A11427   3.220  10.504   8.809
  492POPC   D2A11428   3.372  10.622   8.424
  492POPC   C3A11429   3.362  10.354   8.095
  492POPC   C4A11430   3.625  10.485   7.768
  492POPC   C1B11431   3.725  10.377   8.713
  492POPC   C2B11432   3.836  10.202   8.286
  492POPC   C3B11433   3.927  10.043   7.859
  492POPC   C4B11434   3.861  10.199   7.433
  493POPC   NC311435   3.074   6.653   9.373
  493POPC   PO411436   2.493   7.034   9.565
  493POPC   GL111437   2.387   6.835   9.158
  493POPC   GL211438   2.708   6.725   9.039
  493POPC   C1A11439   2.399   6.753   8.656
  493POPC   D2A11440   2.706   6.569   8.341
  493POPC   C3A11441   2.724   6.694   7.932
  493POPC   C4A11442   2.883   6.809   7.513
  493POPC   C1B11443   3.028   6.616   8.734
  493POPC   C2B11444   3.062   6.223   8.503
  493POPC   C3B11445   3.073   6.263   8.067
  493POPC   C4B11446   3.198   6.117   7.691
  494POPC   NC311447  21.669  21.515   9.593
  494POPC   PO411448  21.885  20.947   9.594
  494POPC   GL111449  21.693  21.177   9.211
  494POPC   GL211450  21.338  21.385   9.219
  494POPC   C1A11451  21.624  21.355   8.809
  494POPC   D2A11452  21.465  21.244   8.414
  494POPC   C3A11453  21.581  21.472   8.047
  494POPC   C4A11454  21.531  21.225   7.670
  494POPC   C1B11455  21.182  21.596   8.829
  494POPC   C2B11456  21.069  21.521   8.413
  494POPC   C3B11457  21.073  21.452   7.946
  494POPC   C4B11458  21.303  21.664   7.626
  495POPC   NC311459   6.529  24.675   9.473
  495POPC   PO411460   6.826  24.206   9.831
  495POPC   GL111461   6.936  24.328   9.375
  495POPC   GL211462   6.616  24.273   9.185
  495POPC   C1A11463   6.980  24.510   8.919
  495POPC   D2A11464   6.838  24.510   8.438
  495POPC   C3A11465   6.989  24.659   8.008
  495POPC   C4A11466   6.800  24.560   7.585
  495POPC   C1B11467   6.479  24.564   8.823
  495POPC   C2B11468   6.444  24.848   8.465
  495POPC   C3B11469   6.501  24.836   8.005
  495POPC   C4B11470   6.363  24.839   7.568
  496POPC   NC311471  16.780  44.774   9.508
  496POPC   PO411472  16.987  44.158   9.481
  496POPC   GL111473  16.742  44.442   9.125
  496POPC   GL211474  16.480  44.728   9.096
  496POPC   C1A11475  16.771  44.676   8.700
  496POPC   D2A11476  16.899   0.033   8.479
  496POPC   C3A11477  16.920  44.888   8.050
  496POPC   C4A11478  16.801  44.497   7.857
  496POPC   C1B11479  16.273  44.572   8.722
  496POPC   C2B11480  16.221  44.754   8.303
  496POPC   C3B11481  16.235  44.551   7.892
  496POPC   C4B11482  16.445  44.559   7.497
  497POPC   NC311483  43.356  40.233   9.433
  497POPC   PO411484  42.845  39.828   9.577
  497POPC   GL111485  42.970  39.961   9.199
  497POPC   GL211486  43.246  39.777   9.143
  497POPC   C1A11487  42.823  40.069   8.807
  497POPC   D2A11488  42.986  40.272   8.442
  497POPC   C3A11489  42.929  40.026   8.054
  497POPC   C4A11490  42.766  40.140   7.673
  497POPC   C1B11491  43.332  40.004   8.787
  497POPC   C2B11492  43.282  39.834   8.392
  497POPC   C3B11493  43.401  39.840   7.972
  497POPC   C4B11494  43.285  40.076   7.668
  498POPC   NC311495   2.225  12.543   9.616
  498POPC   PO411496   2.074  11.886   9.394
  498POPC   GL111497   2.075  12.282   9.192
  498POPC   GL211498   2.415  12.343   9.156
  498POPC   C1A11499   2.041  12.419   8.756
  498POPC   D2A11500   2.151  12.214   8.384
  498POPC   C3A11501   1.891  12.195   8.039
  498POPC   C4A11502   1.985  12.271   7.635
  498POPC   C1B11503   2.365  12.020   8.818
  498POPC   C2B11504   2.152  11.727   8.526
  498POPC   C3B11505   2.245  11.792   8.085
  498POPC   C4B11506   2.047  11.777   7.664
  499POPC   NC311507  10.245  25.751   9.640
  499POPC   PO411508  10.834  25.902   9.443
  499POPC   GL111509  10.423  25.981   9.192
  499POPC   GL211510  10.145  25.690   9.151
  499POPC   C1A11511  10.424  26.250   8.795
  499POPC   D2A11512  10.634  26.415   8.413
  499POPC   C3A11513  10.511  26.212   8.041
  499POPC   C4A11514  10.318  26.294   7.668
  499POPC   C1B11515  10.330  25.737   8.756
  499POPC   C2B11516  10.252  25.933   8.395
  499POPC   C3B11517  10.281  25.751   8.005
  499POPC   C4B11518  10.667  25.609   7.985
  500POPC   NC311519  42.470   2.303   9.473
  500POPC   PO411520  42.609   1.658   9.533
  500POPC   GL111521  42.507   1.915   9.131
  500POPC   GL211522  42.639   2.246   8.988
  500POPC   C1A11523  42.607   1.843   8.695
  500POPC   D2A11524  42.382   1.990   8.342
  500POPC   C3A11525  42.461   1.818   7.951
  500POPC   C4A11526  42.676   1.606   7.635
  500POPC   C1B11527  42.246   2.274   8.764
  500POPC   C2B11528  42.146   2.429   8.327
  500POPC   C3B11529  42.115   2.210   7.928
  500POPC   C4B11530  42.181   2.112   7.477
  501POPC   NC311531  14.619  25.560   9.576
  501POPC   PO411532  14.702  24.942   9.552
  501POPC   GL111533  14.450  25.089   9.200
  501POPC   GL211534  14.365  25.429   9.155
  501POPC   C1A11535  14.398  25.080   8.780
  501POPC   D2A11536  14.584  25.329   8.478
  501POPC   C3A11537  14.388  25.163   8.122
  501POPC   C4A11538  14.499  25.225   7.732
  501POPC   C1B11539  14.082  25.678   8.905
  501POPC   C2B11540  14.175  25.862   8.497
  501POPC   C3B11541  14.379  25.685   8.143
  501POPC   C4B11542  14.188  25.767   7.766
  502POPC   NC311543  11.139  40.479   9.497
  502POPC   PO411544  11.647  40.944   9.372
  502POPC   GL111545  11.267  40.810   9.122
  502POPC   GL211546  11.130  41.114   8.946
  502POPC   C1A11547  11.095  40.519   8.785
  502POPC   D2A11548  10.968  40.524   8.340
  502POPC   C3A11549  11.081  40.797   7.980
  502POPC   C4A11550  11.104  40.476   7.687
  502POPC   C1B11551  11.417  40.886   8.651
  502POPC   C2B11552  11.498  40.694   8.248
  502POPC   C3B11553  11.590  40.685   7.808
  502POPC   C4B11554  11.560  41.036   7.532
  503POPC   NC311555  37.890  12.192   9.394
  503POPC   PO411556  37.276  11.857   9.522
  503POPC   GL111557  37.535  11.882   9.200
  503POPC   GL211558  37.419  12.180   9.098
  503POPC   C1A11559  37.768  11.977   8.797
  503POPC   D2A11560  37.759  12.206   8.372
  503POPC   C3A11561  37.849  11.922   8.056
  503POPC   C4A11562  37.774  11.776   7.635
  503POPC   C1B11563  37.411  12.343   8.716
  503POPC   C2B11564  37.253  12.164   8.342
  503POPC   C3B11565  37.419  12.230   7.959
  503POPC   C4B11566  37.251  12.532   7.702
  504POPC   NC311567  29.558  43.979   9.521
  504POPC   PO411568  30.153  43.599   9.468
  504POPC   GL111569  29.846  43.744   9.180
  504POPC   GL211570  29.881  44.099   9.127
  504POPC   C1A11571  29.858  43.727   8.761
  504POPC   D2A11572  30.122  43.821   8.406
  504POPC   C3A11573  29.952  43.828   7.966
  504POPC   C4A11574  29.515  43.942   7.830
  504POPC   C1B11575  29.975  44.217   8.718
  504POPC   C2B11576  29.749  44.142   8.338
  504POPC   C3B11577  29.808  44.327   7.968
  504POPC   C4B11578  30.083  44.368   7.650
  505POPC   NC311579  36.175   3.310   9.542
  505POPC   PO411580  35.551   3.387   9.555
  505POPC   GL111581  35.795   3.348   9.148
  505POPC   GL211582  36.148   3.440   9.061
  505POPC   C1A11583  35.806   3.461   8.689
  505POPC   D2A11584  35.853   3.265   8.296
  505POPC   C3A11585  35.962   3.477   7.855
  505POPC   C4A11586  36.287   3.639   7.528
  505POPC   C1B11587  36.308   3.183   8.731
  505POPC   C2B11588  36.429   3.166   8.298
  505POPC   C3B11589  36.448   3.293   7.860
  505POPC   C4B11590  36.457   3.092   7.449
  506POPC   NC311591  41.477  20.596   9.561
  506POPC   PO411592  41.464  21.186   9.342
  506POPC   GL111593  41.291  20.811   9.074
  506POPC   GL211594  41.445  20.473   9.050
  506POPC   C1A11595  41.357  20.731   8.606
  506POPC   D2A11596  41.306  20.657   8.160
  506POPC   C3A11597  41.621  20.758   7.767
  506POPC   C4A11598  41.744  21.113   7.460
  506POPC   C1B11599  41.440  20.212   8.654
  506POPC   C2B11600  41.455  20.182   8.206
  506POPC   C3B11601  41.321  20.318   7.812
  506POPC   C4B11602  41.441  20.411   7.441
  507POPC   NC311603  28.823  23.010   9.548
  507POPC   PO411604  28.171  22.901   9.660
  507POPC   GL111605  28.417  22.800   9.249
  507POPC   GL211606  28.577  23.096   9.105
  507POPC   C1A11607  28.533  22.718   8.777
  507POPC   D2A11608  28.338  22.845   8.375
  507POPC   C3A11609  28.402  22.619   7.967
  507POPC   C4A11610  28.260  22.722   7.552
  507POPC   C1B11611  28.267  23.185   8.795
  507POPC   C2B11612  28.200  23.361   8.393
  507POPC   C3B11613  28.288  23.186   7.984
  507POPC   C4B11614  28.695  23.022   7.859
  508POPC   NC311615  23.608  38.476   9.505
  508POPC   PO411616  24.219  38.545   9.341
  508POPC   GL111617  23.957  38.327   9.048
  508POPC   GL211618  23.586  38.237   9.080
  508POPC   C1A11619  23.783  38.384   8.637
  508POPC   D2A11620  23.813  38.657   8.318
  508POPC   C3A11621  23.957  38.429   8.034
  508POPC   C4A11622  23.995  38.164   7.731
  508POPC   C1B11623  23.318  38.476   8.832
  508POPC   C2B11624  23.254  38.394   8.454
  508POPC   C3B11625  23.345  38.543   8.092
  508POPC   C4B11626  23.543  38.389   7.741
  509POPC   NC311627  19.072  32.678   9.386
  509POPC   PO411628  19.409  33.289   9.445
  509POPC   GL111629  19.105  33.252   9.127
  509POPC   GL211630  19.031  32.936   8.964
  509POPC   C1A11631  19.072  33.338   8.695
  509POPC   D2A11632  19.040  32.992   8.450
  509POPC   C3A11633  18.878  33.044   8.105
  509POPC   C4A11634  18.874  33.131   7.731
  509POPC   C1B11635  19.275  32.630   8.761
  509POPC   C2B11636  19.445  32.715   8.377
  509POPC   C3B11637  19.231  32.647   8.022
  509POPC   C4B11638  19.257  32.810   7.601
  510POPC   NC311639  37.637  42.088   9.437
  510POPC   PO411640  38.007  42.616   9.531
  510POPC   GL111641  37.868  42.461   9.165
  510POPC   GL211642  38.026  42.133   9.113
  510POPC   C1A11643  37.689  42.394   8.779
  510POPC   D2A11644  37.896  42.457   8.404
  510POPC   C3A11645  37.634  42.444   8.089
  510POPC   C4A11646  37.493  42.709   7.808
  510POPC   C1B11647  37.920  41.948   8.705
  510POPC   C2B11648  37.790  41.968   8.284
  510POPC   C3B11649  37.797  42.038   7.849
  510POPC   C4B11650  38.062  42.012   7.466
  511POPC   NC311651  36.008  10.147   9.564
  511POPC   PO411652  36.166  10.814   9.503
  511POPC   GL111653  36.301  10.739   9.126
  511POPC   GL211654  36.288  10.394   9.194
  511POPC   C1A11655  36.248  10.841   8.708
  511POPC   D2A11656  36.359  10.657   8.373
  511POPC   C3A11657  36.232  10.835   8.015
  511POPC   C4A11658  36.476  10.781   7.645
  511POPC   C1B11659  36.109  10.374   8.788
  511POPC   C2B11660  35.984  10.254   8.389
  511POPC   C3B11661  36.206  10.334   8.028
  511POPC   C4B11662  36.322  10.319   7.669
  512POPC   NC311663  28.896  33.028   9.554
  512POPC   PO411664  29.444  33.105   9.131
  512POPC   GL111665  29.005  33.064   9.065
  512POPC   GL211666  28.797  32.736   9.126
  512POPC   C1A11667  28.807  33.232   8.707
  512POPC   D2A11668  29.136  33.243   8.380
  512POPC   C3A11669  29.204  33.008   8.014
  512POPC   C4A11670  29.240  33.269   7.653
  512POPC   C1B11671  28.900  32.730   8.682
  512POPC   C2B11672  28.712  32.906   8.289
  512POPC   C3B11673  28.767  32.803   7.856
  512POPC   C4B11674  29.106  32.811   7.520
  513POPC   NC311675  34.351  32.992   9.531
  513POPC   PO411676  34.866  33.368   9.613
  513POPC   GL111677  34.692  33.274   9.188
  513POPC   GL211678  34.337  33.273   9.123
  513POPC   C1A11679  34.715  33.035   8.775
  513POPC   D2A11680  34.624  32.761   8.400
  513POPC   C3A11681  34.686  32.981   7.998
  513POPC   C4A11682  34.928  32.872   7.625
  513POPC   C1B11683  34.179  33.322   8.753
  513POPC   C2B11684  34.398  33.219   8.401
  513POPC   C3B11685  34.221  33.191   8.022
  513POPC   C4B11686  34.246  33.446   7.695
  514POPC   NC311687  21.823  20.566   9.868
  514POPC   PO411688  21.357  20.229   9.453
  514POPC   GL111689  21.323  20.650   9.207
  514POPC   GL211690  21.615  20.704   9.018
  514POPC   C1A11691  21.255  20.964   8.823
  514POPC   D2A11692  21.381  20.723   8.448
  514POPC   C3A11693  21.329  20.893   8.036
  514POPC   C4A11694  21.362  20.749   7.615
  514POPC   C1B11695  21.838  20.484   8.679
  514POPC   C2B11696  21.682  20.287   8.351
  514POPC   C3B11697  21.755  20.559   8.048
  514POPC   C4B11698  21.818  20.523   7.651
  515POPC   NC311699  25.817   6.007   9.895
  515POPC   PO411700  25.754   6.128   9.250
  515POPC   GL111701  26.041   5.721   9.186
  515POPC   GL211702  26.375   5.847   9.094
  515POPC   C1A11703  26.152   5.541   8.764
  515POPC   D2A11704  25.991   5.836   8.451
  515POPC   C3A11705  26.080   5.858   7.996
  515POPC   C4A11706  26.074   5.783   7.500
  515POPC   C1B11707  26.328   6.162   8.760
  515POPC   C2B11708  26.260   6.272   8.307
  515POPC   C3B11709  26.480   6.242   7.906
  515POPC   C4B11710  26.432   6.164   7.415
  516POPC   NC311711  14.584  23.190   9.460
  516POPC   PO411712  14.115  22.754   9.349
  516POPC   GL111713  14.286  22.999   9.028
  516POPC   GL211714  14.054  22.816   8.823
  516POPC   C1A11715  14.485  22.954   8.618
  516POPC   D2A11716  14.849  22.930   8.421
  516POPC   C3A11717  14.726  22.966   8.004
  516POPC   C4A11718  14.393  23.124   7.697
  516POPC   C1B11719  14.265  22.470   8.585
  516POPC   C2B11720  14.507  22.503   8.230
  516POPC   C3B11721  14.257  22.712   7.942
  516POPC   C4B11722  14.194  22.677   7.492
  517POPC   NC311723  33.561  18.819   9.413
  517POPC   PO411724  33.575  19.419   9.711
  517POPC   GL111725  33.804  19.271   9.280
  517POPC   GL211726  33.541  19.148   9.025
  517POPC   C1A11727  33.982  19.209   8.826
  517POPC   D2A11728  33.839  19.101   8.402
  517POPC   C3A11729  34.017  19.155   8.009
  517POPC   C4A11730  33.929  19.113   7.577
  517POPC   C1B11731  33.705  18.788   8.782
  517POPC   C2B11732  33.639  18.613   8.380
  517POPC   C3B11733  33.741  18.733   7.988
  517POPC   C4B11734  33.471  18.945   7.707
  518POPC   NC311735  39.976  10.825   9.547
  518POPC   PO411736  40.603  10.748   9.453
  518POPC   GL111737  40.234  10.825   9.091
  518POPC   GL211738  39.881  10.676   9.077
  518POPC   C1A11739  40.186  10.711   8.632
  518POPC   D2A11740  40.380  10.405   8.338
  518POPC   C3A11741  40.262  10.548   7.930
  518POPC   C4A11742  40.067  10.932   7.846
  518POPC   C1B11743  39.709  10.532   8.712
  518POPC   C2B11744  39.854  10.429   8.311
  518POPC   C3B11745  39.746  10.551   7.925
  518POPC   C4B11746  39.562  10.705   7.576
  519POPC   NC311747   9.502  11.287   9.422
  519POPC   PO411748  10.121  11.534   9.429
  519POPC   GL111749   9.878  11.416   9.082
  519POPC   GL211750   9.864  11.064   8.975
  519POPC   C1A11751   9.521  11.384   8.757
  519POPC   D2A11752   9.374  11.126   8.389
  519POPC   C3A11753   9.620  11.153   8.013
  519POPC   C4A11754   9.980  11.429   7.855
  519POPC   C1B11755  10.020  11.279   8.615
  519POPC   C2B11756  10.179  11.159   8.246
  519POPC   C3B11757  10.056  10.931   7.906
  519POPC   C4B11758  10.043  11.025   7.495
  520POPC   NC311759   4.496  23.236   9.786
  520POPC   PO411760   4.636  23.840   9.427
  520POPC   GL111761   4.468  23.739   9.093
  520POPC   GL211762   4.365  23.424   9.138
  520POPC   C1A11763   4.516  23.857   8.725
  520POPC   D2A11764   4.498  23.614   8.412
  520POPC   C3A11765   4.323  23.793   8.101
  520POPC   C4A11766   4.470  24.023   7.782
  520POPC   C1B11767   4.102  23.500   8.766
  520POPC   C2B11768   3.900  23.550   8.344
  520POPC   C3B11769   4.042  23.412   7.922
  520POPC   C4B11770   4.411  23.478   7.690
  521POPC   NC311771  44.113  22.487   9.612
  521POPC   PO411772  43.733  22.958   9.502
  521POPC   GL111773  43.756  23.017   9.039
  521POPC   GL211774  44.099  22.920   8.951
  521POPC   C1A11775  43.505  22.960   8.638
  521POPC   D2A11776  43.554  23.073   8.204
  521POPC   C3A11777  43.950  23.238   8.034
  521POPC   C4A11778  44.221  23.111   7.697
  521POPC   C1B11779  43.854  22.588   8.739
  521POPC   C2B11780  43.671  22.585   8.304
  521POPC   C3B11781  43.905  22.735   7.929
  521POPC   C4B11782  44.146  22.613   7.559
  522POPC   NC311783  39.102  42.701   9.336
  522POPC   PO411784  39.441  42.093   9.443
  522POPC   GL111785  39.061  42.195   9.206
  522POPC   GL211786  39.304  42.339   9.009
  522POPC   C1A11787  38.851  42.426   8.799
  522POPC   D2A11788  38.857  42.702   8.452
  522POPC   C3A11789  38.787  42.465   8.113
  522POPC   C4A11790  38.959  42.498   7.732
  522POPC   C1B11791  39.157  42.005   8.743
  522POPC   C2B11792  39.186  42.269   8.392
  522POPC   C3B11793  39.346  42.500   8.061
  522POPC   C4B11794  39.486  42.281   7.717
  523POPC   NC311795  38.895  23.500   9.545
  523POPC   PO411796  39.501  23.720   9.589
  523POPC   GL111797  39.316  23.636   9.176
  523POPC   GL211798  39.082  23.344   9.084
  523POPC   C1A11799  39.165  23.931   8.869
  523POPC   D2A11800  39.003  24.116   8.503
  523POPC   C3A11801  39.144  23.979   8.098
  523POPC   C4A11802  38.936  23.779   7.748
  523POPC   C1B11803  39.475  23.255   8.819
  523POPC   C2B11804  39.762  23.314   8.430
  523POPC   C3B11805  39.808  23.491   8.031
  523POPC   C4B11806  39.425  23.581   7.778
  524POPC   NC311807  32.826  18.726   9.370
  524POPC   PO411808  33.337  18.306   9.503
  524POPC   GL111809  33.086  18.308   9.145
  524POPC   GL211810  33.284  18.011   9.093
  524POPC   C1A11811  32.959  18.453   8.722
  524POPC   D2A11812  33.040  18.276   8.302
  524POPC   C3A11813  33.263  18.524   8.006
  524POPC   C4A11814  33.299  18.511   7.544
  524POPC   C1B11815  33.072  17.951   8.732
  524POPC   C2B11816  32.916  17.772   8.381
  524POPC   C3B11817  32.871  17.873   7.990
  524POPC   C4B11818  33.166  18.073   7.754
  525POPC   NC311819  41.065   3.046   9.607
  525POPC   PO411820  40.616   2.643   9.471
  525POPC   GL111821  40.917   2.513   9.127
  525POPC   GL211822  40.605   2.463   8.960
  525POPC   C1A11823  41.218   2.505   8.744
  525POPC   D2A11824  41.231   2.456   8.270
  525POPC   C3A11825  41.045   2.800   8.001
  525POPC   C4A11826  40.732   3.104   7.782
  525POPC   C1B11827  40.767   2.317   8.578
  525POPC   C2B11828  40.666   2.166   8.197
  525POPC   C3B11829  40.896   2.318   7.890
  525POPC   C4B11830  40.652   2.610   7.665
  526POPC   NC311831  22.830  27.042   9.468
  526POPC   PO411832  22.885  27.810   9.538
  526POPC   GL111833  22.793  27.769   9.126
  526POPC   GL211834  22.670  27.442   9.169
  526POPC   C1A11835  22.766  27.705   8.664
  526POPC   D2A11836  23.060  27.595   8.308
  526POPC   C3A11837  23.035  27.853   7.909
  526POPC   C4A11838  23.155  27.833   7.442
  526POPC   C1B11839  22.737  27.205   8.800
  526POPC   C2B11840  22.627  27.244   8.373
  526POPC   C3B11841  22.695  27.420   7.983
  526POPC   C4B11842  23.063  27.385   7.725
  527POPC   NC311843   2.657  10.904   9.835
  527POPC   PO411844   2.975  11.463   9.454
  527POPC   GL111845   2.890  11.292   9.054
  527POPC   GL211846   2.556  11.175   9.179
  527POPC   C1A11847   2.891  11.358   8.562
  527POPC   D2A11848   3.138  11.600   8.268
  527POPC   C3A11849   3.102  11.387   7.870
  527POPC   C4A11850   2.808  11.374   7.509
  527POPC   C1B11851   2.472  11.446   8.814
  527POPC   C2B11852   2.424  11.315   8.396
  527POPC   C3B11853   2.605  11.401   8.033
  527POPC   C4B11854   2.329  11.356   7.703
  528POPC   NC311855  23.967  20.893   9.528
  528POPC   PO411856  23.850  21.573   9.476
  528POPC   GL111857  23.732  21.445   9.067
  528POPC   GL211858  23.765  21.105   9.104
  528POPC   C1A11859  23.646  21.614   8.648
  528POPC   D2A11860  23.923  21.705   8.277
  528POPC   C3A11861  23.908  21.512   7.845
  528POPC   C4A11862  23.994  21.069   7.749
  528POPC   C1B11863  23.563  21.082   8.725
  528POPC   C2B11864  23.377  21.040   8.354
  528POPC   C3B11865  23.511  21.080   7.927
  528POPC   C4B11866  23.562  20.824   7.593
  529POPC   NC311867  15.502  31.060   9.467
  529POPC   PO411868  14.854  31.138   9.335
  529POPC   GL111869  15.224  31.376   9.183
  529POPC   GL211870  15.210  31.729   9.126
  529POPC   C1A11871  15.539  31.394   8.864
  529POPC   D2A11872  15.562  31.470   8.437
  529POPC   C3A11873  15.221  31.239   8.261
  529POPC   C4A11874  15.116  31.304   7.851
  529POPC   C1B11875  15.088  31.577   8.682
  529POPC   C2B11876  14.934  31.651   8.230
  529POPC   C3B11877  14.750  31.667   7.805
  529POPC   C4B11878  14.806  31.958   7.458
  530POPC   NC311879   8.211  26.487   9.714
  530POPC   PO411880   8.277  25.900   9.446
  530POPC   GL111881   8.348  26.153   9.118
  530POPC   GL211882   8.533  25.924   8.958
  530POPC   C1A11883   8.150  26.338   8.732
  530POPC   D2A11884   8.055  26.520   8.374
  530POPC   C3A11885   8.169  26.317   8.012
  530POPC   C4A11886   7.936  26.150   7.706
  530POPC   C1B11887   8.176  25.848   8.739
  530POPC   C2B11888   8.122  25.936   8.336
  530POPC   C3B11889   8.139  25.732   7.933
  530POPC   C4B11890   7.792  25.635   7.674
  531POPC   NC311891  42.594  39.431   9.569
  531POPC   PO411892  43.077  38.907   9.517
  531POPC   GL111893  43.141  39.277   9.265
  531POPC   GL211894  42.841  39.452   9.124
  531POPC   C1A11895  43.376  39.349   8.895
  531POPC   D2A11896  43.333  39.195   8.495
  531POPC   C3A11897  43.210  39.382   8.129
  531POPC   C4A11898  43.333  39.185   7.782
  531POPC   C1B11899  42.959  39.569   8.709
  531POPC   C2B11900  42.779  39.607   8.308
  531POPC   C3B11901  42.732  39.507   7.886
  531POPC   C4B11902  42.885  39.246   7.582
  532POPC   NC311903  28.792  44.518   9.521
  532POPC   PO411904  28.259  44.906   9.506
  532POPC   GL111905  28.349  44.655   9.176
  532POPC   GL211906  28.628  44.901   9.144
  532POPC   C1A11907  28.300  44.295   8.869
  532POPC   D2A11908  28.399  44.352   8.423
  532POPC   C3A11909  28.115  44.410   8.075
  532POPC   C4A11910  28.136  44.625   7.680
  532POPC   C1B11911  28.675  44.623   8.776
  532POPC   C2B11912  28.880  44.616   8.368
  532POPC   C3B11913  28.734  44.425   7.985
  532POPC   C4B11914  28.592  44.437   7.552
  533POPC   NC311915  11.823  41.555   9.565
  533POPC   PO411916  12.515  41.551   9.436
  533POPC   GL111917  12.148  41.646   9.140
  533POPC   GL211918  11.834  41.895   9.198
  533POPC   C1A11919  12.225  41.611   8.670
  533POPC   D2A11920  12.139  41.307   8.348
  533POPC   C3A11921  12.321  41.390   7.955
  533POPC   C4A11922  12.160  41.519   7.553
  533POPC   C1B11923  11.782  41.806   8.788
  533POPC   C2B11924  11.787  41.679   8.359
  533POPC   C3B11925  12.023  41.798   8.002
  533POPC   C4B11926  11.941  42.023   7.628
  534POPC   NC311927  18.153  18.939   9.600
  534POPC   PO411928  18.595  19.376   9.355
  534POPC   GL111929  18.278  19.058   9.106
  534POPC   GL211930  17.916  19.075   9.119
  534POPC   C1A11931  18.183  18.899   8.712
  534POPC   D2A11932  18.306  19.098   8.344
  534POPC   C3A11933  18.408  18.811   8.029
  534POPC   C4A11934  18.365  18.916   7.598
  534POPC   C1B11935  17.915  19.323   8.705
  534POPC   C2B11936  17.878  19.440   8.250
  534POPC   C3B11937  18.051  19.209   7.906
  534POPC   C4B11938  17.917  18.801   7.808
  535POPC   NC311939  23.995  19.336   9.606
  535POPC   PO411940  23.318  19.178   9.638
  535POPC   GL111941  23.555  19.284   9.246
  535POPC   GL211942  23.820  19.016   9.247
  535POPC   C1A11943  23.576  19.121   8.796
  535POPC   D2A11944  23.445  18.982   8.343
  535POPC   C3A11945  23.681  19.139   7.959
  535POPC   C4A11946  23.707  19.022   7.511
  535POPC   C1B11947  24.042  18.884   8.893
  535POPC   C2B11948  23.946  18.947   8.479
  535POPC   C3B11949  24.161  18.970   8.117
  535POPC   C4B11950  24.124  18.823   7.737
  536POPC   NC311951  27.002  12.413   9.576
  536POPC   PO411952  26.968  13.036   9.551
  536POPC   GL111953  26.746  12.953   9.169
  536POPC   GL211954  26.441  13.138   9.118
  536POPC   C1A11955  26.928  12.877   8.756
  536POPC   D2A11956  26.974  13.048   8.329
  536POPC   C3A11957  26.894  12.725   8.008
  536POPC   C4A11958  27.093  12.645   7.605
  536POPC   C1B11959  26.409  12.864   8.765
  536POPC   C2B11960  26.262  12.603   8.414
  536POPC   C3B11961  26.395  12.547   7.967
  536POPC   C4B11962  26.590  12.761   7.587
  537POPC   NC311963  32.390  23.652   9.521
  537POPC   PO411964  32.065  24.156   9.353
  537POPC   GL111965  32.250  23.748   9.054
  537POPC   GL211966  32.534  23.428   9.094
  537POPC   C1A11967  32.348  23.595   8.635
  537POPC   D2A11968  32.555  23.803   8.278
  537POPC   C3A11969  32.248  23.819   7.936
  537POPC   C4A11970  31.925  23.501   7.932
  537POPC   C1B11971  32.823  23.483   8.748
  537POPC   C2B11972  32.697  23.317   8.343
  537POPC   C3B11973  32.499  23.389   7.930
  537POPC   C4B11974  32.649  23.480   7.513
  538POPC   NC311975  38.802   0.486   9.476
  538POPC   PO411976  39.479   0.329   9.518
  538POPC   GL111977  39.202   0.294   9.208
  538POPC   GL211978  39.212   0.634   9.152
  538POPC   C1A11979  39.273   0.301   8.775
  538POPC   D2A11980  39.432   0.525   8.431
  538POPC   C3A11981  39.279   0.446   8.045
  538POPC   C4A11982  39.095   0.095   7.891
  538POPC   C1B11983  39.067   0.784   8.738
  538POPC   C2B11984  39.065   0.863   8.285
  538POPC   C3B11985  39.109   0.881   7.818
  538POPC   C4B11986  39.515   0.758   7.699
  539POPC   NC311987   8.777  43.293   9.553
  539POPC   PO411988   8.730  42.744   9.193
  539POPC   GL111989   9.015  43.040   9.110
  539POPC   GL211990   8.898  43.394   9.073
  539POPC   C1A11991   9.249  43.049   8.724
  539POPC   D2A11992   9.084  43.210   8.337
  539POPC   C3A11993   9.150  43.020   7.938
  539POPC   C4A11994   8.888  42.976   7.618
  539POPC   C1B11995   8.741  43.664   8.749
  539POPC   C2B11996   8.851  43.704   8.339
  539POPC   C3B11997   8.875  43.476   7.951
  539POPC   C4B11998   8.835  43.469   7.515
  540POPC   NC311999  14.626   5.211   9.728
  540POPC   PO412000  14.041   4.917   9.580
  540POPC   GL112001  14.144   5.059   9.168
  540POPC   GL212002  14.472   5.253   9.183
  540POPC   C1A12003  14.286   5.083   8.741
  540POPC   D2A12004  14.332   5.366   8.398
  540POPC   C3A12005  14.264   5.112   8.026
  540POPC   C4A12006  14.410   4.770   7.793
  540POPC   C1B12007  14.754   5.307   8.789
  540POPC   C2B12008  14.809   5.180   8.346
  540POPC   C3B12009  14.678   5.401   8.000
  540POPC   C4B12010  14.432   5.447   7.620
  541POPC   NC312011   3.319  41.629   9.708
  541POPC   PO412012   3.113  41.298   9.319
  541POPC   GL112013   3.246  41.668   9.133
  541POPC   GL212014   3.552  41.603   9.020
  541POPC   C1A12015   3.226  41.843   8.688
  541POPC   D2A12016   3.174  41.660   8.265
  541POPC   C3A12017   3.463  41.696   7.904
  541POPC   C4A12018   3.440  41.428   7.530
  541POPC   C1B12019   3.361  41.361   8.648
  541POPC   C2B12020   3.563  41.282   8.251
  541POPC   C3B12021   3.827  41.333   7.888
  541POPC   C4B12022   3.973  41.246   7.509
  542POPC   NC312023  42.633  11.218   9.565
  542POPC   PO412024  42.080  11.557   9.468
  542POPC   GL112025  42.287  11.495   9.123
  542POPC   GL212026  42.301  11.178   9.162
  542POPC   C1A12027  42.457  11.490   8.698
  542POPC   D2A12028  42.317  11.713   8.327
  542POPC   C3A12029  42.268  11.563   7.925
  542POPC   C4A12030  42.678  11.497   7.789
  542POPC   C1B12031  42.139  11.089   8.762
  542POPC   C2B12032  42.228  11.213   8.324
  542POPC   C3B12033  42.462  11.052   7.962
  542POPC   C4B12034  42.431  11.173   7.527
  543POPC   NC312035  25.335   9.004   9.756
  543POPC   PO412036  24.772   9.069   9.759
  543POPC   GL112037  24.990   8.897   9.282
  543POPC   GL212038  25.314   8.814   9.234
  543POPC   C1A12039  25.052   9.063   8.800
  543POPC   D2A12040  25.175   9.327   8.377
  543POPC   C3A12041  25.304   9.133   7.953
  543POPC   C4A12042  25.054   8.833   7.692
  543POPC   C1B12043  25.391   8.695   8.796
  543POPC   C2B12044  25.317   8.811   8.362
  543POPC   C3B12045  25.479   8.631   7.967
  543POPC   C4B12046  25.547   8.737   7.537
  544POPC   NC312047  12.899  22.723   9.771
  544POPC   PO412048  12.517  23.082   9.354
  544POPC   GL112049  12.735  22.779   9.084
  544POPC   GL212050  13.053  22.711   9.197
  544POPC   C1A12051  12.902  22.892   8.658
  544POPC   D2A12052  12.718  23.091   8.294
  544POPC   C3A12053  12.975  23.060   7.931
  544POPC   C4A12054  12.799  22.929   7.521
  544POPC   C1B12055  13.226  22.506   8.778
  544POPC   C2B12056  13.360  22.614   8.345
  544POPC   C3B12057  13.261  22.619   7.897
  544POPC   C4B12058  13.161  22.518   7.450
  545POPC   NC312059   4.497  12.486   9.399
  545POPC   PO412060   4.584  11.779   9.423
  545POPC   GL112061   4.377  11.809   9.077
  545POPC   GL212062   4.209  12.081   9.197
  545POPC   C1A12063   4.521  11.832   8.685
  545POPC   D2A12064   4.648  11.882   8.312
  545POPC   C3A12065   4.404  11.817   7.986
  545POPC   C4A12066   4.260  12.188   7.814
  545POPC   C1B12067   4.183  12.194   8.772
  545POPC   C2B12068   4.268  12.332   8.356
  545POPC   C3B12069   3.993  12.542   8.088
  545POPC   C4B12070   4.071  12.712   7.693
  546POPC   NC312071  16.010  16.321   9.361
  546POPC   PO412072  15.851  16.941   9.591
  546POPC   GL112073  15.802  16.772   9.185
  546POPC   GL212074  16.154  16.817   9.157
  546POPC   C1A12075  15.929  16.564   8.757
  546POPC   D2A12076  16.216  16.680   8.435
  546POPC   C3A12077  16.206  16.377   8.133
  546POPC   C4A12078  16.110  16.477   7.736
  546POPC   C1B12079  15.970  17.062   8.787
  546POPC   C2B12080  15.775  16.987   8.396
  546POPC   C3B12081  15.935  16.863   8.015
  546POPC   C4B12082  16.015  16.959   7.587
  547POPC   NC312083  39.001  24.994   9.508
  547POPC   PO412084  39.360  25.528   9.736
  547POPC   GL112085  39.454  25.374   9.272
  547POPC   GL212086  39.119  25.287   9.117
  547POPC   C1A12087  39.515  25.236   8.794
  547POPC   D2A12088  39.588  25.302   8.302
  547POPC   C3A12089  39.193  25.275   8.010
  547POPC   C4A12090  39.009  25.028   7.675
  547POPC   C1B12091  38.803  25.563   8.931
  547POPC   C2B12092  38.676  25.703   8.495
  547POPC   C3B12093  38.857  25.722   8.089
  547POPC   C4B12094  38.843  25.510   7.692
  548POPC   NC312095  15.356  23.166   9.533
  548POPC   PO412096  14.751  22.722   9.477
  548POPC   GL112097  14.995  23.000   9.216
  548POPC   GL212098  14.784  23.109   8.987
  548POPC   C1A12099  15.258  23.038   8.850
  548POPC   D2A12100  15.383  23.094   8.415
  548POPC   C3A12101  15.238  22.810   8.135
  548POPC   C4A12102  15.285  22.899   7.756
  548POPC   C1B12103  14.925  23.376   8.654
  548POPC   C2B12104  15.068  23.526   8.310
  548POPC   C3B12105  15.087  23.343   7.929
  548POPC   C4B12106  14.880  23.181   7.574
  549POPC   NC312107   8.725   9.141   9.160
  549POPC   PO412108   8.210   8.684   9.205
  549POPC   GL112109   8.227   9.055   9.020
  549POPC   GL212110   8.494   8.877   8.823
  549POPC   C1A12111   8.273   9.299   8.670
  549POPC   D2A12112   8.491   9.210   8.288
  549POPC   C3A12113   8.191   9.016   8.023
  549POPC   C4A12114   7.979   9.229   7.669
  549POPC   C1B12115   8.385   8.742   8.468
  549POPC   C2B12116   8.515   8.438   8.222
  549POPC   C3B12117   8.271   8.471   7.899
  549POPC   C4B12118   7.834   8.664   7.908
  550POPC   NC312119  19.017  19.437   9.523
  550POPC   PO412120  19.421  19.924   9.483
  550POPC   GL112121  19.248  19.750   9.163
  550POPC   GL212122  19.405  19.416   9.179
  550POPC   C1A12123  18.926  19.762   8.857
  550POPC   D2A12124  18.759  19.835   8.467
  550POPC   C3A12125  18.940  20.073   8.157
  550POPC   C4A12126  18.740  19.913   7.764
  550POPC   C1B12127  19.292  19.424   8.789
  550POPC   C2B12128  19.254  19.678   8.455
  550POPC   C3B12129  19.076  19.586   8.072
  550POPC   C4B12130  19.264  19.885   7.801
  551POPC   NC312131   6.264  37.338   9.494
  551POPC   PO412132   5.731  37.752   9.698
  551POPC   GL112133   5.784  37.518   9.346
  551POPC   GL212134   5.676  37.841   9.193
  551POPC   C1A12135   5.966  37.500   8.920
  551POPC   D2A12136   5.762  37.504   8.512
  551POPC   C3A12137   5.931  37.736   8.178
  551POPC   C4A12138   5.905  37.547   7.788
  551POPC   C1B12139   5.784  37.971   8.789
  551POPC   C2B12140   5.545  37.962   8.434
  551POPC   C3B12141   5.525  38.080   8.059
  551POPC   C4B12142   5.862  38.081   7.786
  552POPC   NC312143  23.380   7.008   9.438
  552POPC   PO412144  23.588   7.645   9.447
  552POPC   GL112145  23.319   7.521   9.080
  552POPC   GL212146  23.341   7.170   8.939
  552POPC   C1A12147  23.299   7.599   8.631
  552POPC   D2A12148  23.510   7.412   8.301
  552POPC   C3A12149  23.580   7.627   7.936
  552POPC   C4A12150  23.493   7.693   7.500
  552POPC   C1B12151  23.744   7.362   8.774
  552POPC   C2B12152  24.012   7.337   8.404
  552POPC   C3B12153  23.860   7.097   8.065
  552POPC   C4B12154  23.652   7.215   7.625
  553POPC   NC312155  22.828  16.604   9.455
  553POPC   PO412156  22.855  17.278   9.715
  553POPC   GL112157  22.863  17.065   9.254
  553POPC   GL212158  23.166  17.032   9.142
  553POPC   C1A12159  22.760  17.050   8.781
  553POPC   D2A12160  22.734  16.783   8.397
  553POPC   C3A12161  22.864  16.820   7.964
  553POPC   C4A12162  23.193  16.740   7.680
  553POPC   C1B12163  23.152  16.710   8.797
  553POPC   C2B12164  23.234  16.592   8.339
  553POPC   C3B12165  23.436  16.404   7.974
  553POPC   C4B12166  23.298  16.224   7.563
  554POPC   NC312167  23.041   8.739   9.492
  554POPC   PO412168  22.680   8.064   9.449
  554POPC   GL112169  22.999   8.268   9.215
  554POPC   GL212170  22.742   8.461   9.107
  554POPC   C1A12171  23.155   8.261   8.792
  554POPC   D2A12172  22.983   8.215   8.398
  554POPC   C3A12173  23.241   7.914   8.199
  554POPC   C4A12174  23.195   7.973   7.785
  554POPC   C1B12175  22.734   8.582   8.695
  554POPC   C2B12176  22.661   8.593   8.259
  554POPC   C3B12177  22.800   8.394   7.894
  554POPC   C4B12178  22.826   8.764   7.612
  555POPC   NC312179  30.228  18.820   9.738
  555POPC   PO412180  30.736  18.577   9.352
  555POPC   GL112181  30.708  18.498   8.961
  555POPC   GL212182  30.699  18.152   8.944
  555POPC   C1A12183  30.585  18.564   8.557
  555POPC   D2A12184  30.462  18.248   8.314
  555POPC   C3A12185  30.378  18.460   7.996
  555POPC   C4A12186  30.635  18.369   7.706
  555POPC   C1B12187  30.968  18.244   8.575
  555POPC   C2B12188  30.961  18.301   8.129
  555POPC   C3B12189  30.871  17.929   7.862
  555POPC   C4B12190  30.647  17.925   7.445
  556POPC   NC312191  37.205  41.040   9.748
  556POPC   PO412192  36.610  40.666   9.701
  556POPC   GL112193  36.843  40.762   9.283
  556POPC   GL212194  37.042  41.074   9.222
  556POPC   C1A12195  36.822  40.782   8.807
  556POPC   D2A12196  37.147  40.810   8.471
  556POPC   C3A12197  36.974  40.814   8.074
  556POPC   C4A12198  36.662  40.756   7.749
  556POPC   C1B12199  37.198  41.225   8.793
  556POPC   C2B12200  37.046  41.328   8.352
  556POPC   C3B12201  37.176  41.362   7.925
  556POPC   C4B12202  37.100  41.022   7.630
  557POPC   NC312203   8.495  42.460   9.472
  557POPC   PO412204   8.001  41.991   9.567
  557POPC   GL112205   8.140  42.142   9.221
  557POPC   GL212206   8.011  42.479   9.300
  557POPC   C1A12207   8.247  42.086   8.803
  557POPC   D2A12208   8.363  42.358   8.447
  557POPC   C3A12209   8.058  42.377   8.093
  557POPC   C4A12210   7.953  41.984   7.869
  557POPC   C1B12211   8.128  42.593   8.878
  557POPC   C2B12212   8.253  42.865   8.534
  557POPC   C3B12213   8.440  42.772   8.127
  557POPC   C4B12214   8.435  42.519   7.743
  558POPC   NC312215  22.981  34.268   9.403
  558POPC   PO412216  22.599  34.803   9.416
  558POPC   GL112217  22.677  34.530   9.082
  558POPC   GL212218  23.000  34.678   9.076
  558POPC   C1A12219  22.923  34.318   8.724
  558POPC   D2A12220  23.103  34.460   8.327
  558POPC   C3A12221  22.853  34.433   7.953
  558POPC   C4A12222  22.855  34.311   7.523
  558POPC   C1B12223  22.851  34.841   8.686
  558POPC   C2B12224  23.127  34.965   8.360
  558POPC   C3B12225  23.245  34.832   7.975
  558POPC   C4B12226  23.016  34.807   7.629
  559POPC   NC312227   4.957  35.978   9.376
  559POPC   PO412228   5.604  36.256   9.309
  559POPC   GL112229   5.257  36.287   9.062
  559POPC   GL212230   5.307  35.927   9.008
  559POPC   C1A12231   4.944  36.302   8.727
  559POPC   D2A12232   4.849  36.099   8.328
  559POPC   C3A12233   4.956  36.218   7.937
  559POPC   C4A12234   5.148  36.552   7.771
  559POPC   C1B12235   5.208  35.872   8.629
  559POPC   C2B12236   5.353  36.180   8.365
  559POPC   C3B12237   5.421  36.046   7.988
  559POPC   C4B12238   5.492  36.105   7.585
  560POPC   NC312239  15.324  14.879   9.340
  560POPC   PO412240  15.073  15.461   9.538
  560POPC   GL112241  15.047  15.246   9.129
  560POPC   GL212242  15.407  15.292   9.067
  560POPC   C1A12243  15.138  15.234   8.652
  560POPC   D2A12244  15.389  15.333   8.293
  560POPC   C3A12245  15.172  15.137   7.980
  560POPC   C4A12246  14.999  15.267   7.609
  560POPC   C1B12247  15.586  15.001   8.735
  560POPC   C2B12248  15.355  14.827   8.381
  560POPC   C3B12249  15.482  14.730   7.953
  560POPC   C4B12250  15.381  14.905   7.551
  561POPC   NC312251   4.131  21.664   9.312
  561POPC   PO412252   3.983  20.966   9.482
  561POPC   GL112253   4.199  21.118   9.102
  561POPC   GL212254   4.535  21.186   9.209
  561POPC   C1A12255   4.231  21.431   8.717
  561POPC   D2A12256   4.426  21.608   8.345
  561POPC   C3A12257   4.306  21.443   7.980
  561POPC   C4A12258   4.121  21.517   7.611
  561POPC   C1B12259   4.599  21.095   8.746
  561POPC   C2B12260   4.490  21.040   8.295
  561POPC   C3B12261   4.680  21.138   7.864
  561POPC   C4B12262   4.519  21.204   7.420
  562POPC   NC312263  22.320  14.289   9.777
  562POPC   PO412264  21.889  14.751   9.467
  562POPC   GL112265  22.162  14.545   9.102
  562POPC   GL212266  22.375  14.261   9.231
  562POPC   C1A12267  22.223  14.549   8.638
  562POPC   D2A12268  22.285  14.549   8.186
  562POPC   C3A12269  21.998  14.321   7.934
  562POPC   C4A12270  21.761  14.425   7.590
  562POPC   C1B12271  22.499  14.146   8.798
  562POPC   C2B12272  22.303  14.060   8.393
  562POPC   C3B12273  22.439  14.061   7.961
  562POPC   C4B12274  22.331  14.253   7.546
  563POPC   NC312275   7.222  28.131   9.371
  563POPC   PO412276   7.747  28.588   9.475
  563POPC   GL112277   7.553  28.483   9.096
  563POPC   GL212278   7.628  28.122   9.045
  563POPC   C1A12279   7.501  28.735   8.707
  563POPC   D2A12280   7.523  28.761   8.238
  563POPC   C3A12281   7.407  28.432   7.984
  563POPC   C4A12282   7.208  28.417   7.621
  563POPC   C1B12283   7.344  28.139   8.697
  563POPC   C2B12284   7.090  28.081   8.324
  563POPC   C3B12285   7.089  27.920   7.931
  563POPC   C4B12286   7.048  27.928   7.471
  564POPC   NC312287  14.459  10.077   9.893
  564POPC   PO412288  14.131  10.606   9.632
  564POPC   GL112289  14.188  10.777   9.213
  564POPC   GL212290  14.366  10.480   9.072
  564POPC   C1A12291  14.400  10.919   8.805
  564POPC   D2A12292  14.393  10.745   8.373
  564POPC   C3A12293  14.202  10.897   8.035
  564POPC   C4A12294  14.303  10.778   7.619
  564POPC   C1B12295  14.232  10.363   8.642
  564POPC   C2B12296  13.921  10.127   8.466
  564POPC   C3B12297  13.992  10.160   8.060
  564POPC   C4B12298  14.344  10.408   7.974
  565POPC   NC312299  24.572  12.108   9.421
  565POPC   PO412300  24.224  11.452   9.354
  565POPC   GL112301  24.506  11.721   9.064
  565POPC   GL212302  24.342  12.073   8.989
  565POPC   C1A12303  24.552  11.820   8.602
  565POPC   D2A12304  24.268  12.087   8.337
  565POPC   C3A12305  24.444  12.207   7.954
  565POPC   C4A12306  24.856  12.007   7.806
  565POPC   C1B12307  24.572  12.332   8.700
  565POPC   C2B12308  24.809  12.208   8.329
  565POPC   C3B12309  24.936  12.454   7.990
  565POPC   C4B12310  24.708  12.447   7.591
  566POPC   NC312311  18.646  24.584   9.547
  566POPC   PO412312  18.121  24.277   9.289
  566POPC   GL112313  18.355  24.446   9.032
  566POPC   GL212314  18.648  24.214   9.169
  566POPC   C1A12315  18.363  24.739   8.664
  566POPC   D2A12316  18.310  24.870   8.236
  566POPC   C3A12317  18.202  24.589   7.920
  566POPC   C4A12318  17.921  24.647   7.541
  566POPC   C1B12319  18.473  24.053   8.762
  566POPC   C2B12320  18.370  24.297   8.409
  566POPC   C3B12321  18.384  24.120   8.019
  566POPC   C4B12322  18.459  24.243   7.612
  567POPC   NC312323  39.959  17.927   9.516
  567POPC   PO412324  40.093  18.563   9.600
  567POPC   GL112325  40.117  18.476   9.158
  567POPC   GL212326  40.132  18.122   9.100
  567POPC   C1A12327  39.980  18.411   8.720
  567POPC   D2A12328  40.072  18.566   8.297
  567POPC   C3A12329  39.793  18.358   8.034
  567POPC   C4A12330  39.654  18.401   7.634
  567POPC   C1B12331  40.230  17.913   8.743
  567POPC   C2B12332  40.059  18.043   8.363
  567POPC   C3B12333  40.262  18.108   8.007
  567POPC   C4B12334  40.155  18.233   7.633
  568POPC   NC312335  41.043  17.023   9.516
  568POPC   PO412336  40.501  16.605   9.509
  568POPC   GL112337  40.689  16.569   9.126
  568POPC   GL212338  40.762  16.925   9.079
  568POPC   C1A12339  40.690  16.656   8.671
  568POPC   D2A12340  40.864  16.809   8.308
  568POPC   C3A12341  40.836  16.508   8.003
  568POPC   C4A12342  40.684  16.542   7.594
  568POPC   C1B12343  40.744  17.162   8.657
  568POPC   C2B12344  40.546  17.195   8.250
  568POPC   C3B12345  40.601  16.981   7.870
  568POPC   C4B12346  40.831  17.011   7.492
  569POPC   NC312347  13.865  22.504   9.633
  569POPC   PO412348  13.573  21.945   9.424
  569POPC   GL112349  13.597  22.141   9.047
  569POPC   GL212350  13.736  22.479   9.104
  569POPC   C1A12351  13.464  22.046   8.681
  569POPC   D2A12352  13.651  21.908   8.353
  569POPC   C3A12353  13.479  22.162   8.082
  569POPC   C4A12354  13.517  22.194   7.667
  569POPC   C1B12355  13.741  22.466   8.668
  569POPC   C2B12356  13.864  22.457   8.267
  569POPC   C3B12357  13.770  22.591   7.860
  569POPC   C4B12358  13.678  22.639   7.419
  570POPC   NC312359  11.672   3.520   9.471
  570POPC   PO412360  12.261   3.838   9.516
  570POPC   GL112361  12.053   3.624   9.151
  570POPC   GL212362  12.252   3.415   9.008
  570POPC   C1A12363  11.744   3.421   8.838
  570POPC   D2A12364  11.511   3.588   8.496
  570POPC   C3A12365  11.789   3.733   8.190
  570POPC   C4A12366  11.968   3.698   7.781
  570POPC   C1B12367  12.135   3.141   8.675
  570POPC   C2B12368  11.882   3.230   8.343
  570POPC   C3B12369  12.030   3.223   7.948
  570POPC   C4B12370  12.351   3.388   7.654
  571POPC   NC312371  42.936  30.557   9.983
  571POPC   PO412372  43.512  30.750   9.695
  571POPC   GL112373  43.245  30.898   9.305
  571POPC   GL212374  43.471  30.996   9.071
  571POPC   C1A12375  43.036  30.863   8.828
  571POPC   D2A12376  43.131  30.956   8.341
  571POPC   C3A12377  42.902  30.688   8.005
  571POPC   C4A12378  42.999  30.660   7.534
  571POPC   C1B12379  43.500  30.675   8.710
  571POPC   C2B12380  43.408  30.532   8.276
  571POPC   C3B12381  43.399  30.690   7.859
  571POPC   C4B12382  43.487  30.717   7.408
  572POPC   NC312383  37.334  23.201   9.395
  572POPC   PO412384  37.909  23.492   9.526
  572POPC   GL112385  37.819  23.077   9.242
  572POPC   GL212386  37.571  22.756   9.261
  572POPC   C1A12387  37.774  22.855   8.814
  572POPC   D2A12388  37.436  22.953   8.549
  572POPC   C3A12389  37.448  22.919   8.097
  572POPC   C4A12390  37.809  22.769   7.867
  572POPC   C1B12391  37.314  22.570   8.889
  572POPC   C2B12392  37.138  22.543   8.475
  572POPC   C3B12393  37.116  22.479   8.044
  572POPC   C4B12394  37.342  22.619   7.673
  573POPC   NC312395  39.366  36.367   9.365
  573POPC   PO412396  38.878  35.968   9.525
  573POPC   GL112397  38.921  36.176   9.160
  573POPC   GL212398  39.062  35.861   9.083
  573POPC   C1A12399  39.148  36.234   8.750
  573POPC   D2A12400  39.456  36.142   8.424
  573POPC   C3A12401  39.256  36.143   8.022
  573POPC   C4A12402  38.953  36.365   7.835
  573POPC   C1B12403  39.034  35.651   8.759
  573POPC   C2B12404  39.010  35.860   8.402
  573POPC   C3B12405  38.962  35.688   8.041
  573POPC   C4B12406  38.935  35.874   7.680
  574POPC   NC312407   3.883   9.015   9.324
  574POPC   PO412408   3.254   8.825   9.444
  574POPC   GL112409   3.280   8.726   8.993
  574POPC   GL212410   3.538   8.980   8.924
  574POPC   C1A12411   3.419   8.683   8.549
  574POPC   D2A12412   3.531   9.085   8.347
  574POPC   C3A12413   3.478   8.998   7.927
  574POPC   C4A12414   3.535   8.715   7.601
  574POPC   C1B12415   3.845   9.264   8.739
  574POPC   C2B12416   4.031   9.323   8.374
  574POPC   C3B12417   3.844   9.411   8.010
  574POPC   C4B12418   3.898   9.153   7.651
  575POPC   NC312419  29.645   4.253   9.385
  575POPC   PO412420  29.028   4.509   9.437
  575POPC   GL112421  29.220   4.424   9.088
  575POPC   GL212422  29.209   4.071   9.129
  575POPC   C1A12423  29.331   4.526   8.662
  575POPC   D2A12424  29.572   4.478   8.260
  575POPC   C3A12425  29.393   4.367   7.844
  575POPC   C4A12426  29.078   4.520   7.544
  575POPC   C1B12427  29.003   4.125   8.739
  575POPC   C2B12428  29.127   4.159   8.329
  575POPC   C3B12429  28.916   4.241   7.986
  575POPC   C4B12430  28.929   4.007   7.651
  576POPC   NC312431  29.508  44.653   9.567
  576POPC   PO412432  28.964   0.047   9.559
  576POPC   GL112433  29.132  44.796   9.222
  576POPC   GL212434  29.424  44.960   9.144
  576POPC   C1A12435  29.162  44.567   8.827
  576POPC   D2A12436  29.379  44.456   8.446
  576POPC   C3A12437  29.279  44.411   8.030
  576POPC   C4A12438  29.258  44.687   7.723
  576POPC   C1B12439  29.395   0.200   8.802
  576POPC   C2B12440  29.299  44.967   8.453
  576POPC   C3B12441  29.268   0.076   8.054
  576POPC   C4B12442  29.537   0.219   7.728
  577POPC   NC312443   7.467  28.984   9.580
  577POPC   PO412444   7.793  29.552   9.736
  577POPC   GL112445   7.593  29.370   9.274
  577POPC   GL212446   7.333  29.084   9.121
  577POPC   C1A12447   7.735  29.177   8.861
  577POPC   D2A12448   7.587  29.231   8.433
  577POPC   C3A12449   7.644  29.217   7.994
  577POPC   C4A12450   7.573  28.853   7.708
  577POPC   C1B12451   7.194  29.251   8.762
  577POPC   C2B12452   7.110  29.064   8.373
  577POPC   C3B12453   7.148  29.009   7.949
  577POPC   C4B12454   7.268  29.367   7.673
  578POPC   NC312455  38.083  13.458   9.808
  578POPC   PO412456  37.485  13.394   9.464
  578POPC   GL112457  37.585  13.483   9.075
  578POPC   GL212458  37.921  13.654   9.083
  578POPC   C1A12459  37.672  13.388   8.661
  578POPC   D2A12460  37.726  13.616   8.288
  578POPC   C3A12461  37.499  13.486   7.934
  578POPC   C4A12462  37.232  13.833   7.809
  578POPC   C1B12463  38.123  13.681   8.642
  578POPC   C2B12464  38.172  13.847   8.196
  578POPC   C3B12465  37.918  13.733   7.816
  578POPC   C4B12466  38.023  13.799   7.340
  579POPC   NC312467  14.378   1.730   9.433
  579POPC   PO412468  14.583   2.356   9.667
  579POPC   GL112469  14.534   2.200   9.229
  579POPC   GL212470  14.182   2.061   9.097
  579POPC   C1A12471  14.561   2.172   8.771
  579POPC   D2A12472  14.321   1.963   8.446
  579POPC   C3A12473  14.316   2.113   8.058
  579POPC   C4A12474  14.365   1.942   7.642
  579POPC   C1B12475  14.029   1.706   8.809
  579POPC   C2B12476  14.055   1.513   8.390
  579POPC   C3B12477  14.149   1.638   7.992
  579POPC   C4B12478  13.976   1.605   7.546
  580POPC   NC312479  39.242  44.922   9.582
  580POPC   PO412480  39.099  44.265   9.481
  580POPC   GL112481  39.283  44.612   9.194
  580POPC   GL212482  39.527  44.905   9.147
  580POPC   C1A12483  39.185  44.750   8.784
  580POPC   D2A12484  39.153  44.346   8.608
  580POPC   C3A12485  39.243  44.326   8.171
  580POPC   C4A12486  39.269  44.227   7.756
  580POPC   C1B12487  39.656  44.990   8.730
  580POPC   C2B12488  39.429   0.015   8.319
  580POPC   C3B12489  39.459  44.750   7.933
  580POPC   C4B12490  39.615  44.734   7.498
  581POPC   NC312491  33.915   6.326   9.525
  581POPC   PO412492  33.990   6.991   9.424
  581POPC   GL112493  33.799   6.679   9.126
  581POPC   GL212494  33.914   6.330   9.022
  581POPC   C1A12495  33.600   6.627   8.713
  581POPC   D2A12496  33.414   6.494   8.309
  581POPC   C3A12497  33.702   6.542   7.947
  581POPC   C4A12498  33.858   6.683   7.533
  581POPC   C1B12499  34.124   6.586   8.711
  581POPC   C2B12500  34.165   6.508   8.271
  581POPC   C3B12501  34.185   6.403   7.844
  581POPC   C4B12502  34.249   6.387   7.399
  582POPC   NC312503  25.427  30.521   9.519
  582POPC   PO412504  25.103  31.102   9.410
  582POPC   GL112505  25.185  30.782   9.121
  582POPC   GL212506  25.509  30.604   9.039
  582POPC   C1A12507  25.272  30.918   8.709
  582POPC   D2A12508  25.110  31.062   8.345
  582POPC   C3A12509  25.385  30.789   8.134
  582POPC   C4A12510  25.363  30.766   7.703
  582POPC   C1B12511  25.217  30.381   8.787
  582POPC   C2B12512  25.361  30.274   8.376
  582POPC   C3B12513  25.237  30.339   7.956
  582POPC   C4B12514  25.408  30.269   7.549
  583POPC   NC312515   0.939   9.397   9.938
  583POPC   PO412516   0.937   8.841   9.343
  583POPC   GL112517   1.281   8.862   9.100
  583POPC   GL212518   1.414   9.201   9.039
  583POPC   C1A12519   1.336   8.701   8.710
  583POPC   D2A12520   1.218   8.518   8.338
  583POPC   C3A12521   1.140   8.788   8.013
  583POPC   C4A12522   1.151   8.682   7.608
  583POPC   C1B12523   1.461   9.199   8.592
  583POPC   C2B12524   1.569   9.234   8.146
  583POPC   C3B12525   1.448   9.470   7.741
  583POPC   C4B12526   1.366   9.329   7.292
  584POPC   NC312527  44.671  23.934   9.497
  584POPC   PO412528  44.491  24.434   9.776
  584POPC   GL112529  44.548  24.429   9.321
  584POPC   GL212530  44.311  24.232   9.180
  584POPC   C1A12531  44.500  24.554   8.845
  584POPC   D2A12532  44.346  24.711   8.431
  584POPC   C3A12533  44.524  24.583   8.007
  584POPC   C4A12534  44.801  24.480   7.627
  584POPC   C1B12535  44.174  24.146   8.774
  584POPC   C2B12536  44.324  24.204   8.362
  584POPC   C3B12537  44.348  24.115   7.923
  584POPC   C4B12538  44.353  24.276   7.502
  585POPC   NC312539  38.313  10.049   9.323
  585POPC   PO412540  38.143   9.492   9.590
  585POPC   GL112541  38.134   9.611   9.122
  585POPC   GL212542  37.874   9.885   9.110
  585POPC   C1A12543  38.447   9.646   8.739
  585POPC   D2A12544  38.725   9.755   8.368
  585POPC   C3A12545  38.582   9.826   7.951
  585POPC   C4A12546  38.543   9.473   7.702
  585POPC   C1B12547  38.109  10.036   8.720
  585POPC   C2B12548  38.243   9.914   8.331
  585POPC   C3B12549  38.070   9.805   7.933
  585POPC   C4B12550  38.183   9.795   7.504
  586POPC   NC312551  27.071  40.623   9.596
  586POPC   PO412552  26.428  40.684   9.639
  586POPC   GL112553  26.470  40.641   9.144
  586POPC   GL212554  26.824  40.744   9.058
  586POPC   C1A12555  26.562  40.490   8.693
  586POPC   D2A12556  26.844  40.699   8.427
  586POPC   C3A12557  26.895  40.680   7.987
  586POPC   C4A12558  26.691  40.834   7.607
  586POPC   C1B12559  26.971  41.087   8.725
  586POPC   C2B12560  27.078  41.115   8.254
  586POPC   C3B12561  27.068  41.122   7.784
  586POPC   C4B12562  26.952  41.134   7.279
  587POPC   NC312563   6.152  40.545   9.444
  587POPC   PO412564   5.705  41.124   9.514
  587POPC   GL112565   5.825  40.857   9.178
  587POPC   GL212566   6.178  40.954   9.122
  587POPC   C1A12567   5.954  40.675   8.770
  587POPC   D2A12568   6.102  40.769   8.360
  587POPC   C3A12569   6.013  40.510   8.007
  587POPC   C4A12570   5.823  40.684   7.633
  587POPC   C1B12571   6.222  41.152   8.709
  587POPC   C2B12572   6.176  41.263   8.245
  587POPC   C3B12573   6.162  40.979   7.876
  587POPC   C4B12574   6.163  40.959   7.375
  588POPC   NC312575   9.629  40.957   9.448
  588POPC   PO412576   9.987  40.435   9.468
  588POPC   GL112577   9.775  40.612   9.091
  588POPC   GL212578   9.950  40.938   9.069
  588POPC   C1A12579   9.588  40.857   8.710
  588POPC   D2A12580   9.768  40.948   8.283
  588POPC   C3A12581   9.464  40.961   7.923
  588POPC   C4A12582   9.246  40.924   7.497
  588POPC   C1B12583  10.105  40.749   8.697
  588POPC   C2B12584  10.149  40.581   8.280
  588POPC   C3B12585  10.192  40.477   7.836
  588POPC   C4B12586  10.226  40.676   7.412
  589POPC   NC312587  17.717  36.729   9.267
  589POPC   PO412588  17.733  37.258   9.749
  589POPC   GL112589  17.543  37.221   9.314
  589POPC   GL212590  17.279  36.990   9.139
  589POPC   C1A12591  17.617  37.210   8.847
  589POPC   D2A12592  17.579  36.857   8.562
  589POPC   C3A12593  17.739  37.015   8.204
  589POPC   C4A12594  17.749  37.075   7.781
  589POPC   C1B12595  17.105  37.172   8.735
  589POPC   C2B12596  17.225  37.255   8.292
  589POPC   C3B12597  17.284  36.931   7.971
  589POPC   C4B12598  17.511  36.544   8.077
  590POPC   NC312599  34.053  43.759   9.404
  590POPC   PO412600  33.486  44.083   9.409
  590POPC   GL112601  33.683  43.919   9.051
  590POPC   GL212602  34.016  44.089   8.992
  590POPC   C1A12603  33.662  43.995   8.613
  590POPC   D2A12604  33.907  44.027   8.217
  590POPC   C3A12605  33.714  43.857   7.887
  590POPC   C4A12606  33.783  43.998   7.477
  590POPC   C1B12607  34.228  43.941   8.587
  590POPC   C2B12608  34.265  43.667   8.228
  590POPC   C3B12609  34.185  43.722   7.767
  590POPC   C4B12610  34.202  43.810   7.307
  591POPC   NC312611  18.294  13.969   9.495
  591POPC   PO412612  18.297  14.657   9.519
  591POPC   GL112613  18.138  14.483   9.115
  591POPC   GL212614  18.155  14.139   9.060
  591POPC   C1A12615  17.919  14.473   8.734
  591POPC   D2A12616  18.023  14.656   8.365
  591POPC   C3A12617  17.937  14.499   8.016
  591POPC   C4A12618  18.306  14.468   7.819
  591POPC   C1B12619  18.228  13.965   8.711
  591POPC   C2B12620  18.196  14.150   8.324
  591POPC   C3B12621  18.121  13.999   7.928
  591POPC   C4B12622  18.465  14.020   7.655
  592POPC   NC312623  17.910  37.609   9.470
  592POPC   PO412624  18.551  37.721   9.408
  592POPC   GL112625  18.253  37.753   9.100
  592POPC   GL212626  18.091  37.426   9.019
  592POPC   C1A12627  18.302  37.747   8.669
  592POPC   D2A12628  18.442  37.881   8.285
  592POPC   C3A12629  18.170  37.782   7.966
  592POPC   C4A12630  18.045  37.955   7.624
  592POPC   C1B12631  18.056  37.289   8.569
  592POPC   C2B12632  18.162  37.293   8.126
  592POPC   C3B12633  18.487  37.412   7.830
  592POPC   C4B12634  18.454  37.521   7.379
  593POPC   NC312635  33.723  15.561   9.523
  593POPC   PO412636  34.251  15.713   9.587
  593POPC   GL112637  33.995  15.882   9.199
  593POPC   GL212638  33.762  15.651   9.005
  593POPC   C1A12639  33.997  16.034   8.744
  593POPC   D2A12640  34.084  15.869   8.304
  593POPC   C3A12641  34.115  16.129   7.912
  593POPC   C4A12642  34.071  16.114   7.447
  593POPC   C1B12643  33.566  15.803   8.591
  593POPC   C2B12644  33.611  15.984   8.151
  593POPC   C3B12645  33.714  15.843   7.723
  593POPC   C4B12646  33.586  16.019   7.303
  594POPC   NC312647  16.102  35.635   9.619
  594POPC   PO412648  15.928  34.983   9.515
  594POPC   GL112649  16.096  35.257   9.200
  594POPC   GL212650  16.265  35.583   9.147
  594POPC   C1A12651  15.840  35.519   8.902
  594POPC   D2A12652  15.919  35.633   8.477
  594POPC   C3A12653  15.901  35.319   8.172
  594POPC   C4A12654  15.616  35.362   7.813
  594POPC   C1B12655  16.318  35.413   8.749
  594POPC   C2B12656  16.389  35.553   8.345
  594POPC   C3B12657  16.240  35.634   7.957
  594POPC   C4B12658  16.126  35.282   7.706
  595POPC   NC312659  23.756  33.282   9.388
  595POPC   PO412660  23.994  32.642   9.461
  595POPC   GL112661  23.678  32.880   9.074
  595POPC   GL212662  23.437  33.173   9.010
  595POPC   C1A12663  23.628  32.934   8.625
  595POPC   D2A12664  23.596  32.714   8.292
  595POPC   C3A12665  23.740  32.868   7.967
  595POPC   C4A12666  23.543  32.934   7.637
  595POPC   C1B12667  23.493  33.419   8.649
  595POPC   C2B12668  23.512  33.235   8.231
  595POPC   C3B12669  23.216  33.178   7.930
  595POPC   C4B12670  23.063  33.312   7.549
  596POPC   NC312671  41.879  27.369   9.652
  596POPC   PO412672  41.203  27.460   9.460
  596POPC   GL112673  41.388  27.615   9.123
  596POPC   GL212674  41.633  27.846   9.251
  596POPC   C1A12675  41.417  27.414   8.728
  596POPC   D2A12676  41.344  27.125   8.377
  596POPC   C3A12677  41.262  27.294   7.981
  596POPC   C4A12678  41.569  27.369   7.716
  596POPC   C1B12679  41.742  27.822   8.810
  596POPC   C2B12680  41.553  27.792   8.394
  596POPC   C3B12681  41.742  27.774   7.976
  596POPC   C4B12682  41.508  27.897   7.645
  597POPC   NC312683  36.750  20.910   9.456
  597POPC   PO412684  37.140  20.428   9.656
  597POPC   GL112685  37.087  20.556   9.227
  597POPC   GL212686  36.741  20.470   9.154
  597POPC   C1A12687  37.086  20.447   8.774
  597POPC   D2A12688  37.281  20.545   8.383
  597POPC   C3A12689  37.015  20.558   8.012
  597POPC   C4A12690  36.901  20.418   7.586
  597POPC   C1B12691  36.715  20.818   8.844
  597POPC   C2B12692  36.810  20.818   8.449
  597POPC   C3B12693  36.709  20.966   8.068
  597POPC   C4B12694  36.540  20.720   7.772
  598POPC   NC312695  15.368  40.514   9.544
  598POPC   PO412696  15.277  41.128   9.455
  598POPC   GL112697  15.158  41.030   9.079
  598POPC   GL212698  15.112  40.659   9.094
  598POPC   C1A12699  15.013  40.966   8.655
  598POPC   D2A12700  15.079  40.612   8.399
  598POPC   C3A12701  15.213  40.726   7.962
  598POPC   C4A12702  15.329  40.485   7.584
  598POPC   C1B12703  14.776  40.526   8.804
  598POPC   C2B12704  14.578  40.706   8.471
  598POPC   C3B12705  14.708  40.654   8.044
  598POPC   C4B12706  14.839  40.508   7.655
  599POPC   NC312707  21.322  41.201   9.601
  599POPC   PO412708  21.683  40.625   9.503
  599POPC   GL112709  21.401  40.876   9.206
  599POPC   GL212710  21.090  41.150   9.169
  599POPC   C1A12711  21.535  40.718   8.811
  599POPC   D2A12712  21.282  40.487   8.522
  599POPC   C3A12713  21.366  40.483   8.074
  599POPC   C4A12714  21.509  40.734   7.720
  599POPC   C1B12715  21.081  40.941   8.794
  599POPC   C2B12716  21.324  40.991   8.430
  599POPC   C3B12717  21.200  40.994   8.040
  599POPC   C4B12718  21.353  41.272   7.739
  600POPC   NC312719  38.298  21.303   9.657
  600POPC   PO412720  38.915  21.314   9.524
  600POPC   GL112721  38.559  21.348   9.205
  600POPC   GL212722  38.280  21.044   9.213
  600POPC   C1A12723  38.587  21.619   8.825
  600POPC   D2A12724  38.316  21.639   8.440
  600POPC   C3A12725  38.463  21.477   8.058
  600POPC   C4A12726  38.400  21.515   7.617
  600POPC   C1B12727  38.479  21.001   8.807
  600POPC   C2B12728  38.788  20.873   8.508
  600POPC   C3B12729  38.844  20.987   8.096
  600POPC   C4B12730  38.782  21.205   7.727
  601POPC   NC312731  17.532  34.913   9.460
  601POPC   PO412732  17.307  35.589   9.655
  601POPC   GL112733  17.498  35.403   9.309
  601POPC   GL212734  17.224  35.425   9.102
  601POPC   C1A12735  17.663  35.238   8.900
  601POPC   D2A12736  17.710  35.449   8.502
  601POPC   C3A12737  17.564  35.223   8.156
  601POPC   C4A12738  17.613  35.404   7.765
  601POPC   C1B12739  17.212  35.397   8.669
  601POPC   C2B12740  17.234  35.606   8.272
  601POPC   C3B12741  17.108  35.354   7.915
  601POPC   C4B12742  17.186  35.313   7.504
  602POPC   NC312743  13.496  28.363   9.921
  602POPC   PO412744  13.534  28.199   9.333
  602POPC   GL112745  13.666  28.264   8.995
  602POPC   GL212746  13.610  28.608   9.024
  602POPC   C1A12747  13.527  28.213   8.618
  602POPC   D2A12748  13.695  28.321   8.250
  602POPC   C3A12749  13.427  28.320   7.867
  602POPC   C4A12750  13.344  28.224   7.438
  602POPC   C1B12751  13.592  28.709   8.610
  602POPC   C2B12752  13.892  28.787   8.317
  602POPC   C3B12753  13.780  28.692   7.916
  602POPC   C4B12754  13.413  28.848   7.767
  603POPC   NC312755  32.857  32.462   9.368
  603POPC   PO412756  33.253  31.962   9.494
  603POPC   GL112757  33.145  32.118   9.098
  603POPC   GL212758  33.219  32.463   9.015
  603POPC   C1A12759  32.898  32.156   8.724
  603POPC   D2A12760  33.133  32.280   8.359
  603POPC   C3A12761  32.933  32.159   7.997
  603POPC   C4A12762  32.905  32.395   7.617
  603POPC   C1B12763  33.454  32.556   8.655
  603POPC   C2B12764  33.590  32.511   8.229
  603POPC   C3B12765  33.349  32.411   7.864
  603POPC   C4B12766  33.357  32.487   7.378
  604POPC   NC312767  16.720  26.513   9.350
  604POPC   PO412768  16.992  25.907   9.480
  604POPC   GL112769  16.777  26.040   9.091
  604POPC   GL212770  16.476  25.912   8.976
  604POPC   C1A12771  16.813  26.054   8.623
  604POPC   D2A12772  16.445  25.986   8.361
  604POPC   C3A12773  16.548  25.918   7.925
  604POPC   C4A12774  16.928  26.094   7.753
  604POPC   C1B12775  16.463  26.367   8.791
  604POPC   C2B12776  16.719  26.567   8.495
  604POPC   C3B12777  16.678  26.409   8.081
  604POPC   C4B12778  16.461  26.388   7.683
  605POPC   NC312779  30.941  21.205   9.708
  605POPC   PO412780  30.406  21.533   9.620
  605POPC   GL112781  30.531  21.485   9.203
  605POPC   GL212782  30.881  21.422   9.193
  605POPC   C1A12783  30.586  21.228   8.842
  605POPC   D2A12784  30.813  21.148   8.463
  605POPC   C3A12785  30.602  20.974   8.087
  605POPC   C4A12786  30.826  21.077   7.723
  605POPC   C1B12787  30.960  21.587   8.782
  605POPC   C2B12788  30.708  21.657   8.409
  605POPC   C3B12789  30.752  21.477   8.036
  605POPC   C4B12790  31.118  21.524   7.816
  606POPC   NC312791  12.470  15.730   9.542
  606POPC   PO412792  12.061  16.136   9.635
  606POPC   GL112793  12.129  15.919   9.189
  606POPC   GL212794  12.081  15.531   9.241
  606POPC   C1A12795  12.210  16.057   8.701
  606POPC   D2A12796  12.423  16.043   8.245
  606POPC   C3A12797  12.148  16.107   7.815
  606POPC   C4A12798  11.979  16.401   7.503
  606POPC   C1B12799  12.304  15.578   8.835
  606POPC   C2B12800  12.152  15.625   8.419
  606POPC   C3B12801  12.103  15.622   7.975
  606POPC   C4B12802  11.837  15.690   7.630
  607POPC   NC312803  20.512  16.113   9.577
  607POPC   PO412804  20.601  16.729   9.609
  607POPC   GL112805  20.639  16.767   9.171
  607POPC   GL212806  20.892  17.033   9.157
  607POPC   C1A12807  20.427  16.773   8.775
  607POPC   D2A12808  20.353  16.583   8.433
  607POPC   C3A12809  20.476  16.745   8.077
  607POPC   C4A12810  20.440  16.694   7.652
  607POPC   C1B12811  20.919  16.903   8.712
  607POPC   C2B12812  20.939  16.904   8.234
  607POPC   C3B12813  20.875  16.908   7.773
  607POPC   C4B12814  20.769  16.933   7.289
  608POPC   NC312815  42.628  44.518   9.300
  608POPC   PO412816  42.201   0.016   9.377
  608POPC   GL112817  42.286  44.755   9.021
  608POPC   GL212818  42.127  44.398   9.084
  608POPC   C1A12819  42.584  44.674   8.657
  608POPC   D2A12820  42.548  44.341   8.342
  608POPC   C3A12821  42.570  44.516   7.918
  608POPC   C4A12822  42.671  44.887   7.695
  608POPC   C1B12823  42.115  44.480   8.633
  608POPC   C2B12824  42.169  44.694   8.251
  608POPC   C3B12825  41.889  44.689   7.897
  608POPC   C4B12826  41.774  44.481   7.504
  609POPC   NC312827   9.827   5.483   9.483
  609POPC   PO412828   9.731   6.126   9.470
  609POPC   GL112829   9.682   6.014   9.060
  609POPC   GL212830   9.586   5.654   9.038
  609POPC   C1A12831   9.622   6.030   8.641
  609POPC   D2A12832   9.443   5.852   8.298
  609POPC   C3A12833   9.657   6.069   7.995
  609POPC   C4A12834   9.676   6.202   7.576
  609POPC   C1B12835   9.870   5.581   8.741
  609POPC   C2B12836   9.880   5.393   8.369
  609POPC   C3B12837   9.832   5.579   8.024
  609POPC   C4B12838   9.877   5.482   7.658
  610POPC   NC312839  26.220  42.674   9.506
  610POPC   PO412840  26.236  41.987   9.371
  610POPC   GL112841  25.823  42.120   9.152
  610POPC   GL212842  25.697  42.473   9.163
  610POPC   C1A12843  25.822  42.241   8.687
  610POPC   D2A12844  26.218  42.200   8.461
  610POPC   C3A12845  26.237  42.304   8.039
  610POPC   C4A12846  26.205  42.158   7.635
  610POPC   C1B12847  25.947  42.674   8.900
  610POPC   C2B12848  26.212  42.713   8.584
  610POPC   C3B12849  26.203  42.796   8.160
  610POPC   C4B12850  25.966  42.672   7.801
  611POPC   NC312851  10.251   6.278   9.411
  611POPC   PO412852  10.601   5.634   9.502
  611POPC   GL112853  10.512   5.849   9.138
  611POPC   GL212854  10.139   5.777   9.150
  611POPC   C1A12855  10.709   6.112   8.810
  611POPC   D2A12856  10.550   6.197   8.396
  611POPC   C3A12857  10.586   6.014   7.977
  611POPC   C4A12858  10.605   5.934   7.517
  611POPC   C1B12859  10.184   5.992   8.727
  611POPC   C2B12860  10.101   5.959   8.251
  611POPC   C3B12861  10.111   5.992   7.763
  611POPC   C4B12862  10.173   5.742   7.355
  612POPC   NC312863  37.060  38.666   9.525
  612POPC   PO412864  36.710  38.023   9.524
  612POPC   GL112865  36.789  38.335   9.207
  612POPC   GL212866  37.134  38.358   9.136
  612POPC   C1A12867  36.721  38.575   8.827
  612POPC   D2A12868  36.466  38.527   8.486
  612POPC   C3A12869  36.585  38.423   8.080
  612POPC   C4A12870  36.670  38.592   7.667
  612POPC   C1B12871  37.214  38.588   8.773
  612POPC   C2B12872  36.988  38.521   8.385
  612POPC   C3B12873  37.098  38.608   7.986
  612POPC   C4B12874  37.172  38.812   7.604
  613POPC   NC312875  34.261  44.495   9.431
  613POPC   PO412876  34.614   0.017   9.599
  613POPC   GL112877  34.550  44.841   9.204
  613POPC   GL212878  34.696  44.506   9.159
  613POPC   C1A12879  34.375  44.872   8.811
  613POPC   D2A12880  34.620  44.773   8.493
  613POPC   C3A12881  34.465  44.970   8.172
  613POPC   C4A12882  34.274  44.707   7.862
  613POPC   C1B12883  34.887  44.442   8.789
  613POPC   C2B12884  34.752  44.280   8.393
  613POPC   C3B12885  34.726  44.538   8.026
  613POPC   C4B12886  34.815  44.483   7.568
  614POPC   NC312887  17.785  41.789   9.423
  614POPC   PO412888  18.443  41.480   9.503
  614POPC   GL112889  18.187  41.580   9.167
  614POPC   GL212890  17.905  41.329   9.148
  614POPC   C1A12891  18.112  41.830   8.800
  614POPC   D2A12892  18.318  41.772   8.400
  614POPC   C3A12893  18.048  41.634   8.069
  614POPC   C4A12894  17.872  41.758   7.693
  614POPC   C1B12895  18.124  41.319   8.730
  614POPC   C2B12896  18.316  41.264   8.312
  614POPC   C3B12897  18.421  41.328   7.857
  614POPC   C4B12898  18.112  41.350   7.508
  615POPC   NC312899  38.912  27.500   9.515
  615POPC   PO412900  39.486  27.805   9.400
  615POPC   GL112901  39.160  27.767   9.099
  615POPC   GL212902  38.925  28.063   9.053
  615POPC   C1A12903  39.280  27.596   8.699
  615POPC   D2A12904  39.401  27.775   8.290
  615POPC   C3A12905  39.678  27.470   8.084
  615POPC   C4A12906  39.437  27.426   7.781
  615POPC   C1B12907  39.040  28.043   8.632
  615POPC   C2B12908  38.901  27.695   8.347
  615POPC   C3B12909  38.979  27.607   7.941
  615POPC   C4B12910  38.865  27.780   7.543
  616POPC   NC312911  23.767   9.424   9.562
  616POPC   PO412912  23.582  10.064   9.506
  616POPC   GL112913  23.622   9.830   9.098
  616POPC   GL212914  23.907   9.632   9.123
  616POPC   C1A12915  23.605   9.584   8.673
  616POPC   D2A12916  23.352   9.460   8.337
  616POPC   C3A12917  23.621   9.637   8.017
  616POPC   C4A12918  23.752   9.979   7.704
  616POPC   C1B12919  24.074   9.751   8.735
  616POPC   C2B12920  24.042   9.583   8.338
  616POPC   C3B12921  24.126   9.714   7.939
  616POPC   C4B12922  24.269   9.958   7.577
  617POPC   NC312923  14.190  24.816   9.520
  617POPC   PO412924  14.674  24.313   9.400
  617POPC   GL112925  14.350  24.362   9.101
  617POPC   GL212926  14.566  24.624   8.969
  617POPC   C1A12927  14.097  24.626   8.799
  617POPC   D2A12928  14.067  24.841   8.375
  617POPC   C3A12929  14.184  24.611   7.982
  617POPC   C4A12930  14.382  24.457   7.571
  617POPC   C1B12931  14.845  24.321   8.741
  617POPC   C2B12932  14.790  24.368   8.324
  617POPC   C3B12933  14.684  24.533   7.977
  617POPC   C4B12934  14.759  24.800   7.656
  618POPC   NC312935  33.537   3.797   9.725
  618POPC   PO412936  33.858   4.380   9.551
  618POPC   GL112937  33.778   4.365   9.146
  618POPC   GL212938  34.068   4.511   9.041
  618POPC   C1A12939  33.615   4.356   8.729
  618POPC   D2A12940  33.774   4.521   8.350
  618POPC   C3A12941  33.728   4.291   7.968
  618POPC   C4A12942  34.085   4.530   7.837
  618POPC   C1B12943  34.077   4.137   8.782
  618POPC   C2B12944  33.918   4.043   8.400
  618POPC   C3B12945  34.180   4.080   8.076
  618POPC   C4B12946  34.125   3.984   7.725
  619POPC   NC312947   9.302   1.839   9.447
  619POPC   PO412948   8.760   2.152   9.778
  619POPC   GL112949   8.699   1.906   9.250
  619POPC   GL212950   8.889   2.127   8.892
  619POPC   C1A12951   8.809   1.647   8.849
  619POPC   D2A12952   8.929   1.834   8.447
  619POPC   C3A12953   8.740   1.816   8.059
  619POPC   C4A12954   8.883   2.136   7.811
  619POPC   C1B12955   9.286   1.854   8.808
  619POPC   C2B12956   9.476   1.705   8.438
  619POPC   C3B12957   9.269   1.794   8.031
  619POPC   C4B12958   9.444   1.760   7.617
  620POPC   NC312959  41.979   3.133   9.511
  620POPC   PO412960  42.547   3.403   9.431
  620POPC   GL112961  42.590   3.209   9.052
  620POPC   GL212962  42.249   3.183   9.003
  620POPC   C1A12963  42.603   3.264   8.613
  620POPC   D2A12964  42.356   3.390   8.288
  620POPC   C3A12965  42.594   3.240   7.967
  620POPC   C4A12966  42.782   3.340   7.571
  620POPC   C1B12967  42.317   3.631   8.799
  620POPC   C2B12968  42.346   3.888   8.377
  620POPC   C3B12969  42.354   3.751   7.901
  620POPC   C4B12970  42.264   3.384   7.594
  621POPC   NC312971   9.659  38.175   9.497
  621POPC   PO412972  10.192  38.549   9.404
  621POPC   GL112973  10.065  38.553   9.013
  621POPC   GL212974   9.745  38.435   9.084
  621POPC   C1A12975  10.091  38.525   8.542
  621POPC   D2A12976   9.803  38.415   8.255
  621POPC   C3A12977   9.839  38.354   7.847
  621POPC   C4A12978   9.559  38.057   7.747
  621POPC   C1B12979   9.632  38.577   8.727
  621POPC   C2B12980   9.591  38.838   8.405
  621POPC   C3B12981   9.449  38.722   8.045
  621POPC   C4B12982   9.537  38.709   7.626
  622POPC   NC312983   0.597   9.138   9.455
  622POPC   PO412984  44.956   9.033   9.382
  622POPC   GL112985   0.310   8.831   9.162
  622POPC   GL212986   0.631   9.006   8.984
  622POPC   C1A12987   0.294   8.754   8.740
  622POPC   D2A12988   0.225   9.035   8.421
  622POPC   C3A12989   0.320   8.879   8.052
  622POPC   C4A12990   0.149   8.710   7.708
  622POPC   C1B12991   0.953   9.047   8.708
  622POPC   C2B12992   0.800   8.987   8.339
  622POPC   C3B12993   0.765   9.110   7.946
  622POPC   C4B12994   0.649   8.818   7.677
  623POPC   NC312995  31.146   9.397   9.735
  623POPC   PO412996  31.179   9.164   9.191
  623POPC   GL112997  30.803   9.476   9.073
  623POPC   GL212998  30.697   9.833   9.147
  623POPC   C1A12999  30.488   9.557   8.723
  623POPC   D2A13000  30.478   9.358   8.300
  623POPC   C3A13001  30.619   9.537   7.909
  623POPC   C4A13002  30.871   9.579   7.539
  623POPC   C1B13003  30.871   9.894   8.714
  623POPC   C2B13004  30.697   9.895   8.282
  623POPC   C3B13005  30.843  10.004   7.839
  623POPC   C4B13006  30.795  10.087   7.373
  624POPC   NC313007  10.088   1.598   9.480
  624POPC   PO413008  10.750   1.626   9.479
  624POPC   GL113009  10.617   1.911   9.158
  624POPC   GL213010  10.256   1.980   9.168
  624POPC   C1A13011  10.851   2.007   8.792
  624POPC   D2A13012  10.852   2.172   8.394
  624POPC   C3A13013  10.956   2.066   7.976
  624POPC   C4A13014  10.587   2.028   7.677
  624POPC   C1B13015  10.344   1.883   8.738
  624POPC   C2B13016  10.364   2.111   8.378
  624POPC   C3B13017  10.208   2.052   8.006
  624POPC   C4B13018  10.195   1.728   7.720
  625POPC   NC313019   5.796  25.824   9.479
  625POPC   PO413020   5.484  26.348   9.307
  625POPC   GL113021   5.905  26.102   9.077
  625POPC   GL213022   5.992  25.665   9.052
  625POPC   C1A13023   6.076  25.984   8.674
  625POPC   D2A13024   6.136  26.018   8.251
  625POPC   C3A13025   6.189  25.900   7.831
  625POPC   C4A13026   6.159  26.181   7.465
  625POPC   C1B13027   5.625  25.782   8.801
  625POPC   C2B13028   5.621  26.012   8.403
  625POPC   C3B13029   5.677  25.893   7.961
  625POPC   C4B13030   5.403  25.658   7.650
  626POPC   NC313031  12.442  44.087   9.305
  626POPC   PO413032  13.069  44.085   9.561
  626POPC   GL113033  12.889  43.793   9.227
  626POPC   GL213034  12.600  43.543   9.160
  626POPC   C1A13035  12.964  43.610   8.820
  626POPC   D2A13036  12.862  43.751   8.424
  626POPC   C3A13037  12.956  43.568   8.047
  626POPC   C4A13038  12.783  43.711   7.700
  626POPC   C1B13039  12.464  43.727   8.749
  626POPC   C2B13040  12.351  43.772   8.305
  626POPC   C3B13041  12.299  43.834   7.841
  626POPC   C4B13042  12.370  43.605   7.445
  627POPC   NC313043   0.485   3.762   9.803
  627POPC   PO413044  44.866   3.543   9.575
  627POPC   GL113045   0.318   3.636   9.305
  627POPC   GL213046   0.490   3.351   9.182
  627POPC   C1A13047   0.596   3.731   8.881
  627POPC   D2A13048   0.624   3.558   8.456
  627POPC   C3A13049   0.704   3.888   8.120
  627POPC   C4A13050   0.368   4.095   7.864
  627POPC   C1B13051   0.120   3.598   8.862
  627POPC   C2B13052   0.134   3.717   8.412
  627POPC   C3B13053   0.323   3.533   8.042
  627POPC   C4B13054   0.514   3.180   7.822
  628POPC   NC313055  31.916  15.150   9.821
  628POPC   PO413056  31.980  15.531   9.577
  628POPC   GL113057  31.995  15.310   9.157
  628POPC   GL213058  32.322  15.133   9.093
  628POPC   C1A13059  31.869  15.378   8.701
  628POPC   D2A13060  32.125  15.442   8.321
  628POPC   C3A13061  32.057  15.204   7.930
  628POPC   C4A13062  32.353  15.222   7.569
  628POPC   C1B13063  32.274  15.064   8.634
  628POPC   C2B13064  32.458  15.021   8.192
  628POPC   C3B13065  32.312  14.756   7.811
  628POPC   C4B13066  32.125  14.804   7.386
  629POPC   NC313067   7.860  40.714   9.563
  629POPC   PO413068   8.495  40.490   9.455
  629POPC   GL113069   8.421  40.791   9.122
  629POPC   GL213070   8.073  40.815   9.115
  629POPC   C1A13071   8.494  41.073   8.756
  629POPC   D2A13072   8.333  41.033   8.331
  629POPC   C3A13073   8.452  40.688   8.075
  629POPC   C4A13074   8.500  40.427   7.735
  629POPC   C1B13075   8.000  40.845   8.687
  629POPC   C2B13076   8.061  40.536   8.374
  629POPC   C3B13077   7.982  40.501   7.945
  629POPC   C4B13078   7.798  40.652   7.560
  630POPC   NC313079  28.051   9.921   9.476
  630POPC   PO413080  28.595   9.533   9.483
  630POPC   GL113081  28.404   9.737   9.166
  630POPC   GL213082  28.493  10.084   9.256
  630POPC   C1A13083  28.197   9.678   8.792
  630POPC   D2A13084  28.128   9.437   8.447
  630POPC   C3A13085  28.255   9.616   8.086
  630POPC   C4A13086  28.468   9.400   7.777
  630POPC   C1B13087  28.444  10.144   8.822
  630POPC   C2B13088  28.273  10.059   8.435
  630POPC   C3B13089  28.432  10.101   8.020
  630POPC   C4B13090  28.227   9.945   7.674
  631POPC   NC313091   0.229  35.614   9.429
  631POPC   PO413092   0.584  35.043   9.481
  631POPC   GL113093   0.594  35.315   9.138
  631POPC   GL213094   0.312  35.457   8.967
  631POPC   C1A13095   0.746  35.387   8.709
  631POPC   D2A13096   0.536  35.612   8.381
  631POPC   C3A13097   0.642  35.516   7.984
  631POPC   C4A13098   0.515  35.164   7.781
  631POPC   C1B13099   0.183  35.790   8.757
  631POPC   C2B13100  44.991  35.798   8.392
  631POPC   C3B13101   0.181  35.755   8.054
  631POPC   C4B13102   0.159  35.505   7.769
  632POPC   NC313103  44.229  12.750   9.548
  632POPC   PO413104  44.757  13.144   9.591
  632POPC   GL113105  44.594  12.987   9.176
  632POPC   GL213106  44.493  12.615   9.136
  632POPC   C1A13107  44.815  13.025   8.755
  632POPC   D2A13108  44.844  12.816   8.312
  632POPC   C3A13109  44.904  13.004   7.870
  632POPC   C4A13110  44.988  13.082   7.417
  632POPC   C1B13111  44.515  12.615   8.688
  632POPC   C2B13112  44.338  12.667   8.294
  632POPC   C3B13113  44.550  12.654   7.908
  632POPC   C4B13114  44.504  12.911   7.516
  633POPC   NC313115  20.338  28.507   9.360
  633POPC   PO413116  20.939  28.216   9.424
  633POPC   GL113117  20.850  27.971   9.047
  633POPC   GL213118  20.503  28.070   9.047
  633POPC   C1A13119  20.775  28.012   8.591
  633POPC   D2A13120  20.674  28.395   8.340
  633POPC   C3A13121  20.839  28.348   7.949
  633POPC   C4A13122  20.800  28.053   7.635
  633POPC   C1B13123  20.311  28.237   8.691
  633POPC   C2B13124  20.192  28.207   8.253
  633POPC   C3B13125  20.333  28.415   7.886
  633POPC   C4B13126  20.393  28.856   7.809
  634POPC   NC313127  20.696  38.750   9.627
  634POPC   PO413128  20.760  38.096   9.294
  634POPC   GL113129  20.755  38.542   9.131
  634POPC   GL213130  20.423  38.694   9.175
  634POPC   C1A13131  20.630  38.760   8.731
  634POPC   D2A13132  20.505  38.850   8.327
  634POPC   C3A13133  20.767  38.630   8.012
  634POPC   C4A13134  20.794  38.194   7.822
  634POPC   C1B13135  20.339  38.341   8.848
  634POPC   C2B13136  20.328  38.118   8.427
  634POPC   C3B13137  20.286  38.264   7.985
  634POPC   C4B13138  20.320  38.669   7.783
  635POPC   NC313139  14.224   6.037   9.455
  635POPC   PO413140  14.787   5.849   9.825
  635POPC   GL113141  14.633   5.813   9.308
  635POPC   GL213142  14.635   6.113   9.145
  635POPC   C1A13143  14.415   5.683   8.874
  635POPC   D2A13144  14.254   5.868   8.452
  635POPC   C3A13145  14.300   5.743   8.033
  635POPC   C4A13146  14.187   5.983   7.662
  635POPC   C1B13147  14.413   6.206   8.806
  635POPC   C2B13148  14.624   6.197   8.424
  635POPC   C3B13149  14.450   6.242   8.040
  635POPC   C4B13150  14.626   6.339   7.669
  636POPC   NC313151   1.279  10.126   9.439
  636POPC   PO413152   1.373  10.760   9.614
  636POPC   GL113153   1.281  10.693   9.176
  636POPC   GL213154   0.995  10.495   9.129
  636POPC   C1A13155   1.331  10.521   8.748
  636POPC   D2A13156   1.462  10.281   8.391
  636POPC   C3A13157   1.406  10.549   8.071
  636POPC   C4A13158   1.433  10.386   7.698
  636POPC   C1B13159   0.889  10.289   8.753
  636POPC   C2B13160   0.991  10.492   8.346
  636POPC   C3B13161   0.961  10.362   7.883
  636POPC   C4B13162   1.053  10.283   7.403
  637POPC   NC313163  24.846  20.564   9.485
  637POPC   PO413164  24.114  20.440   9.538
  637POPC   GL113165  24.362  20.725   9.261
  637POPC   GL213166  24.503  20.458   9.136
  637POPC   C1A13167  24.369  20.871   8.831
  637POPC   D2A13168  24.490  20.778   8.383
  637POPC   C3A13169  24.307  20.737   7.977
  637POPC   C4A13170  24.413  20.870   7.527
  637POPC   C1B13171  24.328  20.345   8.791
  637POPC   C2B13172  24.455  20.175   8.423
  637POPC   C3B13173  24.623  20.328   8.054
  637POPC   C4B13174  24.440  20.368   7.640
  638POPC   NC313175  33.193  39.857   9.571
  638POPC   PO413176  32.713  39.520   9.583
  638POPC   GL113177  32.917  39.432   9.197
  638POPC   GL213178  33.183  39.642   9.111
  638POPC   C1A13179  32.794  39.555   8.773
  638POPC   D2A13180  32.855  39.316   8.392
  638POPC   C3A13181  32.760  39.439   7.961
  638POPC   C4A13182  32.554  39.122   7.660
  638POPC   C1B13183  33.292  39.538   8.680
  638POPC   C2B13184  33.192  39.676   8.268
  638POPC   C3B13185  33.276  39.512   7.870
  638POPC   C4B13186  33.449  39.608   7.462
  639POPC   NC313187  28.000  32.586   9.522
  639POPC   PO413188  27.345  32.341   9.524
  639POPC   GL113189  27.697  32.341   9.227
  639POPC   GL213190  27.835  32.059   9.092
  639POPC   C1A13191  27.860  32.496   8.818
  639POPC   D2A13192  27.649  32.457   8.420
  639POPC   C3A13193  27.783  32.537   8.011
  639POPC   C4A13194  27.518  32.505   7.651
  639POPC   C1B13195  27.453  32.174   8.831
  639POPC   C2B13196  27.308  32.056   8.432
  639POPC   C3B13197  27.429  32.134   8.042
  639POPC   C4B13198  27.251  31.997   7.681
  640POPC   NC313199  21.356  19.741   9.547
  640POPC   PO413200  21.890  20.151   9.678
  640POPC   GL113201  21.744  19.996   9.264
  640POPC   GL213202  21.693  20.204   9.056
  640POPC   C1A13203  21.504  19.768   8.916
  640POPC   D2A13204  21.339  19.840   8.507
  640POPC   C3A13205  21.504  19.885   8.078
  640POPC   C4A13206  21.314  19.722   7.710
  640POPC   C1B13207  21.362  20.293   8.766
  640POPC   C2B13208  21.141  20.274   8.367
  640POPC   C3B13209  21.295  20.350   7.964
  640POPC   C4B13210  21.108  20.221   7.602
  641POPC   NC313211  28.053   5.644   9.414
  641POPC   PO413212  27.524   5.992   9.638
  641POPC   GL113213  27.632   5.849   9.199
  641POPC   GL213214  27.937   5.987   9.062
  641POPC   C1A13215  27.539   5.863   8.768
  641POPC   D2A13216  27.798   5.973   8.417
  641POPC   C3A13217  27.650   5.780   8.046
  641POPC   C4A13218  27.331   5.940   7.826
  641POPC   C1B13219  27.995   5.627   8.728
  641POPC   C2B13220  28.083   5.591   8.251
  641POPC   C3B13221  28.048   5.565   7.760
  641POPC   C4B13222  27.917   5.504   7.302
  642POPC   NC313223  44.243  43.434   9.530
  642POPC   PO413224  43.679  43.036   9.588
  642POPC   GL113225  43.797  42.970   9.162
  642POPC   GL213226  43.465  42.927   9.088
  642POPC   C1A13227  44.069  43.036   8.782
  642POPC   D2A13228  44.209  43.175   8.355
  642POPC   C3A13229  43.947  43.342   7.988
  642POPC   C4A13230  43.507  43.467   7.874
  642POPC   C1B13231  43.575  43.125   8.707
  642POPC   C2B13232  43.753  42.982   8.346
  642POPC   C3B13233  43.654  42.935   7.959
  642POPC   C4B13234  43.334  42.974   7.815
  643POPC   NC313235  15.648  41.164   9.736
  643POPC   PO413236  15.061  41.575   9.623
  643POPC   GL113237  14.974  41.564   9.190
  643POPC   GL213238  14.653  41.469   9.164
  643POPC   C1A13239  15.107  41.458   8.777
  643POPC   D2A13240  15.233  41.600   8.368
  643POPC   C3A13241  15.255  41.266   8.061
  643POPC   C4A13242  15.354  41.106   7.653
  643POPC   C1B13243  14.637  41.654   8.739
  643POPC   C2B13244  14.715  41.492   8.335
  643POPC   C3B13245  14.873  41.615   7.930
  643POPC   C4B13246  14.947  41.914   7.584
  644POPC   NC313247   2.294  34.807   9.464
  644POPC   PO413248   2.916  34.454   9.475
  644POPC   GL113249   2.797  34.342   9.087
  644POPC   GL213250   2.571  34.596   9.070
  644POPC   C1A13251   2.821  34.364   8.655
  644POPC   D2A13252   2.836  34.242   8.239
  644POPC   C3A13253   2.946  34.569   7.952
  644POPC   C4A13254   3.094  34.796   7.589
  644POPC   C1B13255   2.416  34.694   8.671
  644POPC   C2B13256   2.514  34.614   8.293
  644POPC   C3B13257   2.415  34.635   7.898
  644POPC   C4B13258   2.588  34.837   7.532
  645POPC   NC313259  18.392   4.477   9.919
  645POPC   PO413260  18.025   4.928   9.482
  645POPC   GL113261  18.226   4.665   9.166
  645POPC   GL213262  18.374   4.296   9.201
  645POPC   C1A13263  18.183   4.458   8.768
  645POPC   D2A13264  18.131   4.082   8.531
  645POPC   C3A13265  18.032   4.224   8.111
  645POPC   C4A13266  17.974   4.067   7.691
  645POPC   C1B13267  18.597   4.161   8.777
  645POPC   C2B13268  18.506   4.362   8.343
  645POPC   C3B13269  18.637   4.305   7.913
  645POPC   C4B13270  18.385   4.390   7.543
  646POPC   NC313271  13.553  37.395   9.524
  646POPC   PO413272  14.142  37.666   9.604
  646POPC   GL113273  13.773  37.853   9.255
  646POPC   GL213274  13.603  37.555   9.058
  646POPC   C1A13275  13.508  37.984   8.847
  646POPC   D2A13276  13.583  37.669   8.544
  646POPC   C3A13277  13.477  37.732   8.143
  646POPC   C4A13278  13.573  37.791   7.762
  646POPC   C1B13279  13.877  37.303   8.781
  646POPC   C2B13280  13.775  37.251   8.329
  646POPC   C3B13281  13.710  37.300   7.903
  646POPC   C4B13282  13.393  37.331   7.607
  647POPC   NC313283  28.706   5.675   9.473
  647POPC   PO413284  29.185   6.110   9.786
  647POPC   GL113285  29.196   6.159   9.294
  647POPC   GL213286  28.955   5.944   9.112
  647POPC   C1A13287  29.285   6.212   8.821
  647POPC   D2A13288  29.172   6.022   8.394
  647POPC   C3A13289  29.363   6.173   7.981
  647POPC   C4A13290  29.310   5.964   7.558
  647POPC   C1B13291  29.169   5.676   8.785
  647POPC   C2B13292  29.209   5.471   8.383
  647POPC   C3B13293  29.178   5.692   7.976
  647POPC   C4B13294  28.873   6.033   7.849
  648POPC   NC313295  19.279  14.006   9.465
  648POPC   PO413296  18.930  13.342   9.403
  648POPC   GL113297  19.159  13.443   9.051
  648POPC   GL213298  19.042  13.764   9.087
  648POPC   C1A13299  19.189  13.632   8.630
  648POPC   D2A13300  19.184  13.924   8.331
  648POPC   C3A13301  19.223  13.616   8.030
  648POPC   C4A13302  19.155  13.435   7.655
  648POPC   C1B13303  18.779  13.967   8.783
  648POPC   C2B13304  18.691  14.055   8.387
  648POPC   C3B13305  18.734  13.838   8.044
  648POPC   C4B13306  18.965  13.924   7.701
  649POPC   NC313307  23.162  28.193   9.558
  649POPC   PO413308  22.955  28.807   9.574
  649POPC   GL113309  23.000  28.521   9.205
  649POPC   GL213310  22.663  28.351   9.204
  649POPC   C1A13311  22.964  28.186   8.841
  649POPC   D2A13312  22.643  28.195   8.470
  649POPC   C3A13313  22.838  28.319   8.040
  649POPC   C4A13314  23.256  28.299   7.757
  649POPC   C1B13315  22.732  28.639   8.797
  649POPC   C2B13316  23.034  28.791   8.467
  649POPC   C3B13317  23.167  28.738   8.011
  649POPC   C4B13318  22.858  28.676   7.671
  650POPC   NC313319   8.647  22.845   9.890
  650POPC   PO413320   9.175  22.758   9.502
  650POPC   GL113321   9.155  22.920   9.110
  650POPC   GL213322   8.815  23.026   9.090
  650POPC   C1A13323   9.090  22.871   8.676
  650POPC   D2A13324   8.766  22.667   8.449
  650POPC   C3A13325   8.868  22.743   8.041
  650POPC   C4A13326   9.189  22.749   7.763
  650POPC   C1B13327   8.645  23.111   8.678
  650POPC   C2B13328   8.899  23.207   8.274
  650POPC   C3B13329   8.912  23.196   7.778
  650POPC   C4B13330   8.712  23.179   7.320
  651POPC   NC313331  14.483  11.092   9.523
  651POPC   PO413332  13.850  11.206   9.421
  651POPC   GL113333  14.202  11.377   9.172
  651POPC   GL213334  14.595  11.319   9.094
  651POPC   C1A13335  14.228  11.420   8.745
  651POPC   D2A13336  14.358  11.238   8.390
  651POPC   C3A13337  14.132  11.385   8.069
  651POPC   C4A13338  14.286  11.434   7.694
  651POPC   C1B13339  14.758  11.391   8.703
  651POPC   C2B13340  14.837  11.052   8.394
  651POPC   C3B13341  14.686  10.984   7.993
  651POPC   C4B13342  14.670  11.107   7.572
  652POPC   NC313343  42.031  40.159   9.543
  652POPC   PO413344  41.524  39.863   9.462
  652POPC   GL113345  41.689  40.108   9.150
  652POPC   GL213346  41.950  39.871   9.095
  652POPC   C1A13347  41.426  40.222   8.796
  652POPC   D2A13348  41.317  39.880   8.517
  652POPC   C3A13349  41.471  39.885   8.104
  652POPC   C4A13350  41.342  39.811   7.692
  652POPC   C1B13351  41.830  39.913   8.663
  652POPC   C2B13352  41.993  39.946   8.234
  652POPC   C3B13353  41.892  39.940   7.779
  652POPC   C4B13354  41.612  40.255   7.616
  653POPC   NC313355   8.646  37.520   9.578
  653POPC   PO413356   9.226  37.980   9.441
  653POPC   GL113357   8.940  37.736   9.184
  653POPC   GL213358   8.804  38.033   9.080
  653POPC   C1A13359   8.666  37.651   8.788
  653POPC   D2A13360   8.459  37.577   8.375
  653POPC   C3A13361   8.779  37.547   8.025
  653POPC   C4A13362   9.122  37.358   7.774
  653POPC   C1B13363   9.132  37.939   8.737
  653POPC   C2B13364   9.085  37.889   8.271
  653POPC   C3B13365   9.108  37.859   7.794
  653POPC   C4B13366   9.164  37.785   7.346
  654POPC   NC313367  12.548   1.842   9.537
  654POPC   PO413368  13.034   2.269   9.497
  654POPC   GL113369  12.802   2.065   9.141
  654POPC   GL213370  12.580   2.320   8.991
  654POPC   C1A13371  12.920   1.682   8.873
  654POPC   D2A13372  13.019   1.594   8.444
  654POPC   C3A13373  12.780   1.809   8.133
  654POPC   C4A13374  12.948   1.853   7.747
  654POPC   C1B13375  12.778   2.084   8.607
  654POPC   C2B13376  13.016   2.239   8.253
  654POPC   C3B13377  13.188   2.335   7.858
  654POPC   C4B13378  13.239   2.152   7.462
  655POPC   NC313379  30.237  41.560   9.591
  655POPC   PO413380  29.674  41.243   9.728
  655POPC   GL113381  29.736  41.517   9.289
  655POPC   GL213382  30.072  41.696   9.147
  655POPC   C1A13383  29.731  41.636   8.806
  655POPC   D2A13384  29.968  41.737   8.391
  655POPC   C3A13385  29.873  41.629   7.943
  655POPC   C4A13386  29.870  41.625   7.481
  655POPC   C1B13387  30.100  41.287   9.008
  655POPC   C2B13388  30.103  41.263   8.589
  655POPC   C3B13389  30.139  41.268   8.175
  655POPC   C4B13390  30.181  41.246   7.761
  656POPC   NC313391   8.279  26.937   9.400
  656POPC   PO413392   7.793  26.467   9.532
  656POPC   GL113393   8.042  26.563   9.158
  656POPC   GL213394   8.390  26.654   9.021
  656POPC   C1A13395   8.001  26.847   8.764
  656POPC   D2A13396   8.216  27.010   8.389
  656POPC   C3A13397   8.085  26.850   7.989
  656POPC   C4A13398   7.760  26.629   7.824
  656POPC   C1B13399   8.516  27.041   8.807
  656POPC   C2B13400   8.738  27.152   8.421
  656POPC   C3B13401   8.564  27.059   8.024
  656POPC   C4B13402   8.559  26.629   7.919
  657POPC   NC313403  41.868  39.483   9.457
  657POPC   PO413404  41.436  39.034   9.468
  657POPC   GL113405  41.578  39.158   9.112
  657POPC   GL213406  41.912  39.110   9.099
  657POPC   C1A13407  41.580  39.483   8.812
  657POPC   D2A13408  41.714  39.498   8.385
  657POPC   C3A13409  41.542  39.209   8.109
  657POPC   C4A13410  41.645  39.419   7.731
  657POPC   C1B13411  41.948  38.800   8.811
  657POPC   C2B13412  41.784  38.816   8.387
  657POPC   C3B13413  41.971  38.993   8.003
  657POPC   C4B13414  41.960  39.047   7.607
  658POPC   NC313415  19.345  26.620   9.604
  658POPC   PO413416  18.762  27.059   9.667
  658POPC   GL113417  18.935  26.764   9.315
  658POPC   GL213418  19.269  26.828   9.153
  658POPC   C1A13419  18.901  26.798   8.828
  658POPC   D2A13420  19.121  26.754   8.433
  658POPC   C3A13421  18.818  26.886   8.114
  658POPC   C4A13422  18.718  26.734   7.721
  658POPC   C1B13423  19.319  27.107   8.800
  658POPC   C2B13424  19.506  27.244   8.425
  658POPC   C3B13425  19.334  27.068   8.078
  658POPC   C4B13426  19.209  26.694   7.846
  659POPC   NC313427  29.529  19.420   9.349
  659POPC   PO413428  29.409  20.073   9.450
  659POPC   GL113429  29.140  19.988   9.143
  659POPC   GL213430  29.088  20.319   9.078
  659POPC   C1A13431  28.924  19.901   8.772
  659POPC   D2A13432  29.123  19.862   8.386
  659POPC   C3A13433  29.024  20.111   8.049
  659POPC   C4A13434  28.771  19.850   7.806
  659POPC   C1B13435  29.352  20.210   8.697
  659POPC   C2B13436  29.541  20.123   8.276
  659POPC   C3B13437  29.489  20.071   7.829
  659POPC   C4B13438  29.234  20.018   7.471
  660POPC   NC313439  37.767  24.033   9.279
  660POPC   PO413440  37.203  23.651   9.434
  660POPC   GL113441  37.338  23.807   9.081
  660POPC   GL213442  37.608  23.557   9.112
  660POPC   C1A13443  37.540  23.836   8.686
  660POPC   D2A13444  37.377  23.907   8.326
  660POPC   C3A13445  37.602  23.752   8.017
  660POPC   C4A13446  37.457  23.862   7.680
  660POPC   C1B13447  37.770  23.363   8.764
  660POPC   C2B13448  37.912  23.462   8.361
  660POPC   C3B13449  37.822  23.291   7.986
  660POPC   C4B13450  37.936  23.401   7.588
  661POPC   NC313451  33.743  24.493   9.566
  661POPC   PO413452  34.335  24.394   9.531
  661POPC   GL113453  34.076  24.376   9.148
  661POPC   GL213454  33.707  24.308   9.081
  661POPC   C1A13455  34.070  24.240   8.722
  661POPC   D2A13456  34.135  23.974   8.383
  661POPC   C3A13457  34.147  24.207   8.006
  661POPC   C4A13458  34.022  24.216   7.571
  661POPC   C1B13459  33.503  24.150   8.705
  661POPC   C2B13460  33.675  24.180   8.293
  661POPC   C3B13461  33.644  24.356   7.870
  661POPC   C4B13462  33.505  24.743   7.636
  662POPC   NC313463   5.484   3.122   9.518
  662POPC   PO413464   4.901   2.694   9.569
  662POPC   GL113465   5.061   2.935   9.245
  662POPC   GL213466   5.305   2.749   9.202
  662POPC   C1A13467   5.163   2.983   8.772
  662POPC   D2A13468   5.254   2.707   8.408
  662POPC   C3A13469   5.200   2.937   8.003
  662POPC   C4A13470   5.322   2.934   7.560
  662POPC   C1B13471   5.126   2.481   8.887
  662POPC   C2B13472   4.828   2.385   8.531
  662POPC   C3B13473   4.897   2.475   8.096
  662POPC   C4B13474   5.153   2.486   7.719
  663POPC   NC313475   2.373   3.815   9.550
  663POPC   PO413476   1.699   3.835   9.571
  663POPC   GL113477   1.928   3.718   9.194
  663POPC   GL213478   2.221   3.951   9.098
  663POPC   C1A13479   1.802   3.416   8.862
  663POPC   D2A13480   1.816   3.191   8.467
  663POPC   C3A13481   2.045   3.261   8.079
  663POPC   C4A13482   2.176   3.123   7.645
  663POPC   C1B13483   2.210   3.681   8.758
  663POPC   C2B13484   2.002   3.693   8.388
  663POPC   C3B13485   2.017   3.784   7.983
  663POPC   C4B13486   1.912   3.548   7.679
  664POPC   NC313487  21.612   5.680   9.452
  664POPC   PO413488  21.227   5.076   9.634
  664POPC   GL113489  21.385   5.232   9.234
  664POPC   GL213490  21.652   5.014   9.123
  664POPC   C1A13491  21.195   5.249   8.798
  664POPC   D2A13492  21.129   5.336   8.326
  664POPC   C3A13493  21.233   4.993   8.000
  664POPC   C4A13494  21.084   4.969   7.548
  664POPC   C1B13495  21.700   5.198   8.698
  664POPC   C2B13496  21.619   5.232   8.272
  664POPC   C3B13497  21.803   5.226   7.895
  664POPC   C4B13498  21.614   4.926   7.639
  665POPC   NC313499  21.603  39.520   9.577
  665POPC   PO413500  20.988  39.170   9.552
  665POPC   GL113501  21.248  39.371   9.195
  665POPC   GL213502  21.633  39.474   9.087
  665POPC   C1A13503  21.240  39.555   8.770
  665POPC   D2A13504  21.330  39.364   8.381
  665POPC   C3A13505  21.573  39.347   8.026
  665POPC   C4A13506  21.426  39.276   7.632
  665POPC   C1B13507  21.519  39.122   8.848
  665POPC   C2B13508  21.513  38.917   8.478
  665POPC   C3B13509  21.748  38.878   8.077
  665POPC   C4B13510  21.849  38.989   7.665
  666POPC   NC313511  20.745   7.710   9.504
  666POPC   PO413512  20.520   7.041   9.544
  666POPC   GL113513  20.603   7.199   9.147
  666POPC   GL213514  20.463   7.539   9.118
  666POPC   C1A13515  20.442   7.207   8.717
  666POPC   D2A13516  20.334   7.479   8.346
  666POPC   C3A13517  20.468   7.211   8.005
  666POPC   C4A13518  20.884   7.145   7.827
  666POPC   C1B13519  20.676   7.666   8.728
  666POPC   C2B13520  20.846   7.432   8.379
  666POPC   C3B13521  20.864   7.628   8.011
  666POPC   C4B13522  20.568   7.906   7.814
  667POPC   NC313523  10.556  36.526   9.558
  667POPC   PO413524  10.485  37.187   9.508
  667POPC   GL113525  10.393  37.060   9.099
  667POPC   GL213526  10.322  36.738   9.113
  667POPC   C1A13527  10.224  37.217   8.722
  667POPC   D2A13528  10.456  37.252   8.369
  667POPC   C3A13529  10.294  37.185   7.991
  667POPC   C4A13530  10.614  36.905   7.825
  667POPC   C1B13531  10.482  36.767   8.678
  667POPC   C2B13532  10.334  36.741   8.255
  667POPC   C3B13533  10.261  36.548   7.868
  667POPC   C4B13534  10.647  36.403   7.723
  668POPC   NC313535  21.421  25.472   9.384
  668POPC   PO413536  21.227  24.937   9.549
  668POPC   GL113537  21.121  25.109   9.166
  668POPC   GL213538  21.471  25.071   9.083
  668POPC   C1A13539  21.172  25.266   8.730
  668POPC   D2A13540  21.339  25.176   8.332
  668POPC   C3A13541  21.199  25.341   7.954
  668POPC   C4A13542  21.544  25.537   7.784
  668POPC   C1B13543  21.586  24.914   8.709
  668POPC   C2B13544  21.552  24.698   8.331
  668POPC   C3B13545  21.593  24.936   7.933
  668POPC   C4B13546  21.694  25.108   7.548
  669POPC   NC313547   0.750  13.414   9.516
  669POPC   PO413548   1.466  13.514   9.623
  669POPC   GL113549   1.486  13.598   9.220
  669POPC   GL213550   1.124  13.609   9.192
  669POPC   C1A13551   1.457  13.804   8.849
  669POPC   D2A13552   1.332  13.779   8.435
  669POPC   C3A13553   1.509  13.601   8.086
  669POPC   C4A13554   1.444  13.738   7.677
  669POPC   C1B13555   0.942  13.774   8.799
  669POPC   C2B13556   0.844  13.690   8.387
  669POPC   C3B13557   1.013  13.803   7.992
  669POPC   C4B13558   1.019  13.971   7.575
  670POPC   NC313559   5.474  23.402   9.918
  670POPC   PO413560   5.885  22.923   9.703
  670POPC   GL113561   5.935  23.056   9.290
  670POPC   GL213562   5.829  22.764   9.183
  670POPC   C1A13563   6.058  23.090   8.834
  670POPC   D2A13564   6.119  22.915   8.424
  670POPC   C3A13565   6.168  23.123   8.037
  670POPC   C4A13566   6.161  23.016   7.602
  670POPC   C1B13567   5.614  22.808   8.811
  670POPC   C2B13568   5.661  22.713   8.394
  670POPC   C3B13569   5.709  22.909   7.992
  670POPC   C4B13570   5.632  22.560   7.699
  671POPC   NC313571  18.505  13.448   9.555
  671POPC   PO413572  17.870  13.796   9.539
  671POPC   GL113573  18.130  13.599   9.179
  671POPC   GL213574  18.503  13.705   9.106
  671POPC   C1A13575  18.233  13.453   8.758
  671POPC   D2A13576  18.403  13.628   8.382
  671POPC   C3A13577  18.211  13.505   8.020
  671POPC   C4A13578  18.247  13.580   7.601
  671POPC   C1B13579  18.733  13.459   8.751
  671POPC   C2B13580  18.841  13.380   8.301
  671POPC   C3B13581  18.672  13.363   7.864
  671POPC   C4B13582  18.721  13.536   7.410
  672POPC   NC313583  20.459  43.273   9.497
  672POPC   PO413584  21.134  43.194   9.254
  672POPC   GL113585  20.717  42.977   9.183
  672POPC   GL213586  20.525  43.205   9.004
  672POPC   C1A13587  20.549  42.710   8.841
  672POPC   D2A13588  20.549  42.710   8.421
  672POPC   C3A13589  20.600  43.103   8.205
  672POPC   C4A13590  20.728  43.096   7.779
  672POPC   C1B13591  20.175  43.381   8.831
  672POPC   C2B13592  20.179  43.401   8.403
  672POPC   C3B13593  20.208  43.494   7.971
  672POPC   C4B13594  20.378  43.391   7.566
  673POPC   NC313595  37.296  10.587   9.443
  673POPC   PO413596  37.938  10.292   9.450
  673POPC   GL113597  37.730  10.598   9.138
  673POPC   GL213598  37.579  10.942   9.171
  673POPC   C1A13599  37.490  10.658   8.754
  673POPC   D2A13600  37.395  10.438   8.385
  673POPC   C3A13601  37.670  10.576   8.081
  673POPC   C4A13602  37.431  10.557   7.718
  673POPC   C1B13603  37.878  11.023   8.808
  673POPC   C2B13604  38.145  11.018   8.413
  673POPC   C3B13605  38.104  10.971   7.971
  673POPC   C4B13606  37.885  10.772   7.645
  674POPC   NC313607  17.470  25.938   9.548
  674POPC   PO413608  17.298  26.564   9.704
  674POPC   GL113609  17.494  26.409   9.293
  674POPC   GL213610  17.239  26.229   9.166
  674POPC   C1A13611  17.679  26.116   8.916
  674POPC   D2A13612  17.840  25.782   8.577
  674POPC   C3A13613  17.775  25.839   8.103
  674POPC   C4A13614  17.594  26.120   7.776
  674POPC   C1B13615  17.237  25.865   8.845
  674POPC   C2B13616  17.323  25.792   8.371
  674POPC   C3B13617  17.269  25.747   7.882
  674POPC   C4B13618  17.284  25.908   7.407
  675POPC   NC313619  36.448  41.103   9.446
  675POPC   PO413620  37.114  41.462   9.544
  675POPC   GL113621  37.036  41.595   9.151
  675POPC   GL213622  36.692  41.519   9.194
  675POPC   C1A13623  36.919  41.677   8.733
  675POPC   D2A13624  36.602  41.620   8.419
  675POPC   C3A13625  36.800  41.834   8.133
  675POPC   C4A13626  36.915  41.816   7.762
  675POPC   C1B13627  36.685  41.251   8.843
  675POPC   C2B13628  36.607  41.090   8.415
  675POPC   C3B13629  36.682  41.228   7.959
  675POPC   C4B13630  36.651  41.190   7.455
  676POPC   NC313631  18.854  11.132   9.970
  676POPC   PO413632  18.992  10.942   9.328
  676POPC   GL113633  19.023  11.332   9.134
  676POPC   GL213634  18.742  11.571   9.253
  676POPC   C1A13635  19.310  11.394   8.784
  676POPC   D2A13636  19.282  11.556   8.354
  676POPC   C3A13637  19.353  11.323   8.002
  676POPC   C4A13638  19.098  10.984   7.854
  676POPC   C1B13639  18.864  11.695   8.825
  676POPC   C2B13640  18.731  11.458   8.467
  676POPC   C3B13641  18.836  11.456   8.052
  676POPC   C4B13642  18.984  11.431   7.662
  677POPC   NC313643   2.124  36.524   9.452
  677POPC   PO413644   1.737  37.135   9.502
  677POPC   GL113645   1.979  36.944   9.183
  677POPC   GL213646   2.340  36.969   9.212
  677POPC   C1A13647   1.950  36.775   8.777
  677POPC   D2A13648   1.959  36.973   8.394
  677POPC   C3A13649   1.924  36.763   8.055
  677POPC   C4A13650   1.766  36.871   7.694
  677POPC   C1B13651   2.441  36.660   8.844
  677POPC   C2B13652   2.272  36.549   8.405
  677POPC   C3B13653   2.415  36.634   7.981
  677POPC   C4B13654   2.267  36.987   7.727
  678POPC   NC313655   7.891  23.803   9.461
  678POPC   PO413656   7.319  23.845   9.674
  678POPC   GL113657   7.398  23.591   9.265
  678POPC   GL213658   7.724  23.497   9.093
  678POPC   C1A13659   7.235  23.539   8.832
  678POPC   D2A13660   7.319  23.588   8.382
  678POPC   C3A13661   7.041  23.657   8.003
  678POPC   C4A13662   7.042  23.416   7.607
  678POPC   C1B13663   7.703  23.862   8.848
  678POPC   C2B13664   7.666  23.976   8.416
  678POPC   C3B13665   7.571  23.823   7.993
  678POPC   C4B13666   7.772  23.896   7.601
  679POPC   NC313667  32.600   7.068   9.452
  679POPC   PO413668  31.871   7.264   9.522
  679POPC   GL113669  32.207   7.285   9.204
  679POPC   GL213670  32.380   7.613   9.202
  679POPC   C1A13671  32.221   7.380   8.772
  679POPC   D2A13672  32.343   7.329   8.364
  679POPC   C3A13673  31.964   7.382   8.133
  679POPC   C4A13674  31.979   7.426   7.714
  679POPC   C1B13675  32.597   7.746   8.790
  679POPC   C2B13676  32.705   7.914   8.379
  679POPC   C3B13677  32.475   7.717   8.018
  679POPC   C4B13678  32.465   7.508   7.605
  680POPC   NC313679  40.691   9.680   9.679
  680POPC   PO413680  40.626   9.078   9.711
  680POPC   GL113681  40.686   9.158   9.269
  680POPC   GL213682  40.856   9.476   9.234
  680POPC   C1A13683  40.705   9.126   8.802
  680POPC   D2A13684  40.921   9.115   8.400
  680POPC   C3A13685  40.712   9.247   8.014
  680POPC   C4A13686  40.713   9.194   7.539
  680POPC   C1B13687  41.072   9.533   8.842
  680POPC   C2B13688  41.275   9.504   8.436
  680POPC   C3B13689  41.241   9.291   8.010
  680POPC   C4B13690  41.518   9.137   7.648
  681POPC   NC313691  13.430  19.083   9.529
  681POPC   PO413692  14.031  18.808   9.409
  681POPC   GL113693  13.797  19.020   9.097
  681POPC   GL213694  13.465  18.893   9.060
  681POPC   C1A13695  13.739  19.037   8.643
  681POPC   D2A13696  13.767  19.273   8.287
  681POPC   C3A13697  14.094  19.160   7.983
  681POPC   C4A13698  14.121  18.899   7.626
  681POPC   C1B13699  13.367  19.309   8.835
  681POPC   C2B13700  13.278  19.460   8.413
  681POPC   C3B13701  13.317  19.195   8.053
  681POPC   C4B13702  13.634  18.978   7.875
  682POPC   NC313703  22.720  29.706   9.581
  682POPC   PO413704  22.692  30.288   9.906
  682POPC   GL113705  22.827  30.161   9.386
  682POPC   GL213706  23.110  29.928   9.280
  682POPC   C1A13707  22.749  29.858   8.951
  682POPC   D2A13708  22.960  29.851   8.556
  682POPC   C3A13709  22.857  30.016   8.144
  682POPC   C4A13710  22.946  29.780   7.791
  682POPC   C1B13711  23.046  30.267   8.915
  682POPC   C2B13712  23.097  30.355   8.486
  682POPC   C3B13713  23.247  30.376   8.083
  682POPC   C4B13714  23.106  30.261   7.723
  683POPC   NC313715  22.831  11.224   9.174
  683POPC   PO413716  23.259  11.672   9.209
  683POPC   GL113717  23.173  11.485   8.895
  683POPC   GL213718  23.351  11.189   9.002
  683POPC   C1A13719  22.911  11.390   8.552
  683POPC   D2A13720  23.015  11.463   8.162
  683POPC   C3A13721  22.797  11.254   7.852
  683POPC   C4A13722  22.863  11.239   7.433
  683POPC   C1B13723  23.336  11.139   8.570
  683POPC   C2B13724  23.234  10.997   8.177
  683POPC   C3B13725  23.337  11.231   7.814
  683POPC   C4B13726  23.352  11.031   7.412
  684POPC   NC313727  43.376  38.553   9.468
  684POPC   PO413728  42.780  38.257   9.469
  684POPC   GL113729  43.053  38.333   9.132
  684POPC   GL213730  43.073  38.682   9.073
  684POPC   C1A13731  43.305  38.388   8.739
  684POPC   D2A13732  43.184  38.679   8.403
  684POPC   C3A13733  43.048  38.423   8.030
  684POPC   C4A13734  43.310  38.275   7.676
  684POPC   C1B13735  42.969  39.024   8.828
  684POPC   C2B13736  42.834  39.106   8.423
  684POPC   C3B13737  42.943  38.942   7.997
  684POPC   C4B13738  43.023  38.725   7.597
  685POPC   NC313739   9.491   7.490   9.474
  685POPC   PO413740  10.025   7.685   9.221
  685POPC   GL113741   9.839   7.396   8.973
  685POPC   GL213742   9.706   7.109   9.174
  685POPC   C1A13743   9.867   7.395   8.566
  685POPC   D2A13744   9.536   7.485   8.334
  685POPC   C3A13745   9.464   7.286   7.951
  685POPC   C4A13746   9.603   7.319   7.543
  685POPC   C1B13747   9.775   6.921   8.760
  685POPC   C2B13748   9.687   6.974   8.313
  685POPC   C3B13749   9.886   6.977   7.890
  685POPC   C4B13750   9.965   6.978   7.414
  686POPC   NC313751  41.465  30.403   9.363
  686POPC   PO413752  41.706  30.965   9.560
  686POPC   GL113753  41.760  30.788   9.157
  686POPC   GL213754  41.816  30.456   9.003
  686POPC   C1A13755  41.489  30.796   8.821
  686POPC   D2A13756  41.492  30.965   8.454
  686POPC   C3A13757  41.252  30.910   8.084
  686POPC   C4A13758  41.520  31.038   7.744
  686POPC   C1B13759  41.478  30.309   8.709
  686POPC   C2B13760  41.367  30.477   8.340
  686POPC   C3B13761  41.588  30.538   8.018
  686POPC   C4B13762  41.493  30.540   7.628
  687POPC   NC313763   7.304  18.678   9.512
  687POPC   PO413764   7.604  19.099   9.300
  687POPC   GL113765   7.387  18.802   8.984
  687POPC   GL213766   7.249  18.450   9.057
  687POPC   C1A13767   7.345  18.582   8.568
  687POPC   D2A13768   7.417  18.235   8.264
  687POPC   C3A13769   7.627  18.347   7.868
  687POPC   C4A13770   7.717  18.303   7.404
  687POPC   C1B13771   6.982  18.258   8.729
  687POPC   C2B13772   6.932  18.408   8.284
  687POPC   C3B13773   7.099  18.333   7.838
  687POPC   C4B13774   7.043  18.260   7.372
  688POPC   NC313775   6.510  41.324   9.324
  688POPC   PO413776   7.124  41.571   9.334
  688POPC   GL113777   6.850  41.559   9.035
  688POPC   GL213778   6.986  41.343   8.809
  688POPC   C1A13779   6.543  41.562   8.697
  688POPC   D2A13780   6.545  41.692   8.294
  688POPC   C3A13781   6.629  41.379   7.966
  688POPC   C4A13782   6.393  41.353   7.580
  688POPC   C1B13783   7.020  41.739   8.592
  688POPC   C2B13784   7.032  41.804   8.144
  688POPC   C3B13785   7.109  41.974   7.737
  688POPC   C4B13786   7.187  41.899   7.326
  689POPC   NC313787   1.459  32.818   9.212
  689POPC   PO413788   1.939  32.990   9.642
  689POPC   GL113789   2.024  33.134   9.211
  689POPC   GL213790   1.716  33.295   9.236
  689POPC   C1A13791   2.248  33.063   8.784
  689POPC   D2A13792   2.055  32.967   8.345
  689POPC   C3A13793   2.190  32.916   7.918
  689POPC   C4A13794   2.013  32.704   7.512
  689POPC   C1B13795   1.832  33.353   8.788
  689POPC   C2B13796   1.703  33.320   8.339
  689POPC   C3B13797   1.891  33.329   7.938
  689POPC   C4B13798   1.887  33.529   7.537
  690POPC   NC313799  32.341  21.359   9.684
  690POPC   PO413800  31.740  21.591   9.663
  690POPC   GL113801  32.049  21.655   9.322
  690POPC   GL213802  32.224  21.332   9.196
  690POPC   C1A13803  31.973  21.604   8.866
  690POPC   D2A13804  32.203  21.710   8.487
  690POPC   C3A13805  32.068  21.519   8.068
  690POPC   C4A13806  32.146  21.331   7.667
  690POPC   C1B13807  32.372  21.286   8.773
  690POPC   C2B13808  32.409  21.271   8.348
  690POPC   C3B13809  32.564  21.285   7.942
  690POPC   C4B13810  32.765  21.117   7.585
  691POPC   NC313811   0.736  34.612   9.500
  691POPC   PO413812   0.587  33.976   9.398
  691POPC   GL113813   0.330  34.326   9.191
  691POPC   GL213814   0.277  34.708   9.211
  691POPC   C1A13815   0.461  34.474   8.788
  691POPC   D2A13816   0.637  34.558   8.400
  691POPC   C3A13817   0.634  34.239   8.101
  691POPC   C4A13818   0.498  34.345   7.703
  691POPC   C1B13819   0.371  34.977   8.817
  691POPC   C2B13820   0.480  35.063   8.353
  691POPC   C3B13821   0.399  34.743   7.998
  691POPC   C4B13822   0.286  34.778   7.535
  692POPC   NC313823  27.253  19.842   9.405
  692POPC   PO413824  26.697  20.074   9.734
  692POPC   GL113825  26.794  20.030   9.277
  692POPC   GL213826  26.820  19.667   9.143
  692POPC   C1A13827  26.912  20.040   8.819
  692POPC   D2A13828  26.689  19.820   8.492
  692POPC   C3A13829  26.799  20.022   8.122
  692POPC   C4A13830  26.893  20.014   7.708
  692POPC   C1B13831  27.003  19.488   8.738
  692POPC   C2B13832  26.911  19.352   8.325
  692POPC   C3B13833  26.619  19.557   8.021
  692POPC   C4B13834  26.682  19.551   7.552
  693POPC   NC313835  27.844  23.173   9.424
  693POPC   PO413836  27.205  22.829   9.439
  693POPC   GL113837  27.524  22.684   9.141
  693POPC   GL213838  27.883  22.619   9.287
  693POPC   C1A13839  27.562  22.901   8.712
  693POPC   D2A13840  27.733  23.126   8.298
  693POPC   C3A13841  27.481  23.040   7.900
  693POPC   C4A13842  27.309  23.026   7.478
  693POPC   C1B13843  28.023  22.719   8.858
  693POPC   C2B13844  27.883  22.640   8.416
  693POPC   C3B13845  27.899  22.732   7.969
  693POPC   C4B13846  27.692  22.657   7.557
  694POPC   NC313847  16.013   6.123   9.535
  694POPC   PO413848  15.699   5.566   9.528
  694POPC   GL113849  15.774   5.797   9.181
  694POPC   GL213850  16.120   5.779   9.164
  694POPC   C1A13851  15.871   5.826   8.752
  694POPC   D2A13852  15.821   6.070   8.429
  694POPC   C3A13853  15.962   5.813   8.102
  694POPC   C4A13854  15.708   5.682   7.771
  694POPC   C1B13855  16.288   5.530   8.860
  694POPC   C2B13856  16.354   5.613   8.440
  694POPC   C3B13857  16.402   5.476   8.023
  694POPC   C4B13858  16.245   5.696   7.686
  695POPC   NC313859  16.810  24.012   9.533
  695POPC   PO413860  16.519  23.391   9.647
  695POPC   GL113861  16.572  23.640   9.229
  695POPC   GL213862  16.806  23.860   9.058
  695POPC   C1A13863  16.430  23.696   8.784
  695POPC   D2A13864  16.678  23.804   8.427
  695POPC   C3A13865  16.517  23.712   8.026
  695POPC   C4A13866  16.583  23.930   7.628
  695POPC   C1B13867  17.027  24.122   8.776
  695POPC   C2B13868  17.127  24.042   8.333
  695POPC   C3B13869  16.995  23.888   7.940
  695POPC   C4B13870  17.085  24.065   7.532
  696POPC   NC313871   7.038   9.178   9.583
  696POPC   PO413872   6.460   8.888   9.578
  696POPC   GL113873   6.404   9.068   9.170
  696POPC   GL213874   6.777   9.033   9.157
  696POPC   C1A13875   6.550   9.268   8.781
  696POPC   D2A13876   6.726   9.192   8.387
  696POPC   C3A13877   6.582   9.345   8.006
  696POPC   C4A13878   6.372   8.997   7.780
  696POPC   C1B13879   7.033   9.156   8.804
  696POPC   C2B13880   7.255   9.209   8.421
  696POPC   C3B13881   7.126   9.266   8.017
  696POPC   C4B13882   6.880   9.055   7.696
  697POPC   NC313883  26.421   9.514   9.215
  697POPC   PO413884  26.872   9.293   9.626
  697POPC   GL113885  26.961   9.513   9.126
  697POPC   GL213886  27.061   9.858   9.036
  697POPC   C1A13887  26.783   9.596   8.686
  697POPC   D2A13888  26.889   9.595   8.241
  697POPC   C3A13889  26.564   9.642   7.931
  697POPC   C4A13890  26.424   9.896   7.583
  697POPC   C1B13891  26.911  10.076   8.682
  697POPC   C2B13892  26.794  10.118   8.251
  697POPC   C3B13893  26.951   9.953   7.877
  697POPC   C4B13894  26.947  10.014   7.451
  698POPC   NC313895  25.058  23.212   9.451
  698POPC   PO413896  25.065  22.560   9.453
  698POPC   GL113897  25.061  22.822   9.094
  698POPC   GL213898  24.826  23.067   9.009
  698POPC   C1A13899  25.235  22.843   8.695
  698POPC   D2A13900  25.501  22.714   8.346
  698POPC   C3A13901  25.294  22.692   7.944
  698POPC   C4A13902  25.036  22.546   7.598
  698POPC   C1B13903  24.910  23.249   8.616
  698POPC   C2B13904  25.084  23.074   8.237
  698POPC   C3B13905  24.955  23.047   7.791
  698POPC   C4B13906  25.005  23.247   7.418
  699POPC   NC313907  23.199  14.112   9.513
  699POPC   PO413908  22.674  14.503   9.588
  699POPC   GL113909  22.841  14.554   9.144
  699POPC   GL213910  23.164  14.379   9.052
  699POPC   C1A13911  22.741  14.583   8.678
  699POPC   D2A13912  22.747  14.319   8.287
  699POPC   C3A13913  22.817  14.390   7.816
  699POPC   C4A13914  22.706  14.605   7.396
  699POPC   C1B13915  23.029  14.154   8.691
  699POPC   C2B13916  23.146  14.000   8.272
  699POPC   C3B13917  22.959  13.882   7.864
  699POPC   C4B13918  22.994  13.835   7.392
  700POPC   NC313919  36.476   1.643   9.542
  700POPC   PO413920  35.957   2.129   9.394
  700POPC   GL113921  36.211   1.900   9.108
  700POPC   GL213922  36.031   1.612   9.208
  700POPC   C1A13923  36.154   1.908   8.640
  700POPC   D2A13924  35.827   1.789   8.324
  700POPC   C3A13925  35.905   1.827   7.892
  700POPC   C4A13926  36.219   2.128   7.761
  700POPC   C1B13927  36.158   1.430   8.840
  700POPC   C2B13928  36.368   1.456   8.460
  700POPC   C3B13929  36.333   1.727   8.130
  700POPC   C4B13930  36.419   1.652   7.705
  701POPC   NC313931  18.302  33.137   9.510
  701POPC   PO413932  18.650  32.694   9.179
  701POPC   GL113933  18.464  33.070   9.031
  701POPC   GL213934  18.067  33.072   9.063
  701POPC   C1A13935  18.581  33.142   8.629
  701POPC   D2A13936  18.489  32.825   8.331
  701POPC   C3A13937  18.367  33.053   7.955
  701POPC   C4A13938  18.418  32.976   7.519
  701POPC   C1B13939  18.086  33.016   8.626
  701POPC   C2B13940  17.885  33.222   8.278
  701POPC   C3B13941  17.855  33.108   7.837
  701POPC   C4B13942  17.947  33.104   7.388
  702POPC   NC313943  17.075   2.018   9.458
  702POPC   PO413944  16.449   1.873   9.463
  702POPC   GL113945  16.689   2.027   9.116
  702POPC   GL213946  16.817   2.366   9.138
  702POPC   C1A13947  16.853   1.788   8.783
  702POPC   D2A13948  16.892   1.537   8.403
  702POPC   C3A13949  16.955   1.827   8.057
  702POPC   C4A13950  16.720   1.878   7.684
  702POPC   C1B13951  16.591   2.367   8.724
  702POPC   C2B13952  16.745   2.274   8.291
  702POPC   C3B13953  16.565   2.319   7.877
  702POPC   C4B13954  16.747   2.294   7.403
  703POPC   NC313955  38.668  38.849   9.450
  703POPC   PO413956  38.286  38.412   9.741
  703POPC   GL113957  38.341  38.490   9.255
  703POPC   GL213958  38.642  38.559   9.010
  703POPC   C1A13959  38.215  38.478   8.795
  703POPC   D2A13960  38.389  38.513   8.412
  703POPC   C3A13961  38.162  38.608   8.054
  703POPC   C4A13962  38.283  38.461   7.655
  703POPC   C1B13963  38.784  38.239   8.748
  703POPC   C2B13964  38.802  38.231   8.321
  703POPC   C3B13965  38.715  38.435   7.959
  703POPC   C4B13966  38.701  38.136   7.659
  704POPC   NC313967  23.011  11.604   9.589
  704POPC   PO413968  22.953  12.318   9.495
  704POPC   GL113969  23.014  12.089   9.105
  704POPC   GL213970  22.780  11.763   9.128
  704POPC   C1A13971  22.939  12.007   8.673
  704POPC   D2A13972  23.176  12.217   8.322
  704POPC   C3A13973  22.922  12.124   8.011
  704POPC   C4A13974  22.897  12.163   7.586
  704POPC   C1B13975  22.556  11.679   8.772
  704POPC   C2B13976  22.613  11.757   8.358
  704POPC   C3B13977  22.618  11.723   7.955
  704POPC   C4B13978  22.991  11.692   7.703
  705POPC   NC313979  15.329   5.276   9.510
  705POPC   PO413980  14.885   4.806   9.695
  705POPC   GL113981  14.932   4.970   9.205
  705POPC   GL213982  15.201   5.203   9.042
  705POPC   C1A13983  15.016   4.873   8.733
  705POPC   D2A13984  15.295   5.118   8.471
  705POPC   C3A13985  15.229   4.933   8.097
  705POPC   C4A13986  14.905   4.997   7.814
  705POPC   C1B13987  15.471   5.489   8.826
  705POPC   C2B13988  15.617   5.561   8.420
  705POPC   C3B13989  15.633   5.291   8.103
  705POPC   C4B13990  15.381   5.276   7.762
  706POPC   NC313991  42.409  35.385   9.526
  706POPC   PO413992  41.954  34.903   9.457
  706POPC   GL113993  42.179  35.152   9.116
  706POPC   GL213994  42.289  35.529   9.063
  706POPC   C1A13995  42.439  35.184   8.736
  706POPC   D2A13996  42.259  35.255   8.358
  706POPC   C3A13997  42.435  35.380   7.970
  706POPC   C4A13998  42.193  35.211   7.683
  706POPC   C1B13999  42.209  35.730   8.665
  706POPC   C2B14000  41.982  35.652   8.241
  706POPC   C3B14001  42.020  35.689   7.762
  706POPC   C4B14002  42.103  35.578   7.327
  707POPC   NC314003  11.019   4.540   9.494
  707POPC   PO414004  11.508   4.038   9.524
  707POPC   GL114005  11.363   4.268   9.209
  707POPC   GL214006  11.609   4.547   9.243
  707POPC   C1A14007  11.144   4.264   8.800
  707POPC   D2A14008  11.035   4.349   8.362
  707POPC   C3A14009  11.123   4.120   7.987
  707POPC   C4A14010  11.090   4.365   7.598
  707POPC   C1B14011  11.657   4.361   8.805
  707POPC   C2B14012  11.509   4.105   8.450
  707POPC   C3B14013  11.637   4.204   8.038
  707POPC   C4B14014  11.810   4.584   7.840
  708POPC   NC314015  12.287  43.257   9.477
  708POPC   PO414016  11.821  42.745   9.544
  708POPC   GL114017  12.041  42.878   9.166
  708POPC   GL214018  11.970  43.234   9.072
  708POPC   C1A14019  11.983  42.838   8.719
  708POPC   D2A14020  11.847  42.769   8.298
  708POPC   C3A14021  12.138  42.938   7.966
  708POPC   C4A14022  12.050  43.305   7.700
  708POPC   C1B14023  12.335  43.222   8.792
  708POPC   C2B14024  12.283  43.263   8.359
  708POPC   C3B14025  12.488  43.362   7.981
  708POPC   C4B14026  12.523  43.137   7.605
  709POPC   NC314027  20.379  18.801   9.549
  709POPC   PO414028  21.024  18.893   9.517
  709POPC   GL114029  20.711  19.099   9.220
  709POPC   GL214030  20.359  19.116   9.131
  709POPC   C1A14031  20.688  19.106   8.762
  709POPC   D2A14032  20.825  18.838   8.445
  709POPC   C3A14033  20.609  18.975   8.081
  709POPC   C4A14034  20.555  18.982   7.663
  709POPC   C1B14035  20.182  19.283   8.726
  709POPC   C2B14036  20.310  19.431   8.316
  709POPC   C3B14037  20.505  19.450   7.900
  709POPC   C4B14038  20.221  19.341   7.559
  710POPC   NC314039  43.127   0.952   9.634
  710POPC   PO414040  43.412   1.534   9.601
  710POPC   GL114041  43.253   1.442   9.191
  710POPC   GL214042  43.590   1.458   9.057
  710POPC   C1A14043  42.970   1.257   8.860
  710POPC   D2A14044  42.731   1.208   8.442
  710POPC   C3A14045  42.961   1.317   8.052
  710POPC   C4A14046  43.088   1.290   7.622
  710POPC   C1B14047  43.426   1.492   8.680
  710POPC   C2B14048  43.366   1.550   8.267
  710POPC   C3B14049  43.448   1.556   7.861
  710POPC   C4B14050  43.383   1.669   7.435
  711POPC   NC314051  24.926   7.217   9.505
  711POPC   PO414052  25.352   7.719   9.667
  711POPC   GL114053  25.332   7.629   9.179
  711POPC   GL214054  24.993   7.538   9.099
  711POPC   C1A14055  25.230   7.707   8.688
  711POPC   D2A14056  25.471   7.844   8.334
  711POPC   C3A14057  25.317   7.659   7.972
  711POPC   C4A14058  25.405   7.251   7.859
  711POPC   C1B14059  24.952   7.285   8.719
  711POPC   C2B14060  25.033   7.191   8.248
  711POPC   C3B14061  24.882   7.411   7.845
  711POPC   C4B14062  24.932   7.443   7.404
  712POPC   NC314063  19.954  15.757   9.521
  712POPC   PO414064  19.360  15.494   9.425
  712POPC   GL114065  19.629  15.791   9.102
  712POPC   GL214066  20.026  15.895   9.048
  712POPC   C1A14067  19.681  16.019   8.680
  712POPC   D2A14068  19.742  16.157   8.238
  712POPC   C3A14069  19.513  15.843   8.007
  712POPC   C4A14070  19.761  15.504   7.939
  712POPC   C1B14071  20.292  16.162   8.785
  712POPC   C2B14072  20.465  16.107   8.353
  712POPC   C3B14073  20.236  16.279   8.012
  712POPC   C4B14074  19.984  15.982   7.795
  713POPC   NC314075  38.604  44.390   9.497
  713POPC   PO414076  38.729   0.013   9.535
  713POPC   GL114077  38.519  44.746   9.140
  713POPC   GL214078  38.428  44.379   9.029
  713POPC   C1A14079  38.579  44.744   8.682
  713POPC   D2A14080  38.867  44.667   8.345
  713POPC   C3A14081  38.713  44.780   7.957
  713POPC   C4A14082  38.446   0.120   7.879
  713POPC   C1B14083  38.185  44.439   8.681
  713POPC   C2B14084  38.332  44.546   8.264
  713POPC   C3B14085  38.292  44.536   7.829
  713POPC   C4B14086  38.148  44.335   7.475
  714POPC   NC314087  21.842  42.535   9.796
  714POPC   PO414088  22.241  42.952   9.399
  714POPC   GL114089  22.101  43.056   8.991
  714POPC   GL214090  21.756  43.104   8.991
  714POPC   C1A14091  22.015  43.200   8.554
  714POPC   D2A14092  22.292  43.225   8.201
  714POPC   C3A14093  22.141  43.134   7.800
  714POPC   C4A14094  22.343  43.114   7.383
  714POPC   C1B14095  21.868  42.728   8.683
  714POPC   C2B14096  22.041  42.761   8.253
  714POPC   C3B14097  21.845  42.661   7.878
  714POPC   C4B14098  21.913  42.819   7.484
  715POPC   NC314099  16.792  10.217   9.530
  715POPC   PO414100  16.519  10.792   9.730
  715POPC   GL114101  16.628  10.677   9.293
  715POPC   GL214102  16.988  10.551   9.182
  715POPC   C1A14103  16.665  10.771   8.838
  715POPC   D2A14104  16.959  10.727   8.485
  715POPC   C3A14105  16.753  10.729   8.071
  715POPC   C4A14106  16.462  10.399   7.912
  715POPC   C1B14107  17.048  10.291   8.766
  715POPC   C2B14108  16.990  10.248   8.277
  715POPC   C3B14109  16.960  10.310   7.806
  715POPC   C4B14110  17.090  10.422   7.368
  716POPC   NC314111   5.907  31.987   9.375
  716POPC   PO414112   5.904  32.652   9.353
  716POPC   GL114113   5.828  32.377   9.044
  716POPC   GL214114   5.510  32.272   9.178
  716POPC   C1A14115   5.772  32.068   8.718
  716POPC   D2A14116   5.561  31.958   8.359
  716POPC   C3A14117   5.819  32.052   8.008
  716POPC   C4A14118   6.065  32.460   8.013
  716POPC   C1B14119   5.432  32.474   8.759
  716POPC   C2B14120   5.623  32.454   8.329
  716POPC   C3B14121   5.560  32.458   7.868
  716POPC   C4B14122   5.648  32.539   7.417
  717POPC   NC314123  24.293  24.157   9.541
  717POPC   PO414124  24.648  24.689   9.460
  717POPC   GL114125  24.452  24.497   9.161
  717POPC   GL214126  24.209  24.746   9.143
  717POPC   C1A14127  24.636  24.315   8.790
  717POPC   D2A14128  24.502  24.305   8.392
  717POPC   C3A14129  24.764  24.347   8.049
  717POPC   C4A14130  24.625  24.494   7.670
  717POPC   C1B14131  24.167  24.519   8.735
  717POPC   C2B14132  24.101  24.627   8.313
  717POPC   C3B14133  24.199  24.544   7.910
  717POPC   C4B14134  24.142  24.619   7.410
  718POPC   NC314135  27.924  21.631   9.518
  718POPC   PO414136  27.273  21.295   9.468
  718POPC   GL114137  27.663  21.283   9.227
  718POPC   GL214138  27.587  21.618   9.148
  718POPC   C1A14139  27.815  21.285   8.791
  718POPC   D2A14140  27.609  21.141   8.416
  718POPC   C3A14141  27.688  21.279   7.994
  718POPC   C4A14142  27.606  21.010   7.685
  718POPC   C1B14143  27.649  21.794   8.756
  718POPC   C2B14144  27.729  21.676   8.310
  718POPC   C3B14145  27.820  21.779   7.858
  718POPC   C4B14146  27.671  21.494   7.507
  719POPC   NC314147   0.766  14.414   9.485
  719POPC   PO414148   0.090  14.278   9.640
  719POPC   GL114149   0.206  14.176   9.173
  719POPC   GL214150   0.518  14.183   9.126
  719POPC   C1A14151   0.282  14.432   8.746
  719POPC   D2A14152   0.125  14.706   8.393
  719POPC   C3A14153   0.432  14.621   8.061
  719POPC   C4A14154   0.544  14.655   7.620
  719POPC   C1B14155   0.463  13.963   8.730
  719POPC   C2B14156   0.511  14.086   8.313
  719POPC   C3B14157   0.482  14.069   7.887
  719POPC   C4B14158   0.570  14.165   7.505
  720POPC   NC314159  14.484  27.238   9.339
  720POPC   PO414160  14.044  26.763   9.450
  720POPC   GL114161  14.389  26.605   9.219
  720POPC   GL214162  14.682  26.422   9.344
  720POPC   C1A14163  14.417  26.737   8.814
  720POPC   D2A14164  14.387  26.980   8.423
  720POPC   C3A14165  14.341  26.739   8.059
  720POPC   C4A14166  14.399  26.907   7.662
  720POPC   C1B14167  14.776  26.355   8.885
  720POPC   C2B14168  14.734  26.563   8.466
  720POPC   C3B14169  14.790  26.486   8.034
  720POPC   C4B14170  14.776  26.563   7.604
  721POPC   NC314171  22.183  10.077   9.485
  721POPC   PO414172  22.109   9.439   9.373
  721POPC   GL114173  21.967   9.787   9.145
  721POPC   GL214174  21.688  10.029   9.218
  721POPC   C1A14175  22.172   9.829   8.784
  721POPC   D2A14176  22.106   9.604   8.398
  721POPC   C3A14177  22.385   9.550   8.035
  721POPC   C4A14178  22.370   9.466   7.560
  721POPC   C1B14179  21.789  10.184   8.801
  721POPC   C2B14180  22.047  10.153   8.418
  721POPC   C3B14181  21.960  10.128   8.025
  721POPC   C4B14182  22.127   9.875   7.728
  722POPC   NC314183  18.116  43.407   9.390
  722POPC   PO414184  18.566  43.868   9.482
  722POPC   GL114185  18.439  43.800   9.093
  722POPC   GL214186  18.125  43.859   9.192
  722POPC   C1A14187  18.432  43.875   8.669
  722POPC   D2A14188  18.231  43.753   8.315
  722POPC   C3A14189  18.421  43.744   7.896
  722POPC   C4A14190  18.519  44.132   7.723
  722POPC   C1B14191  17.947  43.753   8.800
  722POPC   C2B14192  17.763  43.908   8.392
  722POPC   C3B14193  17.900  43.849   7.931
  722POPC   C4B14194  18.018  43.583   7.568
  723POPC   NC314195   5.501  39.989   9.257
  723POPC   PO414196   4.916  39.932   9.749
  723POPC   GL114197   4.934  40.005   9.286
  723POPC   GL214198   4.857  39.750   9.060
  723POPC   C1A14199   5.041  40.179   8.853
  723POPC   D2A14200   5.396  40.068   8.573
  723POPC   C3A14201   5.311  40.147   8.149
  723POPC   C4A14202   5.007  40.323   7.843
  723POPC   C1B14203   5.118  39.674   8.720
  723POPC   C2B14204   5.212  39.670   8.273
  723POPC   C3B14205   5.178  39.803   7.808
  723POPC   C4B14206   5.247  39.615   7.371
  724POPC   NC314207   0.893  10.705   9.580
  724POPC   PO414208   0.197  10.585   9.633
  724POPC   GL114209   0.216  10.621   9.200
  724POPC   GL214210   0.544  10.779   9.211
  724POPC   C1A14211   0.409  10.404   8.846
  724POPC   D2A14212   0.519  10.363   8.415
  724POPC   C3A14213   0.272  10.542   8.118
  724POPC   C4A14214   0.027  10.572   7.778
  724POPC   C1B14215   0.734  10.793   8.813
  724POPC   C2B14216   0.662  10.905   8.410
  724POPC   C3B14217   0.720  10.781   8.015
  724POPC   C4B14218   0.541  10.552   7.644
  725POPC   NC314219  37.484  39.555   9.698
  725POPC   PO414220  36.997  39.130   9.564
  725POPC   GL114221  36.917  39.245   9.173
  725POPC   GL214222  36.688  39.026   9.063
  725POPC   C1A14223  37.154  39.095   8.802
  725POPC   D2A14224  37.026  39.032   8.367
  725POPC   C3A14225  37.240  39.171   7.993
  725POPC   C4A14226  37.158  39.321   7.571
  725POPC   C1B14227  36.714  39.335   8.714
  725POPC   C2B14228  36.769  39.487   8.314
  725POPC   C3B14229  36.759  39.350   7.893
  725POPC   C4B14230  36.490  39.473   7.551
  726POPC   NC314231  12.708   6.137   9.337
  726POPC   PO414232  13.188   6.233   9.732
  726POPC   GL114233  13.107   5.872   9.267
  726POPC   GL214234  12.783   5.627   9.258
  726POPC   C1A14235  13.040   5.728   8.823
  726POPC   D2A14236  13.155   5.773   8.377
  726POPC   C3A14237  12.885   5.943   8.062
  726POPC   C4A14238  12.990   6.061   7.652
  726POPC   C1B14239  12.531   5.593   8.845
  726POPC   C2B14240  12.476   5.805   8.410
  726POPC   C3B14241  12.494   5.612   7.981
  726POPC   C4B14242  12.397   5.754   7.556
  727POPC   NC314243  32.409   9.503   9.557
  727POPC   PO414244  31.795   9.782   9.680
  727POPC   GL114245  32.139   9.900   9.273
  727POPC   GL214246  32.407   9.695   9.089
  727POPC   C1A14247  32.157   9.974   8.761
  727POPC   D2A14248  32.252   9.823   8.291
  727POPC   C3A14249  32.006   9.976   7.916
  727POPC   C4A14250  31.786  10.024   7.506
  727POPC   C1B14251  32.254   9.468   8.686
  727POPC   C2B14252  32.312   9.181   8.320
  727POPC   C3B14253  32.473   9.317   7.927
  727POPC   C4B14254  32.325   9.678   7.635
  728POPC   NC314255  36.300  16.700   9.753
  728POPC   PO414256  35.607  16.795   9.646
  728POPC   GL114257  35.905  16.584   9.332
  728POPC   GL214258  36.129  16.851   9.222
  728POPC   C1A14259  35.954  16.434   8.872
  728POPC   D2A14260  36.098  16.542   8.457
  728POPC   C3A14261  35.878  16.558   8.098
  728POPC   C4A14262  35.970  16.594   7.699
  728POPC   C1B14263  36.352  16.774   8.816
  728POPC   C2B14264  36.453  16.914   8.382
  728POPC   C3B14265  36.304  16.893   7.953
  728POPC   C4B14266  36.202  17.009   7.517
  729POPC   NC314267  21.635  17.752   9.456
  729POPC   PO414268  21.265  17.106   9.519
  729POPC   GL114269  21.389  17.370   9.204
  729POPC   GL214270  21.160  17.675   9.211
  729POPC   C1A14271  21.564  17.470   8.800
  729POPC   D2A14272  21.341  17.620   8.443
  729POPC   C3A14273  21.511  17.679   8.073
  729POPC   C4A14274  21.529  17.474   7.715
  729POPC   C1B14275  21.027  17.445   8.840
  729POPC   C2B14276  20.891  17.378   8.423
  729POPC   C3B14277  21.067  17.365   7.994
  729POPC   C4B14278  21.076  17.295   7.518
  730POPC   NC314279  42.529   5.539   9.435
  730POPC   PO414280  42.675   6.216   9.505
  730POPC   GL114281  42.633   5.943   9.124
  730POPC   GL214282  42.277   5.818   9.069
  730POPC   C1A14283  42.601   5.885   8.654
  730POPC   D2A14284  42.571   5.712   8.215
  730POPC   C3A14285  42.555   6.035   7.885
  730POPC   C4A14286  42.402   6.288   7.532
  730POPC   C1B14287  42.173   5.599   8.656
  730POPC   C2B14288  42.035   5.643   8.197
  730POPC   C3B14289  42.272   5.616   7.805
  730POPC   C4B14290  42.379   5.349   7.493
  731POPC   NC314291  13.947   8.438   9.483
  731POPC   PO414292  13.425   7.943   9.570
  731POPC   GL114293  13.597   8.176   9.240
  731POPC   GL214294  13.467   8.473   9.210
  731POPC   C1A14295  13.764   8.097   8.845
  731POPC   D2A14296  13.576   7.830   8.528
  731POPC   C3A14297  13.535   7.877   8.091
  731POPC   C4A14298  13.547   8.074   7.693
  731POPC   C1B14299  13.342   8.359   8.783
  731POPC   C2B14300  13.574   8.318   8.372
  731POPC   C3B14301  13.495   8.511   7.976
  731POPC   C4B14302  13.406   8.539   7.514
  732POPC   NC314303  24.297  18.242   9.534
  732POPC   PO414304  24.902  18.592   9.470
  732POPC   GL114305  24.632  18.339   9.144
  732POPC   GL214306  24.258  18.379   9.071
  732POPC   C1A14307  24.533  18.197   8.693
  732POPC   D2A14308  24.535  18.152   8.248
  732POPC   C3A14309  24.624  18.073   7.811
  732POPC   C4A14310  24.776  18.290   7.427
  732POPC   C1B14311  24.058  18.401   8.728
  732POPC   C2B14312  24.201  18.517   8.364
  732POPC   C3B14313  24.167  18.360   7.978
  732POPC   C4B14314  24.276  18.371   7.578
  733POPC   NC314315  36.973  24.130   9.482
  733POPC   PO414316  36.896  24.810   9.376
  733POPC   GL114317  37.103  24.719   9.018
  733POPC   GL214318  36.986  24.398   9.063
  733POPC   C1A14319  36.977  24.678   8.606
  733POPC   D2A14320  36.628  24.593   8.365
  733POPC   C3A14321  36.751  24.557   7.985
  733POPC   C4A14322  36.688  24.179   7.799
  733POPC   C1B14323  37.184  24.226   8.748
  733POPC   C2B14324  36.986  24.217   8.339
  733POPC   C3B14325  37.165  24.279   7.936
  733POPC   C4B14326  37.039  24.401   7.497
  734POPC   NC314327  18.670   7.058   9.327
  734POPC   PO414328  18.162   7.456   9.478
  734POPC   GL114329  18.353   7.378   9.102
  734POPC   GL214330  18.574   7.612   9.027
  734POPC   C1A14331  18.379   7.194   8.696
  734POPC   D2A14332  18.201   7.259   8.328
  734POPC   C3A14333  18.379   7.284   7.950
  734POPC   C4A14334  18.193   7.631   7.825
  734POPC   C1B14335  18.562   7.663   8.611
  734POPC   C2B14336  18.527   7.723   8.191
  734POPC   C3B14337  18.691   7.758   7.780
  734POPC   C4B14338  18.699   7.943   7.350
  735POPC   NC314339  33.475  31.545   9.481
  735POPC   PO414340  34.118  31.257   9.432
  735POPC   GL114341  33.885  31.471   9.139
  735POPC   GL214342  34.165  31.696   9.067
  735POPC   C1A14343  33.573  31.341   8.815
  735POPC   D2A14344  33.687  31.118   8.434
  735POPC   C3A14345  33.658  31.368   8.084
  735POPC   C4A14346  33.879  31.322   7.701
  735POPC   C1B14347  33.964  31.663   8.635
  735POPC   C2B14348  34.029  31.773   8.193
  735POPC   C3B14349  34.195  31.722   7.766
  735POPC   C4B14350  33.953  31.697   7.355
  736POPC   NC314351   4.491   7.167   9.559
  736POPC   PO414352   4.722   7.913   9.410
  736POPC   GL114353   4.561   7.717   9.052
  736POPC   GL214354   4.411   7.390   9.068
  736POPC   C1A14355   4.370   7.722   8.641
  736POPC   D2A14356   4.097   7.822   8.279
  736POPC   C3A14357   4.305   7.594   7.946
  736POPC   C4A14358   4.560   7.201   7.816
  736POPC   C1B14359   4.094   7.132   8.833
  736POPC   C2B14360   3.948   6.914   8.455
  736POPC   C3B14361   4.101   7.087   8.046
  736POPC   C4B14362   4.063   7.258   7.643
  737POPC   NC314363  21.167  13.230   9.402
  737POPC   PO414364  21.870  13.191   9.595
  737POPC   GL114365  21.555  12.933   9.293
  737POPC   GL214366  21.571  12.592   9.248
  737POPC   C1A14367  21.315  12.844   8.885
  737POPC   D2A14368  21.482  12.754   8.485
  737POPC   C3A14369  21.339  12.921   8.136
  737POPC   C4A14370  21.090  12.686   7.841
  737POPC   C1B14371  21.735  12.473   8.856
  737POPC   C2B14372  21.725  12.309   8.437
  737POPC   C3B14373  21.530  12.448   8.036
  737POPC   C4B14374  21.564  12.605   7.592
  738POPC   NC314375  42.118  28.129   9.575
  738POPC   PO414376  42.143  28.736   9.432
  738POPC   GL114377  42.306  28.417   9.149
  738POPC   GL214378  42.069  28.121   9.079
  738POPC   C1A14379  42.613  28.501   8.802
  738POPC   D2A14380  42.606  28.376   8.372
  738POPC   C3A14381  42.677  28.581   7.989
  738POPC   C4A14382  42.523  28.220   7.776
  738POPC   C1B14383  42.218  28.199   8.679
  738POPC   C2B14384  42.143  28.597   8.456
  738POPC   C3B14385  41.947  28.665   8.048
  738POPC   C4B14386  42.229  28.624   7.722
  739POPC   NC314387   4.930  32.087   9.538
  739POPC   PO414388   5.084  32.743   9.571
  739POPC   GL114389   5.029  32.519   9.168
  739POPC   GL214390   5.036  32.139   9.057
  739POPC   C1A14391   4.922  32.496   8.734
  739POPC   D2A14392   5.102  32.346   8.365
  739POPC   C3A14393   5.060  32.606   8.011
  739POPC   C4A14394   5.130  32.508   7.592
  739POPC   C1B14395   5.108  31.893   8.692
  739POPC   C2B14396   5.093  31.840   8.265
  739POPC   C3B14397   5.242  32.064   7.947
  739POPC   C4B14398   4.891  32.119   7.760
  740POPC   NC314399  32.899  31.713   9.724
  740POPC   PO414400  33.146  31.234   9.388
  740POPC   GL114401  32.848  31.313   9.159
  740POPC   GL214402  32.899  31.677   9.207
  740POPC   C1A14403  32.965  31.200   8.750
  740POPC   D2A14404  33.218  31.299   8.389
  740POPC   C3A14405  33.199  31.160   7.950
  740POPC   C4A14406  33.386  31.409   7.628
  740POPC   C1B14407  33.122  31.682   8.804
  740POPC   C2B14408  33.046  31.777   8.367
  740POPC   C3B14409  33.049  31.659   7.925
  740POPC   C4B14410  32.738  31.867   7.617
  741POPC   NC314411  24.345  38.131   9.487
  741POPC   PO414412  24.655  38.852   9.496
  741POPC   GL114413  24.566  38.770   9.060
  741POPC   GL214414  24.595  38.388   9.057
  741POPC   C1A14415  24.288  38.720   8.740
  741POPC   D2A14416  24.294  38.497   8.410
  741POPC   C3A14417  24.375  38.700   8.039
  741POPC   C4A14418  24.424  38.429   7.708
  741POPC   C1B14419  24.759  38.437   8.644
  741POPC   C2B14420  24.740  38.348   8.203
  741POPC   C3B14421  24.852  38.168   7.824
  741POPC   C4B14422  24.787  38.040   7.383
  742POPC   NC314423  29.773  17.999   9.393
  742POPC   PO414424  29.798  18.628   9.694
  742POPC   GL114425  29.933  18.497   9.185
  742POPC   GL214426  30.245  18.300   9.191
  742POPC   C1A14427  29.683  18.364   8.731
  742POPC   D2A14428  29.588  18.045   8.342
  742POPC   C3A14429  29.471  18.221   7.970
  742POPC   C4A14430  29.678  18.607   7.937
  742POPC   C1B14431  30.180  18.304   8.736
  742POPC   C2B14432  29.961  18.396   8.310
  742POPC   C3B14433  29.972  18.174   7.919
  742POPC   C4B14434  30.367  17.962   7.880
  743POPC   NC314435  18.411  26.275   9.506
  743POPC   PO414436  17.905  25.794   9.506
  743POPC   GL114437  18.132  25.950   9.143
  743POPC   GL214438  18.515  25.969   9.099
  743POPC   C1A14439  18.173  26.149   8.739
  743POPC   D2A14440  18.293  26.007   8.316
  743POPC   C3A14441  18.097  26.209   7.941
  743POPC   C4A14442  18.044  25.985   7.573
  743POPC   C1B14443  18.624  26.367   8.865
  743POPC   C2B14444  18.640  26.530   8.430
  743POPC   C3B14445  18.594  26.320   8.009
  743POPC   C4B14446  18.468  26.272   7.564
  744POPC   NC314447  15.815  15.660   9.725
  744POPC   PO414448  15.847  15.077   9.378
  744POPC   GL114449  15.904  15.396   9.044
  744POPC   GL214450  16.237  15.428   8.959
  744POPC   C1A14451  15.822  15.438   8.576
  744POPC   D2A14452  15.828  15.067   8.260
  744POPC   C3A14453  15.709  15.206   7.852
  744POPC   C4A14454  15.423  15.539   7.804
  744POPC   C1B14455  16.217  15.130   8.649
  744POPC   C2B14456  16.243  15.368   8.252
  744POPC   C3B14457  16.217  15.382   7.813
  744POPC   C4B14458  16.133  15.203   7.409
  745POPC   NC314459  42.063  40.976   9.550
  745POPC   PO414460  41.395  41.043   9.465
  745POPC   GL114461  41.671  40.845   9.150
  745POPC   GL214462  41.912  40.589   9.205
  745POPC   C1A14463  41.566  40.757   8.727
  745POPC   D2A14464  41.348  41.053   8.450
  745POPC   C3A14465  41.423  40.962   8.027
  745POPC   C4A14466  41.372  40.704   7.686
  745POPC   C1B14467  41.935  40.400   8.804
  745POPC   C2B14468  41.730  40.346   8.407
  745POPC   C3B14469  41.463  40.415   8.093
  745POPC   C4B14470  41.146  40.245   7.848
  746POPC   NC314471  11.108  20.163   9.417
  746POPC   PO414472  11.523  19.653   9.357
  746POPC   GL114473  11.329  19.902   8.980
  746POPC   GL214474  10.985  20.119   8.935
  746POPC   C1A14475  11.494  19.784   8.561
  746POPC   D2A14476  11.551  19.469   8.207
  746POPC   C3A14477  11.318  19.691   7.897
  746POPC   C4A14478  11.187  20.055   8.082
  746POPC   C1B14479  10.965  19.889   8.554
  746POPC   C2B14480  11.052  19.520   8.311
  746POPC   C3B14481  10.855  19.498   7.907
  746POPC   C4B14482  10.776  19.941   7.805
  747POPC   NC314483  31.551  33.114   9.599
  747POPC   PO414484  31.519  32.447   9.570
  747POPC   GL114485  31.311  32.767   9.298
  747POPC   GL214486  31.615  32.942   9.116
  747POPC   C1A14487  31.188  32.865   8.862
  747POPC   D2A14488  31.344  32.821   8.427
  747POPC   C3A14489  31.250  33.015   8.036
  747POPC   C4A14490  31.329  32.987   7.543
  747POPC   C1B14491  31.539  33.211   8.707
  747POPC   C2B14492  31.440  33.427   8.283
  747POPC   C3B14493  31.575  33.366   7.819
  747POPC   C4B14494  31.639  33.445   7.343
  748POPC   NC314495  40.673  43.736   9.396
  748POPC   PO414496  40.838  44.383   9.479
  748POPC   GL114497  40.823  44.151   9.072
  748POPC   GL214498  41.174  44.167   8.889
  748POPC   C1A14499  40.497  43.925   8.812
  748POPC   D2A14500  40.528  43.626   8.489
  748POPC   C3A14501  40.642  43.905   8.189
  748POPC   C4A14502  40.649  44.016   7.785
  748POPC   C1B14503  40.992  43.842   8.642
  748POPC   C2B14504  41.037  43.555   8.315
  748POPC   C3B14505  41.005  43.624   7.917
  748POPC   C4B14506  41.145  43.917   7.660
  749POPC   NC314507  27.447  34.335   9.437
  749POPC   PO414508  27.979  34.825   9.365
  749POPC   GL114509  27.639  34.699   9.087
  749POPC   GL214510  27.545  34.338   8.959
  749POPC   C1A14511  27.552  34.749   8.662
  749POPC   D2A14512  27.728  34.587   8.321
  749POPC   C3A14513  27.668  34.845   8.000
  749POPC   C4A14514  27.552  34.818   7.589
  749POPC   C1B14515  27.526  34.025   8.658
  749POPC   C2B14516  27.669  34.064   8.265
  749POPC   C3B14517  27.554  34.314   7.924
  749POPC   C4B14518  27.250  34.177   7.694
  750POPC   NC314519  17.143  27.405   9.412
  750POPC   PO414520  17.812  27.314   9.488
  750POPC   GL114521  17.604  27.550   9.177
  750POPC   GL214522  17.583  27.919   9.179
  750POPC   C1A14523  17.458  27.462   8.775
  750POPC   D2A14524  17.560  27.299   8.374
  750POPC   C3A14525  17.374  27.538   8.075
  750POPC   C4A14526  17.207  27.557   7.665
  750POPC   C1B14527  17.799  27.868   8.810
  750POPC   C2B14528  17.762  27.749   8.420
  750POPC   C3B14529  17.972  27.523   8.122
  750POPC   C4B14530  17.743  27.524   7.722
  751POPC   NC314531  16.971   5.374   9.460
  751POPC   PO414532  16.418   5.862   9.542
  751POPC   GL114533  16.657   5.688   9.195
  751POPC   GL214534  16.857   5.986   9.162
  751POPC   C1A14535  16.930   5.645   8.771
  751POPC   D2A14536  16.852   5.493   8.313
  751POPC   C3A14537  16.852   5.685   7.900
  751POPC   C4A14538  16.676   5.524   7.507
  751POPC   C1B14539  16.564   5.983   8.798
  751POPC   C2B14540  16.703   5.976   8.382
  751POPC   C3B14541  16.446   6.011   8.024
  751POPC   C4B14542  16.474   6.270   7.636
  752POPC   NC314543  31.700   0.780   9.795
  752POPC   PO414544  31.228   0.346   9.550
  752POPC   GL114545  31.361   0.338   9.122
  752POPC   GL214546  31.722   0.347   9.047
  752POPC   C1A14547  31.386   0.299   8.680
  752POPC   D2A14548  31.599   0.509   8.378
  752POPC   C3A14549  31.378   0.440   8.041
  752POPC   C4A14550  31.488   0.283   7.667
  752POPC   C1B14551  31.935   0.621   8.764
  752POPC   C2B14552  32.078   0.675   8.330
  752POPC   C3B14553  31.899   0.493   7.925
  752POPC   C4B14554  31.876   0.583   7.454
  753POPC   NC314555  18.319   0.960   9.534
  753POPC   PO414556  18.409   1.688   9.349
  753POPC   GL114557  18.265   1.312   9.161
  753POPC   GL214558  18.526   1.090   9.080
  753POPC   C1A14559  18.062   1.125   8.841
  753POPC   D2A14560  17.997   1.287   8.443
  753POPC   C3A14561  18.152   1.055   8.089
  753POPC   C4A14562  18.232   1.086   7.660
  753POPC   C1B14563  18.495   1.360   8.711
  753POPC   C2B14564  18.470   1.413   8.296
  753POPC   C3B14565  18.471   1.467   7.894
  753POPC   C4B14566  18.384   1.542   7.497
  754POPC   NC314567  19.519  29.850   9.529
  754POPC   PO414568  20.007  30.369   9.598
  754POPC   GL114569  19.836  30.178   9.266
  754POPC   GL214570  20.124  30.018   9.188
  754POPC   C1A14571  19.745  30.066   8.863
  754POPC   D2A14572  19.592  30.290   8.487
  754POPC   C3A14573  19.639  30.035   8.147
  754POPC   C4A14574  19.843  30.024   7.772
  754POPC   C1B14575  20.288  29.740   8.868
  754POPC   C2B14576  20.236  29.588   8.411
  754POPC   C3B14577  20.109  29.635   7.978
  754POPC   C4B14578  20.041  29.481   7.561
  755POPC   NC314579  36.315  18.539   9.797
  755POPC   PO414580  36.269  17.981   9.345
  755POPC   GL114581  36.278  18.111   8.978
  755POPC   GL214582  35.979  18.271   9.070
  755POPC   C1A14583  36.373  18.291   8.602
  755POPC   D2A14584  36.110  18.160   8.341
  755POPC   C3A14585  36.176  17.916   8.020
  755POPC   C4A14586  36.306  18.086   7.675
  755POPC   C1B14587  35.896  18.463   8.710
  755POPC   C2B14588  35.822  18.592   8.320
  755POPC   C3B14589  36.054  18.488   7.953
  755POPC   C4B14590  35.871  18.346   7.590
  756POPC   NC314591  41.153  26.231   9.514
  756POPC   PO414592  41.621  25.924   9.545
  756POPC   GL114593  41.551  26.022   9.153
  756POPC   GL214594  41.348  25.727   9.119
  756POPC   C1A14595  41.481  25.983   8.708
  756POPC   D2A14596  41.428  26.104   8.311
  756POPC   C3A14597  41.657  25.943   7.993
  756POPC   C4A14598  41.492  25.976   7.607
  756POPC   C1B14599  41.105  25.654   8.756
  756POPC   C2B14600  41.017  25.817   8.381
  756POPC   C3B14601  41.193  25.735   7.983
  756POPC   C4B14602  41.019  25.742   7.578
  757POPC   NC314603  16.915  37.979   9.361
  757POPC   PO414604  16.824  37.373   9.625
  757POPC   GL114605  16.720  37.503   9.169
  757POPC   GL214606  16.415  37.677   9.060
  757POPC   C1A14607  16.807  37.610   8.740
  757POPC   D2A14608  16.853  37.835   8.358
  757POPC   C3A14609  16.806  37.550   8.012
  757POPC   C4A14610  16.889  37.661   7.597
  757POPC   C1B14611  16.342  37.357   8.803
  757POPC   C2B14612  16.432  37.485   8.389
  757POPC   C3B14613  16.369  37.279   8.003
  757POPC   C4B14614  16.468  37.368   7.570
  758POPC   NC314615   0.014  33.226   9.494
  758POPC   PO414616  44.552  32.661   9.608
  758POPC   GL114617  44.470  32.887   9.222
  758POPC   GL214618  44.802  32.980   9.103
  758POPC   C1A14619  44.427  32.767   8.785
  758POPC   D2A14620  44.370  32.980   8.373
  758POPC   C3A14621  44.448  32.771   7.997
  758POPC   C4A14622  44.294  32.508   7.672
  758POPC   C1B14623  44.764  33.138   8.693
  758POPC   C2B14624  44.988  33.266   8.320
  758POPC   C3B14625  44.873  33.076   7.934
  758POPC   C4B14626  44.511  33.264   7.853
  759POPC   NC314627   6.265  23.467   9.325
  759POPC   PO414628   5.614  23.708   9.584
  759POPC   GL114629   5.794  23.688   9.150
  759POPC   GL214630   5.611  23.972   8.994
  759POPC   C1A14631   5.991  23.633   8.742
  759POPC   D2A14632   5.861  23.354   8.424
  759POPC   C3A14633   5.762  23.458   8.003
  759POPC   C4A14634   6.094  23.528   7.727
  759POPC   C1B14635   5.681  23.987   8.561
  759POPC   C2B14636   5.905  23.957   8.177
  759POPC   C3B14637   5.766  23.967   7.755
  759POPC   C4B14638   5.760  24.167   7.342
  760POPC   NC314639  42.269  10.217   9.816
  760POPC   PO414640  42.323  10.881   9.586
  760POPC   GL114641  42.584  10.738   9.220
  760POPC   GL214642  42.251  10.671   9.083
  760POPC   C1A14643  42.633  10.596   8.738
  760POPC   D2A14644  42.313  10.726   8.419
  760POPC   C3A14645  42.019  10.819   8.061
  760POPC   C4A14646  42.166  10.761   7.598
  760POPC   C1B14647  42.134  10.392   8.762
  760POPC   C2B14648  41.991  10.344   8.347
  760POPC   C3B14649  42.242  10.395   7.938
  760POPC   C4B14650  42.307  10.281   7.502
  761POPC   NC314651  19.468  43.885   9.509
  761POPC   PO414652  20.051  43.527   9.518
  761POPC   GL114653  20.036  43.791   9.119
  761POPC   GL214654  19.714  43.941   9.068
  761POPC   C1A14655  19.983  43.853   8.645
  761POPC   D2A14656  19.795  44.065   8.306
  761POPC   C3A14657  19.966  43.944   7.923
  761POPC   C4A14658  20.054  43.786   7.482
  761POPC   C1B14659  19.450  43.893   8.710
  761POPC   C2B14660  19.265  44.070   8.336
  761POPC   C3B14661  19.433  43.904   7.969
  761POPC   C4B14662  19.604  43.985   7.575
  762POPC   NC314663  31.989  43.471   9.648
  762POPC   PO414664  32.367  42.927   9.777
  762POPC   GL114665  32.174  43.003   9.280
  762POPC   GL214666  32.191  43.391   9.200
  762POPC   C1A14667  32.181  43.128   8.788
  762POPC   D2A14668  32.226  42.930   8.376
  762POPC   C3A14669  32.280  43.097   7.972
  762POPC   C4A14670  32.442  43.168   7.550
  762POPC   C1B14671  31.930  43.605   8.881
  762POPC   C2B14672  31.886  43.592   8.435
  762POPC   C3B14673  31.780  43.388   8.034
  762POPC   C4B14674  31.932  43.202   7.626
  763POPC   NC314675  22.555   5.355   9.517
  763POPC   PO414676  22.771   4.749   9.506
  763POPC   GL114677  22.666   5.028   9.122
  763POPC   GL214678  23.003   5.130   8.950
  763POPC   C1A14679  22.586   5.043   8.668
  763POPC   D2A14680  22.885   5.176   8.394
  763POPC   C3A14681  22.902   4.972   8.008
  763POPC   C4A14682  22.871   5.110   7.594
  763POPC   C1B14683  23.215   5.473   8.676
  763POPC   C2B14684  23.273   5.510   8.231
  763POPC   C3B14685  23.332   5.277   7.823
  763POPC   C4B14686  23.274   5.309   7.333
  764POPC   NC314687  13.459  21.497   9.429
  764POPC   PO414688  14.041  21.158   9.469
  764POPC   GL114689  13.869  21.302   9.096
  764POPC   GL214690  13.856  21.661   9.089
  764POPC   C1A14691  13.652  21.069   8.772
  764POPC   D2A14692  13.477  21.053   8.352
  764POPC   C3A14693  13.799  21.100   8.026
  764POPC   C4A14694  13.762  21.254   7.615
  764POPC   C1B14695  13.476  21.561   8.809
  764POPC   C2B14696  13.275  21.550   8.430
  764POPC   C3B14697  13.460  21.494   8.051
  764POPC   C4B14698  13.302  21.755   7.803
  765POPC   NC314699  10.478  20.942   9.425
  765POPC   PO414700   9.946  20.534   9.495
  765POPC   GL114701  10.132  20.593   9.131
  765POPC   GL214702  10.472  20.505   9.117
  765POPC   C1A14703  10.226  20.799   8.748
  765POPC   D2A14704  10.188  20.620   8.350
  765POPC   C3A14705  10.477  20.797   8.073
  765POPC   C4A14706  10.386  20.713   7.659
  765POPC   C1B14707  10.745  20.540   8.753
  765POPC   C2B14708  11.048  20.399   8.430
  765POPC   C3B14709  10.951  20.485   7.964
  765POPC   C4B14710  10.791  20.456   7.551
  766POPC   NC314711  42.679  31.373   9.393
  766POPC   PO414712  43.140  31.675   9.767
  766POPC   GL114713  43.302  31.514   9.267
  766POPC   GL214714  43.051  31.318   9.050
  766POPC   C1A14715  43.326  31.595   8.750
  766POPC   D2A14716  43.123  31.676   8.358
  766POPC   C3A14717  43.258  31.422   7.998
  766POPC   C4A14718  43.114  31.101   7.807
  766POPC   C1B14719  42.854  31.292   8.601
  766POPC   C2B14720  42.764  31.385   8.130
  766POPC   C3B14721  42.847  31.802   7.955
  766POPC   C4B14722  43.238  31.883   7.802
  767POPC   NC314723  15.720  28.445   9.445
  767POPC   PO414724  15.856  27.843   9.742
  767POPC   GL114725  15.728  28.028   9.177
  767POPC   GL214726  16.020  28.260   9.071
  767POPC   C1A14727  15.638  28.215   8.733
  767POPC   D2A14728  15.813  28.454   8.376
  767POPC   C3A14729  16.112  28.245   8.125
  767POPC   C4A14730  15.926  28.194   7.738
  767POPC   C1B14731  16.165  28.560   8.738
  767POPC   C2B14732  16.449  28.603   8.383
  767POPC   C3B14733  16.331  28.694   7.961
  767POPC   C4B14734  15.914  28.683   7.905
  768POPC   NC314735   6.840  30.311   9.241
  768POPC   PO414736   6.470  30.831   9.475
  768POPC   GL114737   6.359  30.744   9.076
  768POPC   GL214738   6.348  30.412   9.089
  768POPC   C1A14739   6.638  30.654   8.722
  768POPC   D2A14740   6.919  30.847   8.452
  768POPC   C3A14741   6.756  30.811   8.048
  768POPC   C4A14742   6.892  30.822   7.636
  768POPC   C1B14743   6.196  30.385   8.689
  768POPC   C2B14744   6.280  30.557   8.287
  768POPC   C3B14745   6.438  30.409   7.906
  768POPC   C4B14746   6.552  30.498   7.477
  769POPC   NC314747  21.974  12.726   9.533
  769POPC   PO414748  22.564  13.039   9.641
  769POPC   GL114749  22.363  13.050   9.219
  769POPC   GL214750  22.034  13.047   9.153
  769POPC   C1A14751  22.327  12.934   8.771
  769POPC   D2A14752  22.230  12.687   8.439
  769POPC   C3A14753  22.298  12.927   8.081
  769POPC   C4A14754  22.237  12.714   7.730
  769POPC   C1B14755  21.804  13.007   8.791
  769POPC   C2B14756  21.859  13.065   8.345
  769POPC   C3B14757  21.809  12.949   7.902
  769POPC   C4B14758  21.903  12.948   7.445
  770POPC   NC314759   5.628  37.346   9.929
  770POPC   PO414760   5.225  37.099   9.380
  770POPC   GL114761   4.991  36.826   9.103
  770POPC   GL214762   4.685  37.014   9.083
  770POPC   C1A14763   4.867  36.802   8.654
  770POPC   D2A14764   5.022  36.615   8.291
  770POPC   C3A14765   5.135  36.989   8.035
  770POPC   C4A14766   5.324  37.017   7.621
  770POPC   C1B14767   4.672  37.289   8.748
  770POPC   C2B14768   4.760  37.233   8.343
  770POPC   C3B14769   4.641  37.173   7.967
  770POPC   C4B14770   4.805  36.992   7.627
  771POPC   NC314771  39.414  38.719   9.517
  771POPC   PO414772  38.831  38.406   9.437
  771POPC   GL114773  39.131  38.553   9.126
  771POPC   GL214774  39.242  38.257   8.980
  771POPC   C1A14775  39.044  38.689   8.688
  771POPC   D2A14776  39.152  38.581   8.264
  771POPC   C3A14777  39.052  38.808   7.902
  771POPC   C4A14778  39.123  38.496   7.622
  771POPC   C1B14779  39.498  38.474   8.672
  771POPC   C2B14780  39.591  38.808   8.356
  771POPC   C3B14781  39.547  38.691   7.917
  771POPC   C4B14782  39.594  38.303   7.700
  772POPC   NC314783  16.978  36.925   9.535
  772POPC   PO414784  16.339  36.806   9.624
  772POPC   GL114785  16.393  36.917   9.151
  772POPC   GL214786  16.739  36.994   9.091
  772POPC   C1A14787  16.510  36.878   8.658
  772POPC   D2A14788  16.747  37.067   8.295
  772POPC   C3A14789  16.757  37.006   7.815
  772POPC   C4A14790  16.599  36.925   7.355
  772POPC   C1B14791  16.962  36.680   8.833
  772POPC   C2B14792  17.106  36.702   8.404
  772POPC   C3B14793  16.966  36.548   7.995
  772POPC   C4B14794  16.968  36.630   7.542
  773POPC   NC314795  38.165  27.134   9.417
  773POPC   PO414796  38.497  27.725   9.523
  773POPC   GL114797  38.603  27.606   9.124
  773POPC   GL214798  38.240  27.555   9.065
  773POPC   C1A14799  38.591  27.804   8.733
  773POPC   D2A14800  38.380  27.753   8.349
  773POPC   C3A14801  38.561  27.895   7.969
  773POPC   C4A14802  38.370  27.851   7.557
  773POPC   C1B14803  38.450  27.280   8.763
  773POPC   C2B14804  38.350  27.214   8.352
  773POPC   C3B14805  38.162  27.420   8.004
  773POPC   C4B14806  38.530  27.414   7.781
  774POPC   NC314807  23.727  14.878   9.683
  774POPC   PO414808  23.631  14.216   9.624
  774POPC   GL114809  23.656  14.492   9.247
  774POPC   GL214810  23.396  14.792   9.240
  774POPC   C1A14811  23.826  14.327   8.826
  774POPC   D2A14812  23.736  14.013   8.463
  774POPC   C3A14813  23.753  14.253   8.065
  774POPC   C4A14814  23.894  14.266   7.636
  774POPC   C1B14815  23.491  14.711   8.792
  774POPC   C2B14816  23.418  14.419   8.484
  774POPC   C3B14817  23.281  14.465   8.071
  774POPC   C4B14818  23.345  14.200   7.734
  775POPC   NC314819  21.932  23.933   9.498
  775POPC   PO414820  22.369  23.334   9.435
  775POPC   GL114821  22.132  23.601   9.148
  775POPC   GL214822  22.236  23.971   9.097
  775POPC   C1A14823  22.243  23.604   8.727
  775POPC   D2A14824  22.226  23.800   8.370
  775POPC   C3A14825  22.055  23.619   8.003
  775POPC   C4A14826  22.363  23.426   7.701
  775POPC   C1B14827  21.931  24.002   8.767
  775POPC   C2B14828  21.829  24.142   8.324
  775POPC   C3B14829  22.189  24.138   8.007
  775POPC   C4B14830  22.217  23.907   7.631
  776POPC   NC314831   7.036  43.905   9.608
  776POPC   PO414832   6.566  43.535   9.500
  776POPC   GL114833   6.653  43.892   9.199
  776POPC   GL214834   6.966  44.069   9.122
  776POPC   C1A14835   6.510  44.001   8.792
  776POPC   D2A14836   6.578  43.718   8.464
  776POPC   C3A14837   6.444  43.778   8.056
  776POPC   C4A14838   6.624  43.503   7.747
  776POPC   C1B14839   6.926  44.308   8.727
  776POPC   C2B14840   6.737  44.172   8.325
  776POPC   C3B14841   6.941  43.926   8.001
  776POPC   C4B14842   7.136  44.048   7.616
  777POPC   NC314843  26.246  26.070   9.508
  777POPC   PO414844  25.565  25.866   9.571
  777POPC   GL114845  25.771  26.095   9.194
  777POPC   GL214846  26.064  25.872   9.086
  777POPC   C1A14847  25.835  26.099   8.718
  777POPC   D2A14848  25.926  25.781   8.382
  777POPC   C3A14849  25.849  25.885   7.964
  777POPC   C4A14850  25.766  26.283   7.760
  777POPC   C1B14851  26.323  25.908   8.698
  777POPC   C2B14852  26.357  26.111   8.317
  777POPC   C3B14853  26.260  26.276   7.940
  777POPC   C4B14854  26.228  25.994   7.644
  778POPC   NC314855  40.505  25.513   9.525
  778POPC   PO414856  41.045  25.111   9.475
  778POPC   GL114857  40.829  25.168   9.099
  778POPC   GL214858  40.770  25.537   9.094
  778POPC   C1A14859  40.877  25.200   8.635
  778POPC   D2A14860  41.101  25.304   8.258
  778POPC   C3A14861  40.895  25.341   7.854
  778POPC   C4A14862  40.887  25.044   7.508
  778POPC   C1B14863  40.490  25.509   8.711
  778POPC   C2B14864  40.604  25.500   8.274
  778POPC   C3B14865  40.409  25.517   7.855
  778POPC   C4B14866  40.608  25.477   7.431
  779POPC   NC314867  14.812   8.567   9.375
  779POPC   PO414868  14.826   9.219   9.414
  779POPC   GL114869  15.104   8.954   9.161
  779POPC   GL214870  15.333   8.667   9.150
  779POPC   C1A14871  15.020   8.831   8.742
  779POPC   D2A14872  14.977   9.142   8.397
  779POPC   C3A14873  14.917   8.914   8.017
  779POPC   C4A14874  14.945   9.108   7.626
  779POPC   C1B14875  15.512   8.873   8.770
  779POPC   C2B14876  15.368   8.818   8.340
  779POPC   C3B14877  15.491   8.790   7.918
  779POPC   C4B14878  15.301   8.775   7.479
  780POPC   NC314879  24.583  15.817   9.643
  780POPC   PO414880  24.253  16.383   9.431
  780POPC   GL114881  24.493  16.040   9.184
  780POPC   GL214882  24.760  15.754   9.155
  780POPC   C1A14883  24.582  16.039   8.759
  780POPC   D2A14884  24.475  16.302   8.430
  780POPC   C3A14885  24.510  16.090   8.071
  780POPC   C4A14886  24.318  15.977   7.712
  780POPC   C1B14887  24.928  15.676   8.696
  780POPC   C2B14888  24.662  15.670   8.324
  780POPC   C3B14889  24.702  15.649   7.864
  780POPC   C4B14890  24.411  15.520   7.524
  781POPC   NC314891  35.891  26.473   9.854
  781POPC   PO414892  36.224  27.013   9.524
  781POPC   GL114893  36.312  26.896   9.135
  781POPC   GL214894  36.242  26.562   9.198
  781POPC   C1A14895  36.129  26.974   8.715
  781POPC   D2A14896  35.993  27.209   8.289
  781POPC   C3A14897  36.159  27.060   7.888
  781POPC   C4A14898  36.035  26.841   7.474
  781POPC   C1B14899  36.569  26.545   8.891
  781POPC   C2B14900  36.595  26.543   8.440
  781POPC   C3B14901  36.495  26.683   8.014
  781POPC   C4B14902  36.342  26.480   7.639
  782POPC   NC314903  15.116   4.340   9.789
  782POPC   PO414904  14.795   4.488   9.220
  782POPC   GL114905  14.994   4.146   9.087
  782POPC   GL214906  14.818   3.833   9.191
  782POPC   C1A14907  15.203   4.178   8.701
  782POPC   D2A14908  15.242   4.522   8.423
  782POPC   C3A14909  15.342   4.411   8.020
  782POPC   C4A14910  15.253   4.658   7.656
  782POPC   C1B14911  14.757   3.855   8.734
  782POPC   C2B14912  14.765   4.132   8.358
  782POPC   C3B14913  14.956   4.022   7.956
  782POPC   C4B14914  15.075   4.203   7.578
  783POPC   NC314915  41.024  34.406   9.476
  783POPC   PO414916  40.446  34.757   9.689
  783POPC   GL114917  40.638  34.752   9.250
  783POPC   GL214918  40.625  34.435   9.080
  783POPC   C1A14919  40.953  34.777   8.876
  783POPC   D2A14920  40.858  34.672   8.429
  783POPC   C3A14921  41.098  34.732   8.079
  783POPC   C4A14922  41.020  34.494   7.750
  783POPC   C1B14923  40.457  34.669   8.736
  783POPC   C2B14924  40.379  34.798   8.304
  783POPC   C3B14925  40.509  34.614   7.884
  783POPC   C4B14926  40.305  34.651   7.464
  784POPC   NC314927  40.623   2.176   9.390
  784POPC   PO414928  41.231   1.862   9.473
  784POPC   GL114929  41.006   1.719   9.075
  784POPC   GL214930  40.847   1.996   8.959
  784POPC   C1A14931  41.175   1.706   8.659
  784POPC   D2A14932  41.135   1.954   8.305
  784POPC   C3A14933  40.855   1.737   8.005
  784POPC   C4A14934  40.828   1.633   7.568
  784POPC   C1B14935  40.669   1.803   8.575
  784POPC   C2B14936  40.282   1.804   8.314
  784POPC   C3B14937  40.361   1.816   7.878
  784POPC   C4B14938  40.597   2.085   7.565
  785POPC   NC314939  42.960   1.906   9.381
  785POPC   PO414940  43.340   2.428   9.696
  785POPC   GL114941  43.376   2.207   9.228
  785POPC   GL214942  43.473   1.913   9.250
  785POPC   C1A14943  43.102   2.117   8.779
  785POPC   D2A14944  42.900   2.111   8.346
  785POPC   C3A14945  43.007   1.853   8.001
  785POPC   C4A14946  43.031   1.963   7.584
  785POPC   C1B14947  43.577   1.977   8.799
  785POPC   C2B14948  43.417   2.061   8.351
  785POPC   C3B14949  43.475   2.045   7.884
  785POPC   C4B14950  43.469   2.202   7.443
  786POPC   NC314951  29.269   3.690   9.457
  786POPC   PO414952  29.699   3.268   9.372
  786POPC   GL114953  29.348   3.355   9.075
  786POPC   GL214954  28.996   3.323   9.183
  786POPC   C1A14955  29.239   3.503   8.638
  786POPC   D2A14956  28.958   3.264   8.320
  786POPC   C3A14957  29.152   3.261   7.918
  786POPC   C4A14958  29.301   3.668   7.697
  786POPC   C1B14959  28.781   3.401   8.794
  786POPC   C2B14960  28.800   3.745   8.474
  786POPC   C3B14961  28.898   3.706   8.053
  786POPC   C4B14962  28.800   3.487   7.648
  787POPC   NC314963  14.849  36.701   9.426
  787POPC   PO414964  14.325  37.013   9.767
  787POPC   GL114965  14.447  37.024   9.287
  787POPC   GL214966  14.756  37.044   9.061
  787POPC   C1A14967  14.302  36.950   8.847
  787POPC   D2A14968  14.259  37.137   8.434
  787POPC   C3A14969  14.355  37.030   8.005
  787POPC   C4A14970  14.080  37.047   7.659
  787POPC   C1B14971  14.772  36.902   8.630
  787POPC   C2B14972  14.760  36.768   8.206
  787POPC   C3B14973  14.797  36.799   7.773
  787POPC   C4B14974  14.535  36.977   7.457
  788POPC   NC314975  13.094  18.045   9.532
  788POPC   PO414976  12.607  18.490   9.680
  788POPC   GL114977  12.839  18.434   9.283
  788POPC   GL214978  13.172  18.499   9.267
  788POPC   C1A14979  12.849  18.476   8.823
  788POPC   D2A14980  12.836  18.358   8.391
  788POPC   C3A14981  12.804  18.660   8.056
  788POPC   C4A14982  12.809  18.402   7.700
  788POPC   C1B14983  13.319  18.325   8.850
  788POPC   C2B14984  13.326  18.242   8.405
  788POPC   C3B14985  13.153  18.134   7.994
  788POPC   C4B14986  13.258  18.266   7.541
  789POPC   NC314987  14.918  28.611   9.307
  789POPC   PO414988  15.390  29.149   9.473
  789POPC   GL114989  15.252  29.259   9.078
  789POPC   GL214990  14.952  29.086   9.129
  789POPC   C1A14991  15.207  29.063   8.674
  789POPC   D2A14992  15.471  29.035   8.303
  789POPC   C3A14993  15.300  29.154   7.911
  789POPC   C4A14994  15.308  29.187   7.498
  789POPC   C1B14995  14.727  28.939   8.752
  789POPC   C2B14996  14.862  29.082   8.310
  789POPC   C3B14997  14.749  29.107   7.880
  789POPC   C4B14998  14.969  28.818   7.630
  790POPC   NC314999  10.020  37.250   9.378
  790POPC   PO415000   9.405  37.029   9.326
  790POPC   GL115001   9.636  37.263   9.055
  790POPC   GL215002   9.865  36.967   8.985
  790POPC   C1A15003   9.684  37.294   8.633
  790POPC   D2A15004   9.507  37.117   8.278
  790POPC   C3A15005   9.768  37.189   7.924
  790POPC   C4A15006   9.691  37.090   7.482
  790POPC   C1B15007   9.926  36.825   8.553
  790POPC   C2B15008   9.824  36.719   8.114
  790POPC   C3B15009   9.771  36.621   7.669
  790POPC   C4B15010   9.874  36.671   7.218
  791POPC   NC315011  25.020  28.684   9.339
  791POPC   PO415012  25.078  29.362   9.435
  791POPC   GL115013  25.358  29.296   9.109
  791POPC   GL215014  25.328  28.976   9.034
  791POPC   C1A15015  25.425  29.484   8.735
  791POPC   D2A15016  25.262  29.463   8.351
  791POPC   C3A15017  25.368  29.119   8.089
  791POPC   C4A15018  25.425  29.241   7.676
  791POPC   C1B15019  25.199  29.025   8.616
  791POPC   C2B15020  24.897  29.087   8.322
  791POPC   C3B15021  24.524  28.962   8.102
  791POPC   C4B15022  24.628  29.125   7.709
  792POPC   NC315023  21.225  30.138   9.617
  792POPC   PO415024  21.379  29.560   9.323
  792POPC   GL115025  21.293  29.921   9.094
  792POPC   GL215026  21.574  30.141   9.195
  792POPC   C1A15027  21.251  29.832   8.647
  792POPC   D2A15028  21.477  29.527   8.425
  792POPC   C3A15029  21.393  29.675   8.056
  792POPC   C4A15030  21.092  29.981   7.879
  792POPC   C1B15031  21.637  30.148   8.747
  792POPC   C2B15032  21.495  30.260   8.302
  792POPC   C3B15033  21.616  30.118   7.876
  792POPC   C4B15034  21.986  30.036   7.629
  793POPC   NC315035   3.929  14.804   9.508
  793POPC   PO415036   3.339  14.698   9.518
  793POPC   GL115037   3.533  14.672   9.133
  793POPC   GL215038   3.369  14.332   9.107
  793POPC   C1A15039   3.639  14.567   8.697
  793POPC   D2A15040   3.485  14.426   8.284
  793POPC   C3A15041   3.679  14.508   7.829
  793POPC   C4A15042   4.079  14.467   7.547
  793POPC   C1B15043   3.169  14.026   8.842
  793POPC   C2B15044   3.122  13.973   8.407
  793POPC   C3B15045   3.289  14.066   7.981
  793POPC   C4B15046   3.136  14.162   7.585
  794POPC   NC315047   6.288   1.609   9.808
  794POPC   PO415048   6.853   1.405   9.518
  794POPC   GL115049   6.716   1.511   9.106
  794POPC   GL215050   6.370   1.492   9.256
  794POPC   C1A15051   6.744   1.535   8.609
  794POPC   D2A15052   6.832   1.258   8.234
  794POPC   C3A15053   6.700   1.231   7.796
  794POPC   C4A15054   6.875   0.969   7.434
  794POPC   C1B15055   6.308   1.333   8.841
  794POPC   C2B15056   6.325   1.283   8.418
  794POPC   C3B15057   6.252   1.188   8.019
  794POPC   C4B15058   6.242   1.465   7.707
  795POPC   NC315059  38.628  24.464   9.551
  795POPC   PO415060  37.990  24.301   9.589
  795POPC   GL115061  38.103  24.428   9.160
  795POPC   GL215062  38.391  24.632   9.125
  795POPC   C1A15063  38.236  24.358   8.723
  795POPC   D2A15064  38.397  24.541   8.345
  795POPC   C3A15065  38.159  24.366   8.010
  795POPC   C4A15066  38.079  23.924   8.079
  795POPC   C1B15067  38.742  24.501   8.825
  795POPC   C2B15068  38.903  24.602   8.409
  795POPC   C3B15069  38.721  24.766   8.026
  795POPC   C4B15070  38.553  24.474   7.718
  796POPC   NC315071  43.767  15.695   9.320
  796POPC   PO415072  43.955  14.979   9.495
  796POPC   GL115073  43.883  15.189   9.118
  796POPC   GL215074  43.592  15.009   9.072
  796POPC   C1A15075  43.727  15.384   8.712
  796POPC   D2A15076  43.561  15.475   8.258
  796POPC   C3A15077  43.868  15.463   7.891
  796POPC   C4A15078  43.946  15.526   7.442
  796POPC   C1B15079  43.711  14.810   8.701
  796POPC   C2B15080  43.737  15.010   8.337
  796POPC   C3B15081  43.600  15.027   7.927
  796POPC   C4B15082  43.674  15.030   7.491
  797POPC   NC315083  11.174   0.407   9.640
  797POPC   PO415084  11.762   0.086   9.420
  797POPC   GL115085  11.446   0.368   9.196
  797POPC   GL215086  11.273   0.711   9.232
  797POPC   C1A15087  11.080   0.337   8.952
  797POPC   D2A15088  10.952   0.323   8.540
  797POPC   C3A15089  11.244   0.158   8.273
  797POPC   C4A15090  11.204   0.296   7.873
  797POPC   C1B15091  11.317   0.773   8.790
  797POPC   C2B15092  11.248   0.695   8.372
  797POPC   C3B15093  11.327   0.777   7.956
  797POPC   C4B15094  11.056   0.751   7.587
  798POPC   NC315095  12.526  10.126   9.374
  798POPC   PO415096  13.102   9.744   9.566
  798POPC   GL115097  12.910   9.594   9.194
  798POPC   GL215098  13.027   9.255   9.093
  798POPC   C1A15099  12.633   9.578   8.823
  798POPC   D2A15100  12.616   9.899   8.532
  798POPC   C3A15101  12.664   9.886   8.098
  798POPC   C4A15102  12.570  10.183   7.789
  798POPC   C1B15103  13.123   9.510   8.738
  798POPC   C2B15104  12.863   9.456   8.354
  798POPC   C3B15105  12.902   9.472   7.912
  798POPC   C4B15106  13.066   9.477   7.489
  799POPC   NC315107  37.727   3.280   9.397
  799POPC   PO415108  37.861   3.787   9.235
  799POPC   GL115109  37.643   3.454   8.936
  799POPC   GL215110  37.338   3.249   9.032
  799POPC   C1A15111  37.726   3.241   8.566
  799POPC   D2A15112  37.925   3.384   8.241
  799POPC   C3A15113  37.769   3.533   7.867
  799POPC   C4A15114  37.631   3.767   7.490
  799POPC   C1B15115  37.238   3.330   8.582
  799POPC   C2B15116  37.399   3.269   8.138
  799POPC   C3B15117  37.256   3.432   7.725
  799POPC   C4B15118  36.837   3.432   7.497
  800POPC   NC315119   9.225  21.574   9.401
  800POPC   PO415120   8.576  21.247   9.252
  800POPC   GL115121   8.925  21.367   9.050
  800POPC   GL215122   9.203  21.160   9.092
  800POPC   C1A15123   9.024  21.609   8.700
  800POPC   D2A15124   8.903  21.420   8.320
  800POPC   C3A15125   9.129  21.489   7.976
  800POPC   C4A15126   8.913  21.479   7.600
  800POPC   C1B15127   9.181  21.111   8.652
  800POPC   C2B15128   9.164  20.964   8.241
  800POPC   C3B15129   9.117  20.999   7.810
  800POPC   C4B15130   9.019  21.025   7.385
  801POPC   NC315131  11.032  23.421   9.592
  801POPC   PO415132  11.567  23.896   9.452
  801POPC   GL115133  11.255  23.699   9.163
  801POPC   GL215134  10.969  23.486   9.110
  801POPC   C1A15135  11.274  23.522   8.732
  801POPC   D2A15136  11.096  23.569   8.353
  801POPC   C3A15137  11.435  23.766   8.098
  801POPC   C4A15138  11.601  23.591   7.729
  801POPC   C1B15139  10.903  23.887   8.827
  801POPC   C2B15140  10.732  23.995   8.419
  801POPC   C3B15141  10.935  23.904   8.018
  801POPC   C4B15142  11.082  23.571   7.799
  802POPC   NC315143  19.944  11.854   9.772
  802POPC   PO415144  19.546  12.259   9.477
  802POPC   GL115145  19.683  12.056   9.130
  802POPC   GL215146  19.981  11.925   9.171
  802POPC   C1A15147  19.776  12.152   8.726
  802POPC   D2A15148  19.902  12.290   8.349
  802POPC   C3A15149  19.648  12.187   8.025
  802POPC   C4A15150  19.610  12.069   7.576
  802POPC   C1B15151  20.225  11.914   8.781
  802POPC   C2B15152  20.395  12.062   8.403
  802POPC   C3B15153  20.255  12.162   8.001
  802POPC   C4B15154  20.092  11.929   7.674
  803POPC   NC315155  36.331  13.241   9.300
  803POPC   PO415156  36.060  13.855   9.431
  803POPC   GL115157  36.153  13.656   9.065
  803POPC   GL215158  36.467  13.712   9.100
  803POPC   C1A15159  36.273  13.528   8.636
  803POPC   D2A15160  36.359  13.448   8.196
  803POPC   C3A15161  36.054  13.497   7.883
  803POPC   C4A15162  36.000  13.460   7.446
  803POPC   C1B15163  36.438  13.999   8.762
  803POPC   C2B15164  36.536  13.958   8.366
  803POPC   C3B15165  36.357  13.941   7.971
  803POPC   C4B15166  36.192  13.911   7.599
  804POPC   NC315167   9.496  22.399   9.608
  804POPC   PO415168   9.698  21.703   9.544
  804POPC   GL115169   9.560  21.971   9.223
  804POPC   GL215170   9.807  22.260   9.227
  804POPC   C1A15171   9.437  21.943   8.788
  804POPC   D2A15172   9.731  21.789   8.456
  804POPC   C3A15173   9.553  21.827   8.036
  804POPC   C4A15174   9.630  22.024   7.621
  804POPC   C1B15175   9.829  22.260   8.782
  804POPC   C2B15176   9.730  22.284   8.329
  804POPC   C3B15177   9.990  22.153   7.970
  804POPC   C4B15178  10.145  22.467   7.675
  805POPC   NC315179  39.240  21.001   9.601
  805POPC   PO415180  39.585  21.560   9.410
  805POPC   GL115181  39.336  21.269   9.159
  805POPC   GL215182  39.405  21.480   8.899
  805POPC   C1A15183  38.971  21.230   8.841
  805POPC   D2A15184  38.839  21.412   8.418
  805POPC   C3A15185  39.179  21.442   8.101
  805POPC   C4A15186  39.617  21.354   7.925
  805POPC   C1B15187  39.143  21.743   8.706
  805POPC   C2B15188  39.174  22.003   8.363
  805POPC   C3B15189  39.196  21.949   7.935
  805POPC   C4B15190  38.841  21.720   7.799
  806POPC   NC315191  11.928  18.095   9.618
  806POPC   PO415192  12.072  18.699   9.437
  806POPC   GL115193  12.063  18.444   9.105
  806POPC   GL215194  12.391  18.466   9.051
  806POPC   C1A15195  12.043  18.532   8.664
  806POPC   D2A15196  11.814  18.364   8.319
  806POPC   C3A15197  11.893  18.524   7.922
  806POPC   C4A15198  11.829  18.503   7.503
  806POPC   C1B15199  12.457  18.183   8.723
  806POPC   C2B15200  12.337  18.180   8.323
  806POPC   C3B15201  12.381  18.394   7.963
  806POPC   C4B15202  12.311  18.348   7.530
  807POPC   NC315203  26.125  13.969   9.468
  807POPC   PO415204  26.142  13.297   9.496
  807POPC   GL115205  26.152  13.578   9.145
  807POPC   GL215206  26.492  13.652   9.059
  807POPC   C1A15207  25.912  13.749   8.797
  807POPC   D2A15208  25.578  13.707   8.466
  807POPC   C3A15209  25.692  13.923   8.091
  807POPC   C4A15210  25.935  13.792   7.762
  807POPC   C1B15211  26.405  13.727   8.644
  807POPC   C2B15212  26.203  13.724   8.234
  807POPC   C3B15213  26.373  13.574   7.826
  807POPC   C4B15214  26.337  13.785   7.432
  808POPC   NC315215  13.372  30.051   9.480
  808POPC   PO415216  13.929  29.679   9.566
  808POPC   GL115217  13.904  29.797   9.180
  808POPC   GL215218  13.555  29.718   9.163
  808POPC   C1A15219  13.870  29.631   8.767
  808POPC   D2A15220  13.706  29.890   8.424
  808POPC   C3A15221  13.792  29.697   8.055
  808POPC   C4A15222  13.826  29.656   7.633
  808POPC   C1B15223  13.365  29.805   8.770
  808POPC   C2B15224  13.211  29.865   8.311
  808POPC   C3B15225  13.337  29.833   7.854
  808POPC   C4B15226  13.364  29.597   7.430
  809POPC   NC315227   6.834  42.038   9.473
  809POPC   PO415228   6.822  42.644   9.125
  809POPC   GL115229   6.762  42.279   8.885
  809POPC   GL215230   6.606  41.998   8.993
  809POPC   C1A15231   6.804  42.187   8.460
  809POPC   D2A15232   6.671  42.499   8.183
  809POPC   C3A15233   6.633  42.295   7.821
  809POPC   C4A15234   6.630  41.869   7.814
  809POPC   C1B15235   6.332  42.031   8.633
  809POPC   C2B15236   6.280  42.126   8.182
  809POPC   C3B15237   6.144  42.153   7.747
  809POPC   C4B15238   6.289  42.355   7.401
  810POPC   NC315239  32.587   4.760   9.560
  810POPC   PO415240  33.194   5.079   9.816
  810POPC   GL115241  33.237   5.114   9.246
  810POPC   GL215242  32.865   5.139   9.192
  810POPC   C1A15243  33.140   5.006   8.792
  810POPC   D2A15244  32.940   5.124   8.387
  810POPC   C3A15245  33.156   5.063   8.014
  810POPC   C4A15246  33.185   4.901   7.591
  810POPC   C1B15247  32.937   5.483   8.860
  810POPC   C2B15248  32.686   5.600   8.496
  810POPC   C3B15249  32.664   5.432   8.066
  810POPC   C4B15250  33.020   5.469   7.771
  811POPC   NC315251  34.883  13.780   9.854
  811POPC   PO415252  34.255  13.673   9.550
  811POPC   GL115253  34.722  13.654   9.310
  811POPC   GL215254  34.893  13.309   9.289
  811POPC   C1A15255  34.844  13.750   8.828
  811POPC   D2A15256  34.692  13.706   8.349
  811POPC   C3A15257  34.732  13.903   7.899
  811POPC   C4A15258  34.730  13.949   7.427
  811POPC   C1B15259  34.915  13.237   8.826
  811POPC   C2B15260  35.046  13.325   8.386
  811POPC   C3B15261  34.828  13.384   7.962
  811POPC   C4B15262  34.460  13.531   7.665
  812POPC   NC315263  37.422  20.853   9.571
  812POPC   PO415264  37.696  20.274   9.277
  812POPC   GL115265  37.825  20.702   9.219
  812POPC   GL215266  37.518  20.812   9.070
  812POPC   C1A15267  37.967  20.805   8.789
  812POPC   D2A15268  37.678  20.903   8.406
  812POPC   C3A15269  37.574  20.681   7.994
  812POPC   C4A15270  37.725  20.503   7.584
  812POPC   C1B15271  37.224  20.945   8.749
  812POPC   C2B15272  37.199  21.099   8.319
  812POPC   C3B15273  37.182  21.028   7.867
  812POPC   C4B15274  37.268  20.745   7.522
  813POPC   NC315275  40.115  43.558   9.946
  813POPC   PO415276  39.679  43.047   9.625
  813POPC   GL115277  39.985  42.924   9.227
  813POPC   GL215278  40.026  42.625   8.986
  813POPC   C1A15279  40.009  43.091   8.753
  813POPC   D2A15280  40.224  43.245   8.348
  813POPC   C3A15281  40.003  43.305   7.934
  813POPC   C4A15282  40.007  43.008   7.585
  813POPC   C1B15283  39.773  42.657   8.576
  813POPC   C2B15284  39.788  42.976   8.274
  813POPC   C3B15285  39.584  42.960   7.879
  813POPC   C4B15286  39.581  42.742   7.486
  814POPC   NC315287   6.210   4.538   9.417
  814POPC   PO415288   5.561   4.522   9.511
  814POPC   GL115289   5.767   4.295   9.150
  814POPC   GL215290   6.069   4.078   9.228
  814POPC   C1A15291   5.898   4.394   8.711
  814POPC   D2A15292   5.746   4.476   8.283
  814POPC   C3A15293   5.572   4.170   8.033
  814POPC   C4A15294   5.789   4.163   7.642
  814POPC   C1B15295   6.333   4.168   8.849
  814POPC   C2B15296   6.404   4.257   8.419
  814POPC   C3B15297   6.179   4.288   8.003
  814POPC   C4B15298   6.218   4.432   7.556
  815POPC   NC315299  39.807  13.853   9.433
  815POPC   PO415300  40.155  13.250   9.486
  815POPC   GL115301  40.022  13.483   9.176
  815POPC   GL215302  40.188  13.368   8.970
  815POPC   C1A15303  39.822  13.634   8.786
  815POPC   D2A15304  39.842  13.555   8.347
  815POPC   C3A15305  39.936  13.730   7.970
  815POPC   C4A15306  39.871  13.882   7.529
  815POPC   C1B15307  40.343  13.655   8.714
  815POPC   C2B15308  40.449  13.425   8.384
  815POPC   C3B15309  40.406  13.357   7.971
  815POPC   C4B15310  40.306  13.624   7.642
  816POPC   NC315311  27.422  33.351   9.405
  816POPC   PO415312  27.754  33.960   9.486
  816POPC   GL115313  27.596  33.827   9.126
  816POPC   GL215314  27.251  33.906   9.217
  816POPC   C1A15315  27.751  33.515   8.816
  816POPC   D2A15316  27.945  33.323   8.439
  816POPC   C3A15317  27.768  33.557   8.103
  816POPC   C4A15318  27.704  33.852   7.788
  816POPC   C1B15319  27.162  33.681   8.849
  816POPC   C2B15320  27.054  33.861   8.449
  816POPC   C3B15321  27.263  33.814   8.070
  816POPC   C4B15322  27.159  33.639   7.684
  817POPC   NC315323  16.842  13.168   9.463
  817POPC   PO415324  16.382  12.704   9.638
  817POPC   GL115325  16.664  12.732   9.266
  817POPC   GL215326  16.936  12.526   9.191
  817POPC   C1A15327  16.834  12.915   8.859
  817POPC   D2A15328  16.768  12.847   8.424
  817POPC   C3A15329  16.577  13.092   8.104
  817POPC   C4A15330  16.540  12.932   7.713
  817POPC   C1B15331  16.845  12.403   8.748
  817POPC   C2B15332  16.927  12.332   8.320
  817POPC   C3B15333  16.814  12.596   7.981
  817POPC   C4B15334  16.825  12.552   7.519
  818POPC   NC315335  24.550  34.626   9.581
  818POPC   PO415336  23.954  34.685   9.446
  818POPC   GL115337  24.238  34.656   9.108
  818POPC   GL215338  24.463  34.405   9.128
  818POPC   C1A15339  24.216  34.500   8.673
  818POPC   D2A15340  23.993  34.378   8.291
  818POPC   C3A15341  24.288  34.339   8.013
  818POPC   C4A15342  24.397  34.620   7.728
  818POPC   C1B15343  24.690  34.652   8.819
  818POPC   C2B15344  24.739  34.561   8.393
  818POPC   C3B15345  24.800  34.376   7.977
  818POPC   C4B15346  24.638  34.154   7.659
  819POPC   NC315347  35.400   7.036   9.432
  819POPC   PO415348  35.429   6.249   9.596
  819POPC   GL115349  35.226   6.429   9.200
  819POPC   GL215350  35.426   6.705   9.078
  819POPC   C1A15351  35.118   6.535   8.740
  819POPC   D2A15352  35.334   6.523   8.354
  819POPC   C3A15353  35.176   6.759   7.996
  819POPC   C4A15354  35.123   6.623   7.599
  819POPC   C1B15355  35.621   6.847   8.715
  819POPC   C2B15356  35.750   6.841   8.301
  819POPC   C3B15357  35.665   6.610   7.941
  819POPC   C4B15358  35.617   6.723   7.526
  820POPC   NC315359  20.958  37.021   9.358
  820POPC   PO415360  20.536  36.542   9.392
  820POPC   GL115361  20.290  36.792   9.126
  820POPC   GL215362  20.525  37.045   9.040
  820POPC   C1A15363  20.404  36.669   8.710
  820POPC   D2A15364  20.272  36.634   8.325
  820POPC   C3A15365  20.403  36.906   8.041
  820POPC   C4A15366  20.535  36.657   7.729
  820POPC   C1B15367  20.638  37.106   8.595
  820POPC   C2B15368  20.814  36.797   8.331
  820POPC   C3B15369  20.986  36.758   7.935
  820POPC   C4B15370  20.862  37.017   7.586
  821POPC   NC315371  29.302   0.378   9.523
  821POPC   PO415372  28.718   0.715   9.592
  821POPC   GL115373  28.967   0.654   9.182
  821POPC   GL215374  28.992   0.299   9.119
  821POPC   C1A15375  28.986   0.597   8.698
  821POPC   D2A15376  29.276   0.496   8.360
  821POPC   C3A15377  29.138   0.538   7.923
  821POPC   C4A15378  29.346   0.674   7.555
  821POPC   C1B15379  28.888   0.085   8.745
  821POPC   C2B15380  28.815   0.161   8.311
  821POPC   C3B15381  28.804  44.932   7.919
  821POPC   C4B15382  29.042   0.122   7.585
  822POPC   NC315383   4.824  38.540   9.589
  822POPC   PO415384   5.505  38.662   9.619
  822POPC   GL115385   5.207  38.473   9.239
  822POPC   GL215386   4.955  38.743   9.143
  822POPC   C1A15387   5.067  38.244   8.821
  822POPC   D2A15388   5.048  38.004   8.414
  822POPC   C3A15389   5.000  38.215   8.017
  822POPC   C4A15390   5.047  38.350   7.583
  822POPC   C1B15391   5.105  38.750   8.731
  822POPC   C2B15392   4.930  38.638   8.329
  822POPC   C3B15393   4.752  38.666   7.899
  822POPC   C4B15394   4.784  38.744   7.402
  823POPC   NC315395  23.413  21.402   9.467
  823POPC   PO415396  22.817  21.298   9.506
  823POPC   GL115397  23.018  21.340   9.126
  823POPC   GL215398  23.244  21.100   9.101
  823POPC   C1A15399  23.109  21.418   8.676
  823POPC   D2A15400  22.801  21.633   8.387
  823POPC   C3A15401  22.800  21.495   7.958
  823POPC   C4A15402  23.211  21.432   7.701
  823POPC   C1B15403  22.960  20.940   8.805
  823POPC   C2B15404  22.841  21.005   8.402
  823POPC   C3B15405  23.005  21.029   8.014
  823POPC   C4B15406  22.828  21.060   7.676
  824POPC   NC315407  12.463   2.672   9.416
  824POPC   PO415408  12.020   3.196   9.437
  824POPC   GL115409  12.126   2.897   9.117
  824POPC   GL215410  12.482   2.967   9.018
  824POPC   C1A15411  12.173   2.594   8.771
  824POPC   D2A15412  11.984   2.709   8.404
  824POPC   C3A15413  12.072   2.607   8.011
  824POPC   C4A15414  11.916   2.816   7.674
  824POPC   C1B15415  12.574   2.883   8.608
  824POPC   C2B15416  12.404   2.952   8.199
  824POPC   C3B15417  12.397   2.892   7.735
  824POPC   C4B15418  12.238   2.992   7.313
  825POPC   NC315419  40.491  37.552   9.392
  825POPC   PO415420  41.079  37.503   9.809
  825POPC   GL115421  41.026  37.507   9.316
  825POPC   GL215422  40.851  37.820   9.178
  825POPC   C1A15423  40.959  37.469   8.845
  825POPC   D2A15424  40.559  37.367   8.580
  825POPC   C3A15425  40.563  37.555   8.143
  825POPC   C4A15426  40.819  37.471   7.759
  825POPC   C1B15427  40.610  37.853   8.787
  825POPC   C2B15428  40.739  38.190   8.523
  825POPC   C3B15429  40.940  38.287   8.135
  825POPC   C4B15430  40.887  37.988   7.798
  826POPC   NC315431  22.781  40.956   9.541
  826POPC   PO415432  23.302  40.598   9.685
  826POPC   GL115433  23.139  40.800   9.254
  826POPC   GL215434  22.909  40.598   9.144
  826POPC   C1A15435  22.719  40.975   8.909
  826POPC   D2A15436  22.572  41.043   8.486
  826POPC   C3A15437  22.852  40.995   8.146
  826POPC   C4A15438  22.851  40.651   7.852
  826POPC   C1B15439  23.164  40.809   8.762
  826POPC   C2B15440  23.421  40.663   8.455
  826POPC   C3B15441  23.311  40.766   8.076
  826POPC   C4B15442  23.350  40.584   7.740
  827POPC   NC315443  12.032  13.152   9.339
  827POPC   PO415444  12.017  12.657   9.832
  827POPC   GL115445  12.069  12.533   9.316
  827POPC   GL215446  12.327  12.749   9.191
  827POPC   C1A15447  11.958  12.561   8.851
  827POPC   D2A15448  12.225  12.657   8.522
  827POPC   C3A15449  12.115  12.598   8.128
  827POPC   C4A15450  11.858  12.806   7.857
  827POPC   C1B15451  12.412  13.044   8.812
  827POPC   C2B15452  12.505  13.065   8.357
  827POPC   C3B15453  12.154  13.187   8.110
  827POPC   C4B15454  12.046  13.240   7.680
  828POPC   NC315455  22.555  17.432   9.356
  828POPC   PO415456  21.882  17.375   9.531
  828POPC   GL115457  21.888  17.249   9.131
  828POPC   GL215458  22.128  17.510   9.075
  828POPC   C1A15459  22.004  17.199   8.698
  828POPC   D2A15460  21.887  17.461   8.355
  828POPC   C3A15461  22.056  17.311   7.976
  828POPC   C4A15462  22.481  17.232   7.764
  828POPC   C1B15463  21.986  17.792   8.770
  828POPC   C2B15464  22.166  17.895   8.375
  828POPC   C3B15465  22.429  17.694   8.084
  828POPC   C4B15466  22.599  17.903   7.750
  829POPC   NC315467   6.342  20.414   9.639
  829POPC   PO415468   6.873  20.803   9.471
  829POPC   GL115469   6.618  20.872   9.131
  829POPC   GL215470   6.285  20.775   9.268
  829POPC   C1A15471   6.381  20.853   8.779
  829POPC   D2A15472   6.345  20.969   8.405
  829POPC   C3A15473   6.613  20.782   8.125
  829POPC   C4A15474   6.577  20.898   7.707
  829POPC   C1B15475   6.450  20.399   9.009
  829POPC   C2B15476   6.482  20.373   8.564
  829POPC   C3B15477   6.448  20.173   8.161
  829POPC   C4B15478   6.443  20.399   7.783
  830POPC   NC315479   7.115  33.587   9.454
  830POPC   PO415480   7.655  34.041   9.431
  830POPC   GL115481   7.513  33.754   9.164
  830POPC   GL215482   7.184  33.932   9.063
  830POPC   C1A15483   7.444  33.526   8.812
  830POPC   D2A15484   7.167  33.695   8.528
  830POPC   C3A15485   7.343  33.737   8.147
  830POPC   C4A15486   7.220  33.711   7.724
  830POPC   C1B15487   7.477  34.080   8.750
  830POPC   C2B15488   7.652  34.214   8.340
  830POPC   C3B15489   7.554  34.133   7.917
  830POPC   C4B15490   7.673  33.859   7.575
  831POPC   NC315491   7.921  38.011   9.355
  831POPC   PO415492   7.851  38.510   9.719
  831POPC   GL115493   8.002  38.463   9.188
  831POPC   GL215494   8.322  38.247   9.131
  831POPC   C1A15495   7.909  38.286   8.732
  831POPC   D2A15496   7.881  38.108   8.286
  831POPC   C3A15497   7.850  38.408   7.915
  831POPC   C4A15498   7.791  38.761   7.605
  831POPC   C1B15499   8.366  38.531   8.786
  831POPC   C2B15500   8.515  38.671   8.410
  831POPC   C3B15501   8.351  38.465   8.070
  831POPC   C4B15502   8.290  38.587   7.665
  832POPC   NC315503   7.230  10.302   9.926
  832POPC   PO415504   7.473   9.805   9.546
  832POPC   GL115505   7.538  10.038   9.212
  832POPC   GL215506   7.566   9.753   9.048
  832POPC   C1A15507   7.317  10.157   8.807
  832POPC   D2A15508   7.113  10.113   8.396
  832POPC   C3A15509   7.358  10.056   8.007
  832POPC   C4A15510   7.296   9.959   7.563
  832POPC   C1B15511   7.705   9.639   8.675
  832POPC   C2B15512   7.505   9.636   8.292
  832POPC   C3B15513   7.571   9.576   7.880
  832POPC   C4B15514   7.275   9.466   7.581
  833POPC   NC315515   4.198  11.534   9.467
  833POPC   PO415516   4.588  11.019   9.584
  833POPC   GL115517   4.497  11.174   9.225
  833POPC   GL215518   4.146  11.112   9.141
  833POPC   C1A15519   4.698  11.039   8.847
  833POPC   D2A15520   4.445  10.931   8.514
  833POPC   C3A15521   4.572  11.056   8.113
  833POPC   C4A15522   4.588  11.363   7.823
  833POPC   C1B15523   4.313  11.378   8.806
  833POPC   C2B15524   4.336  11.433   8.385
  833POPC   C3B15525   4.108  11.369   8.036
  833POPC   C4B15526   4.141  11.505   7.636
  834POPC   NC315527   1.673  34.562   9.845
  834POPC   PO415528   2.152  34.407   9.280
  834POPC   GL115529   2.080  34.766   9.023
  834POPC   GL215530   1.806  34.687   9.041
  834POPC   C1A15531   1.929  34.891   8.615
  834POPC   D2A15532   1.982  34.598   8.296
  834POPC   C3A15533   1.915  34.796   7.941
  834POPC   C4A15534   2.067  34.775   7.539
  834POPC   C1B15535   1.812  34.372   8.727
  834POPC   C2B15536   1.602  34.189   8.393
  834POPC   C3B15537   1.539  34.446   8.035
  834POPC   C4B15538   1.789  34.372   7.680
  835POPC   NC315539  28.763  30.616   9.891
  835POPC   PO415540  28.297  30.677   9.396
  835POPC   GL115541  28.391  30.937   9.087
  835POPC   GL215542  28.110  31.156   9.074
  835POPC   C1A15543  28.421  30.814   8.647
  835POPC   D2A15544  28.267  30.757   8.231
  835POPC   C3A15545  28.513  30.604   7.866
  835POPC   C4A15546  28.237  30.300   7.631
  835POPC   C1B15547  28.397  31.305   8.747
  835POPC   C2B15548  28.476  31.246   8.294
  835POPC   C3B15549  28.306  31.110   7.881
  835POPC   C4B15550  28.059  30.808   7.730
  836POPC   NC315551  17.111  25.463   9.524
  836POPC   PO415552  17.625  25.142   9.365
  836POPC   GL115553  17.408  25.398   9.091
  836POPC   GL215554  17.708  25.603   9.046
  836POPC   C1A15555  17.239  25.180   8.736
  836POPC   D2A15556  17.346  24.955   8.354
  836POPC   C3A15557  17.350  25.264   8.016
  836POPC   C4A15558  17.209  25.330   7.562
  836POPC   C1B15559  17.792  25.246   8.722
  836POPC   C2B15560  17.832  25.098   8.265
  836POPC   C3B15561  17.836  25.354   7.881
  836POPC   C4B15562  17.669  25.613   7.557
  837POPC   NC315563  41.882  12.725   9.502
  837POPC   PO415564  42.452  13.068   9.643
  837POPC   GL115565  42.445  13.082   9.207
  837POPC   GL215566  42.236  12.801   9.126
  837POPC   C1A15567  42.300  13.190   8.801
  837POPC   D2A15568  42.063  12.978   8.473
  837POPC   C3A15569  42.158  13.022   8.025
  837POPC   C4A15570  42.483  13.129   7.734
  837POPC   C1B15571  42.611  12.762   8.866
  837POPC   C2B15572  42.828  12.587   8.550
  837POPC   C3B15573  42.809  12.510   8.123
  837POPC   C4B15574  42.596  12.640   7.752
  838POPC   NC315575   8.539  11.297   9.152
  838POPC   PO415576   8.132  10.892   9.457
  838POPC   GL115577   7.951  11.020   9.094
  838POPC   GL215578   8.016  11.373   9.067
  838POPC   C1A15579   7.979  11.051   8.654
  838POPC   D2A15580   7.791  10.884   8.297
  838POPC   C3A15581   7.833  11.216   8.014
  838POPC   C4A15582   8.127  11.358   7.733
  838POPC   C1B15583   8.191  11.524   8.642
  838POPC   C2B15584   8.267  11.488   8.205
  838POPC   C3B15585   8.566  11.563   7.857
  838POPC   C4B15586   8.437  11.785   7.461
  839POPC   NC315587  28.323  43.660   9.732
  839POPC   PO415588  28.778  44.071   9.673
  839POPC   GL115589  28.546  43.904   9.276
  839POPC   GL215590  28.277  43.658   9.231
  839POPC   C1A15591  28.555  43.850   8.801
  839POPC   D2A15592  28.703  43.947   8.366
  839POPC   C3A15593  28.446  43.992   8.034
  839POPC   C4A15594  28.450  43.920   7.620
  839POPC   C1B15595  28.079  43.675   8.835
  839POPC   C2B15596  28.136  43.912   8.453
  839POPC   C3B15597  27.984  43.790   8.042
  839POPC   C4B15598  27.977  43.622   7.633
  840POPC   NC315599  42.386  32.326   9.467
  840POPC   PO415600  42.423  31.654   9.656
  840POPC   GL115601  42.446  31.873   9.254
  840POPC   GL215602  42.105  32.048   9.127
  840POPC   C1A15603  42.572  32.131   8.868
  840POPC   D2A15604  42.355  32.177   8.487
  840POPC   C3A15605  42.512  32.274   8.095
  840POPC   C4A15606  42.332  32.108   7.741
  840POPC   C1B15607  42.112  32.441   8.852
  840POPC   C2B15608  42.176  32.654   8.467
  840POPC   C3B15609  42.321  32.784   8.073
  840POPC   C4B15610  42.200  32.607   7.696
  841POPC   NC315611   3.008  37.120   9.691
  841POPC   PO415612   2.594  36.621   9.501
  841POPC   GL115613   2.897  36.775   9.247
  841POPC   GL215614   2.859  37.104   9.210
  841POPC   C1A15615   2.975  36.766   8.815
  841POPC   D2A15616   2.790  36.586   8.454
  841POPC   C3A15617   2.901  36.786   8.091
  841POPC   C4A15618   2.772  36.921   7.688
  841POPC   C1B15619   2.621  37.153   8.841
  841POPC   C2B15620   2.480  37.022   8.437
  841POPC   C3B15621   2.583  37.227   8.060
  841POPC   C4B15622   2.881  37.427   7.743
  842POPC   NC315623  13.024  20.598   9.461
  842POPC   PO415624  12.449  20.739   9.726
  842POPC   GL115625  12.514  20.652   9.286
  842POPC   GL215626  12.651  20.334   9.099
  842POPC   C1A15627  12.387  20.761   8.870
  842POPC   D2A15628  12.588  20.658   8.486
  842POPC   C3A15629  12.438  20.627   8.066
  842POPC   C4A15630  12.584  20.752   7.674
  842POPC   C1B15631  12.903  20.292   8.676
  842POPC   C2B15632  12.972  20.456   8.220
  842POPC   C3B15633  12.944  20.399   7.762
  842POPC   C4B15634  13.061  20.183   7.356
  843POPC   NC315635  27.964  20.639   9.632
  843POPC   PO415636  28.429  20.195   9.606
  843POPC   GL115637  28.580  20.475   9.259
  843POPC   GL215638  28.389  20.797   9.325
  843POPC   C1A15639  28.674  20.430   8.812
  843POPC   D2A15640  28.496  20.604   8.440
  843POPC   C3A15641  28.653  20.497   8.059
  843POPC   C4A15642  28.502  20.686   7.717
  843POPC   C1B15643  28.253  20.720   8.899
  843POPC   C2B15644  28.104  20.924   8.513
  843POPC   C3B15645  27.965  20.851   8.103
  843POPC   C4B15646  28.108  20.997   7.732
  844POPC   NC315647  41.035  35.920   9.429
  844POPC   PO415648  40.629  36.409   9.480
  844POPC   GL115649  40.755  36.195   9.113
  844POPC   GL215650  41.103  36.322   9.143
  844POPC   C1A15651  40.837  35.911   8.771
  844POPC   D2A15652  41.027  35.826   8.366
  844POPC   C3A15653  40.763  35.949   8.036
  844POPC   C4A15654  40.559  36.159   7.704
  844POPC   C1B15655  41.278  36.171   8.752
  844POPC   C2B15656  41.254  36.309   8.319
  844POPC   C3B15657  41.218  36.145   7.914
  844POPC   C4B15658  41.014  35.990   7.548
  845POPC   NC315659   8.540   0.013   9.516
  845POPC   PO415660   9.232  44.674   9.469
  845POPC   GL115661   9.122  44.865   9.095
  845POPC   GL215662   8.782  44.985   9.061
  845POPC   C1A15663   9.146  44.959   8.674
  845POPC   D2A15664   9.092  44.723   8.345
  845POPC   C3A15665   9.027  44.911   7.982
  845POPC   C4A15666   8.990  44.744   7.574
  845POPC   C1B15667   8.735  44.643   8.735
  845POPC   C2B15668   8.609  44.562   8.336
  845POPC   C3B15669   8.716  44.515   7.947
  845POPC   C4B15670   8.500  44.340   7.666
  846POPC   NC315671  22.741  14.961   9.538
  846POPC   PO415672  23.401  15.189   9.582
  846POPC   GL115673  23.091  15.278   9.212
  846POPC   GL215674  22.755  15.149   9.080
  846POPC   C1A15675  23.030  15.454   8.774
  846POPC   D2A15676  22.835  15.273   8.409
  846POPC   C3A15677  23.115  15.363   8.057
  846POPC   C4A15678  23.075  15.270   7.611
  846POPC   C1B15679  23.057  14.949   8.830
  846POPC   C2B15680  23.110  14.828   8.408
  846POPC   C3B15681  22.935  14.873   8.001
  846POPC   C4B15682  23.157  14.740   7.642
  847POPC   NC315683  37.337  17.376   9.377
  847POPC   PO415684  37.999  17.162   9.450
  847POPC   GL115685  37.842  17.402   9.101
  847POPC   GL215686  37.645  17.714   9.156
  847POPC   C1A15687  37.601  17.312   8.732
  847POPC   D2A15688  37.453  17.515   8.354
  847POPC   C3A15689  37.724  17.459   7.985
  847POPC   C4A15690  37.621  17.167   7.668
  847POPC   C1B15691  37.601  17.818   8.739
  847POPC   C2B15692  37.926  17.660   8.470
  847POPC   C3B15693  38.139  17.772   8.133
  847POPC   C4B15694  37.951  17.871   7.729
  848POPC   NC315695  37.478  31.660   9.648
  848POPC   PO415696  36.805  31.550   9.574
  848POPC   GL115697  36.669  31.401   9.171
  848POPC   GL215698  36.967  31.258   9.038
  848POPC   C1A15699  36.528  31.220   8.795
  848POPC   D2A15700  36.658  31.434   8.458
  848POPC   C3A15701  36.815  31.360   8.069
  848POPC   C4A15702  36.664  31.514   7.706
  848POPC   C1B15703  36.950  31.663   8.813
  848POPC   C2B15704  37.119  31.673   8.371
  848POPC   C3B15705  37.163  31.703   7.900
  848POPC   C4B15706  37.124  31.471   7.486
  849POPC   NC315707  27.036  14.373   9.550
  849POPC   PO415708  26.571  13.835   9.513
  849POPC   GL115709  26.701  14.123   9.149
  849POPC   GL215710  26.832  14.450   9.093
  849POPC   C1A15711  26.623  14.227   8.689
  849POPC   D2A15712  26.633  14.023   8.284
  849POPC   C3A15713  26.832  14.246   7.923
  849POPC   C4A15714  26.630  14.427   7.545
  849POPC   C1B15715  26.895  14.678   8.710
  849POPC   C2B15716  26.829  14.638   8.262
  849POPC   C3B15717  27.000  14.728   7.852
  849POPC   C4B15718  27.140  14.429   7.526
  850POPC   NC315719  21.427   8.542   9.751
  850POPC   PO415720  21.171   9.153   9.665
  850POPC   GL115721  21.422   8.880   9.299
  850POPC   GL215722  21.567   9.118   9.086
  850POPC   C1A15723  21.340   8.722   8.835
  850POPC   D2A15724  21.069   8.865   8.464
  850POPC   C3A15725  21.175   8.796   8.020
  850POPC   C4A15726  21.424   8.862   7.663
  850POPC   C1B15727  21.325   9.227   8.740
  850POPC   C2B15728  21.466   9.375   8.373
  850POPC   C3B15729  21.440   9.280   7.954
  850POPC   C4B15730  21.056   9.264   7.771
  851POPC   NC315731  17.868  15.599   9.404
  851POPC   PO415732  17.608  16.237   9.410
  851POPC   GL115733  17.442  15.869   9.205
  851POPC   GL215734  17.144  15.802   9.037
  851POPC   C1A15735  17.554  15.737   8.768
  851POPC   D2A15736  17.401  15.876   8.375
  851POPC   C3A15737  17.600  16.143   8.094
  851POPC   C4A15738  17.488  15.871   7.780
  851POPC   C1B15739  17.010  15.742   8.674
  851POPC   C2B15740  16.886  15.957   8.314
  851POPC   C3B15741  17.002  16.038   7.879
  851POPC   C4B15742  17.118  15.928   7.451
  852POPC   NC315743  20.398   8.288   9.632
  852POPC   PO415744  21.076   8.326   9.547
  852POPC   GL115745  20.761   8.205   9.239
  852POPC   GL215746  20.925   8.455   9.051
  852POPC   C1A15747  20.550   8.184   8.816
  852POPC   D2A15748  20.355   8.426   8.479
  852POPC   C3A15749  20.331   8.305   8.046
  852POPC   C4A15750  20.469   8.450   7.674
  852POPC   C1B15751  20.965   8.388   8.615
  852POPC   C2B15752  20.798   8.189   8.262
  852POPC   C3B15753  20.912   8.305   7.864
  852POPC   C4B15754  21.043   8.526   7.540
  853POPC   NC315755  24.367  43.420   9.547
  853POPC   PO415756  23.892  43.070   9.490
  853POPC   GL115757  24.180  43.057   9.099
  853POPC   GL215758  23.959  43.041   8.829
  853POPC   C1A15759  24.442  42.993   8.668
  853POPC   D2A15760  24.804  43.057   8.343
  853POPC   C3A15761  24.700  42.987   7.887
  853POPC   C4A15762  24.634  42.792   7.483
  853POPC   C1B15763  24.096  43.361   8.549
  853POPC   C2B15764  24.332  43.248   8.171
  853POPC   C3B15765  24.159  43.048   7.794
  853POPC   C4B15766  24.002  43.202   7.372
  854POPC   NC315767  17.665  13.197   9.399
  854POPC   PO415768  17.174  12.728   9.575
  854POPC   GL115769  17.239  12.970   9.203
  854POPC   GL215770  17.532  12.767   9.164
  854POPC   C1A15771  17.403  13.116   8.774
  854POPC   D2A15772  17.719  12.958   8.428
  854POPC   C3A15773  17.634  13.048   7.979
  854POPC   C4A15774  17.314  13.333   7.799
  854POPC   C1B15775  17.290  12.617   8.842
  854POPC   C2B15776  17.249  12.715   8.474
  854POPC   C3B15777  17.355  12.634   8.110
  854POPC   C4B15778  17.205  12.822   7.763
  855POPC   NC315779  20.100  35.156   9.758
  855POPC   PO415780  19.583  35.282   9.386
  855POPC   GL115781  19.711  35.402   9.014
  855POPC   GL215782  19.474  35.266   8.825
  855POPC   C1A15783  19.973  35.381   8.677
  855POPC   D2A15784  20.127  35.311   8.279
  855POPC   C3A15785  19.977  35.413   7.879
  855POPC   C4A15786  20.161  35.133   7.563
  855POPC   C1B15787  19.539  35.695   8.621
  855POPC   C2B15788  19.578  35.656   8.164
  855POPC   C3B15789  19.467  35.308   7.901
  855POPC   C4B15790  19.619  35.245   7.515
  856POPC   NC315791  42.643  38.311   9.904
  856POPC   PO415792  42.200  38.437   9.419
  856POPC   GL115793  42.308  38.453   9.011
  856POPC   GL215794  42.565  38.223   8.992
  856POPC   C1A15795  42.268  38.467   8.570
  856POPC   D2A15796  42.192  38.571   8.144
  856POPC   C3A15797  42.137  38.213   7.895
  856POPC   C4A15798  42.376  38.055   7.628
  856POPC   C1B15799  42.769  38.515   8.710
  856POPC   C2B15800  42.669  38.632   8.292
  856POPC   C3B15801  42.590  38.499   7.836
  856POPC   C4B15802  42.669  38.420   7.391
  857POPC   NC315803  21.260   6.272   9.264
  857POPC   PO415804  21.497   6.828   9.550
  857POPC   GL115805  21.634   6.963   9.131
  857POPC   GL215806  21.403   7.162   9.008
  857POPC   C1A15807  21.665   6.750   8.731
  857POPC   D2A15808  21.853   6.660   8.331
  857POPC   C3A15809  21.553   6.523   8.004
  857POPC   C4A15810  21.242   6.273   7.713
  857POPC   C1B15811  20.975   7.089   8.781
  857POPC   C2B15812  20.916   6.929   8.337
  857POPC   C3B15813  21.075   6.696   7.986
  857POPC   C4B15814  21.107   6.735   7.542
  858POPC   NC315815  17.525  42.603   9.463
  858POPC   PO415816  17.384  41.980   9.270
  858POPC   GL115817  17.333  42.340   9.037
  858POPC   GL215818  17.084  42.616   9.105
  858POPC   C1A15819  17.629  42.319   8.722
  858POPC   D2A15820  17.800  42.327   8.326
  858POPC   C3A15821  17.656  42.123   7.952
  858POPC   C4A15822  17.740  42.217   7.485
  858POPC   C1B15823  17.151  42.674   8.683
  858POPC   C2B15824  17.236  42.332   8.404
  858POPC   C3B15825  17.157  42.129   8.035
  858POPC   C4B15826  17.253  42.247   7.642
  859POPC   NC315827  28.297  37.591   9.668
  859POPC   PO415828  27.951  38.189   9.536
  859POPC   GL115829  28.215  37.897   9.232
  859POPC   GL215830  28.556  37.981   9.182
  859POPC   C1A15831  28.242  37.720   8.769
  859POPC   D2A15832  28.098  37.666   8.298
  859POPC   C3A15833  28.260  37.411   7.915
  859POPC   C4A15834  28.232  37.507   7.480
  859POPC   C1B15835  28.453  38.186   8.766
  859POPC   C2B15836  28.511  38.027   8.317
  859POPC   C3B15837  28.484  37.877   7.860
  859POPC   C4B15838  28.313  38.012   7.446
  860POPC   NC315839  25.395   3.171   9.392
  860POPC   PO415840  25.699   3.627   9.477
  860POPC   GL115841  25.503   3.804   9.117
  860POPC   GL215842  25.414   3.480   8.985
  860POPC   C1A15843  25.382   3.853   8.661
  860POPC   D2A15844  25.561   3.682   8.270
  860POPC   C3A15845  25.273   3.592   7.947
  860POPC   C4A15846  24.897   3.784   7.795
  860POPC   C1B15847  25.344   3.318   8.556
  860POPC   C2B15848  25.513   3.181   8.136
  860POPC   C3B15849  25.560   3.243   7.662
  860POPC   C4B15850  25.528   3.362   7.183
  861POPC   NC315851  35.224  21.025   9.327
  861POPC   PO415852  35.340  21.684   9.463
  861POPC   GL115853  35.558  21.541   9.117
  861POPC   GL215854  35.666  21.183   9.095
  861POPC   C1A15855  35.306  21.373   8.786
  861POPC   D2A15856  35.138  21.178   8.453
  861POPC   C3A15857  35.339  21.218   8.091
  861POPC   C4A15858  35.172  21.284   7.698
  861POPC   C1B15859  35.822  21.392   8.694
  861POPC   C2B15860  35.829  21.296   8.241
  861POPC   C3B15861  35.738  21.220   7.771
  861POPC   C4B15862  35.783  21.098   7.316
  862POPC   NC315863  24.706  14.837   9.485
  862POPC   PO415864  24.355  15.418   9.671
  862POPC   GL115865  24.305  15.509   9.254
  862POPC   GL215866  24.319  15.174   9.194
  862POPC   C1A15867  24.477  15.508   8.819
  862POPC   D2A15868  24.692  15.216   8.571
  862POPC   C3A15869  24.602  15.189   8.144
  862POPC   C4A15870  24.707  15.147   7.754
  862POPC   C1B15871  24.019  15.327   8.853
  862POPC   C2B15872  24.169  15.333   8.434
  862POPC   C3B15873  24.225  15.512   8.029
  862POPC   C4B15874  24.175  15.148   7.757
  863POPC   NC315875   9.721   3.242   9.484
  863POPC   PO415876   9.875   3.922   9.565
  863POPC   GL115877   9.822   3.745   9.167
  863POPC   GL215878  10.014   3.448   9.101
  863POPC   C1A15879   9.582   3.606   8.811
  863POPC   D2A15880   9.449   3.793   8.430
  863POPC   C3A15881   9.444   3.589   8.053
  863POPC   C4A15882   9.761   3.438   7.810
  863POPC   C1B15883   9.904   3.180   8.729
  863POPC   C2B15884   9.775   3.177   8.275
  863POPC   C3B15885   9.999   3.005   7.885
  863POPC   C4B15886  10.228   3.277   7.621
  864POPC   NC315887   7.884  19.464   9.297
  864POPC   PO415888   7.331  19.961   9.445
  864POPC   GL115889   7.406  20.117   9.049
  864POPC   GL215890   7.553  19.779   8.995
  864POPC   C1A15891   7.486  20.097   8.598
  864POPC   D2A15892   7.346  19.771   8.340
  864POPC   C3A15893   7.364  19.860   7.914
  864POPC   C4A15894   7.723  19.850   7.640
  864POPC   C1B15895   7.122  19.676   8.801
  864POPC   C2B15896   6.936  19.468   8.404
  864POPC   C3B15897   7.003  19.510   7.956
  864POPC   C4B15898   7.143  19.595   7.518
  865POPC   NC315899  44.312  11.218   9.411
  865POPC   PO415900  44.901  11.497   9.390
  865POPC   GL115901  44.657  11.433   9.053
  865POPC   GL215902  44.700  11.097   9.095
  865POPC   C1A15903  44.315  11.269   8.776
  865POPC   D2A15904  44.210  11.162   8.385
  865POPC   C3A15905  44.472  11.357   8.069
  865POPC   C4A15906  44.312  11.431   7.634
  865POPC   C1B15907  44.795  11.140   8.650
  865POPC   C2B15908  44.653  10.907   8.295
  865POPC   C3B15909  44.818  11.022   7.897
  865POPC   C4B15910  44.942  11.411   7.756
  866POPC   NC315911   3.351  22.009   9.574
  866POPC   PO415912   3.823  22.419   9.584
  866POPC   GL115913   3.560  22.298   9.204
  866POPC   GL215914   3.329  22.024   9.065
  866POPC   C1A15915   3.695  22.302   8.782
  866POPC   D2A15916   3.849  22.197   8.375
  866POPC   C3A15917   3.530  22.200   8.071
  866POPC   C4A15918   3.452  22.397   7.677
  866POPC   C1B15919   3.555  21.807   8.725
  866POPC   C2B15920   3.520  21.639   8.349
  866POPC   C3B15921   3.199  21.817   8.052
  866POPC   C4B15922   3.031  22.099   7.736
  867POPC   NC315923  23.046  12.771   9.607
  867POPC   PO415924  23.110  13.364   9.219
  867POPC   GL115925  22.895  12.989   9.149
  867POPC   GL215926  23.057  12.665   9.124
  867POPC   C1A15927  22.833  12.923   8.725
  867POPC   D2A15928  23.058  12.857   8.356
  867POPC   C3A15929  22.810  13.088   8.083
  867POPC   C4A15930  22.657  13.012   7.698
  867POPC   C1B15931  23.066  12.482   8.752
  867POPC   C2B15932  22.724  12.458   8.441
  867POPC   C3B15933  22.680  12.573   8.005
  867POPC   C4B15934  23.060  12.635   7.743
  868POPC   NC315935   9.831  21.253   9.697
  868POPC   PO415936  10.323  21.330   9.211
  868POPC   GL115937   9.980  21.443   9.016
  868POPC   GL215938   9.682  21.338   9.196
  868POPC   C1A15939   9.959  21.236   8.620
  868POPC   D2A15940  10.079  21.113   8.239
  868POPC   C3A15941   9.945  21.466   8.077
  868POPC   C4A15942   9.912  21.627   7.727
  868POPC   C1B15943   9.522  21.448   8.789
  868POPC   C2B15944   9.503  21.351   8.327
  868POPC   C3B15945   9.562  21.224   7.883
  868POPC   C4B15946   9.395  21.374   7.492
  869POPC   NC315947  31.067  32.264   9.806
  869POPC   PO415948  31.649  31.922   9.558
  869POPC   GL115949  31.659  32.102   9.134
  869POPC   GL215950  31.549  32.429   9.016
  869POPC   C1A15951  31.895  32.170   8.753
  869POPC   D2A15952  32.025  32.041   8.341
  869POPC   C3A15953  31.641  32.076   8.095
  869POPC   C4A15954  31.551  32.122   7.672
  869POPC   C1B15955  31.246  32.377   8.670
  869POPC   C2B15956  31.163  32.382   8.214
  869POPC   C3B15957  31.208  32.546   7.788
  869POPC   C4B15958  31.114  32.552   7.324
  870POPC   NC315959  10.753  42.901   9.397
  870POPC   PO415960  10.274  43.263   9.567
  870POPC   GL115961  10.475  43.281   9.179
  870POPC   GL215962  10.166  43.404   9.084
  870POPC   C1A15963  10.728  43.137   8.791
  870POPC   D2A15964  11.024  43.260   8.468
  870POPC   C3A15965  10.894  43.203   8.045
  870POPC   C4A15966  10.656  43.162   7.684
  870POPC   C1B15967  10.165  43.013   8.877
  870POPC   C2B15968  10.353  42.957   8.490
  870POPC   C3B15969  10.321  43.035   8.059
  870POPC   C4B15970  10.149  43.196   7.675
  871POPC   NC315971  34.502  40.402   9.644
  871POPC   PO415972  34.806  39.969   9.969
  871POPC   GL115973  34.718  39.976   9.439
  871POPC   GL215974  34.824  40.285   9.230
  871POPC   C1A15975  34.502  39.998   8.981
  871POPC   D2A15976  34.639  39.899   8.528
  871POPC   C3A15977  34.481  40.005   8.091
  871POPC   C4A15978  34.560  39.846   7.656
  871POPC   C1B15979  34.895  40.269   8.773
  871POPC   C2B15980  34.812  40.343   8.311
  871POPC   C3B15981  34.871  40.224   7.852
  871POPC   C4B15982  34.755  40.236   7.377
  872POPC   NC315983  39.146  21.707   9.416
  872POPC   PO415984  39.248  22.441   9.546
  872POPC   GL115985  39.188  22.187   9.170
  872POPC   GL215986  39.492  21.985   9.063
  872POPC   C1A15987  38.907  22.179   8.810
  872POPC   D2A15988  38.897  22.451   8.460
  872POPC   C3A15989  38.872  22.339   8.032
  872POPC   C4A15990  39.161  22.444   7.729
  872POPC   C1B15991  39.425  22.303   8.707
  872POPC   C2B15992  39.412  22.426   8.253
  872POPC   C3B15993  39.648  22.390   7.873
  872POPC   C4B15994  39.562  22.202   7.478
  873POPC   NC315995  25.749  33.753   9.633
  873POPC   PO415996  26.393  33.659   9.943
  873POPC   GL115997  26.235  33.732   9.440
  873POPC   GL215998  26.242  34.000   9.279
  873POPC   C1A15999  25.980  33.720   8.974
  873POPC   D2A16000  25.981  33.637   8.510
  873POPC   C3A16001  25.843  33.674   8.074
  873POPC   C4A16002  26.008  33.470   7.695
  873POPC   C1B16003  26.358  34.057   8.843
  873POPC   C2B16004  26.238  34.192   8.443
  873POPC   C3B16005  26.414  34.175   8.069
  873POPC   C4B16006  26.282  33.875   7.818
  874POPC   NC316007  34.867   1.242   9.281
  874POPC   PO416008  34.331   1.224   9.704
  874POPC   GL116009  34.344   1.195   9.217
  874POPC   GL216010  34.480   1.471   8.997
  874POPC   C1A16011  34.482   0.998   8.782
  874POPC   D2A16012  34.782   1.003   8.446
  874POPC   C3A16013  34.515   0.965   8.111
  874POPC   C4A16014  34.501   1.126   7.715
  874POPC   C1B16015  34.575   1.469   8.574
  874POPC   C2B16016  34.733   1.420   8.165
  874POPC   C3B16017  34.901   1.422   7.794
  874POPC   C4B16018  34.729   1.766   7.675
  875POPC   NC316019   6.893  10.926   9.521
  875POPC   PO416020   7.515  10.574   9.659
  875POPC   GL116021   7.416  10.536   9.227
  875POPC   GL216022   7.281  10.828   9.184
  875POPC   C1A16023   7.607  10.586   8.800
  875POPC   D2A16024   7.434  10.515   8.392
  875POPC   C3A16025   7.701  10.452   8.020
  875POPC   C4A16026   7.509  10.412   7.614
  875POPC   C1B16027   7.110  10.744   8.777
  875POPC   C2B16028   7.123  10.906   8.356
  875POPC   C3B16029   7.291  10.769   7.945
  875POPC   C4B16030   7.288  10.979   7.548
  876POPC   NC316031  25.323  31.515   9.480
  876POPC   PO416032  24.753  31.917   9.548
  876POPC   GL116033  25.025  31.817   9.136
  876POPC   GL216034  25.083  31.450   9.019
  876POPC   C1A16035  25.222  31.818   8.683
  876POPC   D2A16036  25.265  31.565   8.297
  876POPC   C3A16037  25.091  31.609   7.866
  876POPC   C4A16038  24.954  31.523   7.415
  876POPC   C1B16039  25.493  31.389   8.779
  876POPC   C2B16040  25.604  31.193   8.372
  876POPC   C3B16041  25.490  31.237   7.923
  876POPC   C4B16042  25.708  31.088   7.518
  877POPC   NC316043   1.288  13.949   9.538
  877POPC   PO416044   1.193  14.654   9.578
  877POPC   GL116045   1.274  14.379   9.250
  877POPC   GL216046   1.040  14.145   9.130
  877POPC   C1A16047   1.306  14.418   8.807
  877POPC   D2A16048   1.380  14.719   8.523
  877POPC   C3A16049   1.315  14.638   8.097
  877POPC   C4A16050   1.543  14.549   7.731
  877POPC   C1B16051   0.837  14.285   8.749
  877POPC   C2B16052   1.014  14.179   8.368
  877POPC   C3B16053   0.905  14.322   7.979
  877POPC   C4B16054   1.057  14.470   7.628
  878POPC   NC316055  43.463  14.759   9.495
  878POPC   PO416056  42.781  14.564   9.587
  878POPC   GL116057  42.850  14.468   9.159
  878POPC   GL216058  43.186  14.462   9.158
  878POPC   C1A16059  42.913  14.555   8.699
  878POPC   D2A16060  42.722  14.412   8.287
  878POPC   C3A16061  43.054  14.378   8.030
  878POPC   C4A16062  43.349  14.592   7.854
  878POPC   C1B16063  43.290  14.178   8.832
  878POPC   C2B16064  43.409  14.295   8.411
  878POPC   C3B16065  43.482  14.101   8.018
  878POPC   C4B16066  43.326  14.128   7.623
  879POPC   NC316067  34.810  41.105   9.334
  879POPC   PO416068  34.334  40.819   9.737
  879POPC   GL116069  34.465  40.737   9.251
  879POPC   GL216070  34.451  41.051   9.015
  879POPC   C1A16071  34.492  40.588   8.799
  879POPC   D2A16072  34.447  40.786   8.385
  879POPC   C3A16073  34.595  40.645   7.963
  879POPC   C4A16074  34.368  40.355   7.691
  879POPC   C1B16075  34.729  41.164   8.655
  879POPC   C2B16076  34.799  41.081   8.191
  879POPC   C3B16077  34.839  41.092   7.739
  879POPC   C4B16078  34.884  41.388   7.424
  880POPC   NC316079   9.978  28.780   9.808
  880POPC   PO416080  10.016  28.134   9.718
  880POPC   GL116081   9.819  28.280   9.319
  880POPC   GL216082  10.147  28.257   9.164
  880POPC   C1A16083   9.524  28.126   8.939
  880POPC   D2A16084   9.442  28.329   8.504
  880POPC   C3A16085   9.405  28.182   8.060
  880POPC   C4A16086   9.516  28.467   7.678
  880POPC   C1B16087   9.917  28.393   8.795
  880POPC   C2B16088   9.932  28.231   8.376
  880POPC   C3B16089   9.817  28.475   8.086
  880POPC   C4B16090   9.962  28.695   7.766
  881POPC   NC316091  25.123  24.072   9.422
  881POPC   PO416092  25.529  23.443   9.391
  881POPC   GL116093  25.154  23.632   9.190
  881POPC   GL216094  25.208  23.393   8.982
  881POPC   C1A16095  24.913  23.774   8.799
  881POPC   D2A16096  25.111  23.685   8.390
  881POPC   C3A16097  24.956  23.867   8.004
  881POPC   C4A16098  25.039  23.732   7.590
  881POPC   C1B16099  25.447  23.746   8.788
  881POPC   C2B16100  25.747  23.691   8.461
  881POPC   C3B16101  25.686  23.646   8.021
  881POPC   C4B16102  25.450  23.960   7.817
  882POPC   NC316103   0.162  31.417   9.503
  882POPC   PO416104   0.835  31.528   9.674
  882POPC   GL116105   0.716  31.713   9.236
  882POPC   GL216106   0.459  31.504   9.102
  882POPC   C1A16107   0.631  31.837   8.750
  882POPC   D2A16108   0.342  31.848   8.363
  882POPC   C3A16109   0.349  31.644   7.970
  882POPC   C4A16110   0.363  31.774   7.567
  882POPC   C1B16111   0.175  31.587   8.763
  882POPC   C2B16112   0.040  31.403   8.380
  882POPC   C3B16113   0.064  31.228   7.941
  882POPC   C4B16114   0.253  31.293   7.511
  883POPC   NC316115  10.769   5.254   9.731
  883POPC   PO416116  11.425   5.034   9.519
  883POPC   GL116117  11.168   4.998   9.195
  883POPC   GL216118  11.177   4.712   9.043
  883POPC   C1A16119  11.037   5.128   8.766
  883POPC   D2A16120  11.139   4.929   8.363
  883POPC   C3A16121  11.151   5.207   8.005
  883POPC   C4A16122  10.926   5.169   7.605
  883POPC   C1B16123  11.473   4.832   8.755
  883POPC   C2B16124  11.532   4.611   8.377
  883POPC   C3B16125  11.327   4.599   8.012
  883POPC   C4B16126  11.374   4.867   7.714
  884POPC   NC316127  28.193  34.002   9.602
  884POPC   PO416128  28.627  33.476   9.572
  884POPC   GL116129  28.478  33.692   9.215
  884POPC   GL216130  28.114  33.712   9.190
  884POPC   C1A16131  28.551  33.824   8.768
  884POPC   D2A16132  28.539  33.983   8.332
  884POPC   C3A16133  28.691  33.717   7.985
  884POPC   C4A16134  28.812  33.313   7.949
  884POPC   C1B16135  28.034  33.949   8.827
  884POPC   C2B16136  28.076  33.796   8.431
  884POPC   C3B16137  28.195  33.820   7.990
  884POPC   C4B16138  28.487  34.160   7.814
  885POPC   NC316139  19.692  35.742   9.393
  885POPC   PO416140  20.175  36.058   9.645
  885POPC   GL116141  19.902  36.177   9.248
  885POPC   GL216142  20.145  36.301   9.055
  885POPC   C1A16143  19.671  36.232   8.794
  885POPC   D2A16144  19.872  36.294   8.339
  885POPC   C3A16145  19.704  36.178   7.896
  885POPC   C4A16146  19.650  35.766   7.644
  885POPC   C1B16147  20.013  35.892   8.832
  885POPC   C2B16148  20.009  35.793   8.401
  885POPC   C3B16149  20.102  35.891   8.005
  885POPC   C4B16150  20.225  36.294   7.884
  886POPC   NC316151  11.050  43.779   9.481
  886POPC   PO416152  11.457  44.255   9.773
  886POPC   GL116153  11.514  44.173   9.307
  886POPC   GL216154  11.172  44.143   9.174
  886POPC   C1A16155  11.547  44.037   8.838
  886POPC   D2A16156  11.324  44.133   8.448
  886POPC   C3A16157  11.437  44.014   8.037
  886POPC   C4A16158  11.230  43.980   7.651
  886POPC   C1B16159  11.067  43.855   8.815
  886POPC   C2B16160  10.896  43.771   8.429
  886POPC   C3B16161  10.904  43.820   8.007
  886POPC   C4B16162  10.879  43.603   7.593
  887POPC   NC316163  30.968  22.647   9.486
  887POPC   PO416164  31.626  22.439   9.555
  887POPC   GL116165  31.383  22.605   9.201
  887POPC   GL216166  31.275  22.923   9.155
  887POPC   C1A16167  31.477  22.586   8.767
  887POPC   D2A16168  31.547  22.843   8.425
  887POPC   C3A16169  31.567  22.753   7.998
  887POPC   C4A16170  31.686  23.092   7.743
  887POPC   C1B16171  31.149  23.006   8.722
  887POPC   C2B16172  31.057  23.007   8.270
  887POPC   C3B16173  31.169  23.060   7.817
  887POPC   C4B16174  31.272  23.227   7.406
  888POPC   NC316175   1.490   6.521   9.395
  888POPC   PO416176   0.994   6.672   9.730
  888POPC   GL116177   1.043   6.804   9.241
  888POPC   GL216178   1.415   6.984   9.204
  888POPC   C1A16179   0.983   6.568   8.803
  888POPC   D2A16180   1.246   6.415   8.468
  888POPC   C3A16181   1.156   6.374   8.011
  888POPC   C4A16182   0.907   6.601   7.692
  888POPC   C1B16183   1.380   6.883   8.773
  888POPC   C2B16184   1.144   6.932   8.399
  888POPC   C3B16185   1.174   6.939   7.948
  888POPC   C4B16186   1.424   6.626   7.635
  889POPC   NC316187  17.439  34.384   9.492
  889POPC   PO416188  17.130  34.950   9.241
  889POPC   GL116189  17.493  34.722   9.005
  889POPC   GL216190  17.489  34.353   8.988
  889POPC   C1A16191  17.729  34.600   8.629
  889POPC   D2A16192  17.482  34.282   8.403
  889POPC   C3A16193  17.245  34.511   8.080
  889POPC   C4A16194  17.375  34.896   7.771
  889POPC   C1B16195  17.845  34.116   8.737
  889POPC   C2B16196  17.996  34.189   8.297
  889POPC   C3B16197  17.760  34.395   7.954
  889POPC   C4B16198  17.454  34.420   7.623
  890POPC   NC316199  36.545  25.093   9.414
  890POPC   PO416200  35.876  25.310   9.472
  890POPC   GL116201  36.128  25.284   9.150
  890POPC   GL216202  36.348  25.575   9.232
  890POPC   C1A16203  36.064  25.116   8.737
  890POPC   D2A16204  36.165  24.822   8.405
  890POPC   C3A16205  36.064  25.043   8.082
  890POPC   C4A16206  36.013  25.107   7.670
  890POPC   C1B16207  36.266  25.588   8.778
  890POPC   C2B16208  36.152  25.471   8.365
  890POPC   C3B16209  36.163  25.534   7.922
  890POPC   C4B16210  36.118  25.569   7.483
  891POPC   NC316211   2.508   6.614   9.733
  891POPC   PO416212   1.932   6.675   9.397
  891POPC   GL116213   1.875   6.790   8.992
  891POPC   GL216214   1.698   6.476   8.919
  891POPC   C1A16215   1.834   6.833   8.534
  891POPC   D2A16216   1.561   6.713   8.171
  891POPC   C3A16217   1.875   6.680   7.859
  891POPC   C4A16218   2.259   6.885   7.845
  891POPC   C1B16219   2.063   6.369   8.657
  891POPC   C2B16220   2.209   6.462   8.238
  891POPC   C3B16221   2.195   6.288   7.824
  891POPC   C4B16222   1.920   6.351   7.448
  892POPC   NC316223  16.272   1.438   9.485
  892POPC   PO416224  16.717   0.910   9.506
  892POPC   GL116225  16.635   1.153   9.175
  892POPC   GL216226  16.669   1.504   9.161
  892POPC   C1A16227  16.777   1.036   8.796
  892POPC   D2A16228  16.551   0.938   8.470
  892POPC   C3A16229  16.705   0.821   8.057
  892POPC   C4A16230  16.814   1.026   7.702
  892POPC   C1B16231  16.439   1.432   8.768
  892POPC   C2B16232  16.346   1.392   8.322
  892POPC   C3B16233  16.599   1.424   7.948
  892POPC   C4B16234  16.565   1.453   7.490
  893POPC   NC316235  17.597   2.868   9.388
  893POPC   PO416236  17.300   2.375   9.616
  893POPC   GL116237  17.301   2.550   9.122
  893POPC   GL216238  17.337   2.952   8.983
  893POPC   C1A16239  17.499   2.532   8.685
  893POPC   D2A16240  17.786   2.355   8.335
  893POPC   C3A16241  17.845   2.605   7.931
  893POPC   C4A16242  17.737   3.092   7.773
  893POPC   C1B16243  17.399   3.026   8.551
  893POPC   C2B16244  17.452   2.743   8.209
  893POPC   C3B16245  17.391   2.745   7.778
  893POPC   C4B16246  17.212   2.516   7.488
  894POPC   NC316247  23.715  31.279   9.645
  894POPC   PO416248  23.774  31.880   9.740
  894POPC   GL116249  23.598  31.610   9.303
  894POPC   GL216250  23.856  31.519   9.121
  894POPC   C1A16251  23.470  31.246   8.979
  894POPC   D2A16252  23.538  31.120   8.530
  894POPC   C3A16253  23.564  31.375   8.150
  894POPC   C4A16254  23.718  31.294   7.717
  894POPC   C1B16255  23.770  31.587   8.705
  894POPC   C2B16256  24.034  31.404   8.409
  894POPC   C3B16257  24.111  31.475   7.999
  894POPC   C4B16258  24.064  31.648   7.588
  895POPC   NC316259  42.736  25.661   9.525
  895POPC   PO416260  43.151  25.176   9.496
  895POPC   GL116261  42.980  25.010   9.142
  895POPC   GL216262  42.675  25.118   9.275
  895POPC   C1A16263  43.118  25.146   8.705
  895POPC   D2A16264  43.076  25.275   8.232
  895POPC   C3A16265  43.272  25.045   7.875
  895POPC   C4A16266  43.439  25.315   7.529
  895POPC   C1B16267  42.758  25.442   8.914
  895POPC   C2B16268  42.767  25.614   8.497
  895POPC   C3B16269  42.728  25.600   8.035
  895POPC   C4B16270  42.919  25.362   7.715
  896POPC   NC316271  32.001  19.760   9.402
  896POPC   PO416272  32.565  20.102   9.446
  896POPC   GL116273  32.406  19.893   9.122
  896POPC   GL216274  32.139  20.141   9.109
  896POPC   C1A16275  32.434  19.641   8.742
  896POPC   D2A16276  32.201  19.711   8.362
  896POPC   C3A16277  32.377  19.642   7.977
  896POPC   C4A16278  32.531  19.370   7.679
  896POPC   C1B16279  32.060  19.996   8.758
  896POPC   C2B16280  31.778  19.974   8.492
  896POPC   C3B16281  31.706  20.097   8.107
  896POPC   C4B16282  31.966  19.985   7.817
  897POPC   NC316283  37.911  35.385   9.500
  897POPC   PO416284  37.470  34.887   9.601
  897POPC   GL116285  37.587  35.062   9.189
  897POPC   GL216286  37.571  35.395   9.129
  897POPC   C1A16287  37.720  34.965   8.787
  897POPC   D2A16288  37.743  35.155   8.390
  897POPC   C3A16289  37.528  35.072   8.050
  897POPC   C4A16290  37.779  34.984   7.735
  897POPC   C1B16291  37.536  35.684   8.816
  897POPC   C2B16292  37.506  35.642   8.415
  897POPC   C3B16293  37.669  35.759   8.047
  897POPC   C4B16294  37.604  35.659   7.650
  898POPC   NC316295  34.748  43.487   9.301
  898POPC   PO416296  34.407  44.062   9.387
  898POPC   GL116297  34.398  43.747   9.043
  898POPC   GL216298  34.620  43.997   8.904
  898POPC   C1A16299  34.526  43.531   8.669
  898POPC   D2A16300  34.792  43.746   8.359
  898POPC   C3A16301  34.706  43.724   7.931
  898POPC   C4A16302  34.607  43.561   7.527
  898POPC   C1B16303  34.379  44.376   8.770
  898POPC   C2B16304  34.239  44.436   8.349
  898POPC   C3B16305  34.372  44.156   8.022
  898POPC   C4B16306  34.394  44.196   7.579
  899POPC   NC316307  27.889  39.512   9.555
  899POPC   PO416308  27.226  39.439   9.548
  899POPC   GL116309  27.463  39.521   9.149
  899POPC   GL216310  27.527  39.219   9.148
  899POPC   C1A16311  27.604  39.537   8.695
  899POPC   D2A16312  27.603  39.248   8.332
  899POPC   C3A16313  27.426  39.351   7.951
  899POPC   C4A16314  27.554  39.392   7.530
  899POPC   C1B16315  27.420  39.046   8.774
  899POPC   C2B16316  27.247  38.841   8.432
  899POPC   C3B16317  27.293  38.867   7.985
  899POPC   C4B16318  27.614  38.847   7.657
  900POPC   NC316319   4.315  32.707   9.591
  900POPC   PO416320   4.553  33.288   9.768
  900POPC   GL116321   4.316  33.259   9.314
  900POPC   GL216322   4.234  32.897   9.143
  900POPC   C1A16323   4.213  33.279   8.842
  900POPC   D2A16324   4.151  32.999   8.472
  900POPC   C3A16325   4.244  33.214   8.045
  900POPC   C4A16326   4.465  33.148   7.625
  900POPC   C1B16327   4.447  32.670   8.828
  900POPC   C2B16328   4.605  32.704   8.404
  900POPC   C3B16329   4.331  32.707   8.077
  900POPC   C4B16330   4.151  32.713   7.689
  901POPC   NC316331  20.354   6.695   9.255
  901POPC   PO416332  19.783   6.908   9.541
  901POPC   GL116333  19.855   6.574   9.196
  901POPC   GL216334  19.533   6.503   9.026
  901POPC   C1A16335  19.981   6.428   8.763
  901POPC   D2A16336  19.898   6.628   8.374
  901POPC   C3A16337  20.069   6.577   7.987
  901POPC   C4A16338  20.102   6.818   7.632
  901POPC   C1B16339  19.454   6.458   8.576
  901POPC   C2B16340  19.468   6.480   8.148
  901POPC   C3B16341  19.614   6.743   7.829
  901POPC   C4B16342  19.598   6.804   7.388
  902POPC   NC316343  38.668  30.488   9.496
  902POPC   PO416344  38.321  31.071   9.406
  902POPC   GL116345  38.210  30.756   9.134
  902POPC   GL216346  38.469  30.522   9.037
  902POPC   C1A16347  38.054  30.812   8.739
  902POPC   D2A16348  38.154  31.067   8.386
  902POPC   C3A16349  38.247  30.877   7.989
  902POPC   C4A16350  38.595  30.972   7.723
  902POPC   C1B16351  38.254  30.335   8.718
  902POPC   C2B16352  38.473  30.280   8.342
  902POPC   C3B16353  38.521  30.431   7.914
  902POPC   C4B16354  38.326  30.288   7.554
  903POPC   NC316355  37.353  28.608   9.223
  903POPC   PO416356  37.554  28.044   9.565
  903POPC   GL116357  37.764  28.161   9.164
  903POPC   GL216358  38.028  28.403   9.116
  903POPC   C1A16359  37.702  28.296   8.727
  903POPC   D2A16360  37.591  28.233   8.301
  903POPC   C3A16361  37.499  28.579   8.027
  903POPC   C4A16362  37.672  28.309   7.736
  903POPC   C1B16363  38.003  28.713   8.795
  903POPC   C2B16364  37.860  28.706   8.383
  903POPC   C3B16365  38.025  28.591   8.006
  903POPC   C4B16366  38.244  28.831   7.712
  904POPC   NC316367  13.622  25.527   9.509
  904POPC   PO416368  13.691  26.212   9.537
  904POPC   GL116369  13.509  26.087   9.134
  904POPC   GL216370  13.350  25.757   9.134
  904POPC   C1A16371  13.748  26.051   8.738
  904POPC   D2A16372  13.677  25.800   8.373
  904POPC   C3A16373  13.758  25.975   7.969
  904POPC   C4A16374  13.869  26.132   7.569
  904POPC   C1B16375  13.259  25.928   8.709
  904POPC   C2B16376  13.290  26.137   8.316
  904POPC   C3B16377  13.281  25.820   8.017
  904POPC   C4B16378  13.354  25.834   7.620
  905POPC   NC316379  42.777  34.708   9.488
  905POPC   PO416380  43.501  34.657   9.569
  905POPC   GL116381  43.197  34.552   9.248
  905POPC   GL216382  43.246  34.867   9.120
  905POPC   C1A16383  42.953  34.548   8.844
  905POPC   D2A16384  43.096  34.769   8.478
  905POPC   C3A16385  42.908  34.687   8.087
  905POPC   C4A16386  42.710  34.428   7.771
  905POPC   C1B16387  43.463  34.598   8.815
  905POPC   C2B16388  43.393  34.338   8.438
  905POPC   C3B16389  43.406  34.513   8.003
  905POPC   C4B16390  43.207  34.804   7.702
  906POPC   NC316391   3.256  15.125   9.370
  906POPC   PO416392   3.948  15.277   9.514
  906POPC   GL116393   3.737  15.180   9.155
  906POPC   GL216394   3.517  15.464   9.073
  906POPC   C1A16395   3.697  15.091   8.724
  906POPC   D2A16396   3.405  14.943   8.386
  906POPC   C3A16397   3.617  14.998   7.981
  906POPC   C4A16398   3.982  14.956   7.704
  906POPC   C1B16399   3.241  15.318   8.729
  906POPC   C2B16400   3.194  15.416   8.304
  906POPC   C3B16401   3.358  15.422   7.897
  906POPC   C4B16402   3.284  15.535   7.475
  907POPC   NC316403  20.679  21.226   9.500
  907POPC   PO416404  20.690  21.841   9.490
  907POPC   GL116405  20.472  21.626   9.177
  907POPC   GL216406  20.782  21.488   9.083
  907POPC   C1A16407  20.403  21.254   8.866
  907POPC   D2A16408  20.633  21.137   8.502
  907POPC   C3A16409  20.346  21.133   8.149
  907POPC   C4A16410  20.437  21.307   7.740
  907POPC   C1B16411  20.663  21.653   8.668
  907POPC   C2B16412  20.628  21.567   8.206
  907POPC   C3B16413  20.667  21.770   7.829
  907POPC   C4B16414  20.824  21.569   7.450
  908POPC   NC316415  28.985  33.806   9.601
  908POPC   PO416416  29.306  33.215   9.675
  908POPC   GL116417  29.224  33.522   9.267
  908POPC   GL216418  29.248  33.892   9.185
  908POPC   C1A16419  29.176  33.595   8.794
  908POPC   D2A16420  28.985  33.737   8.412
  908POPC   C3A16421  29.216  33.673   8.005
  908POPC   C4A16422  29.400  33.756   7.587
  908POPC   C1B16423  28.985  34.076   8.890
  908POPC   C2B16424  28.958  34.253   8.507
  908POPC   C3B16425  28.957  34.152   8.077
  908POPC   C4B16426  28.969  34.075   7.643
  909POPC   NC316427   9.241   8.999   9.814
  909POPC   PO416428   9.132   9.314   9.252
  909POPC   GL116429   9.204   8.893   9.077
  909POPC   GL216430   8.925   8.649   9.060
  909POPC   C1A16431   9.299   8.932   8.624
  909POPC   D2A16432   9.143   9.288   8.345
  909POPC   C3A16433   8.920   9.186   7.944
  909POPC   C4A16434   9.023   9.014   7.510
  909POPC   C1B16435   8.828   8.515   8.652
  909POPC   C2B16436   8.924   8.758   8.304
  909POPC   C3B16437   8.970   8.676   7.903
  909POPC   C4B16438   8.644   8.699   7.615
  910POPC   NC316439  17.075   7.342   9.412
  910POPC   PO416440  16.444   7.535   9.423
  910POPC   GL116441  16.670   7.253   9.101
  910POPC   GL216442  17.014   7.363   8.918
  910POPC   C1A16443  16.579   7.223   8.677
  910POPC   D2A16444  16.742   7.533   8.422
  910POPC   C3A16445  16.569   7.484   8.045
  910POPC   C4A16446  16.550   7.158   7.751
  910POPC   C1B16447  17.082   7.786   8.786
  910POPC   C2B16448  17.101   7.905   8.399
  910POPC   C3B16449  17.068   7.716   8.028
  910POPC   C4B16450  16.949   7.484   7.695
  911POPC   NC316451  13.459  44.781   9.435
  911POPC   PO416452  13.961  44.484   9.349
  911POPC   GL116453  13.679  44.497   9.069
  911POPC   GL216454  13.377  44.339   9.207
  911POPC   C1A16455  13.745  44.643   8.661
  911POPC   D2A16456  13.541  44.894   8.350
  911POPC   C3A16457  13.665  44.832   7.931
  911POPC   C4A16458  13.994   0.092   7.747
  911POPC   C1B16459  13.257  44.451   8.787
  911POPC   C2B16460  13.419  44.374   8.387
  911POPC   C3B16461  13.231  44.427   8.020
  911POPC   C4B16462  13.423  44.440   7.647
  912POPC   NC316463  22.336   8.405   9.439
  912POPC   PO416464  21.917   7.791   9.462
  912POPC   GL116465  22.132   7.970   9.066
  912POPC   GL216466  22.243   8.291   8.962
  912POPC   C1A16467  22.036   7.973   8.599
  912POPC   D2A16468  21.779   8.044   8.204
  912POPC   C3A16469  21.946   8.152   7.781
  912POPC   C4A16470  21.885   8.526   7.522
  912POPC   C1B16471  22.530   8.123   8.675
  912POPC   C2B16472  22.397   8.149   8.269
  912POPC   C3B16473  22.167   8.500   8.092
  912POPC   C4B16474  22.348   8.509   7.706
  913POPC   NC316475  41.148  21.523   9.399
  913POPC   PO416476  40.522  21.220   9.490
  913POPC   GL116477  40.657  21.451   9.154
  913POPC   GL216478  40.500  21.777   9.144
  913POPC   C1A16479  40.723  21.235   8.769
  913POPC   D2A16480  40.738  21.377   8.327
  913POPC   C3A16481  40.515  21.385   7.952
  913POPC   C4A16482  40.864  21.240   7.728
  913POPC   C1B16483  40.660  21.733   8.686
  913POPC   C2B16484  40.845  21.868   8.283
  913POPC   C3B16485  40.911  21.737   7.862
  913POPC   C4B16486  40.805  21.658   7.429
  914POPC   NC316487  37.528  11.375   9.474
  914POPC   PO416488  38.096  11.778   9.508
  914POPC   GL116489  37.963  11.562   9.100
  914POPC   GL216490  37.604  11.436   8.975
  914POPC   C1A16491  37.964  11.519   8.636
  914POPC   D2A16492  37.701  11.263   8.377
  914POPC   C3A16493  37.789  11.401   7.994
  914POPC   C4A16494  37.796  11.282   7.585
  914POPC   C1B16495  37.340  11.141   8.746
  914POPC   C2B16496  37.303  10.940   8.326
  914POPC   C3B16497  37.470  11.021   7.907
  914POPC   C4B16498  37.446  10.984   7.432
  915POPC   NC316499  27.751  19.168   9.444
  915POPC   PO416500  27.643  18.568   9.731
  915POPC   GL116501  27.486  18.600   9.240
  915POPC   GL216502  27.375  18.924   9.160
  915POPC   C1A16503  27.599  18.682   8.774
  915POPC   D2A16504  27.803  18.999   8.508
  915POPC   C3A16505  27.671  18.959   8.107
  915POPC   C4A16506  27.889  18.950   7.761
  915POPC   C1B16507  27.519  19.240   8.845
  915POPC   C2B16508  27.459  19.392   8.475
  915POPC   C3B16509  27.537  19.470   8.103
  915POPC   C4B16510  27.393  19.233   7.765
  916POPC   NC316511   8.623  33.403   9.435
  916POPC   PO416512   8.073  33.149   9.603
  916POPC   GL116513   8.203  32.956   9.201
  916POPC   GL216514   8.393  33.152   9.027
  916POPC   C1A16515   8.125  32.797   8.753
  916POPC   D2A16516   8.052  32.902   8.285
  916POPC   C3A16517   8.199  32.907   7.815
  916POPC   C4A16518   8.093  32.692   7.403
  916POPC   C1B16519   8.443  33.160   8.583
  916POPC   C2B16520   8.519  33.166   8.151
  916POPC   C3B16521   8.611  33.219   7.737
  916POPC   C4B16522   8.934  33.433   7.525
  917POPC   NC316523   0.697   8.504   9.559
  917POPC   PO416524   0.066   8.185   9.511
  917POPC   GL116525   0.423   8.210   9.173
  917POPC   GL216526   0.661   8.480   9.053
  917POPC   C1A16527   0.359   8.245   8.704
  917POPC   D2A16528   0.176   8.483   8.336
  917POPC   C3A16529   0.316   8.280   7.987
  917POPC   C4A16530   0.587   7.917   7.864
  917POPC   C1B16531   0.784   8.561   8.631
  917POPC   C2B16532   0.725   8.512   8.167
  917POPC   C3B16533   0.807   8.350   7.734
  917POPC   C4B16534   0.775   8.525   7.290
  918POPC   NC316535  38.396  20.008   9.461
  918POPC   PO416536  38.309  19.301   9.451
  918POPC   GL116537  38.405  19.580   9.172
  918POPC   GL216538  38.733  19.570   9.234
  918POPC   C1A16539  38.289  19.676   8.748
  918POPC   D2A16540  38.109  19.886   8.383
  918POPC   C3A16541  38.322  20.048   8.077
  918POPC   C4A16542  38.513  19.798   7.763
  918POPC   C1B16543  38.733  19.906   8.914
  918POPC   C2B16544  38.594  20.060   8.526
  918POPC   C3B16545  38.819  20.036   8.141
  918POPC   C4B16546  38.808  20.196   7.749
  919POPC   NC316547  20.908  17.954   9.594
  919POPC   PO416548  20.252  18.260   9.566
  919POPC   GL116549  20.590  18.409   9.340
  919POPC   GL216550  20.636  18.155   9.192
  919POPC   C1A16551  20.613  18.611   8.929
  919POPC   D2A16552  20.666  18.363   8.581
  919POPC   C3A16553  20.532  18.452   8.196
  919POPC   C4A16554  20.708  18.496   7.804
  919POPC   C1B16555  20.924  18.041   8.891
  919POPC   C2B16556  20.915  17.908   8.483
  919POPC   C3B16557  21.074  17.933   8.079
  919POPC   C4B16558  21.061  17.785   7.690
  920POPC   NC316559  25.417  11.613   9.507
  920POPC   PO416560  25.043  11.051   9.423
  920POPC   GL116561  25.124  11.377   9.129
  920POPC   GL216562  25.476  11.361   9.078
  920POPC   C1A16563  25.160  11.527   8.708
  920POPC   D2A16564  25.252  11.299   8.322
  920POPC   C3A16565  25.399  11.506   7.948
  920POPC   C4A16566  25.406  11.419   7.485
  920POPC   C1B16567  25.373  11.039   8.769
  920POPC   C2B16568  25.549  10.865   8.388
  920POPC   C3B16569  25.437  10.974   7.945
  920POPC   C4B16570  25.352  10.881   7.504
  921POPC   NC316571  41.144  27.995   9.392
  921POPC   PO416572  41.708  28.298   9.475
  921POPC   GL116573  41.383  28.400   9.168
  921POPC   GL216574  41.332  28.135   8.935
  921POPC   C1A16575  41.333  28.675   8.800
  921POPC   D2A16576  41.536  28.690   8.393
  921POPC   C3A16577  41.263  28.602   8.066
  921POPC   C4A16578  41.185  28.290   7.759
  921POPC   C1B16579  41.714  28.338   8.778
  921POPC   C2B16580  41.799  28.236   8.385
  921POPC   C3B16581  41.621  28.257   8.026
  921POPC   C4B16582  41.881  28.255   7.689
  922POPC   NC316583  22.476  32.055   9.479
  922POPC   PO416584  22.228  32.625   9.566
  922POPC   GL116585  22.279  32.428   9.170
  922POPC   GL216586  22.053  32.111   9.143
  922POPC   C1A16587  22.291  32.371   8.729
  922POPC   D2A16588  22.214  32.129   8.341
  922POPC   C3A16589  22.139  32.315   7.945
  922POPC   C4A16590  22.372  32.262   7.573
  922POPC   C1B16591  22.171  31.863   8.780
  922POPC   C2B16592  21.993  31.674   8.425
  922POPC   C3B16593  21.904  31.838   8.039
  922POPC   C4B16594  21.963  31.954   7.601
  923POPC   NC316595  41.247  27.002   9.405
  923POPC   PO416596  41.962  26.924   9.466
  923POPC   GL116597  41.650  26.814   9.161
  923POPC   GL216598  41.349  26.559   9.165
  923POPC   C1A16599  41.614  26.951   8.771
  923POPC   D2A16600  41.874  26.882   8.421
  923POPC   C3A16601  41.659  26.932   8.019
  923POPC   C4A16602  41.799  26.847   7.627
  923POPC   C1B16603  41.536  26.466   8.786
  923POPC   C2B16604  41.429  26.608   8.366
  923POPC   C3B16605  41.544  26.446   7.953
  923POPC   C4B16606  41.382  26.508   7.554
  924POPC   NC316607  34.984  30.629   9.453
  924POPC   PO416608  35.587  30.914   9.454
  924POPC   GL116609  35.308  30.859   9.103
  924POPC   GL216610  34.953  30.961   9.077
  924POPC   C1A16611  35.373  30.599   8.747
  924POPC   D2A16612  35.616  30.343   8.461
  924POPC   C3A16613  35.656  30.566   8.086
  924POPC   C4A16614  35.380  30.605   7.708
  924POPC   C1B16615  35.078  31.012   8.652
  924POPC   C2B16616  35.123  30.720   8.317
  924POPC   C3B16617  34.942  30.842   7.971
  924POPC   C4B16618  34.974  30.874   7.555
  925POPC   NC316619   7.267  24.284   9.814
  925POPC   PO416620   7.552  24.798   9.480
  925POPC   GL116621   7.470  24.487   9.147
  925POPC   GL216622   7.435  24.123   9.229
  925POPC   C1A16623   7.434  24.591   8.704
  925POPC   D2A16624   7.466  24.434   8.305
  925POPC   C3A16625   7.531  24.763   8.024
  925POPC   C4A16626   7.339  24.744   7.616
  925POPC   C1B16627   7.266  24.102   8.782
  925POPC   C2B16628   7.080  24.052   8.376
  925POPC   C3B16629   7.165  24.177   7.983
  925POPC   C4B16630   7.517  24.297   7.776
  926POPC   NC316631  10.458  15.016  10.126
  926POPC   PO416632  10.872  15.249   9.796
  926POPC   GL116633  10.884  15.131   9.311
  926POPC   GL216634  10.557  14.998   9.162
  926POPC   C1A16635  10.904  15.127   8.807
  926POPC   D2A16636  10.687  15.285   8.381
  926POPC   C3A16637  10.656  15.151   7.920
  926POPC   C4A16638  10.573  15.339   7.494
  926POPC   C1B16639  10.423  14.946   8.685
  926POPC   C2B16640  10.277  14.983   8.220
  926POPC   C3B16641  10.136  15.295   7.896
  926POPC   C4B16642   9.926  15.306   7.475
  927POPC   NC316643  27.542  16.469   9.536
  927POPC   PO416644  27.859  17.074   9.563
  927POPC   GL116645  27.759  16.851   9.183
  927POPC   GL216646  27.398  16.838   9.127
  927POPC   C1A16647  27.718  16.784   8.722
  927POPC   D2A16648  27.629  16.549   8.336
  927POPC   C3A16649  27.518  16.776   7.980
  927POPC   C4A16650  27.777  17.131   7.899
  927POPC   C1B16651  27.328  16.465   8.811
  927POPC   C2B16652  27.148  16.382   8.351
  927POPC   C3B16653  27.316  16.292   7.895
  927POPC   C4B16654  27.643  16.268   7.535
  928POPC   NC316655  25.348  18.602   9.597
  928POPC   PO416656  25.357  19.241   9.447
  928POPC   GL116657  25.301  19.058   9.100
  928POPC   GL216658  25.240  18.716   9.112
  928POPC   C1A16659  25.249  19.254   8.715
  928POPC   D2A16660  25.308  19.102   8.321
  928POPC   C3A16661  25.012  19.045   8.024
  928POPC   C4A16662  25.206  19.212   7.672
  928POPC   C1B16663  25.064  18.778   8.720
  928POPC   C2B16664  25.259  18.617   8.379
  928POPC   C3B16665  25.368  18.691   7.955
  928POPC   C4B16666  25.057  18.737   7.591
  929POPC   NC316667  37.894  23.879   9.780
  929POPC   PO416668  38.499  23.711   9.557
  929POPC   GL116669  38.552  23.457   9.157
  929POPC   GL216670  38.195  23.397   9.101
  929POPC   C1A16671  38.727  23.632   8.759
  929POPC   D2A16672  38.508  23.984   8.497
  929POPC   C3A16673  38.626  24.105   8.080
  929POPC   C4A16674  38.449  23.940   7.696
  929POPC   C1B16675  38.219  23.622   8.743
  929POPC   C2B16676  38.422  23.473   8.361
  929POPC   C3B16677  38.315  23.498   7.942
  929POPC   C4B16678  38.435  23.359   7.553
  930POPC   NC316679   7.141  35.151   9.434
  930POPC   PO416680   7.444  35.695   9.683
  930POPC   GL116681   7.433  35.534   9.259
  930POPC   GL216682   7.308  35.292   8.994
  930POPC   C1A16683   7.577  35.677   8.850
  930POPC   D2A16684   7.330  35.582   8.520
  930POPC   C3A16685   7.501  35.570   8.114
  930POPC   C4A16686   7.659  35.415   7.726
  930POPC   C1B16687   7.112  35.100   8.623
  930POPC   C2B16688   7.080  35.224   8.227
  930POPC   C3B16689   7.312  35.100   7.912
  930POPC   C4B16690   7.369  35.048   7.498
  931POPC   NC316691  25.217  42.915   9.566
  931POPC   PO416692  24.821  43.431   9.564
  931POPC   GL116693  25.124  43.212   9.169
  931POPC   GL216694  25.369  42.868   9.108
  931POPC   C1A16695  25.185  43.133   8.713
  931POPC   D2A16696  25.421  43.256   8.340
  931POPC   C3A16697  25.178  43.168   7.952
  931POPC   C4A16698  25.009  43.200   7.497
  931POPC   C1B16699  25.437  42.658   8.734
  931POPC   C2B16700  25.255  42.768   8.329
  931POPC   C3B16701  25.452  42.738   7.922
  931POPC   C4B16702  25.162  42.725   7.557
  932POPC   NC316703  34.935  19.586   9.495
  932POPC   PO416704  34.427  19.943   9.698
  932POPC   GL116705  34.692  19.995   9.278
  932POPC   GL216706  34.747  19.704   9.045
  932POPC   C1A16707  34.616  20.104   8.814
  932POPC   D2A16708  34.613  19.814   8.477
  932POPC   C3A16709  34.748  19.960   8.080
  932POPC   C4A16710  34.587  19.912   7.696
  932POPC   C1B16711  34.945  19.431   8.747
  932POPC   C2B16712  34.751  19.320   8.367
  932POPC   C3B16713  34.826  19.395   7.974
  932POPC   C4B16714  34.896  19.517   7.573
  933POPC   NC316715  33.155  19.594   9.742
  933POPC   PO416716  33.146  19.059   9.319
  933POPC   GL116717  32.959  19.214   8.998
  933POPC   GL216718  32.667  19.025   8.981
  933POPC   C1A16719  33.032  19.190   8.575
  933POPC   D2A16720  33.346  19.047   8.265
  933POPC   C3A16721  33.231  19.299   7.943
  933POPC   C4A16722  33.024  19.342   7.561
  933POPC   C1B16723  32.614  18.813   8.600
  933POPC   C2B16724  32.902  18.798   8.259
  933POPC   C3B16725  32.928  18.867   7.821
  933POPC   C4B16726  32.581  18.792   7.543
  934POPC   NC316727  26.483  22.687   9.499
  934POPC   PO416728  26.864  22.114   9.503
  934POPC   GL116729  26.671  22.063   9.100
  934POPC   GL216730  26.443  22.370   9.066
  934POPC   C1A16731  26.427  21.960   8.739
  934POPC   D2A16732  26.474  21.922   8.283
  934POPC   C3A16733  26.579  22.053   7.862
  934POPC   C4A16734  27.006  22.205   7.805
  934POPC   C1B16735  26.654  22.420   8.650
  934POPC   C2B16736  26.723  22.463   8.181
  934POPC   C3B16737  26.552  22.560   7.744
  934POPC   C4B16738  26.393  22.574   7.296
  935POPC   NC316739   5.637  31.463   9.607
  935POPC   PO416740   6.135  31.745   9.705
  935POPC   GL116741   6.007  31.354   9.290
  935POPC   GL216742   5.644  31.369   9.124
  935POPC   C1A16743   6.002  31.342   8.769
  935POPC   D2A16744   5.925  31.608   8.398
  935POPC   C3A16745   6.062  31.569   7.966
  935POPC   C4A16746   6.007  31.780   7.547
  935POPC   C1B16747   5.546  31.601   8.770
  935POPC   C2B16748   5.435  31.455   8.366
  935POPC   C3B16749   5.527  31.620   7.967
  935POPC   C4B16750   5.550  31.533   7.543
  936POPC   NC316751  44.953  32.486   9.798
  936POPC   PO416752  44.551  32.015   9.604
  936POPC   GL116753  44.547  32.006   9.100
  936POPC   GL216754  44.468  32.381   9.120
  936POPC   C1A16755  44.548  32.183   8.679
  936POPC   D2A16756  44.628  32.501   8.387
  936POPC   C3A16757  44.465  32.261   8.075
  936POPC   C4A16758  44.566  32.023   7.735
  936POPC   C1B16759  44.869  32.552   8.835
  936POPC   C2B16760   0.072  32.784   8.489
  936POPC   C3B16761   0.041  32.616   8.066
  936POPC   C4B16762  44.792  32.481   7.744
  937POPC   NC316763  40.158  38.454   9.396
  937POPC   PO416764  39.498  38.188   9.427
  937POPC   GL116765  39.691  38.491   9.149
  937POPC   GL216766  39.844  38.220   9.012
  937POPC   C1A16767  39.948  38.662   8.788
  937POPC   D2A16768  39.968  38.452   8.399
  937POPC   C3A16769  40.038  38.697   8.068
  937POPC   C4A16770  40.054  38.610   7.655
  937POPC   C1B16771  40.218  38.185   8.748
  937POPC   C2B16772  40.299  38.048   8.304
  937POPC   C3B16773  40.023  38.142   7.966
  937POPC   C4B16774  40.029  38.123   7.527
  938POPC   NC316775  15.369   1.850   9.475
  938POPC   PO416776  14.791   1.680   9.232
  938POPC   GL116777  15.010   2.049   9.061
  938POPC   GL216778  15.359   2.092   9.011
  938POPC   C1A16779  15.064   2.201   8.617
  938POPC   D2A16780  15.035   1.955   8.260
  938POPC   C3A16781  14.822   2.074   7.899
  938POPC   C4A16782  14.965   2.325   7.579
  938POPC   C1B16783  15.522   1.886   8.667
  938POPC   C2B16784  15.537   2.070   8.288
  938POPC   C3B16785  15.352   2.145   7.909
  938POPC   C4B16786  15.273   1.928   7.558
  939POPC   NC316787  13.024  15.307   9.430
  939POPC   PO416788  13.364  14.760   9.592
  939POPC   GL116789  13.180  14.846   9.169
  939POPC   GL216790  12.812  14.884   9.186
  939POPC   C1A16791  13.240  15.076   8.750
  939POPC   D2A16792  13.078  15.271   8.330
  939POPC   C3A16793  12.736  15.138   8.035
  939POPC   C4A16794  12.446  15.270   7.714
  939POPC   C1B16795  12.736  15.013   8.751
  939POPC   C2B16796  12.854  14.791   8.384
  939POPC   C3B16797  12.919  14.670   7.958
  939POPC   C4B16798  12.710  14.821   7.575
  940POPC   NC316799  43.204  10.536   9.657
  940POPC   PO416800  42.898  10.171   9.275
  940POPC   GL116801  43.247  10.361   9.138
  940POPC   GL216802  43.380  10.700   9.214
  940POPC   C1A16803  43.299  10.373   8.721
  940POPC   D2A16804  42.974  10.288   8.409
  940POPC   C3A16805  42.727  10.588   8.162
  940POPC   C4A16806  42.746  10.449   7.732
  940POPC   C1B16807  43.126  10.828   8.857
  940POPC   C2B16808  43.191  10.779   8.402
  940POPC   C3B16809  43.189  10.637   7.978
  940POPC   C4B16810  43.358  10.689   7.582
  941POPC   NC316811  38.701  19.062   9.568
  941POPC   PO416812  39.341  18.989   9.569
  941POPC   GL116813  39.285  18.875   9.182
  941POPC   GL216814  39.104  19.173   9.140
  941POPC   C1A16815  39.516  18.902   8.797
  941POPC   D2A16816  39.375  18.801   8.400
  941POPC   C3A16817  39.575  18.867   8.010
  941POPC   C4A16818  39.229  19.073   7.773
  941POPC   C1B16819  38.980  18.889   8.792
  941POPC   C2B16820  38.844  18.799   8.403
  941POPC   C3B16821  38.815  19.010   8.059
  941POPC   C4B16822  38.794  18.827   7.666
  942POPC   NC316823  10.721  11.895   9.718
  942POPC   PO416824  10.237  12.279   9.626
  942POPC   GL116825  10.452  11.976   9.259
  942POPC   GL216826  10.800  11.818   9.238
  942POPC   C1A16827  10.629  12.072   8.826
  942POPC   D2A16828  10.658  12.263   8.416
  942POPC   C3A16829  10.353  12.125   8.089
  942POPC   C4A16830  10.283  12.359   7.706
  942POPC   C1B16831  10.861  11.617   8.847
  942POPC   C2B16832  10.742  11.676   8.438
  942POPC   C3B16833  10.869  11.941   8.104
  942POPC   C4B16834  10.707  12.044   7.725
  943POPC   NC316835  40.134  11.809   9.633
  943POPC   PO416836  39.874  11.197   9.788
  943POPC   GL116837  40.061  11.317   9.373
  943POPC   GL216838  39.807  11.177   9.184
  943POPC   C1A16839  40.166  11.423   8.928
  943POPC   D2A16840  40.002  11.609   8.533
  943POPC   C3A16841  39.985  11.376   8.117
  943POPC   C4A16842  40.325  11.388   7.797
  943POPC   C1B16843  39.806  11.073   8.759
  943POPC   C2B16844  39.735  10.930   8.358
  943POPC   C3B16845  39.577  11.034   7.985
  943POPC   C4B16846  39.703  11.190   7.625
  944POPC   NC316847  13.746   1.215   9.473
  944POPC   PO416848  13.187   0.815   9.534
  944POPC   GL116849  13.392   1.017   9.136
  944POPC   GL216850  13.217   1.321   9.125
  944POPC   C1A16851  13.601   1.080   8.677
  944POPC   D2A16852  13.531   0.780   8.273
  944POPC   C3A16853  13.543   0.969   7.869
  944POPC   C4A16854  13.773   1.322   7.921
  944POPC   C1B16855  13.428   1.555   8.790
  944POPC   C2B16856  13.532   1.499   8.354
  944POPC   C3B16857  13.262   1.391   8.011
  944POPC   C4B16858  13.060   1.353   7.654
  945POPC   NC316859  42.446  29.942   9.510
  945POPC   PO416860  41.875  30.218   9.449
  945POPC   GL116861  42.142  30.092   9.116
  945POPC   GL216862  42.099  29.781   9.088
  945POPC   C1A16863  42.336  30.119   8.691
  945POPC   D2A16864  42.525  29.912   8.285
  945POPC   C3A16865  42.344  30.151   7.906
  945POPC   C4A16866  42.298  30.243   7.415
  945POPC   C1B16867  42.347  29.613   8.754
  945POPC   C2B16868  42.264  29.426   8.349
  945POPC   C3B16869  42.443  29.501   7.937
  945POPC   C4B16870  42.470  29.798   7.569
  946POPC   NC316871  43.265   9.927   9.474
  946POPC   PO416872  42.685  10.030   9.756
  946POPC   GL116873  42.806   9.701   9.281
  946POPC   GL216874  43.120   9.734   9.057
  946POPC   C1A16875  42.721   9.618   8.788
  946POPC   D2A16876  42.772   9.804   8.356
  946POPC   C3A16877  42.808   9.594   7.979
  946POPC   C4A16878  42.917   9.410   7.606
  946POPC   C1B16879  43.170   9.855   8.665
  946POPC   C2B16880  43.223   9.605   8.306
  946POPC   C3B16881  43.151   9.957   8.015
  946POPC   C4B16882  43.384  10.203   7.759
  947POPC   NC316883  25.858  17.873   9.877
  947POPC   PO416884  26.125  17.391   9.434
  947POPC   GL116885  26.143  17.532   9.045
  947POPC   GL216886  25.800  17.391   9.025
  947POPC   C1A16887  26.134  17.361   8.657
  947POPC   D2A16888  25.962  17.528   8.285
  947POPC   C3A16889  26.147  17.285   7.973
  947POPC   C4A16890  26.077  17.514   7.643
  947POPC   C1B16891  25.599  17.426   8.658
  947POPC   C2B16892  25.443  17.315   8.283
  947POPC   C3B16893  25.553  17.526   7.941
  947POPC   C4B16894  25.621  17.379   7.547
  948POPC   NC316895  21.937  20.532   9.357
  948POPC   PO416896  22.536  20.718   9.681
  948POPC   GL116897  22.555  20.854   9.220
  948POPC   GL216898  22.208  20.992   9.162
  948POPC   C1A16899  22.468  20.800   8.752
  948POPC   D2A16900  22.261  20.673   8.356
  948POPC   C3A16901  22.274  20.442   7.977
  948POPC   C4A16902  22.383  20.739   7.674
  948POPC   C1B16903  21.974  20.964   8.790
  948POPC   C2B16904  21.843  20.931   8.401
  948POPC   C3B16905  21.923  21.070   8.017
  948POPC   C4B16906  21.961  20.986   7.604
  949POPC   NC316907  24.273  29.211   9.460
  949POPC   PO416908  24.477  28.565   9.373
  949POPC   GL116909  24.583  28.825   9.055
  949POPC   GL216910  24.246  28.937   9.044
  949POPC   C1A16911  24.520  28.970   8.628
  949POPC   D2A16912  24.330  29.345   8.445
  949POPC   C3A16913  24.267  29.390   7.990
  949POPC   C4A16914  24.196  29.368   7.534
  949POPC   C1B16915  23.995  29.045   8.736
  949POPC   C2B16916  24.009  28.987   8.344
  949POPC   C3B16917  23.915  28.968   8.002
  949POPC   C4B16918  24.166  28.908   7.711
  950POPC   NC316919   5.600  11.966   9.396
  950POPC   PO416920   6.127  11.699   9.411
  950POPC   GL116921   5.931  11.818   9.039
  950POPC   GL216922   6.164  11.797   8.768
  950POPC   C1A16923   5.646  11.916   8.695
  950POPC   D2A16924   5.882  12.011   8.291
  950POPC   C3A16925   5.797  11.902   7.846
  950POPC   C4A16926   5.636  11.963   7.372
  950POPC   C1B16927   6.009  12.265   8.750
  950POPC   C2B16928   5.884  12.520   8.388
  950POPC   C3B16929   5.931  12.403   7.947
  950POPC   C4B16930   6.052  12.208   7.538
  951POPC   NC316931  21.362  10.397   9.545
  951POPC   PO416932  21.743  11.084   9.412
  951POPC   GL116933  21.563  10.721   9.161
  951POPC   GL216934  21.182  10.619   9.146
  951POPC   C1A16935  21.478  10.605   8.732
  951POPC   D2A16936  21.717  10.533   8.388
  951POPC   C3A16937  21.552  10.688   8.035
  951POPC   C4A16938  21.565  10.641   7.628
  951POPC   C1B16939  21.090  10.282   8.790
  951POPC   C2B16940  21.266  10.255   8.347
  951POPC   C3B16941  21.443  10.199   7.924
  951POPC   C4B16942  21.268  10.233   7.502
  952POPC   NC316943  10.367  22.626   9.707
  952POPC   PO416944  10.603  23.242   9.549
  952POPC   GL116945  10.678  22.896   9.263
  952POPC   GL216946  11.001  22.980   9.260
  952POPC   C1A16947  10.634  22.646   8.849
  952POPC   D2A16948  10.321  22.548   8.486
  952POPC   C3A16949  10.448  22.623   8.062
  952POPC   C4A16950  10.417  22.898   7.729
  952POPC   C1B16951  11.081  23.031   8.845
  952POPC   C2B16952  10.991  22.777   8.477
  952POPC   C3B16953  10.961  22.915   8.054
  952POPC   C4B16954  10.894  22.715   7.679
  953POPC   NC316955  11.078   6.303   9.435
  953POPC   PO416956  11.450   6.860   9.623
  953POPC   GL116957  11.559   6.818   9.195
  953POPC   GL216958  11.503   6.473   9.156
  953POPC   C1A16959  11.603   6.793   8.754
  953POPC   D2A16960  11.604   6.635   8.327
  953POPC   C3A16961  11.423   6.925   8.043
  953POPC   C4A16962  11.257   6.782   7.684
  953POPC   C1B16963  11.192   6.483   8.808
  953POPC   C2B16964  11.037   6.356   8.409
  953POPC   C3B16965  10.964   6.428   7.976
  953POPC   C4B16966  11.064   6.107   7.663
  954POPC   NC316967  43.504  34.196   9.429
  954POPC   PO416968  43.786  33.629   9.775
  954POPC   GL116969  43.700  33.712   9.250
  954POPC   GL216970  44.029  33.720   9.063
  954POPC   C1A16971  43.670  33.931   8.797
  954POPC   D2A16972  43.906  33.652   8.456
  954POPC   C3A16973  43.840  33.791   7.985
  954POPC   C4A16974  44.030  33.941   7.537
  954POPC   C1B16975  44.176  33.999   8.762
  954POPC   C2B16976  44.348  33.907   8.370
  954POPC   C3B16977  44.338  33.772   7.932
  954POPC   C4B16978  44.426  33.624   7.528
  955POPC   NC316979  44.161   2.715   9.478
  955POPC   PO416980  44.675   2.862   9.843
  955POPC   GL116981  44.699   2.766   9.381
  955POPC   GL216982  44.504   3.040   9.250
  955POPC   C1A16983  44.708   2.746   8.900
  955POPC   D2A16984  44.665   2.847   8.447
  955POPC   C3A16985  44.473   2.588   8.087
  955POPC   C4A16986  44.612   2.734   7.687
  955POPC   C1B16987  44.312   3.072   8.864
  955POPC   C2B16988  44.322   3.224   8.429
  955POPC   C3B16989  44.442   3.094   8.039
  955POPC   C4B16990  44.564   3.275   7.663
  956POPC   NC316991  43.397  33.482   9.584
  956POPC   PO416992  43.035  34.055   9.407
  956POPC   GL116993  43.064  33.743   9.095
  956POPC   GL216994  43.213  33.392   9.118
  956POPC   C1A16995  43.132  33.934   8.696
  956POPC   D2A16996  42.945  33.792   8.332
  956POPC   C3A16997  43.073  34.062   7.984
  956POPC   C4A16998  42.869  33.927   7.601
  956POPC   C1B16999  43.401  33.517   8.729
  956POPC   C2B17000  43.432  33.707   8.321
  956POPC   C3B17001  43.322  33.611   7.900
  956POPC   C4B17002  43.488  33.902   7.627
  957POPC   NC317003  43.795   6.435   9.708
  957POPC   PO417004  44.479   6.438   9.588
  957POPC   GL117005  44.155   6.600   9.273
  957POPC   GL217006  43.767   6.683   9.253
  957POPC   C1A17007  44.093   6.776   8.860
  957POPC   D2A17008  43.917   6.546   8.480
  957POPC   C3A17009  43.995   6.707   8.088
  957POPC   C4A17010  43.810   6.710   7.683
  957POPC   C1B17011  43.585   6.790   8.818
  957POPC   C2B17012  43.542   6.874   8.347
  957POPC   C3B17013  43.378   6.787   7.915
  957POPC   C4B17014  43.374   6.818   7.428
  958POPC   NC317015  41.806  34.485   9.365
  958POPC   PO417016  42.409  34.756   9.748
  958POPC   GL117017  42.312  34.570   9.315
  958POPC   GL217018  42.475  34.255   9.257
  958POPC   C1A17019  42.340  34.685   8.867
  958POPC   D2A17020  42.575  34.738   8.481
  958POPC   C3A17021  42.435  34.868   8.054
  958POPC   C4A17022  42.289  34.708   7.627
  958POPC   C1B17023  42.177  34.208   8.884
  958POPC   C2B17024  42.287  34.307   8.474
  958POPC   C3B17025  42.213  34.408   8.063
  958POPC   C4B17026  41.936  34.233   7.812
  959POPC   NC317027  27.417  44.072   9.643
  959POPC   PO417028  27.881  43.635   9.597
  959POPC   GL117029  27.762  43.815   9.241
  959POPC   GL217030  27.992  44.101   9.241
  959POPC   C1A17031  27.562  43.655   8.861
  959POPC   D2A17032  27.672  43.694   8.427
  959POPC   C3A17033  27.452  43.603   8.020
  959POPC   C4A17034  27.484  43.658   7.570
  959POPC   C1B17035  27.808  44.131   8.823
  959POPC   C2B17036  27.729  44.248   8.395
  959POPC   C3B17037  27.601  44.106   7.985
  959POPC   C4B17038  27.926  44.143   7.674
  960POPC   NC317039  43.940   9.206   9.626
  960POPC   PO417040  43.496   8.649   9.572
  960POPC   GL117041  43.876   8.793   9.289
  960POPC   GL217042  43.934   9.161   9.116
  960POPC   C1A17043  43.992   8.726   8.854
  960POPC   D2A17044  43.773   8.761   8.473
  960POPC   C3A17045  43.816   8.658   8.054
  960POPC   C4A17046  43.499   8.832   7.786
  960POPC   C1B17047  44.174   9.164   8.689
  960POPC   C2B17048  44.191   8.994   8.252
  960POPC   C3B17049  43.948   9.138   7.885
  960POPC   C4B17050  43.928   9.465   7.565
  961POPC   NC317051  36.838  41.928   9.524
  961POPC   PO417052  37.302  42.424   9.345
  961POPC   GL117053  37.149  42.108   9.062
  961POPC   GL217054  36.797  42.071   9.040
  961POPC   C1A17055  37.175  42.089   8.589
  961POPC   D2A17056  37.111  42.349   8.219
  961POPC   C3A17057  37.235  42.246   7.797
  961POPC   C4A17058  37.225  42.502   7.433
  961POPC   C1B17059  36.624  42.325   8.712
  961POPC   C2B17060  36.590  42.275   8.284
  961POPC   C3B17061  36.720  42.403   7.886
  961POPC   C4B17062  36.809  42.232   7.500
  962POPC   NC317063  40.493  27.244   9.498
  962POPC   PO417064  40.327  27.825   9.145
  962POPC   GL117065  40.770  27.688   9.164
  962POPC   GL217066  40.860  27.318   9.081
  962POPC   C1A17067  41.027  27.730   8.787
  962POPC   D2A17068  41.082  27.571   8.368
  962POPC   C3A17069  41.135  27.829   8.009
  962POPC   C4A17070  40.758  27.955   7.785
  962POPC   C1B17071  40.607  27.033   8.766
  962POPC   C2B17072  40.420  27.005   8.329
  962POPC   C3B17073  40.557  27.029   7.907
  962POPC   C4B17074  40.741  27.448   7.860
  963POPC   NC317075  11.407   9.027   9.588
  963POPC   PO417076  10.780   9.128   9.503
  963POPC   GL117077  11.122   9.151   9.181
  963POPC   GL217078  11.298   8.794   9.143
  963POPC   C1A17079  11.096   9.080   8.749
  963POPC   D2A17080  10.935   8.853   8.411
  963POPC   C3A17081  11.158   9.000   8.067
  963POPC   C4A17082  11.282   9.177   7.671
  963POPC   C1B17083  11.293   8.596   8.703
  963POPC   C2B17084  11.397   8.580   8.231
  963POPC   C3B17085  11.541   8.762   7.790
  963POPC   C4B17086  11.627   8.933   7.350
  964POPC   NC317087  16.447   3.728   9.505
  964POPC   PO417088  16.977   3.317   9.523
  964POPC   GL117089  16.972   3.438   9.143
  964POPC   GL217090  16.910   3.792   9.161
  964POPC   C1A17091  16.787   3.411   8.754
  964POPC   D2A17092  16.911   3.592   8.391
  964POPC   C3A17093  16.909   3.309   8.067
  964POPC   C4A17094  16.794   3.529   7.719
  964POPC   C1B17095  16.584   3.870   8.855
  964POPC   C2B17096  16.452   3.832   8.436
  964POPC   C3B17097  16.292   3.769   8.027
  964POPC   C4B17098  16.318   3.689   7.617
  965POPC   NC317099  36.887  14.868   9.348
  965POPC   PO417100  36.822  15.551   9.250
  965POPC   GL117101  36.702  15.226   9.039
  965POPC   GL217102  37.016  15.157   8.967
  965POPC   C1A17103  36.657  14.927   8.682
  965POPC   D2A17104  36.678  15.017   8.237
  965POPC   C3A17105  36.747  15.428   8.105
  965POPC   C4A17106  36.692  15.256   7.728
  965POPC   C1B17107  36.942  15.368   8.599
  965POPC   C2B17108  37.227  15.380   8.300
  965POPC   C3B17109  37.164  15.171   7.941
  965POPC   C4B17110  37.162  15.302   7.527
  966POPC   NC317111  36.863  31.060   9.491
  966POPC   PO417112  36.846  30.348   9.540
  966POPC   GL117113  36.983  30.609   9.187
  966POPC   GL217114  36.723  30.803   9.100
  966POPC   C1A17115  37.074  30.800   8.759
  966POPC   D2A17116  37.269  30.631   8.425
  966POPC   C3A17117  37.084  30.748   8.032
  966POPC   C4A17118  36.764  30.596   7.807
  966POPC   C1B17119  36.562  30.729   8.710
  966POPC   C2B17120  36.711  30.901   8.357
  966POPC   C3B17121  36.507  30.973   7.988
  966POPC   C4B17122  36.285  31.169   7.682
  967POPC   NC317123  33.326  21.352   9.509
  967POPC   PO417124  32.691  21.422   9.403
  967POPC   GL117125  32.909  21.260   9.040
  967POPC   GL217126  33.251  21.168   9.047
  967POPC   C1A17127  32.865  21.295   8.599
  967POPC   D2A17128  32.816  20.987   8.265
  967POPC   C3A17129  33.116  21.115   7.956
  967POPC   C4A17130  32.984  21.539   7.896
  967POPC   C1B17131  33.387  21.387   8.700
  967POPC   C2B17132  33.322  21.749   8.489
  967POPC   C3B17133  33.382  21.834   8.065
  967POPC   C4B17134  33.351  21.748   7.653
  968POPC   NC317135  34.547  41.246   9.775
  968POPC   PO417136  34.626  41.854   9.506
  968POPC   GL117137  34.566  41.550   9.186
  968POPC   GL217138  34.942  41.575   9.144
  968POPC   C1A17139  34.351  41.486   8.770
  968POPC   D2A17140  34.232  41.259   8.398
  968POPC   C3A17141  34.234  41.553   8.067
  968POPC   C4A17142  34.494  41.545   7.746
  968POPC   C1B17143  34.812  41.714   8.740
  968POPC   C2B17144  34.685  41.564   8.337
  968POPC   C3B17145  34.919  41.532   7.985
  968POPC   C4B17146  34.966  41.814   7.683
  969POPC   NC317147  40.390  12.924   9.721
  969POPC   PO417148  39.930  12.647   9.379
  969POPC   GL117149  39.884  12.908   9.045
  969POPC   GL217150  39.628  13.216   8.997
  969POPC   C1A17151  39.983  12.654   8.686
  969POPC   D2A17152  40.224  12.571   8.347
  969POPC   C3A17153  39.986  12.624   7.939
  969POPC   C4A17154  40.082  12.433   7.514
  969POPC   C1B17155  39.888  13.151   8.627
  969POPC   C2B17156  40.100  13.062   8.282
  969POPC   C3B17157  39.928  13.158   7.950
  969POPC   C4B17158  39.635  12.934   7.719
  970POPC   NC317159   5.285  37.539   9.524
  970POPC   PO417160   4.879  38.075   9.439
  970POPC   GL117161   5.154  37.863   9.160
  970POPC   GL217162   4.980  37.506   9.119
  970POPC   C1A17163   5.355  37.663   8.810
  970POPC   D2A17164   5.213  37.485   8.417
  970POPC   C3A17165   5.406  37.591   8.021
  970POPC   C4A17166   5.253  37.891   7.696
  970POPC   C1B17167   4.781  37.797   8.817
  970POPC   C2B17168   4.608  37.726   8.423
  970POPC   C3B17169   4.861  37.661   8.050
  970POPC   C4B17170   5.017  37.441   7.707
  971POPC   NC317171  25.488   4.974   9.452
  971POPC   PO417172  25.116   5.487   9.159
  971POPC   GL117173  25.299   5.128   9.015
  971POPC   GL217174  25.592   5.272   9.013
  971POPC   C1A17175  25.401   4.978   8.622
  971POPC   D2A17176  25.073   4.956   8.292
  971POPC   C3A17177  25.272   4.899   7.909
  971POPC   C4A17178  25.716   4.943   7.835
  971POPC   C1B17179  25.667   5.417   8.590
  971POPC   C2B17180  25.505   5.248   8.205
  971POPC   C3B17181  25.345   5.403   7.831
  971POPC   C4B17182  25.433   5.499   7.417
  972POPC   NC317183  19.303  34.581   9.572
  972POPC   PO417184  18.590  34.420   9.535
  972POPC   GL117185  18.766  34.632   9.156
  972POPC   GL217186  19.138  34.574   9.096
  972POPC   C1A17187  18.832  34.517   8.713
  972POPC   D2A17188  19.045  34.415   8.330
  972POPC   C3A17189  18.866  34.604   7.994
  972POPC   C4A17190  18.824  34.645   7.566
  972POPC   C1B17191  19.352  34.618   8.699
  972POPC   C2B17192  19.556  34.584   8.286
  972POPC   C3B17193  19.375  34.746   7.883
  972POPC   C4B17194  19.347  34.572   7.464
  973POPC   NC317195  14.237  30.029   9.574
  973POPC   PO417196  14.664  29.687   9.540
  973POPC   GL117197  14.443  29.736   9.173
  973POPC   GL217198  14.608  29.446   9.098
  973POPC   C1A17199  14.410  29.762   8.735
  973POPC   D2A17200  14.185  29.806   8.369
  973POPC   C3A17201  14.334  29.921   7.970
  973POPC   C4A17202  14.587  30.132   7.665
  973POPC   C1B17203  14.821  29.435   8.721
  973POPC   C2B17204  14.855  29.794   8.466
  973POPC   C3B17205  14.850  29.889   8.053
  973POPC   C4B17206  14.717  29.612   7.733
  974POPC   NC317207   3.642  35.821   9.416
  974POPC   PO417208   3.368  35.152   9.426
  974POPC   GL117209   3.478  35.421   9.166
  974POPC   GL217210   3.239  35.643   9.072
  974POPC   C1A17211   3.692  35.437   8.824
  974POPC   D2A17212   3.581  35.508   8.421
  974POPC   C3A17213   3.701  35.232   8.100
  974POPC   C4A17214   3.949  35.291   7.752
  974POPC   C1B17215   3.188  35.330   8.749
  974POPC   C2B17216   3.230  35.140   8.337
  974POPC   C3B17217   3.214  35.219   7.913
  974POPC   C4B17218   3.260  35.407   7.513
  975POPC   NC317219   9.338   0.304   9.274
  975POPC   PO417220   8.689   0.514   9.489
  975POPC   GL117221   8.875   0.631   9.110
  975POPC   GL217222   9.181   0.834   9.189
  975POPC   C1A17223   8.884   0.409   8.711
  975POPC   D2A17224   9.065   0.329   8.286
  975POPC   C3A17225   8.867   0.378   7.842
  975POPC   C4A17226   8.823   0.191   7.383
  975POPC   C1B17227   9.225   0.795   8.722
  975POPC   C2B17228   9.503   0.608   8.386
  975POPC   C3B17229   9.377   0.575   7.956
  975POPC   C4B17230   9.068   0.840   7.787
  976POPC   NC317231  31.680   4.807   9.817
  976POPC   PO417232  31.475   4.146   9.568
  976POPC   GL117233  31.378   4.278   9.174
  976POPC   GL217234  31.604   4.561   9.205
  976POPC   C1A17235  31.191   4.073   8.804
  976POPC   D2A17236  31.244   4.222   8.400
  976POPC   C3A17237  31.178   4.107   8.010
  976POPC   C4A17238  31.581   4.052   7.807
  976POPC   C1B17239  31.400   4.663   8.809
  976POPC   C2B17240  31.549   4.635   8.383
  976POPC   C3B17241  31.472   4.523   7.976
  976POPC   C4B17242  31.437   4.691   7.568
  977POPC   NC317243  41.799  16.439   9.611
  977POPC   PO417244  41.106  16.540   9.577
  977POPC   GL117245  41.221  16.683   9.175
  977POPC   GL217246  41.555  16.601   9.148
  977POPC   C1A17247  41.194  16.721   8.741
  977POPC   D2A17248  41.210  16.465   8.403
  977POPC   C3A17249  41.293  16.717   8.036
  977POPC   C4A17250  41.632  16.670   7.796
  977POPC   C1B17251  41.711  16.646   8.699
  977POPC   C2B17252  41.722  16.862   8.281
  977POPC   C3B17253  42.031  16.941   7.931
  977POPC   C4B17254  42.201  16.955   7.511
  978POPC   NC317255   3.356  24.351   9.212
  978POPC   PO417256   2.898  24.187   9.501
  978POPC   GL117257   2.873  24.238   9.056
  978POPC   GL217258   2.907  24.598   9.042
  978POPC   C1A17259   2.837  24.222   8.589
  978POPC   D2A17260   2.747  24.470   8.195
  978POPC   C3A17261   2.648  24.305   7.756
  978POPC   C4A17262   2.332  24.301   7.389
  978POPC   C1B17263   3.088  24.670   8.636
  978POPC   C2B17264   3.255  24.507   8.242
  978POPC   C3B17265   3.096  24.560   7.809
  978POPC   C4B17266   2.988  24.624   7.369
  979POPC   NC317267  15.545  12.428   9.544
  979POPC   PO417268  15.462  11.679   9.453
  979POPC   GL117269  15.287  11.975   9.151
  979POPC   GL217270  15.502  12.271   9.077
  979POPC   C1A17271  15.042  11.868   8.781
  979POPC   D2A17272  14.805  12.004   8.440
  979POPC   C3A17273  14.970  12.010   8.029
  979POPC   C4A17274  15.024  11.902   7.606
  979POPC   C1B17275  15.476  12.144   8.690
  979POPC   C2B17276  15.395  11.975   8.340
  979POPC   C3B17277  15.439  12.227   8.009
  979POPC   C4B17278  15.494  12.126   7.610
  980POPC   NC317279  37.861  30.997   9.465
  980POPC   PO417280  37.511  30.498   9.767
  980POPC   GL117281  37.516  30.628   9.290
  980POPC   GL217282  37.790  30.462   9.081
  980POPC   C1A17283  37.557  30.877   8.884
  980POPC   D2A17284  37.655  31.005   8.466
  980POPC   C3A17285  37.590  30.806   8.084
  980POPC   C4A17286  37.793  30.834   7.750
  980POPC   C1B17287  37.723  30.416   8.641
  980POPC   C2B17288  37.976  30.548   8.288
  980POPC   C3B17289  37.958  30.380   7.869
  980POPC   C4B17290  37.810  30.488   7.398
  981POPC   NC317291  14.173  14.597   9.356
  981POPC   PO417292  14.888  14.664   9.482
  981POPC   GL117293  14.631  14.592   9.155
  981POPC   GL217294  14.625  14.233   9.161
  981POPC   C1A17295  14.476  14.551   8.750
  981POPC   D2A17296  14.664  14.551   8.351
  981POPC   C3A17297  14.450  14.551   7.964
  981POPC   C4A17298  14.465  14.523   7.525
  981POPC   C1B17299  14.314  14.061   8.834
  981POPC   C2B17300  14.124  14.060   8.403
  981POPC   C3B17301  14.283  14.051   7.990
  981POPC   C4B17302  14.403  14.021   7.579
  982POPC   NC317303  40.955  17.862   9.456
  982POPC   PO417304  41.167  17.237   9.130
  982POPC   GL117305  40.854  17.502   9.076
  982POPC   GL217306  40.537  17.384   9.070
  982POPC   C1A17307  40.725  17.666   8.688
  982POPC   D2A17308  40.876  17.608   8.302
  982POPC   C3A17309  40.933  17.400   7.907
  982POPC   C4A17310  40.895  17.740   7.558
  982POPC   C1B17311  40.292  17.420   8.697
  982POPC   C2B17312  40.347  17.645   8.307
  982POPC   C3B17313  40.530  17.690   7.915
  982POPC   C4B17314  40.512  17.392   7.567
  983POPC   NC317315  15.210  19.851   9.506
  983POPC   PO417316  14.724  19.438   9.369
  983POPC   GL117317  14.976  19.710   9.070
  983POPC   GL217318  15.372  19.724   9.039
  983POPC   C1A17319  15.095  19.779   8.637
  983POPC   D2A17320  15.417  19.686   8.353
  983POPC   C3A17321  15.252  19.840   7.934
  983POPC   C4A17322  15.206  19.643   7.483
  983POPC   C1B17323  15.508  20.079   8.759
  983POPC   C2B17324  15.395  20.194   8.329
  983POPC   C3B17325  15.565  20.266   7.914
  983POPC   C4B17326  15.490  20.038   7.530
  984POPC   NC317327   6.800  27.737   9.708
  984POPC   PO417328   7.086  27.210   9.466
  984POPC   GL117329   6.829  27.464   9.209
  984POPC   GL217330   6.617  27.760   9.193
  984POPC   C1A17331   6.702  27.446   8.781
  984POPC   D2A17332   6.716  27.829   8.559
  984POPC   C3A17333   6.635  27.827   8.131
  984POPC   C4A17334   6.625  27.694   7.719
  984POPC   C1B17335   6.296  27.825   8.854
  984POPC   C2B17336   6.252  27.999   8.441
  984POPC   C3B17337   6.144  27.924   8.066
  984POPC   C4B17338   6.243  28.035   7.657
  985POPC   NC317339   6.086   8.710   9.412
  985POPC   PO417340   5.709   9.143   9.724
  985POPC   GL117341   5.840   9.204   9.217
  985POPC   GL217342   5.909   8.915   8.994
  985POPC   C1A17343   5.579   9.228   8.788
  985POPC   D2A17344   5.731   8.986   8.450
  985POPC   C3A17345   5.871   8.956   8.004
  985POPC   C4A17346   5.670   9.132   7.659
  985POPC   C1B17347   6.239   8.862   8.700
  985POPC   C2B17348   6.289   8.712   8.291
  985POPC   C3B17349   6.333   8.483   7.904
  985POPC   C4B17350   6.133   8.602   7.515
  986POPC   NC317351  10.180   7.984   9.526
  986POPC   PO417352  10.693   8.407   9.522
  986POPC   GL117353  10.605   8.339   9.090
  986POPC   GL217354  10.418   8.036   9.063
  986POPC   C1A17355  10.616   8.260   8.635
  986POPC   D2A17356  10.390   8.191   8.249
  986POPC   C3A17357  10.657   8.231   7.911
  986POPC   C4A17358  10.848   7.842   7.834
  986POPC   C1B17359  10.137   8.062   8.700
  986POPC   C2B17360  10.008   7.871   8.312
  986POPC   C3B17361  10.309   7.808   7.904
  986POPC   C4B17362  10.364   7.702   7.420
  987POPC   NC317363  19.625   3.513   9.984
  987POPC   PO417364  20.183   3.710   9.584
  987POPC   GL117365  19.889   3.819   9.203
  987POPC   GL217366  19.518   3.880   9.260
  987POPC   C1A17367  19.911   3.934   8.752
  987POPC   D2A17368  19.934   4.117   8.307
  987POPC   C3A17369  19.950   3.797   7.959
  987POPC   C4A17370  19.824   3.779   7.523
  987POPC   C1B17371  19.462   3.688   8.841
  987POPC   C2B17372  19.392   3.480   8.424
  987POPC   C3B17373  19.502   3.538   7.980
  987POPC   C4B17374  19.350   3.558   7.571
  988POPC   NC317375   4.721  24.297   9.345
  988POPC   PO417376   5.374  24.357   9.414
  988POPC   GL117377   5.154  24.206   9.055
  988POPC   GL217378   4.936  23.954   9.028
  988POPC   C1A17379   4.939  24.380   8.692
  988POPC   D2A17380   4.836  24.547   8.279
  988POPC   C3A17381   5.148  24.632   7.944
  988POPC   C4A17382   5.158  24.828   7.540
  988POPC   C1B17383   5.060  23.893   8.627
  988POPC   C2B17384   4.802  24.039   8.324
  988POPC   C3B17385   4.929  24.164   7.932
  988POPC   C4B17386   5.291  24.188   7.714
  989POPC   NC317387   0.915  33.631   9.420
  989POPC   PO417388   1.529  33.893   9.515
  989POPC   GL117389   1.356  33.769   9.121
  989POPC   GL217390   1.252  33.420   9.086
  989POPC   C1A17391   1.178  33.970   8.724
  989POPC   D2A17392   0.874  33.839   8.396
  989POPC   C3A17393   1.030  33.927   7.973
  989POPC   C4A17394   1.403  34.044   7.772
  989POPC   C1B17395   1.369  33.510   8.671
  989POPC   C2B17396   1.383  33.705   8.256
  989POPC   C3B17397   1.437  33.549   7.807
  989POPC   C4B17398   1.418  33.491   7.344
  990POPC   NC317399  12.921  25.792   9.431
  990POPC   PO417400  12.902  26.424   9.373
  990POPC   GL117401  12.908  26.108   9.027
  990POPC   GL217402  12.875  25.706   8.955
  990POPC   C1A17403  12.881  26.256   8.628
  990POPC   D2A17404  12.610  26.381   8.297
  990POPC   C3A17405  12.840  26.394   7.950
  990POPC   C4A17406  13.134  26.304   7.608
  990POPC   C1B17407  12.699  25.778   8.608
  990POPC   C2B17408  12.826  25.936   8.227
  990POPC   C3B17409  12.852  25.927   7.779
  990POPC   C4B17410  12.915  25.790   7.341
  991POPC   NC317411  19.424  44.723   9.522
  991POPC   PO417412  19.827  44.218   9.517
  991POPC   GL117413  19.815  44.456   9.115
  991POPC   GL217414  19.551  44.745   9.026
  991POPC   C1A17415  19.644  44.360   8.707
  991POPC   D2A17416  19.649  44.560   8.299
  991POPC   C3A17417  19.640  44.384   7.898
  991POPC   C4A17418  19.567  44.484   7.465
  991POPC   C1B17419  19.317  44.811   8.622
  991POPC   C2B17420  19.412  44.992   8.174
  991POPC   C3B17421  19.709  44.948   7.772
  991POPC   C4B17422  19.848   0.218   7.396
  992POPC   NC317423  24.427  37.166   9.738
  992POPC   PO417424  24.857  36.898   9.380
  992POPC   GL117425  24.677  36.850   9.048
  992POPC   GL217426  24.374  36.766   9.198
  992POPC   C1A17427  24.719  37.000   8.656
  992POPC   D2A17428  24.509  36.835   8.356
  992POPC   C3A17429  24.703  36.710   8.008
  992POPC   C4A17430  25.026  37.044   7.823
  992POPC   C1B17431  24.229  36.971   8.812
  992POPC   C2B17432  24.046  37.036   8.399
  992POPC   C3B17433  24.157  36.841   8.006
  992POPC   C4B17434  24.169  36.959   7.611
  993POPC   NC317435   9.552  19.499   9.583
  993POPC   PO417436   9.872  20.003   9.579
  993POPC   GL117437   9.615  19.975   9.191
  993POPC   GL217438   9.461  19.676   9.132
  993POPC   C1A17439   9.690  20.000   8.729
  993POPC   D2A17440  10.040  19.974   8.403
  993POPC   C3A17441   9.804  19.905   8.022
  993POPC   C4A17442   9.926  19.920   7.606
  993POPC   C1B17443   9.485  19.504   8.768
  993POPC   C2B17444   9.372  19.678   8.414
  993POPC   C3B17445   9.452  19.478   8.035
  993POPC   C4B17446   9.495  19.609   7.651
  994POPC   NC317447   4.374  34.324   9.502
  994POPC   PO417448   4.605  34.935   9.246
  994POPC   GL117449   4.482  34.477   9.027
  994POPC   GL217450   4.213  34.156   9.061
  994POPC   C1A17451   4.419  34.498   8.587
  994POPC   D2A17452   4.195  34.883   8.466
  994POPC   C3A17453   4.136  34.917   8.036
  994POPC   C4A17454   4.415  34.745   7.730
  994POPC   C1B17455   3.972  34.457   8.840
  994POPC   C2B17456   3.898  34.465   8.403
  994POPC   C3B17457   4.252  34.414   8.100
  994POPC   C4B17458   4.309  34.225   7.705
  995POPC   NC317459   6.954  44.885   9.789
  995POPC   PO417460   6.703  44.243   9.572
  995POPC   GL117461   6.566  44.411   9.111
  995POPC   GL217462   6.757  44.733   8.970
  995POPC   C1A17463   6.470  44.499   8.629
  995POPC   D2A17464   6.823  44.675   8.356
  995POPC   C3A17465   6.996  44.450   7.992
  995POPC   C4A17466   6.806  44.467   7.589
  995POPC   C1B17467   6.877   0.081   8.683
  995POPC   C2B17468   6.955   0.160   8.243
  995POPC   C3B17469   6.813  44.931   7.861
  995POPC   C4B17470   6.541  44.917   7.473
  996POPC   NC317471  24.058  28.451   9.195
  996POPC   PO417472  24.450  28.080   9.625
  996POPC   GL117473  24.426  28.074   9.154
  996POPC   GL217474  24.738  28.042   9.006
  996POPC   C1A17475  24.364  28.261   8.693
  996POPC   D2A17476  24.281  28.567   8.399
  996POPC   C3A17477  24.237  28.466   7.975
  996POPC   C4A17478  24.581  28.591   7.706
  996POPC   C1B17479  24.755  27.971   8.560
  996POPC   C2B17480  24.601  28.159   8.238
  996POPC   C3B17481  24.826  28.201   7.919
  996POPC   C4B17482  24.985  28.235   7.554
  997POPC   NC317483  26.858  34.982   9.611
  997POPC   PO417484  26.878  34.312   9.513
  997POPC   GL117485  26.812  34.698   9.184
  997POPC   GL217486  27.152  34.745   9.233
  997POPC   C1A17487  26.702  34.912   8.755
  997POPC   D2A17488  26.961  34.923   8.358
  997POPC   C3A17489  26.787  34.977   7.942
  997POPC   C4A17490  26.638  34.605   7.783
  997POPC   C1B17491  27.105  34.550   8.798
  997POPC   C2B17492  27.247  34.438   8.373
  997POPC   C3B17493  27.179  34.647   7.952
  997POPC   C4B17494  27.068  34.739   7.510
  998POPC   NC317495  43.261   2.874   9.769
  998POPC   PO417496  42.924   2.377   9.381
  998POPC   GL117497  43.076   2.560   9.019
  998POPC   GL217498  43.067   2.871   9.081
  998POPC   C1A17499  43.092   2.600   8.560
  998POPC   D2A17500  42.883   2.941   8.310
  998POPC   C3A17501  42.936   2.838   7.884
  998POPC   C4A17502  43.107   2.411   7.838
  998POPC   C1B17503  43.389   2.929   8.774
  998POPC   C2B17504  43.395   3.015   8.353
  998POPC   C3B17505  43.439   2.968   7.939
  998POPC   C4B17506  43.698   3.158   7.707
  999POPC   NC317507   5.851  20.128   9.519
  999POPC   PO417508   5.713  19.501   9.592
  999POPC   GL117509   5.940  19.715   9.245
  999POPC   GL217510   5.608  19.797   9.185
  999POPC   C1A17511   6.073  19.995   8.902
  999POPC   D2A17512   5.998  19.733   8.539
  999POPC   C3A17513   6.037  19.800   8.131
  999POPC   C4A17514   5.967  20.156   7.912
  999POPC   C1B17515   5.588  19.894   8.770
  999POPC   C2B17516   5.506  19.679   8.408
  999POPC   C3B17517   5.545  19.821   7.992
  999POPC   C4B17518   5.301  19.648   7.726
 1000POPC   NC317519   9.874  42.583   9.574
 1000POPC   PO417520   9.472  42.108   9.399
 1000POPC   GL117521   9.572  42.388   9.095
 1000POPC   GL217522   9.933  42.466   9.079
 1000POPC   C1A17523   9.692  42.283   8.672
 1000POPC   D2A17524   9.749  42.493   8.284
 1000POPC   C3A17525   9.581  42.322   7.896
 1000POPC   C4A17526   9.595  41.914   7.620
 1000POPC   C1B17527  10.133  42.532   8.662
 1000POPC   C2B17528  10.251  42.539   8.201
 1000POPC   C3B17529   9.997  42.683   7.824
 1000POPC   C4B17530   9.916  42.818   7.376
 1001POPC   NC317531   8.199  29.471   9.937
 1001POPC   PO417532   8.248  29.994   9.477
 1001POPC   GL117533   8.271  29.779   9.102
 1001POPC   GL217534   8.068  29.534   9.247
 1001POPC   C1A17535   8.269  29.823   8.638
 1001POPC   D2A17536   8.074  30.050   8.282
 1001POPC   C3A17537   8.222  29.875   7.908
 1001POPC   C4A17538   8.335  30.000   7.498
 1001POPC   C1B17539   7.813  29.678   8.880
 1001POPC   C2B17540   7.735  29.706   8.436
 1001POPC   C3B17541   7.725  29.768   8.009
 1001POPC   C4B17542   7.865  29.637   7.637
 1002POPC   NC317543  36.064  42.018   9.563
 1002POPC   PO417544  36.613  42.325   9.482
 1002POPC   GL117545  36.319  42.235   9.166
 1002POPC   GL217546  36.339  41.874   9.180
 1002POPC   C1A17547  36.105  42.368   8.788
 1002POPC   D2A17548  36.239  42.635   8.421
 1002POPC   C3A17549  36.184  42.425   7.993
 1002POPC   C4A17550  36.345  42.491   7.548
 1002POPC   C1B17551  36.333  41.899   8.766
 1002POPC   C2B17552  36.153  42.041   8.404
 1002POPC   C3B17553  36.295  41.902   8.058
 1002POPC   C4B17554  36.396  42.028   7.696
 1003POPC   NC317555  16.380  34.843   9.467
 1003POPC   PO417556  17.064  34.619   9.651
 1003POPC   GL117557  17.005  34.482   9.172
 1003POPC   GL217558  16.709  34.691   9.101
 1003POPC   C1A17559  17.090  34.540   8.698
 1003POPC   D2A17560  16.837  34.786   8.388
 1003POPC   C3A17561  16.910  34.876   7.949
 1003POPC   C4A17562  16.941  34.549   7.649
 1003POPC   C1B17563  16.579  34.474   8.740
 1003POPC   C2B17564  16.418  34.483   8.339
 1003POPC   C3B17565  16.567  34.519   7.997
 1003POPC   C4B17566  16.456  34.730   7.681
 1004POPC   NC317567  23.019  33.394   9.501
 1004POPC   PO417568  22.613  33.971   9.414
 1004POPC   GL117569  22.894  33.804   9.049
 1004POPC   GL217570  23.216  33.619   9.101
 1004POPC   C1A17571  23.171  33.843   8.646
 1004POPC   D2A17572  23.129  33.958   8.203
 1004POPC   C3A17573  23.227  33.710   7.862
 1004POPC   C4A17574  22.937  33.803   7.542
 1004POPC   C1B17575  23.003  33.341   8.774
 1004POPC   C2B17576  23.030  33.438   8.336
 1004POPC   C3B17577  22.761  33.635   8.046
 1004POPC   C4B17578  22.544  33.525   7.711
 1005POPC   NC317579  17.584  38.408   9.528
 1005POPC   PO417580  17.534  39.054   9.717
 1005POPC   GL117581  17.398  38.761   9.231
 1005POPC   GL217582  17.365  38.387   9.079
 1005POPC   C1A17583  17.603  38.740   8.780
 1005POPC   D2A17584  17.561  38.883   8.330
 1005POPC   C3A17585  17.444  38.549   8.053
 1005POPC   C4A17586  17.156  38.308   7.821
 1005POPC   C1B17587  17.645  38.213   8.784
 1005POPC   C2B17588  17.797  38.316   8.379
 1005POPC   C3B17589  17.708  38.101   7.988
 1005POPC   C4B17590  17.628  38.269   7.605
 1006POPC   NC317591  13.083  11.759   9.420
 1006POPC   PO417592  12.861  12.398   9.574
 1006POPC   GL117593  12.750  12.123   9.262
 1006POPC   GL217594  12.414  12.118   9.273
 1006POPC   C1A17595  12.841  12.141   8.836
 1006POPC   D2A17596  12.879  11.893   8.485
 1006POPC   C3A17597  12.809  12.033   8.040
 1006POPC   C4A17598  12.858  11.769   7.663
 1006POPC   C1B17599  12.404  12.343   8.906
 1006POPC   C2B17600  12.502  12.239   8.458
 1006POPC   C3B17601  12.626  12.509   8.152
 1006POPC   C4B17602  12.679  12.463   7.717
 1007POPC   NC317603  32.204   0.875   9.405
 1007POPC   PO417604  32.655   1.354   9.504
 1007POPC   GL117605  32.563   1.252   9.101
 1007POPC   GL217606  32.414   1.562   9.044
 1007POPC   C1A17607  32.308   1.141   8.714
 1007POPC   D2A17608  32.346   1.140   8.245
 1007POPC   C3A17609  32.193   0.909   7.870
 1007POPC   C4A17610  32.538   0.886   7.575
 1007POPC   C1B17611  32.009   1.597   8.858
 1007POPC   C2B17612  32.061   1.574   8.430
 1007POPC   C3B17613  32.297   1.619   8.078
 1007POPC   C4B17614  32.257   1.383   7.720
 1008POPC   NC317615  44.282  34.449   9.334
 1008POPC   PO417616  44.919  34.446   9.516
 1008POPC   GL117617  44.757  34.601   9.145
 1008POPC   GL217618  44.500  34.866   9.145
 1008POPC   C1A17619  44.960  34.545   8.794
 1008POPC   D2A17620   0.108  34.739   8.447
 1008POPC   C3A17621  44.935  34.588   8.108
 1008POPC   C4A17622  44.935  34.468   7.719
 1008POPC   C1B17623  44.403  34.639   8.756
 1008POPC   C2B17624  44.304  34.717   8.347
 1008POPC   C3B17625  44.461  34.643   7.949
 1008POPC   C4B17626  44.373  34.317   7.644
 1009POPC   NC317627   1.229  23.696   9.803
 1009POPC   PO417628   1.708  23.430   9.723
 1009POPC   GL117629   1.511  23.559   9.281
 1009POPC   GL217630   1.329  23.881   9.184
 1009POPC   C1A17631   1.471  23.588   8.787
 1009POPC   D2A17632   1.205  23.614   8.391
 1009POPC   C3A17633   1.374  23.657   7.934
 1009POPC   C4A17634   1.267  23.742   7.472
 1009POPC   C1B17635   1.226  24.042   8.734
 1009POPC   C2B17636   1.255  24.093   8.239
 1009POPC   C3B17637   1.390  24.155   7.795
 1009POPC   C4B17638   1.690  24.076   7.433
 1010POPC   NC317639  34.790  16.932   9.517
 1010POPC   PO417640  34.856  16.340   9.463
 1010POPC   GL117641  34.628  16.620   9.138
 1010POPC   GL217642  34.727  16.994   9.021
 1010POPC   C1A17643  34.685  16.630   8.680
 1010POPC   D2A17644  34.651  16.914   8.328
 1010POPC   C3A17645  34.506  16.721   7.951
 1010POPC   C4A17646  34.698  16.663   7.546
 1010POPC   C1B17647  34.330  17.019   8.742
 1010POPC   C2B17648  34.145  17.110   8.307
 1010POPC   C3B17649  34.151  17.099   7.842
 1010POPC   C4B17650  34.180  17.038   7.389
 1011POPC   NC317651  17.385  33.416   9.579
 1011POPC   PO417652  17.675  34.034   9.657
 1011POPC   GL117653  17.675  33.919   9.206
 1011POPC   GL217654  17.663  33.559   9.155
 1011POPC   C1A17655  17.396  33.905   8.806
 1011POPC   D2A17656  17.202  33.835   8.418
 1011POPC   C3A17657  17.374  33.959   8.013
 1011POPC   C4A17658  17.332  33.655   7.696
 1011POPC   C1B17659  17.765  33.592   8.727
 1011POPC   C2B17660  17.722  33.756   8.342
 1011POPC   C3B17661  17.784  33.618   7.933
 1011POPC   C4B17662  18.140  33.586   7.670
 1012POPC   NC317663  17.906  40.407   9.433
 1012POPC   PO417664  17.953  39.736   9.546
 1012POPC   GL117665  17.676  39.952   9.243
 1012POPC   GL217666  17.648  39.681   9.040
 1012POPC   C1A17667  17.355  40.093   8.925
 1012POPC   D2A17668  17.079  39.980   8.555
 1012POPC   C3A17669  17.150  40.198   8.160
 1012POPC   C4A17670  17.409  40.093   7.799
 1012POPC   C1B17671  17.570  39.765   8.609
 1012POPC   C2B17672  17.607  39.986   8.264
 1012POPC   C3B17673  17.732  39.724   7.949
 1012POPC   C4B17674  17.570  39.661   7.563
 1013POPC   NC317675   3.795  37.082   9.631
 1013POPC   PO417676   3.155  36.690   9.799
 1013POPC   GL117677   3.392  36.868   9.385
 1013POPC   GL217678   3.764  36.754   9.258
 1013POPC   C1A17679   3.477  36.988   8.900
 1013POPC   D2A17680   3.488  37.216   8.457
 1013POPC   C3A17681   3.554  37.022   8.019
 1013POPC   C4A17682   3.268  36.785   7.727
 1013POPC   C1B17683   3.945  36.660   8.843
 1013POPC   C2B17684   3.854  36.762   8.418
 1013POPC   C3B17685   3.907  36.625   7.999
 1013POPC   C4B17686   3.798  36.768   7.610
 1014POPC   NC317687  31.209   0.778   9.381
 1014POPC   PO417688  31.819   1.152   9.548
 1014POPC   GL117689  31.545   1.122   9.230
 1014POPC   GL217690  31.685   0.812   9.195
 1014POPC   C1A17691  31.469   1.350   8.863
 1014POPC   D2A17692  31.537   1.530   8.462
 1014POPC   C3A17693  31.226   1.399   8.163
 1014POPC   C4A17694  31.411   1.294   7.782
 1014POPC   C1B17695  31.463   0.804   8.803
 1014POPC   C2B17696  31.485   1.019   8.432
 1014POPC   C3B17697  31.684   0.949   8.068
 1014POPC   C4B17698  31.501   0.795   7.715
 1015POPC   NC317699  26.611   4.549   9.386
 1015POPC   PO417700  27.021   4.035   9.693
 1015POPC   GL117701  27.060   4.266   9.279
 1015POPC   GL217702  27.084   4.620   9.192
 1015POPC   C1A17703  26.995   4.164   8.836
 1015POPC   D2A17704  26.790   4.282   8.461
 1015POPC   C3A17705  26.919   4.155   8.062
 1015POPC   C4A17706  26.616   4.192   7.760
 1015POPC   C1B17707  26.875   4.659   8.802
 1015POPC   C2B17708  26.915   4.800   8.405
 1015POPC   C3B17709  26.744   4.647   8.040
 1015POPC   C4B17710  26.963   4.586   7.716
 1016POPC   NC317711  16.382  37.541   9.539
 1016POPC   PO417712  15.803  37.630   9.790
 1016POPC   GL117713  15.915  37.802   9.356
 1016POPC   GL217714  15.621  38.002   9.238
 1016POPC   C1A17715  15.951  37.734   8.889
 1016POPC   D2A17716  15.722  37.631   8.491
 1016POPC   C3A17717  15.984  37.616   8.136
 1016POPC   C4A17718  15.975  37.443   7.731
 1016POPC   C1B17719  15.681  38.142   8.792
 1016POPC   C2B17720  15.957  38.077   8.462
 1016POPC   C3B17721  15.987  38.144   8.048
 1016POPC   C4B17722  15.904  37.944   7.682
 1017POPC   NC317723  19.381  13.148   9.430
 1017POPC   PO417724  18.955  12.674   9.616
 1017POPC   GL117725  19.142  12.745   9.194
 1017POPC   GL217726  19.515  12.703   9.229
 1017POPC   C1A17727  19.207  12.992   8.785
 1017POPC   D2A17728  19.316  13.167   8.351
 1017POPC   C3A17729  19.080  13.037   7.950
 1017POPC   C4A17730  18.835  13.049   7.511
 1017POPC   C1B17731  19.504  12.570   8.824
 1017POPC   C2B17732  19.359  12.369   8.469
 1017POPC   C3B17733  19.242  12.552   8.100
 1017POPC   C4B17734  19.469  12.531   7.711
 1018POPC   NC317735  37.834   9.808   9.721
 1018POPC   PO417736  37.240   9.785   9.903
 1018POPC   GL117737  37.313   9.851   9.403
 1018POPC   GL217738  37.437  10.159   9.215
 1018POPC   C1A17739  37.347   9.765   8.913
 1018POPC   D2A17740  37.339   9.889   8.423
 1018POPC   C3A17741  37.545   9.670   8.035
 1018POPC   C4A17742  37.800   9.454   7.680
 1018POPC   C1B17743  37.621  10.173   8.768
 1018POPC   C2B17744  37.784  10.122   8.300
 1018POPC   C3B17745  37.669  10.117   7.834
 1018POPC   C4B17746  37.737   9.992   7.390
 1019POPC   NC317747  19.701  38.194   9.549
 1019POPC   PO417748  20.126  38.665   9.585
 1019POPC   GL117749  19.962  38.454   9.193
 1019POPC   GL217750  19.598  38.544   9.179
 1019POPC   C1A17751  19.824  38.345   8.761
 1019POPC   D2A17752  19.581  38.478   8.383
 1019POPC   C3A17753  19.755  38.270   8.002
 1019POPC   C4A17754  19.735  37.977   7.657
 1019POPC   C1B17755  19.580  38.823   8.805
 1019POPC   C2B17756  19.545  39.036   8.392
 1019POPC   C3B17757  19.405  38.936   7.978
 1019POPC   C4B17758  19.488  38.595   7.690
 1020POPC   NC317759  42.996  44.245   9.680
 1020POPC   PO417760  42.913  44.858   9.421
 1020POPC   GL117761  43.124  44.747   9.096
 1020POPC   GL217762  43.135  44.372   9.199
 1020POPC   C1A17763  43.067  44.875   8.639
 1020POPC   D2A17764  42.845  44.847   8.215
 1020POPC   C3A17765  43.073  44.643   7.895
 1020POPC   C4A17766  42.972  44.489   7.498
 1020POPC   C1B17767  43.107  44.385   8.755
 1020POPC   C2B17768  43.058  44.414   8.357
 1020POPC   C3B17769  43.319  44.234   8.066
 1020POPC   C4B17770  43.465  44.415   7.675
 1021POPC   NC317771   6.514  31.936   9.517
 1021POPC   PO417772   6.594  32.588   9.615
 1021POPC   GL117773   6.632  32.379   9.243
 1021POPC   GL217774   6.309  32.289   9.195
 1021POPC   C1A17775   6.797  32.287   8.833
 1021POPC   D2A17776   6.681  32.343   8.404
 1021POPC   C3A17777   6.759  32.023   8.121
 1021POPC   C4A17778   6.993  32.149   7.756
 1021POPC   C1B17779   6.270  32.255   8.738
 1021POPC   C2B17780   6.216  32.025   8.331
 1021POPC   C3B17781   6.325  32.013   7.889
 1021POPC   C4B17782   6.544  32.400   7.795
 1022POPC   NC317783  14.423  20.870   9.454
 1022POPC   PO417784  14.176  20.273   9.408
 1022POPC   GL117785  14.253  20.523   9.081
 1022POPC   GL217786  14.045  20.807   9.106
 1022POPC   C1A17787  14.497  20.547   8.722
 1022POPC   D2A17788  14.409  20.641   8.321
 1022POPC   C3A17789  14.639  20.451   7.986
 1022POPC   C4A17790  14.571  20.365   7.543
 1022POPC   C1B17791  14.210  21.026   8.755
 1022POPC   C2B17792  14.273  21.140   8.300
 1022POPC   C3B17793  14.394  20.931   7.904
 1022POPC   C4B17794  14.145  20.917   7.552
 1023POPC   NC317795  17.729  29.574   9.319
 1023POPC   PO417796  17.685  30.203   9.527
 1023POPC   GL117797  17.554  30.028   9.164
 1023POPC   GL217798  17.878  29.981   9.078
 1023POPC   C1A17799  17.305  29.926   8.797
 1023POPC   D2A17800  17.334  29.594   8.472
 1023POPC   C3A17801  17.246  29.730   8.053
 1023POPC   C4A17802  17.332  30.102   7.801
 1023POPC   C1B17803  17.798  29.849   8.674
 1023POPC   C2B17804  17.691  29.969   8.286
 1023POPC   C3B17805  17.780  29.813   7.894
 1023POPC   C4B17806  17.490  29.661   7.589
 1024POPC   NC317807   3.568   8.495   9.603
 1024POPC   PO417808   3.723   7.943   9.404
 1024POPC   GL117809   3.490   8.254   9.153
 1024POPC   GL217810   3.736   8.533   9.113
 1024POPC   C1A17811   3.400   8.186   8.711
 1024POPC   D2A17812   3.547   7.844   8.394
 1024POPC   C3A17813   3.662   7.996   7.982
 1024POPC   C4A17814   3.388   8.205   7.660
 1024POPC   C1B17815   3.888   8.220   8.813
 1024POPC   C2B17816   3.838   8.284   8.389
 1024POPC   C3B17817   3.722   8.483   8.000
 1024POPC   C4B17818   3.865   8.311   7.562
 1025POPC   NC317819  33.179  17.092   9.624
 1025POPC   PO417820  32.904  16.644   9.481
 1025POPC   GL117821  33.007  16.992   9.153
 1025POPC   GL217822  33.374  17.078   9.100
 1025POPC   C1A17823  33.087  16.918   8.699
 1025POPC   D2A17824  33.325  16.838   8.296
 1025POPC   C3A17825  33.110  16.903   7.885
 1025POPC   C4A17826  32.948  16.756   7.441
 1025POPC   C1B17827  33.536  17.193   8.654
 1025POPC   C2B17828  33.653  17.225   8.194
 1025POPC   C3B17829  33.681  16.862   7.898
 1025POPC   C4B17830  33.461  16.747   7.533
 1026POPC   NC317831   6.901   2.841   9.390
 1026POPC   PO417832   6.433   2.494   9.273
 1026POPC   GL117833   6.571   2.800   9.025
 1026POPC   GL217834   6.467   3.121   9.170
 1026POPC   C1A17835   6.770   2.757   8.671
 1026POPC   D2A17836   6.554   2.691   8.339
 1026POPC   C3A17837   6.655   2.633   7.954
 1026POPC   C4A17838   6.439   2.747   7.581
 1026POPC   C1B17839   6.501   3.199   8.711
 1026POPC   C2B17840   6.662   3.270   8.289
 1026POPC   C3B17841   6.695   3.141   7.870
 1026POPC   C4B17842   6.851   3.064   7.468
 1027POPC   NC317843  10.848   1.186   9.622
 1027POPC   PO417844  10.161   1.123   9.566
 1027POPC   GL117845  10.445   1.094   9.228
 1027POPC   GL217846  10.401   1.441   9.113
 1027POPC   C1A17847  10.412   1.060   8.769
 1027POPC   D2A17848  10.504   1.287   8.391
 1027POPC   C3A17849  10.650   1.122   7.997
 1027POPC   C4A17850  10.538   0.824   7.680
 1027POPC   C1B17851  10.724   1.508   8.823
 1027POPC   C2B17852  10.884   1.642   8.431
 1027POPC   C3B17853  10.606   1.711   8.103
 1027POPC   C4B17854  10.809   1.581   7.755
 1028POPC   NC317855  43.725  42.579   9.519
 1028POPC   PO417856  44.242  42.310   9.214
 1028POPC   GL117857  43.832  42.178   9.059
 1028POPC   GL217858  43.564  42.421   9.074
 1028POPC   C1A17859  43.811  42.155   8.606
 1028POPC   D2A17860  43.980  42.446   8.298
 1028POPC   C3A17861  44.111  42.304   7.892
 1028POPC   C4A17862  44.168  42.565   7.543
 1028POPC   C1B17863  43.672  42.626   8.714
 1028POPC   C2B17864  43.490  42.536   8.303
 1028POPC   C3B17865  43.604  42.445   7.876
 1028POPC   C4B17866  43.645  42.676   7.480
 1029POPC   NC317867  16.416  38.529   9.387
 1029POPC   PO417868  17.098  38.364   9.521
 1029POPC   GL117869  16.870  38.470   9.154
 1029POPC   GL217870  16.642  38.232   9.002
 1029POPC   C1A17871  17.010  38.518   8.722
 1029POPC   D2A17872  16.979  38.362   8.295
 1029POPC   C3A17873  16.702  38.585   8.016
 1029POPC   C4A17874  16.523  38.869   7.726
 1029POPC   C1B17875  16.430  38.022   8.672
 1029POPC   C2B17876  16.462  38.169   8.244
 1029POPC   C3B17877  16.677  38.071   7.852
 1029POPC   C4B17878  16.549  38.025   7.397
 1030POPC   NC317879  42.812  42.588   9.575
 1030POPC   PO417880  43.366  42.241   9.549
 1030POPC   GL117881  43.175  42.114   9.174
 1030POPC   GL217882  42.834  42.147   9.269
 1030POPC   C1A17883  43.305  42.139   8.730
 1030POPC   D2A17884  43.417  41.967   8.334
 1030POPC   C3A17885  43.236  42.089   7.940
 1030POPC   C4A17886  43.292  42.260   7.489
 1030POPC   C1B17887  42.814  42.246   8.815
 1030POPC   C2B17888  42.893  42.071   8.407
 1030POPC   C3B17889  42.717  42.161   8.004
 1030POPC   C4B17890  42.789  42.260   7.588
 1031POPC   NC317891  30.215   3.416   9.631
 1031POPC   PO417892  29.749   3.817   9.480
 1031POPC   GL117893  30.049   3.628   9.189
 1031POPC   GL217894  29.810   3.526   8.933
 1031POPC   C1A17895  30.266   3.666   8.783
 1031POPC   D2A17896  29.972   3.609   8.405
 1031POPC   C3A17897  30.134   3.398   8.025
 1031POPC   C4A17898  30.543   3.296   7.843
 1031POPC   C1B17899  29.638   3.180   8.667
 1031POPC   C2B17900  29.456   3.157   8.313
 1031POPC   C3B17901  29.621   3.438   8.016
 1031POPC   C4B17902  29.733   3.353   7.589
 1032POPC   NC317903  12.569   5.163   9.519
 1032POPC   PO417904  13.191   5.443   9.552
 1032POPC   GL117905  13.002   5.180   9.178
 1032POPC   GL217906  12.627   5.111   9.028
 1032POPC   C1A17907  13.018   5.179   8.727
 1032POPC   D2A17908  12.790   5.395   8.429
 1032POPC   C3A17909  12.943   5.359   8.027
 1032POPC   C4A17910  12.890   5.566   7.668
 1032POPC   C1B17911  12.471   4.967   8.613
 1032POPC   C2B17912  12.624   4.977   8.159
 1032POPC   C3B17913  12.642   5.055   7.688
 1032POPC   C4B17914  12.471   4.869   7.259
 1033POPC   NC317915  43.625  44.140   9.876
 1033POPC   PO417916  43.952  43.769   9.415
 1033POPC   GL117917  43.538  43.821   9.202
 1033POPC   GL217918  43.433  43.478   9.069
 1033POPC   C1A17919  43.522  44.086   8.809
 1033POPC   D2A17920  43.710  44.013   8.389
 1033POPC   C3A17921  43.800  44.241   8.008
 1033POPC   C4A17922  43.673  43.960   7.707
 1033POPC   C1B17923  43.799  43.585   8.766
 1033POPC   C2B17924  44.082  43.667   8.382
 1033POPC   C3B17925  44.112  43.841   7.951
 1033POPC   C4B17926  44.179  43.939   7.510
 1034POPC   NC317927  16.032  11.666   9.508
 1034POPC   PO417928  15.982  12.329   9.620
 1034POPC   GL117929  16.061  12.119   9.221
 1034POPC   GL217930  15.801  11.864   9.120
 1034POPC   C1A17931  15.955  12.235   8.809
 1034POPC   D2A17932  15.905  12.394   8.417
 1034POPC   C3A17933  16.201  12.174   8.149
 1034POPC   C4A17934  15.926  12.263   7.819
 1034POPC   C1B17935  16.045  11.715   8.806
 1034POPC   C2B17936  15.907  11.871   8.426
 1034POPC   C3B17937  15.897  11.773   7.984
 1034POPC   C4B17938  15.877  11.801   7.541
 1035POPC   NC317939  36.363  22.484   9.409
 1035POPC   PO417940  37.089  22.823   9.457
 1035POPC   GL117941  36.934  22.904   9.133
 1035POPC   GL217942  36.748  22.629   9.107
 1035POPC   C1A17943  36.958  22.979   8.720
 1035POPC   D2A17944  36.803  23.035   8.311
 1035POPC   C3A17945  36.959  22.961   7.884
 1035POPC   C4A17946  36.682  22.997   7.515
 1035POPC   C1B17947  36.560  22.650   8.722
 1035POPC   C2B17948  36.644  22.525   8.329
 1035POPC   C3B17949  36.543  22.655   7.940
 1035POPC   C4B17950  36.824  22.529   7.615
 1036POPC   NC317951  23.973  34.249   9.285
 1036POPC   PO417952  23.576  33.722   9.511
 1036POPC   GL117953  23.739  33.695   9.077
 1036POPC   GL217954  24.063  33.556   9.075
 1036POPC   C1A17955  23.829  33.811   8.639
 1036POPC   D2A17956  23.614  33.716   8.237
 1036POPC   C3A17957  23.708  33.918   7.872
 1036POPC   C4A17958  23.799  33.938   7.422
 1036POPC   C1B17959  24.003  33.283   8.738
 1036POPC   C2B17960  24.190  33.314   8.338
 1036POPC   C3B17961  24.018  33.461   7.964
 1036POPC   C4B17962  23.636  33.428   7.743
 1037POPC   NC317963  31.294   6.084   9.446
 1037POPC   PO417964  31.948   5.920   9.615
 1037POPC   GL117965  31.659   5.823   9.208
 1037POPC   GL217966  31.515   5.527   9.167
 1037POPC   C1A17967  31.348   5.923   8.819
 1037POPC   D2A17968  31.418   6.215   8.482
 1037POPC   C3A17969  31.332   6.064   8.080
 1037POPC   C4A17970  31.493   6.024   7.675
 1037POPC   C1B17971  31.684   5.548   8.746
 1037POPC   C2B17972  31.419   5.646   8.362
 1037POPC   C3B17973  31.422   5.541   7.914
 1037POPC   C4B17974  31.760   5.363   7.703
 1038POPC   NC317975  33.717  29.944   9.655
 1038POPC   PO417976  33.689  30.409   9.236
 1038POPC   GL117977  33.799  30.029   9.124
 1038POPC   GL217978  33.460  29.926   9.201
 1038POPC   C1A17979  34.051  29.965   8.753
 1038POPC   D2A17980  33.863  29.880   8.350
 1038POPC   C3A17981  33.756  30.186   8.044
 1038POPC   C4A17982  33.991  30.072   7.684
 1038POPC   C1B17983  33.443  29.904   8.751
 1038POPC   C2B17984  33.369  29.714   8.350
 1038POPC   C3B17985  33.511  29.757   7.923
 1038POPC   C4B17986  33.502  30.028   7.565
 1039POPC   NC317987   5.517   7.280   9.589
 1039POPC   PO417988   6.135   7.339   9.835
 1039POPC   GL117989   5.971   7.124   9.435
 1039POPC   GL217990   6.089   7.335   9.226
 1039POPC   C1A17991   5.726   7.103   8.973
 1039POPC   D2A17992   5.861   7.154   8.518
 1039POPC   C3A17993   5.661   7.201   8.131
 1039POPC   C4A17994   5.807   7.086   7.773
 1039POPC   C1B17995   6.046   7.522   8.836
 1039POPC   C2B17996   6.261   7.531   8.472
 1039POPC   C3B17997   6.131   7.384   8.059
 1039POPC   C4B17998   5.912   7.626   7.761
 1040POPC   NC317999  29.826   1.402   9.623
 1040POPC   PO418000  30.397   1.072   9.394
 1040POPC   GL118001  29.989   1.152   9.209
 1040POPC   GL218002  30.142   1.335   8.964
 1040POPC   C1A18003  29.674   1.194   8.888
 1040POPC   D2A18004  29.846   1.340   8.506
 1040POPC   C3A18005  29.771   1.181   8.124
 1040POPC   C4A18006  29.860   1.410   7.780
 1040POPC   C1B18007  30.142   0.994   8.725
 1040POPC   C2B18008  30.230   0.990   8.311
 1040POPC   C3B18009  30.241   1.068   7.871
 1040POPC   C4B18010  30.293   0.848   7.474
 1041POPC   NC318011   2.363   5.107   9.496
 1041POPC   PO418012   2.972   4.856   9.547
 1041POPC   GL118013   2.829   5.190   9.280
 1041POPC   GL218014   3.104   5.283   9.106
 1041POPC   C1A18015   2.648   5.254   8.843
 1041POPC   D2A18016   2.841   5.110   8.432
 1041POPC   C3A18017   2.659   5.012   8.010
 1041POPC   C4A18018   2.764   5.196   7.603
 1041POPC   C1B18019   3.015   4.881   8.875
 1041POPC   C2B18020   3.113   4.664   8.494
 1041POPC   C3B18021   3.161   4.860   8.095
 1041POPC   C4B18022   3.018   4.767   7.692
 1042POPC   NC318023  14.728  16.693   9.438
 1042POPC   PO418024  14.172  17.108   9.469
 1042POPC   GL118025  14.167  16.792   9.127
 1042POPC   GL218026  14.503  16.765   8.987
 1042POPC   C1A18027  14.114  16.708   8.666
 1042POPC   D2A18028  14.439  16.854   8.429
 1042POPC   C3A18029  14.359  17.000   8.014
 1042POPC   C4A18030  14.351  16.633   7.777
 1042POPC   C1B18031  14.523  16.423   8.689
 1042POPC   C2B18032  14.572  16.414   8.205
 1042POPC   C3B18033  14.713  16.264   7.782
 1042POPC   C4B18034  14.728  16.551   7.397
 1043POPC   NC318035  38.903  12.000   9.636
 1043POPC   PO418036  39.584  11.816   9.542
 1043POPC   GL118037  39.324  12.031   9.198
 1043POPC   GL218038  38.995  11.863   9.158
 1043POPC   C1A18039  39.456  12.313   8.828
 1043POPC   D2A18040  39.275  12.411   8.419
 1043POPC   C3A18041  39.337  12.020   8.137
 1043POPC   C4A18042  39.234  11.964   7.658
 1043POPC   C1B18043  38.996  12.128   8.822
 1043POPC   C2B18044  38.890  12.058   8.418
 1043POPC   C3B18045  38.883  12.160   7.970
 1043POPC   C4B18046  38.894  12.351   7.558
 1044POPC   NC318047  42.626  33.719   9.477
 1044POPC   PO418048  42.078  34.161   9.581
 1044POPC   GL118049  42.138  33.848   9.227
 1044POPC   GL218050  42.451  33.789   9.013
 1044POPC   C1A18051  42.011  33.590   8.882
 1044POPC   D2A18052  42.239  33.776   8.515
 1044POPC   C3A18053  42.059  33.827   8.104
 1044POPC   C4A18054  42.080  33.582   7.710
 1044POPC   C1B18055  42.673  34.121   8.800
 1044POPC   C2B18056  42.812  34.281   8.406
 1044POPC   C3B18057  42.571  34.050   8.108
 1044POPC   C4B18058  42.390  34.012   7.733
 1045POPC   NC318059   0.154  38.677   9.690
 1045POPC   PO418060   0.495  38.150   9.469
 1045POPC   GL118061   0.410  38.313   9.098
 1045POPC   GL218062   0.175  38.604   9.169
 1045POPC   C1A18063   0.734  38.304   8.776
 1045POPC   D2A18064   0.874  38.519   8.414
 1045POPC   C3A18065   0.713  38.391   7.998
 1045POPC   C4A18066   0.285  38.233   7.842
 1045POPC   C1B18067   0.330  38.660   8.741
 1045POPC   C2B18068   0.332  38.529   8.325
 1045POPC   C3B18069   0.317  38.728   7.949
 1045POPC   C4B18070   0.252  39.002   7.628
 1046POPC   NC318071  44.198  39.735   9.646
 1046POPC   PO418072  43.615  39.830   9.470
 1046POPC   GL118073  43.816  40.100   9.222
 1046POPC   GL218074  44.108  39.936   9.182
 1046POPC   C1A18075  43.867  40.184   8.800
 1046POPC   D2A18076  44.042  40.003   8.449
 1046POPC   C3A18077  43.832  40.127   8.086
 1046POPC   C4A18078  43.847  39.951   7.709
 1046POPC   C1B18079  44.205  39.680   8.836
 1046POPC   C2B18080  44.179  39.500   8.430
 1046POPC   C3B18081  44.136  39.678   8.034
 1046POPC   C4B18082  44.204  39.512   7.611
 1047POPC   NC318083   6.858  39.202  10.003
 1047POPC   PO418084   6.314  39.264   9.634
 1047POPC   GL118085   6.400  39.332   9.187
 1047POPC   GL218086   6.741  39.416   9.176
 1047POPC   C1A18087   6.533  39.279   8.740
 1047POPC   D2A18088   6.716  39.064   8.416
 1047POPC   C3A18089   6.682  39.314   8.059
 1047POPC   C4A18090   6.625  39.191   7.641
 1047POPC   C1B18091   6.788  39.691   8.848
 1047POPC   C2B18092   6.963  39.538   8.468
 1047POPC   C3B18093   7.163  39.469   8.084
 1047POPC   C4B18094   6.987  39.537   7.698
 1048POPC   NC318095   6.614  31.287   9.480
 1048POPC   PO418096   6.248  31.759   9.176
 1048POPC   GL118097   6.592  31.875   9.028
 1048POPC   GL218098   6.709  31.559   9.054
 1048POPC   C1A18099   6.608  31.862   8.620
 1048POPC   D2A18100   6.450  31.546   8.407
 1048POPC   C3A18101   6.746  31.495   8.115
 1048POPC   C4A18102   6.796  31.679   7.716
 1048POPC   C1B18103   6.498  31.199   8.847
 1048POPC   C2B18104   6.395  31.027   8.466
 1048POPC   C3B18105   6.367  31.156   8.073
 1048POPC   C4B18106   6.584  31.223   7.707
 1049POPC   NC318107  37.365  26.787   9.581
 1049POPC   PO418108  37.804  26.217   9.751
 1049POPC   GL118109  37.709  26.484   9.319
 1049POPC   GL218110  37.992  26.685   9.206
 1049POPC   C1A18111  37.573  26.743   8.902
 1049POPC   D2A18112  37.409  26.864   8.472
 1049POPC   C3A18113  37.533  26.792   8.065
 1049POPC   C4A18114  37.794  26.599   7.777
 1049POPC   C1B18115  38.037  26.943   8.812
 1049POPC   C2B18116  37.875  27.053   8.416
 1049POPC   C3B18117  38.065  26.900   8.068
 1049POPC   C4B18118  38.214  26.995   7.681
 1050POPC   NC318119  42.826  36.648   9.447
 1050POPC   PO418120  42.849  37.268   9.566
 1050POPC   GL118121  43.115  37.029   9.255
 1050POPC   GL218122  42.837  36.989   9.065
 1050POPC   C1A18123  43.226  36.644   8.945
 1050POPC   D2A18124  43.243  36.582   8.485
 1050POPC   C3A18125  43.008  36.569   8.082
 1050POPC   C4A18126  43.257  36.608   7.681
 1050POPC   C1B18127  42.869  36.902   8.676
 1050POPC   C2B18128  42.939  37.032   8.294
 1050POPC   C3B18129  42.879  37.134   7.895
 1050POPC   C4B18130  43.174  37.116   7.588
 1051POPC   NC318131  32.688  41.928   9.427
 1051POPC   PO418132  33.335  41.832   9.229
 1051POPC   GL118133  33.036  41.677   8.996
 1051POPC   GL218134  33.079  41.320   9.066
 1051POPC   C1A18135  32.894  41.739   8.541
 1051POPC   D2A18136  32.816  42.066   8.249
 1051POPC   C3A18137  33.019  42.014   7.844
 1051POPC   C4A18138  33.263  41.752   7.592
 1051POPC   C1B18139  33.309  41.442   8.659
 1051POPC   C2B18140  33.296  41.599   8.221
 1051POPC   C3B18141  33.409  41.339   7.861
 1051POPC   C4B18142  33.494  41.307   7.405
 1052POPC   NC318143   5.063  26.530   9.370
 1052POPC   PO418144   5.372  26.935   9.860
 1052POPC   GL118145   5.239  26.997   9.373
 1052POPC   GL218146   5.424  26.859   9.132
 1052POPC   C1A18147   5.014  26.981   8.884
 1052POPC   D2A18148   5.124  26.989   8.380
 1052POPC   C3A18149   4.982  26.930   7.912
 1052POPC   C4A18150   4.782  26.838   7.485
 1052POPC   C1B18151   5.411  26.711   8.716
 1052POPC   C2B18152   5.599  26.826   8.333
 1052POPC   C3B18153   5.472  26.787   7.953
 1052POPC   C4B18154   5.470  26.886   7.575
 1053POPC   NC318155   3.684   6.014   9.495
 1053POPC   PO418156   3.166   5.506   9.578
 1053POPC   GL118157   3.258   5.767   9.210
 1053POPC   GL218158   3.619   5.740   9.077
 1053POPC   C1A18159   3.225   5.660   8.769
 1053POPC   D2A18160   3.502   5.657   8.443
 1053POPC   C3A18161   3.345   5.748   8.021
 1053POPC   C4A18162   3.621   5.680   7.643
 1053POPC   C1B18163   3.490   6.103   8.812
 1053POPC   C2B18164   3.545   6.164   8.381
 1053POPC   C3B18165   3.750   6.050   8.013
 1053POPC   C4B18166   3.693   6.204   7.620
 1054POPC   NC318167  26.596   6.996   9.604
 1054POPC   PO418168  27.065   7.431   9.402
 1054POPC   GL118169  26.782   7.492   9.080
 1054POPC   GL218170  26.626   7.207   9.142
 1054POPC   C1A18171  26.703   7.371   8.615
 1054POPC   D2A18172  27.014   7.253   8.290
 1054POPC   C3A18173  26.919   7.468   7.908
 1054POPC   C4A18174  26.736   7.859   7.752
 1054POPC   C1B18175  26.429   6.921   8.883
 1054POPC   C2B18176  26.527   6.868   8.475
 1054POPC   C3B18177  26.522   7.151   8.132
 1054POPC   C4B18178  26.634   7.047   7.710
 1055POPC   NC318179   0.969   7.542   9.559
 1055POPC   PO418180   1.589   7.437   9.481
 1055POPC   GL118181   1.300   7.477   9.167
 1055POPC   GL218182   1.089   7.765   9.098
 1055POPC   C1A18183   1.187   7.378   8.768
 1055POPC   D2A18184   0.945   7.499   8.456
 1055POPC   C3A18185   1.204   7.573   8.106
 1055POPC   C4A18186   1.184   7.404   7.708
 1055POPC   C1B18187   1.516   7.836   8.894
 1055POPC   C2B18188   1.731   7.766   8.518
 1055POPC   C3B18189   1.722   7.633   8.087
 1055POPC   C4B18190   1.565   7.728   7.694
 1056POPC   NC318191  20.197  29.140   9.335
 1056POPC   PO418192  20.029  29.734   9.570
 1056POPC   GL118193  19.845  29.593   9.157
 1056POPC   GL218194  19.605  29.325   9.175
 1056POPC   C1A18195  19.966  29.342   8.772
 1056POPC   D2A18196  19.815  29.054   8.468
 1056POPC   C3A18197  20.012  29.150   8.083
 1056POPC   C4A18198  19.925  28.985   7.706
 1056POPC   C1B18199  19.469  29.421   8.743
 1056POPC   C2B18200  19.664  29.524   8.311
 1056POPC   C3B18201  19.635  29.418   7.852
 1056POPC   C4B18202  19.609  29.262   7.395
 1057POPC   NC318203  19.251  22.499   9.363
 1057POPC   PO418204  19.171  23.134   9.336
 1057POPC   GL118205  18.936  22.963   9.082
 1057POPC   GL218206  18.639  23.215   9.140
 1057POPC   C1A18207  19.104  22.732   8.715
 1057POPC   D2A18208  19.388  22.765   8.333
 1057POPC   C3A18209  19.179  22.816   7.924
 1057POPC   C4A18210  19.041  22.590   7.547
 1057POPC   C1B18211  18.593  23.009   8.733
 1057POPC   C2B18212  18.858  23.012   8.361
 1057POPC   C3B18213  18.746  23.118   7.969
 1057POPC   C4B18214  18.814  23.024   7.567
 1058POPC   NC318215  25.280  29.756   9.314
 1058POPC   PO418216  25.007  30.310   9.481
 1058POPC   GL118217  24.926  30.055   9.092
 1058POPC   GL218218  24.831  29.698   9.107
 1058POPC   C1A18219  25.058  29.892   8.650
 1058POPC   D2A18220  25.046  29.924   8.173
 1058POPC   C3A18221  25.372  29.727   7.888
 1058POPC   C4A18222  25.655  29.707   7.527
 1058POPC   C1B18223  24.860  29.411   8.763
 1058POPC   C2B18224  24.766  29.559   8.365
 1058POPC   C3B18225  24.944  29.447   7.951
 1058POPC   C4B18226  25.049  29.537   7.515
 1059POPC   NC318227  13.357  16.245   9.379
 1059POPC   PO418228  12.973  15.727   9.627
 1059POPC   GL118229  12.828  15.903   9.209
 1059POPC   GL218230  13.132  15.893   9.053
 1059POPC   C1A18231  12.714  15.946   8.734
 1059POPC   D2A18232  12.989  15.797   8.384
 1059POPC   C3A18233  12.992  16.002   7.984
 1059POPC   C4A18234  12.654  16.155   7.764
 1059POPC   C1B18235  12.930  15.503   8.807
 1059POPC   C2B18236  12.618  15.449   8.457
 1059POPC   C3B18237  12.623  15.629   8.038
 1059POPC   C4B18238  13.015  15.522   7.855
 1060POPC   NC318239   1.958   7.145   9.455
 1060POPC   PO418240   2.253   7.711   9.510
 1060POPC   GL118241   2.303   7.410   9.206
 1060POPC   GL218242   1.954   7.527   9.102
 1060POPC   C1A18243   2.202   7.193   8.817
 1060POPC   D2A18244   2.029   7.362   8.442
 1060POPC   C3A18245   2.213   7.398   8.032
 1060POPC   C4A18246   2.386   7.698   7.745
 1060POPC   C1B18247   1.687   7.298   8.832
 1060POPC   C2B18248   1.537   7.256   8.411
 1060POPC   C3B18249   1.779   7.139   8.063
 1060POPC   C4B18250   1.599   7.103   7.706
 1061POPC   NC318251  10.824  39.086   9.623
 1061POPC   PO418252  10.543  39.605   9.505
 1061POPC   GL118253  10.436  39.362   9.171
 1061POPC   GL218254  10.145  39.234   9.158
 1061POPC   C1A18255  10.591  39.262   8.789
 1061POPC   D2A18256  10.517  39.292   8.333
 1061POPC   C3A18257  10.841  39.164   8.051
 1061POPC   C4A18258  10.849  39.069   7.624
 1061POPC   C1B18259  10.067  39.461   8.759
 1061POPC   C2B18260  10.064  39.599   8.337
 1061POPC   C3B18261  10.191  39.467   7.954
 1061POPC   C4B18262  10.379  39.090   7.822
 1062POPC   NC318263  39.064  38.014   9.429
 1062POPC   PO418264  39.399  37.420   9.491
 1062POPC   GL118265  39.111  37.542   9.200
 1062POPC   GL218266  39.373  37.763   9.075
 1062POPC   C1A18267  38.927  37.698   8.807
 1062POPC   D2A18268  39.110  37.844   8.418
 1062POPC   C3A18269  39.146  37.596   8.037
 1062POPC   C4A18270  39.248  37.511   7.598
 1062POPC   C1B18271  39.546  37.946   8.698
 1062POPC   C2B18272  39.520  38.145   8.272
 1062POPC   C3B18273  39.178  38.123   7.966
 1062POPC   C4B18274  39.192  37.995   7.528
 1063POPC   NC318275  36.030  22.164   9.768
 1063POPC   PO418276  35.893  22.482   9.250
 1063POPC   GL118277  36.203  22.334   8.974
 1063POPC   GL218278  36.212  22.039   9.129
 1063POPC   C1A18279  36.356  22.180   8.632
 1063POPC   D2A18280  36.151  22.405   8.349
 1063POPC   C3A18281  36.143  22.205   7.988
 1063POPC   C4A18282  35.799  22.290   7.725
 1063POPC   C1B18283  35.919  21.924   8.786
 1063POPC   C2B18284  35.942  21.890   8.401
 1063POPC   C3B18285  35.704  21.947   8.087
 1063POPC   C4B18286  35.694  21.772   7.706
 1064POPC   NC318287  28.853  17.353   9.357
 1064POPC   PO418288  29.402  17.715   9.595
 1064POPC   GL118289  29.321  17.853   9.185
 1064POPC   GL218290  29.064  17.648   9.006
 1064POPC   C1A18291  29.374  17.964   8.784
 1064POPC   D2A18292  29.167  17.732   8.468
 1064POPC   C3A18293  29.272  17.738   8.043
 1064POPC   C4A18294  29.051  17.645   7.682
 1064POPC   C1B18295  29.003  17.302   8.680
 1064POPC   C2B18296  28.899  17.364   8.221
 1064POPC   C3B18297  29.086  17.151   7.872
 1064POPC   C4B18298  29.023  17.072   7.418
 1065POPC   NC318299  12.012   9.451   9.579
 1065POPC   PO418300  12.343   8.881   9.593
 1065POPC   GL118301  12.179   9.075   9.237
 1065POPC   GL218302  11.832   9.061   9.290
 1065POPC   C1A18303  12.146   9.212   8.822
 1065POPC   D2A18304  12.075   8.988   8.448
 1065POPC   C3A18305  12.170   9.123   8.048
 1065POPC   C4A18306  12.017   9.052   7.656
 1065POPC   C1B18307  11.628   9.078   8.904
 1065POPC   C2B18308  11.552   8.999   8.482
 1065POPC   C3B18309  11.660   9.142   8.091
 1065POPC   C4B18310  11.705   9.450   7.778
 1066POPC   NC318311  36.235  41.013   9.991
 1066POPC   PO418312  36.137  41.534   9.553
 1066POPC   GL118313  36.151  41.384   9.141
 1066POPC   GL218314  35.922  41.619   9.001
 1066POPC   C1A18315  36.237  41.403   8.702
 1066POPC   D2A18316  35.983  41.558   8.407
 1066POPC   C3A18317  36.195  41.405   8.078
 1066POPC   C4A18318  36.376  41.533   7.700
 1066POPC   C1B18319  35.797  41.914   8.759
 1066POPC   C2B18320  35.606  41.947   8.391
 1066POPC   C3B18321  35.799  41.982   8.018
 1066POPC   C4B18322  35.893  41.696   7.728
 1067POPC   NC318323  29.248  27.720   9.437
 1067POPC   PO418324  29.763  27.689   9.245
 1067POPC   GL118325  29.414  27.564   8.930
 1067POPC   GL218326  29.046  27.480   9.045
 1067POPC   C1A18327  29.375  27.418   8.468
 1067POPC   D2A18328  29.513  27.334   8.023
 1067POPC   C3A18329  29.261  27.519   7.678
 1067POPC   C4A18330  29.049  27.921   7.639
 1067POPC   C1B18331  28.867  27.416   8.637
 1067POPC   C2B18332  28.950  27.304   8.191
 1067POPC   C3B18333  28.787  27.519   7.832
 1067POPC   C4B18334  28.865  27.430   7.394
 1068POPC   NC318335  44.305  15.283   9.557
 1068POPC   PO418336  44.937  15.417   9.566
 1068POPC   GL118337  44.743  15.047   9.309
 1068POPC   GL218338  44.401  15.065   9.127
 1068POPC   C1A18339  44.799  14.954   8.847
 1068POPC   D2A18340  44.619  15.125   8.485
 1068POPC   C3A18341  44.709  14.962   8.094
 1068POPC   C4A18342  44.845  15.218   7.791
 1068POPC   C1B18343  44.264  15.336   8.823
 1068POPC   C2B18344  44.135  15.336   8.414
 1068POPC   C3B18345  44.348  15.317   8.048
 1068POPC   C4B18346  44.388  15.388   7.643
 1069POPC   NC318347  16.666  33.263   9.510
 1069POPC   PO418348  17.196  32.981   9.599
 1069POPC   GL118349  16.909  32.864   9.281
 1069POPC   GL218350  17.143  32.637   9.166
 1069POPC   C1A18351  16.664  32.957   8.871
 1069POPC   D2A18352  16.536  32.966   8.409
 1069POPC   C3A18353  16.577  33.197   8.008
 1069POPC   C4A18354  16.610  32.854   7.693
 1069POPC   C1B18355  17.162  32.958   8.865
 1069POPC   C2B18356  17.070  32.945   8.445
 1069POPC   C3B18357  17.000  32.910   8.017
 1069POPC   C4B18358  16.970  33.233   7.679
 1070POPC   NC318359  23.155   7.832   9.467
 1070POPC   PO418360  22.953   7.193   9.533
 1070POPC   GL118361  22.858   7.237   9.153
 1070POPC   GL218362  22.799   7.573   9.179
 1070POPC   C1A18363  22.828   7.306   8.731
 1070POPC   D2A18364  23.045   7.172   8.386
 1070POPC   C3A18365  23.075   7.436   8.027
 1070POPC   C4A18366  23.154   7.285   7.619
 1070POPC   C1B18367  22.898   7.818   8.854
 1070POPC   C2B18368  22.821   7.735   8.440
 1070POPC   C3B18369  22.752   7.854   8.036
 1070POPC   C4B18370  22.666   7.552   7.718
 1071POPC   NC318371  11.630  25.058   9.530
 1071POPC   PO418372  11.015  25.252   9.655
 1071POPC   GL118373  11.118  25.236   9.198
 1071POPC   GL218374  11.428  25.388   9.108
 1071POPC   C1A18375  11.103  25.324   8.737
 1071POPC   D2A18376  11.128  25.538   8.327
 1071POPC   C3A18377  11.065  25.317   7.932
 1071POPC   C4A18378  11.245  25.206   7.527
 1071POPC   C1B18379  11.526  25.630   8.709
 1071POPC   C2B18380  11.760  25.562   8.329
 1071POPC   C3B18381  11.737  25.433   7.898
 1071POPC   C4B18382  11.648  25.500   7.436
 1072POPC   NC318383  21.643  41.879   9.539
 1072POPC   PO418384  21.002  41.571   9.612
 1072POPC   GL118385  21.251  41.658   9.221
 1072POPC   GL218386  21.547  41.431   9.164
 1072POPC   C1A18387  21.091  41.822   8.807
 1072POPC   D2A18388  21.152  41.649   8.391
 1072POPC   C3A18389  21.343  41.757   7.981
 1072POPC   C4A18390  21.050  41.751   7.614
 1072POPC   C1B18391  21.388  41.393   8.761
 1072POPC   C2B18392  21.633  41.475   8.367
 1072POPC   C3B18393  21.830  41.438   7.955
 1072POPC   C4B18394  21.790  41.329   7.494
 1073POPC   NC318395  26.507  17.050   9.536
 1073POPC   PO418396  27.099  16.622   9.479
 1073POPC   GL118397  26.918  16.636   9.104
 1073POPC   GL218398  26.602  16.740   9.122
 1073POPC   C1A18399  26.928  16.724   8.677
 1073POPC   D2A18400  26.918  16.917   8.315
 1073POPC   C3A18401  26.988  16.690   7.963
 1073POPC   C4A18402  26.909  16.935   7.654
 1073POPC   C1B18403  26.530  17.022   8.771
 1073POPC   C2B18404  26.379  16.992   8.369
 1073POPC   C3B18405  26.505  16.892   7.980
 1073POPC   C4B18406  26.506  16.546   7.720
 1074POPC   NC318407  38.584  32.395   9.915
 1074POPC   PO418408  38.250  32.064   9.389
 1074POPC   GL118409  38.494  32.357   9.122
 1074POPC   GL218410  38.827  32.511   9.189
 1074POPC   C1A18411  38.526  32.276   8.686
 1074POPC   D2A18412  38.452  32.064   8.290
 1074POPC   C3A18413  38.513  31.938   7.882
 1074POPC   C4A18414  38.402  32.216   7.508
 1074POPC   C1B18415  38.950  32.566   8.746
 1074POPC   C2B18416  38.788  32.527   8.325
 1074POPC   C3B18417  38.665  32.431   7.913
 1074POPC   C4B18418  38.808  32.575   7.477
 1075POPC   NC318419  39.750  25.243  10.122
 1075POPC   PO418420  40.197  25.140   9.640
 1075POPC   GL118421  40.040  25.123   9.200
 1075POPC   GL218422  40.327  25.255   9.121
 1075POPC   C1A18423  40.017  25.223   8.719
 1075POPC   D2A18424  40.103  25.455   8.333
 1075POPC   C3A18425  39.969  25.259   7.942
 1075POPC   C4A18426  39.588  25.318   7.676
 1075POPC   C1B18427  40.447  24.946   8.825
 1075POPC   C2B18428  40.351  24.957   8.395
 1075POPC   C3B18429  40.552  25.025   8.026
 1075POPC   C4B18430  40.400  25.054   7.601
 1076POPC   NC318431  26.450  33.294   9.503
 1076POPC   PO418432  26.822  32.784   9.719
 1076POPC   GL118433  26.817  32.898   9.243
 1076POPC   GL218434  26.498  32.877   9.211
 1076POPC   C1A18435  26.789  33.141   8.816
 1076POPC   D2A18436  26.877  33.367   8.377
 1076POPC   C3A18437  26.851  33.235   7.896
 1076POPC   C4A18438  26.910  33.253   7.389
 1076POPC   C1B18439  26.391  32.790   8.790
 1076POPC   C2B18440  26.544  32.937   8.385
 1076POPC   C3B18441  26.612  32.751   7.993
 1076POPC   C4B18442  26.809  32.810   7.606
 1077POPC   NC318443  39.466  33.788   9.534
 1077POPC   PO418444  38.787  33.534   9.525
 1077POPC   GL118445  39.065  33.770   9.205
 1077POPC   GL218446  39.440  33.718   9.039
 1077POPC   C1A18447  39.080  33.975   8.816
 1077POPC   D2A18448  39.269  33.803   8.523
 1077POPC   C3A18449  39.178  33.938   8.113
 1077POPC   C4A18450  39.428  33.800   7.795
 1077POPC   C1B18451  39.602  33.374   8.763
 1077POPC   C2B18452  39.751  33.265   8.348
 1077POPC   C3B18453  39.469  33.309   7.988
 1077POPC   C4B18454  39.551  33.373   7.541
 1078POPC   NC318455   7.759  30.985   9.453
 1078POPC   PO418456   7.373  30.477   9.499
 1078POPC   GL118457   7.212  30.623   9.125
 1078POPC   GL218458   7.428  30.835   9.089
 1078POPC   C1A18459   7.236  30.491   8.701
 1078POPC   D2A18460   7.372  30.633   8.309
 1078POPC   C3A18461   7.227  30.528   7.918
 1078POPC   C4A18462   7.481  30.564   7.546
 1078POPC   C1B18463   7.402  31.004   8.688
 1078POPC   C2B18464   7.643  31.043   8.309
 1078POPC   C3B18465   7.578  30.976   7.862
 1078POPC   C4B18466   7.747  31.157   7.462
 1079POPC   NC318467  43.072  14.081   9.507
 1079POPC   PO418468  43.341  13.470   9.422
 1079POPC   GL118469  43.021  13.632   9.135
 1079POPC   GL218470  42.867  13.951   9.068
 1079POPC   C1A18471  43.073  13.640   8.683
 1079POPC   D2A18472  43.196  13.333   8.346
 1079POPC   C3A18473  43.181  13.531   7.927
 1079POPC   C4A18474  42.877  13.444   7.575
 1079POPC   C1B18475  42.797  14.067   8.653
 1079POPC   C2B18476  42.923  13.916   8.230
 1079POPC   C3B18477  42.876  13.916   7.768
 1079POPC   C4B18478  42.919  14.016   7.300
 1080POPC   NC318479  12.422  21.947   9.536
 1080POPC   PO418480  11.864  22.332   9.460
 1080POPC   GL118481  12.083  22.302   9.101
 1080POPC   GL218482  12.418  22.234   9.121
 1080POPC   C1A18483  12.025  22.152   8.702
 1080POPC   D2A18484  11.867  22.165   8.296
 1080POPC   C3A18485  12.094  22.412   8.027
 1080POPC   C4A18486  11.920  22.659   7.734
 1080POPC   C1B18487  12.501  21.957   8.811
 1080POPC   C2B18488  12.467  22.078   8.386
 1080POPC   C3B18489  12.522  22.155   7.967
 1080POPC   C4B18490  12.299  21.997   7.620
 1081POPC   NC318491  14.451  13.916   9.539
 1081POPC   PO418492  14.135  13.380   9.545
 1081POPC   GL118493  14.492  13.405   9.256
 1081POPC   GL218494  14.587  13.723   9.104
 1081POPC   C1A18495  14.488  13.335   8.819
 1081POPC   D2A18496  14.314  13.627   8.545
 1081POPC   C3A18497  14.220  13.518   8.139
 1081POPC   C4A18498  14.201  13.571   7.699
 1081POPC   C1B18499  14.805  13.710   8.724
 1081POPC   C2B18500  14.775  13.523   8.357
 1081POPC   C3B18501  14.671  13.663   7.958
 1081POPC   C4B18502  14.694  13.435   7.602
 1082POPC   NC318503   9.141  42.589   9.359
 1082POPC   PO418504   8.743  42.045   9.538
 1082POPC   GL118505   8.651  42.111   9.120
 1082POPC   GL218506   8.937  42.305   8.999
 1082POPC   C1A18507   8.731  41.964   8.700
 1082POPC   D2A18508   8.929  42.188   8.389
 1082POPC   C3A18509   8.682  42.199   8.051
 1082POPC   C4A18510   8.774  42.124   7.649
 1082POPC   C1B18511   9.229  42.516   8.701
 1082POPC   C2B18512   9.246  42.610   8.261
 1082POPC   C3B18513   9.070  42.511   7.851
 1082POPC   C4B18514   9.228  42.297   7.502
 1083POPC   NC318515   8.885  44.412   9.293
 1083POPC   PO418516   8.888  43.757   9.523
 1083POPC   GL118517   8.953  43.920   9.125
 1083POPC   GL218518   9.300  43.817   9.098
 1083POPC   C1A18519   9.089  44.056   8.694
 1083POPC   D2A18520   8.983  44.218   8.270
 1083POPC   C3A18521   8.822  43.994   7.918
 1083POPC   C4A18522   8.625  43.911   7.495
 1083POPC   C1B18523   9.249  43.551   8.729
 1083POPC   C2B18524   9.537  43.393   8.393
 1083POPC   C3B18525   9.416  43.453   7.978
 1083POPC   C4B18526   9.228  43.749   7.707
 1084POPC   NC318527  35.676  22.038   9.339
 1084POPC   PO418528  35.670  22.542   9.822
 1084POPC   GL118529  35.374  22.464   9.382
 1084POPC   GL218530  35.145  22.140   9.286
 1084POPC   C1A18531  35.294  22.405   8.884
 1084POPC   D2A18532  35.575  22.273   8.518
 1084POPC   C3A18533  35.403  22.354   8.102
 1084POPC   C4A18534  35.121  22.513   7.782
 1084POPC   C1B18535  35.217  21.892   8.864
 1084POPC   C2B18536  35.429  21.751   8.482
 1084POPC   C3B18537  35.250  21.731   8.075
 1084POPC   C4B18538  35.267  22.026   7.735
 1085POPC   NC318539  42.088  13.306   9.494
 1085POPC   PO418540  42.649  13.778   9.518
 1085POPC   GL118541  42.501  13.587   9.171
 1085POPC   GL218542  42.160  13.643   9.099
 1085POPC   C1A18543  42.542  13.637   8.744
 1085POPC   D2A18544  42.393  13.434   8.375
 1085POPC   C3A18545  42.689  13.468   8.087
 1085POPC   C4A18546  42.439  13.622   7.804
 1085POPC   C1B18547  42.016  13.655   8.657
 1085POPC   C2B18548  41.956  13.708   8.171
 1085POPC   C3B18549  41.989  13.831   7.709
 1085POPC   C4B18550  41.984  13.709   7.242
 1086POPC   NC318551   0.946   4.979   9.575
 1086POPC   PO418552   1.278   5.553   9.531
 1086POPC   GL118553   1.335   5.253   9.162
 1086POPC   GL218554   1.204   4.922   9.145
 1086POPC   C1A18555   1.071   5.235   8.763
 1086POPC   D2A18556   1.052   5.048   8.373
 1086POPC   C3A18557   1.091   5.339   8.033
 1086POPC   C4A18558   1.386   5.297   7.712
 1086POPC   C1B18559   1.159   4.722   8.766
 1086POPC   C2B18560   1.405   4.645   8.386
 1086POPC   C3B18561   1.273   4.768   7.964
 1086POPC   C4B18562   1.489   4.758   7.572
 1087POPC   NC318563  10.283  20.210   9.528
 1087POPC   PO418564  10.804  19.815   9.368
 1087POPC   GL118565  10.488  19.978   9.097
 1087POPC   GL218566  10.113  20.045   9.084
 1087POPC   C1A18567  10.454  19.807   8.692
 1087POPC   D2A18568  10.534  19.636   8.296
 1087POPC   C3A18569  10.310  19.780   7.946
 1087POPC   C4A18570  10.386  19.657   7.495
 1087POPC   C1B18571  10.273  20.276   8.732
 1087POPC   C2B18572  10.547  20.214   8.385
 1087POPC   C3B18573  10.474  20.299   7.981
 1087POPC   C4B18574  10.371  20.158   7.591
 1088POPC   NC318575  31.834   7.662   9.751
 1088POPC   PO418576  31.238   7.531   9.538
 1088POPC   GL118577  31.442   7.518   9.141
 1088POPC   GL218578  31.793   7.567   9.102
 1088POPC   C1A18579  31.485   7.256   8.751
 1088POPC   D2A18580  31.183   7.124   8.418
 1088POPC   C3A18581  31.387   7.154   8.041
 1088POPC   C4A18582  31.551   7.175   7.648
 1088POPC   C1B18583  31.601   7.761   8.719
 1088POPC   C2B18584  31.522   7.628   8.312
 1088POPC   C3B18585  31.546   7.646   7.887
 1088POPC   C4B18586  31.615   7.686   7.445
 1089POPC   NC318587  20.921  20.258   9.566
 1089POPC   PO418588  20.529  20.789   9.471
 1089POPC   GL118589  20.655  20.413   9.153
 1089POPC   GL218590  20.974  20.292   9.073
 1089POPC   C1A18591  20.481  20.303   8.758
 1089POPC   D2A18592  20.392  20.683   8.516
 1089POPC   C3A18593  20.339  20.617   8.093
 1089POPC   C4A18594  20.355  20.215   7.922
 1089POPC   C1B18595  20.919  20.586   8.736
 1089POPC   C2B18596  20.864  20.693   8.308
 1089POPC   C3B18597  20.830  20.576   7.896
 1089POPC   C4B18598  20.857  21.001   7.774
 1090POPC   NC318599  31.404   7.078   9.442
 1090POPC   PO418600  31.637   6.382   9.496
 1090POPC   GL118601  31.304   6.573   9.225
 1090POPC   GL218602  31.489   6.396   8.973
 1090POPC   C1A18603  31.220   6.804   8.825
 1090POPC   D2A18604  31.493   6.723   8.443
 1090POPC   C3A18605  31.317   6.633   8.047
 1090POPC   C4A18606  31.188   6.806   7.640
 1090POPC   C1B18607  31.749   6.791   8.885
 1090POPC   C2B18608  31.931   6.982   8.486
 1090POPC   C3B18609  31.816   6.868   8.037
 1090POPC   C4B18610  31.692   6.538   7.714
 1091POPC   NC318611  33.366   7.199   9.165
 1091POPC   PO418612  32.845   7.487   9.476
 1091POPC   GL118613  32.955   7.481   9.037
 1091POPC   GL218614  32.689   7.250   8.993
 1091POPC   C1A18615  33.243   7.471   8.611
 1091POPC   D2A18616  33.538   7.442   8.252
 1091POPC   C3A18617  33.269   7.413   7.919
 1091POPC   C4A18618  32.923   7.681   7.774
 1091POPC   C1B18619  32.792   7.239   8.602
 1091POPC   C2B18620  32.862   7.455   8.269
 1091POPC   C3B18621  32.745   7.254   7.971
 1091POPC   C4B18622  32.965   7.122   7.667
 1092POPC   NC318623  39.379  31.185   9.589
 1092POPC   PO418624  38.885  31.759   9.674
 1092POPC   GL118625  39.004  31.688   9.250
 1092POPC   GL218626  39.352  31.524   9.192
 1092POPC   C1A18627  38.979  31.567   8.825
 1092POPC   D2A18628  39.313  31.567   8.520
 1092POPC   C3A18629  39.241  31.316   8.154
 1092POPC   C4A18630  38.980  31.342   7.766
 1092POPC   C1B18631  39.497  31.203   8.879
 1092POPC   C2B18632  39.717  31.256   8.486
 1092POPC   C3B18633  39.743  31.116   8.090
 1092POPC   C4B18634  39.496  31.163   7.743
 1093POPC   NC318635  28.612  19.025   9.411
 1093POPC   PO418636  27.979  18.771   9.279
 1093POPC   GL118637  28.291  18.928   9.008
 1093POPC   GL218638  28.469  19.255   8.974
 1093POPC   C1A18639  28.255  18.781   8.609
 1093POPC   D2A18640  28.195  18.860   8.195
 1093POPC   C3A18641  28.476  19.145   8.010
 1093POPC   C4A18642  28.319  19.233   7.670
 1093POPC   C1B18643  28.053  19.351   8.817
 1093POPC   C2B18644  27.962  19.504   8.421
 1093POPC   C3B18645  28.012  19.341   8.061
 1093POPC   C4B18646  27.851  19.448   7.684
 1094POPC   NC318647  38.163  32.503   9.507
 1094POPC   PO418648  37.532  32.110   9.528
 1094POPC   GL118649  37.735  32.328   9.196
 1094POPC   GL218650  37.808  32.682   9.171
 1094POPC   C1A18651  37.592  32.393   8.782
 1094POPC   D2A18652  37.774  32.229   8.424
 1094POPC   C3A18653  37.613  32.360   8.048
 1094POPC   C4A18654  37.621  32.001   7.752
 1094POPC   C1B18655  38.081  32.499   8.819
 1094POPC   C2B18656  38.206  32.494   8.359
 1094POPC   C3B18657  38.124  32.301   7.952
 1094POPC   C4B18658  37.852  32.461   7.619
 1095POPC   NC318659  29.710  30.845   9.663
 1095POPC   PO418660  29.049  30.886   9.631
 1095POPC   GL118661  28.962  30.789   9.183
 1095POPC   GL218662  29.184  31.032   9.072
 1095POPC   C1A18663  29.026  30.602   8.756
 1095POPC   D2A18664  28.996  30.404   8.338
 1095POPC   C3A18665  29.044  30.597   7.932
 1095POPC   C4A18666  29.331  30.484   7.613
 1095POPC   C1B18667  28.857  31.075   8.733
 1095POPC   C2B18668  28.816  30.885   8.308
 1095POPC   C3B18669  28.814  31.053   7.876
 1095POPC   C4B18670  28.699  31.087   7.430
 1096POPC   NC318671  39.851   1.787   9.557
 1096POPC   PO418672  40.484   1.703   9.215
 1096POPC   GL118673  40.087   1.810   9.084
 1096POPC   GL218674  40.137   2.141   9.165
 1096POPC   C1A18675  39.808   1.960   8.743
 1096POPC   D2A18676  39.720   1.793   8.331
 1096POPC   C3A18677  39.852   2.048   7.996
 1096POPC   C4A18678  40.004   1.956   7.566
 1096POPC   C1B18679  40.293   2.136   8.720
 1096POPC   C2B18680  40.177   2.304   8.309
 1096POPC   C3B18681  40.254   2.336   7.852
 1096POPC   C4B18682  40.219   2.404   7.387
 1097POPC   NC318683  25.455  12.310   9.329
 1097POPC   PO418684  24.969  11.756   9.454
 1097POPC   GL118685  25.209  11.896   9.113
 1097POPC   GL218686  24.919  12.023   8.925
 1097POPC   C1A18687  25.395  11.983   8.714
 1097POPC   D2A18688  25.195  11.853   8.303
 1097POPC   C3A18689  25.356  12.022   7.911
 1097POPC   C4A18690  25.323  11.920   7.481
 1097POPC   C1B18691  25.111  12.395   8.686
 1097POPC   C2B18692  25.393  12.331   8.327
 1097POPC   C3B18693  25.441  12.525   7.927
 1097POPC   C4B18694  25.241  12.444   7.567
 1098POPC   NC318695  12.917  16.797   9.991
 1098POPC   PO418696  12.567  16.988   9.496
 1098POPC   GL118697  12.746  16.749   9.119
 1098POPC   GL218698  12.926  16.447   9.201
 1098POPC   C1A18699  12.844  16.805   8.667
 1098POPC   D2A18700  12.736  16.867   8.234
 1098POPC   C3A18701  12.954  17.005   7.874
 1098POPC   C4A18702  12.854  16.801   7.447
 1098POPC   C1B18703  13.056  16.329   8.774
 1098POPC   C2B18704  12.884  16.343   8.352
 1098POPC   C3B18705  13.011  16.501   7.930
 1098POPC   C4B18706  13.127  16.326   7.524
 1099POPC   NC318707  26.317  11.846   9.530
 1099POPC   PO418708  25.913  12.375   9.408
 1099POPC   GL118709  25.880  12.152   9.029
 1099POPC   GL218710  26.155  11.883   9.038
 1099POPC   C1A18711  25.903  12.120   8.563
 1099POPC   D2A18712  26.258  12.072   8.265
 1099POPC   C3A18713  26.185  12.077   7.812
 1099POPC   C4A18714  26.265  12.387   7.469
 1099POPC   C1B18715  25.793  11.686   8.857
 1099POPC   C2B18716  25.631  11.616   8.466
 1099POPC   C3B18717  25.792  11.833   8.117
 1099POPC   C4B18718  25.766  11.761   7.685
 1100POPC   NC318719  31.196  32.223   9.318
 1100POPC   PO418720  30.647  32.016   9.659
 1100POPC   GL118721  30.712  32.093   9.204
 1100POPC   GL218722  30.580  32.376   9.053
 1100POPC   C1A18723  30.801  32.091   8.727
 1100POPC   D2A18724  30.596  32.291   8.377
 1100POPC   C3A18725  30.762  32.151   7.987
 1100POPC   C4A18726  30.558  32.015   7.603
 1100POPC   C1B18727  30.776  32.621   8.718
 1100POPC   C2B18728  30.825  32.766   8.300
 1100POPC   C3B18729  30.551  32.633   7.981
 1100POPC   C4B18730  30.720  32.482   7.609
 1101POPC   NC318731   2.743   5.675   9.485
 1101POPC   PO418732   2.633   6.333   9.398
 1101POPC   GL118733   2.781   6.028   9.138
 1101POPC   GL218734   3.024   6.205   9.021
 1101POPC   C1A18735   2.733   5.764   8.767
 1101POPC   D2A18736   2.553   5.546   8.381
 1101POPC   C3A18737   2.882   5.482   8.070
 1101POPC   C4A18738   2.958   5.670   7.682
 1101POPC   C1B18739   2.613   6.270   8.738
 1101POPC   C2B18740   2.580   6.072   8.314
 1101POPC   C3B18741   2.650   6.034   7.884
 1101POPC   C4B18742   2.696   6.334   7.583
 1102POPC   NC318743   0.144   5.517   9.488
 1102POPC   PO418744   0.494   4.895   9.509
 1102POPC   GL118745   0.467   5.211   9.231
 1102POPC   GL218746   0.796   5.265   9.173
 1102POPC   C1A18747   0.352   5.329   8.810
 1102POPC   D2A18748   0.116   5.170   8.450
 1102POPC   C3A18749   0.312   5.117   8.057
 1102POPC   C4A18750   0.244   4.929   7.662
 1102POPC   C1B18751   0.680   4.922   8.852
 1102POPC   C2B18752   0.574   4.860   8.420
 1102POPC   C3B18753   0.757   4.889   7.975
 1102POPC   C4B18754   0.916   5.112   7.612
 1103POPC   NC318755  44.146   4.366   9.472
 1103POPC   PO418756  43.605   4.062   9.516
 1103POPC   GL118757  43.862   4.081   9.149
 1103POPC   GL218758  43.791   4.463   9.116
 1103POPC   C1A18759  44.058   4.227   8.755
 1103POPC   D2A18760  43.869   4.162   8.330
 1103POPC   C3A18761  44.025   4.400   7.988
 1103POPC   C4A18762  44.071   4.327   7.548
 1103POPC   C1B18763  43.552   4.253   8.753
 1103POPC   C2B18764  43.411   4.407   8.318
 1103POPC   C3B18765  43.551   4.493   7.853
 1103POPC   C4B18766  43.613   4.480   7.382
 1104POPC   NC318767  35.653  17.245   9.508
 1104POPC   PO418768  35.299  17.855   9.553
 1104POPC   GL118769  35.319  17.670   9.127
 1104POPC   GL218770  35.496  17.362   9.033
 1104POPC   C1A18771  35.128  17.547   8.721
 1104POPC   D2A18772  35.347  17.571   8.327
 1104POPC   C3A18773  35.189  17.555   7.909
 1104POPC   C4A18774  35.393  17.659   7.486
 1104POPC   C1B18775  35.652  17.229   8.618
 1104POPC   C2B18776  35.941  17.027   8.315
 1104POPC   C3B18777  35.829  17.064   7.877
 1104POPC   C4B18778  35.430  17.166   7.695
 1105POPC   NC318779  26.412  32.931   9.872
 1105POPC   PO418780  25.963  33.290   9.510
 1105POPC   GL118781  26.163  33.279   9.109
 1105POPC   GL218782  26.026  32.996   9.080
 1105POPC   C1A18783  26.296  33.284   8.696
 1105POPC   D2A18784  26.064  33.123   8.354
 1105POPC   C3A18785  26.198  33.046   7.944
 1105POPC   C4A18786  26.437  33.168   7.575
 1105POPC   C1B18787  25.873  32.855   8.743
 1105POPC   C2B18788  25.574  32.691   8.490
 1105POPC   C3B18789  25.478  32.698   8.066
 1105POPC   C4B18790  25.795  32.773   7.762
 1106POPC   NC318791  38.962  17.872   9.462
 1106POPC   PO418792  39.348  17.454   9.780
 1106POPC   GL118793  39.184  17.506   9.225
 1106POPC   GL218794  38.936  17.671   9.008
 1106POPC   C1A18795  39.392  17.551   8.805
 1106POPC   D2A18796  39.394  17.332   8.433
 1106POPC   C3A18797  39.271  17.538   8.105
 1106POPC   C4A18798  39.304  17.569   7.713
 1106POPC   C1B18799  38.926  17.340   8.707
 1106POPC   C2B18800  38.905  17.231   8.271
 1106POPC   C3B18801  38.889  17.236   7.783
 1106POPC   C4B18802  39.025  17.385   7.338
 1107POPC   NC318803  12.529  18.853   9.366
 1107POPC   PO418804  11.972  19.167   9.747
 1107POPC   GL118805  11.909  19.093   9.179
 1107POPC   GL218806  12.177  18.931   8.993
 1107POPC   C1A18807  12.043  19.348   8.771
 1107POPC   D2A18808  12.413  19.348   8.532
 1107POPC   C3A18809  12.429  19.328   8.100
 1107POPC   C4A18810  12.136  19.311   7.780
 1107POPC   C1B18811  12.535  18.879   8.731
 1107POPC   C2B18812  12.449  18.686   8.406
 1107POPC   C3B18813  12.233  18.864   8.099
 1107POPC   C4B18814  12.228  18.826   7.673
 1108POPC   NC318815  35.301   3.795   9.523
 1108POPC   PO418816  34.836   3.394   9.841
 1108POPC   GL118817  35.054   3.396   9.322
 1108POPC   GL218818  35.013   3.747   9.112
 1108POPC   C1A18819  35.331   3.436   8.910
 1108POPC   D2A18820  35.359   3.256   8.495
 1108POPC   C3A18821  35.429   3.516   8.129
 1108POPC   C4A18822  35.455   3.561   7.671
 1108POPC   C1B18823  35.050   3.899   8.712
 1108POPC   C2B18824  35.233   3.959   8.330
 1108POPC   C3B18825  35.306   3.975   7.924
 1108POPC   C4B18826  35.386   4.023   7.489
 1109POPC   NC318827   8.388  28.609   9.467
 1109POPC   PO418828   8.503  29.110   9.869
 1109POPC   GL118829   8.390  29.139   9.377
 1109POPC   GL218830   8.033  29.009   9.302
 1109POPC   C1A18831   8.386  29.303   8.907
 1109POPC   D2A18832   8.088  29.348   8.545
 1109POPC   C3A18833   8.133  29.379   8.087
 1109POPC   C4A18834   8.418  29.113   7.863
 1109POPC   C1B18835   8.129  28.857   8.876
 1109POPC   C2B18836   7.961  28.851   8.478
 1109POPC   C3B18837   8.000  28.837   8.040
 1109POPC   C4B18838   8.201  28.679   7.694
 1110POPC   NC318839  31.842  31.480   9.497
 1110POPC   PO418840  32.410  31.863   9.674
 1110POPC   GL118841  32.385  31.622   9.254
 1110POPC   GL218842  32.088  31.823   9.187
 1110POPC   C1A18843  32.618  31.565   8.798
 1110POPC   D2A18844  32.692  31.408   8.386
 1110POPC   C3A18845  32.578  31.586   8.043
 1110POPC   C4A18846  32.305  31.586   7.766
 1110POPC   C1B18847  32.110  31.496   8.830
 1110POPC   C2B18848  32.176  31.537   8.371
 1110POPC   C3B18849  31.874  31.601   8.010
 1110POPC   C4B18850  31.841  31.679   7.532
 1111POPC   NC318851   7.902  10.492   9.391
 1111POPC   PO418852   8.319  10.027   9.424
 1111POPC   GL118853   8.262  10.299   9.032
 1111POPC   GL218854   8.357  10.642   9.079
 1111POPC   C1A18855   8.219  10.316   8.543
 1111POPC   D2A18856   8.434  10.048   8.195
 1111POPC   C3A18857   8.305  10.107   7.770
 1111POPC   C4A18858   8.047  10.445   7.625
 1111POPC   C1B18859   8.455  10.844   8.685
 1111POPC   C2B18860   8.361  10.997   8.292
 1111POPC   C3B18861   8.186  10.841   7.948
 1111POPC   C4B18862   8.275  10.906   7.540
 1112POPC   NC318863  32.249  42.506   9.638
 1112POPC   PO418864  32.723  42.779   9.281
 1112POPC   GL118865  32.463  42.370   9.160
 1112POPC   GL218866  32.118  42.453   9.168
 1112POPC   C1A18867  32.211  42.135   8.787
 1112POPC   D2A18868  32.367  41.923   8.440
 1112POPC   C3A18869  32.142  42.101   8.119
 1112POPC   C4A18870  32.154  42.190   7.684
 1112POPC   C1B18871  32.199  42.626   8.785
 1112POPC   C2B18872  31.977  42.491   8.414
 1112POPC   C3B18873  32.120  42.597   7.995
 1112POPC   C4B18874  32.335  42.665   7.582
 1113POPC   NC318875  24.224  23.409   9.439
 1113POPC   PO418876  24.689  23.939   9.476
 1113POPC   GL118877  24.424  23.810   9.170
 1113POPC   GL218878  24.645  23.514   9.157
 1113POPC   C1A18879  24.362  23.891   8.748
 1113POPC   D2A18880  24.570  23.797   8.367
 1113POPC   C3A18881  24.375  24.006   8.000
 1113POPC   C4A18882  24.581  23.982   7.628
 1113POPC   C1B18883  24.420  23.393   8.801
 1113POPC   C2B18884  24.150  23.491   8.441
 1113POPC   C3B18885  24.305  23.507   8.019
 1113POPC   C4B18886  24.645  23.465   7.763
 1114POPC   NC318887  11.984  37.968   9.499
 1114POPC   PO418888  12.336  37.452   9.641
 1114POPC   GL118889  12.265  37.657   9.230
 1114POPC   GL218890  11.930  37.541   9.198
 1114POPC   C1A18891  12.132  37.749   8.792
 1114POPC   D2A18892  12.259  37.866   8.378
 1114POPC   C3A18893  12.215  37.594   8.037
 1114POPC   C4A18894  12.009  37.845   7.739
 1114POPC   C1B18895  11.701  37.438   8.849
 1114POPC   C2B18896  11.864  37.481   8.436
 1114POPC   C3B18897  11.715  37.617   8.075
 1114POPC   C4B18898  11.700  37.470   7.653
 1115POPC   NC318899  18.781  29.661   9.453
 1115POPC   PO418900  19.187  30.262   9.458
 1115POPC   GL118901  19.071  29.973   9.136
 1115POPC   GL218902  19.043  29.584   9.028
 1115POPC   C1A18903  19.289  29.907   8.762
 1115POPC   D2A18904  19.190  29.728   8.415
 1115POPC   C3A18905  19.093  29.991   8.096
 1115POPC   C4A18906  19.327  29.819   7.785
 1115POPC   C1B18907  18.762  29.732   8.758
 1115POPC   C2B18908  18.692  29.567   8.389
 1115POPC   C3B18909  18.898  29.509   8.051
 1115POPC   C4B18910  18.810  29.650   7.690
 1116POPC   NC318911  19.168  36.770   9.650
 1116POPC   PO418912  18.555  36.730   9.536
 1116POPC   GL118913  18.872  36.919   9.189
 1116POPC   GL218914  19.277  36.920   9.186
 1116POPC   C1A18915  19.051  37.083   8.777
 1116POPC   D2A18916  18.853  37.010   8.382
 1116POPC   C3A18917  18.993  37.211   7.996
 1116POPC   C4A18918  19.137  36.927   7.702
 1116POPC   C1B18919  19.383  36.665   8.849
 1116POPC   C2B18920  19.411  36.512   8.434
 1116POPC   C3B18921  19.370  36.564   7.986
 1116POPC   C4B18922  19.222  36.459   7.552
 1117POPC   NC318923   2.846  23.866   9.822
 1117POPC   PO418924   3.523  23.993   9.453
 1117POPC   GL118925   3.190  23.841   9.198
 1117POPC   GL218926   2.990  23.543   9.263
 1117POPC   C1A18927   3.122  23.829   8.768
 1117POPC   D2A18928   2.974  23.686   8.361
 1117POPC   C3A18929   2.942  23.871   7.941
 1117POPC   C4A18930   2.673  23.846   7.545
 1117POPC   C1B18931   2.790  23.441   8.849
 1117POPC   C2B18932   2.869  23.203   8.468
 1117POPC   C3B18933   2.724  23.331   8.057
 1117POPC   C4B18934   2.453  23.421   7.720
 1118POPC   NC318935  20.421  10.747   9.472
 1118POPC   PO418936  20.848  10.260   9.504
 1118POPC   GL118937  20.675  10.358   9.090
 1118POPC   GL218938  20.691  10.700   9.049
 1118POPC   C1A18939  20.467  10.477   8.665
 1118POPC   D2A18940  20.393  10.714   8.272
 1118POPC   C3A18941  20.548  10.518   7.885
 1118POPC   C4A18942  20.915  10.187   7.921
 1118POPC   C1B18943  20.958  10.793   8.741
 1118POPC   C2B18944  20.892  10.614   8.394
 1118POPC   C3B18945  20.873  10.838   8.075
 1118POPC   C4B18946  21.090  10.641   7.782
 1119POPC   NC318947  20.499  25.204   9.553
 1119POPC   PO418948  20.528  24.559   9.349
 1119POPC   GL118949  20.567  24.972   9.086
 1119POPC   GL218950  20.441  25.361   9.076
 1119POPC   C1A18951  20.668  25.139   8.669
 1119POPC   D2A18952  20.783  25.183   8.235
 1119POPC   C3A18953  20.530  25.239   7.872
 1119POPC   C4A18954  20.804  25.066   7.576
 1119POPC   C1B18955  20.777  25.625   8.877
 1119POPC   C2B18956  20.919  25.614   8.452
 1119POPC   C3B18957  20.797  25.667   8.034
 1119POPC   C4B18958  20.858  25.577   7.601
 1120POPC   NC318959  11.904   4.865   9.581
 1120POPC   PO418960  12.192   5.461   9.514
 1120POPC   GL118961  12.119   5.165   9.185
 1120POPC   GL218962  11.778   5.025   9.123
 1120POPC   C1A18963  12.063   5.296   8.747
 1120POPC   D2A18964  12.270   5.344   8.347
 1120POPC   C3A18965  12.171   5.157   7.947
 1120POPC   C4A18966  12.184   5.273   7.500
 1120POPC   C1B18967  11.989   4.787   8.827
 1120POPC   C2B18968  11.970   4.909   8.406
 1120POPC   C3B18969  11.675   5.026   8.106
 1120POPC   C4B18970  11.699   5.305   7.782
 1121POPC   NC318971  23.556  11.928   9.439
 1121POPC   PO418972  24.108  12.265   9.453
 1121POPC   GL118973  23.823  12.245   9.114
 1121POPC   GL218974  23.476  12.375   9.159
 1121POPC   C1A18975  23.923  12.017   8.740
 1121POPC   D2A18976  23.799  11.873   8.369
 1121POPC   C3A18977  23.692  12.209   8.174
 1121POPC   C4A18978  23.875  12.164   7.808
 1121POPC   C1B18979  23.431  12.103   8.766
 1121POPC   C2B18980  23.320  11.744   8.470
 1121POPC   C3B18981  23.378  11.810   8.023
 1121POPC   C4B18982  23.371  12.200   7.769
 1122POPC   NC318983   0.427  36.384   9.426
 1122POPC   PO418984   0.696  35.762   9.410
 1122POPC   GL118985   0.548  35.936   9.099
 1122POPC   GL218986   0.743  36.258   9.065
 1122POPC   C1A18987   0.727  35.918   8.716
 1122POPC   D2A18988   0.756  36.232   8.394
 1122POPC   C3A18989   0.656  36.045   8.011
 1122POPC   C4A18990   0.308  36.113   7.734
 1122POPC   C1B18991   0.376  36.269   8.742
 1122POPC   C2B18992   0.215  36.238   8.279
 1122POPC   C3B18993   0.112  36.541   7.927
 1122POPC   C4B18994   0.072  36.680   7.467
 1123POPC   NC318995  34.748  24.604   9.619
 1123POPC   PO418996  34.853  23.908   9.438
 1123POPC   GL118997  34.929  24.258   9.154
 1123POPC   GL218998  34.644  24.470   9.143
 1123POPC   C1A18999  34.805  24.289   8.708
 1123POPC   D2A19000  34.610  24.190   8.335
 1123POPC   C3A19001  34.845  24.291   7.977
 1123POPC   C4A19002  34.544  24.242   7.689
 1123POPC   C1B19003  34.445  24.618   8.802
 1123POPC   C2B19004  34.645  24.711   8.430
 1123POPC   C3B19005  34.469  24.637   8.050
 1123POPC   C4B19006  34.636  24.754   7.708
 1124POPC   NC319007  20.632  27.829   9.483
 1124POPC   PO419008  20.349  27.165   9.517
 1124POPC   GL119009  20.492  27.386   9.188
 1124POPC   GL219010  20.814  27.458   9.164
 1124POPC   C1A19011  20.494  27.617   8.813
 1124POPC   D2A19012  20.317  27.757   8.466
 1124POPC   C3A19013  20.574  27.904   8.110
 1124POPC   C4A19014  20.306  27.922   7.751
 1124POPC   C1B19015  20.943  27.337   8.777
 1124POPC   C2B19016  20.802  27.511   8.404
 1124POPC   C3B19017  20.879  27.508   7.968
 1124POPC   C4B19018  20.754  27.556   7.533
 1125POPC   NC319019  28.895  20.188   9.552
 1125POPC   PO419020  29.307  20.606   9.580
 1125POPC   GL119021  29.183  20.812   9.169
 1125POPC   GL219022  28.857  20.969   9.156
 1125POPC   C1A19023  29.243  20.710   8.725
 1125POPC   D2A19024  29.553  20.779   8.389
 1125POPC   C3A19025  29.443  20.577   7.994
 1125POPC   C4A19026  29.305  20.523   7.567
 1125POPC   C1B19027  28.791  20.948   8.699
 1125POPC   C2B19028  28.961  20.854   8.280
 1125POPC   C3B19029  28.977  20.851   7.821
 1125POPC   C4B19030  28.880  20.772   7.374
 1126POPC   NC319031  14.742  17.621   9.539
 1126POPC   PO419032  14.166  17.924   9.354
 1126POPC   GL119033  14.370  17.524   9.176
 1126POPC   GL219034  14.646  17.231   9.215
 1126POPC   C1A19035  14.305  17.232   8.822
 1126POPC   D2A19036  14.095  17.230   8.441
 1126POPC   C3A19037  14.274  17.512   8.179
 1126POPC   C4A19038  14.489  17.472   7.817
 1126POPC   C1B19039  14.774  17.562   8.906
 1126POPC   C2B19040  14.552  17.652   8.585
 1126POPC   C3B19041  14.747  17.762   8.204
 1126POPC   C4B19042  14.849  17.824   7.805
 1127POPC   NC319043  36.637  10.923   9.511
 1127POPC   PO419044  36.939  10.300   9.480
 1127POPC   GL119045  36.794  10.550   9.177
 1127POPC   GL219046  37.067  10.740   9.015
 1127POPC   C1A19047  36.635  10.526   8.784
 1127POPC   D2A19048  36.875  10.676   8.451
 1127POPC   C3A19049  36.779  10.570   8.012
 1127POPC   C4A19050  37.003  10.838   7.687
 1127POPC   C1B19051  37.092  10.311   8.780
 1127POPC   C2B19052  36.944  10.187   8.320
 1127POPC   C3B19053  37.141  10.155   7.910
 1127POPC   C4B19054  37.269  10.163   7.474
 1128POPC   NC319055  22.547   4.371   9.684
 1128POPC   PO419056  21.928   4.506   9.754
 1128POPC   GL119057  22.176   4.350   9.357
 1128POPC   GL219058  22.317   4.647   9.237
 1128POPC   C1A19059  22.271   4.268   8.890
 1128POPC   D2A19060  22.308   4.557   8.500
 1128POPC   C3A19061  22.222   4.413   8.042
 1128POPC   C4A19062  22.321   4.215   7.617
 1128POPC   C1B19063  21.877   4.562   9.016
 1128POPC   C2B19064  21.752   4.697   8.580
 1128POPC   C3B19065  21.795   4.735   8.107
 1128POPC   C4B19066  21.824   4.451   7.714
 1129POPC   NC319067  10.198   7.270   9.295
 1129POPC   PO419068  10.670   7.484   9.656
 1129POPC   GL119069  10.645   7.574   9.186
 1129POPC   GL219070  10.387   7.546   8.918
 1129POPC   C1A19071  10.849   7.433   8.799
 1129POPC   D2A19072  10.715   7.200   8.473
 1129POPC   C3A19073  10.778   7.446   8.130
 1129POPC   C4A19074  10.631   7.386   7.720
 1129POPC   C1B19075  10.504   7.734   8.560
 1129POPC   C2B19076  10.308   7.476   8.317
 1129POPC   C3B19077   9.977   7.432   8.061
 1129POPC   C4B19078  10.115   7.366   7.687
 1130POPC   NC319079  40.233  29.604   9.535
 1130POPC   PO419080  39.689  29.976   9.362
 1130POPC   GL119081  40.028  30.180   9.178
 1130POPC   GL219082  40.304  29.943   9.153
 1130POPC   C1A19083  39.996  30.273   8.748
 1130POPC   D2A19084  40.202  30.154   8.367
 1130POPC   C3A19085  39.904  30.033   8.035
 1130POPC   C4A19086  39.863  30.091   7.608
 1130POPC   C1B19087  40.091  29.767   8.770
 1130POPC   C2B19088  40.071  29.653   8.328
 1130POPC   C3B19089  40.001  29.506   7.907
 1130POPC   C4B19090  39.645  29.610   7.732
 1131POPC   NC319091  27.416   6.439   9.737
 1131POPC   PO419092  27.910   6.900   9.471
 1131POPC   GL119093  27.544   6.722   9.272
 1131POPC   GL219094  27.625   6.371   9.273
 1131POPC   C1A19095  27.435   6.815   8.834
 1131POPC   D2A19096  27.653   6.772   8.443
 1131POPC   C3A19097  27.514   6.774   8.020
 1131POPC   C4A19098  27.912   6.742   7.817
 1131POPC   C1B19099  27.645   6.352   8.839
 1131POPC   C2B19100  27.438   6.324   8.455
 1131POPC   C3B19101  27.627   6.292   8.066
 1131POPC   C4B19102  27.639   6.368   7.664
 1132POPC   NC319103  10.373  24.060   9.480
 1132POPC   PO419104  10.346  24.684   9.487
 1132POPC   GL119105  10.617  24.740   9.141
 1132POPC   GL219106  10.743  24.369   9.208
 1132POPC   C1A19107  10.551  24.898   8.702
 1132POPC   D2A19108  10.408  24.614   8.391
 1132POPC   C3A19109  10.368  24.673   7.969
 1132POPC   C4A19110  10.173  24.325   7.734
 1132POPC   C1B19111  10.698  24.389   8.775
 1132POPC   C2B19112  10.911  24.478   8.410
 1132POPC   C3B19113  10.743  24.360   8.048
 1132POPC   C4B19114  10.883  24.380   7.659
 1133POPC   NC319115  15.631   7.756   9.378
 1133POPC   PO419116  15.077   8.237   9.558
 1133POPC   GL119117  15.073   8.205   9.129
 1133POPC   GL219118  15.395   8.157   9.110
 1133POPC   C1A19119  15.032   7.955   8.743
 1133POPC   D2A19120  15.225   7.880   8.358
 1133POPC   C3A19121  15.007   8.039   8.017
 1133POPC   C4A19122  15.130   8.452   7.877
 1133POPC   C1B19123  15.317   8.386   8.717
 1133POPC   C2B19124  15.482   8.322   8.302
 1133POPC   C3B19125  15.522   8.098   7.926
 1133POPC   C4B19126  15.585   8.342   7.570
 1134POPC   NC319127  38.962  26.607   9.483
 1134POPC   PO419128  39.338  27.184   9.525
 1134POPC   GL119129  39.190  26.969   9.171
 1134POPC   GL219130  39.361  26.670   9.168
 1134POPC   C1A19131  39.203  27.008   8.732
 1134POPC   D2A19132  39.420  27.184   8.408
 1134POPC   C3A19133  39.456  26.966   8.020
 1134POPC   C4A19134  39.058  27.116   7.875
 1134POPC   C1B19135  39.102  26.515   8.827
 1134POPC   C2B19136  39.074  26.605   8.387
 1134POPC   C3B19137  39.079  26.627   7.956
 1134POPC   C4B19138  38.778  26.532   7.639
 1135POPC   NC319139  29.944  21.496   9.632
 1135POPC   PO419140  29.872  20.849   9.369
 1135POPC   GL119141  29.781  21.311   9.190
 1135POPC   GL219142  30.030  21.655   9.168
 1135POPC   C1A19143  29.777  21.458   8.770
 1135POPC   D2A19144  29.795  21.262   8.384
 1135POPC   C3A19145  29.771  21.444   7.974
 1135POPC   C4A19146  29.752  21.307   7.548
 1135POPC   C1B19147  30.276  21.663   8.792
 1135POPC   C2B19148  30.296  21.386   8.455
 1135POPC   C3B19149  30.253  21.344   8.038
 1135POPC   C4B19150  30.285  21.464   7.601
 1136POPC   NC319151  18.460   7.852   9.464
 1136POPC   PO419152  17.896   8.256   9.464
 1136POPC   GL119153  18.145   8.175   9.120
 1136POPC   GL219154  18.081   7.829   9.106
 1136POPC   C1A19155  18.258   8.080   8.686
 1136POPC   D2A19156  18.523   8.223   8.343
 1136POPC   C3A19157  18.387   8.144   7.919
 1136POPC   C4A19158  18.377   8.355   7.547
 1136POPC   C1B19159  18.057   7.601   8.736
 1136POPC   C2B19160  18.042   7.744   8.358
 1136POPC   C3B19161  17.957   8.136   8.207
 1136POPC   C4B19162  17.895   8.021   7.789
 1137POPC   NC319163   3.112  36.370   9.468
 1137POPC   PO419164   3.733  36.260   9.313
 1137POPC   GL119165   3.402  36.147   9.092
 1137POPC   GL219166   3.347  36.497   9.038
 1137POPC   C1A19167   3.423  35.917   8.704
 1137POPC   D2A19168   3.553  36.004   8.280
 1137POPC   C3A19169   3.456  35.717   7.962
 1137POPC   C4A19170   3.322  35.897   7.598
 1137POPC   C1B19171   3.502  36.428   8.627
 1137POPC   C2B19172   3.425  36.516   8.182
 1137POPC   C3B19173   3.512  36.346   7.767
 1137POPC   C4B19174   3.731  36.221   7.406
 1138POPC   NC319175  10.828   9.567   9.367
 1138POPC   PO419176  11.545   9.479   9.520
 1138POPC   GL119177  11.311   9.681   9.166
 1138POPC   GL219178  11.190  10.058   9.160
 1138POPC   C1A19179  11.119   9.588   8.758
 1138POPC   D2A19180  11.278   9.410   8.377
 1138POPC   C3A19181  11.098   9.507   8.018
 1138POPC   C4A19182  11.205   9.673   7.649
 1138POPC   C1B19183  11.414  10.001   8.763
 1138POPC   C2B19184  11.464   9.902   8.354
 1138POPC   C3B19185  11.312  10.029   7.979
 1138POPC   C4B19186  11.110  10.176   7.653
 1139POPC   NC319187  16.542  44.029   9.382
 1139POPC   PO419188  16.869  43.513   9.652
 1139POPC   GL119189  16.813  43.631   9.192
 1139POPC   GL219190  16.896  43.969   9.007
 1139POPC   C1A19191  16.640  43.607   8.764
 1139POPC   D2A19192  16.489  43.781   8.387
 1139POPC   C3A19193  16.457  43.530   8.046
 1139POPC   C4A19194  16.583  43.597   7.636
 1139POPC   C1B19195  16.616  44.173   8.712
 1139POPC   C2B19196  16.509  44.289   8.285
 1139POPC   C3B19197  16.665  44.019   7.935
 1139POPC   C4B19198  16.718  44.090   7.476
 1140POPC   NC319199  26.449  34.429   9.403
 1140POPC   PO419200  25.879  34.286   9.492
 1140POPC   GL119201  25.917  34.694   9.236
 1140POPC   GL219202  26.272  34.827   9.142
 1140POPC   C1A19203  25.716  34.677   8.829
 1140POPC   D2A19204  25.898  34.577   8.430
 1140POPC   C3A19205  25.691  34.734   8.077
 1140POPC   C4A19206  25.801  34.858   7.653
 1140POPC   C1B19207  26.325  34.582   8.757
 1140POPC   C2B19208  26.399  34.685   8.304
 1140POPC   C3B19209  26.151  34.582   7.933
 1140POPC   C4B19210  26.243  34.329   7.589
 1141POPC   NC319211   7.778  32.838   9.449
 1141POPC   PO419212   7.194  33.161   9.313
 1141POPC   GL119213   7.352  32.832   9.095
 1141POPC   GL219214   7.054  32.643   9.077
 1141POPC   C1A19215   7.534  32.966   8.692
 1141POPC   D2A19216   7.521  33.291   8.352
 1141POPC   C3A19217   7.361  33.089   7.954
 1141POPC   C4A19218   7.685  32.869   7.671
 1141POPC   C1B19219   7.164  32.596   8.654
 1141POPC   C2B19220   7.029  32.734   8.262
 1141POPC   C3B19221   6.991  32.675   7.839
 1141POPC   C4B19222   7.217  32.836   7.489
 1142POPC   NC319223  13.628  35.659   9.634
 1142POPC   PO419224  13.416  35.163   9.516
 1142POPC   GL119225  13.617  35.435   9.132
 1142POPC   GL219226  13.852  35.726   9.123
 1142POPC   C1A19227  13.766  35.467   8.667
 1142POPC   D2A19228  13.758  35.392   8.204
 1142POPC   C3A19229  13.395  35.521   7.936
 1142POPC   C4A19230  13.170  35.420   7.520
 1142POPC   C1B19231  13.986  35.948   8.713
 1142POPC   C2B19232  14.111  35.791   8.289
 1142POPC   C3B19233  13.895  35.750   7.861
 1142POPC   C4B19234  14.085  35.663   7.424
 1143POPC   NC319235  44.625   1.086   9.373
 1143POPC   PO419236  44.273   1.580   9.500
 1143POPC   GL119237  44.397   1.544   9.114
 1143POPC   GL219238  44.241   1.265   9.056
 1143POPC   C1A19239  44.529   1.474   8.686
 1143POPC   D2A19240  44.847   1.354   8.394
 1143POPC   C3A19241  44.880   1.378   7.948
 1143POPC   C4A19242   0.019   1.064   7.633
 1143POPC   C1B19243  44.334   0.978   8.697
 1143POPC   C2B19244  44.487   0.931   8.251
 1143POPC   C3B19245  44.465   1.116   7.854
 1143POPC   C4B19246  44.315   1.531   7.855
 1144POPC   NC319247  31.422   2.328   9.669
 1144POPC   PO419248  31.399   2.962   9.527
 1144POPC   GL119249  31.453   2.863   9.126
 1144POPC   GL219250  31.774   2.928   9.063
 1144POPC   C1A19251  31.380   2.949   8.703
 1144POPC   D2A19252  31.153   2.762   8.363
 1144POPC   C3A19253  31.349   2.909   7.990
 1144POPC   C4A19254  31.388   2.856   7.544
 1144POPC   C1B19255  31.827   2.644   8.729
 1144POPC   C2B19256  32.030   2.561   8.358
 1144POPC   C3B19257  31.817   2.689   8.035
 1144POPC   C4B19258  31.794   2.590   7.644
 1145POPC   NC319259  36.548  39.201   9.550
 1145POPC   PO419260  35.886  39.114   9.537
 1145POPC   GL119261  36.201  39.192   9.161
 1145POPC   GL219262  36.443  39.511   9.174
 1145POPC   C1A19263  36.313  39.025   8.722
 1145POPC   D2A19264  36.518  39.018   8.300
 1145POPC   C3A19265  36.296  39.109   7.910
 1145POPC   C4A19266  36.253  39.010   7.469
 1145POPC   C1B19267  36.319  39.662   8.792
 1145POPC   C2B19268  36.272  39.472   8.429
 1145POPC   C3B19269  36.333  39.598   8.044
 1145POPC   C4B19270  36.013  39.572   7.734
 1146POPC   NC319271  24.977  18.135   9.483
 1146POPC   PO419272  25.615  18.220   9.639
 1146POPC   GL119273  25.418  18.220   9.225
 1146POPC   GL219274  25.762  18.188   9.097
 1146POPC   C1A19275  25.063  18.287   8.865
 1146POPC   D2A19276  24.996  18.183   8.432
 1146POPC   C3A19277  24.977  18.373   8.029
 1146POPC   C4A19278  25.220  18.275   7.671
 1146POPC   C1B19279  25.542  18.399   8.774
 1146POPC   C2B19280  25.518  18.189   8.385
 1146POPC   C3B19281  25.570  18.057   7.979
 1146POPC   C4B19282  25.735  18.242   7.593
 1147POPC   NC319283   7.941   9.752   9.508
 1147POPC   PO419284   8.415   9.365   9.403
 1147POPC   GL119285   8.381   9.675   9.037
 1147POPC   GL219286   8.065   9.816   9.038
 1147POPC   C1A19287   8.206   9.790   8.577
 1147POPC   D2A19288   8.016   9.507   8.279
 1147POPC   C3A19289   8.253   9.566   7.953
 1147POPC   C4A19290   8.230   9.649   7.532
 1147POPC   C1B19291   7.839  10.119   8.820
 1147POPC   C2B19292   7.709  10.096   8.428
 1147POPC   C3B19293   7.903   9.962   8.080
 1147POPC   C4B19294   7.803   9.997   7.675
 1148POPC   NC319295   3.873   0.799   9.714
 1148POPC   PO419296   4.218   1.197   9.529
 1148POPC   GL119297   4.355   1.395   9.103
 1148POPC   GL219298   4.158   1.703   9.137
 1148POPC   C1A19299   4.469   1.260   8.668
 1148POPC   D2A19300   4.229   1.083   8.306
 1148POPC   C3A19301   4.378   1.221   7.898
 1148POPC   C4A19302   4.695   1.551   7.853
 1148POPC   C1B19303   4.126   1.629   8.676
 1148POPC   C2B19304   4.355   1.600   8.269
 1148POPC   C3B19305   4.192   1.688   7.865
 1148POPC   C4B19306   3.830   1.488   7.653
 1149POPC   NC319307   6.191  36.103   9.514
 1149POPC   PO419308   6.752  36.416   9.666
 1149POPC   GL119309   6.718  36.235   9.237
 1149POPC   GL219310   6.518  35.954   9.165
 1149POPC   C1A19311   6.592  36.336   8.796
 1149POPC   D2A19312   6.693  36.180   8.393
 1149POPC   C3A19313   6.745  36.335   7.970
 1149POPC   C4A19314   6.846  35.943   7.710
 1149POPC   C1B19315   6.423  35.833   8.762
 1149POPC   C2B19316   6.229  35.964   8.398
 1149POPC   C3B19317   6.413  35.929   8.006
 1149POPC   C4B19318   6.397  36.152   7.631
 1150POPC   NC319319  21.213  40.437   9.492
 1150POPC   PO419320  21.175  39.764   9.535
 1150POPC   GL119321  21.322  39.901   9.141
 1150POPC   GL219322  21.251  40.249   9.016
 1150POPC   C1A19323  21.611  39.911   8.780
 1150POPC   D2A19324  21.498  40.054   8.361
 1150POPC   C3A19325  21.350  39.806   8.038
 1150POPC   C4A19326  21.594  39.749   7.654
 1150POPC   C1B19327  21.078  40.038   8.660
 1150POPC   C2B19328  20.972  40.161   8.247
 1150POPC   C3B19329  21.051  40.147   7.797
 1150POPC   C4B19330  21.111  40.391   7.450
 1151POPC   NC319331  18.267  15.129   9.622
 1151POPC   PO419332  18.090  15.446   9.034
 1151POPC   GL119333  18.166  15.020   9.131
 1151POPC   GL219334  18.529  14.968   9.193
 1151POPC   C1A19335  18.277  14.830   8.765
 1151POPC   D2A19336  18.400  15.052   8.385
 1151POPC   C3A19337  18.312  14.934   8.030
 1151POPC   C4A19338  17.956  14.978   7.837
 1151POPC   C1B19339  18.690  15.088   8.783
 1151POPC   C2B19340  18.704  15.452   8.496
 1151POPC   C3B19341  18.401  15.554   8.166
 1151POPC   C4B19342  18.335  15.380   7.744
 1152POPC   NC319343   6.124  29.764   9.496
 1152POPC   PO419344   5.688  30.263   9.466
 1152POPC   GL119345   5.961  30.070   9.101
 1152POPC   GL219346   5.930  29.678   9.043
 1152POPC   C1A19347   5.909  29.970   8.639
 1152POPC   D2A19348   5.965  29.711   8.274
 1152POPC   C3A19349   6.057  30.001   7.937
 1152POPC   C4A19350   5.920  29.892   7.551
 1152POPC   C1B19351   5.680  29.516   8.712
 1152POPC   C2B19352   5.460  29.730   8.413
 1152POPC   C3B19353   5.540  29.868   8.007
 1152POPC   C4B19354   5.544  30.211   7.765
 1153POPC   NC319355  11.924  23.506   9.522
 1153POPC   PO419356  12.329  24.004   9.409
 1153POPC   GL119357  12.051  23.810   9.081
 1153POPC   GL219358  11.744  23.595   9.067
 1153POPC   C1A19359  12.053  23.594   8.667
 1153POPC   D2A19360  12.215  23.297   8.338
 1153POPC   C3A19361  12.076  23.484   7.938
 1153POPC   C4A19362  12.339  23.691   7.635
 1153POPC   C1B19363  11.605  23.920   8.797
 1153POPC   C2B19364  11.737  24.060   8.400
 1153POPC   C3B19365  11.851  24.086   7.989
 1153POPC   C4B19366  11.910  23.954   7.574
 1154POPC   NC319367  41.417  35.304   9.431
 1154POPC   PO419368  42.035  35.652   9.507
 1154POPC   GL119369  41.787  35.547   9.133
 1154POPC   GL219370  41.443  35.547   8.988
 1154POPC   C1A19371  41.864  35.371   8.717
 1154POPC   D2A19372  41.698  35.181   8.344
 1154POPC   C3A19373  41.714  35.319   7.909
 1154POPC   C4A19374  41.671  35.353   7.449
 1154POPC   C1B19375  41.404  35.112   8.807
 1154POPC   C2B19376  41.157  35.077   8.463
 1154POPC   C3B19377  41.215  35.266   8.079
 1154POPC   C4B19378  41.292  35.106   7.680
 1155POPC   NC319379  19.990  12.411   9.404
 1155POPC   PO419380  19.848  13.086   9.432
 1155POPC   GL119381  19.919  13.044   9.054
 1155POPC   GL219382  19.975  12.698   8.992
 1155POPC   C1A19383  19.716  13.051   8.685
 1155POPC   D2A19384  19.683  12.759   8.355
 1155POPC   C3A19385  19.595  12.936   7.966
 1155POPC   C4A19386  19.839  12.922   7.573
 1155POPC   C1B19387  20.222  12.433   8.741
 1155POPC   C2B19388  20.315  12.586   8.358
 1155POPC   C3B19389  20.085  12.683   8.003
 1155POPC   C4B19390  19.962  12.437   7.665
 1156POPC   NC319391  43.983  37.088   9.446
 1156POPC   PO419392  44.043  36.378   9.498
 1156POPC   GL119393  43.772  36.646   9.248
 1156POPC   GL219394  44.079  36.739   9.068
 1156POPC   C1A19395  43.646  36.919   8.867
 1156POPC   D2A19396  43.693  36.827   8.419
 1156POPC   C3A19397  43.424  36.931   8.060
 1156POPC   C4A19398  43.667  36.967   7.667
 1156POPC   C1B19399  44.354  36.957   8.776
 1156POPC   C2B19400  44.586  37.100   8.425
 1156POPC   C3B19401  44.403  37.003   8.036
 1156POPC   C4B19402  44.187  37.018   7.661
 1157POPC   NC319403  29.020   9.636   9.645
 1157POPC   PO419404  29.660   9.889   9.653
 1157POPC   GL119405  29.325   9.797   9.265
 1157POPC   GL219406  29.011   9.549   9.154
 1157POPC   C1A19407  29.281   9.788   8.805
 1157POPC   D2A19408  29.165   9.646   8.406
 1157POPC   C3A19409  29.234   9.937   8.112
 1157POPC   C4A19410  29.258   9.702   7.747
 1157POPC   C1B19411  28.764   9.723   8.814
 1157POPC   C2B19412  28.745   9.904   8.410
 1157POPC   C3B19413  28.785   9.729   8.004
 1157POPC   C4B19414  28.718   9.865   7.587
 1158POPC   NC319415  21.727  22.427   9.397
 1158POPC   PO419416  21.397  21.865   9.480
 1158POPC   GL119417  21.411  22.000   9.035
 1158POPC   GL219418  21.393  22.358   9.016
 1158POPC   C1A19419  21.473  21.904   8.547
 1158POPC   D2A19420  21.232  21.911   8.160
 1158POPC   C3A19421  21.385  22.120   7.872
 1158POPC   C4A19422  21.265  22.529   7.718
 1158POPC   C1B19423  21.743  22.336   8.692
 1158POPC   C2B19424  21.719  22.337   8.215
 1158POPC   C3B19425  21.779  22.389   7.744
 1158POPC   C4B19426  21.926  22.423   7.314
 1159POPC   NC319427  39.829  43.388   9.358
 1159POPC   PO419428  40.214  43.932   9.585
 1159POPC   GL119429  40.139  43.781   9.191
 1159POPC   GL219430  39.797  43.912   9.163
 1159POPC   C1A19431  40.011  43.633   8.772
 1159POPC   D2A19432  39.814  43.573   8.389
 1159POPC   C3A19433  40.116  43.773   8.161
 1159POPC   C4A19434  40.174  43.827   7.755
 1159POPC   C1B19435  40.037  44.164   8.850
 1159POPC   C2B19436  40.203  44.226   8.423
 1159POPC   C3B19437  40.238  44.273   7.962
 1159POPC   C4B19438  40.100  44.269   7.493
 1160POPC   NC319439  18.481  10.298   9.564
 1160POPC   PO419440  18.008  10.769   9.360
 1160POPC   GL119441  18.327  10.568   9.150
 1160POPC   GL219442  18.385  10.208   9.067
 1160POPC   C1A19443  18.560  10.617   8.787
 1160POPC   D2A19444  18.492  10.328   8.440
 1160POPC   C3A19445  18.524  10.552   8.027
 1160POPC   C4A19446  18.190  10.776   7.804
 1160POPC   C1B19447  18.079  10.062   8.779
 1160POPC   C2B19448  17.962  10.171   8.422
 1160POPC   C3B19449  18.152  10.186   8.059
 1160POPC   C4B19450  17.996  10.282   7.674
 1161POPC   NC319451  15.869  34.695   9.867
 1161POPC   PO419452  16.353  34.381   9.508
 1161POPC   GL119453  16.216  34.478   9.097
 1161POPC   GL219454  15.990  34.737   9.091
 1161POPC   C1A19455  16.031  34.498   8.645
 1161POPC   D2A19456  15.920  34.449   8.168
 1161POPC   C3A19457  16.152  34.310   7.783
 1161POPC   C4A19458  16.167  34.467   7.332
 1161POPC   C1B19459  16.303  34.910   8.826
 1161POPC   C2B19460  16.380  35.020   8.410
 1161POPC   C3B19461  16.179  34.890   8.062
 1161POPC   C4B19462  15.936  34.789   7.702
 1162POPC   NC319463  43.790  10.922   9.523
 1162POPC   PO419464  43.612  10.306   9.500
 1162POPC   GL119465  43.751  10.376   9.059
 1162POPC   GL219466  43.916  10.663   9.095
 1162POPC   C1A19467  43.788  10.267   8.622
 1162POPC   D2A19468  43.506  10.342   8.256
 1162POPC   C3A19469  43.707  10.584   7.950
 1162POPC   C4A19470  44.025  10.547   7.657
 1162POPC   C1B19471  44.157  10.748   8.717
 1162POPC   C2B19472  44.163  10.668   8.253
 1162POPC   C3B19473  44.203  10.963   7.911
 1162POPC   C4B19474  44.200  10.974   7.431
 1163POPC   NC319475  17.940   6.042   9.529
 1163POPC   PO419476  17.387   5.627   9.470
 1163POPC   GL119477  17.696   5.758   9.155
 1163POPC   GL219478  17.741   6.151   9.077
 1163POPC   C1A19479  17.588   5.806   8.725
 1163POPC   D2A19480  17.344   5.533   8.459
 1163POPC   C3A19481  17.325   5.750   8.099
 1163POPC   C4A19482  17.274   5.906   7.702
 1163POPC   C1B19483  17.401   6.303   8.804
 1163POPC   C2B19484  17.211   6.162   8.406
 1163POPC   C3B19485  17.380   6.279   8.022
 1163POPC   C4B19486  17.740   6.247   7.839
 1164POPC   NC319487  36.534  19.434   9.409
 1164POPC   PO419488  36.132  19.993   9.551
 1164POPC   GL119489  35.975  19.920   9.166
 1164POPC   GL219490  36.085  19.585   9.199
 1164POPC   C1A19491  36.102  20.016   8.744
 1164POPC   D2A19492  36.385  20.013   8.392
 1164POPC   C3A19493  36.314  19.779   8.030
 1164POPC   C4A19494  36.148  19.887   7.638
 1164POPC   C1B19495  35.966  19.487   8.817
 1164POPC   C2B19496  36.050  19.614   8.434
 1164POPC   C3B19497  35.869  19.523   8.064
 1164POPC   C4B19498  36.100  19.392   7.719
 1165POPC   NC319499  10.662  35.780   9.860
 1165POPC   PO419500  10.900  36.262   9.439
 1165POPC   GL119501  11.154  36.101   9.096
 1165POPC   GL219502  10.991  35.898   8.866
 1165POPC   C1A19503  11.484  36.268   8.809
 1165POPC   D2A19504  11.496  36.501   8.407
 1165POPC   C3A19505  11.594  36.300   7.995
 1165POPC   C4A19506  11.699  36.411   7.533
 1165POPC   C1B19507  11.018  36.276   8.598
 1165POPC   C2B19508  11.078  36.357   8.148
 1165POPC   C3B19509  11.141  36.304   7.721
 1165POPC   C4B19510  11.001  35.943   7.473
 1166POPC   NC319511  33.458   4.779   9.550
 1166POPC   PO419512  33.495   5.502   9.738
 1166POPC   GL119513  33.712   5.260   9.342
 1166POPC   GL219514  33.842   4.915   9.264
 1166POPC   C1A19515  33.937   5.294   8.921
 1166POPC   D2A19516  33.838   5.187   8.490
 1166POPC   C3A19517  34.059   4.937   8.206
 1166POPC   C4A19518  33.982   5.034   7.779
 1166POPC   C1B19519  33.642   4.863   8.840
 1166POPC   C2B19520  33.431   4.871   8.393
 1166POPC   C3B19521  33.561   4.767   7.928
 1166POPC   C4B19522  33.733   4.620   7.496
 1167POPC   NC319523  26.810   7.823   9.532
 1167POPC   PO419524  26.548   8.479   9.558
 1167POPC   GL119525  26.719   8.285   9.111
 1167POPC   GL219526  27.004   8.049   9.095
 1167POPC   C1A19527  26.988   8.371   8.695
 1167POPC   D2A19528  27.021   8.628   8.289
 1167POPC   C3A19529  26.617   8.607   8.083
 1167POPC   C4A19530  26.663   8.371   7.706
 1167POPC   C1B19531  26.931   7.824   8.720
 1167POPC   C2B19532  26.864   7.844   8.282
 1167POPC   C3B19533  26.994   8.187   8.034
 1167POPC   C4B19534  27.163   8.249   7.641
 1168POPC   NC319535  20.699  39.716   9.957
 1168POPC   PO419536  20.346  40.035   9.447
 1168POPC   GL119537  20.422  39.911   9.064
 1168POPC   GL219538  20.791  39.974   9.068
 1168POPC   C1A19539  20.486  40.098   8.667
 1168POPC   D2A19540  20.508  39.911   8.292
 1168POPC   C3A19541  20.543  40.171   7.953
 1168POPC   C4A19542  20.376  40.150   7.565
 1168POPC   C1B19543  20.729  39.667   8.727
 1168POPC   C2B19544  20.930  39.655   8.343
 1168POPC   C3B19545  20.810  39.693   7.925
 1168POPC   C4B19546  21.095  39.657   7.601
 1169POPC   NC319547  30.322   8.866   9.539
 1169POPC   PO419548  30.944   8.977   9.738
 1169POPC   GL119549  30.717   9.011   9.275
 1169POPC   GL219550  30.855   8.789   9.093
 1169POPC   C1A19551  30.676   9.095   8.755
 1169POPC   D2A19552  30.641   8.883   8.338
 1169POPC   C3A19553  30.728   9.044   7.889
 1169POPC   C4A19554  30.912   9.065   7.455
 1169POPC   C1B19555  30.545   8.600   8.804
 1169POPC   C2B19556  30.376   8.462   8.384
 1169POPC   C3B19557  30.482   8.593   7.945
 1169POPC   C4B19558  30.477   8.801   7.509
 1170POPC   NC319559  21.238   9.500   9.969
 1170POPC   PO419560  21.276   9.942   9.603
 1170POPC   GL119561  21.420   9.598   9.282
 1170POPC   GL219562  21.143   9.367   9.207
 1170POPC   C1A19563  21.615   9.635   8.828
 1170POPC   D2A19564  21.626   9.871   8.425
 1170POPC   C3A19565  21.749   9.673   8.046
 1170POPC   C4A19566  21.615   9.788   7.656
 1170POPC   C1B19567  21.103   9.684   8.881
 1170POPC   C2B19568  21.122   9.773   8.480
 1170POPC   C3B19569  21.240   9.748   8.074
 1170POPC   C4B19570  21.109   9.775   7.674
 1171POPC   NC319571  23.841  40.240   9.328
 1171POPC   PO419572  23.677  39.671   9.714
 1171POPC   GL119573  23.781  39.626   9.262
 1171POPC   GL219574  23.533  39.835   9.111
 1171POPC   C1A19575  23.933  39.730   8.813
 1171POPC   D2A19576  23.895  39.986   8.420
 1171POPC   C3A19577  23.953  39.809   8.005
 1171POPC   C4A19578  24.002  40.030   7.629
 1171POPC   C1B19579  23.420  39.878   8.651
 1171POPC   C2B19580  23.423  39.870   8.192
 1171POPC   C3B19581  23.529  40.091   7.809
 1171POPC   C4B19582  23.438  40.257   7.389
 1172POPC   NC319583   8.270  39.848   9.536
 1172POPC   PO419584   7.642  40.281   9.495
 1172POPC   GL119585   7.973  40.152   9.170
 1172POPC   GL219586   8.035  39.774   9.103
 1172POPC   C1A19587   8.246  40.255   8.797
 1172POPC   D2A19588   8.531  40.292   8.422
 1172POPC   C3A19589   8.324  40.146   8.100
 1172POPC   C4A19590   8.331  39.851   7.806
 1172POPC   C1B19591   7.850  39.838   8.727
 1172POPC   C2B19592   7.961  39.876   8.318
 1172POPC   C3B19593   7.820  39.947   7.920
 1172POPC   C4B19594   7.817  39.761   7.501
 1173POPC   NC319595  39.634  25.829   9.492
 1173POPC   PO419596  40.302  26.061   9.431
 1173POPC   GL119597  40.290  25.785   9.095
 1173POPC   GL219598  39.939  25.622   9.068
 1173POPC   C1A19599  40.168  25.930   8.683
 1173POPC   D2A19600  40.088  26.288   8.399
 1173POPC   C3A19601  40.202  26.146   7.977
 1173POPC   C4A19602  40.078  26.206   7.577
 1173POPC   C1B19603  39.732  25.681   8.641
 1173POPC   C2B19604  39.820  25.888   8.238
 1173POPC   C3B19605  39.859  25.771   7.779
 1173POPC   C4B19606  39.704  25.734   7.316
 1174POPC   NC319607   4.739  23.086   9.318
 1174POPC   PO419608   4.274  22.824   9.734
 1174POPC   GL119609   4.244  22.947   9.295
 1174POPC   GL219610   4.380  22.653   9.168
 1174POPC   C1A19611   4.244  22.999   8.792
 1174POPC   D2A19612   4.257  23.185   8.333
 1174POPC   C3A19613   4.301  22.936   7.939
 1174POPC   C4A19614   4.364  22.479   7.831
 1174POPC   C1B19615   4.657  22.692   8.793
 1174POPC   C2B19616   4.672  22.911   8.410
 1174POPC   C3B19617   4.766  22.722   8.035
 1174POPC   C4B19618   4.749  22.776   7.595
 1175POPC   NC319619  38.086  26.138   9.374
 1175POPC   PO419620  38.541  25.964   9.795
 1175POPC   GL119621  38.589  25.953   9.307
 1175POPC   GL219622  38.836  26.194   9.227
 1175POPC   C1A19623  38.420  25.971   8.850
 1175POPC   D2A19624  38.169  26.067   8.472
 1175POPC   C3A19625  38.382  25.962   8.103
 1175POPC   C4A19626  38.420  25.931   7.650
 1175POPC   C1B19627  38.928  26.045   8.824
 1175POPC   C2B19628  38.712  26.219   8.484
 1175POPC   C3B19629  38.792  26.238   8.056
 1175POPC   C4B19630  38.900  26.025   7.672
 1176POPC   NC319631  37.391  13.998   9.327
 1176POPC   PO419632  37.532  14.605   9.443
 1176POPC   GL119633  37.849  14.532   9.155
 1176POPC   GL219634  37.887  14.186   9.282
 1176POPC   C1A19635  37.767  14.608   8.711
 1176POPC   D2A19636  37.448  14.489   8.392
 1176POPC   C3A19637  37.506  14.686   8.007
 1176POPC   C4A19638  37.694  14.564   7.611
 1176POPC   C1B19639  37.862  14.105   8.837
 1176POPC   C2B19640  37.847  14.176   8.386
 1176POPC   C3B19641  37.616  14.162   7.991
 1176POPC   C4B19642  37.627  14.046   7.554
 1177POPC   NC319643  12.617  23.529   9.441
 1177POPC   PO419644  13.284  23.715   9.467
 1177POPC   GL119645  13.005  23.765   9.134
 1177POPC   GL219646  12.834  24.077   9.232
 1177POPC   C1A19647  12.933  23.526   8.735
 1177POPC   D2A19648  13.135  23.422   8.324
 1177POPC   C3A19649  12.880  23.577   7.959
 1177POPC   C4A19650  12.950  23.418   7.542
 1177POPC   C1B19651  12.622  23.954   8.831
 1177POPC   C2B19652  12.496  23.767   8.431
 1177POPC   C3B19653  12.371  23.983   8.060
 1177POPC   C4B19654  12.650  24.081   7.719
 1178POPC   NC319655  14.470  22.528   9.171
 1178POPC   PO419656  14.566  21.971   9.542
 1178POPC   GL119657  14.372  21.990   9.153
 1178POPC   GL219658  14.073  22.125   9.251
 1178POPC   C1A19659  14.527  21.988   8.740
 1178POPC   D2A19660  14.787  22.015   8.399
 1178POPC   C3A19661  14.553  22.028   8.031
 1178POPC   C4A19662  14.422  22.291   7.728
 1178POPC   C1B19663  14.012  22.035   8.782
 1178POPC   C2B19664  14.160  22.014   8.360
 1178POPC   C3B19665  14.001  22.108   7.940
 1178POPC   C4B19666  13.994  22.212   7.471
 1179POPC   NC319667  16.868   4.599   9.465
 1179POPC   PO419668  16.529   5.136   9.469
 1179POPC   GL119669  16.679   5.169   9.090
 1179POPC   GL219670  16.943   4.934   9.077
 1179POPC   C1A19671  16.661   5.230   8.700
 1179POPC   D2A19672  16.493   5.108   8.389
 1179POPC   C3A19673  16.660   4.981   8.061
 1179POPC   C4A19674  16.480   5.023   7.683
 1179POPC   C1B19675  17.148   5.157   8.779
 1179POPC   C2B19676  17.068   5.036   8.383
 1179POPC   C3B19677  17.199   5.231   8.037
 1179POPC   C4B19678  16.965   5.176   7.706
 1180POPC   NC319679  21.097  28.707   9.374
 1180POPC   PO419680  21.532  29.070   9.729
 1180POPC   GL119681  21.631  29.021   9.253
 1180POPC   GL219682  21.480  28.726   9.028
 1180POPC   C1A19683  21.572  29.178   8.817
 1180POPC   D2A19684  21.564  29.003   8.418
 1180POPC   C3A19685  21.300  29.130   8.120
 1180POPC   C4A19686  21.532  29.251   7.773
 1180POPC   C1B19687  21.183  28.818   8.714
 1180POPC   C2B19688  20.879  28.943   8.407
 1180POPC   C3B19689  20.864  28.869   7.981
 1180POPC   C4B19690  21.102  28.999   7.651
 1181POPC   NC319691   2.685  36.303   9.833
 1181POPC   PO419692   3.156  35.883   9.504
 1181POPC   GL119693   2.797  35.924   9.251
 1181POPC   GL219694   2.706  36.278   9.150
 1181POPC   C1A19695   2.447  35.886   8.960
 1181POPC   D2A19696   2.516  36.176   8.632
 1181POPC   C3A19697   2.613  36.172   8.177
 1181POPC   C4A19698   2.441  36.147   7.756
 1181POPC   C1B19699   2.985  36.238   8.819
 1181POPC   C2B19700   3.085  36.171   8.418
 1181POPC   C3B19701   3.103  36.137   7.998
 1181POPC   C4B19702   2.897  36.397   7.716
 1182POPC   NC319703  18.443  18.021   9.328
 1182POPC   PO419704  18.432  18.578   9.678
 1182POPC   GL119705  18.246  18.541   9.205
 1182POPC   GL219706  17.982  18.263   9.195
 1182POPC   C1A19707  18.403  18.445   8.731
 1182POPC   D2A19708  18.413  18.164   8.388
 1182POPC   C3A19709  18.636  18.318   8.079
 1182POPC   C4A19710  18.603  18.475   7.677
 1182POPC   C1B19711  17.899  18.446   8.784
 1182POPC   C2B19712  18.065  18.527   8.329
 1182POPC   C3B19713  18.142  18.343   7.892
 1182POPC   C4B19714  18.077  18.457   7.434
 1183POPC   NC319715  18.031   3.683   9.429
 1183POPC   PO419716  18.613   3.317   9.426
 1183POPC   GL119717  18.587   3.500   9.048
 1183POPC   GL219718  18.218   3.505   8.997
 1183POPC   C1A19719  18.537   3.642   8.634
 1183POPC   D2A19720  18.613   3.872   8.300
 1183POPC   C3A19721  18.366   3.877   7.978
 1183POPC   C4A19722  18.471   3.896   7.548
 1183POPC   C1B19723  18.141   3.330   8.596
 1183POPC   C2B19724  18.375   3.355   8.203
 1183POPC   C3B19725  18.228   3.440   7.787
 1183POPC   C4B19726  18.062   3.622   7.439
 1184POPC   NC319727  18.369   2.743   9.478
 1184POPC   PO419728  17.800   2.477   9.268
 1184POPC   GL119729  18.105   2.675   9.064
 1184POPC   GL219730  18.100   3.011   9.083
 1184POPC   C1A19731  18.351   2.656   8.711
 1184POPC   D2A19732  18.186   2.668   8.329
 1184POPC   C3A19733  18.332   2.452   7.976
 1184POPC   C4A19734  18.254   2.578   7.569
 1184POPC   C1B19735  17.875   2.895   8.681
 1184POPC   C2B19736  17.878   3.057   8.257
 1184POPC   C3B19737  18.191   2.959   7.915
 1184POPC   C4B19738  18.137   3.059   7.437
 1185POPC   NC319739  16.275   9.752   9.348
 1185POPC   PO419740  15.632   9.690   9.446
 1185POPC   GL119741  15.869   9.670   9.048
 1185POPC   GL219742  16.079   9.368   9.001
 1185POPC   C1A19743  16.179   9.773   8.699
 1185POPC   D2A19744  16.258   9.623   8.283
 1185POPC   C3A19745  16.147   9.960   8.027
 1185POPC   C4A19746  16.233  10.047   7.636
 1185POPC   C1B19747  15.809   9.435   8.589
 1185POPC   C2B19748  15.748   9.518   8.133
 1185POPC   C3B19749  15.915   9.639   7.704
 1185POPC   C4B19750  15.733   9.567   7.247
 1186POPC   NC319751  29.515  42.228   9.407
 1186POPC   PO419752  28.966  42.571   9.510
 1186POPC   GL119753  29.090  42.428   9.051
 1186POPC   GL219754  29.402  42.203   8.915
 1186POPC   C1A19755  29.194  42.547   8.607
 1186POPC   D2A19756  29.258  42.289   8.229
 1186POPC   C3A19757  29.423  42.478   7.866
 1186POPC   C4A19758  29.005  42.529   7.731
 1186POPC   C1B19759  29.539  42.009   8.535
 1186POPC   C2B19760  29.314  41.769   8.197
 1186POPC   C3B19761  29.211  41.987   7.808
 1186POPC   C4B19762  29.592  42.061   7.583
 1187POPC   NC319763  35.154  26.143   9.698
 1187POPC   PO419764  35.793  26.306   9.435
 1187POPC   GL119765  35.527  26.080   9.136
 1187POPC   GL219766  35.434  25.702   9.182
 1187POPC   C1A19767  35.657  26.040   8.699
 1187POPC   D2A19768  35.696  26.346   8.359
 1187POPC   C3A19769  35.672  26.170   7.962
 1187POPC   C4A19770  35.319  26.174   7.643
 1187POPC   C1B19771  35.665  25.500   8.813
 1187POPC   C2B19772  35.643  25.614   8.357
 1187POPC   C3B19773  35.365  25.775   8.021
 1187POPC   C4B19774  35.062  25.670   7.703
 1188POPC   NC319775  33.444   3.349   9.434
 1188POPC   PO419776  33.996   3.739   9.720
 1188POPC   GL119777  33.784   3.706   9.267
 1188POPC   GL219778  33.823   3.403   9.021
 1188POPC   C1A19779  33.643   3.831   8.827
 1188POPC   D2A19780  33.629   3.589   8.417
 1188POPC   C3A19781  33.985   3.605   8.131
 1188POPC   C4A19782  34.030   3.487   7.687
 1188POPC   C1B19783  33.483   3.179   8.775
 1188POPC   C2B19784  33.474   3.036   8.328
 1188POPC   C3B19785  33.611   3.313   7.965
 1188POPC   C4B19786  33.576   3.778   7.884
 1189POPC   NC319787  39.177  14.628   9.397
 1189POPC   PO419788  39.648  14.262   9.302
 1189POPC   GL119789  39.442  14.414   8.991
 1189POPC   GL219790  39.099  14.275   8.982
 1189POPC   C1A19791  39.389  14.387   8.570
 1189POPC   D2A19792  39.124  14.104   8.439
 1189POPC   C3A19793  39.064  14.257   8.043
 1189POPC   C4A19794  39.311  14.403   7.689
 1189POPC   C1B19795  39.076  14.715   8.784
 1189POPC   C2B19796  39.081  14.939   8.396
 1189POPC   C3B19797  38.943  14.829   7.971
 1189POPC   C4B19798  38.980  14.790   7.516
 1190POPC   NC319799  23.655  13.777   9.787
 1190POPC   PO419800  23.970  13.214   9.461
 1190POPC   GL119801  23.921  13.485   9.063
 1190POPC   GL219802  23.714  13.835   9.046
 1190POPC   C1A19803  23.764  13.493   8.661
 1190POPC   D2A19804  23.754  13.463   8.238
 1190POPC   C3A19805  23.530  13.777   8.029
 1190POPC   C4A19806  23.405  13.671   7.629
 1190POPC   C1B19807  24.104  13.882   8.798
 1190POPC   C2B19808  24.219  13.645   8.443
 1190POPC   C3B19809  24.059  13.834   8.071
 1190POPC   C4B19810  23.897  13.755   7.680
 1191POPC   NC319811  38.322  23.256   9.569
 1191POPC   PO419812  38.265  22.619   9.498
 1191POPC   GL119813  38.500  22.914   9.228
 1191POPC   GL219814  38.249  22.887   9.044
 1191POPC   C1A19815  38.704  23.062   8.839
 1191POPC   D2A19816  38.617  22.966   8.379
 1191POPC   C3A19817  38.726  23.172   7.988
 1191POPC   C4A19818  38.658  22.902   7.632
 1191POPC   C1B19819  38.208  23.100   8.677
 1191POPC   C2B19820  38.054  22.953   8.306
 1191POPC   C3B19821  38.249  22.993   7.910
 1191POPC   C4B19822  38.162  22.923   7.460
 1192POPC   NC319823  44.328   2.036   9.466
 1192POPC   PO419824  44.886   2.298   9.681
 1192POPC   GL119825  44.728   2.261   9.196
 1192POPC   GL219826  44.389   2.407   9.099
 1192POPC   C1A19827  44.500   1.967   8.847
 1192POPC   D2A19828  44.325   1.860   8.420
 1192POPC   C3A19829  44.456   2.027   8.049
 1192POPC   C4A19830  44.721   1.824   7.742
 1192POPC   C1B19831  44.481   2.405   8.615
 1192POPC   C2B19832  44.835   2.382   8.353
 1192POPC   C3B19833  44.903   2.248   7.949
 1192POPC   C4B19834   0.083   2.153   7.525
 1193POPC   NC319835  18.370  35.573   9.572
 1193POPC   PO419836  17.933  35.106   9.569
 1193POPC   GL119837  18.035  35.343   9.245
 1193POPC   GL219838  18.354  35.213   9.156
 1193POPC   C1A19839  18.100  35.506   8.839
 1193POPC   D2A19840  18.197  35.243   8.477
 1193POPC   C3A19841  18.066  35.372   8.076
 1193POPC   C4A19842  18.174  35.258   7.653
 1193POPC   C1B19843  18.589  35.343   8.792
 1193POPC   C2B19844  18.667  35.525   8.406
 1193POPC   C3B19845  18.582  35.431   8.000
 1193POPC   C4B19846  18.690  35.345   7.585
 1194POPC   NC319847   6.226   6.895   9.875
 1194POPC   PO419848   5.653   6.676   9.569
 1194POPC   GL119849   5.898   6.659   9.221
 1194POPC   GL219850   6.108   6.395   9.265
 1194POPC   C1A19851   5.815   6.625   8.806
 1194POPC   D2A19852   5.791   6.431   8.447
 1194POPC   C3A19853   5.933   6.730   8.177
 1194POPC   C4A19854   5.929   6.591   7.784
 1194POPC   C1B19855   6.307   6.475   8.890
 1194POPC   C2B19856   6.303   6.586   8.497
 1194POPC   C3B19857   6.455   6.416   8.113
 1194POPC   C4B19858   6.360   6.317   7.716
 1195POPC   NC319859  35.454  31.358   9.441
 1195POPC   PO419860  34.940  31.827   9.418
 1195POPC   GL119861  35.272  31.718   9.095
 1195POPC   GL219862  35.245  31.370   8.988
 1195POPC   C1A19863  35.454  31.680   8.659
 1195POPC   D2A19864  35.283  31.423   8.311
 1195POPC   C3A19865  35.309  31.625   7.892
 1195POPC   C4A19866  35.663  31.831   7.650
 1195POPC   C1B19867  35.556  31.143   8.748
 1195POPC   C2B19868  35.573  31.005   8.320
 1195POPC   C3B19869  35.380  31.093   7.880
 1195POPC   C4B19870  35.426  31.041   7.391
 1196POPC   NC319871  13.794  13.697   9.572
 1196POPC   PO419872  13.437  13.159   9.325
 1196POPC   GL119873  13.667  13.549   9.100
 1196POPC   GL219874  14.048  13.601   9.088
 1196POPC   C1A19875  13.782  13.835   8.738
 1196POPC   D2A19876  13.769  13.641   8.354
 1196POPC   C3A19877  13.832  13.828   8.008
 1196POPC   C4A19878  13.700  13.710   7.648
 1196POPC   C1B19879  13.948  13.319   8.708
 1196POPC   C2B19880  13.935  13.120   8.307
 1196POPC   C3B19881  13.794  13.292   7.913
 1196POPC   C4B19882  13.861  13.289   7.410
 1197POPC   NC319883   6.402   2.627   9.714
 1197POPC   PO419884   5.710   2.610   9.565
 1197POPC   GL119885   5.785   2.859   9.201
 1197POPC   GL219886   6.057   2.784   9.117
 1197POPC   C1A19887   5.656   2.801   8.761
 1197POPC   D2A19888   5.752   2.566   8.353
 1197POPC   C3A19889   5.618   2.662   7.929
 1197POPC   C4A19890   5.841   2.955   7.648
 1197POPC   C1B19891   6.175   2.789   8.696
 1197POPC   C2B19892   6.116   2.955   8.293
 1197POPC   C3B19893   6.137   2.633   7.983
 1197POPC   C4B19894   5.976   2.439   7.635
 1198POPC   NC319895  40.399  23.065   9.510
 1198POPC   PO419896  39.825  22.773   9.589
 1198POPC   GL119897  39.913  23.023   9.260
 1198POPC   GL219898  40.100  22.757   9.118
 1198POPC   C1A19899  39.984  23.171   8.851
 1198POPC   D2A19900  40.322  23.277   8.569
 1198POPC   C3A19901  40.193  23.104   8.180
 1198POPC   C4A19902  40.160  23.206   7.759
 1198POPC   C1B19903  40.288  22.768   8.686
 1198POPC   C2B19904  40.201  22.591   8.265
 1198POPC   C3B19905  40.059  22.707   7.849
 1198POPC   C4B19906  39.953  22.538   7.460
 1199POPC   NC319907  17.673  44.362   9.690
 1199POPC   PO419908  17.479  44.991   9.460
 1199POPC   GL119909  17.601  44.667   9.198
 1199POPC   GL219910  17.406  44.342   9.254
 1199POPC   C1A19911  17.694  44.591   8.746
 1199POPC   D2A19912  17.732  44.422   8.317
 1199POPC   C3A19913  17.751  44.746   8.002
 1199POPC   C4A19914  17.793  44.696   7.561
 1199POPC   C1B19915  17.206  44.490   8.898
 1199POPC   C2B19916  17.229  44.579   8.472
 1199POPC   C3B19917  17.286  44.516   8.051
 1199POPC   C4B19918  17.327  44.807   7.720
 1200POPC   NC319919  25.828  23.847   9.386
 1200POPC   PO419920  26.406  23.429   9.477
 1200POPC   GL119921  26.217  23.609   9.102
 1200POPC   GL219922  25.859  23.511   9.002
 1200POPC   C1A19923  26.178  23.841   8.716
 1200POPC   D2A19924  26.190  24.011   8.302
 1200POPC   C3A19925  26.158  23.805   7.895
 1200POPC   C4A19926  26.287  23.972   7.472
 1200POPC   C1B19927  26.090  23.330   8.681
 1200POPC   C2B19928  26.206  23.480   8.332
 1200POPC   C3B19929  26.148  23.296   7.985
 1200POPC   C4B19930  25.905  23.321   7.663
 1201POPC   NC319931   5.499  32.899   9.411
 1201POPC   PO419932   6.036  33.343   9.558
 1201POPC   GL119933   5.893  33.162   9.215
 1201POPC   GL219934   5.649  33.411   9.184
 1201POPC   C1A19935   5.737  33.072   8.791
 1201POPC   D2A19936   5.935  32.869   8.453
 1201POPC   C3A19937   5.745  32.881   8.069
 1201POPC   C4A19938   5.933  32.878   7.669
 1201POPC   C1B19939   5.999  33.518   8.886
 1201POPC   C2B19940   5.910  33.521   8.467
 1201POPC   C3B19941   5.905  33.350   8.078
 1201POPC   C4B19942   5.685  33.315   7.726
 1202POPC   NC319943  21.333  27.998   9.570
 1202POPC   PO419944  21.517  28.585   9.499
 1202POPC   GL119945  21.613  28.266   9.257
 1202POPC   GL219946  21.333  28.168   9.097
 1202POPC   C1A19947  21.768  28.295   8.880
 1202POPC   D2A19948  21.633  28.534   8.576
 1202POPC   C3A19949  21.681  28.429   8.190
 1202POPC   C4A19950  21.755  28.400   7.757
 1202POPC   C1B19951  21.198  28.293   8.714
 1202POPC   C2B19952  21.184  28.489   8.309
 1202POPC   C3B19953  21.295  28.587   7.890
 1202POPC   C4B19954  21.198  28.379   7.504
 1203POPC   NC319955  37.507  36.299   9.541
 1203POPC   PO419956  37.539  35.678   9.553
 1203POPC   GL119957  37.713  35.917   9.223
 1203POPC   GL219958  38.011  35.726   9.153
 1203POPC   C1A19959  37.605  36.197   8.860
 1203POPC   D2A19960  37.375  36.175   8.469
 1203POPC   C3A19961  37.602  36.345   8.138
 1203POPC   C4A19962  37.680  36.194   7.780
 1203POPC   C1B19963  38.069  35.876   8.762
 1203POPC   C2B19964  37.892  36.032   8.425
 1203POPC   C3B19965  38.106  36.027   8.047
 1203POPC   C4B19966  38.055  35.907   7.625
 1204POPC   NC319967   2.791  10.069   9.592
 1204POPC   PO419968   2.512   9.483   9.573
 1204POPC   GL119969   2.790   9.660   9.238
 1204POPC   GL219970   2.650   9.970   9.118
 1204POPC   C1A19971   2.846   9.570   8.798
 1204POPC   D2A19972   2.501   9.606   8.524
 1204POPC   C3A19973   2.574   9.632   8.079
 1204POPC   C4A19974   2.891   9.546   7.791
 1204POPC   C1B19975   3.038  10.037   8.888
 1204POPC   C2B19976   3.207   9.963   8.479
 1204POPC   C3B19977   3.011   9.969   8.059
 1204POPC   C4B19978   2.950  10.070   7.613
 1205POPC   NC319979   5.870  11.306   9.434
 1205POPC   PO419980   6.291  10.886   9.672
 1205POPC   GL119981   6.248  11.027   9.177
 1205POPC   GL219982   6.169  11.358   9.056
 1205POPC   C1A19983   6.141  11.025   8.704
 1205POPC   D2A19984   5.962  11.072   8.326
 1205POPC   C3A19985   6.041  11.376   8.017
 1205POPC   C4A19986   5.856  11.171   7.713
 1205POPC   C1B19987   5.783  11.390   8.787
 1205POPC   C2B19988   5.742  11.534   8.387
 1205POPC   C3B19989   5.539  11.481   8.021
 1205POPC   C4B19990   5.439  11.606   7.676
 1206POPC   NC319991  42.521  28.998   9.468
 1206POPC   PO419992  42.200  29.551   9.513
 1206POPC   GL119993  42.197  29.283   9.151
 1206POPC   GL219994  41.928  29.090   9.151
 1206POPC   C1A19995  42.312  29.085   8.763
 1206POPC   D2A19996  42.562  28.902   8.454
 1206POPC   C3A19997  42.370  28.982   8.078
 1206POPC   C4A19998  42.511  29.040   7.655
 1206POPC   C1B19999  41.846  28.867   8.782
 1206POPC   C2B20000  41.912  29.052   8.372
 1206POPC   C3B20001  41.963  29.265   7.972
 1206POPC   C4B20002  41.933  28.998   7.623
 1207POPC   NC320003  29.253  41.380   9.583
 1207POPC   PO420004  29.149  41.968   9.280
 1207POPC   GL120005  29.252  41.602   9.088
 1207POPC   GL220006  28.940  41.470   9.162
 1207POPC   C1A20007  29.245  41.485   8.661
 1207POPC   D2A20008  29.201  41.136   8.362
 1207POPC   C3A20009  29.154  41.264   7.960
 1207POPC   C4A20010  29.424  41.526   7.721
 1207POPC   C1B20011  28.751  41.644   8.778
 1207POPC   C2B20012  28.849  41.549   8.316
 1207POPC   C3B20013  28.830  41.631   7.856
 1207POPC   C4B20014  28.766  41.675   7.404
 1208POPC   NC320015  16.632  42.686   9.567
 1208POPC   PO420016  16.624  42.004   9.569
 1208POPC   GL120017  16.748  42.275   9.261
 1208POPC   GL220018  16.459  42.459   9.146
 1208POPC   C1A20019  16.843  42.273   8.824
 1208POPC   D2A20020  16.761  42.129   8.425
 1208POPC   C3A20021  16.758  42.457   8.135
 1208POPC   C4A20022  16.748  42.345   7.734
 1208POPC   C1B20023  16.232  42.387   8.762
 1208POPC   C2B20024  16.246  42.128   8.412
 1208POPC   C3B20025  16.312  42.189   8.002
 1208POPC   C4B20026  16.261  42.585   7.859
 1209POPC   NC320027  44.053  32.727   9.616
 1209POPC   PO420028  43.606  33.127   9.368
 1209POPC   GL120029  43.954  33.070   9.101
 1209POPC   GL220030  43.835  33.295   8.874
 1209POPC   C1A20031  43.961  32.845   8.685
 1209POPC   D2A20032  43.844  32.999   8.294
 1209POPC   C3A20033  44.053  33.285   8.061
 1209POPC   C4A20034  44.105  32.999   7.703
 1209POPC   C1B20035  43.495  33.040   8.664
 1209POPC   C2B20036  43.386  33.189   8.249
 1209POPC   C3B20037  43.608  33.179   7.833
 1209POPC   C4B20038  43.907  33.457   7.583
 1210POPC   NC320039  17.286   6.747   9.590
 1210POPC   PO420040  17.878   6.498   9.447
 1210POPC   GL120041  17.570   6.732   9.146
 1210POPC   GL220042  17.167   6.648   9.112
 1210POPC   C1A20043  17.443   6.854   8.728
 1210POPC   D2A20044  17.535   6.608   8.383
 1210POPC   C3A20045  17.709   6.767   8.009
 1210POPC   C4A20046  17.878   6.656   7.594
 1210POPC   C1B20047  16.936   6.879   8.804
 1210POPC   C2B20048  16.972   6.964   8.372
 1210POPC   C3B20049  17.160   6.740   8.035
 1210POPC   C4B20050  17.386   6.642   7.655
 1211POPC   NC320051  22.886  23.352   9.470
 1211POPC   PO420052  23.128  23.954   9.635
 1211POPC   GL120053  22.964  23.827   9.230
 1211POPC   GL220054  22.655  23.683   9.147
 1211POPC   C1A20055  23.099  23.856   8.808
 1211POPC   D2A20056  23.034  23.662   8.390
 1211POPC   C3A20057  23.049  23.877   8.027
 1211POPC   C4A20058  23.395  23.829   7.820
 1211POPC   C1B20059  22.731  23.507   8.752
 1211POPC   C2B20060  22.586  23.408   8.335
 1211POPC   C3B20061  22.823  23.397   7.926
 1211POPC   C4B20062  22.812  23.344   7.451
 1212POPC   NC320063   5.687  35.812   9.347
 1212POPC   PO420064   6.103  36.540   9.455
 1212POPC   GL120065   6.180  36.309   9.065
 1212POPC   GL220066   6.018  35.993   9.025
 1212POPC   C1A20067   6.044  36.354   8.669
 1212POPC   D2A20068   5.862  36.310   8.293
 1212POPC   C3A20069   6.135  36.446   7.960
 1212POPC   C4A20070   6.001  36.442   7.509
 1212POPC   C1B20071   5.726  35.949   8.675
 1212POPC   C2B20072   5.768  35.787   8.258
 1212POPC   C3B20073   5.914  36.019   7.876
 1212POPC   C4B20074   5.991  35.895   7.474
 1213POPC   NC320075  23.976  12.729   9.551
 1213POPC   PO420076  24.570  12.939   9.693
 1213POPC   GL120077  24.635  12.964   9.204
 1213POPC   GL220078  24.278  12.949   9.163
 1213POPC   C1A20079  24.533  12.857   8.745
 1213POPC   D2A20080  24.707  12.715   8.354
 1213POPC   C3A20081  24.517  12.783   7.954
 1213POPC   C4A20082  24.733  12.961   7.587
 1213POPC   C1B20083  24.088  13.096   8.765
 1213POPC   C2B20084  24.196  13.135   8.319
 1213POPC   C3B20085  24.176  13.342   7.915
 1213POPC   C4B20086  24.229  13.059   7.580
 1214POPC   NC320087  10.988   2.033   9.473
 1214POPC   PO420088  11.524   1.618   9.576
 1214POPC   GL120089  11.451   1.910   9.257
 1214POPC   GL220090  11.144   1.712   9.122
 1214POPC   C1A20091  11.332   2.158   8.888
 1214POPC   D2A20092  11.302   1.972   8.480
 1214POPC   C3A20093  11.594   2.103   8.175
 1214POPC   C4A20094  11.444   2.080   7.765
 1214POPC   C1B20095  11.466   1.626   8.835
 1214POPC   C2B20096  11.491   1.504   8.405
 1214POPC   C3B20097  11.272   1.656   8.037
 1214POPC   C4B20098  11.368   1.611   7.598
 1215POPC   NC320099  35.831  29.670   9.473
 1215POPC   PO420100  35.111  29.776   9.712
 1215POPC   GL120101  35.351  29.830   9.287
 1215POPC   GL220102  35.481  29.526   9.116
 1215POPC   C1A20103  35.368  30.101   8.889
 1215POPC   D2A20104  35.093  30.189   8.506
 1215POPC   C3A20105  35.266  30.250   8.089
 1215POPC   C4A20106  35.353  30.077   7.689
 1215POPC   C1B20107  35.512  29.653   8.692
 1215POPC   C2B20108  35.454  29.816   8.290
 1215POPC   C3B20109  35.348  29.618   7.887
 1215POPC   C4B20110  35.519  29.651   7.442
 1216POPC   NC320111  13.757   4.549   9.699
 1216POPC   PO420112  13.319   4.794   9.249
 1216POPC   GL120113  13.756   4.682   9.199
 1216POPC   GL220114  13.726   4.332   9.224
 1216POPC   C1A20115  13.958   4.630   8.817
 1216POPC   D2A20116  13.643   4.663   8.493
 1216POPC   C3A20117  13.701   4.511   8.089
 1216POPC   C4A20118  13.478   4.310   7.801
 1216POPC   C1B20119  13.542   4.255   8.825
 1216POPC   C2B20120  13.480   3.915   8.529
 1216POPC   C3B20121  13.624   3.923   8.109
 1216POPC   C4B20122  13.954   4.132   7.850
 1217POPC   NC320123   8.269  20.915   9.356
 1217POPC   PO420124   8.222  20.246   9.371
 1217POPC   GL120125   8.267  20.517   9.050
 1217POPC   GL220126   7.926  20.667   9.075
 1217POPC   C1A20127   8.451  20.623   8.665
 1217POPC   D2A20128   8.383  20.519   8.234
 1217POPC   C3A20129   8.581  20.262   7.934
 1217POPC   C4A20130   8.310  20.472   7.604
 1217POPC   C1B20131   7.952  20.558   8.647
 1217POPC   C2B20132   7.874  20.378   8.288
 1217POPC   C3B20133   7.943  20.642   7.936
 1217POPC   C4B20134   7.627  20.823   7.704
 1218POPC   NC320135  28.060  41.361   9.588
 1218POPC   PO420136  28.732  41.567   9.634
 1218POPC   GL120137  28.448  41.588   9.276
 1218POPC   GL220138  28.485  41.243   9.312
 1218POPC   C1A20139  28.248  41.761   8.887
 1218POPC   D2A20140  28.074  41.816   8.443
 1218POPC   C3A20141  28.376  41.819   8.119
 1218POPC   C4A20142  28.320  41.696   7.693
 1218POPC   C1B20143  28.372  41.248   8.881
 1218POPC   C2B20144  28.382  41.428   8.474
 1218POPC   C3B20145  28.450  41.314   8.031
 1218POPC   C4B20146  28.590  41.235   7.605
 1219POPC   NC320147  13.207  26.746   9.516
 1219POPC   PO420148  12.678  27.139   9.529
 1219POPC   GL120149  12.849  26.956   9.146
 1219POPC   GL220150  13.068  27.199   9.131
 1219POPC   C1A20151  12.644  26.689   8.782
 1219POPC   D2A20152  12.498  26.859   8.376
 1219POPC   C3A20153  12.784  26.913   8.028
 1219POPC   C4A20154  12.739  26.716   7.579
 1219POPC   C1B20155  13.018  26.985   8.674
 1219POPC   C2B20156  13.067  26.643   8.363
 1219POPC   C3B20157  13.267  26.691   7.954
 1219POPC   C4B20158  13.195  27.114   7.815
 1220POPC   NC320159  40.649  20.260   9.973
 1220POPC   PO420160  40.790  19.667   9.671
 1220POPC   GL120161  40.769  19.784   9.213
 1220POPC   GL220162  40.511  19.990   9.103
 1220POPC   C1A20163  40.624  19.596   8.807
 1220POPC   D2A20164  40.672  19.720   8.377
 1220POPC   C3A20165  40.754  19.453   8.048
 1220POPC   C4A20166  40.710  19.674   7.701
 1220POPC   C1B20167  40.549  20.124   8.703
 1220POPC   C2B20168  40.309  20.056   8.344
 1220POPC   C3B20169  40.584  20.104   7.998
 1220POPC   C4B20170  40.590  20.323   7.584
 1221POPC   NC320171  30.214   3.987   9.512
 1221POPC   PO420172  29.905   4.643   9.419
 1221POPC   GL120173  29.995   4.467   9.034
 1221POPC   GL220174  30.107   4.123   9.033
 1221POPC   C1A20175  29.963   4.610   8.593
 1221POPC   D2A20176  30.111   4.468   8.192
 1221POPC   C3A20177  29.878   4.167   7.966
 1221POPC   C4A20178  29.794   4.246   7.539
 1221POPC   C1B20179  30.122   4.111   8.571
 1221POPC   C2B20180  30.320   3.949   8.188
 1221POPC   C3B20181  30.335   3.787   7.758
 1221POPC   C4B20182  30.414   3.970   7.329
 1222POPC   NC320183  43.802   3.622   9.472
 1222POPC   PO420184  43.401   3.091   9.386
 1222POPC   GL120185  43.525   3.375   9.074
 1222POPC   GL220186  43.875   3.474   9.007
 1222POPC   C1A20187  43.537   3.397   8.643
 1222POPC   D2A20188  43.582   3.483   8.243
 1222POPC   C3A20189  43.899   3.258   8.152
 1222POPC   C4A20190  44.119   3.418   7.817
 1222POPC   C1B20191  43.849   3.777   8.687
 1222POPC   C2B20192  44.087   3.708   8.306
 1222POPC   C3B20193  44.032   3.900   7.889
 1222POPC   C4B20194  44.099   3.785   7.435
 1223POPC   NC320195  25.526  15.413   9.532
 1223POPC   PO420196  25.173  14.822   9.558
 1223POPC   GL120197  25.145  15.148   9.306
 1223POPC   GL220198  25.465  15.041   9.183
 1223POPC   C1A20199  25.084  15.238   8.895
 1223POPC   D2A20200  25.195  15.134   8.477
 1223POPC   C3A20201  25.108  15.438   8.165
 1223POPC   C4A20202  25.179  15.382   7.721
 1223POPC   C1B20203  25.590  15.205   8.820
 1223POPC   C2B20204  25.661  15.368   8.434
 1223POPC   C3B20205  25.610  15.294   8.023
 1223POPC   C4B20206  25.733  15.187   7.632
 1224POPC   NC320207  42.843  13.266   9.493
 1224POPC   PO420208  43.220  12.747   9.302
 1224POPC   GL120209  43.040  13.088   9.056
 1224POPC   GL220210  43.303  13.253   8.931
 1224POPC   C1A20211  42.805  13.195   8.674
 1224POPC   D2A20212  42.622  12.993   8.301
 1224POPC   C3A20213  42.924  12.998   7.969
 1224POPC   C4A20214  43.098  12.652   7.720
 1224POPC   C1B20215  43.491  12.933   8.709
 1224POPC   C2B20216  43.324  12.672   8.422
 1224POPC   C3B20217  43.430  12.820   8.051
 1224POPC   C4B20218  43.618  12.595   7.733
 1225POPC   NC320219  40.875  30.300   9.857
 1225POPC   PO420220  40.715  30.857   9.484
 1225POPC   GL120221  40.967  30.770   9.109
 1225POPC   GL220222  40.663  30.685   8.972
 1225POPC   C1A20223  41.028  30.705   8.629
 1225POPC   D2A20224  40.738  30.548   8.311
 1225POPC   C3A20225  40.914  30.513   7.893
 1225POPC   C4A20226  41.080  30.828   7.612
 1225POPC   C1B20227  40.641  31.022   8.634
 1225POPC   C2B20228  40.670  31.038   8.164
 1225POPC   C3B20229  40.501  30.836   7.799
 1225POPC   C4B20230  40.365  30.983   7.366
 1226POPC   NC320231  32.217   8.451   9.661
 1226POPC   PO420232  32.430   9.041   9.463
 1226POPC   GL120233  32.252   9.167   9.084
 1226POPC   GL220234  32.501   9.044   8.884
 1226POPC   C1A20235  32.015   8.974   8.685
 1226POPC   D2A20236  32.039   8.689   8.285
 1226POPC   C3A20237  32.182   8.885   7.898
 1226POPC   C4A20238  32.027   9.257   7.685
 1226POPC   C1B20239  32.466   8.741   8.560
 1226POPC   C2B20240  32.621   8.775   8.149
 1226POPC   C3B20241  32.654   8.809   7.710
 1226POPC   C4B20242  32.670   8.811   7.265
 1227POPC   NC320243  36.280  38.238   9.545
 1227POPC   PO420244  36.597  38.752   9.489
 1227POPC   GL120245  36.355  38.607   9.164
 1227POPC   GL220246  36.031  38.673   9.260
 1227POPC   C1A20247  36.337  38.228   8.867
 1227POPC   D2A20248  36.020  38.184   8.515
 1227POPC   C3A20249  36.099  38.170   8.072
 1227POPC   C4A20250  36.342  38.160   7.720
 1227POPC   C1B20251  36.011  38.625   8.776
 1227POPC   C2B20252  36.046  38.693   8.288
 1227POPC   C3B20253  36.112  38.638   7.824
 1227POPC   C4B20254  35.823  38.745   7.431
 1228POPC   NC320255  43.441  41.783   9.540
 1228POPC   PO420256  43.198  41.211   9.555
 1228POPC   GL120257  43.252  41.460   9.212
 1228POPC   GL220258  42.957  41.645   9.175
 1228POPC   C1A20259  43.262  41.393   8.801
 1228POPC   D2A20260  43.065  41.595   8.506
 1228POPC   C3A20261  43.182  41.563   8.090
 1228POPC   C4A20262  42.916  41.717   7.808
 1228POPC   C1B20263  42.770  41.342   8.889
 1228POPC   C2B20264  42.700  41.222   8.478
 1228POPC   C3B20265  42.788  41.229   8.048
 1228POPC   C4B20266  42.733  41.287   7.595
 1229POPC   NC320267  35.325  32.068   9.467
 1229POPC   PO420268  35.548  32.639   9.478
 1229POPC   GL120269  35.227  32.582   9.174
 1229POPC   GL220270  35.004  32.302   9.143
 1229POPC   C1A20271  35.126  32.694   8.759
 1229POPC   D2A20272  35.112  32.901   8.349
 1229POPC   C3A20273  35.252  32.696   7.994
 1229POPC   C4A20274  35.326  32.520   7.576
 1229POPC   C1B20275  35.192  32.121   8.768
 1229POPC   C2B20276  35.452  32.140   8.381
 1229POPC   C3B20277  35.332  32.159   7.943
 1229POPC   C4B20278  35.199  32.000   7.524
 1230POPC   NC320279   7.797   4.992   9.292
 1230POPC   PO420280   8.275   5.399   9.503
 1230POPC   GL120281   8.292   5.103   9.149
 1230POPC   GL220282   8.478   4.823   9.282
 1230POPC   C1A20283   8.147   5.056   8.692
 1230POPC   D2A20284   8.081   5.347   8.332
 1230POPC   C3A20285   8.093   5.153   7.964
 1230POPC   C4A20286   8.368   5.288   7.670
 1230POPC   C1B20287   8.610   4.856   8.838
 1230POPC   C2B20288   8.545   4.758   8.394
 1230POPC   C3B20289   8.511   4.868   7.950
 1230POPC   C4B20290   8.293   4.815   7.511
 1231POPC   NC320291   9.987   2.536   9.662
 1231POPC   PO420292   9.424   2.845  10.004
 1231POPC   GL120293   9.426   2.812   9.436
 1231POPC   GL220294   9.753   2.733   9.238
 1231POPC   C1A20295   9.432   2.888   8.902
 1231POPC   D2A20296   9.594   2.686   8.489
 1231POPC   C3A20297   9.549   2.780   8.042
 1231POPC   C4A20298   9.740   2.591   7.681
 1231POPC   C1B20299   9.988   2.434   8.962
 1231POPC   C2B20300  10.094   2.524   8.532
 1231POPC   C3B20301  10.069   2.535   8.084
 1231POPC   C4B20302  10.220   2.417   7.647
 1232POPC   NC320303  21.847  14.290   9.408
 1232POPC   PO420304  21.172  14.306   9.500
 1232POPC   GL120305  21.386  14.458   9.146
 1232POPC   GL220306  21.172  14.726   9.055
 1232POPC   C1A20307  21.674  14.481   8.792
 1232POPC   D2A20308  21.827  14.308   8.415
 1232POPC   C3A20309  21.530  14.473   8.090
 1232POPC   C4A20310  21.307  14.251   7.781
 1232POPC   C1B20311  21.015  14.470   8.717
 1232POPC   C2B20312  20.986  14.344   8.290
 1232POPC   C3B20313  21.010  14.630   7.967
 1232POPC   C4B20314  21.358  14.748   7.668
 1233POPC   NC320315   1.117  35.980   9.361
 1233POPC   PO420316   1.683  36.317   9.425
 1233POPC   GL120317   1.421  36.281   9.084
 1233POPC   GL220318   1.170  36.535   9.138
 1233POPC   C1A20319   1.168  36.206   8.726
 1233POPC   D2A20320   1.269  36.304   8.331
 1233POPC   C3A20321   1.440  36.066   8.013
 1233POPC   C4A20322   1.234  36.090   7.623
 1233POPC   C1B20323   0.887  36.648   8.776
 1233POPC   C2B20324   0.954  36.709   8.347
 1233POPC   C3B20325   0.930  36.509   7.945
 1233POPC   C4B20326   0.572  36.552   7.680
 1234POPC   NC320327  39.733  32.619   9.479
 1234POPC   PO420328  39.753  33.355   9.465
 1234POPC   GL120329  39.929  33.183   9.120
 1234POPC   GL220330  40.075  32.830   9.166
 1234POPC   C1A20331  40.112  33.168   8.711
 1234POPC   D2A20332  40.383  33.076   8.371
 1234POPC   C3A20333  40.137  33.089   8.014
 1234POPC   C4A20334  39.945  33.423   7.864
 1234POPC   C1B20335  39.778  32.791   8.816
 1234POPC   C2B20336  39.957  32.769   8.411
 1234POPC   C3B20337  39.811  32.702   8.030
 1234POPC   C4B20338  39.680  32.929   7.733
 1235POPC   NC320339   8.827   0.968   9.576
 1235POPC   PO420340   9.230   1.372   9.834
 1235POPC   GL120341   9.161   1.337   9.381
 1235POPC   GL220342   8.818   1.400   9.281
 1235POPC   C1A20343   9.186   1.285   8.935
 1235POPC   D2A20344   9.108   1.354   8.519
 1235POPC   C3A20345   9.282   1.062   8.223
 1235POPC   C4A20346   9.309   1.289   7.825
 1235POPC   C1B20347   8.679   1.134   8.908
 1235POPC   C2B20348   8.780   0.976   8.482
 1235POPC   C3B20349   8.825   1.195   8.069
 1235POPC   C4B20350   8.641   1.101   7.698
 1236POPC   NC320351  13.413  36.542   9.328
 1236POPC   PO420352  13.863  36.056   9.538
 1236POPC   GL120353  13.806  36.240   9.153
 1236POPC   GL220354  13.478  36.071   9.153
 1236POPC   C1A20355  13.656  36.352   8.752
 1236POPC   D2A20356  13.690  36.382   8.351
 1236POPC   C3A20357  13.999  36.257   8.147
 1236POPC   C4A20358  13.873  36.267   7.762
 1236POPC   C1B20359  13.471  35.869   8.767
 1236POPC   C2B20360  13.610  35.865   8.345
 1236POPC   C3B20361  13.476  36.028   7.974
 1236POPC   C4B20362  13.179  35.913   7.634
 1237POPC   NC320363  20.962  24.565   9.498
 1237POPC   PO420364  21.539  24.238   9.499
 1237POPC   GL120365  21.401  24.232   9.095
 1237POPC   GL220366  21.450  24.567   9.091
 1237POPC   C1A20367  21.367  24.265   8.646
 1237POPC   D2A20368  21.143  24.348   8.266
 1237POPC   C3A20369  21.439  24.420   7.916
 1237POPC   C4A20370  21.729  24.093   7.793
 1237POPC   C1B20371  21.136  24.721   8.856
 1237POPC   C2B20372  21.024  24.799   8.461
 1237POPC   C3B20373  21.099  24.828   8.017
 1237POPC   C4B20374  21.241  24.810   7.590
 1238POPC   NC320375  11.658  18.875   9.577
 1238POPC   PO420376  10.944  18.874   9.597
 1238POPC   GL120377  11.079  19.017   9.165
 1238POPC   GL220378  11.402  19.171   9.173
 1238POPC   C1A20379  11.290  18.869   8.756
 1238POPC   D2A20380  11.425  18.801   8.313
 1238POPC   C3A20381  11.199  19.069   8.025
 1238POPC   C4A20382  10.818  18.981   7.775
 1238POPC   C1B20383  11.553  19.293   8.732
 1238POPC   C2B20384  11.845  19.076   8.399
 1238POPC   C3B20385  11.757  19.019   7.967
 1238POPC   C4B20386  11.631  19.341   7.714
 1239POPC   NC320387  40.599  28.816   9.526
 1239POPC   PO420388  40.533  29.431   9.230
 1239POPC   GL120389  40.797  29.136   9.134
 1239POPC   GL220390  40.522  28.939   9.015
 1239POPC   C1A20391  40.957  29.165   8.724
 1239POPC   D2A20392  40.738  29.204   8.337
 1239POPC   C3A20393  40.944  29.351   7.951
 1239POPC   C4A20394  40.762  29.409   7.552
 1239POPC   C1B20395  40.823  28.693   8.852
 1239POPC   C2B20396  40.949  28.722   8.433
 1239POPC   C3B20397  40.843  28.856   7.976
 1239POPC   C4B20398  41.125  28.970   7.639
 1240POPC   NC320399  19.468   6.494   9.539
 1240POPC   PO420400  19.058   7.020   9.581
 1240POPC   GL120401  19.142   6.794   9.217
 1240POPC   GL220402  18.991   6.480   9.281
 1240POPC   C1A20403  19.298   6.911   8.795
 1240POPC   D2A20404  19.501   6.970   8.389
 1240POPC   C3A20405  19.198   6.919   8.082
 1240POPC   C4A20406  19.153   6.905   7.638
 1240POPC   C1B20407  19.009   6.451   8.820
 1240POPC   C2B20408  18.994   6.325   8.340
 1240POPC   C3B20409  19.014   6.460   7.916
 1240POPC   C4B20410  19.344   6.362   7.623
 1241POPC   NC320411   5.735  27.396   9.611
 1241POPC   PO420412   6.375  27.605   9.637
 1241POPC   GL120413   6.124  27.541   9.263
 1241POPC   GL220414   6.334  27.310   9.131
 1241POPC   C1A20415   5.811  27.573   8.910
 1241POPC   D2A20416   5.796  27.783   8.496
 1241POPC   C3A20417   5.717  27.663   8.066
 1241POPC   C4A20418   5.752  27.951   7.731
 1241POPC   C1B20419   6.208  27.335   8.744
 1241POPC   C2B20420   6.313  27.503   8.411
 1241POPC   C3B20421   6.279  27.424   8.034
 1241POPC   C4B20422   6.089  27.555   7.712
 1242POPC   NC320423  31.329  43.637   9.535
 1242POPC   PO420424  31.727  43.076   9.563
 1242POPC   GL120425  31.435  43.182   9.245
 1242POPC   GL220426  31.716  43.187   9.047
 1242POPC   C1A20427  31.255  43.224   8.828
 1242POPC   D2A20428  31.414  43.358   8.447
 1242POPC   C3A20429  31.306  43.166   8.071
 1242POPC   C4A20430  31.447  43.260   7.668
 1242POPC   C1B20431  31.732  42.871   8.732
 1242POPC   C2B20432  31.725  42.949   8.317
 1242POPC   C3B20433  31.675  42.861   7.915
 1242POPC   C4B20434  31.838  42.675   7.592
 1243POPC   NC320435  19.205   4.650   9.524
 1243POPC   PO420436  18.666   4.173   9.617
 1243POPC   GL120437  18.878   4.354   9.243
 1243POPC   GL220438  18.730   4.691   9.302
 1243POPC   C1A20439  19.081   4.352   8.818
 1243POPC   D2A20440  18.989   4.241   8.384
 1243POPC   C3A20441  19.117   4.473   8.062
 1243POPC   C4A20442  19.273   4.455   7.669
 1243POPC   C1B20443  18.653   4.680   8.861
 1243POPC   C2B20444  18.836   4.733   8.463
 1243POPC   C3B20445  18.731   4.825   8.033
 1243POPC   C4B20446  18.809   4.692   7.607
 1244POPC   NC320447   1.969  35.539   9.533
 1244POPC   PO420448   1.835  34.844   9.521
 1244POPC   GL120449   1.850  35.196   9.177
 1244POPC   GL220450   2.142  35.437   9.066
 1244POPC   C1A20451   1.704  35.396   8.798
 1244POPC   D2A20452   1.970  35.437   8.451
 1244POPC   C3A20453   1.780  35.265   8.090
 1244POPC   C4A20454   1.801  35.217   7.640
 1244POPC   C1B20455   2.320  35.188   8.746
 1244POPC   C2B20456   2.272  35.058   8.276
 1244POPC   C3B20457   2.276  35.154   7.826
 1244POPC   C4B20458   2.235  35.212   7.352
 1245POPC   NC320459  13.391  24.885   9.478
 1245POPC   PO420460  14.005  25.263   9.515
 1245POPC   GL120461  13.812  25.041   9.202
 1245POPC   GL220462  13.508  25.227   9.113
 1245POPC   C1A20463  13.881  25.088   8.787
 1245POPC   D2A20464  14.068  25.368   8.496
 1245POPC   C3A20465  13.929  25.464   8.098
 1245POPC   C4A20466  14.011  25.275   7.749
 1245POPC   C1B20467  13.545  25.486   8.751
 1245POPC   C2B20468  13.241  25.505   8.412
 1245POPC   C3B20469  13.197  25.214   8.104
 1245POPC   C4B20470  13.503  25.370   7.824
 1246POPC   NC320471  19.609   1.825   9.505
 1246POPC   PO420472  20.085   2.205   9.508
 1246POPC   GL120473  19.960   1.997   9.122
 1246POPC   GL220474  20.042   1.676   9.249
 1246POPC   C1A20475  19.710   1.993   8.682
 1246POPC   D2A20476  19.686   1.868   8.227
 1246POPC   C3A20477  19.657   2.064   7.799
 1246POPC   C4A20478  19.633   1.938   7.352
 1246POPC   C1B20479  19.984   1.597   8.816
 1246POPC   C2B20480  20.063   1.548   8.392
 1246POPC   C3B20481  20.085   1.726   7.959
 1246POPC   C4B20482  20.121   1.826   7.529
 1247POPC   NC320483  33.529  22.536   9.438
 1247POPC   PO420484  33.783  23.234   9.604
 1247POPC   GL120485  33.797  22.970   9.206
 1247POPC   GL220486  33.536  23.169   9.110
 1247POPC   C1A20487  34.083  22.811   8.828
 1247POPC   D2A20488  33.964  22.847   8.388
 1247POPC   C3A20489  34.181  22.811   7.988
 1247POPC   C4A20490  33.986  22.933   7.601
 1247POPC   C1B20491  33.572  22.805   8.785
 1247POPC   C2B20492  33.500  22.668   8.368
 1247POPC   C3B20493  33.641  22.827   7.963
 1247POPC   C4B20494  33.450  22.959   7.550
 1248POPC   NC320495  14.113  15.898   9.485
 1248POPC   PO420496  14.760  16.237   9.517
 1248POPC   GL120497  14.581  16.032   9.188
 1248POPC   GL220498  14.288  16.273   9.151
 1248POPC   C1A20499  14.391  15.891   8.822
 1248POPC   D2A20500  14.299  16.047   8.432
 1248POPC   C3A20501  14.460  15.895   8.048
 1248POPC   C4A20502  14.551  15.715   7.659
 1248POPC   C1B20503  13.985  16.230   8.806
 1248POPC   C2B20504  13.847  16.298   8.385
 1248POPC   C3B20505  14.085  16.251   8.005
 1248POPC   C4B20506  14.262  16.151   7.592
 1249POPC   NC320507  25.969  32.086   9.574
 1249POPC   PO420508  26.144  32.748   9.555
 1249POPC   GL120509  26.069  32.478   9.161
 1249POPC   GL220510  26.178  32.118   9.109
 1249POPC   C1A20511  25.954  32.360   8.716
 1249POPC   D2A20512  26.147  32.607   8.374
 1249POPC   C3A20513  26.144  32.463   7.993
 1249POPC   C4A20514  25.805  32.265   7.891
 1249POPC   C1B20515  26.350  31.803   8.812
 1249POPC   C2B20516  26.272  31.749   8.362
 1249POPC   C3B20517  26.171  31.909   7.922
 1249POPC   C4B20518  26.252  32.176   7.535
 1250POPC   NC320519   1.592  39.032   9.540
 1250POPC   PO420520   1.007  38.934   9.117
 1250POPC   GL120521   1.299  39.280   9.158
 1250POPC   GL220522   1.659  39.309   9.126
 1250POPC   C1A20523   1.260  39.452   8.771
 1250POPC   D2A20524   0.875  39.413   8.489
 1250POPC   C3A20525   0.855  39.597   8.083
 1250POPC   C4A20526   1.092  39.427   7.732
 1250POPC   C1B20527   1.768  39.451   8.764
 1250POPC   C2B20528   1.732  39.264   8.387
 1250POPC   C3B20529   1.560  39.087   8.027
 1250POPC   C4B20530   1.657  39.165   7.595
 1251POPC   NC320531   3.988   4.322   9.603
 1251POPC   PO420532   3.546   3.886   9.777
 1251POPC   GL120533   3.480   4.221   9.390
 1251POPC   GL220534   3.727   4.459   9.197
 1251POPC   C1A20535   3.335   4.260   8.923
 1251POPC   D2A20536   3.375   4.189   8.450
 1251POPC   C3A20537   3.174   4.356   8.068
 1251POPC   C4A20538   3.346   4.387   7.640
 1251POPC   C1B20539   3.832   4.337   8.763
 1251POPC   C2B20540   3.884   4.169   8.365
 1251POPC   C3B20541   3.699   4.314   8.004
 1251POPC   C4B20542   3.866   4.508   7.642
 1252POPC   NC320543  22.681  20.219   9.490
 1252POPC   PO420544  22.702  19.569   9.639
 1252POPC   GL120545  22.827  19.792   9.210
 1252POPC   GL220546  23.201  19.855   9.099
 1252POPC   C1A20547  22.776  19.790   8.757
 1252POPC   D2A20548  22.557  19.844   8.360
 1252POPC   C3A20549  22.819  19.722   8.065
 1252POPC   C4A20550  22.875  19.719   7.657
 1252POPC   C1B20551  23.200  20.083   8.716
 1252POPC   C2B20552  23.123  20.068   8.291
 1252POPC   C3B20553  23.057  20.163   7.878
 1252POPC   C4B20554  23.098  20.139   7.413
 1253POPC   NC320555  26.447  20.433   9.498
 1253POPC   PO420556  27.144  20.403   9.481
 1253POPC   GL120557  26.859  20.518   9.139
 1253POPC   GL220558  26.745  20.856   9.149
 1253POPC   C1A20559  26.809  20.550   8.682
 1253POPC   D2A20560  26.606  20.463   8.268
 1253POPC   C3A20561  26.941  20.482   7.925
 1253POPC   C4A20562  27.193  20.729   7.658
 1253POPC   C1B20563  26.652  21.067   8.737
 1253POPC   C2B20564  26.753  20.957   8.295
 1253POPC   C3B20565  26.576  20.836   7.897
 1253POPC   C4B20566  26.738  20.870   7.485
 1254POPC   NC320567   3.309  11.126   9.377
 1254POPC   PO420568   3.748  11.561   9.568
 1254POPC   GL120569   3.697  11.390   9.172
 1254POPC   GL220570   3.367  11.544   9.064
 1254POPC   C1A20571   3.815  11.277   8.757
 1254POPC   D2A20572   3.668  11.521   8.397
 1254POPC   C3A20573   3.599  11.288   8.027
 1254POPC   C4A20574   3.777  11.131   7.651
 1254POPC   C1B20575   3.320  11.196   8.739
 1254POPC   C2B20576   3.224  11.088   8.304
 1254POPC   C3B20577   3.301  10.872   7.922
 1254POPC   C4B20578   3.108  10.548   7.682
 1255POPC   NC320579   7.508  41.308   9.371
 1255POPC   PO420580   7.335  41.792   9.831
 1255POPC   GL120581   7.556  41.812   9.265
 1255POPC   GL220582   7.436  41.546   8.963
 1255POPC   C1A20583   7.509  41.919   8.699
 1255POPC   D2A20584   7.472  41.622   8.384
 1255POPC   C3A20585   7.516  41.762   7.959
 1255POPC   C4A20586   7.606  41.722   7.530
 1255POPC   C1B20587   7.533  41.222   8.724
 1255POPC   C2B20588   7.291  41.114   8.395
 1255POPC   C3B20589   7.401  41.273   8.005
 1255POPC   C4B20590   7.185  41.471   7.701
 1256POPC   NC320591  17.948   1.748   9.337
 1256POPC   PO420592  18.211   2.316   9.632
 1256POPC   GL120593  18.210   2.179   9.211
 1256POPC   GL220594  18.491   2.348   9.075
 1256POPC   C1A20595  18.264   2.019   8.790
 1256POPC   D2A20596  18.294   2.180   8.408
 1256POPC   C3A20597  18.259   1.879   8.111
 1256POPC   C4A20598  18.009   1.693   7.800
 1256POPC   C1B20599  18.739   2.311   8.681
 1256POPC   C2B20600  18.768   2.271   8.201
 1256POPC   C3B20601  18.609   2.059   7.796
 1256POPC   C4B20602  18.252   2.074   7.524
 1257POPC   NC320603  26.255  11.074   9.593
 1257POPC   PO420604  25.887  11.627   9.533
 1257POPC   GL120605  25.992  11.382   9.216
 1257POPC   GL220606  26.326  11.412   9.230
 1257POPC   C1A20607  25.880  11.186   8.814
 1257POPC   D2A20608  26.027  11.040   8.450
 1257POPC   C3A20609  25.810  11.250   8.163
 1257POPC   C4A20610  25.817  11.261   7.744
 1257POPC   C1B20611  26.329  11.430   8.823
 1257POPC   C2B20612  26.134  11.586   8.464
 1257POPC   C3B20613  26.204  11.531   8.027
 1257POPC   C4B20614  26.232  11.579   7.612
 1258POPC   NC320615  34.165   4.042   9.410
 1258POPC   PO420616  34.685   4.437   9.684
 1258POPC   GL120617  34.530   4.417   9.245
 1258POPC   GL220618  34.579   4.081   9.125
 1258POPC   C1A20619  34.491   4.437   8.771
 1258POPC   D2A20620  34.268   4.461   8.413
 1258POPC   C3A20621  34.529   4.481   8.088
 1258POPC   C4A20622  34.525   4.305   7.712
 1258POPC   C1B20623  34.545   3.890   8.750
 1258POPC   C2B20624  34.552   3.980   8.384
 1258POPC   C3B20625  34.792   3.992   8.050
 1258POPC   C4B20626  34.897   3.992   7.633
 1259POPC   NC320627  25.550  29.231   9.573
 1259POPC   PO420628  26.198  28.921   9.672
 1259POPC   GL120629  26.076  29.215   9.345
 1259POPC   GL220630  26.384  29.308   9.150
 1259POPC   C1A20631  25.852  29.243   8.938
 1259POPC   D2A20632  25.837  29.318   8.470
 1259POPC   C3A20633  25.895  29.004   8.139
 1259POPC   C4A20634  25.722  28.845   7.774
 1259POPC   C1B20635  26.359  29.088   8.780
 1259POPC   C2B20636  26.349  28.997   8.357
 1259POPC   C3B20637  26.333  29.247   7.960
 1259POPC   C4B20638  26.012  29.588   7.887
 1260POPC   NC320639  30.829  15.804   9.584
 1260POPC   PO420640  30.392  16.152   9.539
 1260POPC   GL120641  30.653  16.067   9.141
 1260POPC   GL220642  30.865  15.771   9.065
 1260POPC   C1A20643  30.684  16.087   8.668
 1260POPC   D2A20644  30.452  16.085   8.263
 1260POPC   C3A20645  30.648  16.264   7.898
 1260POPC   C4A20646  30.883  16.150   7.521
 1260POPC   C1B20647  30.661  15.573   8.700
 1260POPC   C2B20648  30.676  15.598   8.249
 1260POPC   C3B20649  30.729  15.756   7.826
 1260POPC   C4B20650  30.727  15.637   7.385
 1261POPC   NC320651  41.350  42.339   9.227
 1261POPC   PO420652  41.805  42.783   9.442
 1261POPC   GL120653  41.946  42.466   9.141
 1261POPC   GL220654  41.782  42.165   9.010
 1261POPC   C1A20655  41.926  42.549   8.681
 1261POPC   D2A20656  41.829  42.891   8.394
 1261POPC   C3A20657  41.684  42.793   7.998
 1261POPC   C4A20658  41.789  42.534   7.680
 1261POPC   C1B20659  41.529  42.241   8.623
 1261POPC   C2B20660  41.521  42.364   8.212
 1261POPC   C3B20661  41.560  42.104   7.844
 1261POPC   C4B20662  41.569  42.183   7.362
 1262POPC   NC320663   0.842   3.091   9.507
 1262POPC   PO420664   1.455   2.867   9.633
 1262POPC   GL120665   1.298   2.760   9.214
 1262POPC   GL220666   0.972   2.821   9.082
 1262POPC   C1A20667   1.359   2.706   8.768
 1262POPC   D2A20668   1.121   2.698   8.393
 1262POPC   C3A20669   1.324   2.553   8.002
 1262POPC   C4A20670   1.610   2.585   7.603
 1262POPC   C1B20671   0.841   3.118   8.756
 1262POPC   C2B20672   0.827   3.115   8.299
 1262POPC   C3B20673   1.008   2.962   7.941
 1262POPC   C4B20674   1.299   2.989   7.625
 1263POPC   NC320675  17.200   0.327   9.595
 1263POPC   PO420676  17.587   0.772   9.673
 1263POPC   GL120677  17.381   0.706   9.270
 1263POPC   GL220678  17.430   0.358   9.105
 1263POPC   C1A20679  17.234   0.758   8.852
 1263POPC   D2A20680  17.423   0.494   8.524
 1263POPC   C3A20681  17.401   0.722   8.162
 1263POPC   C4A20682  17.226   0.705   7.787
 1263POPC   C1B20683  17.351   0.024   8.757
 1263POPC   C2B20684  17.374   0.026   8.277
 1263POPC   C3B20685  17.505   0.248   7.919
 1263POPC   C4B20686  17.903   0.159   7.703
 1264POPC   NC320687  34.755  43.012   9.677
 1264POPC   PO420688  34.241  43.332   9.421
 1264POPC   GL120689  34.385  43.176   9.076
 1264POPC   GL220690  34.520  42.876   9.244
 1264POPC   C1A20691  34.215  43.101   8.667
 1264POPC   D2A20692  34.255  43.017   8.217
 1264POPC   C3A20693  34.416  43.286   7.933
 1264POPC   C4A20694  34.531  43.031   7.622
 1264POPC   C1B20695  34.700  42.835   8.839
 1264POPC   C2B20696  34.694  43.081   8.457
 1264POPC   C3B20697  34.813  42.994   8.039
 1264POPC   C4B20698  35.006  43.280   7.728
 1265POPC   NC320699  16.575   6.292   9.505
 1265POPC   PO420700  16.857   6.886   9.478
 1265POPC   GL120701  16.565   6.742   9.126
 1265POPC   GL220702  16.621   6.437   9.038
 1265POPC   C1A20703  16.441   6.727   8.667
 1265POPC   D2A20704  16.478   6.919   8.228
 1265POPC   C3A20705  16.665   6.689   7.864
 1265POPC   C4A20706  16.609   6.771   7.401
 1265POPC   C1B20707  16.875   6.386   8.720
 1265POPC   C2B20708  16.793   6.474   8.315
 1265POPC   C3B20709  16.892   6.230   7.956
 1265POPC   C4B20710  16.983   6.383   7.571
 1266POPC   NC320711  16.259  27.315   9.364
 1266POPC   PO420712  16.807  27.767   9.463
 1266POPC   GL120713  16.784  27.763   9.060
 1266POPC   GL220714  17.121  27.797   9.003
 1266POPC   C1A20715  16.740  27.642   8.622
 1266POPC   D2A20716  16.547  27.293   8.380
 1266POPC   C3A20717  16.687  27.356   7.974
 1266POPC   C4A20718  16.686  27.706   7.718
 1266POPC   C1B20719  17.224  27.881   8.554
 1266POPC   C2B20720  16.986  27.876   8.156
 1266POPC   C3B20721  17.043  28.049   7.726
 1266POPC   C4B20722  16.977  27.862   7.307
 1267POPC   NC320723  11.945   4.139   9.641
 1267POPC   PO420724  12.369   4.707   9.549
 1267POPC   GL120725  12.118   4.438   9.221
 1267POPC   GL220726  11.891   4.104   9.149
 1267POPC   C1A20727  12.190   4.321   8.777
 1267POPC   D2A20728  11.987   4.395   8.380
 1267POPC   C3A20729  12.255   4.632   8.089
 1267POPC   C4A20730  12.494   4.554   7.723
 1267POPC   C1B20731  11.919   3.896   8.711
 1267POPC   C2B20732  12.223   3.949   8.334
 1267POPC   C3B20733  12.134   4.162   7.923
 1267POPC   C4B20734  11.803   4.119   7.554
 1268POPC   NC320735   6.997  30.403   9.745
 1268POPC   PO420736   6.482  30.036   9.404
 1268POPC   GL120737   6.495  29.922   9.038
 1268POPC   GL220738   6.419  29.584   9.079
 1268POPC   C1A20739   6.656  30.104   8.632
 1268POPC   D2A20740   6.928  30.311   8.305
 1268POPC   C3A20741   6.851  30.115   7.886
 1268POPC   C4A20742   6.480  30.002   7.591
 1268POPC   C1B20743   6.345  29.676   8.628
 1268POPC   C2B20744   6.471  29.764   8.175
 1268POPC   C3B20745   6.266  29.567   7.791
 1268POPC   C4B20746   6.387  29.457   7.354
 1269POPC   NC320747   9.059  38.421   9.446
 1269POPC   PO420748   8.573  38.734   9.365
 1269POPC   GL120749   8.819  38.528   9.007
 1269POPC   GL220750   9.217  38.399   8.980
 1269POPC   C1A20751   8.883  38.370   8.604
 1269POPC   D2A20752   9.291  38.359   8.402
 1269POPC   C3A20753   9.166  38.315   7.980
 1269POPC   C4A20754   8.740  38.326   7.763
 1269POPC   C1B20755   9.195  38.790   8.735
 1269POPC   C2B20756   9.112  39.035   8.393
 1269POPC   C3B20757   8.891  38.861   8.078
 1269POPC   C4B20758   9.042  38.731   7.728
 1270POPC   NC320759  39.338  34.771   9.400
 1270POPC   PO420760  39.132  34.134   9.553
 1270POPC   GL120761  39.228  34.297   9.168
 1270POPC   GL220762  39.556  34.210   9.203
 1270POPC   C1A20763  39.134  34.468   8.727
 1270POPC   D2A20764  38.959  34.386   8.281
 1270POPC   C3A20765  39.054  34.735   7.937
 1270POPC   C4A20766  39.017  34.783   7.462
 1270POPC   C1B20767  39.574  34.169   8.781
 1270POPC   C2B20768  39.482  34.253   8.376
 1270POPC   C3B20769  39.564  34.295   7.958
 1270POPC   C4B20770  39.545  34.688   7.735
 1271POPC   NC320771  19.122  18.017   9.583
 1271POPC   PO420772  18.740  18.413   9.248
 1271POPC   GL120773  18.946  18.118   9.095
 1271POPC   GL220774  19.272  18.310   9.179
 1271POPC   C1A20775  18.854  18.099   8.651
 1271POPC   D2A20776  19.115  18.151   8.319
 1271POPC   C3A20777  18.966  17.933   7.997
 1271POPC   C4A20778  19.048  18.255   7.766
 1271POPC   C1B20779  19.172  18.459   8.772
 1271POPC   C2B20780  18.886  18.604   8.427
 1271POPC   C3B20781  18.960  18.718   7.983
 1271POPC   C4B20782  19.299  18.696   7.644
 1272POPC   NC320783  13.928   7.359   9.355
 1272POPC   PO420784  14.577   7.372   9.507
 1272POPC   GL120785  14.374   7.658   9.223
 1272POPC   GL220786  14.342   7.393   9.037
 1272POPC   C1A20787  14.462   7.821   8.801
 1272POPC   D2A20788  14.312   7.663   8.440
 1272POPC   C3A20789  14.456   7.867   8.069
 1272POPC   C4A20790  14.366   7.557   7.754
 1272POPC   C1B20791  14.277   7.206   8.686
 1272POPC   C2B20792  14.115   7.024   8.361
 1272POPC   C3B20793  14.017   7.147   7.986
 1272POPC   C4B20794  14.282   7.073   7.696
 1273POPC   NC320795  21.740  27.472   9.415
 1273POPC   PO420796  21.062  27.612   9.568
 1273POPC   GL120797  21.289  27.644   9.186
 1273POPC   GL220798  21.314  27.285   9.126
 1273POPC   C1A20799  21.226  27.775   8.764
 1273POPC   D2A20800  21.274  27.676   8.344
 1273POPC   C3A20801  21.147  27.952   8.054
 1273POPC   C4A20802  21.440  27.994   7.751
 1273POPC   C1B20803  21.587  27.413   8.776
 1273POPC   C2B20804  21.779  27.492   8.374
 1273POPC   C3B20805  21.617  27.549   7.956
 1273POPC   C4B20806  21.284  27.447   7.676
 1274POPC   NC320807  41.016  38.853   9.528
 1274POPC   PO420808  40.652  39.506   9.525
 1274POPC   GL120809  40.719  39.185   9.268
 1274POPC   GL220810  41.066  39.280   9.206
 1274POPC   C1A20811  40.779  39.045   8.863
 1274POPC   D2A20812  40.660  39.265   8.522
 1274POPC   C3A20813  40.432  39.040   8.255
 1274POPC   C4A20814  40.392  38.982   7.801
 1274POPC   C1B20815  41.052  39.490   8.783
 1274POPC   C2B20816  41.136  39.436   8.318
 1274POPC   C3B20817  41.136  39.335   7.848
 1274POPC   C4B20818  41.218  39.421   7.382
 1275POPC   NC320819  20.261  31.449   9.512
 1275POPC   PO420820  19.677  31.775   9.551
 1275POPC   GL120821  19.838  31.540   9.198
 1275POPC   GL220822  20.149  31.763   9.135
 1275POPC   C1A20823  19.665  31.335   8.774
 1275POPC   D2A20824  19.730  31.210   8.337
 1275POPC   C3A20825  19.885  31.398   7.936
 1275POPC   C4A20826  19.518  31.537   7.674
 1275POPC   C1B20827  20.144  31.444   8.817
 1275POPC   C2B20828  20.079  31.611   8.402
 1275POPC   C3B20829  20.206  31.856   8.082
 1275POPC   C4B20830  20.273  31.759   7.708
 1276POPC   NC320831  35.584  43.483   9.376
 1276POPC   PO420832  35.849  42.930   9.643
 1276POPC   GL120833  36.109  43.054   9.223
 1276POPC   GL220834  36.291  42.762   9.040
 1276POPC   C1A20835  36.195  43.159   8.738
 1276POPC   D2A20836  36.355  43.141   8.290
 1276POPC   C3A20837  36.093  43.282   7.884
 1276POPC   C4A20838  35.878  43.242   7.470
 1276POPC   C1B20839  35.824  42.804   8.885
 1276POPC   C2B20840  35.604  42.880   8.484
 1276POPC   C3B20841  35.875  42.887   8.108
 1276POPC   C4B20842  35.945  42.769   7.661
 1277POPC   NC320843  12.765  44.441   9.679
 1277POPC   PO420844  13.074   0.035   9.478
 1277POPC   GL120845  12.981  44.696   9.175
 1277POPC   GL220846  12.860  44.355   9.187
 1277POPC   C1A20847  12.717  44.631   8.790
 1277POPC   D2A20848  12.485  44.589   8.407
 1277POPC   C3A20849  12.723  44.590   8.043
 1277POPC   C4A20850  12.729  44.764   7.655
 1277POPC   C1B20851  12.864  44.122   8.813
 1277POPC   C2B20852  12.912  44.256   8.410
 1277POPC   C3B20853  12.735  44.086   8.048
 1277POPC   C4B20854  12.809  44.255   7.646
 1278POPC   NC320855   3.566  13.501   9.538
 1278POPC   PO420856   3.933  13.073   9.152
 1278POPC   GL120857   3.615  13.421   9.041
 1278POPC   GL220858   3.621  13.797   9.135
 1278POPC   C1A20859   3.423  13.584   8.681
 1278POPC   D2A20860   3.523  13.409   8.281
 1278POPC   C3A20861   3.602  13.623   7.902
 1278POPC   C4A20862   3.859  13.531   7.548
 1278POPC   C1B20863   3.677  14.033   8.780
 1278POPC   C2B20864   3.632  13.921   8.371
 1278POPC   C3B20865   3.815  14.081   8.065
 1278POPC   C4B20866   3.857  14.019   7.668
 1279POPC   NC320867  39.100  10.385   9.477
 1279POPC   PO420868  39.531  10.822   9.442
 1279POPC   GL120869  39.383  10.884   9.045
 1279POPC   GL220870  39.299  10.525   9.034
 1279POPC   C1A20871  39.276  10.775   8.618
 1279POPC   D2A20872  39.327  10.621   8.206
 1279POPC   C3A20873  39.060  10.775   7.869
 1279POPC   C4A20874  38.909  10.536   7.509
 1279POPC   C1B20875  38.893  10.440   8.789
 1279POPC   C2B20876  38.624  10.267   8.415
 1279POPC   C3B20877  38.835  10.295   7.980
 1279POPC   C4B20878  39.289  10.313   7.774
 1280POPC   NC320879  37.475  29.374   9.625
 1280POPC   PO420880  37.762  28.683   9.434
 1280POPC   GL120881  37.652  28.984   9.098
 1280POPC   GL220882  37.659  29.316   9.148
 1280POPC   C1A20883  37.535  28.969   8.684
 1280POPC   D2A20884  37.531  29.175   8.296
 1280POPC   C3A20885  37.796  29.048   7.965
 1280POPC   C4A20886  37.756  28.793   7.591
 1280POPC   C1B20887  37.753  29.439   8.738
 1280POPC   C2B20888  37.897  29.548   8.315
 1280POPC   C3B20889  37.753  29.567   7.897
 1280POPC   C4B20890  37.666  29.314   7.514
 1281POPC   NC320891  17.991  38.937   9.804
 1281POPC   PO420892  18.549  39.343   9.654
 1281POPC   GL120893  18.441  39.508   9.187
 1281POPC   GL220894  18.083  39.419   9.141
 1281POPC   C1A20895  18.317  39.513   8.724
 1281POPC   D2A20896  18.340  39.278   8.338
 1281POPC   C3A20897  18.240  39.534   8.002
 1281POPC   C4A20898  18.118  39.654   7.618
 1281POPC   C1B20899  18.094  39.055   8.761
 1281POPC   C2B20900  18.066  38.823   8.355
 1281POPC   C3B20901  18.099  39.031   7.954
 1281POPC   C4B20902  18.481  39.138   7.750
 1282POPC   NC320903  35.194  26.958   9.609
 1282POPC   PO420904  34.568  27.241   9.659
 1282POPC   GL120905  34.675  27.024   9.247
 1282POPC   GL220906  34.983  27.201   9.164
 1282POPC   C1A20907  34.705  26.721   8.853
 1282POPC   D2A20908  34.877  26.626   8.407
 1282POPC   C3A20909  34.627  26.633   8.031
 1282POPC   C4A20910  34.442  26.499   7.622
 1282POPC   C1B20911  34.761  27.214   8.764
 1282POPC   C2B20912  34.547  27.025   8.414
 1282POPC   C3B20913  34.384  27.058   8.017
 1282POPC   C4B20914  34.579  27.001   7.605
 1283POPC   NC320915  10.959  26.419   9.430
 1283POPC   PO420916  10.451  26.794   9.682
 1283POPC   GL120917  10.331  26.889   9.226
 1283POPC   GL220918  10.396  27.214   9.101
 1283POPC   C1A20919  10.368  26.783   8.781
 1283POPC   D2A20920  10.146  26.566   8.465
 1283POPC   C3A20921  10.264  26.658   8.073
 1283POPC   C4A20922  10.567  26.734   7.786
 1283POPC   C1B20923  10.682  27.197   8.750
 1283POPC   C2B20924  10.859  26.884   8.495
 1283POPC   C3B20925  10.985  26.877   8.080
 1283POPC   C4B20926  10.824  27.185   7.816
 1284POPC   NC320927  22.233  13.297   9.859
 1284POPC   PO420928  22.088  13.918   9.602
 1284POPC   GL120929  22.155  13.555   9.295
 1284POPC   GL220930  22.386  13.748   9.120
 1284POPC   C1A20931  22.125  13.419   8.829
 1284POPC   D2A20932  22.309  13.359   8.406
 1284POPC   C3A20933  22.055  13.409   8.022
 1284POPC   C4A20934  22.230  13.290   7.628
 1284POPC   C1B20935  22.040  13.924   8.870
 1284POPC   C2B20936  21.890  13.760   8.476
 1284POPC   C3B20937  21.769  13.850   8.056
 1284POPC   C4B20938  22.039  13.834   7.710
 1285POPC   NC320939  41.395  24.576   9.760
 1285POPC   PO420940  40.793  24.431   9.567
 1285POPC   GL120941  40.735  24.587   9.167
 1285POPC   GL220942  41.053  24.448   9.078
 1285POPC   C1A20943  40.518  24.412   8.795
 1285POPC   D2A20944  40.447  24.180   8.401
 1285POPC   C3A20945  40.550  24.455   8.109
 1285POPC   C4A20946  40.652  24.617   7.717
 1285POPC   C1B20947  40.946  24.702   8.709
 1285POPC   C2B20948  40.961  24.728   8.257
 1285POPC   C3B20949  41.132  24.514   7.893
 1285POPC   C4B20950  41.058  24.520   7.442
 1286POPC   NC320951  40.842  31.890   9.628
 1286POPC   PO420952  41.132  32.500   9.528
 1286POPC   GL120953  40.876  32.286   9.246
 1286POPC   GL220954  41.030  31.984   9.171
 1286POPC   C1A20955  40.709  32.276   8.814
 1286POPC   D2A20956  40.939  32.257   8.422
 1286POPC   C3A20957  40.820  32.431   8.026
 1286POPC   C4A20958  41.021  32.457   7.619
 1286POPC   C1B20959  41.151  31.901   8.765
 1286POPC   C2B20960  40.972  31.734   8.410
 1286POPC   C3B20961  40.939  31.910   8.032
 1286POPC   C4B20962  40.771  32.020   7.647
 1287POPC   NC320963   0.159  39.591   9.408
 1287POPC   PO420964  44.597  39.946   9.487
 1287POPC   GL120965  44.600  39.880   9.099
 1287POPC   GL220966  44.913  39.843   9.028
 1287POPC   C1A20967  44.510  40.065   8.725
 1287POPC   D2A20968  44.537  39.863   8.341
 1287POPC   C3A20969  44.356  40.177   8.083
 1287POPC   C4A20970  44.363  40.006   7.721
 1287POPC   C1B20971   0.005  40.029   8.633
 1287POPC   C2B20972  44.826  40.269   8.287
 1287POPC   C3B20973  44.823  40.207   7.844
 1287POPC   C4B20974  44.987  40.004   7.476
 1288POPC   NC320975  14.759   7.855   9.493
 1288POPC   PO420976  14.108   7.990   9.532
 1288POPC   GL120977  14.206   8.153   9.134
 1288POPC   GL220978  14.559   8.180   9.135
 1288POPC   C1A20979  14.225   8.307   8.711
 1288POPC   D2A20980  14.017   8.068   8.394
 1288POPC   C3A20981  13.951   8.205   7.992
 1288POPC   C4A20982  14.147   7.995   7.674
 1288POPC   C1B20983  14.753   8.385   8.760
 1288POPC   C2B20984  14.953   8.434   8.361
 1288POPC   C3B20985  14.649   8.463   8.027
 1288POPC   C4B20986  14.345   8.454   7.735
 1289POPC   NC320987  28.973  23.707   9.451
 1289POPC   PO420988  29.557  23.322   9.342
 1289POPC   GL120989  29.371  23.548   8.936
 1289POPC   GL220990  29.116  23.821   8.975
 1289POPC   C1A20991  29.121  23.588   8.537
 1289POPC   D2A20992  29.143  23.866   8.199
 1289POPC   C3A20993  29.130  23.692   7.805
 1289POPC   C4A20994  29.348  23.570   7.442
 1289POPC   C1B20995  28.845  24.010   8.618
 1289POPC   C2B20996  28.775  24.207   8.219
 1289POPC   C3B20997  28.763  24.068   7.785
 1289POPC   C4B20998  28.569  24.209   7.367
 1290POPC   NC320999   7.875  28.146   9.485
 1290POPC   PO421000   8.534  28.169   9.530
 1290POPC   GL121001   8.380  28.239   9.109
 1290POPC   GL221002   8.078  28.414   9.106
 1290POPC   C1A21003   8.404  28.443   8.697
 1290POPC   D2A21004   8.199  28.425   8.300
 1290POPC   C3A21005   8.360  28.243   7.921
 1290POPC   C4A21006   8.210  28.239   7.470
 1290POPC   C1B21007   7.893  28.380   8.714
 1290POPC   C2B21008   7.711  28.258   8.349
 1290POPC   C3B21009   7.871  28.292   7.922
 1290POPC   C4B21010   7.742  28.410   7.541
 1291POPC   NC321011   7.844   6.839   9.347
 1291POPC   PO421012   8.165   6.320   9.708
 1291POPC   GL121013   8.201   6.505   9.205
 1291POPC   GL221014   7.884   6.541   8.950
 1291POPC   C1A21015   8.334   6.686   8.784
 1291POPC   D2A21016   8.456   6.464   8.387
 1291POPC   C3A21017   8.368   6.650   7.953
 1291POPC   C4A21018   8.388   6.474   7.522
 1291POPC   C1B21019   7.893   6.955   8.725
 1291POPC   C2B21020   7.809   6.941   8.319
 1291POPC   C3B21021   7.908   7.079   7.924
 1291POPC   C4B21022   7.588   7.113   7.600
 1292POPC   NC321023  42.276  26.518   9.542
 1292POPC   PO421024  42.685  27.096   9.512
 1292POPC   GL121025  42.416  26.753   9.110
 1292POPC   GL221026  42.101  26.928   8.933
 1292POPC   C1A21027  42.116  26.454   8.816
 1292POPC   D2A21028  41.883  26.343   8.410
 1292POPC   C3A21029  42.038  26.571   8.022
 1292POPC   C4A21030  42.294  26.587   7.650
 1292POPC   C1B21031  42.386  27.178   8.673
 1292POPC   C2B21032  42.308  27.251   8.287
 1292POPC   C3B21033  42.454  27.008   7.935
 1292POPC   C4B21034  42.605  27.306   7.684
 1293POPC   NC321035  40.484  42.760   9.469
 1293POPC   PO421036  41.212  42.686   9.494
 1293POPC   GL121037  40.839  42.506   9.205
 1293POPC   GL221038  40.735  42.188   9.141
 1293POPC   C1A21039  40.524  42.489   8.818
 1293POPC   D2A21040  40.556  42.108   8.514
 1293POPC   C3A21041  40.525  42.185   8.077
 1293POPC   C4A21042  40.660  42.326   7.668
 1293POPC   C1B21043  40.970  42.244   8.756
 1293POPC   C2B21044  41.076  42.136   8.362
 1293POPC   C3B21045  41.065  42.317   7.978
 1293POPC   C4B21046  41.117  42.123   7.584
 1294POPC   NC321047  18.610  37.256   9.463
 1294POPC   PO421048  18.022  37.050   9.366
 1294POPC   GL121049  18.326  36.987   9.143
 1294POPC   GL221050  18.073  36.898   8.892
 1294POPC   C1A21051  18.536  37.053   8.783
 1294POPC   D2A21052  18.342  36.843   8.436
 1294POPC   C3A21053  18.494  36.914   8.030
 1294POPC   C4A21054  18.287  36.970   7.654
 1294POPC   C1B21055  17.991  36.551   8.689
 1294POPC   C2B21056  17.945  36.368   8.316
 1294POPC   C3B21057  18.024  36.631   7.963
 1294POPC   C4B21058  17.880  36.628   7.554
 1295POPC   NC321059  35.510   2.200   9.528
 1295POPC   PO421060  35.203   1.527   9.509
 1295POPC   GL121061  35.484   1.817   9.218
 1295POPC   GL221062  35.245   2.037   9.049
 1295POPC   C1A21063  35.656   1.753   8.811
 1295POPC   D2A21064  35.349   1.883   8.503
 1295POPC   C3A21065  35.170   1.768   8.117
 1295POPC   C4A21066  35.233   1.961   7.723
 1295POPC   C1B21067  35.089   2.275   8.667
 1295POPC   C2B21068  35.225   2.354   8.272
 1295POPC   C3B21069  35.541   2.144   8.056
 1295POPC   C4B21070  35.715   2.222   7.642
 1296POPC   NC321071  17.091   8.993   9.432
 1296POPC   PO421072  16.449   9.236   9.352
 1296POPC   GL121073  16.705   8.939   9.102
 1296POPC   GL221074  17.063   9.048   8.942
 1296POPC   C1A21075  16.793   8.686   8.756
 1296POPC   D2A21076  16.877   8.916   8.413
 1296POPC   C3A21077  16.789   8.698   8.071
 1296POPC   C4A21078  16.834   8.797   7.659
 1296POPC   C1B21079  17.018   9.372   8.652
 1296POPC   C2B21080  16.806   9.433   8.278
 1296POPC   C3B21081  16.982   9.178   7.954
 1296POPC   C4B21082  17.029   9.258   7.495
 1297POPC   NC321083  23.290  39.418   9.611
 1297POPC   PO421084  22.739  39.077   9.759
 1297POPC   GL121085  22.893  39.030   9.290
 1297POPC   GL221086  22.961  39.354   9.173
 1297POPC   C1A21087  23.069  38.995   8.819
 1297POPC   D2A21088  23.015  38.837   8.384
 1297POPC   C3A21089  23.091  39.012   7.990
 1297POPC   C4A21090  22.756  38.992   7.723
 1297POPC   C1B21091  23.049  39.523   8.763
 1297POPC   C2B21092  23.155  39.435   8.321
 1297POPC   C3B21093  23.093  39.530   7.851
 1297POPC   C4B21094  22.870  39.398   7.462
 1298POPC   NC321095  34.029   1.538   9.502
 1298POPC   PO421096  33.528   2.169   9.518
 1298POPC   GL121097  33.760   2.035   9.188
 1298POPC   GL221098  33.638   1.697   9.148
 1298POPC   C1A21099  33.753   2.234   8.778
 1298POPC   D2A21100  33.734   2.045   8.364
 1298POPC   C3A21101  33.549   2.203   8.008
 1298POPC   C4A21102  33.854   2.210   7.673
 1298POPC   C1B21103  33.832   1.721   8.742
 1298POPC   C2B21104  33.740   1.526   8.316
 1298POPC   C3B21105  33.815   1.761   7.926
 1298POPC   C4B21106  33.716   1.762   7.472
 1299POPC   NC321107  42.327  24.157   9.877
 1299POPC   PO421108  42.080  23.800   9.412
 1299POPC   GL121109  42.348  23.912   9.056
 1299POPC   GL221110  42.560  23.667   8.917
 1299POPC   C1A21111  42.117  23.832   8.665
 1299POPC   D2A21112  42.067  23.626   8.278
 1299POPC   C3A21113  42.347  23.857   8.030
 1299POPC   C4A21114  42.659  23.913   7.761
 1299POPC   C1B21115  42.544  23.449   8.550
 1299POPC   C2B21116  42.688  23.473   8.151
 1299POPC   C3B21117  42.566  23.400   7.746
 1299POPC   C4B21118  42.681  23.170   7.371
 1300POPC   NC321119  29.275  18.520   9.718
 1300POPC   PO421120  29.184  19.100   9.400
 1300POPC   GL121121  29.213  19.122   9.030
 1300POPC   GL221122  29.115  19.476   9.022
 1300POPC   C1A21123  28.876  19.003   8.801
 1300POPC   D2A21124  28.645  19.095   8.486
 1300POPC   C3A21125  28.959  19.073   8.178
 1300POPC   C4A21126  28.902  18.967   7.748
 1300POPC   C1B21127  29.124  19.395   8.595
 1300POPC   C2B21128  29.357  19.438   8.243
 1300POPC   C3B21129  29.153  19.465   7.863
 1300POPC   C4B21130  29.244  19.223   7.449
 1301POPC   NC321131  25.011  12.995   9.563
 1301POPC   PO421132  24.998  12.329   9.331
 1301POPC   GL121133  25.129  12.734   9.113
 1301POPC   GL221134  25.213  13.108   9.120
 1301POPC   C1A21135  25.026  12.900   8.706
 1301POPC   D2A21136  25.239  12.814   8.342
 1301POPC   C3A21137  25.102  12.924   7.936
 1301POPC   C4A21138  25.246  12.956   7.509
 1301POPC   C1B21139  25.511  12.984   8.786
 1301POPC   C2B21140  25.637  13.173   8.428
 1301POPC   C3B21141  25.624  12.975   8.034
 1301POPC   C4B21142  25.713  13.091   7.632
 1302POPC   NC321143   7.241   3.168   9.767
 1302POPC   PO421144   7.840   3.481   9.503
 1302POPC   GL121145   7.654   3.650   9.132
 1302POPC   GL221146   7.369   3.425   9.148
 1302POPC   C1A21147   7.334   3.798   8.807
 1302POPC   D2A21148   7.204   3.815   8.382
 1302POPC   C3A21149   7.537   3.637   8.159
 1302POPC   C4A21150   7.752   3.654   7.809
 1302POPC   C1B21151   7.538   3.329   8.700
 1302POPC   C2B21152   7.488   3.132   8.293
 1302POPC   C3B21153   7.144   3.347   8.072
 1302POPC   C4B21154   7.248   3.576   7.707
 1303POPC   NC321155  39.592  26.795   9.655
 1303POPC   PO421156  40.269  26.811   9.434
 1303POPC   GL121157  40.060  26.844   9.043
 1303POPC   GL221158  39.734  27.010   8.998
 1303POPC   C1A21159  40.082  26.757   8.606
 1303POPC   D2A21160  39.897  27.049   8.310
 1303POPC   C3A21161  39.973  27.002   7.883
 1303POPC   C4A21162  40.210  26.668   7.723
 1303POPC   C1B21163  39.599  26.670   8.735
 1303POPC   C2B21164  39.586  26.501   8.351
 1303POPC   C3B21165  39.804  26.507   7.984
 1303POPC   C4B21166  39.654  26.659   7.595
 1304POPC   NC321167  11.915   1.851   9.572
 1304POPC   PO421168  12.055   2.449   9.407
 1304POPC   GL121169  11.949   2.132   9.103
 1304POPC   GL221170  12.229   1.907   9.140
 1304POPC   C1A21171  11.777   2.033   8.680
 1304POPC   D2A21172  11.931   1.756   8.333
 1304POPC   C3A21173  11.771   1.700   7.914
 1304POPC   C4A21174  11.899   1.874   7.536
 1304POPC   C1B21175  12.285   1.999   8.709
 1304POPC   C2B21176  12.127   2.223   8.356
 1304POPC   C3B21177  12.097   2.106   7.939
 1304POPC   C4B21178  12.403   1.851   7.714
 1305POPC   NC321179   6.306  18.687   9.563
 1305POPC   PO421180   6.652  19.238   9.574
 1305POPC   GL121181   6.508  19.224   9.173
 1305POPC   GL221182   6.503  18.862   9.100
 1305POPC   C1A21183   6.664  19.201   8.744
 1305POPC   D2A21184   6.498  18.983   8.403
 1305POPC   C3A21185   6.630  19.176   8.046
 1305POPC   C4A21186   6.785  19.194   7.634
 1305POPC   C1B21187   6.886  18.761   8.816
 1305POPC   C2B21188   7.009  18.933   8.396
 1305POPC   C3B21189   6.974  18.817   7.947
 1305POPC   C4B21190   6.852  18.706   7.518
 1306POPC   NC321191  40.381  28.081   9.529
 1306POPC   PO421192  40.953  28.428   9.472
 1306POPC   GL121193  40.761  28.230   9.147
 1306POPC   GL221194  40.495  28.424   9.174
 1306POPC   C1A21195  40.871  28.208   8.726
 1306POPC   D2A21196  41.157  28.216   8.384
 1306POPC   C3A21197  40.811  28.353   8.097
 1306POPC   C4A21198  40.681  28.456   7.662
 1306POPC   C1B21199  40.350  28.500   8.812
 1306POPC   C2B21200  40.435  28.766   8.469
 1306POPC   C3B21201  40.366  28.691   8.020
 1306POPC   C4B21202  40.251  28.726   7.561
 1307POPC   NC321203  40.793   8.694   9.544
 1307POPC   PO421204  41.168   8.310   9.372
 1307POPC   GL121205  40.769   8.315   9.164
 1307POPC   GL221206  40.777   7.971   9.051
 1307POPC   C1A21207  40.522   8.334   8.756
 1307POPC   D2A21208  40.598   8.106   8.348
 1307POPC   C3A21209  40.541   8.321   7.933
 1307POPC   C4A21210  40.293   8.331   7.520
 1307POPC   C1B21211  41.006   8.185   8.707
 1307POPC   C2B21212  41.119   8.047   8.295
 1307POPC   C3B21213  41.007   8.065   7.843
 1307POPC   C4B21214  41.044   7.972   7.375
 1308POPC   NC321215  39.754  37.716   9.437
 1308POPC   PO421216  40.380  38.019   9.388
 1308POPC   GL121217  40.125  37.798   9.073
 1308POPC   GL221218  40.183  37.474   8.993
 1308POPC   C1A21219  40.014  37.747   8.610
 1308POPC   D2A21220  40.065  37.436   8.300
 1308POPC   C3A21221  40.092  37.590   7.887
 1308POPC   C4A21222  40.404  37.837   7.725
 1308POPC   C1B21223  39.716  37.414   8.836
 1308POPC   C2B21224  39.547  37.525   8.392
 1308POPC   C3B21225  39.611  37.357   7.942
 1308POPC   C4B21226  39.875  37.275   7.543
 1309POPC   NC321227  42.080  41.929   9.405
 1309POPC   PO421228  42.354  41.324   9.458
 1309POPC   GL121229  42.437  41.635   9.143
 1309POPC   GL221230  42.155  41.609   9.000
 1309POPC   C1A21231  42.577  41.780   8.707
 1309POPC   D2A21232  42.624  41.676   8.247
 1309POPC   C3A21233  42.361  41.455   7.936
 1309POPC   C4A21234  42.432  41.762   7.644
 1309POPC   C1B21235  42.236  41.405   8.633
 1309POPC   C2B21236  42.124  41.674   8.321
 1309POPC   C3B21237  41.907  41.686   7.936
 1309POPC   C4B21238  42.006  41.508   7.539
 1310POPC   NC321239  15.566  16.553   9.636
 1310POPC   PO421240  15.067  17.030   9.475
 1310POPC   GL121241  15.275  16.749   9.211
 1310POPC   GL221242  15.014  16.635   9.027
 1310POPC   C1A21243  15.458  16.792   8.788
 1310POPC   D2A21244  15.510  16.523   8.409
 1310POPC   C3A21245  15.449  16.736   8.009
 1310POPC   C4A21246  15.629  16.598   7.579
 1310POPC   C1B21247  15.018  16.554   8.612
 1310POPC   C2B21248  14.959  16.811   8.292
 1310POPC   C3B21249  14.819  16.791   7.909
 1310POPC   C4B21250  15.037  16.953   7.592
 1311POPC   NC321251  42.818   3.030   9.488
 1311POPC   PO421252  42.188   2.700   9.534
 1311POPC   GL121253  42.229   2.658   9.128
 1311POPC   GL221254  42.571   2.716   9.175
 1311POPC   C1A21255  42.148   2.783   8.705
 1311POPC   D2A21256  42.360   2.896   8.343
 1311POPC   C3A21257  42.178   2.818   7.966
 1311POPC   C4A21258  42.427   2.889   7.632
 1311POPC   C1B21259  42.656   2.775   8.781
 1311POPC   C2B21260  42.614   2.490   8.490
 1311POPC   C3B21261  42.585   2.489   8.057
 1311POPC   C4B21262  42.625   2.241   7.713
 1312POPC   NC321263   4.932  19.911   9.580
 1312POPC   PO421264   5.414  20.348   9.499
 1312POPC   GL121265   5.174  20.058   9.136
 1312POPC   GL221266   4.907  19.763   9.105
 1312POPC   C1A21267   5.106  19.946   8.683
 1312POPC   D2A21268   5.285  20.118   8.317
 1312POPC   C3A21269   5.056  20.047   7.965
 1312POPC   C4A21270   5.204  20.146   7.563
 1312POPC   C1B21271   4.818  19.536   8.723
 1312POPC   C2B21272   4.964  19.630   8.284
 1312POPC   C3B21273   4.835  19.506   7.885
 1312POPC   C4B21274   4.837  19.806   7.544
 1313POPC   NC321275  22.277  30.479   9.823
 1313POPC   PO421276  21.954  29.941   9.553
 1313POPC   GL121277  22.049  29.920   9.131
 1313POPC   GL221278  22.354  30.069   9.169
 1313POPC   C1A21279  22.042  29.825   8.704
 1313POPC   D2A21280  21.837  29.878   8.298
 1313POPC   C3A21281  21.890  29.627   7.920
 1313POPC   C4A21282  22.244  29.619   7.606
 1313POPC   C1B21283  22.497  30.259   8.785
 1313POPC   C2B21284  22.455  29.989   8.461
 1313POPC   C3B21285  22.321  29.905   8.053
 1313POPC   C4B21286  22.518  30.042   7.689
 1314POPC   NC321287  11.267  28.468   9.531
 1314POPC   PO421288  11.771  28.022   9.635
 1314POPC   GL121289  11.521  28.131   9.208
 1314POPC   GL221290  11.197  28.082   9.143
 1314POPC   C1A21291  11.489  28.415   8.811
 1314POPC   D2A21292  11.373  28.369   8.365
 1314POPC   C3A21293  11.491  28.580   7.961
 1314POPC   C4A21294  11.290  28.779   7.604
 1314POPC   C1B21295  11.288  27.969   8.718
 1314POPC   C2B21296  11.116  27.912   8.338
 1314POPC   C3B21297  11.210  28.106   7.944
 1314POPC   C4B21298  10.955  27.982   7.600
 1315POPC   NC321299  11.184  24.170   9.420
 1315POPC   PO421300  11.715  24.645   9.353
 1315POPC   GL121301  11.371  24.571   9.127
 1315POPC   GL221302  11.111  24.730   9.294
 1315POPC   C1A21303  11.199  24.314   8.804
 1315POPC   D2A21304  11.231  24.069   8.457
 1315POPC   C3A21305  11.285  24.277   8.071
 1315POPC   C4A21306  11.423  24.117   7.684
 1315POPC   C1B21307  11.047  24.817   8.825
 1315POPC   C2B21308  10.986  24.973   8.387
 1315POPC   C3B21309  11.003  24.794   7.969
 1315POPC   C4B21310  11.331  24.625   7.688
 1316POPC   NC321311  37.984  39.566   9.316
 1316POPC   PO421312  37.708  39.166   9.796
 1316POPC   GL121313  37.675  39.054   9.342
 1316POPC   GL221314  37.426  39.280   9.259
 1316POPC   C1A21315  37.716  39.081   8.860
 1316POPC   D2A21316  37.546  39.026   8.413
 1316POPC   C3A21317  37.757  39.135   7.996
 1316POPC   C4A21318  37.618  39.044   7.543
 1316POPC   C1B21319  37.248  39.573   8.971
 1316POPC   C2B21320  37.236  39.532   8.524
 1316POPC   C3B21321  37.536  39.547   8.202
 1316POPC   C4B21322  37.535  39.596   7.759
 1317POPC   NC321323  13.155   0.439   9.240
 1317POPC   PO421324  12.601   0.619   9.539
 1317POPC   GL121325  12.561   0.476   9.149
 1317POPC   GL221326  12.764   0.176   9.032
 1317POPC   C1A21327  12.611   0.650   8.759
 1317POPC   D2A21328  12.894   0.582   8.438
 1317POPC   C3A21329  12.668   0.546   8.052
 1317POPC   C4A21330  12.556   0.253   7.701
 1317POPC   C1B21331  13.116  44.971   8.769
 1317POPC   C2B21332  13.055  44.766   8.385
 1317POPC   C3B21333  13.125  44.919   7.950
 1317POPC   C4B21334  13.336  44.997   7.566
 1318POPC   NC321335  42.701   9.570   9.742
 1318POPC   PO421336  42.615   8.960   9.588
 1318POPC   GL121337  42.346   9.041   9.224
 1318POPC   GL221338  42.505   9.325   9.149
 1318POPC   C1A21339  42.183   8.976   8.784
 1318POPC   D2A21340  42.359   8.986   8.346
 1318POPC   C3A21341  42.242   8.779   7.934
 1318POPC   C4A21342  42.188   8.633   7.470
 1318POPC   C1B21343  42.672   9.119   8.766
 1318POPC   C2B21344  42.828   9.224   8.339
 1318POPC   C3B21345  42.612   9.142   7.928
 1318POPC   C4B21346  42.419   9.468   7.647
 1319POPC   NC321347  35.233  36.507   9.730
 1319POPC   PO421348  35.808  36.749   9.728
 1319POPC   GL121349  35.601  36.694   9.266
 1319POPC   GL221350  35.219  36.729   9.222
 1319POPC   C1A21351  35.615  36.691   8.761
 1319POPC   D2A21352  35.435  36.850   8.311
 1319POPC   C3A21353  35.569  36.822   7.831
 1319POPC   C4A21354  35.637  36.768   7.359
 1319POPC   C1B21355  35.078  36.790   8.763
 1319POPC   C2B21356  34.909  36.811   8.311
 1319POPC   C3B21357  35.072  37.015   7.918
 1319POPC   C4B21358  35.273  37.193   7.514
 1320POPC   NC321359  22.968  20.853   9.559
 1320POPC   PO421360  23.156  20.156   9.513
 1320POPC   GL121361  22.999  20.328   9.129
 1320POPC   GL221362  23.126  20.617   9.155
 1320POPC   C1A21363  22.827  20.440   8.752
 1320POPC   D2A21364  22.672  20.347   8.350
 1320POPC   C3A21365  22.766  20.582   7.994
 1320POPC   C4A21366  22.690  20.364   7.607
 1320POPC   C1B21367  23.338  20.611   8.759
 1320POPC   C2B21368  23.143  20.584   8.377
 1320POPC   C3B21369  23.293  20.604   7.992
 1320POPC   C4B21370  23.115  20.618   7.586
 1321POPC   NC321371  19.140   7.796   9.599
 1321POPC   PO421372  18.699   8.296   9.552
 1321POPC   GL121373  18.872   8.096   9.210
 1321POPC   GL221374  19.225   8.168   9.268
 1321POPC   C1A21375  18.805   8.090   8.767
 1321POPC   D2A21376  18.967   7.900   8.375
 1321POPC   C3A21377  18.911   8.139   8.013
 1321POPC   C4A21378  18.884   8.341   7.632
 1321POPC   C1B21379  19.312   8.140   8.840
 1321POPC   C2B21380  19.476   7.991   8.457
 1321POPC   C3B21381  19.429   8.157   8.066
 1321POPC   C4B21382  19.419   8.338   7.688
 1322POPC   NC321383  19.456  31.344   9.486
 1322POPC   PO421384  18.893  31.804   9.564
 1322POPC   GL121385  18.994  31.536   9.230
 1322POPC   GL221386  19.328  31.570   9.062
 1322POPC   C1A21387  18.848  31.634   8.826
 1322POPC   D2A21388  19.060  31.612   8.452
 1322POPC   C3A21389  18.825  31.803   8.148
 1322POPC   C4A21390  18.959  31.765   7.754
 1322POPC   C1B21391  19.167  31.212   8.805
 1322POPC   C2B21392  19.180  31.112   8.352
 1322POPC   C3B21393  19.103  31.333   7.980
 1322POPC   C4B21394  18.824  31.255   7.639
 1323POPC   NC321395   9.339   5.868   9.420
 1323POPC   PO421396   8.667   5.895   9.462
 1323POPC   GL121397   8.887   5.854   9.109
 1323POPC   GL221398   8.666   6.150   9.016
 1323POPC   C1A21399   9.144   5.746   8.751
 1323POPC   D2A21400   8.969   5.611   8.367
 1323POPC   C3A21401   9.032   5.780   7.960
 1323POPC   C4A21402   9.419   5.712   7.749
 1323POPC   C1B21403   8.617   5.878   8.664
 1323POPC   C2B21404   8.581   5.960   8.230
 1323POPC   C3B21405   8.696   6.191   7.855
 1323POPC   C4B21406   8.687   6.059   7.391
 1324POPC   NC321407   3.906   3.639   9.588
 1324POPC   PO421408   3.299   3.261   9.461
 1324POPC   GL121409   3.544   3.451   9.159
 1324POPC   GL221410   3.510   3.789   9.128
 1324POPC   C1A21411   3.595   3.363   8.712
 1324POPC   D2A21412   3.919   3.364   8.364
 1324POPC   C3A21413   3.733   3.373   7.936
 1324POPC   C4A21414   3.279   3.438   7.850
 1324POPC   C1B21415   3.680   3.854   8.711
 1324POPC   C2B21416   3.540   3.721   8.312
 1324POPC   C3B21417   3.385   3.915   7.953
 1324POPC   C4B21418   3.579   3.947   7.580
 1325POPC   NC321419   0.753  37.752   9.501
 1325POPC   PO421420   0.172  37.385   9.681
 1325POPC   GL121421   0.261  37.630   9.260
 1325POPC   GL221422   0.537  37.816   9.060
 1325POPC   C1A21423   0.240  37.521   8.793
 1325POPC   D2A21424   0.414  37.531   8.384
 1325POPC   C3A21425   0.192  37.481   7.971
 1325POPC   C4A21426   0.256  37.523   7.500
 1325POPC   C1B21427   0.848  37.791   8.728
 1325POPC   C2B21428   0.974  37.690   8.338
 1325POPC   C3B21429   0.654  37.882   8.110
 1325POPC   C4B21430   0.562  37.821   7.732
 1326POPC   NC321431  28.594   9.091   9.599
 1326POPC   PO421432  28.110   8.710   9.781
 1326POPC   GL121433  28.289   8.911   9.249
 1326POPC   GL221434  28.137   9.251   9.122
 1326POPC   C1A21435  28.562   8.749   8.896
 1326POPC   D2A21436  28.573   8.533   8.470
 1326POPC   C3A21437  28.495   8.815   8.080
 1326POPC   C4A21438  28.243   8.843   7.667
 1326POPC   C1B21439  28.503   9.264   8.840
 1326POPC   C2B21440  28.697   9.377   8.428
 1326POPC   C3B21441  28.848   9.210   8.036
 1326POPC   C4B21442  28.782   8.937   7.679
 1327POPC   NC321443  17.660  26.866   9.585
 1327POPC   PO421444  16.993  26.960   9.463
 1327POPC   GL121445  17.376  27.038   9.159
 1327POPC   GL221446  17.678  26.844   9.086
 1327POPC   C1A21447  17.375  26.961   8.712
 1327POPC   D2A21448  17.346  26.760   8.351
 1327POPC   C3A21449  17.386  26.991   8.008
 1327POPC   C4A21450  17.510  27.056   7.634
 1327POPC   C1B21451  17.721  26.575   8.700
 1327POPC   C2B21452  17.660  26.358   8.286
 1327POPC   C3B21453  17.746  26.592   7.898
 1327POPC   C4B21454  17.858  26.470   7.470
 1328POPC   NC321455  27.146  20.101   9.837
 1328POPC   PO421456  27.626  19.643   9.620
 1328POPC   GL121457  27.738  19.685   9.189
 1328POPC   GL221458  27.627  20.035   9.136
 1328POPC   C1A21459  27.906  19.852   8.777
 1328POPC   D2A21460  27.681  20.001   8.392
 1328POPC   C3A21461  27.853  19.873   7.994
 1328POPC   C4A21462  27.862  20.063   7.592
 1328POPC   C1B21463  27.403  19.791   8.785
 1328POPC   C2B21464  27.186  19.799   8.371
 1328POPC   C3B21465  27.109  19.639   7.942
 1328POPC   C4B21466  27.428  19.734   7.656
 1329POPC   NC321467   1.810   7.848   9.515
 1329POPC   PO421468   1.724   8.510   9.575
 1329POPC   GL121469   2.005   8.287   9.290
 1329POPC   GL221470   2.137   8.523   9.056
 1329POPC   C1A21471   2.029   7.999   8.925
 1329POPC   D2A21472   2.267   7.793   8.619
 1329POPC   C3A21473   2.149   7.882   8.203
 1329POPC   C4A21474   1.960   8.023   7.816
 1329POPC   C1B21475   2.065   8.408   8.647
 1329POPC   C2B21476   2.013   8.386   8.215
 1329POPC   C3B21477   2.051   8.516   7.826
 1329POPC   C4B21478   1.756   8.576   7.490
 1330POPC   NC321479  34.587  27.711   9.692
 1330POPC   PO421480  35.109  28.076   9.568
 1330POPC   GL121481  34.944  27.734   9.237
 1330POPC   GL221482  34.582  27.538   9.186
 1330POPC   C1A21483  34.851  27.724   8.768
 1330POPC   D2A21484  34.977  27.620   8.335
 1330POPC   C3A21485  34.762  27.666   7.917
 1330POPC   C4A21486  34.764  27.453   7.521
 1330POPC   C1B21487  34.345  27.483   8.748
 1330POPC   C2B21488  34.431  27.502   8.272
 1330POPC   C3B21489  34.260  27.476   7.800
 1330POPC   C4B21490  33.965  27.729   7.537
 1331POPC   NC321491  41.619  15.484   9.480
 1331POPC   PO421492  41.300  14.851   9.382
 1331POPC   GL121493  41.541  14.909   9.011
 1331POPC   GL221494  41.634  15.264   9.007
 1331POPC   C1A21495  41.481  14.970   8.576
 1331POPC   D2A21496  41.641  15.329   8.396
 1331POPC   C3A21497  41.799  15.258   7.970
 1331POPC   C4A21498  41.651  15.152   7.542
 1331POPC   C1B21499  41.249  15.381   8.763
 1331POPC   C2B21500  41.114  15.320   8.322
 1331POPC   C3B21501  41.297  15.298   7.903
 1331POPC   C4B21502  41.307  15.496   7.477
 1332POPC   NC321503  41.020  36.751   9.486
 1332POPC   PO421504  40.500  37.118   9.236
 1332POPC   GL121505  40.842  37.029   9.079
 1332POPC   GL221506  40.751  36.705   9.056
 1332POPC   C1A21507  41.005  36.999   8.671
 1332POPC   D2A21508  41.043  36.775   8.308
 1332POPC   C3A21509  40.838  36.985   7.971
 1332POPC   C4A21510  40.416  37.096   7.916
 1332POPC   C1B21511  40.882  36.502   8.728
 1332POPC   C2B21512  40.758  36.298   8.415
 1332POPC   C3B21513  40.796  36.455   8.020
 1332POPC   C4B21514  41.115  36.621   7.747
 1333POPC   NC321515  16.875  19.725   9.530
 1333POPC   PO421516  16.396  20.138   9.452
 1333POPC   GL121517  16.705  20.060   9.148
 1333POPC   GL221518  16.749  19.719   9.040
 1333POPC   C1A21519  16.826  20.127   8.726
 1333POPC   D2A21520  16.900  19.853   8.400
 1333POPC   C3A21521  16.703  20.041   8.089
 1333POPC   C4A21522  16.751  19.851   7.724
 1333POPC   C1B21523  16.937  19.392   8.819
 1333POPC   C2B21524  16.927  19.272   8.418
 1333POPC   C3B21525  16.815  19.468   8.049
 1333POPC   C4B21526  17.063  19.448   7.669
 1334POPC   NC321527  28.081  18.469   9.601
 1334POPC   PO421528  28.810  18.483   9.647
 1334POPC   GL121529  28.592  18.259   9.251
 1334POPC   GL221530  28.310  18.424   9.137
 1334POPC   C1A21531  28.419  18.099   8.782
 1334POPC   D2A21532  28.358  18.337   8.382
 1334POPC   C3A21533  28.435  18.205   7.951
 1334POPC   C4A21534  28.225  18.160   7.582
 1334POPC   C1B21535  28.639  18.564   8.856
 1334POPC   C2B21536  28.814  18.608   8.455
 1334POPC   C3B21537  28.643  18.655   8.062
 1334POPC   C4B21538  28.340  18.702   7.724
 1335POPC   NC321539  37.274  35.303   9.561
 1335POPC   PO421540  36.598  35.465   9.449
 1335POPC   GL121541  36.869  35.303   9.136
 1335POPC   GL221542  37.092  35.043   9.134
 1335POPC   C1A21543  36.768  35.192   8.723
 1335POPC   D2A21544  36.582  35.490   8.422
 1335POPC   C3A21545  36.474  35.325   8.018
 1335POPC   C4A21546  36.826  35.267   7.805
 1335POPC   C1B21547  37.277  35.219   8.759
 1335POPC   C2B21548  37.121  35.272   8.345
 1335POPC   C3B21549  37.228  35.504   7.998
 1335POPC   C4B21550  37.099  35.660   7.616
 1336POPC   NC321551  39.651  16.404   9.412
 1336POPC   PO421552  40.202  15.891   9.520
 1336POPC   GL121553  40.030  16.067   9.170
 1336POPC   GL221554  40.161  16.369   9.219
 1336POPC   C1A21555  39.853  16.073   8.761
 1336POPC   D2A21556  39.893  15.799   8.397
 1336POPC   C3A21557  40.005  15.958   8.004
 1336POPC   C4A21558  39.890  15.938   7.600
 1336POPC   C1B21559  40.267  16.396   8.792
 1336POPC   C2B21560  40.172  16.253   8.388
 1336POPC   C3B21561  40.424  16.223   8.016
 1336POPC   C4B21562  40.332  16.184   7.600
 1337POPC   NC321563   3.233  31.605   9.790
 1337POPC   PO421564   3.018  31.199   9.260
 1337POPC   GL121565   3.256  31.405   8.944
 1337POPC   GL221566   3.213  31.697   9.072
 1337POPC   C1A21567   3.154  31.514   8.541
 1337POPC   D2A21568   3.079  31.447   8.109
 1337POPC   C3A21569   2.670  31.568   7.929
 1337POPC   C4A21570   2.615  31.345   7.512
 1337POPC   C1B21571   3.071  31.983   8.760
 1337POPC   C2B21572   2.884  31.934   8.326
 1337POPC   C3B21573   3.103  31.909   7.925
 1337POPC   C4B21574   3.040  31.631   7.604
 1338POPC   NC321575   8.388  25.472   9.594
 1338POPC   PO421576   8.548  24.840   9.408
 1338POPC   GL121577   8.286  25.126   9.152
 1338POPC   GL221578   8.202  25.500   9.131
 1338POPC   C1A21579   8.096  25.012   8.771
 1338POPC   D2A21580   8.309  24.965   8.386
 1338POPC   C3A21581   8.102  24.934   8.019
 1338POPC   C4A21582   8.245  25.002   7.587
 1338POPC   C1B21583   8.431  25.413   8.775
 1338POPC   C2B21584   8.596  25.375   8.390
 1338POPC   C3B21585   8.472  25.326   7.991
 1338POPC   C4B21586   8.683  25.690   7.847
 1339POPC   NC321587  11.245  41.206   9.443
 1339POPC   PO421588  11.399  41.905   9.497
 1339POPC   GL121589  11.366  41.641   9.178
 1339POPC   GL221590  11.628  41.405   9.128
 1339POPC   C1A21591  11.298  41.609   8.768
 1339POPC   D2A21592  11.100  41.414   8.466
 1339POPC   C3A21593  11.286  41.544   8.108
 1339POPC   C4A21594  11.203  41.305   7.775
 1339POPC   C1B21595  11.719  41.304   8.721
 1339POPC   C2B21596  11.606  41.202   8.310
 1339POPC   C3B21597  11.749  41.343   7.948
 1339POPC   C4B21598  11.657  41.605   7.645
 1340POPC   NC321599  27.900  14.875   9.584
 1340POPC   PO421600  28.406  15.083   9.566
 1340POPC   GL121601  28.281  15.113   9.110
 1340POPC   GL221602  28.048  14.824   9.044
 1340POPC   C1A21603  28.356  15.368   8.696
 1340POPC   D2A21604  28.214  15.325   8.227
 1340POPC   C3A21605  28.345  15.031   7.883
 1340POPC   C4A21606  28.567  15.103   7.486
 1340POPC   C1B21607  28.175  14.917   8.599
 1340POPC   C2B21608  27.975  14.843   8.189
 1340POPC   C3B21609  27.849  14.914   7.774
 1340POPC   C4B21610  28.045  15.126   7.433
 1341POPC   NC321611  15.246   4.561   9.288
 1341POPC   PO421612  15.675   4.130   9.531
 1341POPC   GL121613  15.613   4.271   9.072
 1341POPC   GL221614  15.825   4.567   8.993
 1341POPC   C1A21615  15.705   4.306   8.595
 1341POPC   D2A21616  16.038   4.141   8.335
 1341POPC   C3A21617  15.827   4.037   7.985
 1341POPC   C4A21618  15.710   4.341   7.687
 1341POPC   C1B21619  16.190   4.501   8.723
 1341POPC   C2B21620  16.272   4.654   8.310
 1341POPC   C3B21621  16.161   4.594   7.875
 1341POPC   C4B21622  16.235   4.191   7.723
 1342POPC   NC321623  20.663   6.041   9.345
 1342POPC   PO421624  20.414   5.493   9.390
 1342POPC   GL121625  20.490   5.666   8.999
 1342POPC   GL221626  20.837   5.655   9.021
 1342POPC   C1A21627  20.516   6.037   8.688
 1342POPC   D2A21628  20.329   6.309   8.355
 1342POPC   C3A21629  20.287   6.108   7.948
 1342POPC   C4A21630  20.460   5.738   7.780
 1342POPC   C1B21631  21.032   5.977   8.748
 1342POPC   C2B21632  21.103   5.940   8.353
 1342POPC   C3B21633  20.873   5.700   8.073
 1342POPC   C4B21634  20.943   5.830   7.677
 1343POPC   NC321635   4.607  17.623   9.699
 1343POPC   PO421636   4.187  17.145   9.584
 1343POPC   GL121637   4.231  17.571   9.276
 1343POPC   GL221638   4.534  17.836   9.243
 1343POPC   C1A21639   4.180  17.717   8.813
 1343POPC   D2A21640   4.324  17.527   8.368
 1343POPC   C3A21641   4.239  17.281   7.951
 1343POPC   C4A21642   4.159  17.456   7.536
 1343POPC   C1B21643   4.598  18.020   8.822
 1343POPC   C2B21644   4.461  18.025   8.377
 1343POPC   C3B21645   4.524  17.781   7.959
 1343POPC   C4B21646   4.740  17.395   7.855
 1344POPC   NC321647   4.222  31.945   9.892
 1344POPC   PO421648   4.599  31.464   9.582
 1344POPC   GL121649   4.392  31.405   9.208
 1344POPC   GL221650   4.346  31.778   9.190
 1344POPC   C1A21651   4.189  31.179   8.846
 1344POPC   D2A21652   4.443  31.318   8.489
 1344POPC   C3A21653   4.384  31.272   8.075
 1344POPC   C4A21654   4.650  31.276   7.729
 1344POPC   C1B21655   4.195  31.668   8.802
 1344POPC   C2B21656   4.033  31.655   8.448
 1344POPC   C3B21657   4.194  31.833   8.121
 1344POPC   C4B21658   4.212  31.628   7.750
 1345POPC   NC321659  10.973  39.740   9.537
 1345POPC   PO421660  11.440  40.119   9.709
 1345POPC   GL121661  11.324  40.023   9.281
 1345POPC   GL221662  11.369  39.670   9.205
 1345POPC   C1A21663  11.337  40.063   8.837
 1345POPC   D2A21664  11.067  39.984   8.503
 1345POPC   C3A21665  11.184  40.115   8.093
 1345POPC   C4A21666  11.072  39.922   7.715
 1345POPC   C1B21667  11.462  39.568   8.753
 1345POPC   C2B21668  11.550  39.770   8.358
 1345POPC   C3B21669  11.558  39.797   7.896
 1345POPC   C4B21670  11.506  40.169   7.651
 1346POPC   NC321671  42.449  10.261   9.342
 1346POPC   PO421672  42.022   9.825   9.761
 1346POPC   GL121673  42.131   9.704   9.271
 1346POPC   GL221674  42.363   9.862   9.070
 1346POPC   C1A21675  42.178   9.496   8.803
 1346POPC   D2A21676  42.390   9.488   8.400
 1346POPC   C3A21677  42.128   9.389   8.054
 1346POPC   C4A21678  41.934   9.580   7.693
 1346POPC   C1B21679  42.539  10.084   8.720
 1346POPC   C2B21680  42.455  10.178   8.329
 1346POPC   C3B21681  42.403   9.908   7.948
 1346POPC   C4B21682  42.662   9.915   7.570
 1347POPC   NC321683   6.639  21.880   9.592
 1347POPC   PO421684   6.477  22.524   9.625
 1347POPC   GL121685   6.639  22.385   9.179
 1347POPC   GL221686   6.604  22.005   9.114
 1347POPC   C1A21687   6.543  22.305   8.713
 1347POPC   D2A21688   6.487  22.066   8.332
 1347POPC   C3A21689   6.655  22.259   7.949
 1347POPC   C4A21690   6.801  22.428   7.580
 1347POPC   C1B21691   6.710  21.730   8.766
 1347POPC   C2B21692   6.822  21.593   8.365
 1347POPC   C3B21693   6.652  21.740   7.977
 1347POPC   C4B21694   6.706  21.863   7.551
 1348POPC   NC321695  11.688  21.896   9.401
 1348POPC   PO421696  11.322  21.298   9.579
 1348POPC   GL121697  11.256  21.531   9.220
 1348POPC   GL221698  11.596  21.464   9.159
 1348POPC   C1A21699  11.332  21.533   8.752
 1348POPC   D2A21700  11.126  21.335   8.449
 1348POPC   C3A21701  11.200  21.486   8.095
 1348POPC   C4A21702  11.149  21.460   7.689
 1348POPC   C1B21703  11.611  21.134   8.845
 1348POPC   C2B21704  11.706  21.249   8.436
 1348POPC   C3B21705  11.577  21.141   8.040
 1348POPC   C4B21706  11.654  21.418   7.736
 1349POPC   NC321707  22.275  34.355   9.406
 1349POPC   PO421708  21.917  34.901   9.586
 1349POPC   GL121709  22.106  34.796   9.200
 1349POPC   GL221710  21.862  34.534   9.115
 1349POPC   C1A21711  22.327  34.771   8.787
 1349POPC   D2A21712  22.344  34.996   8.377
 1349POPC   C3A21713  22.161  34.777   7.990
 1349POPC   C4A21714  22.364  34.504   7.667
 1349POPC   C1B21715  21.898  34.447   8.680
 1349POPC   C2B21716  21.876  34.375   8.237
 1349POPC   C3B21717  21.807  34.396   7.805
 1349POPC   C4B21718  21.913  34.654   7.473
 1350POPC   NC321719  18.684  44.441   9.785
 1350POPC   PO421720  18.062  44.578   9.513
 1350POPC   GL121721  18.120  44.498   9.107
 1350POPC   GL221722  17.877  44.263   9.086
 1350POPC   C1A21723  18.324  44.639   8.715
 1350POPC   D2A21724  18.163  44.768   8.313
 1350POPC   C3A21725  18.467  44.739   7.998
 1350POPC   C4A21726  18.741  44.606   7.692
 1350POPC   C1B21727  18.053  44.220   8.678
 1350POPC   C2B21728  18.274  44.261   8.298
 1350POPC   C3B21729  18.118  44.384   7.911
 1350POPC   C4B21730  18.263  44.555   7.519
 1351POPC   NC321731  21.172  38.006   9.460
 1351POPC   PO421732  21.789  37.721   9.632
 1351POPC   GL121733  21.599  37.748   9.204
 1351POPC   GL221734  21.265  37.683   9.087
 1351POPC   C1A21735  21.621  37.861   8.762
 1351POPC   D2A21736  21.796  38.165   8.491
 1351POPC   C3A21737  21.633  38.029   8.062
 1351POPC   C4A21738  21.753  37.635   7.849
 1351POPC   C1B21739  21.365  37.442   8.680
 1351POPC   C2B21740  21.450  37.598   8.288
 1351POPC   C3B21741  21.178  37.804   7.993
 1351POPC   C4B21742  21.299  37.771   7.576
 1352POPC   NC321743  41.256  41.347   9.138
 1352POPC   PO421744  41.581  41.965   9.424
 1352POPC   GL121745  41.661  41.666   9.119
 1352POPC   GL221746  41.791  41.343   9.255
 1352POPC   C1A21747  41.756  41.724   8.682
 1352POPC   D2A21748  41.548  41.818   8.289
 1352POPC   C3A21749  41.463  41.486   7.956
 1352POPC   C4A21750  41.541  41.696   7.525
 1352POPC   C1B21751  41.786  41.223   8.798
 1352POPC   C2B21752  41.777  41.315   8.348
 1352POPC   C3B21753  41.880  41.174   7.927
 1352POPC   C4B21754  41.611  41.158   7.553
 1353POPC   NC321755  24.647  31.025   9.386
 1353POPC   PO421756  24.319  30.427   9.488
 1353POPC   GL121757  24.374  30.634   9.151
 1353POPC   GL221758  24.709  30.548   9.144
 1353POPC   C1A21759  24.297  30.638   8.747
 1353POPC   D2A21760  24.487  30.791   8.374
 1353POPC   C3A21761  24.302  30.665   8.025
 1353POPC   C4A21762  24.454  30.670   7.633
 1353POPC   C1B21763  24.807  30.723   8.766
 1353POPC   C2B21764  24.952  30.578   8.370
 1353POPC   C3B21765  24.895  30.749   7.968
 1353POPC   C4B21766  24.934  30.538   7.539
 1354POPC   NC321767  16.683  21.648   9.533
 1354POPC   PO421768  16.487  21.085   9.596
 1354POPC   GL121769  16.555  21.268   9.217
 1354POPC   GL221770  16.947  21.241   9.308
 1354POPC   C1A21771  16.428  21.410   8.814
 1354POPC   D2A21772  16.290  21.295   8.406
 1354POPC   C3A21773  16.605  21.144   8.134
 1354POPC   C4A21774  16.513  21.353   7.784
 1354POPC   C1B21775  16.949  21.450   8.921
 1354POPC   C2B21776  16.809  21.437   8.495
 1354POPC   C3B21777  16.844  21.629   8.087
 1354POPC   C4B21778  17.021  21.473   7.729
 1355POPC   NC321779   9.826  43.346   9.495
 1355POPC   PO421780   9.476  42.858   9.547
 1355POPC   GL121781   9.539  42.954   9.158
 1355POPC   GL221782   9.434  43.317   9.162
 1355POPC   C1A21783   9.687  42.796   8.778
 1355POPC   D2A21784   9.862  42.978   8.441
 1355POPC   C3A21785   9.622  42.963   8.120
 1355POPC   C4A21786   9.663  43.077   7.741
 1355POPC   C1B21787   9.732  43.319   8.844
 1355POPC   C2B21788  10.040  43.456   8.554
 1355POPC   C3B21789   9.970  43.421   8.103
 1355POPC   C4B21790   9.814  43.627   7.718
 1356POPC   NC321791  36.586   0.044   9.470
 1356POPC   PO421792  35.837   0.195   9.454
 1356POPC   GL121793  36.094   0.444   9.124
 1356POPC   GL221794  36.451   0.343   9.071
 1356POPC   C1A21795  36.163   0.410   8.664
 1356POPC   D2A21796  36.175   0.206   8.274
 1356POPC   C3A21797  35.925   0.401   7.960
 1356POPC   C4A21798  36.050   0.794   7.844
 1356POPC   C1B21799  36.578   0.003   8.759
 1356POPC   C2B21800  36.678  44.990   8.305
 1356POPC   C3B21801  36.558   0.270   7.931
 1356POPC   C4B21802  36.397   0.514   7.606
 1357POPC   NC321803   7.813   6.586   9.826
 1357POPC   PO421804   7.324   6.936   9.540
 1357POPC   GL121805   7.387   6.773   9.115
 1357POPC   GL221806   7.361   6.404   9.047
 1357POPC   C1A21807   7.465   6.702   8.672
 1357POPC   D2A21808   7.317   6.540   8.335
 1357POPC   C3A21809   7.500   6.712   7.986
 1357POPC   C4A21810   7.342   6.646   7.624
 1357POPC   C1B21811   7.598   6.192   8.688
 1357POPC   C2B21812   7.779   6.331   8.262
 1357POPC   C3B21813   7.653   6.266   7.797
 1357POPC   C4B21814   7.605   6.309   7.289
 1358POPC   NC321815  31.947  19.102   9.591
 1358POPC   PO421816  32.547  19.313   9.433
 1358POPC   GL121817  32.216  19.190   9.130
 1358POPC   GL221818  31.938  19.336   9.134
 1358POPC   C1A21819  32.227  19.177   8.670
 1358POPC   D2A21820  32.541  19.275   8.345
 1358POPC   C3A21821  32.456  18.983   8.016
 1358POPC   C4A21822  32.137  19.026   7.685
 1358POPC   C1B21823  31.883  19.535   8.782
 1358POPC   C2B21824  31.756  19.449   8.403
 1358POPC   C3B21825  32.024  19.287   8.121
 1358POPC   C4B21826  31.963  19.482   7.741
 1359POPC   NC321827   5.367  39.966   9.748
 1359POPC   PO421828   5.919  40.152   9.400
 1359POPC   GL121829   5.937  40.055   9.003
 1359POPC   GL221830   5.899  39.698   9.112
 1359POPC   C1A21831   6.062  40.165   8.616
 1359POPC   D2A21832   5.943  39.857   8.347
 1359POPC   C3A21833   5.807  40.043   8.006
 1359POPC   C4A21834   6.159  40.068   7.735
 1359POPC   C1B21835   5.664  39.630   8.718
 1359POPC   C2B21836   5.659  39.424   8.307
 1359POPC   C3B21837   5.776  39.542   7.875
 1359POPC   C4B21838   5.644  39.856   7.561
 1360POPC   NC321839  41.479  37.635   9.577
 1360POPC   PO421840  41.293  38.086   9.185
 1360POPC   GL121841  41.398  37.713   9.008
 1360POPC   GL221842  41.669  37.501   9.121
 1360POPC   C1A21843  41.541  37.857   8.616
 1360POPC   D2A21844  41.377  38.033   8.283
 1360POPC   C3A21845  41.639  37.878   8.001
 1360POPC   C4A21846  41.324  37.679   7.762
 1360POPC   C1B21847  41.631  37.374   8.691
 1360POPC   C2B21848  41.482  37.459   8.269
 1360POPC   C3B21849  41.723  37.383   7.909
 1360POPC   C4B21850  42.057  37.334   7.641
 1361POPC   NC321851   8.567  23.383   9.360
 1361POPC   PO421852   8.921  23.961   9.603
 1361POPC   GL121853   8.995  24.065   9.166
 1361POPC   GL221854   8.649  23.927   9.157
 1361POPC   C1A21855   9.185  23.980   8.732
 1361POPC   D2A21856   9.094  23.699   8.374
 1361POPC   C3A21857   9.080  23.966   8.016
 1361POPC   C4A21858   9.152  24.083   7.591
 1361POPC   C1B21859   8.757  23.701   8.786
 1361POPC   C2B21860   8.527  23.542   8.441
 1361POPC   C3B21861   8.581  23.585   8.059
 1361POPC   C4B21862   8.783  23.688   7.713
 1362POPC   NC321863  21.918  36.696   9.339
 1362POPC   PO421864  22.434  37.168   9.492
 1362POPC   GL121865  22.144  37.113   9.173
 1362POPC   GL221866  21.822  37.236   9.334
 1362POPC   C1A21867  22.133  36.929   8.749
 1362POPC   D2A21868  22.382  36.722   8.419
 1362POPC   C3A21869  22.238  36.905   8.051
 1362POPC   C4A21870  21.972  36.803   7.690
 1362POPC   C1B21871  21.822  37.362   8.876
 1362POPC   C2B21872  21.800  37.247   8.426
 1362POPC   C3B21873  21.755  37.137   8.004
 1362POPC   C4B21874  21.701  37.217   7.554
 1363POPC   NC321875  30.723   0.965   9.695
 1363POPC   PO421876  30.451   0.355   9.534
 1363POPC   GL121877  30.425   0.606   9.162
 1363POPC   GL221878  30.741   0.722   9.213
 1363POPC   C1A21879  30.510   0.649   8.760
 1363POPC   D2A21880  30.705   0.352   8.475
 1363POPC   C3A21881  30.687   0.569   8.106
 1363POPC   C4A21882  30.502   0.479   7.741
 1363POPC   C1B21883  30.989   0.579   8.837
 1363POPC   C2B21884  31.116   0.661   8.427
 1363POPC   C3B21885  31.111   0.877   8.043
 1363POPC   C4B21886  31.023   0.568   7.691
 1364POPC   NC321887  28.687   4.234   9.295
 1364POPC   PO421888  28.445   4.855   9.463
 1364POPC   GL121889  28.302   4.623   9.098
 1364POPC   GL221890  28.073   4.425   9.246
 1364POPC   C1A21891  28.332   4.345   8.735
 1364POPC   D2A21892  28.604   4.247   8.413
 1364POPC   C3A21893  28.415   4.370   8.025
 1364POPC   C4A21894  28.577   4.350   7.608
 1364POPC   C1B21895  27.931   4.128   8.944
 1364POPC   C2B21896  27.798   4.169   8.501
 1364POPC   C3B21897  27.844   4.227   8.022
 1364POPC   C4B21898  28.128   4.094   7.687
 1365POPC   NC321899   6.269  34.559   9.312
 1365POPC   PO421900   5.582  34.828   9.429
 1365POPC   GL121901   5.773  34.468   9.184
 1365POPC   GL221902   5.969  34.558   8.908
 1365POPC   C1A21903   5.561  34.273   8.819
 1365POPC   D2A21904   5.391  34.408   8.394
 1365POPC   C3A21905   5.634  34.247   8.018
 1365POPC   C4A21906   5.704  34.259   7.552
 1365POPC   C1B21907   5.887  34.460   8.494
 1365POPC   C2B21908   5.797  34.713   8.145
 1365POPC   C3B21909   6.012  34.644   7.748
 1365POPC   C4B21910   6.016  34.912   7.378
 1366POPC   NC321911  16.253  30.235   9.275
 1366POPC   PO421912  15.709  30.649   9.507
 1366POPC   GL121913  15.885  30.538   9.144
 1366POPC   GL221914  15.750  30.233   9.137
 1366POPC   C1A21915  16.006  30.474   8.701
 1366POPC   D2A21916  16.058  30.718   8.318
 1366POPC   C3A21917  16.215  30.689   7.888
 1366POPC   C4A21918  16.205  30.807   7.443
 1366POPC   C1B21919  15.510  30.464   8.822
 1366POPC   C2B21920  15.534  30.457   8.382
 1366POPC   C3B21921  15.497  30.665   7.995
 1366POPC   C4B21922  15.765  30.658   7.676
 1367POPC   NC321923  18.764  21.452   9.632
 1367POPC   PO421924  19.333  21.360   9.596
 1367POPC   GL121925  19.098  21.434   9.214
 1367POPC   GL221926  18.746  21.281   9.145
 1367POPC   C1A21927  19.210  21.568   8.820
 1367POPC   D2A21928  19.400  21.467   8.451
 1367POPC   C3A21929  19.217  21.417   8.082
 1367POPC   C4A21930  19.245  21.300   7.684
 1367POPC   C1B21931  18.705  21.620   8.822
 1367POPC   C2B21932  18.922  21.702   8.403
 1367POPC   C3B21933  18.760  21.619   7.977
 1367POPC   C4B21934  18.851  21.609   7.534
 1368POPC   NC321935  20.186  26.717   9.536
 1368POPC   PO421936  19.608  26.999   9.497
 1368POPC   GL121937  19.742  27.003   9.071
 1368POPC   GL221938  20.106  26.993   9.103
 1368POPC   C1A21939  19.564  26.661   8.740
 1368POPC   D2A21940  19.574  26.331   8.384
 1368POPC   C3A21941  19.620  26.414   7.954
 1368POPC   C4A21942  19.714  26.822   7.776
 1368POPC   C1B21943  20.041  26.827   8.691
 1368POPC   C2B21944  19.848  26.804   8.286
 1368POPC   C3B21945  20.144  26.968   7.986
 1368POPC   C4B21946  20.268  26.829   7.589
 1369POPC   NC321947   6.275  28.023   9.482
 1369POPC   PO421948   5.840  28.441   9.512
 1369POPC   GL121949   5.714  28.358   9.116
 1369POPC   GL221950   5.466  28.592   9.073
 1369POPC   C1A21951   5.913  28.222   8.744
 1369POPC   D2A21952   6.091  28.477   8.389
 1369POPC   C3A21953   5.990  28.393   7.951
 1369POPC   C4A21954   5.889  28.649   7.680
 1369POPC   C1B21955   5.555  28.543   8.600
 1369POPC   C2B21956   5.614  28.235   8.237
 1369POPC   C3B21957   5.469  28.359   7.786
 1369POPC   C4B21958   5.481  28.543   7.353
 1370POPC   NC321959  33.759  10.438   9.685
 1370POPC   PO421960  33.850   9.761   9.550
 1370POPC   GL121961  33.921   9.677   9.133
 1370POPC   GL221962  34.002  10.019   9.089
 1370POPC   C1A21963  33.761   9.454   8.756
 1370POPC   D2A21964  33.953   9.330   8.345
 1370POPC   C3A21965  33.749   9.595   8.028
 1370POPC   C4A21966  33.447   9.467   7.698
 1370POPC   C1B21967  33.664  10.016   8.809
 1370POPC   C2B21968  33.568   9.847   8.435
 1370POPC   C3B21969  33.554  10.057   8.036
 1370POPC   C4B21970  33.889  10.018   7.749
 1371POPC   NC321971  20.230  40.525   9.446
 1371POPC   PO421972  20.939  40.831   9.527
 1371POPC   GL121973  20.629  40.779   9.191
 1371POPC   GL221974  20.563  40.426   9.089
 1371POPC   C1A21975  20.551  40.963   8.797
 1371POPC   D2A21976  20.372  41.109   8.409
 1371POPC   C3A21977  20.573  41.053   8.005
 1371POPC   C4A21978  20.252  40.995   7.717
 1371POPC   C1B21979  20.827  40.490   8.765
 1371POPC   C2B21980  20.839  40.719   8.385
 1371POPC   C3B21981  20.871  40.605   7.978
 1371POPC   C4B21982  20.598  40.610   7.674
 1372POPC   NC321983  16.507  25.690   9.445
 1372POPC   PO421984  16.844  25.186   9.752
 1372POPC   GL121985  16.912  25.147   9.213
 1372POPC   GL221986  16.841  25.502   9.079
 1372POPC   C1A21987  16.745  25.050   8.817
 1372POPC   D2A21988  16.844  25.071   8.401
 1372POPC   C3A21989  16.585  24.845   8.177
 1372POPC   C4A21990  16.568  24.998   7.765
 1372POPC   C1B21991  16.680  25.555   8.649
 1372POPC   C2B21992  16.532  25.454   8.207
 1372POPC   C3B21993  16.811  25.453   7.854
 1372POPC   C4B21994  16.836  25.683   7.453
 1373POPC   NC321995  26.244  15.664   9.511
 1373POPC   PO421996  25.645  15.856   9.558
 1373POPC   GL121997  25.712  15.922   9.134
 1373POPC   GL221998  25.778  15.580   9.115
 1373POPC   C1A21999  25.797  16.073   8.693
 1373POPC   D2A22000  26.189  16.178   8.432
 1373POPC   C3A22001  26.102  16.144   7.992
 1373POPC   C4A22002  26.401  15.999   7.699
 1373POPC   C1B22003  26.034  15.514   8.797
 1373POPC   C2B22004  26.051  15.697   8.426
 1373POPC   C3B22005  26.234  15.657   8.059
 1373POPC   C4B22006  26.042  15.606   7.714
 1374POPC   NC322007  27.433  18.207   9.547
 1374POPC   PO422008  27.082  17.637   9.282
 1374POPC   GL122009  27.306  18.035   9.070
 1374POPC   GL222010  27.698  18.135   9.115
 1374POPC   C1A22011  27.480  18.163   8.638
 1374POPC   D2A22012  27.793  17.999   8.333
 1374POPC   C3A22013  27.553  18.091   7.952
 1374POPC   C4A22014  27.413  18.516   8.006
 1374POPC   C1B22015  27.955  18.317   8.752
 1374POPC   C2B22016  27.848  18.507   8.338
 1374POPC   C3B22017  27.917  18.452   7.883
 1374POPC   C4B22018  27.911  18.581   7.425
 1375POPC   NC322019  41.667  23.551   9.432
 1375POPC   PO422020  41.086  23.763   9.523
 1375POPC   GL122021  41.273  23.905   9.155
 1375POPC   GL222022  41.317  23.562   9.027
 1375POPC   C1A22023  41.460  23.994   8.757
 1375POPC   D2A22024  41.661  23.940   8.353
 1375POPC   C3A22025  41.350  23.772   8.071
 1375POPC   C4A22026  41.285  23.599   7.654
 1375POPC   C1B22027  41.638  23.521   8.669
 1375POPC   C2B22028  41.584  23.329   8.242
 1375POPC   C3B22029  41.752  23.486   7.865
 1375POPC   C4B22030  41.879  23.899   7.852
 1376POPC   NC322031  34.585  32.117   9.381
 1376POPC   PO422032  34.734  32.770   9.402
 1376POPC   GL122033  34.528  32.515   9.071
 1376POPC   GL222034  34.224  32.242   9.074
 1376POPC   C1A22035  34.724  32.356   8.708
 1376POPC   D2A22036  35.006  32.391   8.356
 1376POPC   C3A22037  34.800  32.478   7.993
 1376POPC   C4A22038  34.852  32.349   7.604
 1376POPC   C1B22039  34.360  31.999   8.689
 1376POPC   C2B22040  34.547  32.123   8.277
 1376POPC   C3B22041  34.408  32.190   7.847
 1376POPC   C4B22042  34.236  32.115   7.441
 1377POPC   NC322043  26.314  18.497   9.700
 1377POPC   PO422044  26.933  18.406   9.529
 1377POPC   GL122045  26.942  18.449   9.149
 1377POPC   GL222046  26.729  18.182   9.080
 1377POPC   C1A22047  27.124  18.489   8.798
 1377POPC   D2A22048  27.028  18.494   8.382
 1377POPC   C3A22049  27.029  18.143   8.151
 1377POPC   C4A22050  27.022  18.295   7.756
 1377POPC   C1B22051  26.788  18.097   8.655
 1377POPC   C2B22052  26.540  17.997   8.296
 1377POPC   C3B22053  26.538  18.172   7.901
 1377POPC   C4B22054  26.724  17.986   7.526
 1378POPC   NC322055  40.519  22.290   9.528
 1378POPC   PO422056  41.158  22.034   9.481
 1378POPC   GL122057  40.858  22.165   9.164
 1378POPC   GL222058  40.992  21.856   9.024
 1378POPC   C1A22059  40.498  22.178   8.807
 1378POPC   D2A22060  40.403  22.113   8.357
 1378POPC   C3A22061  40.697  22.265   7.982
 1378POPC   C4A22062  40.873  22.204   7.528
 1378POPC   C1B22063  41.015  22.149   8.690
 1378POPC   C2B22064  41.099  22.319   8.300
 1378POPC   C3B22065  41.227  22.138   7.895
 1378POPC   C4B22066  41.254  21.881   7.487
 1379POPC   NC322067   2.625  32.407   9.533
 1379POPC   PO422068   3.074  32.041   9.720
 1379POPC   GL122069   2.982  32.155   9.251
 1379POPC   GL222070   3.115  32.452   9.106
 1379POPC   C1A22071   2.681  32.305   8.866
 1379POPC   D2A22072   2.671  32.423   8.391
 1379POPC   C3A22073   2.514  32.189   8.029
 1379POPC   C4A22074   2.683  32.055   7.634
 1379POPC   C1B22075   3.084  32.530   8.650
 1379POPC   C2B22076   3.151  32.606   8.231
 1379POPC   C3B22077   2.988  32.392   7.871
 1379POPC   C4B22078   2.915  32.469   7.424
 1380POPC   NC322079  38.079  22.213   9.485
 1380POPC   PO422080  37.442  22.027   9.438
 1380POPC   GL122081  37.696  22.102   9.099
 1380POPC   GL222082  38.022  21.959   9.063
 1380POPC   C1A22083  37.761  22.335   8.731
 1380POPC   D2A22084  37.665  22.540   8.359
 1380POPC   C3A22085  37.608  22.314   7.989
 1380POPC   C4A22086  37.831  22.325   7.635
 1380POPC   C1B22087  37.922  21.857   8.686
 1380POPC   C2B22088  37.981  22.028   8.294
 1380POPC   C3B22089  37.717  21.820   8.029
 1380POPC   C4B22090  37.623  21.878   7.593
 1381POPC   NC322091  13.090   8.391   9.558
 1381POPC   PO422092  12.726   7.913   9.678
 1381POPC   GL122093  12.955   8.058   9.221
 1381POPC   GL222094  12.927   8.408   9.101
 1381POPC   C1A22095  12.900   8.081   8.741
 1381POPC   D2A22096  13.156   8.050   8.418
 1381POPC   C3A22097  13.081   8.086   8.031
 1381POPC   C4A22098  12.679   8.118   7.928
 1381POPC   C1B22099  12.888   8.600   8.717
 1381POPC   C2B22100  13.091   8.549   8.324
 1381POPC   C3B22101  12.933   8.568   7.913
 1381POPC   C4B22102  12.492   8.650   7.820
 1382POPC   NC322103  26.876  31.609   9.376
 1382POPC   PO422104  26.564  31.152   9.715
 1382POPC   GL122105  26.662  31.165   9.281
 1382POPC   GL222106  26.973  31.146   9.095
 1382POPC   C1A22107  26.558  31.314   8.867
 1382POPC   D2A22108  26.591  31.348   8.442
 1382POPC   C3A22109  26.875  31.149   8.175
 1382POPC   C4A22110  26.753  31.250   7.760
 1382POPC   C1B22111  27.051  31.405   8.701
 1382POPC   C2B22112  27.203  31.562   8.279
 1382POPC   C3B22113  27.192  31.493   7.825
 1382POPC   C4B22114  27.133  31.597   7.391
 1383POPC   NC322115  33.598  10.925   9.282
 1383POPC   PO422116  34.134  10.621   9.479
 1383POPC   GL122117  33.935  10.542   9.125
 1383POPC   GL222118  33.638  10.378   9.171
 1383POPC   C1A22119  33.954  10.573   8.700
 1383POPC   D2A22120  33.751  10.352   8.391
 1383POPC   C3A22121  33.814  10.514   7.966
 1383POPC   C4A22122  34.109  10.818   7.721
 1383POPC   C1B22123  33.453  10.547   8.792
 1383POPC   C2B22124  33.416  10.740   8.381
 1383POPC   C3B22125  33.300  10.603   7.974
 1383POPC   C4B22126  33.438  10.353   7.641
 1384POPC   NC322127  13.147   0.402   9.763
 1384POPC   PO422128  13.777   0.138   9.515
 1384POPC   GL122129  13.628   0.252   9.162
 1384POPC   GL222130  13.697   0.609   9.214
 1384POPC   C1A22131  13.782   0.142   8.767
 1384POPC   D2A22132  14.040   0.276   8.439
 1384POPC   C3A22133  13.749   0.327   8.133
 1384POPC   C4A22134  13.568   0.439   7.745
 1384POPC   C1B22135  13.563   0.603   8.780
 1384POPC   C2B22136  13.362   0.351   8.510
 1384POPC   C3B22137  13.222   0.389   8.109
 1384POPC   C4B22138  13.040   0.441   7.724
 1385POPC   NC322139  40.670  32.711   9.509
 1385POPC   PO422140  40.664  33.385   9.552
 1385POPC   GL122141  40.677  33.422   9.141
 1385POPC   GL222142  40.443  33.181   9.100
 1385POPC   C1A22143  40.769  33.226   8.710
 1385POPC   D2A22144  40.855  32.855   8.450
 1385POPC   C3A22145  40.770  32.970   8.031
 1385POPC   C4A22146  41.039  33.035   7.701
 1385POPC   C1B22147  40.486  32.798   8.817
 1385POPC   C2B22148  40.435  32.553   8.402
 1385POPC   C3B22149  40.367  32.643   7.957
 1385POPC   C4B22150  40.623  32.741   7.558
 1386POPC   NC322151  27.346  27.471   9.839
 1386POPC   PO422152  27.888  27.350   9.715
 1386POPC   GL122153  27.755  27.454   9.270
 1386POPC   GL222154  27.378  27.439   9.169
 1386POPC   C1A22155  27.906  27.540   8.823
 1386POPC   D2A22156  28.026  27.554   8.368
 1386POPC   C3A22157  27.790  27.760   8.020
 1386POPC   C4A22158  27.444  27.710   7.726
 1386POPC   C1B22159  27.383  27.428   8.680
 1386POPC   C2B22160  27.393  27.403   8.193
 1386POPC   C3B22161  27.236  27.248   7.774
 1386POPC   C4B22162  27.359  27.359   7.343
 1387POPC   NC322163  16.083  27.444   9.890
 1387POPC   PO422164  16.117  27.742   9.247
 1387POPC   GL122165  15.897  27.437   9.039
 1387POPC   GL222166  15.586  27.466   9.130
 1387POPC   C1A22167  16.070  27.224   8.698
 1387POPC   D2A22168  16.055  27.473   8.334
 1387POPC   C3A22169  16.312  27.736   8.086
 1387POPC   C4A22170  16.154  27.757   7.673
 1387POPC   C1B22171  15.595  27.706   8.724
 1387POPC   C2B22172  15.747  27.895   8.304
 1387POPC   C3B22173  15.633  27.780   7.869
 1387POPC   C4B22174  15.697  27.796   7.414
 1388POPC   NC322175  32.782   4.086   9.300
 1388POPC   PO422176  33.028   4.688   9.392
 1388POPC   GL122177  32.929   4.489   9.019
 1388POPC   GL222178  32.617   4.359   8.869
 1388POPC   C1A22179  33.102   4.195   8.689
 1388POPC   D2A22180  33.308   4.328   8.309
 1388POPC   C3A22181  33.178   4.194   7.909
 1388POPC   C4A22182  33.306   4.396   7.581
 1388POPC   C1B22183  32.867   4.640   8.550
 1388POPC   C2B22184  32.927   4.625   8.106
 1388POPC   C3B22185  32.826   4.541   7.675
 1388POPC   C4B22186  32.806   4.675   7.228
 1389POPC   NC322187  22.410  35.841   9.178
 1389POPC   PO422188  22.024  36.296   9.539
 1389POPC   GL122189  22.070  36.214   9.109
 1389POPC   GL222190  22.262  36.518   9.025
 1389POPC   C1A22191  21.952  35.917   8.730
 1389POPC   D2A22192  21.954  35.726   8.314
 1389POPC   C3A22193  22.183  35.870   7.942
 1389POPC   C4A22194  22.006  35.885   7.539
 1389POPC   C1B22195  22.371  36.278   8.688
 1389POPC   C2B22196  22.181  36.202   8.348
 1389POPC   C3B22197  22.063  36.401   8.014
 1389POPC   C4B22198  22.228  36.327   7.661
 1390POPC   NC322199  25.891  28.559   9.573
 1390POPC   PO422200  26.176  28.030   9.281
 1390POPC   GL122201  25.969  28.381   9.017
 1390POPC   GL222202  25.917  28.761   9.105
 1390POPC   C1A22203  25.755  28.307   8.605
 1390POPC   D2A22204  25.639  28.556   8.217
 1390POPC   C3A22205  25.924  28.404   7.877
 1390POPC   C4A22206  26.312  28.170   7.820
 1390POPC   C1B22207  25.921  28.797   8.644
 1390POPC   C2B22208  26.142  28.540   8.325
 1390POPC   C3B22209  26.369  28.677   7.960
 1390POPC   C4B22210  26.204  28.864   7.625
 1391POPC   NC322211  21.824  11.559   9.400
 1391POPC   PO422212  22.500  11.430   9.419
 1391POPC   GL122213  22.213  11.289   9.080
 1391POPC   GL222214  22.273  10.930   8.999
 1391POPC   C1A22215  22.266  11.249   8.621
 1391POPC   D2A22216  22.513  11.209   8.262
 1391POPC   C3A22217  22.284  11.253   7.866
 1391POPC   C4A22218  21.980  11.479   7.600
 1391POPC   C1B22219  21.875  10.940   8.763
 1391POPC   C2B22220  21.765  11.206   8.412
 1391POPC   C3B22221  21.772  11.159   7.966
 1391POPC   C4B22222  21.921  10.993   7.572
 1392POPC   NC322223  18.027  29.914   9.637
 1392POPC   PO422224  18.661  30.106   9.569
 1392POPC   GL122225  18.379  30.030   9.236
 1392POPC   GL222226  18.181  30.321   9.313
 1392POPC   C1A22227  18.295  29.938   8.779
 1392POPC   D2A22228  18.219  29.822   8.326
 1392POPC   C3A22229  18.559  29.945   8.056
 1392POPC   C4A22230  18.428  29.983   7.644
 1392POPC   C1B22231  18.059  30.391   8.864
 1392POPC   C2B22232  18.161  30.310   8.402
 1392POPC   C3B22233  18.272  30.366   7.936
 1392POPC   C4B22234  18.100  30.385   7.498
 1393POPC   NC322235  27.610  37.021   9.572
 1393POPC   PO422236  27.970  36.593   9.250
 1393POPC   GL122237  27.530  36.775   9.090
 1393POPC   GL222238  27.325  37.094   9.147
 1393POPC   C1A22239  27.326  36.835   8.664
 1393POPC   D2A22240  27.210  36.749   8.211
 1393POPC   C3A22241  27.406  36.719   7.762
 1393POPC   C4A22242  27.391  36.558   7.316
 1393POPC   C1B22243  27.034  37.243   8.822
 1393POPC   C2B22244  27.242  37.305   8.447
 1393POPC   C3B22245  27.532  37.218   8.130
 1393POPC   C4B22246  27.346  37.228   7.766
 1394POPC   NC322247  31.909  10.214   9.659
 1394POPC   PO422248  32.370  10.591   9.559
 1394POPC   GL122249  32.410  10.343   9.151
 1394POPC   GL222250  32.695  10.139   9.108
 1394POPC   C1A22251  32.347  10.447   8.696
 1394POPC   D2A22252  32.378  10.621   8.263
 1394POPC   C3A22253  32.032  10.496   7.980
 1394POPC   C4A22254  31.794  10.538   7.598
 1394POPC   C1B22255  32.665   9.979   8.728
 1394POPC   C2B22256  32.622  10.163   8.347
 1394POPC   C3B22257  32.468  10.208   7.925
 1394POPC   C4B22258  32.240  10.252   7.527
 1395POPC   NC322259  24.008  10.091   9.314
 1395POPC   PO422260  23.686  10.640   9.581
 1395POPC   GL122261  23.545  10.711   9.182
 1395POPC   GL222262  23.559  10.360   9.098
 1395POPC   C1A22263  23.474  10.695   8.741
 1395POPC   D2A22264  23.426  10.453   8.400
 1395POPC   C3A22265  23.675  10.465   8.046
 1395POPC   C4A22266  23.478  10.606   7.708
 1395POPC   C1B22267  23.669  10.135   8.710
 1395POPC   C2B22268  23.846  10.050   8.300
 1395POPC   C3B22269  24.126  10.220   7.986
 1395POPC   C4B22270  23.993  10.423   7.636
 1396POPC   NC322271  15.829  22.148   9.668
 1396POPC   PO422272  15.733  22.809   9.438
 1396POPC   GL122273  15.689  22.365   9.206
 1396POPC   GL222274  15.944  22.132   9.151
 1396POPC   C1A22275  15.640  22.106   8.763
 1396POPC   D2A22276  15.999  22.043   8.453
 1396POPC   C3A22277  15.949  22.158   8.008
 1396POPC   C4A22278  15.669  22.033   7.659
 1396POPC   C1B22279  16.015  22.460   8.780
 1396POPC   C2B22280  16.260  22.471   8.342
 1396POPC   C3B22281  16.169  22.612   7.913
 1396POPC   C4B22282  15.837  22.524   7.594
 1397POPC   NC322283  26.863  36.421   9.273
 1397POPC   PO422284  27.124  36.959   9.595
 1397POPC   GL122285  26.838  36.941   9.162
 1397POPC   GL222286  26.476  37.104   9.157
 1397POPC   C1A22287  26.816  36.792   8.707
 1397POPC   D2A22288  26.789  37.020   8.295
 1397POPC   C3A22289  26.930  36.931   7.828
 1397POPC   C4A22290  26.929  36.566   7.533
 1397POPC   C1B22291  26.499  37.195   8.738
 1397POPC   C2B22292  26.342  37.258   8.311
 1397POPC   C3B22293  26.491  37.203   7.896
 1397POPC   C4B22294  26.788  37.341   7.566
 1398POPC   NC322295   6.986  32.818   9.536
 1398POPC   PO422296   7.561  32.398   9.443
 1398POPC   GL122297   7.335  32.220   9.084
 1398POPC   GL222298   7.041  32.064   9.243
 1398POPC   C1A22299   7.393  32.133   8.626
 1398POPC   D2A22300   7.198  32.243   8.230
 1398POPC   C3A22301   7.436  32.442   7.887
 1398POPC   C4A22302   7.772  32.353   7.594
 1398POPC   C1B22303   7.070  31.834   8.864
 1398POPC   C2B22304   7.062  31.762   8.438
 1398POPC   C3B22305   7.201  31.747   8.026
 1398POPC   C4B22306   7.486  31.936   7.728
 1399POPC   NC322307  21.416  14.879   9.476
 1399POPC   PO422308  21.529  15.504   9.707
 1399POPC   GL122309  21.514  15.344   9.238
 1399POPC   GL222310  21.800  15.328   9.059
 1399POPC   C1A22311  21.425  15.109   8.816
 1399POPC   D2A22312  21.344  14.799   8.494
 1399POPC   C3A22313  21.358  15.007   8.113
 1399POPC   C4A22314  21.542  15.219   7.786
 1399POPC   C1B22315  21.903  15.469   8.698
 1399POPC   C2B22316  21.710  15.320   8.366
 1399POPC   C3B22317  21.987  15.297   8.048
 1399POPC   C4B22318  22.131  15.258   7.630
 1400POPC   NC322319  39.139  40.636   9.680
 1400POPC   PO422320  38.424  40.675   9.629
 1400POPC   GL122321  38.331  40.640   9.204
 1400POPC   GL222322  38.672  40.688   9.075
 1400POPC   C1A22323  38.307  40.585   8.759
 1400POPC   D2A22324  38.578  40.694   8.434
 1400POPC   C3A22325  38.340  40.793   8.076
 1400POPC   C4A22326  38.293  40.753   7.660
 1400POPC   C1B22327  38.776  41.047   8.770
 1400POPC   C2B22328  38.797  41.262   8.374
 1400POPC   C3B22329  38.764  41.062   7.976
 1400POPC   C4B22330  38.567  41.196   7.599
 1401POPC   NC322331  37.190   1.881   9.649
 1401POPC   PO422332  36.619   2.086   9.600
 1401POPC   GL122333  36.798   1.885   9.224
 1401POPC   GL222334  37.160   1.803   9.160
 1401POPC   C1A22335  36.637   1.708   8.839
 1401POPC   D2A22336  36.661   1.935   8.451
 1401POPC   C3A22337  36.817   1.839   8.013
 1401POPC   C4A22338  36.705   2.142   7.702
 1401POPC   C1B22339  37.071   1.976   8.766
 1401POPC   C2B22340  37.169   2.051   8.334
 1401POPC   C3B22341  37.172   2.204   7.884
 1401POPC   C4B22342  37.287   2.032   7.491
 1402POPC   NC322343  41.990  25.690   9.434
 1402POPC   PO422344  42.536  26.108   9.536
 1402POPC   GL122345  42.350  25.969   9.184
 1402POPC   GL222346  42.048  26.158   9.225
 1402POPC   C1A22347  42.472  26.021   8.756
 1402POPC   D2A22348  42.437  25.968   8.316
 1402POPC   C3A22349  42.609  26.076   7.902
 1402POPC   C4A22350  42.674  25.788   7.545
 1402POPC   C1B22351  41.968  25.961   8.824
 1402POPC   C2B22352  41.958  25.826   8.396
 1402POPC   C3B22353  42.139  25.782   7.958
 1402POPC   C4B22354  41.910  25.615   7.642
 1403POPC   NC322355  42.674  40.257   9.527
 1403POPC   PO422356  42.241  39.749   9.518
 1403POPC   GL122357  42.455  39.926   9.185
 1403POPC   GL222358  42.325  40.253   9.141
 1403POPC   C1A22359  42.335  39.908   8.741
 1403POPC   D2A22360  42.520  40.040   8.359
 1403POPC   C3A22361  42.404  39.910   7.935
 1403POPC   C4A22362  42.328  39.891   7.468
 1403POPC   C1B22363  42.436  40.409   8.755
 1403POPC   C2B22364  42.242  40.456   8.370
 1403POPC   C3B22365  42.456  40.439   8.000
 1403POPC   C4B22366  42.308  40.378   7.611
 1404POPC   NC322367  21.396  37.484   9.614
 1404POPC   PO422368  21.502  36.771   9.511
 1404POPC   GL122369  21.482  36.888   9.113
 1404POPC   GL222370  21.363  37.190   9.109
 1404POPC   C1A22371  21.628  36.880   8.713
 1404POPC   D2A22372  21.845  36.727   8.342
 1404POPC   C3A22373  21.575  36.625   7.983
 1404POPC   C4A22374  21.371  36.821   7.614
 1404POPC   C1B22375  21.141  36.997   8.703
 1404POPC   C2B22376  21.305  37.047   8.264
 1404POPC   C3B22377  21.278  37.295   7.866
 1404POPC   C4B22378  21.215  37.304   7.405
 1405POPC   NC322379  28.844   2.081   9.498
 1405POPC   PO422380  29.454   1.690   9.556
 1405POPC   GL122381  29.356   2.028   9.259
 1405POPC   GL222382  29.091   2.003   9.016
 1405POPC   C1A22383  29.556   2.216   8.892
 1405POPC   D2A22384  29.717   2.214   8.460
 1405POPC   C3A22385  29.403   2.233   8.114
 1405POPC   C4A22386  29.275   2.209   7.672
 1405POPC   C1B22387  29.178   2.026   8.537
 1405POPC   C2B22388  29.010   1.885   8.109
 1405POPC   C3B22389  28.926   1.840   7.667
 1405POPC   C4B22390  29.224   1.855   7.310
 1406POPC   NC322391  32.948   0.989   9.429
 1406POPC   PO422392  33.581   1.389   9.566
 1406POPC   GL122393  33.203   1.392   9.207
 1406POPC   GL222394  32.926   1.646   9.211
 1406POPC   C1A22395  33.008   1.260   8.823
 1406POPC   D2A22396  33.097   1.310   8.399
 1406POPC   C3A22397  32.884   1.044   8.102
 1406POPC   C4A22398  33.222   0.959   7.829
 1406POPC   C1B22399  32.839   1.736   8.811
 1406POPC   C2B22400  32.630   1.533   8.475
 1406POPC   C3B22401  32.811   1.586   8.060
 1406POPC   C4B22402  32.961   1.380   7.708
 1407POPC   NC322403  21.453   7.970   9.502
 1407POPC   PO422404  21.819   8.570   9.507
 1407POPC   GL122405  21.730   8.276   9.168
 1407POPC   GL222406  21.403   8.345   9.163
 1407POPC   C1A22407  21.603   8.250   8.707
 1407POPC   D2A22408  21.403   8.461   8.365
 1407POPC   C3A22409  21.602   8.483   7.980
 1407POPC   C4A22410  21.457   8.262   7.666
 1407POPC   C1B22411  21.164   8.020   8.907
 1407POPC   C2B22412  21.223   7.951   8.471
 1407POPC   C3B22413  21.273   8.015   8.062
 1407POPC   C4B22414  21.103   7.882   7.653
 1408POPC   NC322415  42.862  27.478   9.801
 1408POPC   PO422416  43.235  27.936   9.452
 1408POPC   GL122417  42.970  27.594   9.261
 1408POPC   GL222418  42.610  27.624   9.294
 1408POPC   C1A22419  42.813  27.460   8.811
 1408POPC   D2A22420  42.809  27.409   8.301
 1408POPC   C3A22421  43.099  27.433   7.881
 1408POPC   C4A22422  43.348  27.659   7.529
 1408POPC   C1B22423  42.651  27.943   8.922
 1408POPC   C2B22424  42.587  27.862   8.432
 1408POPC   C3B22425  42.759  27.808   7.961
 1408POPC   C4B22426  42.849  27.695   7.500
 1409POPC   NC322427   5.475   9.946   9.718
 1409POPC   PO422428   5.384  10.563   9.383
 1409POPC   GL122429   5.053  10.486   9.106
 1409POPC   GL222430   4.833  10.182   9.194
 1409POPC   C1A22431   5.102  10.622   8.681
 1409POPC   D2A22432   4.980  10.902   8.387
 1409POPC   C3A22433   5.100  10.689   8.011
 1409POPC   C4A22434   5.247  10.412   7.685
 1409POPC   C1B22435   4.966  10.132   8.740
 1409POPC   C2B22436   5.094  10.228   8.287
 1409POPC   C3B22437   4.859  10.179   7.895
 1409POPC   C4B22438   4.805  10.404   7.448
 1410POPC   NC322439  24.415  22.504   9.743
 1410POPC   PO422440  24.592  23.111   9.495
 1410POPC   GL122441  24.335  23.010   9.154
 1410POPC   GL222442  24.474  22.742   9.150
 1410POPC   C1A22443  24.258  22.915   8.728
 1410POPC   D2A22444  24.489  23.059   8.416
 1410POPC   C3A22445  24.254  22.985   8.140
 1410POPC   C4A22446  24.371  23.025   7.800
 1410POPC   C1B22447  24.683  22.647   8.742
 1410POPC   C2B22448  24.495  22.550   8.355
 1410POPC   C3B22449  24.688  22.660   7.975
 1410POPC   C4B22450  24.558  22.649   7.539
 1411POPC   NC322451  16.923  15.923   9.452
 1411POPC   PO422452  16.273  15.721   9.646
 1411POPC   GL122453  16.463  15.795   9.240
 1411POPC   GL222454  16.569  16.142   9.160
 1411POPC   C1A22455  16.509  15.821   8.771
 1411POPC   D2A22456  16.334  15.887   8.345
 1411POPC   C3A22457  16.583  15.708   7.996
 1411POPC   C4A22458  16.642  15.758   7.551
 1411POPC   C1B22459  16.818  16.234   8.758
 1411POPC   C2B22460  16.702  16.462   8.345
 1411POPC   C3B22461  16.650  16.409   7.872
 1411POPC   C4B22462  16.892  16.385   7.481
 1412POPC   NC322463  43.605  40.997   9.480
 1412POPC   PO422464  43.015  40.574   9.430
 1412POPC   GL122465  43.341  40.682   9.168
 1412POPC   GL222466  43.206  40.973   9.099
 1412POPC   C1A22467  43.466  40.522   8.783
 1412POPC   D2A22468  43.475  40.635   8.363
 1412POPC   C3A22469  43.347  40.359   8.091
 1412POPC   C4A22470  42.963  40.524   7.931
 1412POPC   C1B22471  43.109  40.911   8.683
 1412POPC   C2B22472  43.210  41.079   8.308
 1412POPC   C3B22473  43.168  40.983   7.855
 1412POPC   C4B22474  43.246  41.353   7.612
 1413POPC   NC322475  35.072   0.016   9.698
 1413POPC   PO422476  35.462  44.488   9.613
 1413POPC   GL122477  35.271  44.574   9.221
 1413POPC   GL222478  35.065  44.889   9.210
 1413POPC   C1A22479  35.393  44.388   8.837
 1413POPC   D2A22480  35.610  44.529   8.486
 1413POPC   C3A22481  35.635  44.349   8.091
 1413POPC   C4A22482  35.731  44.545   7.718
 1413POPC   C1B22483  35.204  44.862   8.779
 1413POPC   C2B22484  35.123  44.663   8.383
 1413POPC   C3B22485  35.319  44.719   8.005
 1413POPC   C4B22486  35.204  44.853   7.636
 1414POPC   NC322487   2.694   7.555   9.537
 1414POPC   PO422488   3.247   7.117   9.454
 1414POPC   GL122489   2.845   7.199   9.217
 1414POPC   GL222490   3.032   7.462   9.127
 1414POPC   C1A22491   2.639   7.475   8.847
 1414POPC   D2A22492   2.536   7.367   8.458
 1414POPC   C3A22493   2.715   7.451   8.092
 1414POPC   C4A22494   2.639   7.223   7.742
 1414POPC   C1B22495   3.018   7.147   8.756
 1414POPC   C2B22496   2.922   7.029   8.322
 1414POPC   C3B22497   3.104   7.028   7.915
 1414POPC   C4B22498   3.098   7.304   7.535
 1415POPC   NC322499  35.974  28.910   9.501
 1415POPC   PO422500  36.340  29.490   9.453
 1415POPC   GL122501  36.331  29.319   9.075
 1415POPC   GL222502  35.987  29.193   9.077
 1415POPC   C1A22503  36.249  29.319   8.637
 1415POPC   D2A22504  36.105  29.056   8.308
 1415POPC   C3A22505  36.047  29.210   7.908
 1415POPC   C4A22506  35.863  29.595   7.806
 1415POPC   C1B22507  35.928  28.834   8.806
 1415POPC   C2B22508  35.769  28.710   8.440
 1415POPC   C3B22509  35.812  28.710   8.029
 1415POPC   C4B22510  35.900  28.804   7.615
 1416POPC   NC322511  17.787  23.535   9.645
 1416POPC   PO422512  17.111  23.670   9.461
 1416POPC   GL122513  17.229  23.590   9.095
 1416POPC   GL222514  17.543  23.702   9.181
 1416POPC   C1A22515  17.335  23.718   8.702
 1416POPC   D2A22516  17.631  23.879   8.439
 1416POPC   C3A22517  17.490  23.715   8.072
 1416POPC   C4A22518  17.455  24.091   7.889
 1416POPC   C1B22519  17.712  23.419   8.886
 1416POPC   C2B22520  17.881  23.428   8.487
 1416POPC   C3B22521  17.963  23.285   8.068
 1416POPC   C4B22522  17.607  23.288   7.777
 1417POPC   NC322523  38.302  14.314   9.583
 1417POPC   PO422524  38.972  14.079   9.520
 1417POPC   GL122525  38.671  14.355   9.240
 1417POPC   GL222526  38.361  14.180   9.089
 1417POPC   C1A22527  38.581  14.563   8.838
 1417POPC   D2A22528  38.772  14.464   8.443
 1417POPC   C3A22529  38.549  14.450   8.054
 1417POPC   C4A22530  38.493  14.737   7.715
 1417POPC   C1B22531  38.318  14.189   8.632
 1417POPC   C2B22532  38.206  14.554   8.427
 1417POPC   C3B22533  38.015  14.561   8.046
 1417POPC   C4B22534  38.075  14.225   7.770
 1418POPC   NC322535  15.401  37.374   9.630
 1418POPC   PO422536  14.868  37.821   9.632
 1418POPC   GL122537  15.180  37.731   9.314
 1418POPC   GL222538  15.034  37.959   9.133
 1418POPC   C1A22539  15.389  37.732   8.865
 1418POPC   D2A22540  15.326  37.981   8.440
 1418POPC   C3A22541  15.525  37.844   8.043
 1418POPC   C4A22542  15.473  37.532   7.699
 1418POPC   C1B22543  14.907  37.821   8.724
 1418POPC   C2B22544  14.762  37.806   8.301
 1418POPC   C3B22545  14.982  37.823   7.902
 1418POPC   C4B22546  15.269  37.973   7.608
 1419POPC   NC322547   9.556   6.557   9.603
 1419POPC   PO422548  10.092   6.934   9.580
 1419POPC   GL122549   9.903   6.630   9.230
 1419POPC   GL222550   9.538   6.551   9.113
 1419POPC   C1A22551   9.942   6.435   8.823
 1419POPC   D2A22552  10.103   6.452   8.415
 1419POPC   C3A22553   9.870   6.516   8.069
 1419POPC   C4A22554  10.052   6.531   7.665
 1419POPC   C1B22555   9.288   6.767   8.821
 1419POPC   C2B22556   9.290   6.617   8.415
 1419POPC   C3B22557   9.350   6.772   7.998
 1419POPC   C4B22558   9.553   6.721   7.628
 1420POPC   NC322559  21.905  28.706   9.704
 1420POPC   PO422560  21.892  27.928   9.528
 1420POPC   GL122561  22.136  28.277   9.298
 1420POPC   GL222562  21.983  28.605   9.226
 1420POPC   C1A22563  22.275  28.396   8.866
 1420POPC   D2A22564  22.091  28.268   8.485
 1420POPC   C3A22565  22.211  28.441   8.116
 1420POPC   C4A22566  22.373  28.263   7.751
 1420POPC   C1B22567  21.940  28.821   8.864
 1420POPC   C2B22568  22.054  28.835   8.438
 1420POPC   C3B22569  21.885  28.853   8.022
 1420POPC   C4B22570  22.148  28.709   7.682
 1421POPC   NC322571   6.021  22.499   9.566
 1421POPC   PO422572   5.494  22.135   9.575
 1421POPC   GL122573   5.750  22.243   9.181
 1421POPC   GL222574   6.131  22.252   9.148
 1421POPC   C1A22575   5.662  22.287   8.717
 1421POPC   D2A22576   5.712  21.995   8.341
 1421POPC   C3A22577   5.866  22.126   7.938
 1421POPC   C4A22578   6.264  22.008   7.763
 1421POPC   C1B22579   6.087  22.541   8.819
 1421POPC   C2B22580   6.083  22.400   8.408
 1421POPC   C3B22581   6.094  22.585   8.028
 1421POPC   C4B22582   6.144  22.483   7.637
 1422POPC   NC322583  26.426   5.318   9.504
 1422POPC   PO422584  25.759   5.348   9.510
 1422POPC   GL122585  26.043   5.174   9.187
 1422POPC   GL222586  26.227   4.888   9.248
 1422POPC   C1A22587  25.978   5.056   8.757
 1422POPC   D2A22588  26.227   5.120   8.405
 1422POPC   C3A22589  25.981   5.391   8.161
 1422POPC   C4A22590  25.855   5.399   7.718
 1422POPC   C1B22591  26.397   4.809   8.833
 1422POPC   C2B22592  26.417   4.627   8.438
 1422POPC   C3B22593  26.232   4.714   8.046
 1422POPC   C4B22594  26.268   5.110   7.868
 1423POPC   NC322595  19.539  25.032   9.512
 1423POPC   PO422596  20.185  24.890   9.687
 1423POPC   GL122597  20.067  25.075   9.286
 1423POPC   GL222598  19.829  25.347   9.205
 1423POPC   C1A22599  20.072  25.002   8.842
 1423POPC   D2A22600  19.842  25.020   8.441
 1423POPC   C3A22601  19.992  25.280   8.100
 1423POPC   C4A22602  20.032  25.135   7.688
 1423POPC   C1B22603  19.639  25.346   8.778
 1423POPC   C2B22604  19.524  25.411   8.329
 1423POPC   C3B22605  19.512  25.314   7.883
 1423POPC   C4B22606  19.571  25.591   7.556
 1424POPC   NC322607   5.057  22.217   9.435
 1424POPC   PO422608   5.326  21.653   9.234
 1424POPC   GL122609   5.010  21.870   9.077
 1424POPC   GL222610   5.281  22.100   9.015
 1424POPC   C1A22611   4.802  22.156   8.794
 1424POPC   D2A22612   4.790  22.389   8.417
 1424POPC   C3A22613   4.763  22.220   8.011
 1424POPC   C4A22614   4.830  22.102   7.598
 1424POPC   C1B22615   5.275  21.961   8.634
 1424POPC   C2B22616   5.262  22.241   8.313
 1424POPC   C3B22617   5.224  22.029   7.971
 1424POPC   C4B22618   5.487  21.774   7.865
 1425POPC   NC322619  14.792   6.301  10.008
 1425POPC   PO422620  15.295   6.481   9.548
 1425POPC   GL122621  15.204   6.647   9.181
 1425POPC   GL222622  14.860   6.620   9.200
 1425POPC   C1A22623  15.350   6.630   8.767
 1425POPC   D2A22624  15.447   6.423   8.363
 1425POPC   C3A22625  15.394   6.636   7.952
 1425POPC   C4A22626  15.290   6.799   7.508
 1425POPC   C1B22627  14.871   6.441   8.811
 1425POPC   C2B22628  14.944   6.605   8.404
 1425POPC   C3B22629  14.980   6.351   8.052
 1425POPC   C4B22630  15.143   6.323   7.644
 1426POPC   NC322631  23.154   4.510   9.434
 1426POPC   PO422632  22.769   3.973   9.666
 1426POPC   GL122633  22.734   4.266   9.237
 1426POPC   GL222634  23.040   4.251   9.021
 1426POPC   C1A22635  22.682   4.561   8.866
 1426POPC   D2A22636  22.847   4.658   8.459
 1426POPC   C3A22637  22.721   4.494   8.072
 1426POPC   C4A22638  23.012   4.447   7.736
 1426POPC   C1B22639  23.085   4.153   8.583
 1426POPC   C2B22640  23.044   4.113   8.136
 1426POPC   C3B22641  23.280   4.003   7.773
 1426POPC   C4B22642  23.252   4.208   7.345
 1427POPC   NC322643  24.949  32.352   9.596
 1427POPC   PO422644  25.618  32.355   9.422
 1427POPC   GL122645  25.242  32.292   9.161
 1427POPC   GL222646  24.914  32.465   9.121
 1427POPC   C1A22647  25.358  32.300   8.748
 1427POPC   D2A22648  25.559  32.157   8.370
 1427POPC   C3A22649  25.312  32.195   7.990
 1427POPC   C4A22650  25.430  32.448   7.614
 1427POPC   C1B22651  24.974  32.650   8.747
 1427POPC   C2B22652  25.098  32.506   8.362
 1427POPC   C3B22653  24.942  32.556   7.973
 1427POPC   C4B22654  24.944  32.450   7.537
 1428POPC   NC322655  19.759  19.576   9.515
 1428POPC   PO422656  20.398  19.949   9.411
 1428POPC   GL122657  20.031  19.919   9.154
 1428POPC   GL222658  20.091  19.558   9.145
 1428POPC   C1A22659  19.829  20.070   8.726
 1428POPC   D2A22660  19.590  20.043   8.300
 1428POPC   C3A22661  19.800  20.162   7.895
 1428POPC   C4A22662  20.068  20.228   7.506
 1428POPC   C1B22663  19.775  19.585   8.854
 1428POPC   C2B22664  19.776  19.517   8.441
 1428POPC   C3B22665  19.597  19.580   8.042
 1428POPC   C4B22666  19.683  19.495   7.608
 1429POPC   NC322667  43.446   4.503   9.555
 1429POPC   PO422668  42.868   4.228   9.568
 1429POPC   GL122669  43.111   4.115   9.183
 1429POPC   GL222670  43.297   3.817   9.234
 1429POPC   C1A22671  43.042   4.211   8.711
 1429POPC   D2A22672  42.924   4.173   8.246
 1429POPC   C3A22673  43.041   4.525   7.949
 1429POPC   C4A22674  43.208   4.745   7.559
 1429POPC   C1B22675  43.280   3.775   8.822
 1429POPC   C2B22676  43.338   3.893   8.408
 1429POPC   C3B22677  43.349   4.036   7.979
 1429POPC   C4B22678  43.194   4.209   7.575
 1430POPC   NC322679  28.580  21.424   9.700
 1430POPC   PO422680  28.010  21.102   9.615
 1430POPC   GL122681  28.214  21.297   9.252
 1430POPC   GL222682  28.105  21.609   9.041
 1430POPC   C1A22683  28.378  21.218   8.860
 1430POPC   D2A22684  28.512  21.334   8.455
 1430POPC   C3A22685  28.485  21.036   8.113
 1430POPC   C4A22686  28.599  21.179   7.694
 1430POPC   C1B22687  28.473  21.780   8.775
 1430POPC   C2B22688  28.583  21.880   8.327
 1430POPC   C3B22689  28.452  21.623   7.962
 1430POPC   C4B22690  28.169  21.475   7.625
 1431POPC   NC322691   8.641  27.705   9.812
 1431POPC   PO422692   9.215  27.691   9.552
 1431POPC   GL122693   9.027  27.490   9.182
 1431POPC   GL222694   8.714  27.304   9.208
 1431POPC   C1A22695   9.081  27.646   8.754
 1431POPC   D2A22696   9.100  27.943   8.410
 1431POPC   C3A22697   9.119  27.698   8.054
 1431POPC   C4A22698   8.969  27.317   7.887
 1431POPC   C1B22699   8.567  27.563   8.850
 1431POPC   C2B22700   8.657  27.650   8.395
 1431POPC   C3B22701   8.605  27.720   7.936
 1431POPC   C4B22702   8.834  27.631   7.507
 1432POPC   NC322703  15.735  43.439   9.342
 1432POPC   PO422704  16.140  42.873   9.530
 1432POPC   GL122705  16.095  43.071   9.151
 1432POPC   GL222706  16.293  43.341   9.012
 1432POPC   C1A22707  16.073  42.902   8.748
 1432POPC   D2A22708  15.736  42.934   8.441
 1432POPC   C3A22709  15.832  42.841   8.020
 1432POPC   C4A22710  15.676  43.093   7.703
 1432POPC   C1B22711  16.196  43.361   8.547
 1432POPC   C2B22712  15.915  43.343   8.167
 1432POPC   C3B22713  16.000  43.547   7.795
 1432POPC   C4B22714  16.129  43.533   7.376
 1433POPC   NC322715  20.472  19.490   9.499
 1433POPC   PO422716  20.941  19.838   9.729
 1433POPC   GL122717  20.867  19.808   9.229
 1433POPC   GL222718  20.595  19.598   9.023
 1433POPC   C1A22719  20.864  19.932   8.743
 1433POPC   D2A22720  20.612  19.973   8.336
 1433POPC   C3A22721  20.802  19.946   7.908
 1433POPC   C4A22722  20.853  19.745   7.492
 1433POPC   C1B22723  20.288  19.800   8.721
 1433POPC   C2B22724  20.091  19.910   8.307
 1433POPC   C3B22725  20.076  19.733   7.898
 1433POPC   C4B22726  20.367  19.831   7.586
 1434POPC   NC322727  41.693  43.249   9.460
 1434POPC   PO422728  41.128  43.660   9.284
 1434POPC   GL122729  41.342  43.307   9.062
 1434POPC   GL222730  41.433  42.955   9.129
 1434POPC   C1A22731  41.663  43.245   8.773
 1434POPC   D2A22732  41.493  43.323   8.384
 1434POPC   C3A22733  41.771  43.280   8.072
 1434POPC   C4A22734  41.821  43.219   7.682
 1434POPC   C1B22735  41.449  42.769   8.716
 1434POPC   C2B22736  41.228  42.864   8.327
 1434POPC   C3B22737  41.285  43.113   7.961
 1434POPC   C4B22738  41.426  42.912   7.571
 1435POPC   NC322739  26.724  17.854   9.483
 1435POPC   PO422740  26.891  17.244   9.715
 1435POPC   GL122741  26.907  17.143   9.242
 1435POPC   GL222742  26.627  17.363   9.150
 1435POPC   C1A22743  27.006  17.205   8.795
 1435POPC   D2A22744  26.967  17.418   8.405
 1435POPC   C3A22745  26.815  17.314   7.987
 1435POPC   C4A22746  27.028  17.714   7.841
 1435POPC   C1B22747  26.597  17.579   8.746
 1435POPC   C2B22748  26.474  17.504   8.300
 1435POPC   C3B22749  26.499  17.664   7.839
 1435POPC   C4B22750  26.451  17.615   7.326
 1436POPC   NC322751   7.846  26.038   9.343
 1436POPC   PO422752   7.227  25.948   9.476
 1436POPC   GL122753   7.279  25.931   9.075
 1436POPC   GL222754   7.448  26.216   9.044
 1436POPC   C1A22755   7.407  25.690   8.728
 1436POPC   D2A22756   7.658  25.723   8.357
 1436POPC   C3A22757   7.401  25.722   8.013
 1436POPC   C4A22758   7.306  25.681   7.598
 1436POPC   C1B22759   7.703  26.114   8.678
 1436POPC   C2B22760   7.675  26.225   8.219
 1436POPC   C3B22761   7.458  26.190   7.828
 1436POPC   C4B22762   7.106  26.174   7.569
 1437POPC   NC322763  22.849  36.967   9.583
 1437POPC   PO422764  23.429  37.131   9.328
 1437POPC   GL122765  23.083  36.911   9.092
 1437POPC   GL222766  22.688  36.816   9.134
 1437POPC   C1A22767  23.131  37.004   8.658
 1437POPC   D2A22768  23.363  36.900   8.329
 1437POPC   C3A22769  23.182  37.024   7.949
 1437POPC   C4A22770  22.975  36.773   7.666
 1437POPC   C1B22771  22.636  37.045   8.753
 1437POPC   C2B22772  22.750  37.087   8.297
 1437POPC   C3B22773  22.668  37.126   7.873
 1437POPC   C4B22774  22.456  36.889   7.586
 1438POPC   NC322775  22.482  18.271   9.575
 1438POPC   PO422776  23.195  18.264   9.536
 1438POPC   GL122777  23.001  18.122   9.162
 1438POPC   GL222778  22.745  17.946   9.263
 1438POPC   C1A22779  23.077  18.290   8.779
 1438POPC   D2A22780  23.126  18.272   8.364
 1438POPC   C3A22781  23.245  18.523   8.057
 1438POPC   C4A22782  23.488  18.198   7.912
 1438POPC   C1B22783  22.576  17.966   8.850
 1438POPC   C2B22784  22.624  18.139   8.441
 1438POPC   C3B22785  22.731  18.330   8.041
 1438POPC   C4B22786  22.681  18.377   7.606
 1439POPC   NC322787  44.398  36.157   9.315
 1439POPC   PO422788  44.970  36.430   9.466
 1439POPC   GL122789   0.027  36.126   9.126
 1439POPC   GL222790  44.743  35.867   9.055
 1439POPC   C1A22791  44.872  36.199   8.702
 1439POPC   D2A22792  44.604  36.131   8.372
 1439POPC   C3A22793  44.788  36.058   7.976
 1439POPC   C4A22794  44.840  36.225   7.583
 1439POPC   C1B22795  44.337  35.873   8.749
 1439POPC   C2B22796  44.116  35.987   8.334
 1439POPC   C3B22797  44.274  35.995   7.935
 1439POPC   C4B22798  44.350  35.661   7.664
 1440POPC   NC322799  42.447  37.429   9.724
 1440POPC   PO422800  42.399  36.682   9.650
 1440POPC   GL122801  42.379  36.870   9.233
 1440POPC   GL222802  42.418  37.233   9.254
 1440POPC   C1A22803  42.382  36.755   8.799
 1440POPC   D2A22804  42.533  36.682   8.372
 1440POPC   C3A22805  42.508  36.672   7.934
 1440POPC   C4A22806  42.215  36.794   7.604
 1440POPC   C1B22807  42.259  37.255   8.827
 1440POPC   C2B22808  42.449  37.197   8.412
 1440POPC   C3B22809  42.379  37.166   7.984
 1440POPC   C4B22810  42.520  37.187   7.521
 1441POPC   NC322811  40.104  14.718   9.472
 1441POPC   PO422812  39.867  14.166   9.766
 1441POPC   GL122813  40.144  14.229   9.312
 1441POPC   GL222814  40.097  13.989   9.036
 1441POPC   C1A22815  40.179  14.451   8.858
 1441POPC   D2A22816  40.258  14.331   8.383
 1441POPC   C3A22817  40.110  14.587   8.007
 1441POPC   C4A22818  39.697  14.737   7.774
 1441POPC   C1B22819  39.810  14.116   8.674
 1441POPC   C2B22820  39.608  14.030   8.264
 1441POPC   C3B22821  39.790  14.222   7.894
 1441POPC   C4B22822  40.237  14.120   7.800
 1442POPC   NC322823  37.447   1.434   9.424
 1442POPC   PO422824  37.418   0.766   9.365
 1442POPC   GL122825  37.606   1.053   9.102
 1442POPC   GL222826  37.842   0.868   8.952
 1442POPC   C1A22827  37.545   1.226   8.726
 1442POPC   D2A22828  37.301   1.122   8.394
 1442POPC   C3A22829  37.575   1.140   8.070
 1442POPC   C4A22830  37.778   1.458   7.831
 1442POPC   C1B22831  38.058   1.169   8.707
 1442POPC   C2B22832  38.006   1.280   8.297
 1442POPC   C3B22833  38.106   1.074   7.923
 1442POPC   C4B22834  38.093   1.267   7.492
 1443POPC   NC322835  18.399   5.193   9.451
 1443POPC   PO422836  18.667   5.738   9.347
 1443POPC   GL122837  18.471   5.440   9.034
 1443POPC   GL222838  18.090   5.336   9.076
 1443POPC   C1A22839  18.501   5.167   8.708
 1443POPC   D2A22840  18.436   5.342   8.312
 1443POPC   C3A22841  18.244   5.180   7.991
 1443POPC   C4A22842  18.465   5.082   7.671
 1443POPC   C1B22843  18.034   4.964   8.774
 1443POPC   C2B22844  18.280   4.815   8.393
 1443POPC   C3B22845  18.248   4.670   7.957
 1443POPC   C4B22846  17.975   4.881   7.645
 1444POPC   NC322847   6.985  37.997   9.708
 1444POPC   PO422848   6.672  37.413   9.691
 1444POPC   GL122849   6.656  37.538   9.223
 1444POPC   GL222850   6.658  37.872   9.271
 1444POPC   C1A22851   6.614  37.387   8.786
 1444POPC   D2A22852   6.545  37.114   8.433
 1444POPC   C3A22853   6.356  37.329   8.116
 1444POPC   C4A22854   6.661  37.470   7.822
 1444POPC   C1B22855   6.766  37.903   8.827
 1444POPC   C2B22856   6.854  37.709   8.437
 1444POPC   C3B22857   6.922  37.866   8.048
 1444POPC   C4B22858   6.759  37.963   7.652
 1445POPC   NC322859  37.567  42.835   9.425
 1445POPC   PO422860  37.812  43.521   9.522
 1445POPC   GL122861  37.700  43.273   9.195
 1445POPC   GL222862  37.975  43.045   9.169
 1445POPC   C1A22863  37.579  43.193   8.775
 1445POPC   D2A22864  37.392  43.319   8.388
 1445POPC   C3A22865  37.622  43.177   8.031
 1445POPC   C4A22866  37.597  43.379   7.660
 1445POPC   C1B22867  37.980  42.834   8.800
 1445POPC   C2B22868  37.950  42.971   8.392
 1445POPC   C3B22869  38.014  42.812   7.984
 1445POPC   C4B22870  37.872  42.963   7.589
 1446POPC   NC322871  37.567   2.447   9.147
 1446POPC   PO422872  37.693   1.914   9.574
 1446POPC   GL122873  37.703   1.800   9.151
 1446POPC   GL222874  37.894   1.519   9.026
 1446POPC   C1A22875  37.520   1.749   8.745
 1446POPC   D2A22876  37.541   1.578   8.338
 1446POPC   C3A22877  37.482   1.828   7.984
 1446POPC   C4A22878  37.810   1.999   7.779
 1446POPC   C1B22879  38.032   1.688   8.619
 1446POPC   C2B22880  38.004   2.019   8.290
 1446POPC   C3B22881  38.062   2.382   8.006
 1446POPC   C4B22882  38.125   2.391   7.577
 1447POPC   NC322883  24.084  35.664   9.346
 1447POPC   PO422884  24.576  35.439   9.659
 1447POPC   GL122885  24.472  35.102   9.326
 1447POPC   GL222886  24.101  35.142   9.227
 1447POPC   C1A22887  24.521  35.138   8.869
 1447POPC   D2A22888  24.302  35.340   8.492
 1447POPC   C3A22889  24.526  35.483   8.111
 1447POPC   C4A22890  24.439  35.722   7.720
 1447POPC   C1B22891  24.029  35.007   8.805
 1447POPC   C2B22892  24.045  34.898   8.394
 1447POPC   C3B22893  24.269  35.011   8.054
 1447POPC   C4B22894  24.167  35.279   7.737
 1448POPC   NC322895   2.716  39.738   9.653
 1448POPC   PO422896   2.930  39.088   9.560
 1448POPC   GL122897   2.991  39.149   9.106
 1448POPC   GL222898   2.969  39.503   9.020
 1448POPC   C1A22899   3.117  39.101   8.688
 1448POPC   D2A22900   2.908  39.194   8.295
 1448POPC   C3A22901   2.900  38.905   7.954
 1448POPC   C4A22902   2.807  39.142   7.605
 1448POPC   C1B22903   2.738  39.533   8.632
 1448POPC   C2B22904   2.481  39.711   8.248
 1448POPC   C3B22905   2.513  39.509   7.842
 1448POPC   C4B22906   2.530  39.505   7.355
 1449POPC   NC322907  43.630  31.195   9.650
 1449POPC   PO422908  44.028  31.579   9.318
 1449POPC   GL122909  43.795  31.745   9.038
 1449POPC   GL222910  43.735  31.406   8.945
 1449POPC   C1A22911  43.805  31.786   8.601
 1449POPC   D2A22912  43.622  31.594   8.291
 1449POPC   C3A22913  43.792  31.655   7.914
 1449POPC   C4A22914  44.265  31.625   7.830
 1449POPC   C1B22915  44.108  31.390   8.665
 1449POPC   C2B22916  44.095  31.363   8.232
 1449POPC   C3B22917  44.040  31.170   7.827
 1449POPC   C4B22918  43.612  31.129   7.700
 1450POPC   NC322919  18.867   0.388   9.508
 1450POPC   PO422920  19.477   0.142   9.362
 1450POPC   GL122921  19.130   0.114   9.086
 1450POPC   GL222922  19.099   0.483   9.053
 1450POPC   C1A22923  18.916   0.198   8.667
 1450POPC   D2A22924  18.810   0.455   8.307
 1450POPC   C3A22925  19.163   0.459   8.059
 1450POPC   C4A22926  19.285   0.248   7.704
 1450POPC   C1B22927  18.758   0.691   8.813
 1450POPC   C2B22928  18.654   0.950   8.431
 1450POPC   C3B22929  18.615   0.851   7.962
 1450POPC   C4B22930  19.015   0.813   7.737
 1451POPC   NC322931  37.533  41.305   9.362
 1451POPC   PO422932  37.983  41.783   9.495
 1451POPC   GL122933  37.832  41.662   9.133
 1451POPC   GL222934  37.994  41.349   9.170
 1451POPC   C1A22935  37.471  41.743   8.870
 1451POPC   D2A22936  37.428  41.619   8.473
 1451POPC   C3A22937  37.321  41.847   8.112
 1451POPC   C4A22938  37.407  41.762   7.675
 1451POPC   C1B22939  37.808  41.307   8.758
 1451POPC   C2B22940  37.913  41.480   8.392
 1451POPC   C3B22941  37.697  41.474   8.033
 1451POPC   C4B22942  37.889  41.577   7.699
 1452POPC   NC322943  13.469   6.526   9.488
 1452POPC   PO422944  13.895   7.073   9.719
 1452POPC   GL122945  13.745   6.912   9.250
 1452POPC   GL222946  13.838   6.635   9.146
 1452POPC   C1A22947  13.801   6.999   8.761
 1452POPC   D2A22948  13.668   6.735   8.360
 1452POPC   C3A22949  13.677   6.785   7.877
 1452POPC   C4A22950  13.804   7.035   7.516
 1452POPC   C1B22951  13.739   6.455   8.792
 1452POPC   C2B22952  13.981   6.290   8.488
 1452POPC   C3B22953  13.925   6.102   8.094
 1452POPC   C4B22954  13.760   6.294   7.738
 1453POPC   NC322955  44.493  13.457   9.394
 1453POPC   PO422956   0.237  13.390   9.439
 1453POPC   GL122957  44.914  13.413   9.129
 1453POPC   GL222958  44.820  13.767   9.127
 1453POPC   C1A22959  44.624  13.507   8.747
 1453POPC   D2A22960  44.677  13.716   8.361
 1453POPC   C3A22961  44.532  13.610   7.968
 1453POPC   C4A22962  44.666  13.388   7.651
 1453POPC   C1B22963  44.936  13.976   8.764
 1453POPC   C2B22964  44.979  14.162   8.350
 1453POPC   C3B22965   0.004  13.947   7.949
 1453POPC   C4B22966   0.080  13.994   7.435
 1454POPC   NC322967  16.789  34.253   9.574
 1454POPC   PO422968  16.949  33.630   9.554
 1454POPC   GL122969  17.154  33.684   9.199
 1454POPC   GL222970  17.172  34.016   9.255
 1454POPC   C1A22971  17.102  33.479   8.801
 1454POPC   D2A22972  16.868  33.405   8.401
 1454POPC   C3A22973  16.934  33.631   8.011
 1454POPC   C4A22974  16.756  33.678   7.576
 1454POPC   C1B22975  16.919  34.072   8.843
 1454POPC   C2B22976  16.801  34.143   8.364
 1454POPC   C3B22977  16.608  34.028   7.927
 1454POPC   C4B22978  16.578  34.197   7.486
 1455POPC   NC322979   6.182   7.724   9.553
 1455POPC   PO422980   6.803   7.433   9.547
 1455POPC   GL122981   6.599   7.359   9.180
 1455POPC   GL222982   6.449   7.697   9.104
 1455POPC   C1A22983   6.690   7.133   8.808
 1455POPC   D2A22984   6.838   7.262   8.422
 1455POPC   C3A22985   6.650   7.334   8.050
 1455POPC   C4A22986   6.687   7.185   7.639
 1455POPC   C1B22987   6.784   7.654   8.783
 1455POPC   C2B22988   6.702   7.787   8.371
 1455POPC   C3B22989   6.333   7.843   8.074
 1455POPC   C4B22990   6.471   7.671   7.707
 1456POPC   NC322991  15.997   4.493   9.456
 1456POPC   PO422992  16.642   4.172   9.465
 1456POPC   GL122993  16.664   4.365   9.061
 1456POPC   GL222994  16.473   4.690   9.122
 1456POPC   C1A22995  16.925   4.258   8.706
 1456POPC   D2A22996  17.096   4.080   8.310
 1456POPC   C3A22997  16.770   3.965   8.036
 1456POPC   C4A22998  16.698   4.029   7.611
 1456POPC   C1B22999  16.683   4.722   8.690
 1456POPC   C2B23000  16.786   4.530   8.285
 1456POPC   C3B23001  16.668   4.491   7.848
 1456POPC   C4B23002  16.522   4.543   7.423
 1457POPC   NC323003   6.578  39.650   9.582
 1457POPC   PO423004   6.883  40.271   9.637
 1457POPC   GL123005   6.717  40.027   9.243
 1457POPC   GL223006   6.381  39.877   9.187
 1457POPC   C1A23007   6.562  40.143   8.805
 1457POPC   D2A23008   6.823  40.046   8.440
 1457POPC   C3A23009   6.616  40.050   8.044
 1457POPC   C4A23010   6.847  40.038   7.697
 1457POPC   C1B23011   6.268  39.712   8.781
 1457POPC   C2B23012   6.455  39.693   8.399
 1457POPC   C3B23013   6.273  39.629   8.004
 1457POPC   C4B23014   6.485  39.680   7.639
 1458POPC   NC323015   1.228  36.958   9.537
 1458POPC   PO423016   0.815  37.388   9.206
 1458POPC   GL123017   1.050  37.048   9.056
 1458POPC   GL223018   1.445  36.980   9.077
 1458POPC   C1A23019   1.182  37.074   8.642
 1458POPC   D2A23020   1.300  37.279   8.272
 1458POPC   C3A23021   1.113  37.023   7.971
 1458POPC   C4A23022   1.199  36.861   7.608
 1458POPC   C1B23023   1.448  36.661   8.729
 1458POPC   C2B23024   1.469  36.776   8.297
 1458POPC   C3B23025   1.456  36.551   7.915
 1458POPC   C4B23026   1.517  36.475   7.467
 1459POPC   NC323027   2.502  34.186   9.491
 1459POPC   PO423028   2.390  33.489   9.538
 1459POPC   GL123029   2.589  33.769   9.204
 1459POPC   GL223030   2.388  34.041   9.009
 1459POPC   C1A23031   2.799  33.852   8.813
 1459POPC   D2A23032   2.586  33.847   8.426
 1459POPC   C3A23033   2.862  33.743   8.117
 1459POPC   C4A23034   2.858  33.626   7.720
 1459POPC   C1B23035   2.285  34.209   8.613
 1459POPC   C2B23036   2.257  34.164   8.169
 1459POPC   C3B23037   2.558  34.078   7.845
 1459POPC   C4B23038   2.997  34.097   7.744
 1460POPC   NC323039   0.107  11.068   9.495
 1460POPC   PO423040   0.736  11.138   9.561
 1460POPC   GL123041   0.465  11.315   9.200
 1460POPC   GL223042   0.210  11.110   9.014
 1460POPC   C1A23043   0.291  11.547   8.815
 1460POPC   D2A23044   0.407  11.415   8.395
 1460POPC   C3A23045   0.375  11.595   7.979
 1460POPC   C4A23046   0.517  11.482   7.551
 1460POPC   C1B23047   0.222  10.846   8.679
 1460POPC   C2B23048   0.161  10.998   8.278
 1460POPC   C3B23049   0.336  11.080   7.880
 1460POPC   C4B23050   0.220  10.932   7.484
 1461POPC   NC323051   7.177  36.120   9.679
 1461POPC   PO423052   6.946  35.719   9.231
 1461POPC   GL123053   7.279  36.001   9.123
 1461POPC   GL223054   7.231  36.303   9.148
 1461POPC   C1A23055   7.576  36.193   8.800
 1461POPC   D2A23056   7.633  36.012   8.418
 1461POPC   C3A23057   7.698  36.262   8.050
 1461POPC   C4A23058   7.613  35.930   7.744
 1461POPC   C1B23059   7.099  36.332   8.702
 1461POPC   C2B23060   7.191  36.228   8.238
 1461POPC   C3B23061   7.237  36.293   7.767
 1461POPC   C4B23062   7.306  36.458   7.311
 1462POPC   NC323063  33.518  23.599   9.451
 1462POPC   PO423064  32.835  23.535   9.500
 1462POPC   GL123065  33.119  23.635   9.143
 1462POPC   GL223066  33.308  23.962   9.158
 1462POPC   C1A23067  33.333  23.649   8.737
 1462POPC   D2A23068  33.171  23.479   8.347
 1462POPC   C3A23069  32.949  23.626   7.998
 1462POPC   C4A23070  33.109  23.706   7.594
 1462POPC   C1B23071  32.987  24.015   8.827
 1462POPC   C2B23072  33.076  23.971   8.390
 1462POPC   C3B23073  33.311  23.975   7.998
 1462POPC   C4B23074  33.205  24.236   7.625
 1463POPC   NC323075   6.376   3.610   9.532
 1463POPC   PO423076   5.709   3.535   9.453
 1463POPC   GL123077   5.980   3.321   9.194
 1463POPC   GL223078   6.114   3.578   9.097
 1463POPC   C1A23079   5.947   3.277   8.719
 1463POPC   D2A23080   5.695   3.513   8.365
 1463POPC   C3A23081   5.628   3.352   7.900
 1463POPC   C4A23082   5.567   3.346   7.401
 1463POPC   C1B23083   5.899   3.862   8.804
 1463POPC   C2B23084   5.953   3.984   8.380
 1463POPC   C3B23085   5.917   3.798   7.973
 1463POPC   C4B23086   5.960   3.639   7.544
 1464POPC   NC323087  24.034   5.447   9.837
 1464POPC   PO423088  23.583   5.847   9.861
 1464POPC   GL123089  23.667   5.811   9.344
 1464POPC   GL223090  23.337   5.690   9.199
 1464POPC   C1A23091  23.577   6.004   8.889
 1464POPC   D2A23092  23.676   5.818   8.488
 1464POPC   C3A23093  23.842   6.029   8.143
 1464POPC   C4A23094  24.044   5.848   7.774
 1464POPC   C1B23095  23.662   5.487   8.910
 1464POPC   C2B23096  23.697   5.310   8.470
 1464POPC   C3B23097  23.746   5.516   8.051
 1464POPC   C4B23098  23.470   5.823   7.850
 1465POPC   NC323099   8.749   3.466   9.404
 1465POPC   PO423100   9.406   3.655   9.493
 1465POPC   GL123101   9.173   3.641   9.144
 1465POPC   GL223102   9.160   3.267   9.131
 1465POPC   C1A23103   8.929   3.580   8.772
 1465POPC   D2A23104   9.084   3.436   8.409
 1465POPC   C3A23105   8.889   3.613   8.087
 1465POPC   C4A23106   8.867   3.618   7.697
 1465POPC   C1B23107   8.956   3.065   8.758
 1465POPC   C2B23108   8.998   2.937   8.319
 1465POPC   C3B23109   9.163   3.153   7.971
 1465POPC   C4B23110   9.036   3.170   7.568
 1466POPC   NC323111  14.570  37.432   9.601
 1466POPC   PO423112  14.462  38.096   9.813
 1466POPC   GL123113  14.514  37.850   9.289
 1466POPC   GL223114  14.722  37.553   9.136
 1466POPC   C1A23115  14.401  37.875   8.852
 1466POPC   D2A23116  14.120  37.688   8.529
 1466POPC   C3A23117  14.318  37.566   8.147
 1466POPC   C4A23118  14.153  37.529   7.733
 1466POPC   C1B23119  14.600  37.406   8.703
 1466POPC   C2B23120  14.737  37.282   8.266
 1466POPC   C3B23121  14.672  37.383   7.810
 1466POPC   C4B23122  14.648  37.493   7.371
 1467POPC   NC323123  38.999  43.811   9.608
 1467POPC   PO423124  38.409  44.099   9.782
 1467POPC   GL123125  38.475  43.922   9.318
 1467POPC   GL223126  38.785  43.732   9.163
 1467POPC   C1A23127  38.365  43.819   8.883
 1467POPC   D2A23128  38.625  43.631   8.581
 1467POPC   C3A23129  38.525  43.787   8.172
 1467POPC   C4A23130  38.373  44.024   7.804
 1467POPC   C1B23131  38.817  44.065   8.889
 1467POPC   C2B23132  38.617  44.198   8.526
 1467POPC   C3B23133  38.740  44.238   8.104
 1467POPC   C4B23134  38.773  44.334   7.703
 1468POPC   NC323135  14.831  42.880   9.848
 1468POPC   PO423136  15.273  43.369   9.485
 1468POPC   GL123137  15.243  43.008   9.257
 1468POPC   GL223138  14.946  43.134   9.065
 1468POPC   C1A23139  15.375  42.943   8.846
 1468POPC   D2A23140  15.147  43.113   8.501
 1468POPC   C3A23141  15.320  43.090   8.093
 1468POPC   C4A23142  15.156  42.939   7.707
 1468POPC   C1B23143  14.715  43.324   8.735
 1468POPC   C2B23144  14.811  43.462   8.331
 1468POPC   C3B23145  14.766  43.239   7.920
 1468POPC   C4B23146  14.757  43.202   7.450
 1469POPC   NC323147  35.451  13.100   9.520
 1469POPC   PO423148  35.112  12.480   9.435
 1469POPC   GL123149  35.441  12.725   9.177
 1469POPC   GL223150  35.366  13.093   9.031
 1469POPC   C1A23151  35.680  12.804   8.779
 1469POPC   D2A23152  35.484  13.047   8.423
 1469POPC   C3A23153  35.664  13.021   7.983
 1469POPC   C4A23154  35.480  12.787   7.640
 1469POPC   C1B23155  35.166  12.791   8.756
 1469POPC   C2B23156  35.012  12.750   8.352
 1469POPC   C3B23157  35.151  12.979   8.002
 1469POPC   C4B23158  35.030  13.005   7.586
 1470POPC   NC323159   2.187  16.426   9.491
 1470POPC   PO423160   1.773  16.955   9.379
 1470POPC   GL123161   1.866  16.580   9.115
 1470POPC   GL223162   2.237  16.575   9.010
 1470POPC   C1A23163   1.865  16.581   8.666
 1470POPC   D2A23164   2.125  16.646   8.307
 1470POPC   C3A23165   2.002  16.447   7.902
 1470POPC   C4A23166   1.895  16.660   7.480
 1470POPC   C1B23167   2.159  16.975   8.740
 1470POPC   C2B23168   1.947  17.108   8.319
 1470POPC   C3B23169   1.974  16.970   7.873
 1470POPC   C4B23170   2.181  17.106   7.445
 1471POPC   NC323171  29.546   5.875   9.539
 1471POPC   PO423172  30.180   5.981   9.641
 1471POPC   GL123173  30.065   5.906   9.211
 1471POPC   GL223174  29.745   6.066   9.086
 1471POPC   C1A23175  30.142   5.861   8.757
 1471POPC   D2A23176  29.970   6.150   8.399
 1471POPC   C3A23177  30.147   6.172   7.961
 1471POPC   C4A23178  30.174   5.904   7.591
 1471POPC   C1B23179  29.636   5.838   8.688
 1471POPC   C2B23180  29.612   5.800   8.244
 1471POPC   C3B23181  29.709   5.742   7.824
 1471POPC   C4B23182  29.785   5.623   7.414
 1472POPC   NC323183  10.685  35.892   9.294
 1472POPC   PO423184  10.833  35.407   9.667
 1472POPC   GL123185  11.014  35.504   9.225
 1472POPC   GL223186  11.348  35.622   9.174
 1472POPC   C1A23187  11.100  35.398   8.760
 1472POPC   D2A23188  11.306  35.475   8.313
 1472POPC   C3A23189  11.122  35.413   7.847
 1472POPC   C4A23190  10.983  35.450   7.385
 1472POPC   C1B23191  11.486  35.756   8.753
 1472POPC   C2B23192  11.372  35.978   8.382
 1472POPC   C3B23193  11.279  35.884   7.966
 1472POPC   C4B23194  11.498  35.960   7.583
 1473POPC   NC323195  24.760  39.706   9.333
 1473POPC   PO423196  24.212  39.945   9.403
 1473POPC   GL123197  24.270  40.030   9.043
 1473POPC   GL223198  24.342  40.383   9.104
 1473POPC   C1A23199  24.476  39.760   8.753
 1473POPC   D2A23200  24.742  39.799   8.435
 1473POPC   C3A23201  24.453  39.673   8.150
 1473POPC   C4A23202  24.459  39.890   7.780
 1473POPC   C1B23203  24.567  40.262   8.714
 1473POPC   C2B23204  24.384  40.149   8.313
 1473POPC   C3B23205  24.236  40.360   7.947
 1473POPC   C4B23206  24.363  40.409   7.514
 1474POPC   NC323207  39.679  37.042   9.508
 1474POPC   PO423208  39.092  36.739   9.373
 1474POPC   GL123209  39.282  37.049   9.140
 1474POPC   GL223210  39.518  36.819   9.082
 1474POPC   C1A23211  39.237  37.241   8.721
 1474POPC   D2A23212  39.249  37.111   8.263
 1474POPC   C3A23213  39.057  37.114   7.843
 1474POPC   C4A23214  39.421  37.041   7.540
 1474POPC   C1B23215  39.499  36.632   8.694
 1474POPC   C2B23216  39.232  36.591   8.337
 1474POPC   C3B23217  39.327  36.690   7.936
 1474POPC   C4B23218  39.455  36.457   7.588
 1475POPC   NC323219   4.867  27.330   9.482
 1475POPC   PO423220   5.393  27.746   9.510
 1475POPC   GL123221   5.405  27.423   9.180
 1475POPC   GL223222   5.066  27.458   9.028
 1475POPC   C1A23223   5.423  27.252   8.746
 1475POPC   D2A23224   5.328  27.470   8.381
 1475POPC   C3A23225   5.366  27.291   7.976
 1475POPC   C4A23226   5.375  27.624   7.676
 1475POPC   C1B23227   4.850  27.365   8.601
 1475POPC   C2B23228   4.872  27.405   8.128
 1475POPC   C3B23229   4.920  27.789   7.842
 1475POPC   C4B23230   4.910  28.150   7.512
 1476POPC   NC323231  16.613  18.750   9.476
 1476POPC   PO423232  17.020  19.297   9.495
 1476POPC   GL123233  16.886  19.030   9.161
 1476POPC   GL223234  17.003  18.686   9.125
 1476POPC   C1A23235  16.626  18.919   8.797
 1476POPC   D2A23236  16.433  19.104   8.399
 1476POPC   C3A23237  16.538  19.027   7.945
 1476POPC   C4A23238  16.555  19.342   7.590
 1476POPC   C1B23239  17.123  18.886   8.728
 1476POPC   C2B23240  17.269  18.893   8.338
 1476POPC   C3B23241  17.051  19.014   7.979
 1476POPC   C4B23242  16.893  18.931   7.562
 1477POPC   NC323243  28.188  33.317   9.525
 1477POPC   PO423244  28.460  32.704   9.522
 1477POPC   GL123245  28.279  32.925   9.195
 1477POPC   GL223246  28.515  33.178   9.157
 1477POPC   C1A23247  28.346  32.881   8.756
 1477POPC   D2A23248  28.079  32.776   8.404
 1477POPC   C3A23249  28.262  32.726   8.009
 1477POPC   C4A23250  28.311  32.924   7.637
 1477POPC   C1B23251  28.294  33.390   8.821
 1477POPC   C2B23252  28.465  33.456   8.398
 1477POPC   C3B23253  28.316  33.250   8.059
 1477POPC   C4B23254  28.083  33.377   7.732
 1478POPC   NC323255  37.267  15.483   9.329
 1478POPC   PO423256  36.853  15.985   9.658
 1478POPC   GL123257  36.783  16.053   9.204
 1478POPC   GL223258  37.120  15.971   9.185
 1478POPC   C1A23259  36.825  16.025   8.780
 1478POPC   D2A23260  36.720  15.827   8.423
 1478POPC   C3A23261  36.847  15.994   8.035
 1478POPC   C4A23262  36.744  15.776   7.707
 1478POPC   C1B23263  37.258  15.757   8.749
 1478POPC   C2B23264  37.268  15.888   8.313
 1478POPC   C3B23265  37.221  15.689   7.877
 1478POPC   C4B23266  37.163  15.797   7.414
 1479POPC   NC323267   5.022  11.724   9.529
 1479POPC   PO423268   5.361  12.330   9.531
 1479POPC   GL123269   5.128  12.128   9.171
 1479POPC   GL223270   4.766  12.144   9.125
 1479POPC   C1A23271   5.057  12.019   8.719
 1479POPC   D2A23272   5.239  11.779   8.375
 1479POPC   C3A23273   5.312  12.012   7.998
 1479POPC   C4A23274   5.143  11.993   7.562
 1479POPC   C1B23275   4.650  12.348   8.735
 1479POPC   C2B23276   4.778  12.356   8.292
 1479POPC   C3B23277   4.790  12.181   7.885
 1479POPC   C4B23278   4.840  12.376   7.435
 1480POPC   NC323279  44.891  32.242   9.368
 1480POPC   PO423280   0.501  32.355   9.687
 1480POPC   GL123281   0.362  32.318   9.225
 1480POPC   GL223282   0.324  32.018   9.098
 1480POPC   C1A23283   0.490  32.364   8.780
 1480POPC   D2A23284   0.328  32.365   8.399
 1480POPC   C3A23285   0.559  32.506   8.072
 1480POPC   C4A23286   0.576  32.126   7.864
 1480POPC   C1B23287   0.048  32.079   8.731
 1480POPC   C2B23288  44.898  32.080   8.292
 1480POPC   C3B23289   0.063  32.072   7.868
 1480POPC   C4B23290   0.017  32.099   7.392
 1481POPC   NC323291  23.414  41.729   9.491
 1481POPC   PO423292  22.771  41.431   9.529
 1481POPC   GL123293  23.028  41.307   9.143
 1481POPC   GL223294  23.274  41.553   9.032
 1481POPC   C1A23295  22.942  41.378   8.672
 1481POPC   D2A23296  22.695  41.513   8.281
 1481POPC   C3A23297  22.758  41.377   7.836
 1481POPC   C4A23298  23.016  41.488   7.513
 1481POPC   C1B23299  23.128  41.875   8.726
 1481POPC   C2B23300  22.917  41.994   8.323
 1481POPC   C3B23301  22.855  41.873   7.889
 1481POPC   C4B23302  23.023  41.976   7.451
 1482POPC   NC323303  11.149   8.141   9.598
 1482POPC   PO423304  11.662   8.649   9.549
 1482POPC   GL123305  11.511   8.317   9.253
 1482POPC   GL223306  11.140   8.297   9.118
 1482POPC   C1A23307  11.555   8.154   8.846
 1482POPC   D2A23308  11.505   7.962   8.450
 1482POPC   C3A23309  11.772   8.044   8.122
 1482POPC   C4A23310  11.644   8.266   7.793
 1482POPC   C1B23311  10.932   7.943   8.888
 1482POPC   C2B23312  10.983   7.855   8.423
 1482POPC   C3B23313  11.177   8.134   8.091
 1482POPC   C4B23314  11.107   8.497   7.825
 1483POPC   NC323315   9.857  18.795   9.228
 1483POPC   PO423316  10.013  18.282   9.619
 1483POPC   GL123317   9.867  18.243   9.171
 1483POPC   GL223318   9.553  18.396   9.093
 1483POPC   C1A23319   9.896  18.211   8.688
 1483POPC   D2A23320  10.077  18.123   8.250
 1483POPC   C3A23321   9.993  18.344   7.859
 1483POPC   C4A23322   9.768  18.269   7.486
 1483POPC   C1B23323   9.530  18.563   8.651
 1483POPC   C2B23324   9.691  18.492   8.233
 1483POPC   C3B23325   9.549  18.612   7.795
 1483POPC   C4B23326   9.522  18.683   7.311
 1484POPC   NC323327   5.494  36.712   9.371
 1484POPC   PO423328   5.974  37.082   9.734
 1484POPC   GL123329   5.920  36.998   9.241
 1484POPC   GL223330   5.843  36.660   9.037
 1484POPC   C1A23331   5.744  37.065   8.793
 1484POPC   D2A23332   6.037  37.057   8.449
 1484POPC   C3A23333   5.961  36.923   8.046
 1484POPC   C4A23334   5.824  36.932   7.641
 1484POPC   C1B23335   5.558  36.556   8.688
 1484POPC   C2B23336   5.530  36.692   8.256
 1484POPC   C3B23337   5.636  36.514   7.864
 1484POPC   C4B23338   5.510  36.565   7.407
 1485POPC   NC323339  12.146  25.193   9.227
 1485POPC   PO423340  11.684  25.532   9.512
 1485POPC   GL123341  11.913  25.616   9.088
 1485POPC   GL223342  11.870  25.297   8.841
 1485POPC   C1A23343  12.178  25.665   8.714
 1485POPC   D2A23344  12.212  25.324   8.407
 1485POPC   C3A23345  12.258  25.473   7.982
 1485POPC   C4A23346  12.129  25.354   7.570
 1485POPC   C1B23347  11.554  25.004   8.783
 1485POPC   C2B23348  11.457  25.138   8.388
 1485POPC   C3B23349  11.463  25.020   7.980
 1485POPC   C4B23350  11.724  25.004   7.616
 1486POPC   NC323351  23.883  15.394   9.593
 1486POPC   PO423352  24.139  14.773   9.507
 1486POPC   GL123353  23.839  15.040   9.233
 1486POPC   GL223354  23.915  14.863   9.004
 1486POPC   C1A23355  23.522  15.212   8.933
 1486POPC   D2A23356  23.422  15.235   8.495
 1486POPC   C3A23357  23.705  15.497   8.223
 1486POPC   C4A23358  23.783  15.482   7.772
 1486POPC   C1B23359  23.963  14.840   8.586
 1486POPC   C2B23360  23.706  14.772   8.246
 1486POPC   C3B23361  23.751  14.735   7.814
 1486POPC   C4B23362  24.014  14.773   7.438
 1487POPC   NC323363   5.287  40.934   9.507
 1487POPC   PO423364   5.280  40.327   9.470
 1487POPC   GL123365   5.069  40.602   9.170
 1487POPC   GL223366   5.306  40.882   9.011
 1487POPC   C1A23367   4.913  40.683   8.769
 1487POPC   D2A23368   5.098  40.535   8.398
 1487POPC   C3A23369   4.975  40.799   8.054
 1487POPC   C4A23370   4.733  40.745   7.684
 1487POPC   C1B23371   5.463  40.525   8.806
 1487POPC   C2B23372   5.667  40.454   8.403
 1487POPC   C3B23373   5.502  40.591   8.030
 1487POPC   C4B23374   5.487  40.323   7.692
 1488POPC   NC323375  17.553  10.742   9.391
 1488POPC   PO423376  17.273  10.094   9.431
 1488POPC   GL123377  17.461  10.338   9.074
 1488POPC   GL223378  17.828  10.389   9.072
 1488POPC   C1A23379  17.545  10.530   8.662
 1488POPC   D2A23380  17.464  10.855   8.371
 1488POPC   C3A23381  17.282  10.640   8.021
 1488POPC   C4A23382  17.468  10.363   7.700
 1488POPC   C1B23383  18.054  10.604   8.725
 1488POPC   C2B23384  18.100  10.645   8.309
 1488POPC   C3B23385  17.787  10.561   8.057
 1488POPC   C4B23386  17.692  10.808   7.701
 1489POPC   NC323387  35.716  33.938   9.434
 1489POPC   PO423388  36.415  33.823   9.647
 1489POPC   GL123389  36.200  33.929   9.199
 1489POPC   GL223390  36.514  34.018   9.069
 1489POPC   C1A23391  36.038  33.899   8.736
 1489POPC   D2A23392  35.898  33.706   8.312
 1489POPC   C3A23393  36.037  33.676   7.898
 1489POPC   C4A23394  35.983  33.301   7.665
 1489POPC   C1B23395  36.552  33.860   8.659
 1489POPC   C2B23396  36.411  33.792   8.233
 1489POPC   C3B23397  36.463  33.949   7.805
 1489POPC   C4B23398  36.348  33.778   7.381
 1490POPC   NC323399   7.782  44.678   9.572
 1490POPC   PO423400   8.490  44.523   9.510
 1490POPC   GL123401   8.312  44.737   9.159
 1490POPC   GL223402   8.055  44.532   9.154
 1490POPC   C1A23403   8.354  44.982   8.776
 1490POPC   D2A23404   8.656   0.052   8.431
 1490POPC   C3A23405   8.522   0.025   8.012
 1490POPC   C4A23406   8.404   0.270   7.654
 1490POPC   C1B23407   8.223  44.482   8.722
 1490POPC   C2B23408   8.150  44.760   8.349
 1490POPC   C3B23409   8.199  44.652   7.917
 1490POPC   C4B23410   8.051  44.519   7.495
 1491POPC   NC323411  44.247  35.504   9.511
 1491POPC   PO423412  44.173  34.841   9.552
 1491POPC   GL123413  44.081  35.170   9.194
 1491POPC   GL223414  43.773  35.336   9.000
 1491POPC   C1A23415  44.232  35.362   8.804
 1491POPC   D2A23416  43.918  35.462   8.484
 1491POPC   C3A23417  44.026  35.509   8.041
 1491POPC   C4A23418  43.983  35.210   7.696
 1491POPC   C1B23419  43.502  35.110   8.722
 1491POPC   C2B23420  43.362  35.162   8.294
 1491POPC   C3B23421  43.506  35.179   7.871
 1491POPC   C4B23422  43.555  35.194   7.399
 1492POPC   NC323423  44.248  38.674   9.713
 1492POPC   PO423424  43.756  38.291   9.526
 1492POPC   GL123425  43.760  38.657   9.184
 1492POPC   GL223426  44.016  38.749   8.919
 1492POPC   C1A23427  43.516  38.835   8.843
 1492POPC   D2A23428  43.727  38.645   8.483
 1492POPC   C3A23429  43.552  38.389   8.165
 1492POPC   C4A23430  43.420  38.724   7.913
 1492POPC   C1B23431  43.908  38.312   8.835
 1492POPC   C2B23432  44.017  38.189   8.418
 1492POPC   C3B23433  44.059  38.493   8.072
 1492POPC   C4B23434  43.823  38.534   7.717
 1493POPC   NC323435  15.789  29.403   9.464
 1493POPC   PO423436  16.100  28.735   9.369
 1493POPC   GL123437  16.106  29.135   9.167
 1493POPC   GL223438  15.764  29.095   9.075
 1493POPC   C1A23439  16.133  29.270   8.751
 1493POPC   D2A23440  15.981  28.956   8.445
 1493POPC   C3A23441  15.900  29.169   8.080
 1493POPC   C4A23442  16.105  29.397   7.815
 1493POPC   C1B23443  15.651  29.268   8.704
 1493POPC   C2B23444  15.743  29.573   8.400
 1493POPC   C3B23445  15.727  29.750   7.994
 1493POPC   C4B23446  15.666  29.592   7.579
 1494POPC   NC323447  36.882  42.617   9.251
 1494POPC   PO423448  37.227  43.155   9.357
 1494POPC   GL123449  37.101  43.003   8.998
 1494POPC   GL223450  36.729  43.097   9.024
 1494POPC   C1A23451  36.960  43.004   8.575
 1494POPC   D2A23452  36.744  42.766   8.265
 1494POPC   C3A23453  36.962  42.913   7.911
 1494POPC   C4A23454  37.120  43.368   7.854
 1494POPC   C1B23455  36.662  43.449   8.687
 1494POPC   C2B23456  36.703  43.554   8.220
 1494POPC   C3B23457  36.608  43.292   7.860
 1494POPC   C4B23458  36.431  42.870   7.861
 1495POPC   NC323459  36.360   2.347   9.343
 1495POPC   PO423460  36.497   2.997   9.452
 1495POPC   GL123461  36.132   2.926   9.182
 1495POPC   GL223462  36.305   2.708   8.949
 1495POPC   C1A23463  35.857   2.961   8.801
 1495POPC   D2A23464  36.066   2.792   8.444
 1495POPC   C3A23465  36.068   2.927   8.013
 1495POPC   C4A23466  36.460   2.795   7.929
 1495POPC   C1B23467  35.939   2.452   8.832
 1495POPC   C2B23468  35.763   2.315   8.471
 1495POPC   C3B23469  35.981   2.418   8.084
 1495POPC   C4B23470  36.052   2.594   7.642
 1496POPC   NC323471  22.246  33.600   9.519
 1496POPC   PO423472  21.820  34.179   9.488
 1496POPC   GL123473  21.995  33.924   9.209
 1496POPC   GL223474  21.803  33.664   9.121
 1496POPC   C1A23475  22.233  33.877   8.850
 1496POPC   D2A23476  22.312  34.160   8.505
 1496POPC   C3A23477  22.228  34.002   8.090
 1496POPC   C4A23478  22.524  34.022   7.771
 1496POPC   C1B23479  21.928  33.464   8.757
 1496POPC   C2B23480  21.736  33.415   8.376
 1496POPC   C3B23481  21.776  33.415   7.980
 1496POPC   C4B23482  22.055  33.644   7.744
 1497POPC   NC323483  34.242   0.232   9.337
 1497POPC   PO423484  33.823   0.544   9.754
 1497POPC   GL123485  33.765   0.517   9.218
 1497POPC   GL223486  33.855   0.220   9.007
 1497POPC   C1A23487  33.591   0.571   8.754
 1497POPC   D2A23488  33.735   0.320   8.395
 1497POPC   C3A23489  33.838   0.218   7.945
 1497POPC   C4A23490  33.656   0.161   7.528
 1497POPC   C1B23491  34.095   0.516   8.710
 1497POPC   C2B23492  34.121   0.729   8.342
 1497POPC   C3B23493  34.138   0.675   7.934
 1497POPC   C4B23494  33.885   0.598   7.617
 1498POPC   NC323495  13.265  14.338   9.371
 1498POPC   PO423496  13.989  14.144   9.459
 1498POPC   GL123497  13.690  14.189   9.139
 1498POPC   GL223498  13.658  14.575   9.127
 1498POPC   C1A23499  13.446  14.225   8.745
 1498POPC   D2A23500  13.631  14.190   8.325
 1498POPC   C3A23501  13.527  14.198   7.861
 1498POPC   C4A23502  13.900  14.172   7.581
 1498POPC   C1B23503  13.939  14.426   8.762
 1498POPC   C2B23504  14.129  14.559   8.381
 1498POPC   C3B23505  13.944  14.468   8.002
 1498POPC   C4B23506  13.610  14.734   7.832
 1499POPC   NC323507  23.599  24.859   9.700
 1499POPC   PO423508  24.012  25.389   9.511
 1499POPC   GL123509  23.833  25.339   9.120
 1499POPC   GL223510  23.760  25.004   9.172
 1499POPC   C1A23511  23.670  25.419   8.702
 1499POPC   D2A23512  23.791  25.635   8.318
 1499POPC   C3A23513  23.680  25.455   7.958
 1499POPC   C4A23514  23.897  25.426   7.574
 1499POPC   C1B23515  23.980  25.000   8.755
 1499POPC   C2B23516  23.983  25.130   8.325
 1499POPC   C3B23517  23.935  25.016   7.890
 1499POPC   C4B23518  23.515  25.050   7.696
 1500POPC   NC323519  16.738  32.456   9.533
 1500POPC   PO423520  16.657  31.788   9.476
 1500POPC   GL123521  16.807  32.085   9.144
 1500POPC   GL223522  16.689  32.439   9.028
 1500POPC   C1A23523  16.706  32.021   8.710
 1500POPC   D2A23524  16.915  32.018   8.323
 1500POPC   C3A23525  16.756  31.933   7.914
 1500POPC   C4A23526  16.669  32.016   7.494
 1500POPC   C1B23527  16.976  32.492   8.663
 1500POPC   C2B23528  17.181  32.449   8.228
 1500POPC   C3B23529  17.016  32.375   7.780
 1500POPC   C4B23530  16.774  32.494   7.360
 1501POPC   NC323531  16.206  41.785   9.539
 1501POPC   PO423532  16.721  41.296   9.449
 1501POPC   GL123533  16.809  41.479   9.062
 1501POPC   GL223534  16.705  41.820   9.029
 1501POPC   C1A23535  16.667  41.473   8.636
 1501POPC   D2A23536  16.824  41.205   8.337
 1501POPC   C3A23537  16.666  41.168   7.928
 1501POPC   C4A23538  16.773  41.491   7.654
 1501POPC   C1B23539  17.068  41.801   8.712
 1501POPC   C2B23540  17.028  41.693   8.266
 1501POPC   C3B23541  16.716  41.877   7.959
 1501POPC   C4B23542  16.413  41.886   7.577
 1502POPC   NC323543  25.037  37.316   9.254
 1502POPC   PO423544  24.779  37.860   9.519
 1502POPC   GL123545  24.454  37.701   9.214
 1502POPC   GL223546  24.434  37.307   9.204
 1502POPC   C1A23547  24.252  37.910   8.828
 1502POPC   D2A23548  24.078  38.038   8.402
 1502POPC   C3A23549  24.376  37.999   8.047
 1502POPC   C4A23550  24.678  37.683   7.850
 1502POPC   C1B23551  24.543  37.465   8.774
 1502POPC   C2B23552  24.480  37.367   8.339
 1502POPC   C3B23553  24.561  37.188   7.932
 1502POPC   C4B23554  24.497  37.319   7.488
 1503POPC   NC323555  31.661   0.099   9.480
 1503POPC   PO423556  31.618  44.445   9.356
 1503POPC   GL123557  31.406  44.635   9.027
 1503POPC   GL223558  31.682  44.850   9.021
 1503POPC   C1A23559  31.219  44.490   8.615
 1503POPC   D2A23560  31.398  44.494   8.188
 1503POPC   C3A23561  31.195  44.560   7.751
 1503POPC   C4A23562  31.191  44.495   7.280
 1503POPC   C1B23563  31.583  44.851   8.602
 1503POPC   C2B23564  31.511  44.998   8.226
 1503POPC   C3B23565  31.625  44.841   7.863
 1503POPC   C4B23566  31.610  44.733   7.443
 1504POPC   NC323567   5.372   9.206   9.389
 1504POPC   PO423568   5.017   9.815   9.604
 1504POPC   GL123569   4.856   9.623   9.232
 1504POPC   GL223570   5.136   9.763   9.070
 1504POPC   C1A23571   4.735   9.676   8.800
 1504POPC   D2A23572   4.961   9.754   8.397
 1504POPC   C3A23573   5.060   9.694   7.989
 1504POPC   C4A23574   4.734   9.698   7.736
 1504POPC   C1B23575   5.367   9.690   8.692
 1504POPC   C2B23576   5.376   9.402   8.342
 1504POPC   C3B23577   5.547   9.491   7.976
 1504POPC   C4B23578   5.392   9.565   7.576
 1505POPC   NC323579  35.616  13.908   9.509
 1505POPC   PO423580  35.207  13.429   9.734
 1505POPC   GL123581  35.328  13.553   9.279
 1505POPC   GL223582  35.670  13.532   9.175
 1505POPC   C1A23583  35.322  13.561   8.811
 1505POPC   D2A23584  35.485  13.759   8.445
 1505POPC   C3A23585  35.168  13.770   8.119
 1505POPC   C4A23586  35.193  13.859   7.663
 1505POPC   C1B23587  35.794  13.350   8.770
 1505POPC   C2B23588  35.845  13.386   8.333
 1505POPC   C3B23589  35.565  13.508   7.992
 1505POPC   C4B23590  35.418  13.344   7.602
 1506POPC   NC323591  17.646   4.638   9.416
 1506POPC   PO423592  17.692   3.985   9.492
 1506POPC   GL123593  17.358   4.081   9.171
 1506POPC   GL223594  17.243   4.430   9.126
 1506POPC   C1A23595  17.351   3.985   8.740
 1506POPC   D2A23596  17.628   4.106   8.398
 1506POPC   C3A23597  17.522   4.132   7.974
 1506POPC   C4A23598  17.129   4.237   7.791
 1506POPC   C1B23599  17.652   4.380   8.836
 1506POPC   C2B23600  17.805   4.579   8.463
 1506POPC   C3B23601  17.741   4.655   8.044
 1506POPC   C4B23602  17.527   4.568   7.680
 1507POPC   NC323603  20.275  30.775   9.569
 1507POPC   PO423604  20.804  30.382   9.567
 1507POPC   GL123605  20.609  30.628   9.198
 1507POPC   GL223606  20.373  30.950   9.115
 1507POPC   C1A23607  20.784  30.528   8.795
 1507POPC   D2A23608  20.540  30.382   8.436
 1507POPC   C3A23609  20.744  30.268   8.119
 1507POPC   C4A23610  20.802  30.408   7.736
 1507POPC   C1B23611  20.370  30.806   8.731
 1507POPC   C2B23612  20.663  30.855   8.382
 1507POPC   C3B23613  20.459  30.709   8.026
 1507POPC   C4B23614  20.672  30.949   7.783
 1508POPC   NC323615  24.985  13.975   9.367
 1508POPC   PO423616  25.644  14.002   9.451
 1508POPC   GL123617  25.376  14.189   9.103
 1508POPC   GL223618  25.193  14.542   9.115
 1508POPC   C1A23619  25.347  14.326   8.678
 1508POPC   D2A23620  25.282  14.142   8.311
 1508POPC   C3A23621  25.431  14.404   7.996
 1508POPC   C4A23622  25.189  14.231   7.712
 1508POPC   C1B23623  24.943  14.683   8.754
 1508POPC   C2B23624  24.869  14.494   8.331
 1508POPC   C3B23625  24.952  14.670   7.918
 1508POPC   C4B23626  25.321  14.888   7.798
 1509POPC   NC323627  40.401  15.485   9.628
 1509POPC   PO423628  39.869  15.126   9.485
 1509POPC   GL123629  40.183  15.205   9.218
 1509POPC   GL223630  40.181  15.555   9.147
 1509POPC   C1A23631  40.273  15.002   8.815
 1509POPC   D2A23632  40.058  14.798   8.489
 1509POPC   C3A23633  39.878  15.018   8.150
 1509POPC   C4A23634  40.132  15.042   7.763
 1509POPC   C1B23635  39.974  15.457   8.787
 1509POPC   C2B23636  40.158  15.344   8.423
 1509POPC   C3B23637  40.074  15.462   8.031
 1509POPC   C4B23638  39.700  15.496   7.844
 1510POPC   NC323639  43.319  12.349   9.528
 1510POPC   PO423640  42.926  11.677   9.532
 1510POPC   GL123641  43.034  11.927   9.165
 1510POPC   GL223642  43.398  12.065   9.115
 1510POPC   C1A23643  42.887  11.827   8.743
 1510POPC   D2A23644  42.844  11.579   8.357
 1510POPC   C3A23645  42.918  11.869   8.030
 1510POPC   C4A23646  42.889  12.191   7.734
 1510POPC   C1B23647  43.202  12.286   8.794
 1510POPC   C2B23648  43.116  12.191   8.387
 1510POPC   C3B23649  43.319  12.281   8.029
 1510POPC   C4B23650  43.363  11.939   7.778
 1511POPC   NC323651  29.807   7.179   9.488
 1511POPC   PO423652  29.993   6.589   9.444
 1511POPC   GL123653  30.220   6.766   9.114
 1511POPC   GL223654  29.865   6.861   9.017
 1511POPC   C1A23655  30.188   6.609   8.696
 1511POPC   D2A23656  29.779   6.616   8.525
 1511POPC   C3A23657  29.751   6.556   8.088
 1511POPC   C4A23658  29.837   6.696   7.680
 1511POPC   C1B23659  29.717   7.147   8.726
 1511POPC   C2B23660  29.493   7.032   8.346
 1511POPC   C3B23661  29.582   7.100   7.921
 1511POPC   C4B23662  29.429   6.923   7.503
 1512POPC   NC323663  30.195  44.932   9.460
 1512POPC   PO423664  29.872  44.338   9.566
 1512POPC   GL123665  29.862  44.628   9.205
 1512POPC   GL223666  30.153  44.697   8.970
 1512POPC   C1A23667  29.664  44.604   8.834
 1512POPC   D2A23668  29.882  44.643   8.431
 1512POPC   C3A23669  29.655  44.777   8.095
 1512POPC   C4A23670  29.804  44.790   7.675
 1512POPC   C1B23671  29.883   0.042   8.756
 1512POPC   C2B23672  29.749   0.234   8.353
 1512POPC   C3B23673  30.038   0.098   8.035
 1512POPC   C4B23674  30.201  44.693   8.016
 1513POPC   NC323675  10.145   0.604   9.382
 1513POPC   PO423676  10.694   0.394   9.682
 1513POPC   GL123677  10.758   0.590   9.284
 1513POPC   GL223678  10.496   0.459   9.060
 1513POPC   C1A23679  10.820   0.758   8.851
 1513POPC   D2A23680  10.646   0.755   8.416
 1513POPC   C3A23681  10.835   0.605   8.050
 1513POPC   C4A23682  10.735   0.323   7.687
 1513POPC   C1B23683  10.504   0.171   8.704
 1513POPC   C2B23684  10.524   0.226   8.241
 1513POPC   C3B23685  10.388  45.000   7.873
 1513POPC   C4B23686  10.363   0.013   7.419
 1514POPC   NC323687  37.326   0.308   9.426
 1514POPC   PO423688  36.693   0.501   9.516
 1514POPC   GL123689  36.935   0.586   9.170
 1514POPC   GL223690  36.956   0.247   9.077
 1514POPC   C1A23691  36.759   0.682   8.773
 1514POPC   D2A23692  36.578   0.539   8.383
 1514POPC   C3A23693  36.666   0.776   7.988
 1514POPC   C4A23694  36.881   0.615   7.622
 1514POPC   C1B23695  37.027   0.250   8.658
 1514POPC   C2B23696  37.245   0.124   8.302
 1514POPC   C3B23697  37.063   0.228   7.938
 1514POPC   C4B23698  36.953   0.105   7.535
 1515POPC   NC323699  16.050  40.297   9.665
 1515POPC   PO423700  16.124  39.648   9.813
 1515POPC   GL123701  15.965  39.780   9.377
 1515POPC   GL223702  15.921  40.114   9.219
 1515POPC   C1A23703  16.126  39.766   8.936
 1515POPC   D2A23704  16.203  39.900   8.515
 1515POPC   C3A23705  15.866  39.861   8.229
 1515POPC   C4A23706  15.929  39.793   7.797
 1515POPC   C1B23707  15.755  40.111   8.810
 1515POPC   C2B23708  15.796  40.364   8.442
 1515POPC   C3B23709  15.640  40.452   8.055
 1515POPC   C4B23710  15.769  40.248   7.715
 1516POPC   NC323711  18.860  43.509   9.468
 1516POPC   PO423712  18.990  44.205   9.512
 1516POPC   GL123713  18.970  43.934   9.146
 1516POPC   GL223714  19.221  43.685   9.115
 1516POPC   C1A23715  18.934  43.817   8.704
 1516POPC   D2A23716  18.751  43.688   8.305
 1516POPC   C3A23717  18.930  43.805   7.905
 1516POPC   C4A23718  18.886  43.915   7.441
 1516POPC   C1B23719  19.222  43.415   8.785
 1516POPC   C2B23720  19.248  43.557   8.364
 1516POPC   C3B23721  19.280  43.407   7.965
 1516POPC   C4B23722  19.262  43.616   7.565
 1517POPC   NC323723  19.785  16.796   9.497
 1517POPC   PO423724  20.057  16.209   9.486
 1517POPC   GL123725  20.151  16.520   9.140
 1517POPC   GL223726  20.105  16.903   9.125
 1517POPC   C1A23727  19.926  16.599   8.725
 1517POPC   D2A23728  19.879  16.658   8.254
 1517POPC   C3A23729  19.498  16.592   8.040
 1517POPC   C4A23730  19.533  16.275   7.756
 1517POPC   C1B23731  20.005  17.121   8.743
 1517POPC   C2B23732  20.123  17.088   8.314
 1517POPC   C3B23733  20.067  16.996   7.874
 1517POPC   C4B23734  19.930  16.605   7.707
 1518POPC   NC323735   7.751  23.132   9.573
 1518POPC   PO423736   8.450  22.812   9.474
 1518POPC   GL123737   8.324  22.910   9.096
 1518POPC   GL223738   8.082  23.117   9.155
 1518POPC   C1A23739   8.310  22.684   8.733
 1518POPC   D2A23740   7.986  22.621   8.446
 1518POPC   C3A23741   8.128  22.691   8.046
 1518POPC   C4A23742   8.098  22.546   7.655
 1518POPC   C1B23743   8.018  23.107   8.713
 1518POPC   C2B23744   8.230  23.109   8.361
 1518POPC   C3B23745   8.466  23.079   8.028
 1518POPC   C4B23746   8.400  23.309   7.675
 1519POPC   NC323747  10.922  21.799   9.616
 1519POPC   PO423748  10.337  21.367   9.732
 1519POPC   GL123749  10.772  21.373   9.403
 1519POPC   GL223750  10.679  21.682   9.197
 1519POPC   C1A23751  10.876  21.351   8.905
 1519POPC   D2A23752  10.616  21.169   8.550
 1519POPC   C3A23753  10.658  21.279   8.094
 1519POPC   C4A23754  10.304  21.210   7.768
 1519POPC   C1B23755  10.477  21.732   8.762
 1519POPC   C2B23756  10.321  21.570   8.383
 1519POPC   C3B23757  10.382  21.688   7.936
 1519POPC   C4B23758  10.657  21.549   7.629
 1520POPC   NC323759  17.281  43.365   9.497
 1520POPC   PO423760  17.910  43.039   9.585
 1520POPC   GL123761  17.682  43.187   9.233
 1520POPC   GL223762  17.388  43.019   9.133
 1520POPC   C1A23763  17.654  43.341   8.825
 1520POPC   D2A23764  17.854  43.405   8.442
 1520POPC   C3A23765  17.653  43.214   8.127
 1520POPC   C4A23766  17.339  43.082   7.865
 1520POPC   C1B23767  17.652  42.822   8.821
 1520POPC   C2B23768  17.565  42.768   8.378
 1520POPC   C3B23769  17.442  42.595   7.981
 1520POPC   C4B23770  17.584  42.703   7.551
 1521POPC   NC323771  29.691  33.340   9.441
 1521POPC   PO423772  29.539  33.985   9.587
 1521POPC   GL123773  29.736  33.763   9.197
 1521POPC   GL223774  30.072  33.584   9.177
 1521POPC   C1A23775  29.729  33.565   8.788
 1521POPC   D2A23776  29.529  33.580   8.419
 1521POPC   C3A23777  29.768  33.803   8.127
 1521POPC   C4A23778  29.954  33.991   7.798
 1521POPC   C1B23779  30.217  33.405   8.745
 1521POPC   C2B23780  30.063  33.417   8.282
 1521POPC   C3B23781  30.300  33.575   7.905
 1521POPC   C4B23782  30.282  33.747   7.477
 1522POPC   NC323783  28.617  40.922   9.796
 1522POPC   PO423784  29.180  40.913   9.636
 1522POPC   GL123785  29.227  41.032   9.192
 1522POPC   GL223786  28.880  40.953   9.156
 1522POPC   C1A23787  29.231  40.815   8.766
 1522POPC   D2A23788  29.022  40.654   8.367
 1522POPC   C3A23789  29.209  40.756   7.948
 1522POPC   C4A23790  29.587  40.663   7.781
 1522POPC   C1B23791  28.861  41.157   8.760
 1522POPC   C2B23792  28.706  41.049   8.373
 1522POPC   C3B23793  28.717  40.865   7.977
 1522POPC   C4B23794  28.859  40.815   7.523
 1523POPC   NC323795  37.781  34.499   9.634
 1523POPC   PO423796  38.462  34.481   9.607
 1523POPC   GL123797  38.407  34.562   9.171
 1523POPC   GL223798  38.757  34.528   9.111
 1523POPC   C1A23799  38.427  34.783   8.766
 1523POPC   D2A23800  38.277  35.107   8.466
 1523POPC   C3A23801  38.232  34.997   8.023
 1523POPC   C4A23802  38.567  34.906   7.708
 1523POPC   C1B23803  38.649  34.254   8.752
 1523POPC   C2B23804  38.427  34.297   8.384
 1523POPC   C3B23805  38.506  34.556   8.072
 1523POPC   C4B23806  38.742  34.402   7.723
 1524POPC   NC323807  29.707  17.354   9.716
 1524POPC   PO423808  30.146  17.735   9.407
 1524POPC   GL123809  29.822  17.575   9.122
 1524POPC   GL223810  29.514  17.375   9.219
 1524POPC   C1A23811  29.856  17.818   8.726
 1524POPC   D2A23812  30.073  17.879   8.322
 1524POPC   C3A23813  29.975  17.648   7.910
 1524POPC   C4A23814  30.333  17.530   7.600
 1524POPC   C1B23815  29.481  17.458   8.770
 1524POPC   C2B23816  29.643  17.523   8.354
 1524POPC   C3B23817  29.569  17.323   7.969
 1524POPC   C4B23818  29.436  17.355   7.547
 1525POPC   NC323819  29.466  21.019   9.541
 1525POPC   PO423820  29.032  21.522   9.704
 1525POPC   GL123821  28.932  21.467   9.309
 1525POPC   GL223822  29.249  21.358   9.232
 1525POPC   C1A23823  28.852  21.431   8.881
 1525POPC   D2A23824  28.966  21.589   8.491
 1525POPC   C3A23825  28.887  21.366   8.094
 1525POPC   C4A23826  29.061  21.404   7.686
 1525POPC   C1B23827  29.319  21.204   8.812
 1525POPC   C2B23828  29.299  21.222   8.361
 1525POPC   C3B23829  29.411  21.095   7.919
 1525POPC   C4B23830  29.315  21.033   7.443
 1526POPC   NC323831  21.229  43.500   9.572
 1526POPC   PO423832  21.523  42.885   9.662
 1526POPC   GL123833  21.397  42.755   9.136
 1526POPC   GL223834  21.072  42.694   8.992
 1526POPC   C1A23835  21.404  42.925   8.689
 1526POPC   D2A23836  21.522  42.764   8.286
 1526POPC   C3A23837  21.690  43.106   8.073
 1526POPC   C4A23838  21.599  43.187   7.646
 1526POPC   C1B23839  20.903  43.021   8.674
 1526POPC   C2B23840  21.110  43.096   8.281
 1526POPC   C3B23841  21.218  42.976   7.889
 1526POPC   C4B23842  21.128  43.049   7.443
 1527POPC   NC323843   2.749  20.454   9.513
 1527POPC   PO423844   2.791  19.717   9.617
 1527POPC   GL123845   2.793  19.985   9.290
 1527POPC   GL223846   3.036  19.808   9.132
 1527POPC   C1A23847   2.688  20.019   8.843
 1527POPC   D2A23848   2.720  19.835   8.440
 1527POPC   C3A23849   2.820  20.049   8.040
 1527POPC   C4A23850   2.578  19.996   7.675
 1527POPC   C1B23851   2.899  19.505   8.838
 1527POPC   C2B23852   2.756  19.326   8.432
 1527POPC   C3B23853   2.801  19.533   8.005
 1527POPC   C4B23854   3.022  19.744   7.618
 1528POPC   NC323855  28.442  31.821   9.663
 1528POPC   PO423856  28.255  31.217   9.584
 1528POPC   GL123857  28.402  31.528   9.256
 1528POPC   GL223858  28.087  31.659   9.302
 1528POPC   C1A23859  28.563  31.755   8.890
 1528POPC   D2A23860  28.816  31.576   8.546
 1528POPC   C3A23861  28.674  31.687   8.127
 1528POPC   C4A23862  28.578  31.498   7.735
 1528POPC   C1B23863  28.031  31.645   8.865
 1528POPC   C2B23864  28.237  31.687   8.460
 1528POPC   C3B23865  28.146  31.561   8.056
 1528POPC   C4B23866  28.132  31.726   7.663
 1529POPC   NC323867  13.394  24.081   9.742
 1529POPC   PO423868  13.762  24.605   9.498
 1529POPC   GL123869  13.689  24.523   9.108
 1529POPC   GL223870  13.427  24.715   8.999
 1529POPC   C1A23871  13.671  24.369   8.693
 1529POPC   D2A23872  13.597  24.613   8.357
 1529POPC   C3A23873  13.730  24.378   8.024
 1529POPC   C4A23874  13.520  24.171   7.728
 1529POPC   C1B23875  13.401  24.997   8.657
 1529POPC   C2B23876  13.634  25.133   8.330
 1529POPC   C3B23877  13.721  24.912   7.951
 1529POPC   C4B23878  13.545  24.661   7.619
 1530POPC   NC323879  20.213  43.966   9.577
 1530POPC   PO423880  20.784  43.567   9.658
 1530POPC   GL123881  20.543  43.688   9.232
 1530POPC   GL223882  20.523  44.036   9.180
 1530POPC   C1A23883  20.487  43.762   8.750
 1530POPC   D2A23884  20.380  43.862   8.287
 1530POPC   C3A23885  20.684  43.655   7.925
 1530POPC   C4A23886  21.086  43.468   7.757
 1530POPC   C1B23887  20.228  44.219   8.892
 1530POPC   C2B23888  20.113  44.414   8.501
 1530POPC   C3B23889  20.150  44.399   8.052
 1530POPC   C4B23890  20.437  44.106   7.840
 1531POPC   NC323891   2.415  10.681   9.322
 1531POPC   PO423892   2.962  10.515   9.624
 1531POPC   GL123893   2.874  10.441   9.209
 1531POPC   GL223894   2.913  10.785   9.156
 1531POPC   C1A23895   2.688  10.405   8.781
 1531POPC   D2A23896   2.921  10.393   8.394
 1531POPC   C3A23897   2.730  10.419   8.003
 1531POPC   C4A23898   2.354  10.509   7.834
 1531POPC   C1B23899   2.886  10.880   8.722
 1531POPC   C2B23900   2.746  10.900   8.298
 1531POPC   C3B23901   2.793  10.945   7.857
 1531POPC   C4B23902   2.533  10.920   7.506
 1532POPC   NC323903  35.982  27.421   9.548
 1532POPC   PO423904  36.414  27.756   9.364
 1532POPC   GL123905  36.225  27.408   9.108
 1532POPC   GL223906  35.912  27.208   9.097
 1532POPC   C1A23907  36.231  27.485   8.699
 1532POPC   D2A23908  36.535  27.567   8.419
 1532POPC   C3A23909  36.262  27.628   8.075
 1532POPC   C4A23910  36.350  27.611   7.655
 1532POPC   C1B23911  35.755  27.331   8.719
 1532POPC   C2B23912  35.862  27.710   8.425
 1532POPC   C3B23913  35.757  27.751   7.987
 1532POPC   C4B23914  35.859  27.431   7.726
 1533POPC   NC323915  31.008   8.249   9.924
 1533POPC   PO423916  30.435   8.125   9.614
 1533POPC   GL123917  30.622   8.076   9.226
 1533POPC   GL223918  30.831   8.322   9.255
 1533POPC   C1A23919  30.616   8.087   8.785
 1533POPC   D2A23920  30.412   7.963   8.425
 1533POPC   C3A23921  30.637   8.098   8.065
 1533POPC   C4A23922  30.736   7.805   7.749
 1533POPC   C1B23923  31.021   8.392   8.842
 1533POPC   C2B23924  30.893   8.439   8.426
 1533POPC   C3B23925  31.036   8.657   8.072
 1533POPC   C4B23926  30.937   8.385   7.744
 1534POPC   NC323927  19.992  22.705   9.529
 1534POPC   PO423928  19.507  23.155   9.760
 1534POPC   GL123929  19.721  23.091   9.312
 1534POPC   GL223930  19.542  22.845   9.099
 1534POPC   C1A23931  19.933  23.139   8.904
 1534POPC   D2A23932  19.892  22.798   8.621
 1534POPC   C3A23933  20.070  22.819   8.205
 1534POPC   C4A23934  19.930  22.574   7.833
 1534POPC   C1B23935  19.449  23.125   8.735
 1534POPC   C2B23936  19.697  23.195   8.369
 1534POPC   C3B23937  19.680  23.067   7.963
 1534POPC   C4B23938  19.515  23.329   7.659
 1535POPC   NC323939  18.670  40.775   9.688
 1535POPC   PO423940  18.109  40.872   9.310
 1535POPC   GL123941  18.105  40.851   8.930
 1535POPC   GL223942  18.016  40.498   8.957
 1535POPC   C1A23943  18.013  40.784   8.538
 1535POPC   D2A23944  17.926  40.394   8.360
 1535POPC   C3A23945  17.991  40.560   7.998
 1535POPC   C4A23946  18.123  40.922   7.808
 1535POPC   C1B23947  18.325  40.382   8.708
 1535POPC   C2B23948  18.424  40.251   8.315
 1535POPC   C3B23949  18.460  40.417   7.862
 1535POPC   C4B23950  18.173  40.492   7.515
 1536POPC   NC323951  18.474  23.714   9.471
 1536POPC   PO423952  17.894  23.996   9.694
 1536POPC   GL123953  18.019  23.799   9.262
 1536POPC   GL223954  18.126  23.503   9.152
 1536POPC   C1A23955  17.981  23.846   8.807
 1536POPC   D2A23956  18.191  23.820   8.405
 1536POPC   C3A23957  17.999  23.774   8.030
 1536POPC   C4A23958  18.209  23.797   7.651
 1536POPC   C1B23959  18.366  23.493   8.779
 1536POPC   C2B23960  18.499  23.393   8.388
 1536POPC   C3B23961  18.523  23.596   8.019
 1536POPC   C4B23962  18.510  23.417   7.621
 1537POPC   NC323963  16.936  36.176   9.502
 1537POPC   PO423964  16.443  35.913   9.477
 1537POPC   GL123965  16.611  36.063   9.129
 1537POPC   GL223966  16.587  36.433   9.190
 1537POPC   C1A23967  16.783  36.196   8.780
 1537POPC   D2A23968  16.668  36.418   8.435
 1537POPC   C3A23969  16.619  36.193   8.056
 1537POPC   C4A23970  16.859  36.144   7.682
 1537POPC   C1B23971  16.300  36.432   8.826
 1537POPC   C2B23972  16.168  36.571   8.415
 1537POPC   C3B23973  16.433  36.697   8.077
 1537POPC   C4B23974  16.471  36.526   7.682
 1538POPC   NC323975   8.781  12.893   9.850
 1538POPC   PO423976   8.885  12.375   9.724
 1538POPC   GL123977   9.021  12.688   9.366
 1538POPC   GL223978   9.367  12.666   9.234
 1538POPC   C1A23979   8.962  12.861   8.891
 1538POPC   D2A23980   8.943  12.705   8.399
 1538POPC   C3A23981   8.809  12.740   7.911
 1538POPC   C4A23982   8.652  12.707   7.453
 1538POPC   C1B23983   9.328  12.524   8.797
 1538POPC   C2B23984   9.457  12.674   8.385
 1538POPC   C3B23985   9.295  12.873   7.998
 1538POPC   C4B23986   9.176  12.857   7.539
 1539POPC   NC323987  28.306  23.964   9.435
 1539POPC   PO423988  27.717  24.399   9.439
 1539POPC   GL123989  27.577  24.325   9.055
 1539POPC   GL223990  27.898  24.139   9.001
 1539POPC   C1A23991  27.454  24.570   8.666
 1539POPC   D2A23992  27.276  24.754   8.269
 1539POPC   C3A23993  27.526  24.661   7.891
 1539POPC   C4A23994  27.685  24.512   7.481
 1539POPC   C1B23995  27.629  24.091   8.617
 1539POPC   C2B23996  27.575  24.277   8.243
 1539POPC   C3B23997  27.895  24.273   7.925
 1539POPC   C4B23998  28.173  24.450   7.590
 1540POPC   NC323999  27.255  22.374   9.542
 1540POPC   PO424000  27.867  22.092   9.581
 1540POPC   GL124001  27.738  22.125   9.185
 1540POPC   GL224002  27.386  22.093   9.157
 1540POPC   C1A24003  27.687  22.326   8.810
 1540POPC   D2A24004  27.846  22.141   8.441
 1540POPC   C3A24005  27.753  22.258   8.072
 1540POPC   C4A24006  27.529  22.196   7.713
 1540POPC   C1B24007  27.127  21.934   8.863
 1540POPC   C2B24008  26.993  22.039   8.452
 1540POPC   C3B24009  27.314  21.991   8.150
 1540POPC   C4B24010  27.311  21.739   7.793
 1541POPC   NC324011  12.656  37.767   9.580
 1541POPC   PO424012  13.285  37.803   9.467
 1541POPC   GL124013  13.083  37.828   9.093
 1541POPC   GL224014  12.764  37.697   9.092
 1541POPC   C1A24015  13.091  37.676   8.660
 1541POPC   D2A24016  13.115  37.405   8.285
 1541POPC   C3A24017  13.043  37.597   7.868
 1541POPC   C4A24018  12.910  37.394   7.468
 1541POPC   C1B24019  12.632  37.883   8.718
 1541POPC   C2B24020  12.793  37.899   8.289
 1541POPC   C3B24021  12.616  37.900   7.890
 1541POPC   C4B24022  12.795  37.893   7.473
 1542POPC   NC324023  19.041  12.213   9.537
 1542POPC   PO424024  19.115  11.504   9.629
 1542POPC   GL124025  19.217  11.827   9.205
 1542POPC   GL224026  19.206  12.230   9.075
 1542POPC   C1A24027  19.316  11.909   8.721
 1542POPC   D2A24028  19.038  11.988   8.320
 1542POPC   C3A24029  19.223  11.852   7.906
 1542POPC   C4A24030  19.188  11.832   7.437
 1542POPC   C1B24031  18.958  12.479   8.776
 1542POPC   C2B24032  18.726  12.390   8.376
 1542POPC   C3B24033  18.810  12.302   7.940
 1542POPC   C4B24034  18.984  12.600   7.653
 1543POPC   NC324035  19.873  27.396   9.487
 1543POPC   PO424036  20.172  28.043   9.441
 1543POPC   GL124037  20.116  27.728   9.173
 1543POPC   GL224038  19.778  27.779   9.129
 1543POPC   C1A24039  20.006  27.424   8.828
 1543POPC   D2A24040  20.039  27.263   8.422
 1543POPC   C3A24041  19.846  27.391   8.021
 1543POPC   C4A24042  19.842  27.643   7.624
 1543POPC   C1B24043  19.914  27.926   8.759
 1543POPC   C2B24044  19.794  27.737   8.407
 1543POPC   C3B24045  19.827  27.932   8.036
 1543POPC   C4B24046  19.531  28.021   7.766
 1544POPC   NC324047  14.820  38.399   9.932
 1544POPC   PO424048  14.416  38.517   9.338
 1544POPC   GL124049  14.695  38.548   9.018
 1544POPC   GL224050  14.463  38.816   8.911
 1544POPC   C1A24051  14.695  38.276   8.660
 1544POPC   D2A24052  14.353  38.132   8.388
 1544POPC   C3A24053  14.463  38.169   7.982
 1544POPC   C4A24054  14.507  37.869   7.720
 1544POPC   C1B24055  14.276  38.549   8.694
 1544POPC   C2B24056  14.050  38.552   8.389
 1544POPC   C3B24057  14.012  38.418   8.024
 1544POPC   C4B24058  14.208  38.560   7.713
 1545POPC   NC324059  14.788  39.255   9.562
 1545POPC   PO424060  14.516  38.740   9.807
 1545POPC   GL124061  14.363  39.050   9.352
 1545POPC   GL224062  14.606  39.269   9.109
 1545POPC   C1A24063  14.144  39.226   8.914
 1545POPC   D2A24064  14.099  39.491   8.507
 1545POPC   C3A24065  14.183  39.345   8.051
 1545POPC   C4A24066  14.357  39.029   7.767
 1545POPC   C1B24067  14.572  39.537   8.757
 1545POPC   C2B24068  14.552  39.254   8.423
 1545POPC   C3B24069  14.771  39.165   8.068
 1545POPC   C4B24070  14.645  39.436   7.778
 1546POPC   NC324071  15.098  21.579   9.585
 1546POPC   PO424072  15.548  21.155   9.392
 1546POPC   GL124073  15.181  21.276   9.139
 1546POPC   GL224074  15.225  21.637   9.087
 1546POPC   C1A24075  15.210  21.200   8.697
 1546POPC   D2A24076  15.382  20.845   8.463
 1546POPC   C3A24077  15.416  21.015   8.047
 1546POPC   C4A24078  15.153  21.313   7.830
 1546POPC   C1B24079  15.288  21.718   8.657
 1546POPC   C2B24080  15.113  21.639   8.247
 1546POPC   C3B24081  15.155  21.820   7.822
 1546POPC   C4B24082  14.925  21.650   7.450
 1547POPC   NC324083  10.086  18.720   9.757
 1547POPC   PO424084   9.563  19.059   9.458
 1547POPC   GL124085   9.798  19.284   9.133
 1547POPC   GL224086   9.951  19.571   9.249
 1547POPC   C1A24087   9.863  19.140   8.691
 1547POPC   D2A24088   9.703  19.015   8.300
 1547POPC   C3A24089   9.949  18.909   7.948
 1547POPC   C4A24090   9.710  19.072   7.601
 1547POPC   C1B24091   9.992  19.621   8.801
 1547POPC   C2B24092   9.852  19.518   8.352
 1547POPC   C3B24093   9.936  19.439   7.867
 1547POPC   C4B24094   9.905  19.475   7.362
 1548POPC   NC324095  19.368  24.144   9.596
 1548POPC   PO424096  19.136  24.779   9.601
 1548POPC   GL124097  19.040  24.593   9.207
 1548POPC   GL224098  18.715  24.779   9.096
 1548POPC   C1A24099  19.271  24.366   8.861
 1548POPC   D2A24100  19.372  24.119   8.472
 1548POPC   C3A24101  19.232  24.272   8.067
 1548POPC   C4A24102  19.411  24.489   7.750
 1548POPC   C1B24103  18.790  24.486   8.772
 1548POPC   C2B24104  18.972  24.529   8.436
 1548POPC   C3B24105  18.735  24.504   8.073
 1548POPC   C4B24106  18.877  24.540   7.674
 1549POPC   NC324107  30.414  32.403   9.524
 1549POPC   PO424108  29.870  32.054   9.512
 1549POPC   GL124109  30.034  32.279   9.170
 1549POPC   GL224110  29.677  32.289   9.100
 1549POPC   C1A24111  30.225  32.173   8.773
 1549POPC   D2A24112  30.090  32.071   8.389
 1549POPC   C3A24113  30.247  32.209   7.989
 1549POPC   C4A24114  30.065  32.160   7.577
 1549POPC   C1B24115  29.675  32.189   8.699
 1549POPC   C2B24116  29.714  32.402   8.316
 1549POPC   C3B24117  29.742  32.180   7.981
 1549POPC   C4B24118  29.440  32.096   7.737
 1550POPC   NC324119  17.015  35.230   9.588
 1550POPC   PO424120  16.368  35.249   9.701
 1550POPC   GL124121  16.626  35.232   9.247
 1550POPC   GL224122  16.771  35.572   9.266
 1550POPC   C1A24123  16.749  35.145   8.775
 1550POPC   D2A24124  16.823  35.305   8.345
 1550POPC   C3A24125  16.570  35.235   7.961
 1550POPC   C4A24126  16.688  35.143   7.520
 1550POPC   C1B24127  16.761  35.660   8.823
 1550POPC   C2B24128  16.786  35.842   8.411
 1550POPC   C3B24129  16.762  35.717   7.986
 1550POPC   C4B24130  16.802  35.637   7.553
 1551POPC   NC324131   7.243  21.097   9.444
 1551POPC   PO424132   7.519  21.539   9.769
 1551POPC   GL124133   7.460  21.502   9.241
 1551POPC   GL224134   7.691  21.716   9.076
 1551POPC   C1A24135   7.196  21.499   8.793
 1551POPC   D2A24136   7.344  21.498   8.318
 1551POPC   C3A24137   7.443  21.190   8.000
 1551POPC   C4A24138   7.301  21.185   7.521
 1551POPC   C1B24139   7.678  21.406   8.735
 1551POPC   C2B24140   7.852  21.372   8.356
 1551POPC   C3B24141   7.851  21.537   7.975
 1551POPC   C4B24142   7.800  21.287   7.636
 1552POPC   NC324143  19.682  28.143   9.474
 1552POPC   PO424144  19.917  28.771   9.325
 1552POPC   GL124145  19.920  28.384   9.046
 1552POPC   GL224146  19.584  28.272   9.000
 1552POPC   C1A24147  19.839  28.423   8.565
 1552POPC   D2A24148  19.934  28.646   8.147
 1552POPC   C3A24149  19.815  28.445   7.754
 1552POPC   C4A24150  19.937  28.110   7.437
 1552POPC   C1B24151  19.449  28.087   8.630
 1552POPC   C2B24152  19.325  28.204   8.229
 1552POPC   C3B24153  19.409  28.622   8.086
 1552POPC   C4B24154  19.454  28.830   7.697
 1553POPC   NC324155  34.332   8.155   9.641
 1553POPC   PO424156  34.863   8.319   9.282
 1553POPC   GL124157  34.467   8.149   9.139
 1553POPC   GL224158  34.157   8.369   9.191
 1553POPC   C1A24159  34.431   7.962   8.734
 1553POPC   D2A24160  34.746   7.968   8.406
 1553POPC   C3A24161  34.572   8.071   8.042
 1553POPC   C4A24162  34.321   7.890   7.765
 1553POPC   C1B24163  34.268   8.460   8.777
 1553POPC   C2B24164  34.335   8.347   8.384
 1553POPC   C3B24165  34.129   8.340   7.989
 1553POPC   C4B24166  34.003   8.548   7.602
 1554POPC   NC324167  25.558  40.304   9.410
 1554POPC   PO424168  25.049  40.811   9.463
 1554POPC   GL124169  25.060  40.790   9.067
 1554POPC   GL224170  25.208  40.471   9.070
 1554POPC   C1A24171  24.931  40.669   8.679
 1554POPC   D2A24172  25.253  40.734   8.399
 1554POPC   C3A24173  25.369  40.977   8.034
 1554POPC   C4A24174  25.196  40.872   7.654
 1554POPC   C1B24175  25.513  40.377   8.761
 1554POPC   C2B24176  25.474  40.280   8.353
 1554POPC   C3B24177  25.295  40.450   7.965
 1554POPC   C4B24178  25.424  40.439   7.542
 1555POPC   NC324179  33.317  30.826   9.529
 1555POPC   PO424180  32.755  30.527   9.572
 1555POPC   GL124181  32.966  30.697   9.175
 1555POPC   GL224182  33.189  30.447   9.197
 1555POPC   C1A24183  32.812  30.721   8.741
 1555POPC   D2A24184  32.855  30.934   8.327
 1555POPC   C3A24185  32.908  30.699   7.971
 1555POPC   C4A24186  33.242  30.684   7.697
 1555POPC   C1B24187  33.183  30.354   8.777
 1555POPC   C2B24188  33.030  30.402   8.372
 1555POPC   C3B24189  33.218  30.263   7.986
 1555POPC   C4B24190  33.032  30.201   7.578
 1556POPC   NC324191  11.380  42.836   9.448
 1556POPC   PO424192  10.989  43.325   9.374
 1556POPC   GL124193  11.224  43.080   9.000
 1556POPC   GL224194  11.554  42.885   8.982
 1556POPC   C1A24195  11.512  43.247   8.636
 1556POPC   D2A24196  11.412  43.608   8.350
 1556POPC   C3A24197  11.288  43.511   7.910
 1556POPC   C4A24198  11.179  43.178   7.597
 1556POPC   C1B24199  11.456  42.582   8.631
 1556POPC   C2B24200  11.215  42.457   8.218
 1556POPC   C3B24201  11.243  42.784   7.918
 1556POPC   C4B24202  11.605  43.116   7.918
 1557POPC   NC324203  27.858   8.164   9.580
 1557POPC   PO424204  27.151   8.191   9.552
 1557POPC   GL124205  27.496   8.266   9.186
 1557POPC   GL224206  27.798   8.098   9.101
 1557POPC   C1A24207  27.605   8.350   8.714
 1557POPC   D2A24208  27.368   8.213   8.365
 1557POPC   C3A24209  27.582   8.224   7.972
 1557POPC   C4A24210  27.790   8.530   7.734
 1557POPC   C1B24211  27.941   7.917   8.771
 1557POPC   C2B24212  27.798   7.941   8.385
 1557POPC   C3B24213  27.965   7.868   8.028
 1557POPC   C4B24214  28.045   7.948   7.642
 1558POPC   NC324215  21.758  29.435   9.557
 1558POPC   PO424216  22.269  29.018   9.774
 1558POPC   GL124217  22.172  29.070   9.331
 1558POPC   GL224218  22.458  28.843   9.239
 1558POPC   C1A24219  22.039  29.344   8.961
 1558POPC   D2A24220  21.961  29.358   8.496
 1558POPC   C3A24221  22.189  29.263   8.117
 1558POPC   C4A24222  22.032  29.184   7.675
 1558POPC   C1B24223  22.394  29.010   8.831
 1558POPC   C2B24224  22.559  29.036   8.424
 1558POPC   C3B24225  22.526  28.897   7.989
 1558POPC   C4B24226  22.499  29.049   7.544
 1559POPC   NC324227  35.331  23.916   9.564
 1559POPC   PO424228  35.284  24.696   9.624
 1559POPC   GL124229  35.305  24.638   9.193
 1559POPC   GL224230  35.021  24.815   9.192
 1559POPC   C1A24231  35.409  24.426   8.784
 1559POPC   D2A24232  35.174  24.404   8.372
 1559POPC   C3A24233  35.410  24.378   7.988
 1559POPC   C4A24234  35.725  24.050   7.885
 1559POPC   C1B24235  35.033  24.756   8.764
 1559POPC   C2B24236  35.151  24.927   8.390
 1559POPC   C3B24237  35.072  24.767   7.985
 1559POPC   C4B24238  35.126  24.632   7.569
 1560POPC   NC324239  14.564  19.995   9.390
 1560POPC   PO424240  14.050  19.613   9.515
 1560POPC   GL124241  14.136  19.822   9.127
 1560POPC   GL224242  14.449  19.688   8.976
 1560POPC   C1A24243  14.166  20.097   8.762
 1560POPC   D2A24244  14.382  20.129   8.361
 1560POPC   C3A24245  14.245  20.114   7.945
 1560POPC   C4A24246  14.314  19.884   7.563
 1560POPC   C1B24247  14.696  20.061   8.768
 1560POPC   C2B24248  14.882  20.136   8.349
 1560POPC   C3B24249  14.744  19.927   8.013
 1560POPC   C4B24250  14.808  19.914   7.608
 1561POPC   NC324251  26.932  21.636   9.474
 1561POPC   PO424252  26.321  21.620   9.420
 1561POPC   GL124253  26.632  21.519   9.090
 1561POPC   GL224254  26.955  21.317   9.077
 1561POPC   C1A24255  26.791  21.601   8.694
 1561POPC   D2A24256  26.678  21.456   8.349
 1561POPC   C3A24257  26.850  21.634   8.016
 1561POPC   C4A24258  26.713  21.312   7.761
 1561POPC   C1B24259  27.283  21.426   8.786
 1561POPC   C2B24260  27.233  21.523   8.366
 1561POPC   C3B24261  27.172  21.217   8.048
 1561POPC   C4B24262  27.188  21.285   7.631
 1562POPC   NC324263  34.645  15.944   9.569
 1562POPC   PO424264  35.285  15.915   9.579
 1562POPC   GL124265  35.499  15.927   9.169
 1562POPC   GL224266  35.544  16.282   9.114
 1562POPC   C1A24267  35.605  15.918   8.718
 1562POPC   D2A24268  35.785  16.132   8.361
 1562POPC   C3A24269  35.519  16.037   7.967
 1562POPC   C4A24270  35.104  15.782   7.930
 1562POPC   C1B24271  35.246  16.339   8.782
 1562POPC   C2B24272  34.891  16.180   8.512
 1562POPC   C3B24273  34.801  16.231   8.061
 1562POPC   C4B24274  35.114  16.263   7.742
 1563POPC   NC324275  28.739  10.592   9.567
 1563POPC   PO424276  28.113  10.461   9.533
 1563POPC   GL124277  28.329  10.566   9.157
 1563POPC   GL224278  28.048  10.768   9.077
 1563POPC   C1A24279  28.629  10.618   8.786
 1563POPC   D2A24280  28.680  10.409   8.387
 1563POPC   C3A24281  28.611  10.589   7.970
 1563POPC   C4A24282  28.494  10.367   7.576
 1563POPC   C1B24283  28.144  10.562   8.667
 1563POPC   C2B24284  28.188  10.508   8.222
 1563POPC   C3B24285  28.096  10.590   7.796
 1563POPC   C4B24286  28.273  10.800   7.411
 1564POPC   NC324287  14.759  15.131   9.620
 1564POPC   PO424288  14.166  15.048   9.461
 1564POPC   GL124289  14.509  15.109   9.196
 1564POPC   GL224290  14.583  15.470   9.181
 1564POPC   C1A24291  14.684  15.031   8.827
 1564POPC   D2A24292  14.441  15.020   8.472
 1564POPC   C3A24293  14.688  15.010   8.122
 1564POPC   C4A24294  14.581  15.001   7.712
 1564POPC   C1B24295  14.296  15.390   8.825
 1564POPC   C2B24296  14.352  15.536   8.410
 1564POPC   C3B24297  14.372  15.389   7.995
 1564POPC   C4B24298  14.213  15.320   7.549
 1565POPC   NC324299   8.088  33.812   9.499
 1565POPC   PO424300   8.488  33.633   9.057
 1565POPC   GL124301   8.045  33.683   8.989
 1565POPC   GL224302   7.902  33.393   9.164
 1565POPC   C1A24303   7.834  33.763   8.570
 1565POPC   D2A24304   7.843  33.768   8.099
 1565POPC   C3A24305   8.084  34.080   7.896
 1565POPC   C4A24306   8.188  34.480   7.679
 1565POPC   C1B24307   7.944  33.275   8.715
 1565POPC   C2B24308   8.094  33.400   8.306
 1565POPC   C3B24309   8.325  33.606   7.960
 1565POPC   C4B24310   8.512  33.706   7.562
 1566POPC   NC324311  26.894  32.436   9.435
 1566POPC   PO424312  26.492  31.872   9.473
 1566POPC   GL124313  26.694  32.064   9.144
 1566POPC   GL224314  26.595  32.401   9.039
 1566POPC   C1A24315  26.944  32.023   8.810
 1566POPC   D2A24316  26.796  31.821   8.472
 1566POPC   C3A24317  26.925  31.926   8.070
 1566POPC   C4A24318  26.657  31.745   7.782
 1566POPC   C1B24319  26.464  32.268   8.645
 1566POPC   C2B24320  26.498  32.183   8.211
 1566POPC   C3B24321  26.659  32.278   7.807
 1566POPC   C4B24322  27.057  32.442   7.837
 1567POPC   NC324323  18.581  44.285   9.280
 1567POPC   PO424324  18.974  44.768   9.646
 1567POPC   GL124325  19.056  44.599   9.199
 1567POPC   GL224326  19.339  44.305   9.176
 1567POPC   C1A24327  18.844  44.717   8.819
 1567POPC   D2A24328  18.825  44.753   8.366
 1567POPC   C3A24329  18.928  44.987   8.001
 1567POPC   C4A24330  19.236  44.749   7.759
 1567POPC   C1B24331  19.127  44.295   8.790
 1567POPC   C2B24332  18.767  44.264   8.514
 1567POPC   C3B24333  18.843  44.294   8.081
 1567POPC   C4B24334  19.148  44.250   7.721
 1568POPC   NC324335   8.993  11.935   9.656
 1568POPC   PO424336   8.841  11.194   9.474
 1568POPC   GL124337   9.048  11.105   9.102
 1568POPC   GL224338   8.841  10.827   9.025
 1568POPC   C1A24339   8.997  11.298   8.692
 1568POPC   D2A24340   8.750  11.349   8.318
 1568POPC   C3A24341   9.045  11.383   7.979
 1568POPC   C4A24342   9.406  11.567   7.807
 1568POPC   C1B24343   8.974  10.800   8.583
 1568POPC   C2B24344   8.947  10.909   8.173
 1568POPC   C3B24345   8.692  11.040   7.820
 1568POPC   C4B24346   8.766  10.847   7.393
 1569POPC   NC324347  41.532   5.467   9.467
 1569POPC   PO424348  42.083   5.418   9.396
 1569POPC   GL124349  41.818   5.588   9.046
 1569POPC   GL224350  41.721   5.906   9.159
 1569POPC   C1A24351  41.702   5.790   8.627
 1569POPC   D2A24352  41.428   5.723   8.267
 1569POPC   C3A24353  41.589   5.670   7.868
 1569POPC   C4A24354  41.369   5.630   7.463
 1569POPC   C1B24355  41.431   6.147   8.877
 1569POPC   C2B24356  41.391   6.220   8.419
 1569POPC   C3B24357  41.619   6.159   8.026
 1569POPC   C4B24358  42.025   6.052   7.853
 1570POPC   NC324359   0.919  12.434   9.409
 1570POPC   PO424360   0.234  12.394   9.345
 1570POPC   GL124361   0.458  12.123   9.104
 1570POPC   GL224362   0.608  11.814   9.237
 1570POPC   C1A24363   0.263  12.044   8.714
 1570POPC   D2A24364   0.060  11.818   8.411
 1570POPC   C3A24365   0.149  12.041   8.070
 1570POPC   C4A24366   0.270  12.317   7.748
 1570POPC   C1B24367   0.710  11.821   8.774
 1570POPC   C2B24368   0.631  11.876   8.349
 1570POPC   C3B24369   0.660  12.026   7.919
 1570POPC   C4B24370   0.606  11.968   7.469
 1571POPC   NC324371   0.151  43.257   9.911
 1571POPC   PO424372  44.650  43.264   9.662
 1571POPC   GL124373  44.549  43.157   9.204
 1571POPC   GL224374  44.407  42.827   9.258
 1571POPC   C1A24375  44.574  43.243   8.719
 1571POPC   D2A24376  44.693  43.151   8.246
 1571POPC   C3A24377  44.444  43.453   7.991
 1571POPC   C4A24378  44.350  43.454   7.529
 1571POPC   C1B24379  44.504  42.755   8.817
 1571POPC   C2B24380  44.416  42.703   8.387
 1571POPC   C3B24381  44.606  42.598   7.986
 1571POPC   C4B24382  44.954  42.839   7.820
 1572POPC   NC324383  29.820  43.275   9.372
 1572POPC   PO424384  30.152  42.826   9.539
 1572POPC   GL124385  30.275  42.981   9.133
 1572POPC   GL224386  30.390  43.321   9.107
 1572POPC   C1A24387  30.055  42.960   8.771
 1572POPC   D2A24388  30.076  42.800   8.378
 1572POPC   C3A24389  29.760  42.984   8.111
 1572POPC   C4A24390  29.842  43.094   7.708
 1572POPC   C1B24391  30.266  43.425   8.717
 1572POPC   C2B24392  30.064  43.323   8.343
 1572POPC   C3B24393  30.212  43.368   7.937
 1572POPC   C4B24394  30.198  43.561   7.548
 1573POPC   NC324395  20.909  14.023   9.756
 1573POPC   PO424396  20.445  14.435   9.537
 1573POPC   GL124397  20.340  14.604   9.168
 1573POPC   GL224398  20.631  14.435   9.047
 1573POPC   C1A24399  20.441  14.765   8.746
 1573POPC   D2A24400  20.539  14.572   8.394
 1573POPC   C3A24401  20.299  14.657   8.063
 1573POPC   C4A24402  20.528  14.700   7.691
 1573POPC   C1B24403  20.604  14.149   8.680
 1573POPC   C2B24404  20.498  13.998   8.303
 1573POPC   C3B24405  20.600  14.244   7.952
 1573POPC   C4B24406  20.858  14.037   7.699
 1574POPC   NC324407  13.696  26.558   9.243
 1574POPC   PO424408  13.415  27.173   9.516
 1574POPC   GL124409  13.561  27.063   9.129
 1574POPC   GL224410  13.336  26.776   8.982
 1574POPC   C1A24411  13.477  27.208   8.715
 1574POPC   D2A24412  13.469  26.959   8.352
 1574POPC   C3A24413  13.709  27.010   7.993
 1574POPC   C4A24414  13.638  26.980   7.562
 1574POPC   C1B24415  13.512  26.511   8.606
 1574POPC   C2B24416  13.740  26.499   8.173
 1574POPC   C3B24417  13.940  26.609   7.743
 1574POPC   C4B24418  13.795  26.558   7.289
 1575POPC   NC324419  16.270  31.156   9.593
 1575POPC   PO424420  15.720  31.451   9.573
 1575POPC   GL124421  15.919  31.294   9.187
 1575POPC   GL224422  16.101  31.003   9.131
 1575POPC   C1A24423  16.041  31.339   8.729
 1575POPC   D2A24424  16.091  31.237   8.284
 1575POPC   C3A24425  15.969  31.577   8.006
 1575POPC   C4A24426  15.858  31.803   7.621
 1575POPC   C1B24427  15.769  30.920   8.833
 1575POPC   C2B24428  15.624  30.967   8.424
 1575POPC   C3B24429  15.648  31.159   8.013
 1575POPC   C4B24430  15.971  31.121   7.773
 1576POPC   NC324431  35.918  20.399   9.463
 1576POPC   PO424432  36.307  20.977   9.585
 1576POPC   GL124433  36.247  20.735   9.166
 1576POPC   GL224434  36.252  20.360   9.093
 1576POPC   C1A24435  35.948  20.648   8.804
 1576POPC   D2A24436  35.839  20.371   8.441
 1576POPC   C3A24437  36.058  20.470   8.033
 1576POPC   C4A24438  35.906  20.672   7.648
 1576POPC   C1B24439  36.435  20.435   8.677
 1576POPC   C2B24440  36.554  20.452   8.224
 1576POPC   C3B24441  36.491  20.226   7.845
 1576POPC   C4B24442  36.274  20.368   7.495
 1577POPC   NC324443  22.683  13.413   9.372
 1577POPC   PO424444  23.237  13.679   9.640
 1577POPC   GL124445  23.201  13.835   9.120
 1577POPC   GL224446  22.853  13.970   9.142
 1577POPC   C1A24447  23.309  13.728   8.690
 1577POPC   D2A24448  23.123  13.387   8.450
 1577POPC   C3A24449  23.265  13.333   8.032
 1577POPC   C4A24450  22.984  13.395   7.695
 1577POPC   C1B24451  22.777  13.709   8.757
 1577POPC   C2B24452  22.705  13.726   8.316
 1577POPC   C3B24453  22.552  13.550   7.935
 1577POPC   C4B24454  22.515  13.774   7.541
 1578POPC   NC324455   1.246  15.120   9.596
 1578POPC   PO424456   0.806  15.611   9.523
 1578POPC   GL124457   1.001  15.229   9.170
 1578POPC   GL224458   1.289  14.907   9.134
 1578POPC   C1A24459   1.242  15.223   8.748
 1578POPC   D2A24460   1.112  15.098   8.344
 1578POPC   C3A24461   1.342  15.143   7.982
 1578POPC   C4A24462   1.078  15.336   7.733
 1578POPC   C1B24463   0.954  14.789   8.824
 1578POPC   C2B24464   0.863  14.660   8.375
 1578POPC   C3B24465   0.883  14.869   7.932
 1578POPC   C4B24466   0.931  14.922   7.452
 1579POPC   NC324467  22.836  37.959   9.458
 1579POPC   PO424468  23.035  37.370   9.716
 1579POPC   GL124469  23.110  37.538   9.293
 1579POPC   GL224470  23.366  37.792   9.208
 1579POPC   C1A24471  23.093  37.491   8.848
 1579POPC   D2A24472  22.768  37.512   8.560
 1579POPC   C3A24473  22.892  37.559   8.118
 1579POPC   C4A24474  22.731  37.610   7.712
 1579POPC   C1B24475  23.136  38.004   8.860
 1579POPC   C2B24476  22.994  37.947   8.449
 1579POPC   C3B24477  23.108  38.094   8.054
 1579POPC   C4B24478  23.312  37.909   7.752
 1580POPC   NC324479  17.838  14.696   9.447
 1580POPC   PO424480  17.212  14.470   9.459
 1580POPC   GL124481  17.450  14.518   9.149
 1580POPC   GL224482  17.674  14.245   9.183
 1580POPC   C1A24483  17.412  14.713   8.803
 1580POPC   D2A24484  17.512  14.661   8.409
 1580POPC   C3A24485  17.239  14.358   8.206
 1580POPC   C4A24486  17.419  14.574   7.861
 1580POPC   C1B24487  17.722  14.018   8.785
 1580POPC   C2B24488  17.698  14.189   8.356
 1580POPC   C3B24489  17.616  14.118   7.902
 1580POPC   C4B24490  17.545  14.234   7.462
 1581POPC   NC324491  15.572  38.851   9.453
 1581POPC   PO424492  15.213  39.446   9.580
 1581POPC   GL124493  15.260  39.251   9.182
 1581POPC   GL224494  15.606  39.284   9.142
 1581POPC   C1A24495  15.368  39.140   8.725
 1581POPC   D2A24496  15.183  38.987   8.336
 1581POPC   C3A24497  15.295  39.083   7.926
 1581POPC   C4A24498  15.012  39.062   7.584
 1581POPC   C1B24499  15.690  39.535   8.734
 1581POPC   C2B24500  15.525  39.466   8.280
 1581POPC   C3B24501  15.520  39.520   7.805
 1581POPC   C4B24502  15.519  39.830   7.403
 1582POPC   NC324503   3.351   5.090   9.654
 1582POPC   PO424504   3.982   4.892   9.603
 1582POPC   GL124505   3.706   5.011   9.259
 1582POPC   GL224506   3.380   4.840   9.221
 1582POPC   C1A24507   3.565   5.254   8.900
 1582POPC   D2A24508   3.342   5.141   8.527
 1582POPC   C3A24509   3.476   5.262   8.114
 1582POPC   C4A24510   3.258   5.278   7.746
 1582POPC   C1B24511   3.524   4.743   8.821
 1582POPC   C2B24512   3.623   4.642   8.416
 1582POPC   C3B24513   3.696   4.811   8.067
 1582POPC   C4B24514   3.515   4.856   7.710
 1583POPC   NC324515   5.477  20.726   9.783
 1583POPC   PO424516   4.874  20.787   9.449
 1583POPC   GL124517   4.948  20.516   9.079
 1583POPC   GL224518   4.979  20.817   8.919
 1583POPC   C1A24519   5.033  20.434   8.617
 1583POPC   D2A24520   5.146  20.607   8.216
 1583POPC   C3A24521   4.996  20.541   7.809
 1583POPC   C4A24522   5.136  20.644   7.371
 1583POPC   C1B24523   5.327  20.890   8.636
 1583POPC   C2B24524   5.412  21.033   8.225
 1583POPC   C3B24525   5.410  20.854   7.800
 1583POPC   C4B24526   5.521  20.990   7.363
 1584POPC   NC324527  27.379  24.741   9.452
 1584POPC   PO424528  27.030  24.202   9.592
 1584POPC   GL124529  26.726  24.430   9.287
 1584POPC   GL224530  26.931  24.717   9.187
 1584POPC   C1A24531  26.591  24.505   8.827
 1584POPC   D2A24532  26.467  24.450   8.387
 1584POPC   C3A24533  26.697  24.565   8.085
 1584POPC   C4A24534  26.755  24.422   7.667
 1584POPC   C1B24535  27.068  24.353   8.917
 1584POPC   C2B24536  27.010  24.356   8.459
 1584POPC   C3B24537  27.127  24.341   8.000
 1584POPC   C4B24538  27.408  24.177   7.753
 1585POPC   NC324539  24.660   7.971   9.351
 1585POPC   PO424540  24.125   8.414   9.398
 1585POPC   GL124541  24.217   8.131   9.066
 1585POPC   GL224542  24.566   8.240   8.930
 1585POPC   C1A24543  24.161   8.141   8.640
 1585POPC   D2A24544  24.513   8.268   8.414
 1585POPC   C3A24545  24.370   8.246   8.038
 1585POPC   C4A24546  24.406   8.152   7.639
 1585POPC   C1B24547  24.718   7.837   8.698
 1585POPC   C2B24548  24.850   7.670   8.280
 1585POPC   C3B24549  24.814   7.952   7.910
 1585POPC   C4B24550  24.830   8.431   7.954
 1586POPC   NC324551  24.864  19.053   9.389
 1586POPC   PO424552  24.430  19.494   9.615
 1586POPC   GL124553  24.344  19.177   9.251
 1586POPC   GL224554  24.429  18.824   9.236
 1586POPC   C1A24555  24.488  19.186   8.820
 1586POPC   D2A24556  24.784  19.219   8.476
 1586POPC   C3A24557  24.570  19.271   8.087
 1586POPC   C4A24558  24.635  19.220   7.652
 1586POPC   C1B24559  24.539  18.694   8.780
 1586POPC   C2B24560  24.704  18.698   8.340
 1586POPC   C3B24561  24.602  18.705   7.886
 1586POPC   C4B24562  24.558  18.766   7.420
 1587POPC   NC324563  44.473   3.290   9.684
 1587POPC   PO424564  44.271   3.913   9.465
 1587POPC   GL124565  44.335   3.544   9.231
 1587POPC   GL224566  44.676   3.526   9.112
 1587POPC   C1A24567  44.318   3.583   8.776
 1587POPC   D2A24568  44.622   3.724   8.489
 1587POPC   C3A24569  44.544   3.608   8.071
 1587POPC   C4A24570  44.508   3.807   7.708
 1587POPC   C1B24571  44.761   3.270   8.729
 1587POPC   C2B24572  44.866   3.289   8.287
 1587POPC   C3B24573  44.997   3.129   7.876
 1587POPC   C4B24574  44.986   3.201   7.400
 1588POPC   NC324575  24.320  24.995   9.593
 1588POPC   PO424576  24.974  25.215   9.663
 1588POPC   GL124577  24.682  25.130   9.225
 1588POPC   GL224578  24.363  25.270   9.172
 1588POPC   C1A24579  24.509  24.935   8.797
 1588POPC   D2A24580  24.597  24.811   8.360
 1588POPC   C3A24581  24.453  24.961   7.945
 1588POPC   C4A24582  24.279  25.103   7.522
 1588POPC   C1B24583  24.491  25.451   8.810
 1588POPC   C2B24584  24.469  25.336   8.375
 1588POPC   C3B24585  24.235  25.420   7.990
 1588POPC   C4B24586  24.448  25.571   7.658
 1589POPC   NC324587  15.219  20.851   9.477
 1589POPC   PO424588  14.972  20.238   9.437
 1589POPC   GL124589  15.274  20.402   9.123
 1589POPC   GL224590  15.372  20.769   8.997
 1589POPC   C1A24591  15.113  20.415   8.713
 1589POPC   D2A24592  14.915  20.646   8.404
 1589POPC   C3A24593  15.154  20.568   8.065
 1589POPC   C4A24594  15.086  20.308   7.737
 1589POPC   C1B24595  14.907  20.844   8.905
 1589POPC   C2B24596  14.698  21.073   8.592
 1589POPC   C3B24597  14.810  21.103   8.158
 1589POPC   C4B24598  14.881  20.873   7.765
 1590POPC   NC324599  38.370  19.558   9.825
 1590POPC   PO424600  38.382  18.883   9.833
 1590POPC   GL124601  38.376  18.825   9.276
 1590POPC   GL224602  38.603  19.109   9.087
 1590POPC   C1A24603  38.461  18.787   8.780
 1590POPC   D2A24604  38.414  19.068   8.443
 1590POPC   C3A24605  38.341  18.828   8.063
 1590POPC   C4A24606  38.322  19.016   7.632
 1590POPC   C1B24607  38.770  19.390   8.748
 1590POPC   C2B24608  38.613  19.568   8.354
 1590POPC   C3B24609  38.433  19.364   8.004
 1590POPC   C4B24610  38.735  19.330   7.660
 1591POPC   NC324611   3.737  16.447   9.586
 1591POPC   PO424612   3.459  17.018   9.458
 1591POPC   GL124613   3.625  16.722   9.146
 1591POPC   GL224614   3.965  16.530   9.138
 1591POPC   C1A24615   3.541  16.868   8.732
 1591POPC   D2A24616   3.430  16.982   8.318
 1591POPC   C3A24617   3.655  16.952   7.964
 1591POPC   C4A24618   3.513  16.570   7.797
 1591POPC   C1B24619   3.791  16.431   8.709
 1591POPC   C2B24620   3.825  16.575   8.266
 1591POPC   C3B24621   4.074  16.668   7.874
 1591POPC   C4B24622   4.069  16.966   7.525
 1592POPC   NC324623  12.855  41.198   9.494
 1592POPC   PO424624  12.694  40.562   9.480
 1592POPC   GL124625  12.798  40.671   9.094
 1592POPC   GL224626  13.025  40.899   9.126
 1592POPC   C1A24627  12.669  40.881   8.737
 1592POPC   D2A24628  12.892  40.912   8.373
 1592POPC   C3A24629  12.632  40.988   8.054
 1592POPC   C4A24630  12.799  40.957   7.668
 1592POPC   C1B24631  13.184  40.729   8.749
 1592POPC   C2B24632  13.212  40.454   8.390
 1592POPC   C3B24633  13.282  40.583   7.956
 1592POPC   C4B24634  13.364  40.892   7.630
 1593POPC   NC324635  20.395  17.103   9.489
 1593POPC   PO424636  20.488  17.731   9.599
 1593POPC   GL124637  20.652  17.481   9.262
 1593POPC   GL224638  20.610  17.687   9.042
 1593POPC   C1A24639  20.527  17.258   8.841
 1593POPC   D2A24640  20.394  17.474   8.465
 1593POPC   C3A24641  20.531  17.271   8.062
 1593POPC   C4A24642  20.639  17.471   7.694
 1593POPC   C1B24643  20.437  17.936   8.721
 1593POPC   C2B24644  20.175  17.923   8.362
 1593POPC   C3B24645  20.269  17.731   7.978
 1593POPC   C4B24646  20.614  17.975   7.837
 1594POPC   NC324647  40.300  36.061   9.554
 1594POPC   PO424648  39.809  36.510   9.434
 1594POPC   GL124649  39.900  36.178   9.157
 1594POPC   GL224650  40.248  36.255   9.096
 1594POPC   C1A24651  39.875  36.245   8.714
 1594POPC   D2A24652  39.913  36.563   8.387
 1594POPC   C3A24653  39.731  36.371   8.033
 1594POPC   C4A24654  39.665  36.018   7.736
 1594POPC   C1B24655  40.363  36.101   8.710
 1594POPC   C2B24656  40.281  36.227   8.298
 1594POPC   C3B24657  40.135  36.071   7.930
 1594POPC   C4B24658  40.114  35.934   7.486
 1595POPC   NC324659  18.275  16.320   9.666
 1595POPC   PO424660  18.331  15.612   9.613
 1595POPC   GL124661  18.196  15.935   9.210
 1595POPC   GL224662  17.897  16.016   9.036
 1595POPC   C1A24663  18.326  16.007   8.749
 1595POPC   D2A24664  18.664  15.974   8.439
 1595POPC   C3A24665  18.557  16.098   8.039
 1595POPC   C4A24666  18.371  15.967   7.674
 1595POPC   C1B24667  17.848  16.160   8.588
 1595POPC   C2B24668  18.075  15.967   8.235
 1595POPC   C3B24669  17.976  15.732   7.859
 1595POPC   C4B24670  18.062  15.674   7.381
 1596POPC   NC324671  25.000  38.654   9.279
 1596POPC   PO424672  25.491  38.244   9.500
 1596POPC   GL124673  25.529  38.346   9.108
 1596POPC   GL224674  25.562  38.690   9.132
 1596POPC   C1A24675  25.472  38.146   8.738
 1596POPC   D2A24676  25.204  38.241   8.396
 1596POPC   C3A24677  25.402  38.183   7.984
 1596POPC   C4A24678  25.267  38.223   7.550
 1596POPC   C1B24679  25.428  38.812   8.721
 1596POPC   C2B24680  25.520  38.946   8.299
 1596POPC   C3B24681  25.258  38.657   8.027
 1596POPC   C4B24682  24.852  38.696   7.840
 1597POPC   NC324683  36.253  12.508   9.590
 1597POPC   PO424684  35.900  13.092   9.374
 1597POPC   GL124685  36.112  12.769   9.150
 1597POPC   GL224686  35.897  12.501   9.171
 1597POPC   C1A24687  36.183  12.688   8.715
 1597POPC   D2A24688  35.981  12.881   8.378
 1597POPC   C3A24689  36.216  12.932   8.022
 1597POPC   C4A24690  36.229  13.076   7.635
 1597POPC   C1B24691  35.948  12.242   8.813
 1597POPC   C2B24692  35.943  12.332   8.385
 1597POPC   C3B24693  35.830  12.556   8.019
 1597POPC   C4B24694  35.962  12.644   7.578
 1598POPC   NC324695  34.821   1.395   9.762
 1598POPC   PO424696  35.289   1.023   9.339
 1598POPC   GL124697  35.253   1.110   8.947
 1598POPC   GL224698  35.215   1.471   8.967
 1598POPC   C1A24699  35.292   0.896   8.550
 1598POPC   D2A24700  35.089   0.609   8.262
 1598POPC   C3A24701  34.966   0.864   7.924
 1598POPC   C4A24702  35.218   1.038   7.639
 1598POPC   C1B24703  35.105   1.411   8.540
 1598POPC   C2B24704  35.251   1.252   8.139
 1598POPC   C3B24705  35.395   1.496   7.740
 1598POPC   C4B24706  35.113   1.680   7.337
 1599POPC   NC324707  35.212  18.279   9.731
 1599POPC   PO424708  35.862  18.475   9.580
 1599POPC   GL124709  35.500  18.365   9.314
 1599POPC   GL224710  35.533  18.570   9.047
 1599POPC   C1A24711  35.120  18.263   9.008
 1599POPC   D2A24712  35.185  18.096   8.551
 1599POPC   C3A24713  35.218  18.388   8.203
 1599POPC   C4A24714  35.077  18.509   7.798
 1599POPC   C1B24715  35.570  18.090   8.880
 1599POPC   C2B24716  35.686  17.923   8.490
 1599POPC   C3B24717  35.687  18.107   8.078
 1599POPC   C4B24718  35.420  18.105   7.778
 1600POPC   NC324719  26.728  33.923   9.743
 1600POPC   PO424720  26.962  33.316   9.474
 1600POPC   GL124721  26.743  33.542   9.169
 1600POPC   GL224722  26.731  33.881   9.232
 1600POPC   C1A24723  26.657  33.649   8.758
 1600POPC   D2A24724  26.483  33.746   8.377
 1600POPC   C3A24725  26.745  33.735   8.024
 1600POPC   C4A24726  26.650  33.620   7.606
 1600POPC   C1B24727  26.869  34.111   8.877
 1600POPC   C2B24728  26.749  34.302   8.484
 1600POPC   C3B24729  26.909  34.223   8.068
 1600POPC   C4B24730  26.751  34.116   7.659
 1601POPC   NC324731   8.227   3.338   9.736
 1601POPC   PO424732   8.567   3.886   9.501
 1601POPC   GL124733   8.256   3.695   9.238
 1601POPC   GL224734   8.278   3.355   9.213
 1601POPC   C1A24735   8.084   3.619   8.823
 1601POPC   D2A24736   8.029   3.322   8.493
 1601POPC   C3A24737   8.146   3.528   8.120
 1601POPC   C4A24738   8.378   3.697   7.802
 1601POPC   C1B24739   8.473   3.249   8.818
 1601POPC   C2B24740   8.579   3.293   8.375
 1601POPC   C3B24741   8.626   3.206   7.919
 1601POPC   C4B24742   8.549   3.297   7.457
 1602POPC   NC324743  23.865  34.448   9.829
 1602POPC   PO424744  23.310  34.685   9.479
 1602POPC   GL124745  23.525  34.474   9.160
 1602POPC   GL224746  23.681  34.731   9.024
 1602POPC   C1A24747  23.717  34.332   8.725
 1602POPC   D2A24748  23.526  34.183   8.393
 1602POPC   C3A24749  23.505  34.372   7.986
 1602POPC   C4A24750  23.858  34.380   7.716
 1602POPC   C1B24751  23.354  34.674   8.723
 1602POPC   C2B24752  23.579  34.704   8.349
 1602POPC   C3B24753  23.775  34.827   7.947
 1602POPC   C4B24754  23.545  34.748   7.554
 1603POPC   NC324755  24.078  14.264   9.460
 1603POPC   PO424756  24.776  14.385   9.389
 1603POPC   GL124757  24.507  14.261   9.108
 1603POPC   GL224758  24.273  14.525   9.090
 1603POPC   C1A24759  24.486  14.357   8.686
 1603POPC   D2A24760  24.137  14.359   8.392
 1603POPC   C3A24761  24.295  14.271   7.972
 1603POPC   C4A24762  24.727  14.207   7.898
 1603POPC   C1B24763  24.432  14.844   8.838
 1603POPC   C2B24764  24.451  14.794   8.421
 1603POPC   C3B24765  24.238  14.762   8.063
 1603POPC   C4B24766  24.477  14.680   7.680
 1604POPC   NC324767  30.370   4.797   9.525
 1604POPC   PO424768  30.659   5.238   9.968
 1604POPC   GL124769  30.770   5.186   9.491
 1604POPC   GL224770  31.039   5.415   9.403
 1604POPC   C1A24771  30.823   5.087   9.006
 1604POPC   D2A24772  30.900   5.011   8.527
 1604POPC   C3A24773  30.659   5.004   8.109
 1604POPC   C4A24774  30.288   5.028   7.857
 1604POPC   C1B24775  31.026   5.565   8.984
 1604POPC   C2B24776  30.967   5.507   8.560
 1604POPC   C3B24777  30.987   5.396   8.139
 1604POPC   C4B24778  30.669   5.421   7.811
 1605POPC   NC324779  33.142   8.826   9.608
 1605POPC   PO424780  32.596   8.385   9.368
 1605POPC   GL124781  32.824   8.802   9.203
 1605POPC   GL224782  33.168   8.715   9.122
 1605POPC   C1A24783  33.100   9.167   8.934
 1605POPC   D2A24784  33.204   9.296   8.468
 1605POPC   C3A24785  32.971   9.224   8.037
 1605POPC   C4A24786  33.086   9.086   7.602
 1605POPC   C1B24787  32.956   8.775   8.685
 1605POPC   C2B24788  33.122   8.810   8.281
 1605POPC   C3B24789  33.164   8.660   7.849
 1605POPC   C4B24790  32.962   8.447   7.491
 1606POPC   NC324791  19.402  25.958   9.528
 1606POPC   PO424792  18.880  26.333   9.659
 1606POPC   GL124793  19.031  26.254   9.239
 1606POPC   GL224794  19.372  26.342   9.175
 1606POPC   C1A24795  18.997  25.990   8.864
 1606POPC   D2A24796  18.835  26.062   8.449
 1606POPC   C3A24797  19.076  26.222   8.090
 1606POPC   C4A24798  18.857  25.917   7.763
 1606POPC   C1B24799  19.495  26.114   8.832
 1606POPC   C2B24800  19.340  25.863   8.475
 1606POPC   C3B24801  19.274  25.763   8.037
 1606POPC   C4B24802  19.359  26.037   7.696
 1607POPC   NC324803  36.595  26.545   9.570
 1607POPC   PO424804  37.031  27.125   9.530
 1607POPC   GL124805  36.844  26.913   9.180
 1607POPC   GL224806  37.060  26.657   9.196
 1607POPC   C1A24807  36.969  26.813   8.719
 1607POPC   D2A24808  36.993  27.116   8.358
 1607POPC   C3A24809  37.015  26.925   7.942
 1607POPC   C4A24810  36.815  26.682   7.624
 1607POPC   C1B24811  37.319  26.327   9.029
 1607POPC   C2B24812  37.382  26.369   8.587
 1607POPC   C3B24813  37.121  26.478   8.225
 1607POPC   C4B24814  37.238  26.462   7.786
 1608POPC   NC324815  31.788  41.970   9.272
 1608POPC   PO424816  31.568  41.329   9.388
 1608POPC   GL124817  31.563  41.541   8.991
 1608POPC   GL224818  31.337  41.756   9.108
 1608POPC   C1A24819  31.424  41.460   8.548
 1608POPC   D2A24820  31.377  41.111   8.258
 1608POPC   C3A24821  31.608  41.278   7.928
 1608POPC   C4A24822  31.535  41.653   7.736
 1608POPC   C1B24823  31.271  41.932   8.705
 1608POPC   C2B24824  31.417  41.939   8.269
 1608POPC   C3B24825  31.208  41.999   7.890
 1608POPC   C4B24826  31.255  41.959   7.447
 1609POPC   NC324827  16.415  28.062   9.356
 1609POPC   PO424828  16.863  28.569   9.500
 1609POPC   GL124829  16.837  28.285   9.176
 1609POPC   GL224830  16.539  28.472   9.070
 1609POPC   C1A24831  16.794  28.157   8.741
 1609POPC   D2A24832  16.534  28.083   8.414
 1609POPC   C3A24833  16.665  28.270   8.049
 1609POPC   C4A24834  16.458  28.161   7.723
 1609POPC   C1B24835  16.885  28.663   8.824
 1609POPC   C2B24836  16.908  28.866   8.408
 1609POPC   C3B24837  16.829  28.764   8.009
 1609POPC   C4B24838  16.723  28.770   7.566
 1610POPC   NC324839  41.416  32.131   9.534
 1610POPC   PO424840  41.951  32.515   9.481
 1610POPC   GL124841  41.680  32.392   9.110
 1610POPC   GL224842  41.529  32.060   9.061
 1610POPC   C1A24843  41.664  32.266   8.630
 1610POPC   D2A24844  41.429  32.015   8.307
 1610POPC   C3A24845  41.741  32.124   8.018
 1610POPC   C4A24846  41.832  32.576   8.055
 1610POPC   C1B24847  41.235  32.410   8.855
 1610POPC   C2B24848  41.313  32.618   8.434
 1610POPC   C3B24849  41.329  32.440   8.022
 1610POPC   C4B24850  41.318  32.063   7.735
 1611POPC   NC324851  42.772  41.043   9.471
 1611POPC   PO424852  42.263  40.559   9.570
 1611POPC   GL124853  42.399  40.781   9.201
 1611POPC   GL224854  42.195  41.056   9.059
 1611POPC   C1A24855  42.640  40.853   8.846
 1611POPC   D2A24856  42.699  40.717   8.405
 1611POPC   C3A24857  42.372  40.932   8.169
 1611POPC   C4A24858  42.271  40.915   7.744
 1611POPC   C1B24859  42.145  40.871   8.664
 1611POPC   C2B24860  41.876  40.817   8.308
 1611POPC   C3B24861  41.925  40.575   7.935
 1611POPC   C4B24862  41.865  40.701   7.506
 1612POPC   NC324863   8.945  28.020   9.360
 1612POPC   PO424864   9.215  28.626   9.558
 1612POPC   GL124865   9.197  28.504   9.148
 1612POPC   GL224866   8.856  28.409   9.042
 1612POPC   C1A24867   9.184  28.686   8.758
 1612POPC   D2A24868   8.953  28.535   8.410
 1612POPC   C3A24869   9.103  28.593   7.975
 1612POPC   C4A24870   9.048  28.431   7.497
 1612POPC   C1B24871   8.732  28.065   8.750
 1612POPC   C2B24872   8.638  28.147   8.328
 1612POPC   C3B24873   8.868  28.156   7.969
 1612POPC   C4B24874   8.686  28.103   7.579
 1613POPC   NC324875   9.590  40.202   9.401
 1613POPC   PO424876  10.100  40.099   8.995
 1613POPC   GL124877   9.745  39.845   9.016
 1613POPC   GL224878   9.577  40.166   8.905
 1613POPC   C1A24879   9.626  39.746   8.615
 1613POPC   D2A24880   9.666  40.125   8.382
 1613POPC   C3A24881   9.817  39.973   8.001
 1613POPC   C4A24882   9.701  39.567   7.830
 1613POPC   C1B24883   9.270  40.459   8.714
 1613POPC   C2B24884   9.363  40.585   8.291
 1613POPC   C3B24885   9.701  40.499   8.006
 1613POPC   C4B24886   9.767  40.708   7.607
 1614POPC   NC324887   0.129  33.944   9.499
 1614POPC   PO424888   0.541  33.346   9.561
 1614POPC   GL124889   0.414  33.541   9.184
 1614POPC   GL224890   0.099  33.646   9.099
 1614POPC   C1A24891   0.501  33.708   8.763
 1614POPC   D2A24892   0.329  33.757   8.353
 1614POPC   C3A24893   0.568  33.710   7.999
 1614POPC   C4A24894   0.761  33.695   7.596
 1614POPC   C1B24895   0.135  34.042   8.808
 1614POPC   C2B24896   0.188  34.244   8.400
 1614POPC   C3B24897   0.154  34.079   7.986
 1614POPC   C4B24898   0.291  33.905   7.597
 1615POPC   NC324899  34.892  21.640   9.614
 1615POPC   PO424900  34.998  21.005   9.722
 1615POPC   GL124901  34.826  21.294   9.283
 1615POPC   GL224902  34.507  21.377   9.288
 1615POPC   C1A24903  34.795  21.274   8.828
 1615POPC   D2A24904  34.872  21.614   8.518
 1615POPC   C3A24905  34.826  21.431   8.101
 1615POPC   C4A24906  34.860  21.678   7.734
 1615POPC   C1B24907  34.392  21.578   8.882
 1615POPC   C2B24908  34.345  21.557   8.410
 1615POPC   C3B24909  34.357  21.619   7.933
 1615POPC   C4B24910  34.517  21.318   7.602
 1616POPC   NC324911   4.361  14.152   9.635
 1616POPC   PO424912   4.025  13.608   9.565
 1616POPC   GL124913   4.094  13.587   9.126
 1616POPC   GL224914   4.436  13.643   9.153
 1616POPC   C1A24915   3.945  13.577   8.678
 1616POPC   D2A24916   4.034  13.408   8.268
 1616POPC   C3A24917   4.128  13.691   7.957
 1616POPC   C4A24918   4.325  13.793   7.552
 1616POPC   C1B24919   4.438  13.429   8.744
 1616POPC   C2B24920   4.488  13.645   8.346
 1616POPC   C3B24921   4.619  13.551   7.924
 1616POPC   C4B24922   4.643  13.371   7.520
 1617POPC   NC324923  26.398  27.699   9.518
 1617POPC   PO424924  26.930  27.617   9.812
 1617POPC   GL124925  26.863  27.453   9.360
 1617POPC   GL224926  26.528  27.305   9.220
 1617POPC   C1A24927  26.887  27.484   8.881
 1617POPC   D2A24928  26.849  27.323   8.431
 1617POPC   C3A24929  26.909  27.564   8.033
 1617POPC   C4A24930  26.924  27.595   7.578
 1617POPC   C1B24931  26.379  27.344   8.767
 1617POPC   C2B24932  26.355  27.538   8.349
 1617POPC   C3B24933  26.409  27.473   7.905
 1617POPC   C4B24934  26.426  27.739   7.545
 1618POPC   NC324935  17.999  43.361   9.911
 1618POPC   PO424936  18.583  43.071   9.531
 1618POPC   GL124937  18.394  43.028   9.147
 1618POPC   GL224938  18.614  42.720   9.059
 1618POPC   C1A24939  18.224  43.305   8.781
 1618POPC   D2A24940  18.400  43.289   8.372
 1618POPC   C3A24941  18.141  43.345   8.036
 1618POPC   C4A24942  18.329  43.161   7.782
 1618POPC   C1B24943  18.450  42.864   8.675
 1618POPC   C2B24944  18.054  42.924   8.476
 1618POPC   C3B24945  18.025  42.846   8.070
 1618POPC   C4B24946  17.936  42.522   7.862
 1619POPC   NC324947  24.584   9.388   9.489
 1619POPC   PO424948  24.201   9.886   9.676
 1619POPC   GL124949  24.394   9.788   9.217
 1619POPC   GL224950  24.404   9.503   9.028
 1619POPC   C1A24951  24.527   9.989   8.805
 1619POPC   D2A24952  24.373   9.986   8.362
 1619POPC   C3A24953  24.600   9.904   7.952
 1619POPC   C4A24954  24.776   9.960   7.548
 1619POPC   C1B24955  24.625   9.331   8.674
 1619POPC   C2B24956  24.637   9.519   8.272
 1619POPC   C3B24957  24.495   9.389   7.826
 1619POPC   C4B24958  24.467   9.501   7.395
 1620POPC   NC324959  32.377   6.096   9.522
 1620POPC   PO424960  32.442   5.494   9.304
 1620POPC   GL124961  32.198   5.842   9.076
 1620POPC   GL224962  32.005   6.180   9.173
 1620POPC   C1A24963  32.336   6.025   8.659
 1620POPC   D2A24964  32.430   6.162   8.225
 1620POPC   C3A24965  32.393   5.825   7.884
 1620POPC   C4A24966  32.560   5.534   7.542
 1620POPC   C1B24967  31.834   6.072   8.785
 1620POPC   C2B24968  31.852   5.914   8.395
 1620POPC   C3B24969  31.850   5.813   7.992
 1620POPC   C4B24970  31.995   6.126   7.771
 1621POPC   NC324971  14.843   1.197   9.373
 1621POPC   PO424972  14.169   0.995   9.477
 1621POPC   GL124973  14.100   1.254   9.121
 1621POPC   GL224974  14.410   1.388   9.063
 1621POPC   C1A24975  14.150   1.138   8.713
 1621POPC   D2A24976  14.467   1.122   8.405
 1621POPC   C3A24977  14.302   1.098   8.021
 1621POPC   C4A24978  14.494   0.858   7.680
 1621POPC   C1B24979  14.523   1.558   8.665
 1621POPC   C2B24980  14.755   1.541   8.285
 1621POPC   C3B24981  14.780   1.317   7.924
 1621POPC   C4B24982  14.453   1.426   7.670
 1622POPC   NC324983  41.681  11.815   9.482
 1622POPC   PO424984  41.295  12.299   9.713
 1622POPC   GL124985  41.357  12.307   9.249
 1622POPC   GL224986  41.542  12.050   9.069
 1622POPC   C1A24987  41.282  12.341   8.773
 1622POPC   D2A24988  41.432  12.077   8.412
 1622POPC   C3A24989  41.325  12.240   8.021
 1622POPC   C4A24990  41.474  12.103   7.642
 1622POPC   C1B24991  41.824  12.127   8.727
 1622POPC   C2B24992  42.051  12.150   8.361
 1622POPC   C3B24993  41.838  12.062   8.016
 1622POPC   C4B24994  41.996  12.005   7.648
 1623POPC   NC324995  26.803  18.850   9.466
 1623POPC   PO424996  27.198  19.386   9.368
 1623POPC   GL124997  26.922  19.141   9.078
 1623POPC   GL224998  26.575  19.027   9.040
 1623POPC   C1A24999  26.955  18.958   8.691
 1623POPC   D2A25000  27.291  18.915   8.443
 1623POPC   C3A25001  27.125  18.921   8.059
 1623POPC   C4A25002  26.865  19.161   7.835
 1623POPC   C1B25003  26.568  18.613   8.821
 1623POPC   C2B25004  26.523  18.487   8.386
 1623POPC   C3B25005  26.671  18.661   7.954
 1623POPC   C4B25006  26.584  18.500   7.504
 1624POPC   NC325007  11.699   2.817   9.426
 1624POPC   PO425008  11.053   2.494   9.410
 1624POPC   GL125009  11.307   2.717   9.084
 1624POPC   GL225010  11.665   2.567   8.986
 1624POPC   C1A25011  11.187   2.703   8.644
 1624POPC   D2A25012  11.242   2.452   8.280
 1624POPC   C3A25013  11.064   2.637   7.935
 1624POPC   C4A25014  11.033   3.061   7.878
 1624POPC   C1B25015  11.638   2.930   8.697
 1624POPC   C2B25016  11.532   2.877   8.220
 1624POPC   C3B25017  11.568   2.545   7.895
 1624POPC   C4B25018  11.770   2.368   7.495
 1625POPC   NC325019  17.884  22.761   9.601
 1625POPC   PO425020  18.230  23.336   9.608
 1625POPC   GL125021  18.196  23.015   9.293
 1625POPC   GL225022  18.445  22.748   9.238
 1625POPC   C1A25023  18.105  23.071   8.888
 1625POPC   D2A25024  18.156  23.019   8.473
 1625POPC   C3A25025  18.338  22.887   8.138
 1625POPC   C4A25026  18.234  22.987   7.731
 1625POPC   C1B25027  18.674  22.524   8.913
 1625POPC   C2B25028  18.606  22.575   8.467
 1625POPC   C3B25029  18.734  22.560   8.045
 1625POPC   C4B25030  18.544  22.605   7.692
 1626POPC   NC325031   9.320  29.769   9.554
 1626POPC   PO425032   9.854  30.046   9.392
 1626POPC   GL125033   9.764  29.778   9.056
 1626POPC   GL225034   9.511  29.544   9.128
 1626POPC   C1A25035   9.736  29.959   8.645
 1626POPC   D2A25036   9.600  29.858   8.218
 1626POPC   C3A25037   9.821  30.110   7.883
 1626POPC   C4A25038   9.599  30.277   7.484
 1626POPC   C1B25039   9.423  29.569   8.680
 1626POPC   C2B25040   9.613  29.330   8.351
 1626POPC   C3B25041   9.514  29.419   7.952
 1626POPC   C4B25042   9.494  29.793   7.705
 1627POPC   NC325043  15.296  33.232  10.076
 1627POPC   PO425044  15.440  32.852   9.651
 1627POPC   GL125045  15.304  32.936   9.222
 1627POPC   GL225046  15.045  32.730   9.111
 1627POPC   C1A25047  15.212  33.123   8.775
 1627POPC   D2A25048  15.047  33.123   8.314
 1627POPC   C3A25049  15.276  33.128   7.911
 1627POPC   C4A25050  15.369  33.366   7.517
 1627POPC   C1B25051  15.242  32.621   8.697
 1627POPC   C2B25052  15.208  32.639   8.236
 1627POPC   C3B25053  14.928  32.718   7.898
 1627POPC   C4B25054  14.768  32.527   7.506
 1628POPC   NC325055  34.563  25.575   9.470
 1628POPC   PO425056  34.749  25.050   9.746
 1628POPC   GL125057  34.590  25.036   9.340
 1628POPC   GL225058  34.300  24.847   9.243
 1628POPC   C1A25059  34.674  25.066   8.920
 1628POPC   D2A25060  34.638  25.250   8.527
 1628POPC   C3A25061  34.734  25.114   8.118
 1628POPC   C4A25062  34.716  25.275   7.696
 1628POPC   C1B25063  34.180  25.047   8.814
 1628POPC   C2B25064  34.220  24.992   8.343
 1628POPC   C3B25065  34.272  25.112   7.895
 1628POPC   C4B25066  34.309  25.064   7.434
 1629POPC   NC325067  14.478   4.758   9.419
 1629POPC   PO425068  14.071   4.207   9.628
 1629POPC   GL125069  14.224   4.365   9.188
 1629POPC   GL225070  14.481   4.180   8.986
 1629POPC   C1A25071  14.024   4.123   8.832
 1629POPC   D2A25072  13.923   4.210   8.425
 1629POPC   C3A25073  14.284   4.359   8.159
 1629POPC   C4A25074  14.465   4.257   7.754
 1629POPC   C1B25075  14.421   4.445   8.647
 1629POPC   C2B25076  14.693   4.662   8.343
 1629POPC   C3B25077  14.848   4.522   7.957
 1629POPC   C4B25078  14.766   4.586   7.492
 1630POPC   NC325079  25.724  27.973   9.211
 1630POPC   PO425080  25.986  27.439   9.553
 1630POPC   GL125081  26.045  27.520   9.129
 1630POPC   GL225082  25.777  27.329   9.077
 1630POPC   C1A25083  25.938  27.616   8.668
 1630POPC   D2A25084  25.846  27.801   8.250
 1630POPC   C3A25085  25.979  27.754   7.816
 1630POPC   C4A25086  25.862  28.058   7.514
 1630POPC   C1B25087  25.818  27.124   8.697
 1630POPC   C2B25088  25.663  27.301   8.325
 1630POPC   C3B25089  25.564  27.470   7.915
 1630POPC   C4B25090  25.705  27.471   7.466
 1631POPC   NC325091  38.042  37.142   9.591
 1631POPC   PO425092  37.478  36.707   9.745
 1631POPC   GL125093  37.461  36.774   9.270
 1631POPC   GL225094  37.367  37.123   9.200
 1631POPC   C1A25095  37.704  36.801   8.864
 1631POPC   D2A25096  37.908  36.993   8.471
 1631POPC   C3A25097  37.762  36.878   8.027
 1631POPC   C4A25098  37.687  36.674   7.609
 1631POPC   C1B25099  37.293  37.150   8.740
 1631POPC   C2B25100  37.246  37.240   8.272
 1631POPC   C3B25101  37.340  37.170   7.815
 1631POPC   C4B25102  37.314  36.951   7.417
 1632POPC   NC325103  39.124  28.107   9.507
 1632POPC   PO425104  39.368  28.639   9.570
 1632POPC   GL125105  39.131  28.524   9.180
 1632POPC   GL225106  39.336  28.501   8.894
 1632POPC   C1A25107  38.872  28.519   8.789
 1632POPC   D2A25108  39.040  28.530   8.390
 1632POPC   C3A25109  39.025  28.157   8.136
 1632POPC   C4A25110  38.925  28.223   7.750
 1632POPC   C1B25111  39.478  28.794   8.614
 1632POPC   C2B25112  39.447  28.789   8.183
 1632POPC   C3B25113  39.125  28.685   7.899
 1632POPC   C4B25114  39.243  28.546   7.519
 1633POPC   NC325115   2.719  13.384   9.409
 1633POPC   PO425116   2.748  14.007   9.543
 1633POPC   GL125117   2.823  13.814   9.140
 1633POPC   GL225118   3.141  13.610   9.191
 1633POPC   C1A25119   2.715  13.717   8.692
 1633POPC   D2A25120   2.652  13.818   8.258
 1633POPC   C3A25121   2.614  13.640   7.860
 1633POPC   C4A25122   2.682  13.937   7.501
 1633POPC   C1B25123   3.017  13.352   8.849
 1633POPC   C2B25124   3.032  13.316   8.405
 1633POPC   C3B25125   3.099  13.589   8.042
 1633POPC   C4B25126   3.045  13.590   7.586
 1634POPC   NC325127   4.014  19.764   9.474
 1634POPC   PO425128   4.713  19.504   9.580
 1634POPC   GL125129   4.435  19.575   9.207
 1634POPC   GL225130   4.434  19.962   9.162
 1634POPC   C1A25131   4.321  19.671   8.760
 1634POPC   D2A25132   4.597  19.945   8.507
 1634POPC   C3A25133   4.548  19.892   8.085
 1634POPC   C4A25134   4.588  20.194   7.781
 1634POPC   C1B25135   4.256  20.203   8.799
 1634POPC   C2B25136   4.099  20.075   8.401
 1634POPC   C3B25137   4.097  20.187   7.982
 1634POPC   C4B25138   4.184  19.870   7.719
 1635POPC   NC325139   6.249  15.696   9.829
 1635POPC   PO425140   5.783  15.587   9.540
 1635POPC   GL125141   5.708  15.732   9.082
 1635POPC   GL225142   5.681  16.091   9.041
 1635POPC   C1A25143   5.494  15.804   8.648
 1635POPC   D2A25144   5.480  15.656   8.204
 1635POPC   C3A25145   5.759  15.754   7.864
 1635POPC   C4A25146   6.191  15.779   7.622
 1635POPC   C1B25147   5.979  15.968   8.700
 1635POPC   C2B25148   6.031  15.890   8.259
 1635POPC   C3B25149   6.025  16.187   7.894
 1635POPC   C4B25150   6.214  16.306   7.489
 1636POPC   NC325151  22.820  25.996   9.510
 1636POPC   PO425152  23.375  25.623   9.268
 1636POPC   GL125153  23.011  25.877   9.046
 1636POPC   GL225154  22.634  25.812   9.036
 1636POPC   C1A25155  22.778  26.255   8.824
 1636POPC   D2A25156  22.575  26.254   8.398
 1636POPC   C3A25157  22.894  26.320   8.108
 1636POPC   C4A25158  22.940  26.446   7.716
 1636POPC   C1B25159  22.752  25.799   8.607
 1636POPC   C2B25160  22.900  25.818   8.206
 1636POPC   C3B25161  22.922  25.880   7.763
 1636POPC   C4B25162  22.913  25.718   7.279
 1637POPC   NC325163  35.694  41.579   9.428
 1637POPC   PO425164  35.164  41.293   9.544
 1637POPC   GL125165  35.367  41.269   9.158
 1637POPC   GL225166  35.693  41.145   9.182
 1637POPC   C1A25167  35.428  41.535   8.793
 1637POPC   D2A25168  35.209  41.588   8.406
 1637POPC   C3A25169  35.374  41.720   7.999
 1637POPC   C4A25170  35.349  41.488   7.620
 1637POPC   C1B25171  35.807  41.165   8.796
 1637POPC   C2B25172  35.593  41.211   8.422
 1637POPC   C3B25173  35.686  41.335   8.028
 1637POPC   C4B25174  35.776  41.197   7.629
 1638POPC   NC325175  12.127  28.746   9.344
 1638POPC   PO425176  12.227  29.411   9.288
 1638POPC   GL125177  12.123  29.081   8.949
 1638POPC   GL225178  11.835  28.824   8.941
 1638POPC   C1A25179  12.188  28.967   8.509
 1638POPC   D2A25180  12.383  29.172   8.155
 1638POPC   C3A25181  12.078  29.359   7.870
 1638POPC   C4A25182  11.646  29.221   7.753
 1638POPC   C1B25183  11.972  28.503   8.654
 1638POPC   C2B25184  11.923  28.456   8.233
 1638POPC   C3B25185  11.955  28.845   8.002
 1638POPC   C4B25186  12.282  28.925   7.720
 1639POPC   NC325187  21.841  31.344   9.573
 1639POPC   PO425188  21.386  31.686   9.568
 1639POPC   GL125189  21.658  31.667   9.217
 1639POPC   GL225190  21.400  31.502   9.081
 1639POPC   C1A25191  21.666  31.836   8.815
 1639POPC   D2A25192  21.530  31.523   8.541
 1639POPC   C3A25193  21.451  31.607   8.151
 1639POPC   C4A25194  21.593  31.618   7.713
 1639POPC   C1B25195  21.125  31.713   8.799
 1639POPC   C2B25196  21.029  31.422   8.476
 1639POPC   C3B25197  20.942  31.291   8.083
 1639POPC   C4B25198  21.101  31.585   7.797
 1640POPC   NC325199  22.505  22.882   9.401
 1640POPC   PO425200  21.961  22.652   9.728
 1640POPC   GL125201  22.036  22.780   9.246
 1640POPC   GL225202  22.018  23.094   9.135
 1640POPC   C1A25203  22.116  22.681   8.814
 1640POPC   D2A25204  21.926  22.761   8.419
 1640POPC   C3A25205  22.098  22.648   8.037
 1640POPC   C4A25206  22.152  22.796   7.636
 1640POPC   C1B25207  21.870  23.285   8.786
 1640POPC   C2B25208  22.064  23.259   8.375
 1640POPC   C3B25209  21.925  23.135   7.971
 1640POPC   C4B25210  21.937  23.255   7.531
 1641POPC   NC325211   6.529  21.183   9.519
 1641POPC   PO425212   7.018  21.710   9.413
 1641POPC   GL125213   6.848  21.357   9.143
 1641POPC   GL225214   6.488  21.395   9.081
 1641POPC   C1A25215   6.762  21.201   8.696
 1641POPC   D2A25216   7.016  21.068   8.320
 1641POPC   C3A25217   6.964  21.330   7.939
 1641POPC   C4A25218   6.810  21.337   7.532
 1641POPC   C1B25219   6.239  21.347   8.758
 1641POPC   C2B25220   6.324  21.485   8.377
 1641POPC   C3B25221   6.442  21.286   8.019
 1641POPC   C4B25222   6.365  21.493   7.655
 1642POPC   NC325223   9.653  44.974   9.599
 1642POPC   PO425224  10.191  44.699   9.749
 1642POPC   GL125225   9.961  44.671   9.280
 1642POPC   GL225226   9.671  44.906   9.112
 1642POPC   C1A25227  10.031  44.751   8.809
 1642POPC   D2A25228   9.836  44.657   8.423
 1642POPC   C3A25229   9.934  44.796   8.019
 1642POPC   C4A25230  10.076  44.650   7.634
 1642POPC   C1B25231   9.513  44.565   8.839
 1642POPC   C2B25232   9.444  44.349   8.433
 1642POPC   C3B25233   9.459  44.583   8.016
 1642POPC   C4B25234   9.465   0.026   7.768
 1643POPC   NC325235  18.581  38.411   9.613
 1643POPC   PO425236  19.246  38.195   9.513
 1643POPC   GL125237  18.937  38.371   9.162
 1643POPC   GL225238  18.595  38.183   9.165
 1643POPC   C1A25239  18.995  38.697   8.797
 1643POPC   D2A25240  19.057  38.847   8.358
 1643POPC   C3A25241  19.168  38.483   8.075
 1643POPC   C4A25242  19.081  38.237   7.683
 1643POPC   C1B25243  18.663  38.127   8.760
 1643POPC   C2B25244  18.813  38.369   8.425
 1643POPC   C3B25245  18.699  38.258   8.015
 1643POPC   C4B25246  18.550  37.967   7.683
 1644POPC   NC325247  25.827  37.914   9.386
 1644POPC   PO425248  26.344  37.487   9.480
 1644POPC   GL125249  26.157  37.566   9.099
 1644POPC   GL225250  25.970  37.316   8.942
 1644POPC   C1A25251  26.251  37.631   8.670
 1644POPC   D2A25252  26.046  37.716   8.328
 1644POPC   C3A25253  26.222  37.645   7.993
 1644POPC   C4A25254  26.098  37.712   7.600
 1644POPC   C1B25255  25.706  37.632   8.701
 1644POPC   C2B25256  25.546  37.820   8.330
 1644POPC   C3B25257  25.706  37.772   7.917
 1644POPC   C4B25258  25.620  37.821   7.464
 1645POPC   NC325259  33.397   9.641   9.492
 1645POPC   PO425260  32.713   9.890   9.545
 1645POPC   GL125261  32.937   9.665   9.219
 1645POPC   GL225262  32.763   9.349   9.228
 1645POPC   C1A25263  33.242   9.647   8.850
 1645POPC   D2A25264  33.066   9.800   8.476
 1645POPC   C3A25265  33.212   9.675   8.091
 1645POPC   C4A25266  33.200   9.907   7.694
 1645POPC   C1B25267  32.753   9.480   8.775
 1645POPC   C2B25268  32.669   9.538   8.354
 1645POPC   C3B25269  32.724   9.765   7.977
 1645POPC   C4B25270  32.867   9.538   7.619
 1646POPC   NC325271  17.343  37.480   9.811
 1646POPC   PO425272  17.576  37.943   9.429
 1646POPC   GL125273  17.552  37.684   9.105
 1646POPC   GL225274  17.221  37.555   9.092
 1646POPC   C1A25275  17.752  37.695   8.744
 1646POPC   D2A25276  17.882  37.798   8.372
 1646POPC   C3A25277  17.705  37.562   8.027
 1646POPC   C4A25278  17.595  37.735   7.619
 1646POPC   C1B25279  17.229  37.912   8.777
 1646POPC   C2B25280  17.362  38.017   8.361
 1646POPC   C3B25281  17.240  37.826   7.971
 1646POPC   C4B25282  17.272  37.395   7.793
 1647POPC   NC325283   7.046   9.974   9.411
 1647POPC   PO425284   6.638   9.410   9.471
 1647POPC   GL125285   6.820   9.561   9.124
 1647POPC   GL225286   7.146   9.504   9.186
 1647POPC   C1A25287   6.691   9.791   8.765
 1647POPC   D2A25288   6.420   9.634   8.452
 1647POPC   C3A25289   6.311   9.828   8.091
 1647POPC   C4A25290   6.462   9.880   7.700
 1647POPC   C1B25291   7.184   9.638   8.734
 1647POPC   C2B25292   6.960   9.638   8.338
 1647POPC   C3B25293   6.936   9.737   7.905
 1647POPC   C4B25294   6.774   9.518   7.542
 1648POPC   NC325295  10.924  42.007   9.459
 1648POPC   PO425296  10.230  42.271   9.455
 1648POPC   GL125297  10.352  42.131   9.054
 1648POPC   GL225298  10.692  42.252   9.078
 1648POPC   C1A25299  10.483  42.160   8.622
 1648POPC   D2A25300  10.691  42.274   8.266
 1648POPC   C3A25301  10.476  42.114   7.923
 1648POPC   C4A25302  10.394  42.424   7.612
 1648POPC   C1B25303  10.619  42.630   8.807
 1648POPC   C2B25304  10.811  42.776   8.400
 1648POPC   C3B25305  10.717  42.709   7.969
 1648POPC   C4B25306  10.896  42.377   7.770
 1649POPC   NC325307  34.721   2.296   9.499
 1649POPC   PO425308  34.544   1.637   9.459
 1649POPC   GL125309  34.445   1.975   9.160
 1649POPC   GL225310  34.720   2.177   9.018
 1649POPC   C1A25311  34.338   1.933   8.729
 1649POPC   D2A25312  34.192   1.760   8.342
 1649POPC   C3A25313  34.317   1.904   7.947
 1649POPC   C4A25314  34.397   2.255   7.687
 1649POPC   C1B25315  34.851   1.837   8.772
 1649POPC   C2B25316  34.729   1.911   8.338
 1649POPC   C3B25317  34.832   2.160   7.968
 1649POPC   C4B25318  34.880   2.227   7.502
 1650POPC   NC325319  39.685  27.391   9.326
 1650POPC   PO425320  40.229  27.629   9.614
 1650POPC   GL125321  40.145  27.365   9.163
 1650POPC   GL225322  39.905  27.618   8.951
 1650POPC   C1A25323  40.143  27.250   8.727
 1650POPC   D2A25324  40.309  27.501   8.410
 1650POPC   C3A25325  40.203  27.443   7.995
 1650POPC   C4A25326  40.310  27.731   7.689
 1650POPC   C1B25327  39.826  27.665   8.543
 1650POPC   C2B25328  39.873  27.933   8.174
 1650POPC   C3B25329  39.819  27.832   7.767
 1650POPC   C4B25330  39.892  27.436   7.563
 1651POPC   NC325331   0.768  41.202   9.165
 1651POPC   PO425332   0.709  40.593   9.469
 1651POPC   GL125333   0.499  40.740   9.103
 1651POPC   GL225334   0.126  40.778   9.137
 1651POPC   C1A25335   0.458  40.656   8.675
 1651POPC   D2A25336   0.312  40.452   8.318
 1651POPC   C3A25337   0.418  40.743   8.009
 1651POPC   C4A25338   0.567  41.079   7.763
 1651POPC   C1B25339   0.118  41.029   8.764
 1651POPC   C2B25340   0.253  41.099   8.357
 1651POPC   C3B25341   0.088  41.145   7.924
 1651POPC   C4B25342   0.187  40.993   7.475
 1652POPC   NC325343  23.672  29.711   9.540
 1652POPC   PO425344  23.432  30.282   9.426
 1652POPC   GL125345  23.595  30.180   9.050
 1652POPC   GL225346  23.871  29.950   9.119
 1652POPC   C1A25347  23.553  30.110   8.628
 1652POPC   D2A25348  23.446  29.697   8.492
 1652POPC   C3A25349  23.379  29.707   8.067
 1652POPC   C4A25350  23.599  30.026   7.810
 1652POPC   C1B25351  24.058  30.160   8.763
 1652POPC   C2B25352  24.042  30.368   8.380
 1652POPC   C3B25353  24.141  30.198   7.965
 1652POPC   C4B25354  24.122  29.844   7.745
 1653POPC   NC325355  20.696  32.626   9.552
 1653POPC   PO425356  20.482  31.930   9.507
 1653POPC   GL125357  20.525  32.219   9.208
 1653POPC   GL225358  20.878  32.277   9.236
 1653POPC   C1A25359  20.309  32.305   8.825
 1653POPC   D2A25360  20.096  32.137   8.488
 1653POPC   C3A25361  20.193  32.376   8.138
 1653POPC   C4A25362  20.460  32.284   7.815
 1653POPC   C1B25363  20.829  32.154   8.807
 1653POPC   C2B25364  20.636  32.241   8.413
 1653POPC   C3B25365  20.870  32.421   8.097
 1653POPC   C4B25366  20.962  32.350   7.685
 1654POPC   NC325367  22.648   6.832   9.569
 1654POPC   PO425368  23.274   6.561   9.417
 1654POPC   GL125369  22.995   6.724   9.170
 1654POPC   GL225370  22.793   6.431   9.275
 1654POPC   C1A25371  23.083   6.769   8.723
 1654POPC   D2A25372  23.091   6.647   8.281
 1654POPC   C3A25373  22.888   6.891   7.935
 1654POPC   C4A25374  22.936   6.647   7.525
 1654POPC   C1B25375  22.702   6.386   8.840
 1654POPC   C2B25376  22.776   6.250   8.428
 1654POPC   C3B25377  22.714   6.422   7.995
 1654POPC   C4B25378  22.548   6.295   7.592
 1655POPC   NC325379  12.498  25.281   9.692
 1655POPC   PO425380  13.166  25.408   9.507
 1655POPC   GL125381  12.992  25.191   9.165
 1655POPC   GL225382  12.631  25.278   9.101
 1655POPC   C1A25383  12.973  25.248   8.736
 1655POPC   D2A25384  12.720  25.331   8.394
 1655POPC   C3A25385  12.768  25.488   8.030
 1655POPC   C4A25386  13.017  25.466   7.716
 1655POPC   C1B25387  12.516  24.997   8.714
 1655POPC   C2B25388  12.515  24.901   8.233
 1655POPC   C3B25389  12.632  25.069   7.778
 1655POPC   C4B25390  12.395  24.975   7.358
 1656POPC   NC325391  25.384  25.453   9.707
 1656POPC   PO425392  25.543  24.897   9.325
 1656POPC   GL125393  25.401  24.977   8.948
 1656POPC   GL225394  25.151  25.111   9.059
 1656POPC   C1A25395  25.415  25.295   8.596
 1656POPC   D2A25396  25.391  25.487   8.173
 1656POPC   C3A25397  25.284  25.197   7.806
 1656POPC   C4A25398  25.447  25.032   7.390
 1656POPC   C1B25399  24.928  25.207   8.734
 1656POPC   C2B25400  24.983  25.187   8.321
 1656POPC   C3B25401  24.798  25.314   7.955
 1656POPC   C4B25402  24.768  25.165   7.570
 1657POPC   NC325403  25.895  24.624   9.478
 1657POPC   PO425404  26.228  24.075   9.326
 1657POPC   GL125405  26.135  24.475   9.047
 1657POPC   GL225406  25.778  24.597   8.993
 1657POPC   C1A25407  26.048  24.594   8.593
 1657POPC   D2A25408  25.844  24.558   8.195
 1657POPC   C3A25409  26.164  24.661   7.911
 1657POPC   C4A25410  26.343  24.269   7.884
 1657POPC   C1B25411  25.522  24.651   8.601
 1657POPC   C2B25412  25.476  24.929   8.221
 1657POPC   C3B25413  25.672  24.856   7.815
 1657POPC   C4B25414  25.900  24.773   7.445
 1658POPC   NC325415   5.660  21.677   9.535
 1658POPC   PO425416   6.299  21.582   9.530
 1658POPC   GL125417   5.978  21.392   9.229
 1658POPC   GL225418   5.867  21.067   9.390
 1658POPC   C1A25419   5.739  21.436   8.785
 1658POPC   D2A25420   5.650  21.473   8.317
 1658POPC   C3A25421   5.968  21.585   8.024
 1658POPC   C4A25422   5.915  21.692   7.625
 1658POPC   C1B25423   5.898  20.979   8.954
 1658POPC   C2B25424   5.840  20.974   8.531
 1658POPC   C3B25425   5.915  21.061   8.112
 1658POPC   C4B25426   6.070  21.110   7.714
 1659POPC   NC325427   4.885  32.996   9.888
 1659POPC   PO425428   5.274  33.406   9.538
 1659POPC   GL125429   5.054  33.146   9.245
 1659POPC   GL225430   4.722  32.953   9.313
 1659POPC   C1A25431   5.159  32.954   8.835
 1659POPC   D2A25432   5.313  32.858   8.414
 1659POPC   C3A25433   5.281  33.121   8.037
 1659POPC   C4A25434   5.415  32.905   7.680
 1659POPC   C1B25435   4.683  33.138   8.904
 1659POPC   C2B25436   4.627  33.237   8.459
 1659POPC   C3B25437   4.752  33.057   8.056
 1659POPC   C4B25438   4.935  32.996   7.656
 1660POPC   NC325439  33.421  44.523   9.552
 1660POPC   PO425440  33.970  44.860   9.392
 1660POPC   GL125441  33.953  44.635   9.036
 1660POPC   GL225442  33.659  44.462   9.108
 1660POPC   C1A25443  33.873  44.832   8.669
 1660POPC   D2A25444  33.983  44.881   8.276
 1660POPC   C3A25445  33.747  44.711   7.934
 1660POPC   C4A25446  33.927  44.340   7.798
 1660POPC   C1B25447  33.464  44.524   8.744
 1660POPC   C2B25448  33.696  44.450   8.384
 1660POPC   C3B25449  33.485  44.271   8.077
 1660POPC   C4B25450  33.267  44.510   7.854
 1661POPC   NC325451  26.659  13.392   9.522
 1661POPC   PO425452  27.208  13.865   9.633
 1661POPC   GL125453  27.032  13.738   9.226
 1661POPC   GL225454  26.961  13.413   9.122
 1661POPC   C1A25455  26.921  13.812   8.770
 1661POPC   D2A25456  26.968  13.620   8.329
 1661POPC   C3A25457  26.841  13.733   7.895
 1661POPC   C4A25458  26.827  13.968   7.478
 1661POPC   C1B25459  26.715  13.332   8.720
 1661POPC   C2B25460  26.557  13.338   8.270
 1661POPC   C3B25461  26.743  13.213   7.857
 1661POPC   C4B25462  26.545  13.261   7.438
 1662POPC   NC325463  40.407  17.058   9.453
 1662POPC   PO425464  39.685  16.937   9.465
 1662POPC   GL125465  39.860  16.785   9.082
 1662POPC   GL225466  40.226  16.848   9.037
 1662POPC   C1A25467  39.834  16.678   8.645
 1662POPC   D2A25468  39.893  16.973   8.279
 1662POPC   C3A25469  39.724  16.792   7.908
 1662POPC   C4A25470  39.721  16.359   7.863
 1662POPC   C1B25471  40.276  16.925   8.620
 1662POPC   C2B25472  40.362  16.700   8.244
 1662POPC   C3B25473  40.211  16.645   7.822
 1662POPC   C4B25474  40.310  16.835   7.418
 1663POPC   NC325475  44.110  38.013   9.450
 1663POPC   PO425476  43.660  37.425   9.455
 1663POPC   GL125477  43.898  37.648   9.182
 1663POPC   GL225478  44.205  37.511   9.216
 1663POPC   C1A25479  44.070  37.806   8.792
 1663POPC   D2A25480  43.851  37.667   8.422
 1663POPC   C3A25481  44.015  37.816   8.060
 1663POPC   C4A25482  43.994  38.070   7.700
 1663POPC   C1B25483  43.998  37.306   8.825
 1663POPC   C2B25484  44.061  37.183   8.404
 1663POPC   C3B25485  43.859  37.285   8.033
 1663POPC   C4B25486  43.981  37.483   7.676
 1664POPC   NC325487   3.415   7.591   9.425
 1664POPC   PO425488   4.086   7.386   9.461
 1664POPC   GL125489   3.845   7.533   9.111
 1664POPC   GL225490   3.533   7.761   8.977
 1664POPC   C1A25491   3.892   7.605   8.698
 1664POPC   D2A25492   3.825   7.389   8.365
 1664POPC   C3A25493   3.790   7.515   7.977
 1664POPC   C4A25494   3.910   7.734   7.595
 1664POPC   C1B25495   3.180   7.723   8.745
 1664POPC   C2B25496   3.088   7.536   8.407
 1664POPC   C3B25497   3.284   7.475   8.031
 1664POPC   C4B25498   3.408   7.689   7.675
 1665POPC   NC325499  41.968  31.346   9.631
 1665POPC   PO425500  41.269  31.684   9.576
 1665POPC   GL125501  41.340  31.557   9.189
 1665POPC   GL225502  41.671  31.519   9.265
 1665POPC   C1A25503  41.487  31.300   8.851
 1665POPC   D2A25504  41.447  31.542   8.517
 1665POPC   C3A25505  41.512  31.365   8.159
 1665POPC   C4A25506  41.505  31.565   7.801
 1665POPC   C1B25507  41.810  31.687   8.874
 1665POPC   C2B25508  41.955  31.456   8.498
 1665POPC   C3B25509  41.981  31.468   8.039
 1665POPC   C4B25510  41.955  31.759   7.714
 1666POPC   NC325511  40.491  20.755   9.519
 1666POPC   PO425512  41.029  20.397   9.745
 1666POPC   GL125513  40.978  20.433   9.289
 1666POPC   GL225514  40.674  20.465   9.156
 1666POPC   C1A25515  40.988  20.424   8.785
 1666POPC   D2A25516  40.942  20.259   8.347
 1666POPC   C3A25517  40.860  20.531   7.972
 1666POPC   C4A25518  41.112  20.787   7.684
 1666POPC   C1B25519  40.501  20.633   8.773
 1666POPC   C2B25520  40.398  20.557   8.331
 1666POPC   C3B25521  40.463  20.855   7.996
 1666POPC   C4B25522  40.615  20.832   7.576
 1667POPC   NC325523  12.997  40.224   9.495
 1667POPC   PO425524  12.958  39.598   9.501
 1667POPC   GL125525  12.711  39.770   9.171
 1667POPC   GL225526  13.021  39.906   9.091
 1667POPC   C1A25527  12.710  39.812   8.713
 1667POPC   D2A25528  13.033  39.973   8.441
 1667POPC   C3A25529  12.935  39.938   8.053
 1667POPC   C4A25530  13.095  40.030   7.698
 1667POPC   C1B25531  12.975  40.267   8.849
 1667POPC   C2B25532  12.715  40.407   8.552
 1667POPC   C3B25533  12.763  40.462   8.116
 1667POPC   C4B25534  12.851  40.454   7.691
 1668POPC   NC325535  25.662  13.453   9.476
 1668POPC   PO425536  24.924  13.471   9.422
 1668POPC   GL125537  25.277  13.636   9.139
 1668POPC   GL225538  25.542  13.472   8.971
 1668POPC   C1A25539  25.175  13.856   8.755
 1668POPC   D2A25540  24.934  13.717   8.414
 1668POPC   C3A25541  25.065  13.760   8.015
 1668POPC   C4A25542  25.091  13.394   7.727
 1668POPC   C1B25543  25.219  13.369   8.666
 1668POPC   C2B25544  25.203  13.319   8.237
 1668POPC   C3B25545  25.522  13.464   7.970
 1668POPC   C4B25546  25.431  13.764   7.666
 1669POPC   NC325547  36.651  29.915   9.455
 1669POPC   PO425548  35.998  30.148   9.438
 1669POPC   GL125549  36.215  29.891   9.149
 1669POPC   GL225550  35.973  29.683   8.991
 1669POPC   C1A25551  36.460  29.808   8.780
 1669POPC   D2A25552  36.620  29.825   8.338
 1669POPC   C3A25553  36.319  29.711   8.029
 1669POPC   C4A25554  36.195  29.990   7.699
 1669POPC   C1B25555  35.885  30.006   8.750
 1669POPC   C2B25556  36.027  30.027   8.342
 1669POPC   C3B25557  35.780  30.071   7.995
 1669POPC   C4B25558  35.806  30.332   7.667
 1670POPC   NC325559  11.403  27.750   9.548
 1670POPC   PO425560  11.164  27.147   9.638
 1670POPC   GL125561  11.137  27.449   9.238
 1670POPC   GL225562  11.452  27.636   9.072
 1670POPC   C1A25563  11.055  27.532   8.767
 1670POPC   D2A25564  10.938  27.385   8.322
 1670POPC   C3A25565  11.079  27.603   7.925
 1670POPC   C4A25566  11.060  27.483   7.468
 1670POPC   C1B25567  11.593  27.541   8.691
 1670POPC   C2B25568  11.439  27.504   8.301
 1670POPC   C3B25569  11.599  27.623   7.907
 1670POPC   C4B25570  11.434  27.838   7.563
 1671POPC   NC325571  36.713  29.196   9.447
 1671POPC   PO425572  37.328  28.958   9.527
 1671POPC   GL125573  37.173  29.215   9.218
 1671POPC   GL225574  37.020  28.957   9.054
 1671POPC   C1A25575  37.215  29.367   8.791
 1671POPC   D2A25576  36.945  29.382   8.396
 1671POPC   C3A25577  37.048  29.034   8.102
 1671POPC   C4A25578  37.322  29.007   7.755
 1671POPC   C1B25579  36.718  29.102   8.774
 1671POPC   C2B25580  36.598  28.982   8.349
 1671POPC   C3B25581  36.572  29.213   7.968
 1671POPC   C4B25582  36.867  29.210   7.621
 1672POPC   NC325583  40.544  10.491   9.841
 1672POPC   PO425584  41.150  10.679   9.497
 1672POPC   GL125585  41.033  10.728   9.094
 1672POPC   GL225586  41.212  10.398   9.024
 1672POPC   C1A25587  40.686  10.662   8.788
 1672POPC   D2A25588  40.757  10.742   8.362
 1672POPC   C3A25589  40.765  10.495   7.987
 1672POPC   C4A25590  40.947  10.602   7.612
 1672POPC   C1B25591  41.155  10.552   8.634
 1672POPC   C2B25592  41.202  10.435   8.264
 1672POPC   C3B25593  41.222  10.246   7.883
 1672POPC   C4B25594  40.875  10.091   7.665
 1673POPC   NC325595   5.371  18.386   9.751
 1673POPC   PO425596   4.920  17.957   9.639
 1673POPC   GL125597   4.926  18.212   9.197
 1673POPC   GL225598   4.909  18.604   9.182
 1673POPC   C1A25599   4.983  18.345   8.749
 1673POPC   D2A25600   5.054  18.415   8.330
 1673POPC   C3A25601   4.821  18.222   8.005
 1673POPC   C4A25602   4.974  18.396   7.638
 1673POPC   C1B25603   5.300  18.732   8.889
 1673POPC   C2B25604   5.410  18.808   8.421
 1673POPC   C3B25605   5.277  18.717   7.977
 1673POPC   C4B25606   5.421  18.640   7.527
 1674POPC   NC325607  25.831  10.136   9.497
 1674POPC   PO425608  26.279  10.626   9.615
 1674POPC   GL125609  26.333  10.590   9.175
 1674POPC   GL225610  26.197  10.913   9.104
 1674POPC   C1A25611  26.210  10.219   8.894
 1674POPC   D2A25612  26.387   9.986   8.539
 1674POPC   C3A25613  26.293  10.169   8.115
 1674POPC   C4A25614  26.116  10.362   7.744
 1674POPC   C1B25615  25.957  10.660   8.802
 1674POPC   C2B25616  25.934  10.498   8.385
 1674POPC   C3B25617  25.900  10.734   8.015
 1674POPC   C4B25618  26.224  11.022   7.910
 1675POPC   NC325619  13.830  12.707   9.712
 1675POPC   PO425620  14.418  12.685   9.446
 1675POPC   GL125621  14.341  12.910   9.090
 1675POPC   GL225622  14.641  12.752   8.962
 1675POPC   C1A25623  14.304  12.924   8.632
 1675POPC   D2A25624  14.674  12.999   8.388
 1675POPC   C3A25625  14.544  13.146   8.006
 1675POPC   C4A25626  14.202  13.049   7.739
 1675POPC   C1B25627  14.249  12.447   8.826
 1675POPC   C2B25628  14.035  12.555   8.452
 1675POPC   C3B25629  14.236  12.726   8.132
 1675POPC   C4B25630  14.121  12.485   7.789
 1676POPC   NC325631  17.217  28.872   9.473
 1676POPC   PO425632  17.770  29.195   9.555
 1676POPC   GL125633  17.726  29.092   9.123
 1676POPC   GL225634  17.414  29.222   9.100
 1676POPC   C1A25635  17.721  29.283   8.692
 1676POPC   D2A25636  17.815  29.476   8.306
 1676POPC   C3A25637  17.582  29.317   7.979
 1676POPC   C4A25638  17.767  28.941   7.843
 1676POPC   C1B25639  17.339  28.928   8.800
 1676POPC   C2B25640  17.370  29.076   8.398
 1676POPC   C3B25641  17.331  28.858   8.090
 1676POPC   C4B25642  17.219  28.811   7.694
 1677POPC   NC325643   2.952  17.911   9.918
 1677POPC   PO425644   2.705  17.366   9.686
 1677POPC   GL125645   2.942  17.522   9.310
 1677POPC   GL225646   2.863  17.265   9.051
 1677POPC   C1A25647   2.998  17.725   8.881
 1677POPC   D2A25648   2.828  17.762   8.446
 1677POPC   C3A25649   2.810  17.483   8.058
 1677POPC   C4A25650   2.970  17.579   7.630
 1677POPC   C1B25651   2.703  17.253   8.628
 1677POPC   C2B25652   2.455  17.052   8.319
 1677POPC   C3B25653   2.435  17.147   7.919
 1677POPC   C4B25654   2.722  17.126   7.648
 1678POPC   NC325655  30.555  33.142   9.521
 1678POPC   PO425656  30.865  32.538   9.480
 1678POPC   GL125657  30.744  32.838   9.171
 1678POPC   GL225658  30.368  32.806   9.185
 1678POPC   C1A25659  30.756  33.151   8.826
 1678POPC   D2A25660  30.993  33.233   8.459
 1678POPC   C3A25661  30.786  33.252   8.050
 1678POPC   C4A25662  30.853  32.958   7.744
 1678POPC   C1B25663  30.338  32.893   8.760
 1678POPC   C2B25664  30.415  33.064   8.350
 1678POPC   C3B25665  30.312  33.068   7.877
 1678POPC   C4B25666  30.448  32.866   7.461
 1679POPC   NC325667  29.512  32.834   9.490
 1679POPC   PO425668  30.105  33.119   9.500
 1679POPC   GL125669  29.956  33.092   9.069
 1679POPC   GL225670  29.841  32.779   9.106
 1679POPC   C1A25671  29.856  33.065   8.613
 1679POPC   D2A25672  29.667  32.932   8.236
 1679POPC   C3A25673  29.617  33.307   8.007
 1679POPC   C4A25674  29.841  33.503   7.708
 1679POPC   C1B25675  29.947  32.592   8.747
 1679POPC   C2B25676  30.174  32.605   8.356
 1679POPC   C3B25677  29.997  32.658   7.941
 1679POPC   C4B25678  29.999  32.655   7.507
 1680POPC   NC325679   3.250  19.617   9.576
 1680POPC   PO425680   3.425  20.247   9.761
 1680POPC   GL125681   3.625  20.082   9.295
 1680POPC   GL225682   3.530  19.781   9.180
 1680POPC   C1A25683   3.835  19.918   8.833
 1680POPC   D2A25684   3.614  19.899   8.425
 1680POPC   C3A25685   3.773  19.774   8.018
 1680POPC   C4A25686   3.547  19.870   7.633
 1680POPC   C1B25687   3.406  19.590   8.790
 1680POPC   C2B25688   3.184  19.610   8.395
 1680POPC   C3B25689   3.317  19.532   7.976
 1680POPC   C4B25690   3.396  19.392   7.566
 1681POPC   NC325691   9.122  39.346   9.475
 1681POPC   PO425692   9.458  38.659   9.474
 1681POPC   GL125693   9.079  38.912   9.202
 1681POPC   GL225694   9.126  39.234   8.997
 1681POPC   C1A25695   8.745  38.991   8.794
 1681POPC   D2A25696   8.606  39.183   8.400
 1681POPC   C3A25697   8.844  39.372   8.045
 1681POPC   C4A25698   8.991  39.213   7.625
 1681POPC   C1B25699   8.996  39.474   8.630
 1681POPC   C2B25700   9.214  39.655   8.265
 1681POPC   C3B25701   9.203  39.654   7.797
 1681POPC   C4B25702   9.222  39.629   7.335
 1682POPC   NC325703  40.883  12.056   9.664
 1682POPC   PO425704  40.929  12.626   9.337
 1682POPC   GL125705  40.858  12.188   9.158
 1682POPC   GL225706  41.070  11.870   9.223
 1682POPC   C1A25707  40.773  12.153   8.731
 1682POPC   D2A25708  40.928  12.066   8.330
 1682POPC   C3A25709  40.662  12.001   8.015
 1682POPC   C4A25710  40.375  12.311   7.945
 1682POPC   C1B25711  41.153  11.821   8.773
 1682POPC   C2B25712  41.110  11.605   8.330
 1682POPC   C3B25713  41.145  11.779   7.885
 1682POPC   C4B25714  41.213  11.664   7.422
 1683POPC   NC325715  42.005  37.001   9.546
 1683POPC   PO425716  41.458  36.659   9.430
 1683POPC   GL125717  41.301  36.774   9.058
 1683POPC   GL225718  41.350  37.115   9.042
 1683POPC   C1A25719  41.385  36.665   8.686
 1683POPC   D2A25720  41.520  36.965   8.419
 1683POPC   C3A25721  41.400  36.990   8.022
 1683POPC   C4A25722  41.257  37.179   7.697
 1683POPC   C1B25723  41.790  36.947   8.894
 1683POPC   C2B25724  42.019  36.923   8.479
 1683POPC   C3B25725  41.929  36.900   8.029
 1683POPC   C4B25726  41.722  36.965   7.614
 1684POPC   NC325727  44.744  36.755   9.687
 1684POPC   PO425728  44.392  37.243   9.611
 1684POPC   GL125729  44.553  37.002   9.240
 1684POPC   GL225730  44.918  37.004   9.275
 1684POPC   C1A25731  44.741  36.669   8.902
 1684POPC   D2A25732  44.907  36.641   8.448
 1684POPC   C3A25733  44.632  36.553   8.095
 1684POPC   C4A25734  44.609  36.684   7.681
 1684POPC   C1B25735  44.909  37.146   8.844
 1684POPC   C2B25736   0.124  37.103   8.443
 1684POPC   C3B25737  44.932  37.011   8.043
 1684POPC   C4B25738  44.755  37.193   7.661
 1685POPC   NC325739  21.003  26.148   9.624
 1685POPC   PO425740  20.547  25.669   9.537
 1685POPC   GL125741  20.664  26.053   9.233
 1685POPC   GL225742  20.344  26.257   9.168
 1685POPC   C1A25743  20.865  26.151   8.803
 1685POPC   D2A25744  21.004  26.097   8.344
 1685POPC   C3A25745  20.753  26.165   7.941
 1685POPC   C4A25746  20.850  26.067   7.469
 1685POPC   C1B25747  20.370  26.003   8.813
 1685POPC   C2B25748  20.508  25.956   8.415
 1685POPC   C3B25749  20.295  25.826   8.070
 1685POPC   C4B25750  20.432  25.864   7.681
 1686POPC   NC325751   0.824  32.017   9.651
 1686POPC   PO425752   1.200  32.531   9.469
 1686POPC   GL125753   1.179  32.209   9.177
 1686POPC   GL225754   0.847  32.211   9.116
 1686POPC   C1A25755   1.351  32.185   8.740
 1686POPC   D2A25756   1.557  32.498   8.464
 1686POPC   C3A25757   1.515  32.503   8.003
 1686POPC   C4A25758   1.466  32.149   7.718
 1686POPC   C1B25759   0.979  32.524   8.763
 1686POPC   C2B25760   1.068  32.467   8.295
 1686POPC   C3B25761   1.024  32.371   7.843
 1686POPC   C4B25762   0.975  31.963   7.598
 1687POPC   NC325763   5.693  28.868   9.510
 1687POPC   PO425764   6.273  29.314   9.508
 1687POPC   GL125765   6.085  29.168   9.116
 1687POPC   GL225766   5.999  28.800   9.086
 1687POPC   C1A25767   6.095  29.224   8.658
 1687POPC   D2A25768   6.297  29.276   8.251
 1687POPC   C3A25769   6.033  29.123   7.916
 1687POPC   C4A25770   5.689  29.395   7.852
 1687POPC   C1B25771   5.655  29.004   8.833
 1687POPC   C2B25772   5.541  29.111   8.390
 1687POPC   C3B25773   5.562  28.880   7.981
 1687POPC   C4B25774   5.618  29.007   7.505
 1688POPC   NC325775   3.372  32.373   9.587
 1688POPC   PO425776   3.527  31.784   9.452
 1688POPC   GL125777   3.494  32.109   9.143
 1688POPC   GL225778   3.692  32.344   9.156
 1688POPC   C1A25779   3.498  32.283   8.717
 1688POPC   D2A25780   3.336  32.137   8.348
 1688POPC   C3A25781   3.483  32.260   7.990
 1688POPC   C4A25782   3.397  32.397   7.571
 1688POPC   C1B25783   3.895  32.609   8.784
 1688POPC   C2B25784   3.696  32.634   8.346
 1688POPC   C3B25785   3.687  32.697   7.866
 1688POPC   C4B25786   3.773  32.650   7.346
 1689POPC   NC325787  26.007  37.166   9.445
 1689POPC   PO425788  26.538  36.724   9.485
 1689POPC   GL125789  26.302  36.568   9.128
 1689POPC   GL225790  26.050  36.816   9.057
 1689POPC   C1A25791  26.090  36.454   8.708
 1689POPC   D2A25792  25.947  36.540   8.315
 1689POPC   C3A25793  26.112  36.832   8.065
 1689POPC   C4A25794  25.926  36.723   7.679
 1689POPC   C1B25795  26.043  36.961   8.606
 1689POPC   C2B25796  25.836  37.248   8.285
 1689POPC   C3B25797  25.960  37.255   7.827
 1689POPC   C4B25798  26.270  37.268   7.441
 1690POPC   NC325799  21.130  29.333   9.637
 1690POPC   PO425800  20.604  28.932   9.384
 1690POPC   GL125801  20.792  29.259   9.152
 1690POPC   GL225802  21.139  29.155   9.123
 1690POPC   C1A25803  20.571  29.309   8.748
 1690POPC   D2A25804  20.354  29.068   8.463
 1690POPC   C3A25805  20.532  29.245   8.127
 1690POPC   C4A25806  20.489  29.363   7.742
 1690POPC   C1B25807  21.092  29.324   8.705
 1690POPC   C2B25808  20.958  29.484   8.313
 1690POPC   C3B25809  20.976  29.457   7.843
 1690POPC   C4B25810  20.942  29.474   7.367
 1691POPC   NC325811   6.534  38.862   9.489
 1691POPC   PO425812   6.946  38.278   9.362
 1691POPC   GL125813   6.620  38.505   9.129
 1691POPC   GL225814   6.628  38.867   9.005
 1691POPC   C1A25815   6.570  38.424   8.714
 1691POPC   D2A25816   6.822  38.240   8.411
 1691POPC   C3A25817   6.640  38.301   8.019
 1691POPC   C4A25818   6.911  38.452   7.710
 1691POPC   C1B25819   6.278  38.844   8.716
 1691POPC   C2B25820   6.355  38.692   8.305
 1691POPC   C3B25821   6.630  38.798   7.958
 1691POPC   C4B25822   6.527  38.716   7.506
 1692POPC   NC325823  14.117   9.197   9.568
 1692POPC   PO425824  14.357   8.618   9.322
 1692POPC   GL125825  14.415   9.029   9.158
 1692POPC   GL225826  14.158   9.226   8.995
 1692POPC   C1A25827  14.609   9.125   8.767
 1692POPC   D2A25828  14.604   8.796   8.443
 1692POPC   C3A25829  14.374   8.930   8.122
 1692POPC   C4A25830  14.463   8.954   7.726
 1692POPC   C1B25831  14.168   8.875   8.686
 1692POPC   C2B25832  14.008   8.611   8.319
 1692POPC   C3B25833  13.964   8.736   7.869
 1692POPC   C4B25834  14.000   9.185   7.750
 1693POPC   NC325835   9.868  17.852   9.560
 1693POPC   PO425836   9.553  17.398   9.536
 1693POPC   GL125837   9.673  17.581   9.166
 1693POPC   GL225838   9.507  17.878   9.165
 1693POPC   C1A25839   9.676  17.606   8.726
 1693POPC   D2A25840   9.988  17.644   8.419
 1693POPC   C3A25841   9.818  17.650   7.978
 1693POPC   C4A25842   9.851  17.443   7.537
 1693POPC   C1B25843   9.411  18.041   8.742
 1693POPC   C2B25844   9.595  17.973   8.342
 1693POPC   C3B25845   9.543  18.086   7.917
 1693POPC   C4B25846   9.529  17.831   7.532
 1694POPC   NC325847   0.145  12.898   9.476
 1694POPC   PO425848   0.857  12.921   9.564
 1694POPC   GL125849   0.595  12.955   9.228
 1694POPC   GL225850   0.603  12.640   9.066
 1694POPC   C1A25851   0.333  13.021   8.860
 1694POPC   D2A25852   0.304  12.735   8.544
 1694POPC   C3A25853   0.305  12.807   8.096
 1694POPC   C4A25854   0.434  13.138   7.839
 1694POPC   C1B25855   0.658  12.371   8.701
 1694POPC   C2B25856   0.494  12.361   8.274
 1694POPC   C3B25857   0.688  12.549   7.903
 1694POPC   C4B25858   0.747  12.444   7.509
 1695POPC   NC325859  35.826  21.144   9.618
 1695POPC   PO425860  36.022  21.762   9.519
 1695POPC   GL125861  36.089  21.551   9.116
 1695POPC   GL225862  36.152  21.251   9.197
 1695POPC   C1A25863  36.334  21.638   8.711
 1695POPC   D2A25864  36.428  21.827   8.264
 1695POPC   C3A25865  36.103  21.637   7.978
 1695POPC   C4A25866  36.081  21.505   7.527
 1695POPC   C1B25867  36.258  21.095   8.785
 1695POPC   C2B25868  36.258  20.849   8.401
 1695POPC   C3B25869  36.154  20.983   7.982
 1695POPC   C4B25870  36.237  21.033   7.538
 1696POPC   NC325871  28.614  42.694   9.778
 1696POPC   PO425872  28.616  43.343   9.527
 1696POPC   GL125873  28.401  43.174   9.176
 1696POPC   GL225874  28.309  42.862   9.171
 1696POPC   C1A25875  28.427  43.179   8.732
 1696POPC   D2A25876  28.444  43.498   8.398
 1696POPC   C3A25877  28.266  43.374   8.017
 1696POPC   C4A25878  28.351  43.303   7.586
 1696POPC   C1B25879  28.143  42.720   8.751
 1696POPC   C2B25880  27.998  42.878   8.337
 1696POPC   C3B25881  28.183  42.883   7.916
 1696POPC   C4B25882  28.599  42.852   7.762
 1697POPC   NC325883  11.014  22.460   9.358
 1697POPC   PO425884  11.325  23.020   9.646
 1697POPC   GL125885  11.482  23.183   9.251
 1697POPC   GL225886  11.498  22.825   9.169
 1697POPC   C1A25887  11.641  23.175   8.804
 1697POPC   D2A25888  11.408  23.067   8.424
 1697POPC   C3A25889  11.395  23.247   8.057
 1697POPC   C4A25890  11.271  23.119   7.672
 1697POPC   C1B25891  11.465  22.693   8.747
 1697POPC   C2B25892  11.416  22.500   8.331
 1697POPC   C3B25893  11.441  22.718   7.959
 1697POPC   C4B25894  11.438  22.659   7.525
 1698POPC   NC325895  22.433  39.439   9.620
 1698POPC   PO425896  21.783  39.131   9.770
 1698POPC   GL125897  22.041  39.194   9.327
 1698POPC   GL225898  22.420  39.237   9.176
 1698POPC   C1A25899  22.030  39.209   8.857
 1698POPC   D2A25900  21.854  39.300   8.469
 1698POPC   C3A25901  22.124  39.220   8.130
 1698POPC   C4A25902  22.016  39.460   7.793
 1698POPC   C1B25903  22.601  39.261   8.777
 1698POPC   C2B25904  22.593  39.497   8.398
 1698POPC   C3B25905  22.320  39.715   8.136
 1698POPC   C4B25906  22.517  39.454   7.828
 1699POPC   NC325907  34.718  30.003   9.652
 1699POPC   PO425908  34.145  29.952   9.520
 1699POPC   GL125909  34.495  29.980   9.162
 1699POPC   GL225910  34.896  30.083   9.168
 1699POPC   C1A25911  34.610  30.098   8.748
 1699POPC   D2A25912  34.491  29.883   8.405
 1699POPC   C3A25913  34.292  30.123   8.129
 1699POPC   C4A25914  34.480  30.152   7.756
 1699POPC   C1B25915  34.999  29.751   8.886
 1699POPC   C2B25916  34.986  29.683   8.448
 1699POPC   C3B25917  34.905  29.888   8.055
 1699POPC   C4B25918  34.869  29.830   7.621
 1700POPC   NC325919   2.078  13.223   9.266
 1700POPC   PO425920   1.752  12.717   9.570
 1700POPC   GL125921   1.804  12.767   9.128
 1700POPC   GL225922   2.160  12.776   9.078
 1700POPC   C1A25923   1.672  12.774   8.682
 1700POPC   D2A25924   1.934  12.672   8.274
 1700POPC   C3A25925   1.661  12.710   7.906
 1700POPC   C4A25926   1.454  13.130   7.812
 1700POPC   C1B25927   2.136  12.954   8.662
 1700POPC   C2B25928   2.442  13.010   8.332
 1700POPC   C3B25929   2.510  12.801   7.921
 1700POPC   C4B25930   2.134  12.739   7.685
 1701POPC   NC325931  16.139   5.392   9.506
 1701POPC   PO425932  15.652   4.802   9.419
 1701POPC   GL125933  16.026   4.982   9.220
 1701POPC   GL225934  15.868   5.292   9.083
 1701POPC   C1A25935  16.206   5.012   8.814
 1701POPC   D2A25936  16.012   5.234   8.475
 1701POPC   C3A25937  16.096   5.070   8.074
 1701POPC   C4A25938  15.999   5.271   7.740
 1701POPC   C1B25939  15.678   4.993   8.769
 1701POPC   C2B25940  15.703   4.805   8.307
 1701POPC   C3B25941  15.695   4.847   7.806
 1701POPC   C4B25942  15.613   4.693   7.316
 1702POPC   NC325943  14.057  10.189   9.460
 1702POPC   PO425944  13.374  10.367   9.613
 1702POPC   GL125945  13.671  10.435   9.260
 1702POPC   GL225946  13.664  10.780   9.131
 1702POPC   C1A25947  13.598  10.320   8.824
 1702POPC   D2A25948  13.382  10.301   8.437
 1702POPC   C3A25949  13.492  10.318   8.015
 1702POPC   C4A25950  13.477  10.358   7.549
 1702POPC   C1B25951  13.910  10.727   8.768
 1702POPC   C2B25952  13.867  10.610   8.317
 1702POPC   C3B25953  13.856  10.605   7.847
 1702POPC   C4B25954  13.847  10.717   7.435
 1703POPC   NC325955  23.523  24.123   9.448
 1703POPC   PO425956  23.904  24.569   9.909
 1703POPC   GL125957  23.820  24.532   9.383
 1703POPC   GL225958  23.971  24.280   9.179
 1703POPC   C1A25959  23.684  24.575   8.895
 1703POPC   D2A25960  23.657  24.422   8.471
 1703POPC   C3A25961  23.614  24.708   8.127
 1703POPC   C4A25962  23.744  24.586   7.712
 1703POPC   C1B25963  23.885  24.083   8.806
 1703POPC   C2B25964  24.034  24.082   8.395
 1703POPC   C3B25965  23.852  24.194   8.013
 1703POPC   C4B25966  24.077  24.173   7.608
 1704POPC   NC325967  33.350   7.993   9.539
 1704POPC   PO425968  33.986   7.841   9.678
 1704POPC   GL125969  33.835   7.973   9.256
 1704POPC   GL225970  33.617   8.290   9.191
 1704POPC   C1A25971  33.918   8.022   8.807
 1704POPC   D2A25972  34.020   7.956   8.361
 1704POPC   C3A25973  33.708   7.972   8.056
 1704POPC   C4A25974  33.846   8.058   7.659
 1704POPC   C1B25975  33.777   8.503   8.808
 1704POPC   C2B25976  33.772   8.416   8.374
 1704POPC   C3B25977  33.626   8.478   7.949
 1704POPC   C4B25978  33.511   8.413   7.513
 1705POPC   NC325979  27.914  30.909   9.479
 1705POPC   PO425980  27.321  30.521   9.545
 1705POPC   GL125981  27.580  30.645   9.202
 1705POPC   GL225982  27.482  30.968   9.177
 1705POPC   C1A25983  27.819  30.749   8.821
 1705POPC   D2A25984  27.599  30.656   8.447
 1705POPC   C3A25985  27.697  30.628   8.032
 1705POPC   C4A25986  27.727  30.418   7.623
 1705POPC   C1B25987  27.308  30.958   8.773
 1705POPC   C2B25988  27.385  31.108   8.369
 1705POPC   C3B25989  27.318  30.998   7.938
 1705POPC   C4B25990  27.560  30.891   7.592
 1706POPC   NC325991  25.832  19.304   9.358
 1706POPC   PO425992  26.335  18.896   9.482
 1706POPC   GL125993  26.070  18.888   9.118
 1706POPC   GL225994  25.752  18.700   9.187
 1706POPC   C1A25995  26.190  18.982   8.681
 1706POPC   D2A25996  26.217  18.849   8.243
 1706POPC   C3A25997  26.353  19.116   7.924
 1706POPC   C4A25998  26.209  19.490   7.713
 1706POPC   C1B25999  25.661  18.921   8.781
 1706POPC   C2B26000  25.805  19.146   8.389
 1706POPC   C3B26001  25.822  19.009   7.955
 1706POPC   C4B26002  25.712  18.756   7.591
 1707POPC   NC326003   5.335  43.893   9.593
 1707POPC   PO426004   4.826  43.989   9.399
 1707POPC   GL126005   5.156  43.900   9.109
 1707POPC   GL226006   5.380  43.623   9.129
 1707POPC   C1A26007   5.502  44.079   8.866
 1707POPC   D2A26008   5.634  44.057   8.417
 1707POPC   C3A26009   5.384  43.840   8.076
 1707POPC   C4A26010   5.178  43.968   7.657
 1707POPC   C1B26011   5.260  43.683   8.646
 1707POPC   C2B26012   4.955  43.661   8.264
 1707POPC   C3B26013   5.026  43.521   7.814
 1707POPC   C4B26014   5.390  43.546   7.486
 1708POPC   NC326015  17.825  21.166   9.430
 1708POPC   PO426016  18.360  21.549   9.459
 1708POPC   GL126017  18.232  21.372   9.093
 1708POPC   GL226018  18.171  21.012   9.110
 1708POPC   C1A26019  18.170  21.611   8.723
 1708POPC   D2A26020  18.419  21.607   8.379
 1708POPC   C3A26021  18.226  21.550   8.011
 1708POPC   C4A26022  18.275  21.683   7.606
 1708POPC   C1B26023  17.889  21.171   8.760
 1708POPC   C2B26024  18.109  21.156   8.362
 1708POPC   C3B26025  18.512  21.145   8.149
 1708POPC   C4B26026  18.524  21.235   7.715
 1709POPC   NC326027  15.612   0.891   9.330
 1709POPC   PO426028  15.183   1.413   9.632
 1709POPC   GL126029  15.350   1.328   9.256
 1709POPC   GL226030  15.321   1.589   9.056
 1709POPC   C1A26031  15.296   1.150   8.813
 1709POPC   D2A26032  15.033   1.129   8.446
 1709POPC   C3A26033  15.295   1.058   8.099
 1709POPC   C4A26034  15.145   1.015   7.708
 1709POPC   C1B26035  15.101   1.615   8.667
 1709POPC   C2B26036  15.341   1.547   8.298
 1709POPC   C3B26037  15.254   1.530   7.873
 1709POPC   C4B26038  15.213   1.447   7.432
 1710POPC   NC326039  15.491   8.443   9.587
 1710POPC   PO426040  16.054   8.190   9.496
 1710POPC   GL126041  15.840   8.409   9.165
 1710POPC   GL226042  15.892   8.077   9.015
 1710POPC   C1A26043  15.820   8.471   8.703
 1710POPC   D2A26044  15.997   8.266   8.340
 1710POPC   C3A26045  15.963   8.394   7.891
 1710POPC   C4A26046  16.075   8.392   7.403
 1710POPC   C1B26047  15.615   7.957   8.693
 1710POPC   C2B26048  15.725   7.816   8.304
 1710POPC   C3B26049  16.054   7.867   8.007
 1710POPC   C4B26050  15.927   7.962   7.605
 1711POPC   NC326051  27.881   9.003   9.502
 1711POPC   PO426052  27.342   8.738   9.141
 1711POPC   GL126053  27.756   8.846   9.047
 1711POPC   GL226054  27.599   9.203   9.125
 1711POPC   C1A26055  28.087   8.864   8.742
 1711POPC   D2A26056  28.060   8.785   8.309
 1711POPC   C3A26057  28.065   9.124   8.041
 1711POPC   C4A26058  27.703   9.022   7.819
 1711POPC   C1B26059  27.764   9.259   8.738
 1711POPC   C2B26060  27.660   9.136   8.342
 1711POPC   C3B26061  27.537   8.722   8.203
 1711POPC   C4B26062  27.311   8.676   7.840
 1712POPC   NC326063  23.256  10.414   9.534
 1712POPC   PO426064  22.723  10.853   9.415
 1712POPC   GL126065  22.929  10.527   9.168
 1712POPC   GL226066  23.065  10.780   9.016
 1712POPC   C1A26067  23.124  10.322   8.813
 1712POPC   D2A26068  22.926  10.248   8.448
 1712POPC   C3A26069  23.013  10.490   8.115
 1712POPC   C4A26070  22.911  10.340   7.747
 1712POPC   C1B26071  22.968  10.765   8.586
 1712POPC   C2B26072  22.597  10.679   8.349
 1712POPC   C3B26073  22.588  10.766   7.915
 1712POPC   C4B26074  23.016  10.831   7.730
 1713POPC   NC326075  26.390  14.827   9.373
 1713POPC   PO426076  25.969  15.288   9.469
 1713POPC   GL126077  25.997  15.055   9.091
 1713POPC   GL226078  25.874  14.738   9.183
 1713POPC   C1A26079  26.021  15.028   8.633
 1713POPC   D2A26080  26.126  15.214   8.272
 1713POPC   C3A26081  26.177  15.131   7.857
 1713POPC   C4A26082  26.221  15.228   7.419
 1713POPC   C1B26083  25.658  14.697   8.808
 1713POPC   C2B26084  25.615  14.839   8.376
 1713POPC   C3B26085  25.811  14.802   7.986
 1713POPC   C4B26086  25.724  14.674   7.561
 1714POPC   NC326087  17.848  30.660   9.510
 1714POPC   PO426088  17.267  30.889   9.668
 1714POPC   GL126089  17.312  30.791   9.237
 1714POPC   GL226090  17.233  30.436   9.208
 1714POPC   C1A26091  17.343  30.903   8.804
 1714POPC   D2A26092  17.674  30.966   8.482
 1714POPC   C3A26093  17.611  30.841   8.067
 1714POPC   C4A26094  17.586  31.001   7.675
 1714POPC   C1B26095  17.536  30.431   8.858
 1714POPC   C2B26096  17.683  30.465   8.433
 1714POPC   C3B26097  17.768  30.369   7.982
 1714POPC   C4B26098  17.616  30.498   7.593
 1715POPC   NC326099  19.345  15.004   9.450
 1715POPC   PO426100  20.017  14.852   9.512
 1715POPC   GL126101  20.187  15.109   9.185
 1715POPC   GL226102  19.966  15.385   9.164
 1715POPC   C1A26103  20.023  15.033   8.792
 1715POPC   D2A26104  19.967  14.768   8.470
 1715POPC   C3A26105  19.896  15.023   8.110
 1715POPC   C4A26106  20.029  14.917   7.715
 1715POPC   C1B26107  19.633  15.357   8.824
 1715POPC   C2B26108  19.500  15.497   8.409
 1715POPC   C3B26109  19.303  15.286   8.070
 1715POPC   C4B26110  19.536  15.113   7.721
 1716POPC   NC326111  23.626  42.715   9.490
 1716POPC   PO426112  23.702  42.089   9.445
 1716POPC   GL126113  23.756  42.261   9.039
 1716POPC   GL226114  23.921  42.590   9.086
 1716POPC   C1A26115  23.526  42.233   8.635
 1716POPC   D2A26116  23.403  42.173   8.191
 1716POPC   C3A26117  23.762  42.059   7.934
 1716POPC   C4A26118  23.898  42.293   7.570
 1716POPC   C1B26119  23.559  42.726   8.818
 1716POPC   C2B26120  23.478  42.676   8.362
 1716POPC   C3B26121  23.674  42.600   7.944
 1716POPC   C4B26122  23.632  42.728   7.485
 1717POPC   NC326123  20.541  33.603   9.315
 1717POPC   PO426124  20.700  33.064   9.732
 1717POPC   GL126125  20.757  33.070   9.257
 1717POPC   GL226126  20.959  32.802   9.171
 1717POPC   C1A26127  20.946  33.178   8.822
 1717POPC   D2A26128  20.918  33.420   8.413
 1717POPC   C3A26129  20.882  33.259   8.003
 1717POPC   C4A26130  20.558  33.306   7.703
 1717POPC   C1B26131  20.735  32.662   8.822
 1717POPC   C2B26132  20.745  32.835   8.399
 1717POPC   C3B26133  20.557  32.815   7.976
 1717POPC   C4B26134  20.875  32.845   7.696
 1718POPC   NC326135   7.830   3.115   9.224
 1718POPC   PO426136   7.314   2.736   9.574
 1718POPC   GL126137   7.355   2.894   9.124
 1718POPC   GL226138   7.061   3.055   8.973
 1718POPC   C1A26139   7.457   2.782   8.684
 1718POPC   D2A26140   7.549   2.460   8.356
 1718POPC   C3A26141   7.631   2.657   7.941
 1718POPC   C4A26142   7.454   2.585   7.515
 1718POPC   C1B26143   7.070   3.138   8.565
 1718POPC   C2B26144   7.023   2.876   8.217
 1718POPC   C3B26145   7.199   2.917   7.822
 1718POPC   C4B26146   7.576   3.176   7.789
 1719POPC   NC326147  29.915  29.956   9.742
 1719POPC   PO426148  30.035  29.429   9.605
 1719POPC   GL126149  29.937  29.741   9.244
 1719POPC   GL226150  29.967  30.117   9.236
 1719POPC   C1A26151  29.867  29.834   8.779
 1719POPC   D2A26152  29.963  30.094   8.371
 1719POPC   C3A26153  29.892  29.864   7.951
 1719POPC   C4A26154  29.770  29.544   7.614
 1719POPC   C1B26155  29.762  30.330   8.841
 1719POPC   C2B26156  29.508  30.332   8.427
 1719POPC   C3B26157  29.706  30.345   7.989
 1719POPC   C4B26158  30.150  30.311   7.859
 1720POPC   NC326159  16.691  11.210   9.586
 1720POPC   PO426160  16.452  11.809   9.403
 1720POPC   GL126161  16.650  11.493   9.139
 1720POPC   GL226162  16.474  11.149   9.131
 1720POPC   C1A26163  16.887  11.257   8.804
 1720POPC   D2A26164  17.079  11.201   8.389
 1720POPC   C3A26165  16.883  11.368   8.022
 1720POPC   C4A26166  16.753  11.179   7.615
 1720POPC   C1B26167  16.368  11.287   8.755
 1720POPC   C2B26168  16.545  11.109   8.393
 1720POPC   C3B26169  16.416  11.165   7.980
 1720POPC   C4B26170  16.263  11.417   7.614
 1721POPC   NC326171  17.484  19.337   9.508
 1721POPC   PO426172  17.806  18.690   9.439
 1721POPC   GL126173  17.503  18.793   9.139
 1721POPC   GL226174  17.386  19.133   9.065
 1721POPC   C1A26175  17.641  18.878   8.713
 1721POPC   D2A26176  17.803  18.954   8.321
 1721POPC   C3A26177  17.552  19.133   7.997
 1721POPC   C4A26178  17.425  18.887   7.668
 1721POPC   C1B26179  17.410  19.330   8.638
 1721POPC   C2B26180  17.351  19.586   8.275
 1721POPC   C3B26181  17.522  19.628   7.863
 1721POPC   C4B26182  17.712  19.365   7.532
 1722POPC   NC326183  37.843  16.729   9.595
 1722POPC   PO426184  37.547  16.153   9.586
 1722POPC   GL126185  37.724  16.427   9.187
 1722POPC   GL226186  37.996  16.722   9.115
 1722POPC   C1A26187  37.566  16.747   8.820
 1722POPC   D2A26188  37.507  16.956   8.373
 1722POPC   C3A26189  37.659  16.733   7.982
 1722POPC   C4A26190  37.644  16.699   7.494
 1722POPC   C1B26191  38.016  16.998   8.754
 1722POPC   C2B26192  37.983  17.147   8.305
 1722POPC   C3B26193  38.063  17.019   7.844
 1722POPC   C4B26194  38.063  17.042   7.375
 1723POPC   NC326195  28.082   5.732   9.975
 1723POPC   PO426196  28.362   6.009   9.419
 1723POPC   GL126197  28.446   6.052   9.048
 1723POPC   GL226198  28.445   5.723   8.976
 1723POPC   C1A26199  28.233   6.091   8.664
 1723POPC   D2A26200  28.351   6.044   8.262
 1723POPC   C3A26201  28.080   6.036   7.937
 1723POPC   C4A26202  28.406   5.922   7.624
 1723POPC   C1B26203  28.717   5.886   8.649
 1723POPC   C2B26204  28.758   5.703   8.264
 1723POPC   C3B26205  28.507   5.458   8.020
 1723POPC   C4B26206  28.535   5.333   7.645
 1724POPC   NC326207  42.167  15.784   9.651
 1724POPC   PO426208  42.672  16.177   9.417
 1724POPC   GL126209  42.539  15.932   9.094
 1724POPC   GL226210  42.386  15.600   9.156
 1724POPC   C1A26211  42.370  15.908   8.739
 1724POPC   D2A26212  42.492  15.873   8.339
 1724POPC   C3A26213  42.349  16.098   7.980
 1724POPC   C4A26214  42.611  16.216   7.632
 1724POPC   C1B26215  42.057  15.502   8.820
 1724POPC   C2B26216  41.978  15.730   8.449
 1724POPC   C3B26217  42.144  15.634   8.052
 1724POPC   C4B26218  42.278  15.537   7.659
 1725POPC   NC326219  26.093  12.819   9.485
 1725POPC   PO426220  25.482  13.020   9.546
 1725POPC   GL126221  25.660  12.798   9.219
 1725POPC   GL226222  25.844  13.094   9.142
 1725POPC   C1A26223  25.921  12.685   8.830
 1725POPC   D2A26224  25.752  12.670   8.431
 1725POPC   C3A26225  25.894  12.407   8.104
 1725POPC   C4A26226  25.940  12.656   7.743
 1725POPC   C1B26227  26.027  13.229   8.793
 1725POPC   C2B26228  26.126  13.110   8.407
 1725POPC   C3B26229  26.011  13.292   8.042
 1725POPC   C4B26230  26.238  13.067   7.794
 1726POPC   NC326231  14.522   9.533   9.302
 1726POPC   PO426232  14.087   9.818   9.722
 1726POPC   GL126233  14.169   9.836   9.154
 1726POPC   GL226234  14.018  10.082   8.978
 1726POPC   C1A26235  14.139   9.695   8.696
 1726POPC   D2A26236  14.365   9.886   8.340
 1726POPC   C3A26237  14.645   9.577   8.126
 1726POPC   C4A26238  14.526   9.442   7.721
 1726POPC   C1B26239  14.532  10.022   8.844
 1726POPC   C2B26240  14.850  10.026   8.478
 1726POPC   C3B26241  14.756  10.068   8.031
 1726POPC   C4B26242  14.377   9.924   7.811
 1727POPC   NC326243  19.535  21.815   9.531
 1727POPC   PO426244  18.927  22.170   9.443
 1727POPC   GL126245  19.015  21.942   9.127
 1727POPC   GL226246  19.360  22.019   9.099
 1727POPC   C1A26247  18.942  22.099   8.733
 1727POPC   D2A26248  19.053  22.348   8.377
 1727POPC   C3A26249  18.978  22.093   8.014
 1727POPC   C4A26250  18.813  22.127   7.642
 1727POPC   C1B26251  19.442  22.200   8.696
 1727POPC   C2B26252  19.413  22.030   8.261
 1727POPC   C3B26253  19.422  22.328   7.889
 1727POPC   C4B26254  19.426  22.323   7.413
 1728POPC   NC326255  20.018  35.068   9.249
 1728POPC   PO426256  19.773  34.565   9.644
 1728POPC   GL126257  19.802  34.579   9.212
 1728POPC   GL226258  19.593  34.831   9.100
 1728POPC   C1A26259  19.795  34.400   8.807
 1728POPC   D2A26260  20.083  34.300   8.460
 1728POPC   C3A26261  20.018  34.462   8.048
 1728POPC   C4A26262  19.687  34.354   7.777
 1728POPC   C1B26263  19.779  34.897   8.680
 1728POPC   C2B26264  19.657  35.101   8.326
 1728POPC   C3B26265  19.849  34.936   7.954
 1728POPC   C4B26266  19.801  34.778   7.537
 1729POPC   NC326267  22.086  40.349   9.394
 1729POPC   PO426268  22.037  39.690   9.490
 1729POPC   GL126269  22.137  39.660   9.088
 1729POPC   GL226270  22.276  39.972   9.093
 1729POPC   C1A26271  22.151  39.711   8.648
 1729POPC   D2A26272  22.015  40.065   8.416
 1729POPC   C3A26273  21.885  39.990   8.001
 1729POPC   C4A26274  22.140  39.923   7.649
 1729POPC   C1B26275  22.356  40.270   8.774
 1729POPC   C2B26276  22.515  40.195   8.371
 1729POPC   C3B26277  22.364  40.232   7.975
 1729POPC   C4B26278  22.547  40.331   7.587
 1730POPC   NC326279  20.184  13.388   9.492
 1730POPC   PO426280  19.749  13.905   9.510
 1730POPC   GL126281  19.643  13.626   9.179
 1730POPC   GL226282  19.987  13.591   9.094
 1730POPC   C1A26283  19.681  13.585   8.717
 1730POPC   D2A26284  19.682  13.963   8.493
 1730POPC   C3A26285  19.647  13.923   8.051
 1730POPC   C4A26286  19.860  13.849   7.655
 1730POPC   C1B26287  20.182  13.360   8.763
 1730POPC   C2B26288  20.140  13.091   8.395
 1730POPC   C3B26289  20.014  13.202   7.990
 1730POPC   C4B26290  20.084  13.359   7.582
 1731POPC   NC326291  36.898  44.289   9.435
 1731POPC   PO426292  37.094  44.893   9.423
 1731POPC   GL126293  36.854  44.717   9.131
 1731POPC   GL226294  37.141  44.495   9.030
 1731POPC   C1A26295  36.666  44.471   8.820
 1731POPC   D2A26296  36.481  44.456   8.443
 1731POPC   C3A26297  36.689  44.468   8.068
 1731POPC   C4A26298  36.668  44.794   7.822
 1731POPC   C1B26299  37.085  44.715   8.633
 1731POPC   C2B26300  37.153  44.601   8.203
 1731POPC   C3B26301  37.171  44.700   7.769
 1731POPC   C4B26302  37.471   0.051   7.682
 1732POPC   NC326303  20.794  39.562   9.349
 1732POPC   PO426304  20.252  39.443   9.672
 1732POPC   GL126305  20.407  39.216   9.258
 1732POPC   GL226306  20.760  39.092   9.109
 1732POPC   C1A26307  20.386  39.226   8.783
 1732POPC   D2A26308  20.475  39.408   8.372
 1732POPC   C3A26309  20.431  39.215   7.981
 1732POPC   C4A26310  20.221  39.254   7.647
 1732POPC   C1B26311  20.894  39.194   8.660
 1732POPC   C2B26312  20.886  39.165   8.219
 1732POPC   C3B26313  20.918  39.193   7.790
 1732POPC   C4B26314  21.021  39.099   7.382
 1733POPC   NC326315  26.255  41.021   9.381
 1733POPC   PO426316  26.753  41.466   9.479
 1733POPC   GL126317  26.788  41.474   9.060
 1733POPC   GL226318  26.601  41.196   9.065
 1733POPC   C1A26319  26.889  41.586   8.628
 1733POPC   D2A26320  27.092  41.851   8.307
 1733POPC   C3A26321  27.009  41.660   7.900
 1733POPC   C4A26322  27.172  41.526   7.502
 1733POPC   C1B26323  26.468  41.011   8.730
 1733POPC   C2B26324  26.588  41.166   8.368
 1733POPC   C3B26325  26.547  41.157   7.959
 1733POPC   C4B26326  26.653  41.393   7.602
 1734POPC   NC326327  42.241   1.349   9.515
 1734POPC   PO426328  42.691   0.819   9.582
 1734POPC   GL126329  42.562   1.070   9.213
 1734POPC   GL226330  42.535   1.409   9.089
 1734POPC   C1A26331  42.406   1.019   8.795
 1734POPC   D2A26332  42.217   1.038   8.386
 1734POPC   C3A26333  42.455   0.888   8.040
 1734POPC   C4A26334  42.618   1.116   7.730
 1734POPC   C1B26335  42.215   1.515   8.763
 1734POPC   C2B26336  42.081   1.550   8.325
 1734POPC   C3B26337  42.224   1.364   7.950
 1734POPC   C4B26338  42.116   1.147   7.588
 1735POPC   NC326339  34.941  20.567   9.590
 1735POPC   PO426340  35.618  20.781   9.427
 1735POPC   GL126341  35.483  20.649   9.081
 1735POPC   GL226342  35.530  20.295   9.129
 1735POPC   C1A26343  35.484  20.868   8.702
 1735POPC   D2A26344  35.322  20.720   8.333
 1735POPC   C3A26345  35.598  20.760   8.040
 1735POPC   C4A26346  35.408  20.829   7.664
 1735POPC   C1B26347  35.356  20.345   8.693
 1735POPC   C2B26348  35.002  20.323   8.371
 1735POPC   C3B26349  35.131  20.436   7.917
 1735POPC   C4B26350  35.523  20.325   7.702
 1736POPC   NC326351  32.266   8.669   9.206
 1736POPC   PO426352  32.121   8.007   9.594
 1736POPC   GL126353  32.221   8.109   9.156
 1736POPC   GL226354  32.053   8.344   8.893
 1736POPC   C1A26355  32.092   7.863   8.815
 1736POPC   D2A26356  32.194   7.806   8.432
 1736POPC   C3A26357  31.977   7.904   8.077
 1736POPC   C4A26358  32.146   7.917   7.669
 1736POPC   C1B26359  32.408   8.238   8.670
 1736POPC   C2B26360  32.369   8.275   8.238
 1736POPC   C3B26361  32.178   8.375   7.874
 1736POPC   C4B26362  32.330   8.413   7.446
 1737POPC   NC326363  23.278  25.163   9.259
 1737POPC   PO426364  22.758  25.532   9.528
 1737POPC   GL126365  22.840  25.373   9.119
 1737POPC   GL226366  22.801  25.028   9.070
 1737POPC   C1A26367  23.035  25.383   8.708
 1737POPC   D2A26368  23.310  25.220   8.394
 1737POPC   C3A26369  23.167  25.401   8.044
 1737POPC   C4A26370  23.136  25.438   7.630
 1737POPC   C1B26371  22.963  24.869   8.667
 1737POPC   C2B26372  22.919  24.914   8.222
 1737POPC   C3B26373  22.941  24.992   7.803
 1737POPC   C4B26374  23.119  24.988   7.396
 1738POPC   NC326375  30.065   0.725   9.480
 1738POPC   PO426376  29.720   0.116   9.511
 1738POPC   GL126377  29.815   0.344   9.171
 1738POPC   GL226378  29.606   0.619   9.183
 1738POPC   C1A26379  30.000   0.526   8.812
 1738POPC   D2A26380  30.209   0.460   8.411
 1738POPC   C3A26381  30.108   0.600   8.029
 1738POPC   C4A26382  29.997   0.421   7.656
 1738POPC   C1B26383  29.524   0.702   8.776
 1738POPC   C2B26384  29.744   0.758   8.413
 1738POPC   C3B26385  29.622   0.684   7.999
 1738POPC   C4B26386  29.816   0.891   7.670
 1739POPC   NC326387  41.751  14.710   9.438
 1739POPC   PO426388  41.416  14.139   9.502
 1739POPC   GL126389  41.498  14.390   9.133
 1739POPC   GL226390  41.866  14.363   9.070
 1739POPC   C1A26391  41.287  14.535   8.760
 1739POPC   D2A26392  41.397  14.408   8.352
 1739POPC   C3A26393  41.386  14.653   7.997
 1739POPC   C4A26394  41.492  14.420   7.625
 1739POPC   C1B26395  41.795  14.516   8.661
 1739POPC   C2B26396  41.838  14.771   8.260
 1739POPC   C3B26397  41.840  14.776   7.820
 1739POPC   C4B26398  41.824  14.703   7.368
 1740POPC   NC326399  25.676   6.580   9.391
 1740POPC   PO426400  26.349   6.610   9.497
 1740POPC   GL126401  26.128   6.563   9.117
 1740POPC   GL226402  25.983   6.901   9.150
 1740POPC   C1A26403  25.996   6.562   8.672
 1740POPC   D2A26404  25.694   6.714   8.346
 1740POPC   C3A26405  25.790   6.555   7.917
 1740POPC   C4A26406  26.007   6.248   7.690
 1740POPC   C1B26407  25.827   7.027   8.761
 1740POPC   C2B26408  26.055   7.073   8.400
 1740POPC   C3B26409  25.895   7.051   8.011
 1740POPC   C4B26410  26.117   7.055   7.691
 1741POPC   NC326411  28.062  11.324   9.491
 1741POPC   PO426412  27.438  11.205   9.575
 1741POPC   GL126413  27.504  11.219   9.108
 1741POPC   GL226414  27.541  10.907   9.079
 1741POPC   C1A26415  27.341  11.165   8.642
 1741POPC   D2A26416  27.370  11.094   8.157
 1741POPC   C3A26417  27.572  11.420   7.838
 1741POPC   C4A26418  27.456  11.657   7.446
 1741POPC   C1B26419  27.824  11.010   8.693
 1741POPC   C2B26420  27.875  10.914   8.238
 1741POPC   C3B26421  27.723  10.940   7.782
 1741POPC   C4B26422  27.746  11.192   7.389
 1742POPC   NC326423  35.834  26.798   9.369
 1742POPC   PO426424  35.371  26.553   9.772
 1742POPC   GL126425  35.377  26.584   9.274
 1742POPC   GL226426  35.411  26.930   9.103
 1742POPC   C1A26427  35.579  26.555   8.826
 1742POPC   D2A26428  35.634  26.879   8.502
 1742POPC   C3A26429  35.360  26.747   8.205
 1742POPC   C4A26430  35.444  26.636   7.824
 1742POPC   C1B26431  35.174  26.883   8.729
 1742POPC   C2B26432  35.042  27.115   8.340
 1742POPC   C3B26433  34.990  27.024   7.908
 1742POPC   C4B26434  34.967  26.626   7.653
 1743POPC   NC326435  40.944  11.141   9.429
 1743POPC   PO426436  40.580  11.747   9.490
 1743POPC   GL126437  40.678  11.535   9.108
 1743POPC   GL226438  40.594  11.179   9.074
 1743POPC   C1A26439  40.703  11.593   8.663
 1743POPC   D2A26440  40.503  11.556   8.270
 1743POPC   C3A26441  40.799  11.409   7.949
 1743POPC   C4A26442  40.801  11.329   7.491
 1743POPC   C1B26443  40.486  11.126   8.637
 1743POPC   C2B26444  40.393  11.047   8.204
 1743POPC   C3B26445  40.594  10.943   7.790
 1743POPC   C4B26446  40.606  10.883   7.318
 1744POPC   NC326447  19.439  28.868   9.355
 1744POPC   PO426448  19.213  29.464   9.480
 1744POPC   GL126449  19.012  29.141   9.265
 1744POPC   GL226450  18.649  29.154   9.356
 1744POPC   C1A26451  19.076  28.980   8.835
 1744POPC   D2A26452  19.065  29.227   8.479
 1744POPC   C3A26453  19.260  29.127   8.091
 1744POPC   C4A26454  19.170  29.286   7.681
 1744POPC   C1B26455  18.637  29.217   8.909
 1744POPC   C2B26456  18.581  29.028   8.516
 1744POPC   C3B26457  18.737  29.029   8.132
 1744POPC   C4B26458  18.622  29.183   7.748
 1745POPC   NC326459  14.009  42.381   9.575
 1745POPC   PO426460  13.252  42.226   9.466
 1745POPC   GL126461  13.585  42.239   9.237
 1745POPC   GL226462  13.687  42.582   9.186
 1745POPC   C1A26463  13.621  42.259   8.801
 1745POPC   D2A26464  13.660  42.499   8.461
 1745POPC   C3A26465  13.451  42.295   8.182
 1745POPC   C4A26466  13.496  42.005   7.845
 1745POPC   C1B26467  13.348  42.707   8.854
 1745POPC   C2B26468  13.159  42.686   8.408
 1745POPC   C3B26469  13.362  42.781   7.996
 1745POPC   C4B26470  13.706  42.535   7.826
 1746POPC   NC326471  21.056  16.668   9.571
 1746POPC   PO426472  21.639  16.431   9.566
 1746POPC   GL126473  21.459  16.625   9.189
 1746POPC   GL226474  21.105  16.567   9.083
 1746POPC   C1A26475  21.495  16.953   8.878
 1746POPC   D2A26476  21.330  17.116   8.506
 1746POPC   C3A26477  21.523  17.163   8.127
 1746POPC   C4A26478  21.598  16.959   7.749
 1746POPC   C1B26479  21.271  16.507   8.703
 1746POPC   C2B26480  21.366  16.625   8.320
 1746POPC   C3B26481  21.252  16.570   7.910
 1746POPC   C4B26482  21.591  16.440   7.648
 1747POPC   NC326483  23.871  30.396   9.422
 1747POPC   PO426484  23.473  30.874   9.694
 1747POPC   GL126485  23.636  30.821   9.247
 1747POPC   GL226486  23.971  30.952   9.290
 1747POPC   C1A26487  23.755  30.615   8.817
 1747POPC   D2A26488  23.570  30.605   8.405
 1747POPC   C3A26489  23.742  30.515   7.993
 1747POPC   C4A26490  23.594  30.490   7.571
 1747POPC   C1B26491  23.957  31.082   8.855
 1747POPC   C2B26492  23.994  30.900   8.447
 1747POPC   C3B26493  23.917  30.994   8.058
 1747POPC   C4B26494  23.949  30.837   7.636
 1748POPC   NC326495  34.075  23.573   9.774
 1748POPC   PO426496  33.700  24.036   9.508
 1748POPC   GL126497  33.928  23.841   9.178
 1748POPC   GL226498  33.982  23.484   9.201
 1748POPC   C1A26499  33.840  23.776   8.747
 1748POPC   D2A26500  33.669  23.663   8.333
 1748POPC   C3A26501  33.808  23.822   7.940
 1748POPC   C4A26502  33.594  23.896   7.553
 1748POPC   C1B26503  33.928  23.285   8.796
 1748POPC   C2B26504  34.088  23.343   8.391
 1748POPC   C3B26505  33.921  23.283   8.007
 1748POPC   C4B26506  33.858  23.446   7.587
 1749POPC   NC326507  35.404  42.768   9.534
 1749POPC   PO426508  35.057  43.346   9.642
 1749POPC   GL126509  35.016  43.043   9.204
 1749POPC   GL226510  35.269  42.828   9.065
 1749POPC   C1A26511  35.137  43.113   8.687
 1749POPC   D2A26512  35.133  43.322   8.273
 1749POPC   C3A26513  35.525  43.287   8.033
 1749POPC   C4A26514  35.496  43.008   7.704
 1749POPC   C1B26515  35.153  42.611   8.701
 1749POPC   C2B26516  35.279  42.456   8.325
 1749POPC   C3B26517  35.205  42.693   7.961
 1749POPC   C4B26518  34.992  42.763   7.552
 1750POPC   NC326519  30.715   1.937   9.932
 1750POPC   PO426520  30.305   2.067   9.436
 1750POPC   GL126521  30.604   2.017   9.117
 1750POPC   GL226522  30.888   2.266   9.078
 1750POPC   C1A26523  30.626   1.867   8.680
 1750POPC   D2A26524  30.735   1.704   8.257
 1750POPC   C3A26525  30.591   1.997   7.969
 1750POPC   C4A26526  30.233   2.058   7.756
 1750POPC   C1B26527  30.945   2.275   8.604
 1750POPC   C2B26528  30.974   2.293   8.150
 1750POPC   C3B26529  31.028   2.087   7.723
 1750POPC   C4B26530  31.024   1.997   7.270
 1751POPC   NC326531   7.046  11.739   9.390
 1751POPC   PO426532   6.690  11.256   9.798
 1751POPC   GL126533   6.657  11.328   9.262
 1751POPC   GL226534   6.870  11.120   9.049
 1751POPC   C1A26535   6.538  11.361   8.752
 1751POPC   D2A26536   6.422  11.600   8.343
 1751POPC   C3A26537   6.522  11.417   7.901
 1751POPC   C4A26538   6.313  11.238   7.485
 1751POPC   C1B26539   7.033  11.296   8.680
 1751POPC   C2B26540   6.894  11.368   8.281
 1751POPC   C3B26541   6.857  11.052   7.942
 1751POPC   C4B26542   6.800  11.107   7.519
 1752POPC   NC326543   1.639  32.633   9.680
 1752POPC   PO426544   2.200  32.513   9.439
 1752POPC   GL126545   1.927  32.634   9.171
 1752POPC   GL226546   1.679  32.371   9.118
 1752POPC   C1A26547   1.931  32.678   8.743
 1752POPC   D2A26548   2.161  32.468   8.388
 1752POPC   C3A26549   2.044  32.427   7.946
 1752POPC   C4A26550   2.203  32.244   7.551
 1752POPC   C1B26551   1.869  32.173   8.729
 1752POPC   C2B26552   1.801  32.095   8.263
 1752POPC   C3B26553   1.918  31.934   7.840
 1752POPC   C4B26554   1.826  31.969   7.371
 1753POPC   NC326555  15.619  18.063   9.356
 1753POPC   PO426556  16.266  18.398   9.554
 1753POPC   GL126557  16.036  18.357   9.207
 1753POPC   GL226558  16.314  18.492   9.030
 1753POPC   C1A26559  15.817  18.445   8.793
 1753POPC   D2A26560  15.545  18.524   8.421
 1753POPC   C3A26561  15.732  18.352   8.049
 1753POPC   C4A26562  15.642  18.400   7.605
 1753POPC   C1B26563  16.372  18.434   8.579
 1753POPC   C2B26564  16.319  18.397   8.113
 1753POPC   C3B26565  16.127  18.236   7.727
 1753POPC   C4B26566  16.089  18.479   7.321
 1754POPC   NC326567  15.959  20.197   9.324
 1754POPC   PO426568  15.972  20.731   9.657
 1754POPC   GL126569  15.864  20.767   9.216
 1754POPC   GL226570  16.201  20.815   9.177
 1754POPC   C1A26571  15.846  20.591   8.770
 1754POPC   D2A26572  15.801  20.491   8.325
 1754POPC   C3A26573  15.879  20.684   7.906
 1754POPC   C4A26574  16.086  20.557   7.508
 1754POPC   C1B26575  16.250  20.912   8.736
 1754POPC   C2B26576  16.277  20.765   8.290
 1754POPC   C3B26577  16.396  20.792   7.838
 1754POPC   C4B26578  16.344  21.056   7.423
 1755POPC   NC326579   0.802  33.012   9.749
 1755POPC   PO426580   0.224  32.745   9.487
 1755POPC   GL126581   0.325  33.005   9.172
 1755POPC   GL226582   0.287  32.776   8.970
 1755POPC   C1A26583   0.253  33.253   8.790
 1755POPC   D2A26584   0.494  33.288   8.412
 1755POPC   C3A26585   0.390  33.023   8.075
 1755POPC   C4A26586   0.567  33.188   7.727
 1755POPC   C1B26587   0.622  32.897   8.737
 1755POPC   C2B26588   0.800  32.881   8.366
 1755POPC   C3B26589   0.912  32.877   7.962
 1755POPC   C4B26590   0.742  32.717   7.583
 1756POPC   NC326591  19.556  37.295   9.518
 1756POPC   PO426592  19.916  37.793   9.442
 1756POPC   GL126593  19.843  37.514   9.120
 1756POPC   GL226594  20.146  37.360   9.119
 1756POPC   C1A26595  19.863  37.585   8.687
 1756POPC   D2A26596  19.849  37.946   8.407
 1756POPC   C3A26597  20.038  37.793   8.041
 1756POPC   C4A26598  19.830  37.487   7.783
 1756POPC   C1B26599  20.121  37.139   8.683
 1756POPC   C2B26600  20.031  37.250   8.216
 1756POPC   C3B26601  20.328  37.396   7.849
 1756POPC   C4B26602  20.212  37.472   7.414
 1757POPC   NC326603  10.359  37.529   9.800
 1757POPC   PO426604  10.902  37.869   9.585
 1757POPC   GL126605  10.609  37.894   9.266
 1757POPC   GL226606  10.410  37.576   9.152
 1757POPC   C1A26607  10.729  37.885   8.865
 1757POPC   D2A26608  10.485  37.730   8.545
 1757POPC   C3A26609  10.608  37.832   8.155
 1757POPC   C4A26610  10.421  37.720   7.808
 1757POPC   C1B26611  10.709  37.371   8.824
 1757POPC   C2B26612  10.912  37.486   8.397
 1757POPC   C3B26613  10.772  37.374   7.961
 1757POPC   C4B26614  10.558  37.323   7.529
 1758POPC   NC326615  37.048  13.448   9.690
 1758POPC   PO426616  37.014  14.124   9.563
 1758POPC   GL126617  36.923  13.877   9.204
 1758POPC   GL226618  37.037  13.505   9.180
 1758POPC   C1A26619  36.898  13.791   8.764
 1758POPC   D2A26620  36.832  13.514   8.411
 1758POPC   C3A26621  36.785  13.684   8.004
 1758POPC   C4A26622  36.521  13.515   7.688
 1758POPC   C1B26623  37.166  13.331   8.765
 1758POPC   C2B26624  37.271  13.215   8.329
 1758POPC   C3B26625  37.042  13.269   7.924
 1758POPC   C4B26626  37.023  13.474   7.516
 1759POPC   NC326627   2.149  39.578   9.362
 1759POPC   PO426628   1.982  38.944   9.278
 1759POPC   GL126629   2.178  39.199   9.044
 1759POPC   GL226630   2.496  39.235   9.183
 1759POPC   C1A26631   2.256  39.422   8.693
 1759POPC   D2A26632   2.336  39.245   8.330
 1759POPC   C3A26633   2.053  39.296   8.006
 1759POPC   C4A26634   2.022  39.514   7.677
 1759POPC   C1B26635   2.600  39.042   8.768
 1759POPC   C2B26636   2.584  38.808   8.375
 1759POPC   C3B26637   2.413  38.927   7.948
 1759POPC   C4B26638   2.301  39.098   7.583
 1760POPC   NC326639  43.286  32.782   9.410
 1760POPC   PO426640  42.878  33.302   9.571
 1760POPC   GL126641  42.831  33.038   9.193
 1760POPC   GL226642  42.692  33.335   9.063
 1760POPC   C1A26643  43.019  32.901   8.774
 1760POPC   D2A26644  43.189  32.684   8.385
 1760POPC   C3A26645  43.386  32.737   7.976
 1760POPC   C4A26646  43.305  32.853   7.509
 1760POPC   C1B26647  42.895  33.387   8.667
 1760POPC   C2B26648  42.897  33.113   8.291
 1760POPC   C3B26649  43.050  33.147   7.860
 1760POPC   C4B26650  42.952  33.416   7.519
 1761POPC   NC326651  32.709  23.097   9.554
 1761POPC   PO426652  33.056  22.567   9.442
 1761POPC   GL126653  33.149  22.782   9.090
 1761POPC   GL226654  33.010  23.129   9.143
 1761POPC   C1A26655  33.081  22.675   8.661
 1761POPC   D2A26656  33.075  22.950   8.301
 1761POPC   C3A26657  33.147  22.711   7.955
 1761POPC   C4A26658  32.912  22.671   7.600
 1761POPC   C1B26659  33.215  23.158   8.737
 1761POPC   C2B26660  33.558  23.171   8.394
 1761POPC   C3B26661  33.419  23.301   7.947
 1761POPC   C4B26662  33.026  23.193   7.747
 1762POPC   NC326663  16.735  29.664   9.380
 1762POPC   PO426664  16.695  30.248   9.395
 1762POPC   GL126665  16.868  30.076   9.052
 1762POPC   GL226666  16.608  30.216   8.887
 1762POPC   C1A26667  16.799  29.787   8.681
 1762POPC   D2A26668  16.758  29.935   8.255
 1762POPC   C3A26669  16.691  29.677   7.903
 1762POPC   C4A26670  16.974  29.714   7.586
 1762POPC   C1B26671  16.386  30.167   8.540
 1762POPC   C2B26672  16.436  30.353   8.181
 1762POPC   C3B26673  16.603  30.185   7.812
 1762POPC   C4B26674  16.556  30.004   7.412
 1763POPC   NC326675  32.770  10.376   9.552
 1763POPC   PO426676  33.369  10.630   9.533
 1763POPC   GL126677  33.124  10.456   9.190
 1763POPC   GL226678  32.826  10.659   9.129
 1763POPC   C1A26679  33.166  10.136   8.881
 1763POPC   D2A26680  33.260  10.252   8.441
 1763POPC   C3A26681  33.047  10.165   8.095
 1763POPC   C4A26682  32.917  10.347   7.744
 1763POPC   C1B26683  32.844  10.468   8.724
 1763POPC   C2B26684  32.910  10.608   8.328
 1763POPC   C3B26685  32.790  10.787   7.958
 1763POPC   C4B26686  32.431  10.697   7.740
 1764POPC   NC326687  31.710  22.050   9.791
 1764POPC   PO426688  32.425  22.271   9.840
 1764POPC   GL126689  32.297  22.137   9.371
 1764POPC   GL226690  32.202  22.421   9.159
 1764POPC   C1A26691  32.354  22.015   8.892
 1764POPC   D2A26692  32.275  22.234   8.460
 1764POPC   C3A26693  32.278  22.011   8.080
 1764POPC   C4A26694  32.440  21.748   7.784
 1764POPC   C1B26695  32.002  22.562   8.780
 1764POPC   C2B26696  32.039  22.677   8.347
 1764POPC   C3B26697  32.011  22.446   7.962
 1764POPC   C4B26698  31.728  22.373   7.637
 1765POPC   NC326699  16.172  23.081   9.781
 1765POPC   PO426700  16.666  22.774   9.430
 1765POPC   GL126701  16.573  22.861   9.045
 1765POPC   GL226702  16.741  23.180   9.049
 1765POPC   C1A26703  16.543  22.842   8.599
 1765POPC   D2A26704  16.726  23.009   8.232
 1765POPC   C3A26705  16.892  22.661   7.987
 1765POPC   C4A26706  16.916  22.587   7.562
 1765POPC   C1B26707  16.880  23.442   8.734
 1765POPC   C2B26708  17.074  23.454   8.327
 1765POPC   C3B26709  16.908  23.380   7.923
 1765POPC   C4B26710  16.759  23.433   7.516
 1766POPC   NC326711  34.541  34.378   9.508
 1766POPC   PO426712  34.645  34.949   9.657
 1766POPC   GL126713  34.898  34.714   9.281
 1766POPC   GL226714  34.884  34.371   9.137
 1766POPC   C1A26715  34.974  34.740   8.805
 1766POPC   D2A26716  34.706  34.785   8.441
 1766POPC   C3A26717  34.762  34.621   8.011
 1766POPC   C4A26718  34.649  34.882   7.659
 1766POPC   C1B26719  34.516  34.472   8.861
 1766POPC   C2B26720  34.269  34.148   8.622
 1766POPC   C3B26721  34.222  34.106   8.168
 1766POPC   C4B26722  34.293  34.424   7.822
 1767POPC   NC326723  34.703  12.304   9.378
 1767POPC   PO426724  34.963  11.822   9.623
 1767POPC   GL126725  34.904  11.822   9.188
 1767POPC   GL226726  35.092  12.109   9.102
 1767POPC   C1A26727  34.848  11.833   8.730
 1767POPC   D2A26728  34.601  12.109   8.457
 1767POPC   C3A26729  34.559  11.923   8.083
 1767POPC   C4A26730  34.752  11.583   7.876
 1767POPC   C1B26731  34.978  12.323   8.722
 1767POPC   C2B26732  35.111  12.145   8.341
 1767POPC   C3B26733  35.056  11.991   7.920
 1767POPC   C4B26734  34.704  12.041   7.609
 1768POPC   NC326735  16.091   2.189   9.413
 1768POPC   PO426736  15.796   1.587   9.522
 1768POPC   GL126737  15.796   1.848   9.138
 1768POPC   GL226738  16.125   1.749   9.110
 1768POPC   C1A26739  15.893   2.201   8.780
 1768POPC   D2A26740  16.182   2.276   8.388
 1768POPC   C3A26741  15.990   2.203   7.987
 1768POPC   C4A26742  15.755   2.097   7.619
 1768POPC   C1B26743  16.316   1.931   8.787
 1768POPC   C2B26744  16.495   1.863   8.437
 1768POPC   C3B26745  16.383   1.876   8.059
 1768POPC   C4B26746  16.191   1.771   7.692
 1769POPC   NC326747   6.405  33.631   9.570
 1769POPC   PO426748   6.889  34.093   9.508
 1769POPC   GL126749   6.720  33.758   9.201
 1769POPC   GL226750   6.436  33.807   8.992
 1769POPC   C1A26751   6.816  33.501   8.852
 1769POPC   D2A26752   6.632  33.606   8.470
 1769POPC   C3A26753   6.850  33.676   8.098
 1769POPC   C4A26754   6.754  33.523   7.693
 1769POPC   C1B26755   6.781  34.009   8.723
 1769POPC   C2B26756   6.660  34.124   8.301
 1769POPC   C3B26757   6.475  33.992   7.931
 1769POPC   C4B26758   6.200  34.184   7.643
 1770POPC   NC326759  15.500  17.181   9.378
 1770POPC   PO426760  15.158  17.818   9.431
 1770POPC   GL126761  15.301  17.582   9.110
 1770POPC   GL226762  15.154  17.232   9.004
 1770POPC   C1A26763  15.222  17.701   8.713
 1770POPC   D2A26764  15.129  17.467   8.412
 1770POPC   C3A26765  15.430  17.417   8.108
 1770POPC   C4A26766  15.348  17.567   7.698
 1770POPC   C1B26767  14.819  17.089   8.718
 1770POPC   C2B26768  14.696  17.253   8.301
 1770POPC   C3B26769  14.947  17.314   7.941
 1770POPC   C4B26770  14.895  17.431   7.503
 1771POPC   NC326771  19.756   9.346   9.263
 1771POPC   PO426772  19.557   9.989   9.516
 1771POPC   GL126773  19.577   9.798   9.128
 1771POPC   GL226774  19.890   9.823   9.054
 1771POPC   C1A26775  19.568   9.724   8.677
 1771POPC   D2A26776  19.601   9.897   8.281
 1771POPC   C3A26777  19.653   9.679   7.911
 1771POPC   C4A26778  19.431   9.837   7.578
 1771POPC   C1B26779  20.093   9.695   8.709
 1771POPC   C2B26780  20.082   9.761   8.292
 1771POPC   C3B26781  20.194   9.690   7.898
 1771POPC   C4B26782  20.044   9.866   7.500
 1772POPC   NC326783   7.143  20.403   9.421
 1772POPC   PO426784   7.667  20.897   9.478
 1772POPC   GL126785   7.424  20.728   9.153
 1772POPC   GL226786   7.370  21.041   8.953
 1772POPC   C1A26787   7.477  20.579   8.774
 1772POPC   D2A26788   7.587  20.898   8.472
 1772POPC   C3A26789   7.431  20.677   8.148
 1772POPC   C4A26790   7.536  20.333   7.874
 1772POPC   C1B26791   7.009  20.762   8.791
 1772POPC   C2B26792   6.991  20.421   8.462
 1772POPC   C3B26793   6.984  20.436   8.008
 1772POPC   C4B26794   7.080  20.825   7.797
 1773POPC   NC326795  37.856  14.942   9.478
 1773POPC   PO426796  37.228  15.078   9.578
 1773POPC   GL126797  37.476  15.047   9.158
 1773POPC   GL226798  37.835  15.187   9.049
 1773POPC   C1A26799  37.450  15.207   8.734
 1773POPC   D2A26800  37.616  15.010   8.410
 1773POPC   C3A26801  37.664  15.250   8.052
 1773POPC   C4A26802  37.585  15.068   7.684
 1773POPC   C1B26803  37.900  15.481   8.717
 1773POPC   C2B26804  37.955  15.610   8.310
 1773POPC   C3B26805  38.124  15.495   7.935
 1773POPC   C4B26806  37.864  15.469   7.611
 1774POPC   NC326807   5.158  23.928   9.499
 1774POPC   PO426808   5.082  23.260   9.655
 1774POPC   GL126809   4.991  23.503   9.258
 1774POPC   GL226810   5.287  23.583   9.119
 1774POPC   C1A26811   4.839  23.477   8.812
 1774POPC   D2A26812   4.961  23.399   8.370
 1774POPC   C3A26813   4.840  23.666   8.004
 1774POPC   C4A26814   4.853  23.722   7.558
 1774POPC   C1B26815   5.444  23.557   8.692
 1774POPC   C2B26816   5.374  23.714   8.251
 1774POPC   C3B26817   5.326  23.682   7.808
 1774POPC   C4B26818   5.270  23.400   7.468
 1775POPC   NC326819   9.500  20.324   9.556
 1775POPC   PO426820   9.350  21.121   9.581
 1775POPC   GL126821   9.583  20.840   9.287
 1775POPC   GL226822   9.582  20.499   9.101
 1775POPC   C1A26823   9.621  20.939   8.859
 1775POPC   D2A26824   9.641  20.863   8.419
 1775POPC   C3A26825   9.564  20.723   8.001
 1775POPC   C4A26826   9.928  20.855   7.794
 1775POPC   C1B26827   9.806  20.484   8.725
 1775POPC   C2B26828   9.740  20.357   8.301
 1775POPC   C3B26829   9.981  20.368   7.930
 1775POPC   C4B26830   9.973  20.425   7.491
 1776POPC   NC326831  13.457   9.304   9.381
 1776POPC   PO426832  13.822   8.855   9.673
 1776POPC   GL126833  13.833   8.868   9.206
 1776POPC   GL226834  13.499   8.959   9.016
 1776POPC   C1A26835  13.784   8.602   8.821
 1776POPC   D2A26836  13.526   8.792   8.502
 1776POPC   C3A26837  13.687   9.033   8.170
 1776POPC   C4A26838  13.534   8.971   7.746
 1776POPC   C1B26839  13.581   9.273   8.688
 1776POPC   C2B26840  13.378   9.426   8.305
 1776POPC   C3B26841  13.427   9.439   7.864
 1776POPC   C4B26842  13.625   9.376   7.428
 1777POPC   NC326843  24.860  17.454   9.285
 1777POPC   PO426844  25.486  17.465   9.566
 1777POPC   GL126845  25.330  17.668   9.202
 1777POPC   GL226846  25.298  17.324   9.065
 1777POPC   C1A26847  25.357  17.874   8.796
 1777POPC   D2A26848  25.261  17.757   8.361
 1777POPC   C3A26849  25.094  17.867   7.954
 1777POPC   C4A26850  25.358  17.810   7.565
 1777POPC   C1B26851  25.081  17.383   8.674
 1777POPC   C2B26852  24.949  17.167   8.333
 1777POPC   C3B26853  25.021  17.365   7.941
 1777POPC   C4B26854  25.132  17.346   7.519
 1778POPC   NC326855  11.342  38.061   9.578
 1778POPC   PO426856  11.061  38.690   9.537
 1778POPC   GL126857  11.084  38.435   9.191
 1778POPC   GL226858  11.448  38.462   9.082
 1778POPC   C1A26859  11.017  38.500   8.744
 1778POPC   D2A26860  11.346  38.381   8.429
 1778POPC   C3A26861  11.199  38.408   8.017
 1778POPC   C4A26862  11.053  38.623   7.678
 1778POPC   C1B26863  11.738  38.247   8.756
 1778POPC   C2B26864  11.759  38.065   8.336
 1778POPC   C3B26865  11.738  38.409   8.038
 1778POPC   C4B26866  11.556  38.500   7.646
 1779POPC   NC326867  41.994  34.579   9.805
 1779POPC   PO426868  41.417  34.755   9.447
 1779POPC   GL126869  41.383  34.493   9.070
 1779POPC   GL226870  41.713  34.468   8.886
 1779POPC   C1A26871  41.307  34.487   8.616
 1779POPC   D2A26872  41.540  34.706   8.343
 1779POPC   C3A26873  41.538  34.519   7.953
 1779POPC   C4A26874  41.494  34.311   7.582
 1779POPC   C1B26875  41.858  34.847   8.758
 1779POPC   C2B26876  42.058  34.788   8.395
 1779POPC   C3B26877  41.930  34.851   7.978
 1779POPC   C4B26878  41.720  34.852   7.582
 1780POPC   NC326879   6.557  27.078   9.531
 1780POPC   PO426880   6.881  26.522   9.509
 1780POPC   GL126881   6.683  26.642   9.148
 1780POPC   GL226882   6.735  26.988   9.055
 1780POPC   C1A26883   6.811  26.633   8.711
 1780POPC   D2A26884   6.710  26.919   8.395
 1780POPC   C3A26885   6.753  26.627   8.086
 1780POPC   C4A26886   6.736  26.679   7.674
 1780POPC   C1B26887   6.350  26.861   8.799
 1780POPC   C2B26888   6.194  26.979   8.359
 1780POPC   C3B26889   6.351  26.924   7.957
 1780POPC   C4B26890   6.662  27.188   7.784
 1781POPC   NC326891   1.575  37.607   9.416
 1781POPC   PO426892   1.036  37.387   9.693
 1781POPC   GL126893   1.155  37.724   9.208
 1781POPC   GL226894   1.011  38.072   9.169
 1781POPC   C1A26895   1.316  37.549   8.778
 1781POPC   D2A26896   1.587  37.714   8.429
 1781POPC   C3A26897   1.493  37.672   7.992
 1781POPC   C4A26898   1.131  37.497   7.792
 1781POPC   C1B26899   1.280  38.046   8.778
 1781POPC   C2B26900   1.252  38.147   8.341
 1781POPC   C3B26901   1.114  38.013   7.950
 1781POPC   C4B26902   1.017  37.906   7.545
 1782POPC   NC326903  19.566  18.664   9.510
 1782POPC   PO426904  20.106  19.198   9.548
 1782POPC   GL126905  19.813  19.100   9.259
 1782POPC   GL226906  19.954  18.781   9.217
 1782POPC   C1A26907  19.683  19.079   8.840
 1782POPC   D2A26908  19.788  18.901   8.449
 1782POPC   C3A26909  19.871  19.146   8.081
 1782POPC   C4A26910  19.729  18.995   7.678
 1782POPC   C1B26911  20.123  18.795   8.834
 1782POPC   C2B26912  20.278  18.828   8.418
 1782POPC   C3B26913  20.173  18.758   7.929
 1782POPC   C4B26914  20.132  18.766   7.444
 1783POPC   NC326915   5.392   1.561   9.616
 1783POPC   PO426916   5.927   1.343   9.889
 1783POPC   GL126917   5.898   1.571   9.446
 1783POPC   GL226918   5.842   1.289   9.235
 1783POPC   C1A26919   5.961   1.681   8.957
 1783POPC   D2A26920   5.884   1.522   8.535
 1783POPC   C3A26921   5.941   1.595   8.107
 1783POPC   C4A26922   5.792   1.272   7.766
 1783POPC   C1B26923   5.849   1.097   8.800
 1783POPC   C2B26924   5.854   1.060   8.316
 1783POPC   C3B26925   5.911   0.799   7.923
 1783POPC   C4B26926   5.723   0.787   7.502
 1784POPC   NC326927  42.322   0.442   9.529
 1784POPC   PO426928  41.938   1.009   9.402
 1784POPC   GL126929  42.119   0.723   9.129
 1784POPC   GL226930  42.483   0.591   9.079
 1784POPC   C1A26931  42.063   0.649   8.701
 1784POPC   D2A26932  42.068   0.299   8.434
 1784POPC   C3A26933  42.088   0.532   8.081
 1784POPC   C4A26934  41.936   0.609   7.685
 1784POPC   C1B26935  42.630   0.214   8.886
 1784POPC   C2B26936  42.582   0.183   8.470
 1784POPC   C3B26937  42.656   0.332   8.045
 1784POPC   C4B26938  42.340   0.264   7.727
 1785POPC   NC326939   1.662  14.645   9.536
 1785POPC   PO426940   1.693  15.244   9.565
 1785POPC   GL126941   1.927  15.253   9.171
 1785POPC   GL226942   2.030  14.907   9.144
 1785POPC   C1A26943   1.973  15.379   8.720
 1785POPC   D2A26944   2.279  15.422   8.386
 1785POPC   C3A26945   2.069  15.334   8.047
 1785POPC   C4A26946   2.091  15.267   7.649
 1785POPC   C1B26947   1.733  14.947   8.804
 1785POPC   C2B26948   1.706  15.092   8.374
 1785POPC   C3B26949   1.804  14.910   7.977
 1785POPC   C4B26950   1.710  14.971   7.529
 1786POPC   NC326951   4.553   9.888   9.557
 1786POPC   PO426952   4.089   9.360   9.572
 1786POPC   GL126953   4.290   9.556   9.210
 1786POPC   GL226954   4.130   9.879   9.190
 1786POPC   C1A26955   4.231   9.615   8.749
 1786POPC   D2A26956   4.495   9.524   8.383
 1786POPC   C3A26957   4.305   9.695   8.056
 1786POPC   C4A26958   4.164   9.615   7.673
 1786POPC   C1B26959   4.418  10.072   8.896
 1786POPC   C2B26960   4.525  10.042   8.468
 1786POPC   C3B26961   4.365  10.196   8.086
 1786POPC   C4B26962   4.401  10.080   7.666
 1787POPC   NC326963  12.566  21.179   9.682
 1787POPC   PO426964  13.229  21.054   9.459
 1787POPC   GL126965  13.002  21.327   9.197
 1787POPC   GL226966  12.722  21.539   9.319
 1787POPC   C1A26967  13.017  21.270   8.762
 1787POPC   D2A26968  12.954  21.077   8.368
 1787POPC   C3A26969  12.932  21.379   8.048
 1787POPC   C4A26970  12.618  21.256   7.745
 1787POPC   C1B26971  12.555  21.457   8.906
 1787POPC   C2B26972  12.661  21.572   8.483
 1787POPC   C3B26973  12.489  21.651   8.078
 1787POPC   C4B26974  12.747  21.761   7.747
 1788POPC   NC326975  27.253  13.398   9.595
 1788POPC   PO426976  27.871  13.593   9.814
 1788POPC   GL126977  27.625  13.681   9.387
 1788POPC   GL226978  27.488  13.400   9.151
 1788POPC   C1A26979  27.475  13.879   8.993
 1788POPC   D2A26980  27.381  13.788   8.561
 1788POPC   C3A26981  27.460  13.870   8.123
 1788POPC   C4A26982  27.269  13.938   7.725
 1788POPC   C1B26983  27.256  13.326   8.726
 1788POPC   C2B26984  27.394  13.352   8.275
 1788POPC   C3B26985  27.255  13.406   7.850
 1788POPC   C4B26986  27.360  13.130   7.479
 1789POPC   NC326987  36.053  33.480   9.410
 1789POPC   PO426988  36.271  32.856   9.435
 1789POPC   GL126989  36.274  33.081   9.050
 1789POPC   GL226990  36.049  33.350   8.937
 1789POPC   C1A26991  36.345  32.965   8.646
 1789POPC   D2A26992  36.067  32.799   8.354
 1789POPC   C3A26993  36.205  32.857   7.949
 1789POPC   C4A26994  35.941  32.807   7.655
 1789POPC   C1B26995  36.240  33.451   8.593
 1789POPC   C2B26996  36.218  33.299   8.200
 1789POPC   C3B26997  36.452  33.403   7.846
 1789POPC   C4B26998  36.464  33.276   7.439
 1790POPC   NC326999   0.233   2.459   9.422
 1790POPC   PO427000   0.884   2.293   9.615
 1790POPC   GL127001   0.645   2.219   9.200
 1790POPC   GL227002   0.291   2.054   9.125
 1790POPC   C1A27003   0.560   2.261   8.749
 1790POPC   D2A27004   0.325   2.273   8.353
 1790POPC   C3A27005   0.413   2.241   7.909
 1790POPC   C4A27006   0.554   1.925   7.585
 1790POPC   C1B27007   0.000   2.104   8.746
 1790POPC   C2B27008  44.910   1.880   8.316
 1790POPC   C3B27009   0.181   1.792   7.937
 1790POPC   C4B27010   0.161   1.584   7.517
 1791POPC   NC327011  23.495  26.734   9.491
 1791POPC   PO427012  22.845  26.526   9.463
 1791POPC   GL127013  22.743  26.742   9.068
 1791POPC   GL227014  22.408  26.956   9.125
 1791POPC   C1A27015  23.062  26.816   8.751
 1791POPC   D2A27016  23.202  27.101   8.416
 1791POPC   C3A27017  23.058  26.950   8.005
 1791POPC   C4A27018  23.020  26.908   7.532
 1791POPC   C1B27019  22.405  26.795   8.678
 1791POPC   C2B27020  22.596  26.748   8.258
 1791POPC   C3B27021  22.600  26.824   7.826
 1791POPC   C4B27022  22.504  26.666   7.403
 1792POPC   NC327023  37.873   0.772   9.446
 1792POPC   PO427024  37.733   0.071   9.473
 1792POPC   GL127025  37.837   0.356   9.134
 1792POPC   GL227026  37.530   0.449   8.975
 1792POPC   C1A27027  37.979   0.465   8.698
 1792POPC   D2A27028  37.792   0.807   8.437
 1792POPC   C3A27029  37.642   0.614   8.077
 1792POPC   C4A27030  37.855   0.415   7.709
 1792POPC   C1B27031  37.282   0.722   8.725
 1792POPC   C2B27032  37.078   0.662   8.328
 1792POPC   C3B27033  37.182   0.843   7.951
 1792POPC   C4B27034  37.367   0.543   7.657
 1793POPC   NC327035  31.217  44.229   9.280
 1793POPC   PO427036  31.744  43.876   9.588
 1793POPC   GL127037  31.625  43.935   9.161
 1793POPC   GL227038  31.430  43.660   9.038
 1793POPC   C1A27039  31.554  44.052   8.715
 1793POPC   D2A27040  31.473  43.860   8.299
 1793POPC   C3A27041  31.396  44.065   7.910
 1793POPC   C4A27042  31.542  44.212   7.550
 1793POPC   C1B27043  31.130  43.725   8.711
 1793POPC   C2B27044  31.008  43.656   8.308
 1793POPC   C3B27045  31.165  43.617   7.922
 1793POPC   C4B27046  31.234  43.697   7.521
 1794POPC   NC327047  36.443  28.229   9.397
 1794POPC   PO427048  35.857  28.519   9.692
 1794POPC   GL127049  36.083  28.538   9.191
 1794POPC   GL227050  36.317  28.804   9.130
 1794POPC   C1A27051  36.088  28.321   8.750
 1794POPC   D2A27052  36.290  28.014   8.462
 1794POPC   C3A27053  36.372  28.147   8.034
 1794POPC   C4A27054  36.086  28.322   7.777
 1794POPC   C1B27055  36.422  28.686   8.722
 1794POPC   C2B27056  36.245  28.568   8.308
 1794POPC   C3B27057  36.314  28.765   7.910
 1794POPC   C4B27058  36.409  28.974   7.502
 1795POPC   NC327059  13.737  11.626   9.529
 1795POPC   PO427060  13.840  12.271   9.548
 1795POPC   GL127061  13.633  12.133   9.235
 1795POPC   GL227062  13.268  12.260   9.254
 1795POPC   C1A27063  13.897  11.987   8.896
 1795POPC   D2A27064  14.025  12.062   8.467
 1795POPC   C3A27065  13.766  12.168   8.085
 1795POPC   C4A27066  13.847  12.058   7.631
 1795POPC   C1B27067  13.325  12.053   8.855
 1795POPC   C2B27068  13.496  12.015   8.507
 1795POPC   C3B27069  13.304  11.895   8.149
 1795POPC   C4B27070  13.331  12.036   7.732
 1796POPC   NC327071  18.907  27.510   9.590
 1796POPC   PO427072  19.515  27.716   9.556
 1796POPC   GL127073  19.392  27.413   9.215
 1796POPC   GL227074  19.022  27.260   9.185
 1796POPC   C1A27075  19.428  27.599   8.794
 1796POPC   D2A27076  19.166  27.720   8.430
 1796POPC   C3A27077  19.376  27.625   8.064
 1796POPC   C4A27078  19.173  27.662   7.681
 1796POPC   C1B27079  18.916  27.457   8.825
 1796POPC   C2B27080  18.953  27.253   8.452
 1796POPC   C3B27081  18.906  27.400   8.056
 1796POPC   C4B27082  18.976  27.185   7.704
 1797POPC   NC327083  31.789   3.239   9.479
 1797POPC   PO427084  31.267   3.587   9.380
 1797POPC   GL127085  31.491   3.787   9.112
 1797POPC   GL227086  31.791   3.634   9.110
 1797POPC   C1A27087  31.494   3.673   8.686
 1797POPC   D2A27088  31.710   3.589   8.326
 1797POPC   C3A27089  31.389   3.651   8.055
 1797POPC   C4A27090  31.169   3.710   7.662
 1797POPC   C1B27091  31.884   3.336   8.774
 1797POPC   C2B27092  31.834   3.064   8.403
 1797POPC   C3B27093  31.791   3.199   7.957
 1797POPC   C4B27094  31.792   3.598   7.759
 1798POPC   NC327095  19.537  40.868   9.344
 1798POPC   PO427096  20.180  41.021   9.461
 1798POPC   GL127097  20.017  40.879   9.096
 1798POPC   GL227098  20.089  40.562   8.965
 1798POPC   C1A27099  19.966  40.932   8.662
 1798POPC   D2A27100  19.880  40.652   8.324
 1798POPC   C3A27101  19.792  40.887   7.967
 1798POPC   C4A27102  19.737  41.221   7.660
 1798POPC   C1B27103  20.332  40.567   8.585
 1798POPC   C2B27104  20.368  40.622   8.157
 1798POPC   C3B27105  20.111  40.513   7.810
 1798POPC   C4B27106  20.173  40.578   7.355
 1799POPC   NC327107  36.649  27.374   9.430
 1799POPC   PO427108  36.978  28.028   9.533
 1799POPC   GL127109  36.940  27.728   9.146
 1799POPC   GL227110  36.673  27.595   8.955
 1799POPC   C1A27111  37.107  27.563   8.719
 1799POPC   D2A27112  37.048  27.611   8.266
 1799POPC   C3A27113  36.755  27.804   8.006
 1799POPC   C4A27114  36.822  27.828   7.580
 1799POPC   C1B27115  36.614  27.170   8.783
 1799POPC   C2B27116  36.486  27.061   8.363
 1799POPC   C3B27117  36.635  27.276   7.996
 1799POPC   C4B27118  36.575  27.133   7.604
 1800POPC   NC327119  13.666  20.865   9.457
 1800POPC   PO427120  13.393  20.336   9.538
 1800POPC   GL127121  13.634  20.386   9.155
 1800POPC   GL227122  13.305  20.284   9.022
 1800POPC   C1A27123  13.837  20.527   8.763
 1800POPC   D2A27124  13.916  20.782   8.412
 1800POPC   C3A27125  14.009  20.624   7.997
 1800POPC   C4A27126  14.037  20.415   7.581
 1800POPC   C1B27127  13.332  20.617   8.729
 1800POPC   C2B27128  13.469  20.521   8.333
 1800POPC   C3B27129  13.399  20.574   7.919
 1800POPC   C4B27130  13.648  20.762   7.654
 1801POPC   NC327131  33.967  17.314   9.598
 1801POPC   PO427132  34.111  17.866   9.451
 1801POPC   GL127133  34.026  17.591   9.139
 1801POPC   GL227134  33.704  17.497   9.142
 1801POPC   C1A27135  34.012  17.466   8.720
 1801POPC   D2A27136  33.896  17.719   8.388
 1801POPC   C3A27137  34.022  17.578   7.988
 1801POPC   C4A27138  34.085  17.538   7.537
 1801POPC   C1B27139  33.523  17.680   8.793
 1801POPC   C2B27140  33.392  17.618   8.383
 1801POPC   C3B27141  33.537  17.788   8.005
 1801POPC   C4B27142  33.611  17.814   7.577
 1802POPC   NC327143   4.334  31.067   9.597
 1802POPC   PO427144   4.011  30.597   9.960
 1802POPC   GL127145   4.134  30.608   9.397
 1802POPC   GL227146   4.373  30.850   9.161
 1802POPC   C1A27147   4.146  30.538   8.877
 1802POPC   D2A27148   4.345  30.814   8.517
 1802POPC   C3A27149   4.218  30.780   8.074
 1802POPC   C4A27150   4.247  30.402   7.797
 1802POPC   C1B27151   4.676  31.089   8.887
 1802POPC   C2B27152   4.881  30.935   8.540
 1802POPC   C3B27153   4.790  30.918   8.105
 1802POPC   C4B27154   4.616  30.754   7.744
 1803POPC   NC327155  28.961  18.000   9.527
 1803POPC   PO427156  29.485  18.368   9.338
 1803POPC   GL127157  29.092  18.323   9.159
 1803POPC   GL227158  28.994  18.661   9.201
 1803POPC   C1A27159  28.920  18.156   8.755
 1803POPC   D2A27160  29.100  18.205   8.341
 1803POPC   C3A27161  28.954  18.120   7.921
 1803POPC   C4A27162  29.175  18.126   7.522
 1803POPC   C1B27163  29.224  18.632   8.789
 1803POPC   C2B27164  29.358  18.642   8.379
 1803POPC   C3B27165  29.144  18.604   8.017
 1803POPC   C4B27166  29.288  18.615   7.630
 1804POPC   NC327167  42.397  38.002   9.429
 1804POPC   PO427168  41.984  37.472   9.567
 1804POPC   GL127169  42.141  37.660   9.159
 1804POPC   GL227170  42.454  37.710   8.998
 1804POPC   C1A27171  42.026  37.713   8.720
 1804POPC   D2A27172  42.005  37.466   8.335
 1804POPC   C3A27173  42.211  37.681   7.992
 1804POPC   C4A27174  42.616  37.605   7.808
 1804POPC   C1B27175  42.512  37.869   8.550
 1804POPC   C2B27176  42.610  38.044   8.107
 1804POPC   C3B27177  42.863  38.048   7.705
 1804POPC   C4B27178  42.742  37.941   7.256
 1805POPC   NC327179  37.416  40.389   9.329
 1805POPC   PO427180  38.064  40.025   9.429
 1805POPC   GL127181  37.784  40.085   9.141
 1805POPC   GL227182  37.862  40.441   9.084
 1805POPC   C1A27183  37.592  39.895   8.770
 1805POPC   D2A27184  37.444  40.029   8.368
 1805POPC   C3A27185  37.659  40.065   7.975
 1805POPC   C4A27186  37.339  40.072   7.663
 1805POPC   C1B27187  37.938  40.257   8.680
 1805POPC   C2B27188  38.076  40.435   8.313
 1805POPC   C3B27189  37.896  40.572   7.937
 1805POPC   C4B27190  37.916  40.373   7.569
 1806POPC   NC327191  24.372  21.676   9.509
 1806POPC   PO427192  24.662  21.073   9.564
 1806POPC   GL127193  24.588  21.255   9.179
 1806POPC   GL227194  24.236  21.277   9.191
 1806POPC   C1A27195  24.739  21.206   8.717
 1806POPC   D2A27196  24.830  21.187   8.254
 1806POPC   C3A27197  24.552  21.244   7.871
 1806POPC   C4A27198  24.630  21.321   7.420
 1806POPC   C1B27199  24.387  21.581   8.860
 1806POPC   C2B27200  24.563  21.621   8.450
 1806POPC   C3B27201  24.410  21.703   8.052
 1806POPC   C4B27202  24.332  21.731   7.617
 1807POPC   NC327203   7.839  35.371   9.696
 1807POPC   PO427204   8.433  35.556   9.631
 1807POPC   GL127205   8.243  35.351   9.275
 1807POPC   GL227206   7.914  35.459   9.198
 1807POPC   C1A27207   8.214  35.448   8.804
 1807POPC   D2A27208   7.893  35.552   8.478
 1807POPC   C3A27209   8.021  35.472   8.078
 1807POPC   C4A27210   8.152  35.218   7.740
 1807POPC   C1B27211   7.766  35.188   8.839
 1807POPC   C2B27212   7.585  35.141   8.416
 1807POPC   C3B27213   7.780  34.993   8.045
 1807POPC   C4B27214   7.820  34.855   7.626
 1808POPC   NC327215   3.938  33.876   9.551
 1808POPC   PO427216   3.463  33.482   9.564
 1808POPC   GL127217   3.594  33.680   9.179
 1808POPC   GL227218   3.951  33.658   9.104
 1808POPC   C1A27219   3.462  33.589   8.750
 1808POPC   D2A27220   3.299  33.574   8.333
 1808POPC   C3A27221   3.382  33.765   7.928
 1808POPC   C4A27222   3.275  33.377   7.790
 1808POPC   C1B27223   3.785  33.977   8.806
 1808POPC   C2B27224   3.695  33.920   8.398
 1808POPC   C3B27225   3.821  34.111   8.044
 1808POPC   C4B27226   3.877  33.931   7.687
 1809POPC   NC327227  24.212  17.274   9.564
 1809POPC   PO427228  24.645  17.824   9.466
 1809POPC   GL127229  24.566  17.824   9.076
 1809POPC   GL227230  24.355  17.515   9.127
 1809POPC   C1A27231  24.840  17.813   8.732
 1809POPC   D2A27232  24.768  17.670   8.319
 1809POPC   C3A27233  24.392  17.694   8.093
 1809POPC   C4A27234  24.530  17.550   7.735
 1809POPC   C1B27235  24.464  17.468   8.707
 1809POPC   C2B27236  24.432  17.264   8.339
 1809POPC   C3B27237  24.572  17.103   7.983
 1809POPC   C4B27238  24.284  17.089   7.674
 1810POPC   NC327239  38.149  18.540   9.647
 1810POPC   PO427240  38.764  18.300   9.481
 1810POPC   GL127241  38.485  18.357   9.107
 1810POPC   GL227242  38.165  18.244   9.227
 1810POPC   C1A27243  38.338  18.332   8.671
 1810POPC   D2A27244  38.518  18.127   8.327
 1810POPC   C3A27245  38.684  18.410   8.062
 1810POPC   C4A27246  38.853  18.296   7.677
 1810POPC   C1B27247  38.034  18.006   8.880
 1810POPC   C2B27248  37.937  18.177   8.431
 1810POPC   C3B27249  38.140  18.279   8.022
 1810POPC   C4B27250  38.432  18.021   7.784
 1811POPC   NC327251   5.296   2.329   9.534
 1811POPC   PO427252   4.949   1.695   9.595
 1811POPC   GL127253   5.162   1.840   9.193
 1811POPC   GL227254   5.442   1.612   9.113
 1811POPC   C1A27255   5.068   1.995   8.757
 1811POPC   D2A27256   5.262   2.184   8.353
 1811POPC   C3A27257   5.173   2.040   7.958
 1811POPC   C4A27258   5.053   1.827   7.592
 1811POPC   C1B27259   5.501   1.771   8.721
 1811POPC   C2B27260   5.440   1.701   8.259
 1811POPC   C3B27261   5.521   1.695   7.800
 1811POPC   C4B27262   5.508   1.771   7.345
 1812POPC   NC327263  16.630  17.035   9.688
 1812POPC   PO427264  16.766  16.350   9.640
 1812POPC   GL127265  16.718  16.614   9.283
 1812POPC   GL227266  16.987  16.847   9.268
 1812POPC   C1A27267  16.513  16.630   8.873
 1812POPC   D2A27268  16.493  17.035   8.685
 1812POPC   C3A27269  16.588  17.035   8.263
 1812POPC   C4A27270  16.432  16.865   7.900
 1812POPC   C1B27271  17.009  16.717   8.826
 1812POPC   C2B27272  17.061  16.871   8.412
 1812POPC   C3B27273  17.029  17.068   8.009
 1812POPC   C4B27274  16.909  16.864   7.648
 1813POPC   NC327275  23.090  22.570  10.058
 1813POPC   PO427276  22.969  22.878   9.471
 1813POPC   GL127277  23.059  22.925   9.085
 1813POPC   GL227278  22.763  23.113   9.039
 1813POPC   C1A27279  23.026  22.933   8.645
 1813POPC   D2A27280  22.909  22.989   8.231
 1813POPC   C3A27281  23.079  22.707   7.941
 1813POPC   C4A27282  23.151  23.057   7.704
 1813POPC   C1B27283  22.408  23.106   8.771
 1813POPC   C2B27284  22.417  22.892   8.405
 1813POPC   C3B27285  22.428  23.038   8.018
 1813POPC   C4B27286  22.653  22.925   7.684
 1814POPC   NC327287  33.927  21.875   9.498
 1814POPC   PO427288  34.056  22.544   9.418
 1814POPC   GL127289  33.810  22.434   9.045
 1814POPC   GL227290  33.758  22.069   9.018
 1814POPC   C1A27291  33.859  22.382   8.611
 1814POPC   D2A27292  33.769  22.007   8.392
 1814POPC   C3A27293  33.942  22.003   7.977
 1814POPC   C4A27294  33.765  21.996   7.544
 1814POPC   C1B27295  33.390  22.263   8.776
 1814POPC   C2B27296  33.240  22.241   8.348
 1814POPC   C3B27297  33.533  22.314   8.005
 1814POPC   C4B27298  33.496  22.450   7.612
 1815POPC   NC327299  24.500  32.770   9.527
 1815POPC   PO427300  24.286  33.459   9.528
 1815POPC   GL127301  24.444  33.196   9.190
 1815POPC   GL227302  24.165  33.011   9.153
 1815POPC   C1A27303  24.472  33.049   8.736
 1815POPC   D2A27304  24.682  33.141   8.342
 1815POPC   C3A27305  24.546  33.265   7.936
 1815POPC   C4A27306  24.696  32.897   7.691
 1815POPC   C1B27307  24.061  32.746   8.784
 1815POPC   C2B27308  24.097  32.798   8.364
 1815POPC   C3B27309  24.247  32.861   7.950
 1815POPC   C4B27310  24.048  33.082   7.622
 1816POPC   NC327311   7.285   1.275   9.560
 1816POPC   PO427312   7.731   0.792   9.430
 1816POPC   GL127313   7.582   1.139   9.140
 1816POPC   GL227314   7.199   1.283   9.071
 1816POPC   C1A27315   7.548   1.269   8.719
 1816POPC   D2A27316   7.307   1.401   8.384
 1816POPC   C3A27317   7.555   1.385   8.065
 1816POPC   C4A27318   7.672   1.260   7.661
 1816POPC   C1B27319   7.219   1.682   8.816
 1816POPC   C2B27320   7.089   1.873   8.408
 1816POPC   C3B27321   7.044   1.669   7.986
 1816POPC   C4B27322   7.182   1.305   7.706
 1817POPC   NC327323  15.791  44.918   9.480
 1817POPC   PO427324  16.328  44.454   9.487
 1817POPC   GL127325  15.990  44.528   9.173
 1817POPC   GL227326  15.985  44.867   9.027
 1817POPC   C1A27327  15.818  44.339   8.809
 1817POPC   D2A27328  15.976  44.311   8.381
 1817POPC   C3A27329  15.761  44.354   7.979
 1817POPC   C4A27330  15.763  44.727   7.705
 1817POPC   C1B27331  15.805  44.817   8.660
 1817POPC   C2B27332  15.706  44.818   8.259
 1817POPC   C3B27333  15.581   0.124   7.944
 1817POPC   C4B27334  15.984   0.179   7.703
 1818POPC   NC327335  23.379  17.872   9.387
 1818POPC   PO427336  23.784  17.457   9.589
 1818POPC   GL127337  23.832  17.584   9.191
 1818POPC   GL227338  23.513  17.512   9.076
 1818POPC   C1A27339  23.933  17.426   8.777
 1818POPC   D2A27340  23.691  17.365   8.392
 1818POPC   C3A27341  23.964  17.255   8.067
 1818POPC   C4A27342  24.040  17.541   7.747
 1818POPC   C1B27343  23.600  17.835   8.753
 1818POPC   C2B27344  23.456  17.876   8.339
 1818POPC   C3B27345  23.361  17.574   8.041
 1818POPC   C4B27346  23.573  17.366   7.719
 1819POPC   NC327347  15.058   0.218   9.608
 1819POPC   PO427348  15.153   0.832   9.395
 1819POPC   GL127349  15.264   0.466   9.154
 1819POPC   GL227350  14.987   0.190   9.107
 1819POPC   C1A27351  15.284   0.558   8.707
 1819POPC   D2A27352  15.036   0.491   8.319
 1819POPC   C3A27353  15.274   0.548   7.933
 1819POPC   C4A27354  15.457   0.639   7.531
 1819POPC   C1B27355  15.308   0.062   8.808
 1819POPC   C2B27356  15.237   0.004   8.360
 1819POPC   C3B27357  15.051   0.073   7.937
 1819POPC   C4B27358  15.086   0.269   7.528
 1820POPC   NC327359  31.903   3.967   9.486
 1820POPC   PO427360  32.427   4.371   9.359
 1820POPC   GL127361  32.105   4.412   9.072
 1820POPC   GL227362  31.871   4.159   9.040
 1820POPC   C1A27363  32.141   4.340   8.631
 1820POPC   D2A27364  32.418   4.508   8.385
 1820POPC   C3A27365  32.474   4.361   8.000
 1820POPC   C4A27366  32.325   4.660   7.720
 1820POPC   C1B27367  31.656   4.217   8.714
 1820POPC   C2B27368  31.739   4.121   8.317
 1820POPC   C3B27369  31.970   4.380   8.088
 1820POPC   C4B27370  31.883   4.432   7.692
 1821POPC   NC327371  17.308   3.702   9.512
 1821POPC   PO427372  17.829   3.262   9.447
 1821POPC   GL127373  17.518   3.405   9.159
 1821POPC   GL227374  17.724   3.314   8.918
 1821POPC   C1A27375  17.292   3.486   8.747
 1821POPC   D2A27376  17.429   3.647   8.328
 1821POPC   C3A27377  17.224   3.711   7.934
 1821POPC   C4A27378  17.291   3.375   7.638
 1821POPC   C1B27379  17.801   3.698   8.695
 1821POPC   C2B27380  17.950   3.694   8.247
 1821POPC   C3B27381  17.738   3.619   7.859
 1821POPC   C4B27382  17.580   3.798   7.479
 1822POPC   NC327383   4.198   7.922   9.369
 1822POPC   PO427384   4.035   8.629   9.535
 1822POPC   GL127385   4.233   8.397   9.141
 1822POPC   GL227386   4.568   8.289   9.106
 1822POPC   C1A27387   4.348   8.363   8.650
 1822POPC   D2A27388   4.273   8.533   8.244
 1822POPC   C3A27389   4.159   8.221   7.975
 1822POPC   C4A27390   4.311   8.019   7.655
 1822POPC   C1B27391   4.745   8.053   8.708
 1822POPC   C2B27392   4.587   8.016   8.247
 1822POPC   C3B27393   4.757   7.878   7.826
 1822POPC   C4B27394   4.724   7.995   7.363
 1823POPC   NC327395  43.555   2.661   9.350
 1823POPC   PO427396  44.015   3.150   9.534
 1823POPC   GL127397  43.869   2.983   9.119
 1823POPC   GL227398  43.945   2.642   8.996
 1823POPC   C1A27399  43.867   3.014   8.653
 1823POPC   D2A27400  44.107   2.738   8.435
 1823POPC   C3A27401  43.997   2.785   8.016
 1823POPC   C4A27402  44.151   2.923   7.634
 1823POPC   C1B27403  43.633   2.497   8.674
 1823POPC   C2B27404  43.490   2.544   8.240
 1823POPC   C3B27405  43.621   2.511   7.834
 1823POPC   C4B27406  43.801   2.602   7.463
 1824POPC   NC327407   7.000  22.796   9.421
 1824POPC   PO427408   7.584  23.025   9.166
 1824POPC   GL127409   7.229  23.019   8.986
 1824POPC   GL227410   7.222  22.675   8.982
 1824POPC   C1A27411   7.275  23.039   8.542
 1824POPC   D2A27412   7.074  23.168   8.174
 1824POPC   C3A27413   7.421  23.236   7.905
 1824POPC   C4A27414   7.755  22.951   7.725
 1824POPC   C1B27415   6.954  22.625   8.676
 1824POPC   C2B27416   6.955  22.346   8.351
 1824POPC   C3B27417   7.124  22.499   7.967
 1824POPC   C4B27418   7.030  22.893   7.722
 1825POPC   NC327419  37.393  26.040   9.900
 1825POPC   PO427420  37.792  25.783   9.400
 1825POPC   GL127421  37.700  25.974   9.047
 1825POPC   GL227422  37.928  25.782   8.872
 1825POPC   C1A27423  37.847  26.324   8.802
 1825POPC   D2A27424  37.851  26.529   8.398
 1825POPC   C3A27425  37.598  26.257   8.128
 1825POPC   C4A27426  37.556  26.084   7.733
 1825POPC   C1B27427  37.566  25.645   8.619
 1825POPC   C2B27428  37.581  25.711   8.173
 1825POPC   C3B27429  37.925  25.815   7.945
 1825POPC   C4B27430  37.970  25.716   7.547
 1826POPC   NC327431  40.296  41.852   9.468
 1826POPC   PO427432  39.934  41.329   9.388
 1826POPC   GL127433  40.083  41.565   9.082
 1826POPC   GL227434  40.411  41.505   9.096
 1826POPC   C1A27435  40.181  41.758   8.703
 1826POPC   D2A27436  40.044  41.773   8.292
 1826POPC   C3A27437  39.772  41.413   8.127
 1826POPC   C4A27438  39.633  41.251   7.714
 1826POPC   C1B27439  40.566  41.203   8.810
 1826POPC   C2B27440  40.588  41.091   8.407
 1826POPC   C3B27441  40.271  41.276   8.163
 1826POPC   C4B27442  40.203  41.350   7.755
 1827POPC   NC327443  33.383  42.265   9.367
 1827POPC   PO427444  33.961  42.522   9.592
 1827POPC   GL127445  33.890  42.261   9.167
 1827POPC   GL227446  33.587  42.207   8.935
 1827POPC   C1A27447  34.024  42.249   8.702
 1827POPC   D2A27448  34.260  42.517   8.407
 1827POPC   C3A27449  34.111  42.573   7.970
 1827POPC   C4A27450  34.006  42.252   7.630
 1827POPC   C1B27451  33.571  42.444   8.565
 1827POPC   C2B27452  33.780  42.297   8.232
 1827POPC   C3B27453  33.570  42.185   7.873
 1827POPC   C4B27454  33.450  42.248   7.480
 1828POPC   NC327455  36.578   0.940   9.447
 1828POPC   PO427456  36.942   1.494   9.544
 1828POPC   GL127457  36.775   1.350   9.200
 1828POPC   GL227458  37.057   1.102   9.121
 1828POPC   C1A27459  36.617   1.183   8.822
 1828POPC   D2A27460  36.778   1.074   8.430
 1828POPC   C3A27461  36.687   1.311   8.080
 1828POPC   C4A27462  36.793   1.208   7.672
 1828POPC   C1B27463  37.086   1.436   8.808
 1828POPC   C2B27464  37.013   1.558   8.406
 1828POPC   C3B27465  37.163   1.432   7.993
 1828POPC   C4B27466  37.253   1.460   7.572
 1829POPC   NC327467   9.481   8.479   9.328
 1829POPC   PO427468   9.722   7.870   9.630
 1829POPC   GL127469   9.658   8.023   9.163
 1829POPC   GL227470   9.455   7.731   9.031
 1829POPC   C1A27471   9.729   8.341   8.762
 1829POPC   D2A27472   9.926   8.429   8.361
 1829POPC   C3A27473   9.903   8.211   7.964
 1829POPC   C4A27474  10.013   8.364   7.574
 1829POPC   C1B27475   9.629   7.856   8.671
 1829POPC   C2B27476   9.503   7.998   8.282
 1829POPC   C3B27477   9.604   7.786   7.916
 1829POPC   C4B27478   9.888   7.810   7.625
 1830POPC   NC327479  41.667  28.757   9.436
 1830POPC   PO427480  41.351  29.345   9.475
 1830POPC   GL127481  41.431  29.249   9.075
 1830POPC   GL227482  41.659  29.499   9.050
 1830POPC   C1A27483  41.457  29.162   8.646
 1830POPC   D2A27484  41.263  29.114   8.265
 1830POPC   C3A27485  41.536  29.005   7.945
 1830POPC   C4A27486  41.553  28.647   7.671
 1830POPC   C1B27487  41.887  29.421   8.726
 1830POPC   C2B27488  41.689  29.507   8.348
 1830POPC   C3B27489  41.482  29.520   7.970
 1830POPC   C4B27490  41.688  29.452   7.570
 1831POPC   NC327491  25.696  32.814   9.421
 1831POPC   PO427492  24.977  32.822   9.504
 1831POPC   GL127493  25.112  32.961   9.133
 1831POPC   GL227494  25.401  32.757   9.005
 1831POPC   C1A27495  24.976  33.173   8.767
 1831POPC   D2A27496  25.177  33.007   8.417
 1831POPC   C3A27497  25.090  33.084   8.018
 1831POPC   C4A27498  25.198  32.888   7.657
 1831POPC   C1B27499  25.487  33.167   8.832
 1831POPC   C2B27500  25.593  33.293   8.433
 1831POPC   C3B27501  25.673  33.183   8.034
 1831POPC   C4B27502  25.567  33.217   7.638
 1832POPC   NC327503  38.835  37.136   9.436
 1832POPC   PO427504  38.260  36.673   9.529
 1832POPC   GL127505  38.384  36.983   9.228
 1832POPC   GL227506  38.249  36.759   8.967
 1832POPC   C1A27507  38.497  37.183   8.830
 1832POPC   D2A27508  38.458  36.912   8.461
 1832POPC   C3A27509  38.518  37.092   8.033
 1832POPC   C4A27510  38.200  37.016   7.734
 1832POPC   C1B27511  38.657  36.535   8.885
 1832POPC   C2B27512  38.753  36.385   8.460
 1832POPC   C3B27513  38.553  36.558   8.097
 1832POPC   C4B27514  38.582  36.682   7.680
 1833POPC   NC327515  16.371   0.699   9.251
 1833POPC   PO427516  16.741   0.239   9.629
 1833POPC   GL127517  16.675   0.224   9.179
 1833POPC   GL227518  16.329   0.229   9.085
 1833POPC   C1A27519  16.731   0.450   8.773
 1833POPC   D2A27520  16.945   0.612   8.450
 1833POPC   C3A27521  17.015   0.379   8.110
 1833POPC   C4A27522  16.792   0.377   7.746
 1833POPC   C1B27523  16.380   0.089   8.674
 1833POPC   C2B27524  16.507   0.300   8.282
 1833POPC   C3B27525  16.443   0.041   7.928
 1833POPC   C4B27526  16.435   0.086   7.505
 1834POPC   NC327527  19.090   8.673   9.585
 1834POPC   PO427528  19.412   9.218   9.536
 1834POPC   GL127529  19.152   8.998   9.185
 1834POPC   GL227530  19.057   8.628   9.107
 1834POPC   C1A27531  18.842   9.003   8.839
 1834POPC   D2A27532  18.775   8.807   8.426
 1834POPC   C3A27533  18.931   9.064   8.068
 1834POPC   C4A27534  18.712   9.291   7.769
 1834POPC   C1B27535  19.227   8.648   8.759
 1834POPC   C2B27536  19.101   8.400   8.414
 1834POPC   C3B27537  19.131   8.600   8.012
 1834POPC   C4B27538  19.160   8.777   7.582
 1835POPC   NC327539   2.125  22.332   9.657
 1835POPC   PO427540   2.207  21.722   9.576
 1835POPC   GL127541   2.178  22.051   9.209
 1835POPC   GL227542   1.834  22.119   9.135
 1835POPC   C1A27543   2.148  22.136   8.728
 1835POPC   D2A27544   1.918  22.048   8.313
 1835POPC   C3A27545   2.085  21.953   7.883
 1835POPC   C4A27546   2.184  22.175   7.509
 1835POPC   C1B27547   1.626  22.200   8.717
 1835POPC   C2B27548   1.601  22.450   8.326
 1835POPC   C3B27549   1.751  22.348   7.895
 1835POPC   C4B27550   1.673  22.180   7.473
 1836POPC   NC327551  12.503  13.971   9.566
 1836POPC   PO427552  12.036  13.517   9.633
 1836POPC   GL127553  12.315  13.582   9.237
 1836POPC   GL227554  12.454  13.908   9.056
 1836POPC   C1A27555  12.241  13.530   8.779
 1836POPC   D2A27556  12.462  13.581   8.385
 1836POPC   C3A27557  12.240  13.678   7.983
 1836POPC   C4A27558  11.777  13.636   7.873
 1836POPC   C1B27559  12.303  14.024   8.619
 1836POPC   C2B27560  12.066  14.123   8.211
 1836POPC   C3B27561  11.950  14.129   7.775
 1836POPC   C4B27562  12.117  14.219   7.370
 1837POPC   NC327563   2.383  33.022   9.535
 1837POPC   PO427564   3.014  32.708   9.536
 1837POPC   GL127565   2.815  32.913   9.230
 1837POPC   GL227566   2.515  32.747   9.119
 1837POPC   C1A27567   2.879  33.275   8.956
 1837POPC   D2A27568   2.836  33.414   8.536
 1837POPC   C3A27569   2.929  33.229   8.141
 1837POPC   C4A27570   2.602  33.220   7.839
 1837POPC   C1B27571   2.705  32.842   8.738
 1837POPC   C2B27572   2.575  32.942   8.361
 1837POPC   C3B27573   2.702  32.770   8.012
 1837POPC   C4B27574   2.516  32.598   7.698
 1838POPC   NC327575  38.739  39.443   9.665
 1838POPC   PO427576  38.174  39.159   9.447
 1838POPC   GL127577  38.438  39.278   9.137
 1838POPC   GL227578  38.341  38.955   9.007
 1838POPC   C1A27579  38.298  39.345   8.702
 1838POPC   D2A27580  38.165  39.046   8.376
 1838POPC   C3A27581  38.290  39.299   8.042
 1838POPC   C4A27582  38.418  39.409   7.632
 1838POPC   C1B27583  38.599  38.934   8.644
 1838POPC   C2B27584  38.676  38.894   8.229
 1838POPC   C3B27585  38.524  38.906   7.828
 1838POPC   C4B27586  38.116  38.978   7.679
 1839POPC   NC327587  26.795  36.478   9.776
 1839POPC   PO427588  27.135  36.055   9.365
 1839POPC   GL127589  27.050  36.021   8.977
 1839POPC   GL227590  26.730  35.959   8.977
 1839POPC   C1A27591  27.085  36.334   8.658
 1839POPC   D2A27592  26.889  36.353   8.284
 1839POPC   C3A27593  26.918  35.988   8.024
 1839POPC   C4A27594  26.770  35.823   7.653
 1839POPC   C1B27595  26.571  36.316   8.731
 1839POPC   C2B27596  26.455  36.609   8.401
 1839POPC   C3B27597  26.577  36.629   7.999
 1839POPC   C4B27598  26.418  36.602   7.620
 1840POPC   NC327599  18.111  34.100   9.508
 1840POPC   PO427600  18.542  33.553   9.525
 1840POPC   GL127601  18.185  33.578   9.242
 1840POPC   GL227602  18.182  33.916   9.053
 1840POPC   C1A27603  18.228  33.477   8.824
 1840POPC   D2A27604  18.234  33.783   8.526
 1840POPC   C3A27605  18.264  33.554   8.158
 1840POPC   C4A27606  18.605  33.551   7.838
 1840POPC   C1B27607  18.602  34.094   8.957
 1840POPC   C2B27608  18.710  34.057   8.518
 1840POPC   C3B27609  18.502  34.011   8.131
 1840POPC   C4B27610  18.667  34.185   7.757
 1841POPC   NC327611  24.151  38.983   9.423
 1841POPC   PO427612  24.636  39.394   9.664
 1841POPC   GL127613  24.536  39.271   9.221
 1841POPC   GL227614  24.268  39.485   9.151
 1841POPC   C1A27615  24.579  39.188   8.770
 1841POPC   D2A27616  24.665  38.915   8.401
 1841POPC   C3A27617  24.603  39.189   8.037
 1841POPC   C4A27618  24.891  39.575   7.909
 1841POPC   C1B27619  24.058  39.225   8.817
 1841POPC   C2B27620  24.143  39.057   8.401
 1841POPC   C3B27621  24.049  39.100   7.997
 1841POPC   C4B27622  24.225  39.414   7.772
 1842POPC   NC327623   2.942   8.495   9.302
 1842POPC   PO427624   3.042   7.864   9.467
 1842POPC   GL127625   2.711   7.890   9.149
 1842POPC   GL227626   2.521   8.201   9.156
 1842POPC   C1A27627   2.740   7.974   8.713
 1842POPC   D2A27628   2.990   8.222   8.418
 1842POPC   C3A27629   3.143   7.974   8.075
 1842POPC   C4A27630   2.906   7.763   7.760
 1842POPC   C1B27631   2.560   8.449   8.750
 1842POPC   C2B27632   2.479   8.258   8.355
 1842POPC   C3B27633   2.456   8.194   7.918
 1842POPC   C4B27634   2.530   8.491   7.616
 1843POPC   NC327635  24.771  40.439   9.387
 1843POPC   PO427636  24.112  40.706   9.447
 1843POPC   GL127637  24.199  40.901   9.068
 1843POPC   GL227638  24.559  40.889   9.160
 1843POPC   C1A27639  24.339  40.707   8.716
 1843POPC   D2A27640  24.523  40.628   8.354
 1843POPC   C3A27641  24.351  40.904   8.109
 1843POPC   C4A27642  24.169  40.849   7.737
 1843POPC   C1B27643  24.647  41.087   8.765
 1843POPC   C2B27644  24.786  41.062   8.363
 1843POPC   C3B27645  24.887  40.811   8.055
 1843POPC   C4B27646  24.683  40.864   7.710
 1844POPC   NC327647   9.189  32.857  10.052
 1844POPC   PO427648   9.062  33.295   9.619
 1844POPC   GL127649   8.950  33.064   9.251
 1844POPC   GL227650   8.689  32.832   9.304
 1844POPC   C1A27651   8.902  33.185   8.814
 1844POPC   D2A27652   8.928  33.002   8.405
 1844POPC   C3A27653   9.041  33.112   7.975
 1844POPC   C4A27654   9.315  33.095   7.622
 1844POPC   C1B27655   8.641  32.747   8.838
 1844POPC   C2B27656   8.525  32.691   8.382
 1844POPC   C3B27657   8.687  32.725   7.943
 1844POPC   C4B27658   8.574  32.648   7.524
 1845POPC   NC327659  34.528  22.510   9.422
 1845POPC   PO427660  34.450  21.821   9.539
 1845POPC   GL127661  34.526  22.043   9.140
 1845POPC   GL227662  34.297  22.311   9.016
 1845POPC   C1A27663  34.771  22.188   8.776
 1845POPC   D2A27664  35.067  22.145   8.435
 1845POPC   C3A27665  34.879  22.110   8.042
 1845POPC   C4A27666  34.781  22.164   7.602
 1845POPC   C1B27667  34.223  22.021   8.700
 1845POPC   C2B27668  34.454  22.062   8.328
 1845POPC   C3B27669  34.405  22.297   7.945
 1845POPC   C4B27670  34.297  22.031   7.611
 1846POPC   NC327671  43.311  28.384   9.471
 1846POPC   PO427672  43.697  28.879   9.372
 1846POPC   GL127673  43.576  29.014   8.993
 1846POPC   GL227674  43.784  28.760   8.857
 1846POPC   C1A27675  43.676  29.202   8.597
 1846POPC   D2A27676  43.951  29.247   8.242
 1846POPC   C3A27677  43.719  29.115   7.913
 1846POPC   C4A27678  43.312  29.295   7.828
 1846POPC   C1B27679  44.145  29.008   8.717
 1846POPC   C2B27680  44.396  29.024   8.333
 1846POPC   C3B27681  44.240  28.922   7.912
 1846POPC   C4B27682  43.948  28.781   7.585
 1847POPC   NC327683  38.656  41.172   9.579
 1847POPC   PO427684  38.720  41.862   9.486
 1847POPC   GL127685  38.394  41.701   9.194
 1847POPC   GL227686  38.527  41.361   9.133
 1847POPC   C1A27687  38.252  41.584   8.780
 1847POPC   D2A27688  38.417  41.618   8.382
 1847POPC   C3A27689  38.213  41.785   8.041
 1847POPC   C4A27690  38.375  41.668   7.658
 1847POPC   C1B27691  38.284  41.071   8.887
 1847POPC   C2B27692  38.296  41.127   8.464
 1847POPC   C3B27693  38.229  41.277   8.020
 1847POPC   C4B27694  37.943  41.084   7.735
 1848POPC   NC327695  37.267  28.398   9.681
 1848POPC   PO427696  36.723  28.707   9.396
 1848POPC   GL127697  36.910  28.369   9.146
 1848POPC   GL227698  37.246  28.133   9.116
 1848POPC   C1A27699  36.925  28.482   8.728
 1848POPC   D2A27700  36.685  28.349   8.410
 1848POPC   C3A27701  36.764  28.563   8.048
 1848POPC   C4A27702  36.624  28.445   7.652
 1848POPC   C1B27703  37.227  28.065   8.658
 1848POPC   C2B27704  37.100  28.134   8.212
 1848POPC   C3B27705  37.133  28.293   7.789
 1848POPC   C4B27706  37.322  28.569   7.457
 1849POPC   NC327707  14.072  38.714   9.601
 1849POPC   PO427708  13.743  39.335   9.507
 1849POPC   GL127709  13.665  39.176   9.135
 1849POPC   GL227710  13.829  38.895   9.202
 1849POPC   C1A27711  13.420  39.105   8.772
 1849POPC   D2A27712  13.238  38.950   8.403
 1849POPC   C3A27713  13.440  39.103   8.045
 1849POPC   C4A27714  13.693  39.302   7.727
 1849POPC   C1B27715  13.852  38.821   8.786
 1849POPC   C2B27716  13.856  39.037   8.408
 1849POPC   C3B27717  13.919  38.918   7.998
 1849POPC   C4B27718  13.661  38.717   7.739
 1850POPC   NC327719  17.905  16.517   9.172
 1850POPC   PO427720  18.468  16.732   9.528
 1850POPC   GL127721  18.413  16.778   9.126
 1850POPC   GL227722  18.410  16.432   9.041
 1850POPC   C1A27723  18.278  16.878   8.722
 1850POPC   D2A27724  18.508  16.891   8.340
 1850POPC   C3A27725  18.204  16.902   8.045
 1850POPC   C4A27726  18.142  16.859   7.644
 1850POPC   C1B27727  18.541  16.452   8.616
 1850POPC   C2B27728  18.260  16.443   8.284
 1850POPC   C3B27729  18.097  16.355   7.878
 1850POPC   C4B27730  18.232  16.408   7.441
 1851POPC   NC327731  43.113   6.108   9.535
 1851POPC   PO427732  43.003   5.472   9.500
 1851POPC   GL127733  43.272   5.718   9.148
 1851POPC   GL227734  43.378   6.063   9.104
 1851POPC   C1A27735  43.383   5.792   8.661
 1851POPC   D2A27736  43.391   5.873   8.171
 1851POPC   C3A27737  43.027   5.807   7.910
 1851POPC   C4A27738  42.787   5.487   7.783
 1851POPC   C1B27739  43.559   6.279   8.736
 1851POPC   C2B27740  43.494   6.366   8.255
 1851POPC   C3B27741  43.160   6.313   7.919
 1851POPC   C4B27742  42.915   6.199   7.526
 1852POPC   NC327743   5.431   3.910   9.399
 1852POPC   PO427744   5.102   3.396   9.512
 1852POPC   GL127745   5.148   3.396   9.070
 1852POPC   GL227746   5.494   3.286   9.021
 1852POPC   C1A27747   4.964   3.535   8.639
 1852POPC   D2A27748   4.757   3.732   8.283
 1852POPC   C3A27749   4.793   3.464   7.916
 1852POPC   C4A27750   5.136   3.384   7.686
 1852POPC   C1B27751   5.425   3.702   8.788
 1852POPC   C2B27752   5.307   3.870   8.404
 1852POPC   C3B27753   5.202   3.788   8.007
 1852POPC   C4B27754   5.459   3.781   7.680
 1853POPC   NC327755  42.289  42.846   9.455
 1853POPC   PO427756  42.087  43.497   9.515
 1853POPC   GL127757  42.103  43.218   9.177
 1853POPC   GL227758  42.443  43.279   9.156
 1853POPC   C1A27759  42.144  43.067   8.756
 1853POPC   D2A27760  42.351  43.320   8.436
 1853POPC   C3A27761  42.383  43.184   8.011
 1853POPC   C4A27762  42.193  42.911   7.727
 1853POPC   C1B27763  42.626  43.001   8.860
 1853POPC   C2B27764  42.668  42.904   8.423
 1853POPC   C3B27765  42.599  42.689   8.015
 1853POPC   C4B27766  42.693  42.793   7.604
 1854POPC   NC327767  28.171   6.511   9.356
 1854POPC   PO427768  28.680   6.945   9.570
 1854POPC   GL127769  28.483   6.871   9.186
 1854POPC   GL227770  28.500   6.561   8.968
 1854POPC   C1A27771  28.363   7.025   8.795
 1854POPC   D2A27772  28.105   7.029   8.443
 1854POPC   C3A27773  28.295   6.957   8.056
 1854POPC   C4A27774  28.374   6.947   7.622
 1854POPC   C1B27775  28.100   6.580   8.706
 1854POPC   C2B27776  28.066   6.494   8.267
 1854POPC   C3B27777  28.343   6.466   7.896
 1854POPC   C4B27778  28.138   6.336   7.522
 1855POPC   NC327779  13.331  22.344   9.407
 1855POPC   PO427780  12.673  22.359   9.560
 1855POPC   GL127781  12.895  22.030   9.325
 1855POPC   GL227782  12.924  22.239   9.070
 1855POPC   C1A27783  12.995  21.769   8.932
 1855POPC   D2A27784  12.970  22.010   8.576
 1855POPC   C3A27785  12.966  21.905   8.181
 1855POPC   C4A27786  13.026  22.179   7.840
 1855POPC   C1B27787  12.703  22.423   8.718
 1855POPC   C2B27788  12.869  22.444   8.290
 1855POPC   C3B27789  12.739  22.602   7.897
 1855POPC   C4B27790  12.406  22.541   7.588
 1856POPC   NC327791  15.024  44.408   9.601
 1856POPC   PO427792  15.390  44.910   9.701
 1856POPC   GL127793  15.295  44.756   9.243
 1856POPC   GL227794  14.979  44.575   9.120
 1856POPC   C1A27795  15.359  44.561   8.794
 1856POPC   D2A27796  15.169  44.480   8.371
 1856POPC   C3A27797  15.340  44.646   7.972
 1856POPC   C4A27798  15.259  44.799   7.555
 1856POPC   C1B27799  14.743  44.399   8.739
 1856POPC   C2B27800  14.630  44.444   8.288
 1856POPC   C3B27801  14.869  44.523   7.911
 1856POPC   C4B27802  14.967  44.376   7.481
 1857POPC   NC327803  33.918  41.011   9.777
 1857POPC   PO427804  33.372  41.018   9.510
 1857POPC   GL127805  33.664  40.983   9.163
 1857POPC   GL227806  34.003  40.950   9.269
 1857POPC   C1A27807  33.542  40.969   8.746
 1857POPC   D2A27808  33.419  40.689   8.440
 1857POPC   C3A27809  33.537  40.805   8.016
 1857POPC   C4A27810  33.673  40.506   7.718
 1857POPC   C1B27811  34.044  40.912   8.794
 1857POPC   C2B27812  33.919  40.814   8.375
 1857POPC   C3B27813  34.084  40.745   7.965
 1857POPC   C4B27814  34.349  41.072   7.843
 1858POPC   NC327815   4.138  36.293   9.520
 1858POPC   PO427816   4.796  36.433   9.415
 1858POPC   GL127817   4.521  36.137   9.149
 1858POPC   GL227818   4.173  36.177   9.039
 1858POPC   C1A27819   4.524  35.973   8.717
 1858POPC   D2A27820   4.398  35.875   8.298
 1858POPC   C3A27821   4.451  36.156   7.991
 1858POPC   C4A27822   4.594  36.045   7.612
 1858POPC   C1B27823   3.933  36.089   8.691
 1858POPC   C2B27824   4.009  36.218   8.294
 1858POPC   C3B27825   3.963  36.125   7.866
 1858POPC   C4B27826   4.168  36.398   7.607
 1859POPC   NC327827  20.431   1.897   9.520
 1859POPC   PO427828  21.066   2.099   9.436
 1859POPC   GL127829  20.711   1.998   9.098
 1859POPC   GL227830  20.626   1.653   9.116
 1859POPC   C1A27831  20.419   1.895   8.710
 1859POPC   D2A27832  20.515   1.717   8.253
 1859POPC   C3A27833  20.492   2.017   7.856
 1859POPC   C4A27834  20.492   2.163   7.386
 1859POPC   C1B27835  20.875   1.661   8.712
 1859POPC   C2B27836  20.962   1.501   8.293
 1859POPC   C3B27837  20.931   1.728   7.894
 1859POPC   C4B27838  20.958   2.142   7.653
 1860POPC   NC327839  28.254  22.362   9.581
 1860POPC   PO427840  28.372  21.745   9.467
 1860POPC   GL127841  28.274  22.066   9.180
 1860POPC   GL227842  28.557  22.306   9.148
 1860POPC   C1A27843  28.193  22.233   8.797
 1860POPC   D2A27844  28.321  22.335   8.390
 1860POPC   C3A27845  28.247  22.116   7.994
 1860POPC   C4A27846  28.026  22.277   7.643
 1860POPC   C1B27847  28.725  22.253   8.712
 1860POPC   C2B27848  28.791  22.521   8.326
 1860POPC   C3B27849  28.881  22.326   7.940
 1860POPC   C4B27850  28.915  21.882   7.861
 1861POPC   NC327851  21.476   6.415   9.790
 1861POPC   PO427852  21.156   5.851   9.410
 1861POPC   GL127853  21.344   5.698   9.034
 1861POPC   GL227854  21.543   5.947   9.008
 1861POPC   C1A27855  21.461   5.642   8.615
 1861POPC   D2A27856  21.563   5.773   8.252
 1861POPC   C3A27857  21.361   5.690   7.951
 1861POPC   C4A27858  21.241   5.407   7.710
 1861POPC   C1B27859  21.562   6.183   8.624
 1861POPC   C2B27860  21.870   6.152   8.281
 1861POPC   C3B27861  21.693   6.071   7.859
 1861POPC   C4B27862  21.643   6.124   7.408
 1862POPC   NC327863  11.257  20.863   9.722
 1862POPC   PO427864  10.749  20.481   9.524
 1862POPC   GL127865  11.056  20.617   9.185
 1862POPC   GL227866  11.281  20.935   9.197
 1862POPC   C1A27867  11.366  20.516   8.841
 1862POPC   D2A27868  11.483  20.792   8.469
 1862POPC   C3A27869  11.421  20.647   8.068
 1862POPC   C4A27870  11.555  20.332   7.812
 1862POPC   C1B27871  11.090  20.928   8.765
 1862POPC   C2B27872  10.971  20.877   8.316
 1862POPC   C3B27873  11.066  20.997   7.900
 1862POPC   C4B27874  10.843  21.003   7.510
 1863POPC   NC327875  25.766  17.054   9.424
 1863POPC   PO427876  26.292  16.617   9.530
 1863POPC   GL127877  26.088  16.699   9.158
 1863POPC   GL227878  26.155  17.016   9.090
 1863POPC   C1A27879  26.174  16.619   8.714
 1863POPC   D2A27880  25.857  16.547   8.382
 1863POPC   C3A27881  26.048  16.656   8.005
 1863POPC   C4A27882  26.004  16.477   7.605
 1863POPC   C1B27883  25.799  16.951   8.776
 1863POPC   C2B27884  25.860  17.040   8.362
 1863POPC   C3B27885  25.712  17.027   7.966
 1863POPC   C4B27886  25.934  16.986   7.576
 1864POPC   NC327887  43.923   0.526   9.482
 1864POPC   PO427888  43.841  44.926   9.472
 1864POPC   GL127889  43.625   0.132   9.111
 1864POPC   GL227890  43.592   0.515   9.089
 1864POPC   C1A27891  43.546   0.203   8.676
 1864POPC   D2A27892  43.575   0.495   8.357
 1864POPC   C3A27893  43.783   0.192   8.058
 1864POPC   C4A27894  44.211   0.182   7.869
 1864POPC   C1B27895  43.861   0.680   8.744
 1864POPC   C2B27896  43.973   0.860   8.320
 1864POPC   C3B27897  43.830   0.678   7.944
 1864POPC   C4B27898  43.433   0.514   7.872
 1865POPC   NC327899  33.654  17.953   9.443
 1865POPC   PO427900  33.986  18.602   9.381
 1865POPC   GL127901  33.709  18.363   9.141
 1865POPC   GL227902  33.816  18.038   8.972
 1865POPC   C1A27903  33.454  18.354   8.785
 1865POPC   D2A27904  33.514  18.095   8.469
 1865POPC   C3A27905  33.816  18.181   8.174
 1865POPC   C4A27906  33.650  18.269   7.799
 1865POPC   C1B27907  33.971  18.350   8.674
 1865POPC   C2B27908  34.167  18.538   8.302
 1865POPC   C3B27909  34.162  18.422   7.870
 1865POPC   C4B27910  34.063  18.030   7.688
 1866POPC   NC327911  17.712   9.961   9.327
 1866POPC   PO427912  17.444   9.315   9.424
 1866POPC   GL127913  17.348   9.460   9.061
 1866POPC   GL227914  17.261   9.808   9.004
 1866POPC   C1A27915  17.514   9.469   8.689
 1866POPC   D2A27916  17.297   9.667   8.344
 1866POPC   C3A27917  17.425   9.455   7.987
 1866POPC   C4A27918  17.460   9.522   7.538
 1866POPC   C1B27919  17.539  10.002   8.681
 1866POPC   C2B27920  17.493  10.162   8.248
 1866POPC   C3B27921  17.304   9.948   7.909
 1866POPC   C4B27922  17.164   9.935   7.479
 1867POPC   NC327923  12.410  12.458   9.664
 1867POPC   PO427924  11.936  12.031   9.470
 1867POPC   GL127925  11.926  12.098   9.079
 1867POPC   GL227926  11.784  11.796   9.007
 1867POPC   C1A27927  12.061  12.075   8.658
 1867POPC   D2A27928  11.988  11.899   8.270
 1867POPC   C3A27929  12.251  12.117   7.971
 1867POPC   C4A27930  12.010  12.013   7.634
 1867POPC   C1B27931  11.576  12.108   8.714
 1867POPC   C2B27932  11.720  12.327   8.360
 1867POPC   C3B27933  11.748  12.298   7.943
 1867POPC   C4B27934  11.651  12.379   7.516
 1868POPC   NC327935  17.102  31.689   9.434
 1868POPC   PO427936  16.708  31.177   9.764
 1868POPC   GL127937  16.924  31.166   9.349
 1868POPC   GL227938  16.601  31.172   9.180
 1868POPC   C1A27939  17.000  31.305   8.881
 1868POPC   D2A27940  16.846  31.519   8.472
 1868POPC   C3A27941  17.002  31.496   8.037
 1868POPC   C4A27942  17.128  31.121   7.859
 1868POPC   C1B27943  16.519  31.520   8.880
 1868POPC   C2B27944  16.365  31.661   8.467
 1868POPC   C3B27945  16.482  31.520   8.060
 1868POPC   C4B27946  16.360  31.659   7.661
 1869POPC   NC327947  27.275  32.775   9.725
 1869POPC   PO427948  27.790  33.061   9.517
 1869POPC   GL127949  27.720  32.865   9.179
 1869POPC   GL227950  27.356  32.838   9.183
 1869POPC   C1A27951  27.811  32.996   8.793
 1869POPC   D2A27952  27.584  32.966   8.394
 1869POPC   C3A27953  27.820  33.048   8.032
 1869POPC   C4A27954  27.812  32.923   7.643
 1869POPC   C1B27955  27.318  33.164   8.810
 1869POPC   C2B27956  27.389  33.441   8.445
 1869POPC   C3B27957  27.350  33.289   8.018
 1869POPC   C4B27958  27.588  33.376   7.648
 1870POPC   NC327959  24.440  13.333   9.500
 1870POPC   PO427960  23.978  13.794   9.469
 1870POPC   GL127961  24.376  13.758   9.206
 1870POPC   GL227962  24.411  13.444   9.017
 1870POPC   C1A27963  24.615  13.855   8.793
 1870POPC   D2A27964  24.545  14.015   8.345
 1870POPC   C3A27965  24.546  13.750   8.006
 1870POPC   C4A27966  24.388  13.919   7.601
 1870POPC   C1B27967  24.739  13.336   8.811
 1870POPC   C2B27968  24.732  13.226   8.415
 1870POPC   C3B27969  24.691  13.259   8.009
 1870POPC   C4B27970  24.593  13.441   7.612
 1871POPC   NC327971  10.633  38.445   9.509
 1871POPC   PO427972  10.366  39.055   9.609
 1871POPC   GL127973  10.542  38.842   9.168
 1871POPC   GL227974  10.569  38.424   9.022
 1871POPC   C1A27975  10.490  38.782   8.701
 1871POPC   D2A27976  10.594  38.425   8.414
 1871POPC   C3A27977  10.676  38.653   8.028
 1871POPC   C4A27978  10.547  38.653   7.592
 1871POPC   C1B27979  10.272  38.126   8.800
 1871POPC   C2B27980  10.139  38.039   8.344
 1871POPC   C3B27981  10.326  38.215   7.951
 1871POPC   C4B27982  10.761  38.201   7.798
 1872POPC   NC327983  24.609  30.083   9.561
 1872POPC   PO427984  24.124  29.642   9.536
 1872POPC   GL127985  24.342  29.759   9.181
 1872POPC   GL227986  24.404  30.101   9.109
 1872POPC   C1A27987  24.438  29.751   8.741
 1872POPC   D2A27988  24.238  29.848   8.345
 1872POPC   C3A27989  24.539  29.841   8.028
 1872POPC   C4A27990  24.590  29.661   7.666
 1872POPC   C1B27991  24.619  30.235   8.740
 1872POPC   C2B27992  24.544  30.273   8.333
 1872POPC   C3B27993  24.682  30.307   7.940
 1872POPC   C4B27994  24.492  30.158   7.581
 1873POPC   NC327995   5.786  39.041   9.543
 1873POPC   PO427996   5.384  39.583   9.450
 1873POPC   GL127997   5.608  39.279   9.137
 1873POPC   GL227998   5.467  38.916   9.149
 1873POPC   C1A27999   5.996  39.258   8.851
 1873POPC   D2A28000   6.146  39.297   8.413
 1873POPC   C3A28001   6.221  39.102   8.014
 1873POPC   C4A28002   6.122  39.272   7.611
 1873POPC   C1B28003   5.727  38.839   8.804
 1873POPC   C2B28004   5.859  38.857   8.397
 1873POPC   C3B28005   5.735  39.006   8.019
 1873POPC   C4B28006   5.659  38.998   7.620
 1874POPC   NC328007  30.234  31.759   9.581
 1874POPC   PO428008  30.074  31.096   9.521
 1874POPC   GL128009  29.883  31.460   9.263
 1874POPC   GL228010  29.534  31.437   9.110
 1874POPC   C1A28011  29.882  31.756   8.894
 1874POPC   D2A28012  29.735  31.675   8.474
 1874POPC   C3A28013  29.935  31.709   8.076
 1874POPC   C4A28014  29.792  31.738   7.663
 1874POPC   C1B28015  29.771  31.235   8.746
 1874POPC   C2B28016  29.666  31.200   8.292
 1874POPC   C3B28017  29.797  31.264   7.873
 1874POPC   C4B28018  29.979  31.239   7.457
 1875POPC   NC328019  40.359  26.431   9.157
 1875POPC   PO428020  40.932  26.647   9.502
 1875POPC   GL128021  40.876  26.797   9.127
 1875POPC   GL228022  40.797  26.545   8.969
 1875POPC   C1A28023  41.104  26.837   8.723
 1875POPC   D2A28024  40.913  26.845   8.300
 1875POPC   C3A28025  41.168  26.796   7.932
 1875POPC   C4A28026  41.319  26.998   7.497
 1875POPC   C1B28027  40.592  26.535   8.568
 1875POPC   C2B28028  40.477  26.535   8.157
 1875POPC   C3B28029  40.640  26.415   7.792
 1875POPC   C4B28030  40.882  26.659   7.548
 1876POPC   NC328031   9.925  38.920   9.489
 1876POPC   PO428032   9.548  39.537   9.431
 1876POPC   GL128033   9.640  39.312   9.076
 1876POPC   GL228034   9.596  38.951   9.077
 1876POPC   C1A28035   9.506  39.254   8.672
 1876POPC   D2A28036   9.627  39.336   8.279
 1876POPC   C3A28037   9.368  39.201   7.959
 1876POPC   C4A28038   9.483  39.217   7.509
 1876POPC   C1B28039   9.945  38.973   8.774
 1876POPC   C2B28040  10.061  39.053   8.349
 1876POPC   C3B28041   9.870  39.017   7.929
 1876POPC   C4B28042  10.037  38.806   7.552
 1877POPC   NC328043  13.229   2.696   9.543
 1877POPC   PO428044  12.755   3.022   9.468
 1877POPC   GL128045  12.969   2.856   9.120
 1877POPC   GL228046  13.077   2.532   9.070
 1877POPC   C1A28047  13.065   3.042   8.749
 1877POPC   D2A28048  13.269   2.951   8.389
 1877POPC   C3A28049  12.974   2.746   8.149
 1877POPC   C4A28050  12.849   2.687   7.739
 1877POPC   C1B28051  12.951   2.554   8.647
 1877POPC   C2B28052  12.574   2.469   8.336
 1877POPC   C3B28053  12.594   2.283   7.931
 1877POPC   C4B28054  12.731   2.230   7.487
 1878POPC   NC328055   9.070  24.995   9.508
 1878POPC   PO428056   8.866  25.650   9.651
 1878POPC   GL128057   8.750  25.546   9.216
 1878POPC   GL228058   8.796  25.189   9.116
 1878POPC   C1A28059   8.920  25.542   8.779
 1878POPC   D2A28060   9.098  25.271   8.461
 1878POPC   C3A28061   9.002  25.316   8.044
 1878POPC   C4A28062   9.034  25.378   7.629
 1878POPC   C1B28063   8.725  24.983   8.706
 1878POPC   C2B28064   8.803  24.891   8.242
 1878POPC   C3B28065   8.757  24.960   7.764
 1878POPC   C4B28066   8.756  25.114   7.295
 1879POPC   NC328067  44.333  41.162   9.423
 1879POPC   PO428068  43.955  40.598   9.398
 1879POPC   GL128069  43.961  40.974   9.107
 1879POPC   GL228070  43.681  41.223   9.043
 1879POPC   C1A28071  44.082  40.850   8.713
 1879POPC   D2A28072  43.968  40.521   8.411
 1879POPC   C3A28073  43.914  40.649   7.966
 1879POPC   C4A28074  44.043  40.409   7.592
 1879POPC   C1B28075  43.605  41.017   8.700
 1879POPC   C2B28076  43.800  41.018   8.317
 1879POPC   C3B28077  43.612  41.167   7.983
 1879POPC   C4B28078  43.618  40.991   7.604
 1880POPC   NC328079  15.105  15.923   9.511
 1880POPC   PO428080  15.561  16.302   9.250
 1880POPC   GL128081  15.160  16.128   9.059
 1880POPC   GL228082  15.035  15.743   9.057
 1880POPC   C1A28083  14.872  16.076   8.736
 1880POPC   D2A28084  14.865  16.022   8.325
 1880POPC   C3A28085  15.095  16.346   8.117
 1880POPC   C4A28086  15.163  16.470   7.702
 1880POPC   C1B28087  14.779  15.572   8.706
 1880POPC   C2B28088  14.855  15.503   8.251
 1880POPC   C3B28089  14.983  15.766   7.892
 1880POPC   C4B28090  15.037  15.737   7.432
 1881POPC   NC328091  20.084  17.900   9.828
 1881POPC   PO428092  19.923  17.259   9.463
 1881POPC   GL128093  19.832  17.503   9.108
 1881POPC   GL228094  20.109  17.591   8.893
 1881POPC   C1A28095  19.600  17.494   8.729
 1881POPC   D2A28096  19.838  17.533   8.365
 1881POPC   C3A28097  19.740  17.391   7.943
 1881POPC   C4A28098  20.010  17.465   7.607
 1881POPC   C1B28099  19.838  17.951   8.763
 1881POPC   C2B28100  19.626  18.050   8.407
 1881POPC   C3B28101  19.801  17.933   8.027
 1881POPC   C4B28102  19.887  17.968   7.602
 1882POPC   NC328103  16.968  23.232   9.506
 1882POPC   PO428104  17.578  23.094   9.688
 1882POPC   GL128105  17.469  23.200   9.300
 1882POPC   GL228106  17.689  22.995   9.165
 1882POPC   C1A28107  17.287  23.143   8.856
 1882POPC   D2A28108  17.159  22.898   8.488
 1882POPC   C3A28109  17.264  23.016   8.059
 1882POPC   C4A28110  17.172  23.063   7.626
 1882POPC   C1B28111  17.690  22.796   8.753
 1882POPC   C2B28112  17.677  22.922   8.345
 1882POPC   C3B28113  17.805  22.825   7.950
 1882POPC   C4B28114  17.765  22.866   7.510
 1883POPC   NC328115  40.839  10.354   9.360
 1883POPC   PO428116  40.420  10.055   9.759
 1883POPC   GL128117  40.549   9.913   9.255
 1883POPC   GL228118  40.855   9.967   9.043
 1883POPC   C1A28119  40.558   9.628   8.836
 1883POPC   D2A28120  40.782   9.607   8.417
 1883POPC   C3A28121  40.562   9.742   7.999
 1883POPC   C4A28122  40.487   9.694   7.527
 1883POPC   C1B28123  40.790  10.165   8.667
 1883POPC   C2B28124  40.847  10.084   8.263
 1883POPC   C3B28125  41.087   9.794   8.052
 1883POPC   C4B28126  40.948   9.597   7.707
 1884POPC   NC328127  41.255  13.711   9.498
 1884POPC   PO428128  41.674  13.191   9.691
 1884POPC   GL128129  41.662  13.526   9.283
 1884POPC   GL228130  41.690  13.878   9.156
 1884POPC   C1A28131  41.501  13.517   8.840
 1884POPC   D2A28132  41.675  13.332   8.469
 1884POPC   C3A28133  41.456  13.399   8.105
 1884POPC   C4A28134  41.563  13.555   7.728
 1884POPC   C1B28135  41.419  14.022   8.785
 1884POPC   C2B28136  41.309  13.892   8.349
 1884POPC   C3B28137  41.554  14.013   7.972
 1884POPC   C4B28138  41.911  14.289   7.923
 1885POPC   NC328139  14.820  28.611   9.850
 1885POPC   PO428140  15.260  28.219   9.444
 1885POPC   GL128141  15.318  28.395   9.078
 1885POPC   GL228142  15.394  28.747   9.156
 1885POPC   C1A28143  15.078  28.236   8.744
 1885POPC   D2A28144  15.261  28.032   8.408
 1885POPC   C3A28145  15.406  28.245   8.072
 1885POPC   C4A28146  15.019  28.315   7.835
 1885POPC   C1B28147  15.597  28.730   8.767
 1885POPC   C2B28148  15.321  28.578   8.470
 1885POPC   C3B28149  15.159  28.707   8.098
 1885POPC   C4B28150  15.430  28.685   7.768
 1886POPC   NC328151  11.730  21.079   9.473
 1886POPC   PO428152  12.267  21.509   9.553
 1886POPC   GL128153  12.109  21.434   9.173
 1886POPC   GL228154  12.107  21.787   9.117
 1886POPC   C1A28155  12.120  21.194   8.773
 1886POPC   D2A28156  12.372  21.133   8.399
 1886POPC   C3A28157  12.131  21.269   8.042
 1886POPC   C4A28158  12.196  21.501   7.650
 1886POPC   C1B28159  11.870  21.654   8.767
 1886POPC   C2B28160  12.057  21.663   8.374
 1886POPC   C3B28161  11.951  21.803   7.958
 1886POPC   C4B28162  11.827  21.834   7.505
 1887POPC   NC328163  21.682  32.050   9.549
 1887POPC   PO428164  21.229  32.594   9.543
 1887POPC   GL128165  21.421  32.378   9.239
 1887POPC   GL228166  21.310  32.032   9.187
 1887POPC   C1A28167  21.757  32.509   8.965
 1887POPC   D2A28168  21.843  32.551   8.533
 1887POPC   C3A28169  21.670  32.235   8.269
 1887POPC   C4A28170  21.643  32.240   7.826
 1887POPC   C1B28171  21.336  32.220   8.765
 1887POPC   C2B28172  21.147  32.076   8.397
 1887POPC   C3B28173  21.224  32.041   7.988
 1887POPC   C4B28174  21.274  31.969   7.536
 1888POPC   NC328175  17.258  13.979   9.318
 1888POPC   PO428176  16.797  13.906   9.748
 1888POPC   GL128177  16.742  13.706   9.297
 1888POPC   GL228178  16.401  13.773   9.086
 1888POPC   C1A28179  16.835  13.602   8.854
 1888POPC   D2A28180  17.056  13.443   8.491
 1888POPC   C3A28181  16.839  13.528   8.091
 1888POPC   C4A28182  16.821  13.346   7.672
 1888POPC   C1B28183  16.376  13.671   8.613
 1888POPC   C2B28184  16.301  13.540   8.153
 1888POPC   C3B28185  16.319  13.440   7.695
 1888POPC   C4B28186  16.440  13.670   7.318
 1889POPC   NC328187  32.986   6.412   9.652
 1889POPC   PO428188  33.006   6.922   9.254
 1889POPC   GL128189  32.904   6.528   9.092
 1889POPC   GL228190  33.150   6.418   8.851
 1889POPC   C1A28191  32.672   6.483   8.687
 1889POPC   D2A28192  32.895   6.549   8.290
 1889POPC   C3A28193  32.749   6.735   7.957
 1889POPC   C4A28194  32.638   6.473   7.660
 1889POPC   C1B28195  33.125   6.837   8.636
 1889POPC   C2B28196  33.174   7.029   8.243
 1889POPC   C3B28197  33.259   6.781   7.890
 1889POPC   C4B28198  33.139   6.340   7.842
 1890POPC   NC328199  30.429   2.439   9.690
 1890POPC   PO428200  30.412   3.069   9.411
 1890POPC   GL128201  30.600   2.702   9.212
 1890POPC   GL228202  30.312   2.500   9.168
 1890POPC   C1A28203  30.847   2.737   8.814
 1890POPC   D2A28204  30.719   3.021   8.462
 1890POPC   C3A28205  30.770   2.882   8.045
 1890POPC   C4A28206  30.981   2.623   7.779
 1890POPC   C1B28207  30.454   2.355   8.768
 1890POPC   C2B28208  30.515   2.392   8.329
 1890POPC   C3B28209  30.465   2.510   7.900
 1890POPC   C4B28210  30.159   2.516   7.547
 1891POPC   NC328211   7.111   5.363   9.408
 1891POPC   PO428212   6.476   4.923   9.477
 1891POPC   GL128213   6.595   5.104   9.147
 1891POPC   GL228214   6.453   5.428   9.163
 1891POPC   C1A28215   6.814   5.154   8.791
 1891POPC   D2A28216   6.906   5.349   8.396
 1891POPC   C3A28217   6.823   5.139   8.015
 1891POPC   C4A28218   6.782   5.257   7.619
 1891POPC   C1B28219   6.287   5.287   8.783
 1891POPC   C2B28220   6.450   5.134   8.387
 1891POPC   C3B28221   6.315   5.249   7.963
 1891POPC   C4B28222   6.219   5.127   7.518
 1892POPC   NC328223  21.126  23.899   9.581
 1892POPC   PO428224  21.686  23.539   9.611
 1892POPC   GL128225  21.505  23.747   9.239
 1892POPC   GL228226  21.142  23.702   9.122
 1892POPC   C1A28227  21.502  23.752   8.789
 1892POPC   D2A28228  21.728  23.638   8.428
 1892POPC   C3A28229  21.524  23.486   8.064
 1892POPC   C4A28230  21.543  23.614   7.638
 1892POPC   C1B28231  20.982  23.860   8.742
 1892POPC   C2B28232  21.219  23.826   8.367
 1892POPC   C3B28233  21.275  23.939   7.971
 1892POPC   C4B28234  21.060  23.922   7.622
 1893POPC   NC328235  14.998  11.598   9.466
 1893POPC   PO428236  14.948  10.937   9.414
 1893POPC   GL128237  15.094  11.142   9.023
 1893POPC   GL228238  15.240  11.466   9.044
 1893POPC   C1A28239  15.257  11.236   8.599
 1893POPC   D2A28240  15.069  11.570   8.330
 1893POPC   C3A28241  14.878  11.484   7.926
 1893POPC   C4A28242  15.126  11.374   7.575
 1893POPC   C1B28243  15.525  11.641   8.733
 1893POPC   C2B28244  15.578  11.506   8.283
 1893POPC   C3B28245  15.387  11.702   7.892
 1893POPC   C4B28246  15.435  11.692   7.378
 1894POPC   NC328247  37.308  20.067   9.407
 1894POPC   PO428248  37.979  19.825   9.620
 1894POPC   GL128249  37.955  19.830   9.152
 1894POPC   GL228250  37.609  19.764   9.157
 1894POPC   C1A28251  37.759  19.723   8.700
 1894POPC   D2A28252  37.525  20.017   8.408
 1894POPC   C3A28253  37.775  20.053   8.041
 1894POPC   C4A28254  38.001  19.670   7.893
 1894POPC   C1B28255  37.250  19.692   8.824
 1894POPC   C2B28256  37.184  19.634   8.356
 1894POPC   C3B28257  37.322  19.823   7.941
 1894POPC   C4B28258  37.343  20.239   7.795
 1895POPC   NC328259  17.790  31.910   9.497
 1895POPC   PO428260  17.175  32.229   9.489
 1895POPC   GL128261  17.501  32.243   9.217
 1895POPC   GL228262  17.272  32.196   8.948
 1895POPC   C1A28263  17.761  32.243   8.869
 1895POPC   D2A28264  17.574  32.135   8.486
 1895POPC   C3A28265  17.698  32.336   8.122
 1895POPC   C4A28266  17.594  32.279   7.712
 1895POPC   C1B28267  17.173  31.813   8.748
 1895POPC   C2B28268  17.320  31.720   8.354
 1895POPC   C3B28269  17.299  31.966   7.983
 1895POPC   C4B28270  17.149  31.886   7.554
 1896POPC   NC328271  41.818  38.749   9.491
 1896POPC   PO428272  41.243  38.484   9.711
 1896POPC   GL128273  41.365  38.590   9.239
 1896POPC   GL228274  41.696  38.433   9.105
 1896POPC   C1A28275  41.435  38.765   8.805
 1896POPC   D2A28276  41.344  38.528   8.424
 1896POPC   C3A28277  41.332  38.618   8.001
 1896POPC   C4A28278  41.350  38.216   7.768
 1896POPC   C1B28279  41.766  38.335   8.649
 1896POPC   C2B28280  41.745  38.356   8.177
 1896POPC   C3B28281  41.769  38.545   7.749
 1896POPC   C4B28282  41.770  38.276   7.375
 1897POPC   NC328283  17.547  39.479   9.528
 1897POPC   PO428284  17.893  38.889   9.354
 1897POPC   GL128285  17.654  39.167   9.104
 1897POPC   GL228286  17.328  39.281   9.116
 1897POPC   C1A28287  17.625  39.270   8.688
 1897POPC   D2A28288  17.817  39.363   8.309
 1897POPC   C3A28289  17.599  39.227   7.925
 1897POPC   C4A28290  17.826  39.244   7.539
 1897POPC   C1B28291  17.146  39.518   8.803
 1897POPC   C2B28292  17.232  39.454   8.367
 1897POPC   C3B28293  17.228  39.607   7.957
 1897POPC   C4B28294  17.163  39.353   7.570
 1898POPC   NC328295  22.686  32.744   9.560
 1898POPC   PO428296  23.359  33.056   9.484
 1898POPC   GL128297  23.136  32.818   9.230
 1898POPC   GL228298  22.888  33.023   9.167
 1898POPC   C1A28299  23.174  32.744   8.791
 1898POPC   D2A28300  23.125  32.913   8.377
 1898POPC   C3A28301  23.197  32.646   7.983
 1898POPC   C4A28302  23.043  32.797   7.593
 1898POPC   C1B28303  22.674  32.880   8.819
 1898POPC   C2B28304  22.632  33.106   8.430
 1898POPC   C3B28305  22.713  33.119   7.982
 1898POPC   C4B28306  22.613  33.062   7.529
 1899POPC   NC328307  38.719  22.560   9.571
 1899POPC   PO428308  38.429  21.917   9.551
 1899POPC   GL128309  38.513  22.068   9.148
 1899POPC   GL228310  38.541  22.414   9.109
 1899POPC   C1A28311  38.396  22.088   8.707
 1899POPC   D2A28312  38.672  21.986   8.371
 1899POPC   C3A28313  38.474  22.013   7.992
 1899POPC   C4A28314  38.137  21.953   7.769
 1899POPC   C1B28315  38.474  22.594   8.700
 1899POPC   C2B28316  38.401  22.487   8.240
 1899POPC   C3B28317  38.314  22.479   7.764
 1899POPC   C4B28318  38.215  22.323   7.312
 1900POPC   NC328319  26.017  40.703   9.836
 1900POPC   PO428320  25.998  40.360   9.258
 1900POPC   GL128321  25.936  40.736   9.104
 1900POPC   GL228322  25.606  40.787   9.228
 1900POPC   C1A28323  26.076  40.707   8.677
 1900POPC   D2A28324  26.344  40.721   8.297
 1900POPC   C3A28325  26.268  40.607   7.880
 1900POPC   C4A28326  26.180  40.936   7.631
 1900POPC   C1B28327  25.587  40.864   8.762
 1900POPC   C2B28328  25.749  40.713   8.306
 1900POPC   C3B28329  25.761  40.694   7.857
 1900POPC   C4B28330  25.670  41.040   7.592
 1901POPC   NC328331  11.911  24.236   9.395
 1901POPC   PO428332  12.315  24.869   9.510
 1901POPC   GL128333  12.160  24.693   9.095
 1901POPC   GL228334  12.094  24.331   8.947
 1901POPC   C1A28335  12.067  24.757   8.656
 1901POPC   D2A28336  12.130  24.382   8.406
 1901POPC   C3A28337  12.210  24.479   8.005
 1901POPC   C4A28338  12.161  24.890   7.829
 1901POPC   C1B28339  11.688  24.431   8.749
 1901POPC   C2B28340  11.436  24.611   8.437
 1901POPC   C3B28341  11.704  24.591   8.082
 1901POPC   C4B28342  11.829  24.491   7.673
 1902POPC   NC328343  20.469  14.901   9.556
 1902POPC   PO428344  21.079  15.201   9.438
 1902POPC   GL128345  20.696  15.298   9.214
 1902POPC   GL228346  20.708  14.962   9.116
 1902POPC   C1A28347  20.489  15.308   8.783
 1902POPC   D2A28348  20.356  15.097   8.376
 1902POPC   C3A28349  20.479  15.175   7.948
 1902POPC   C4A28350  20.412  15.181   7.500
 1902POPC   C1B28351  20.911  15.007   8.724
 1902POPC   C2B28352  20.880  15.119   8.311
 1902POPC   C3B28353  20.980  15.344   7.945
 1902POPC   C4B28354  20.923  15.031   7.663
 1903POPC   NC328355   8.036  24.807   9.448
 1903POPC   PO428356   8.272  24.104   9.511
 1903POPC   GL128357   7.990  24.270   9.224
 1903POPC   GL228358   8.264  24.483   9.116
 1903POPC   C1A28359   7.868  24.350   8.801
 1903POPC   D2A28360   7.934  24.611   8.438
 1903POPC   C3A28361   7.959  24.410   8.038
 1903POPC   C4A28362   7.871  24.642   7.659
 1903POPC   C1B28363   8.372  24.573   8.715
 1903POPC   C2B28364   8.483  24.499   8.286
 1903POPC   C3B28365   8.413  24.574   7.836
 1903POPC   C4B28366   8.577  24.632   7.412
 1904POPC   NC328367  14.109   0.536   9.526
 1904POPC   PO428368  14.607   0.099   9.552
 1904POPC   GL128369  14.473   0.346   9.191
 1904POPC   GL228370  14.149   0.231   9.101
 1904POPC   C1A28371  14.500   0.343   8.722
 1904POPC   D2A28372  14.504   0.598   8.333
 1904POPC   C3A28373  14.371   0.399   7.957
 1904POPC   C4A28374  14.568   0.329   7.541
 1904POPC   C1B28375  14.071   0.619   8.827
 1904POPC   C2B28376  14.026   0.783   8.372
 1904POPC   C3B28377  13.979   0.725   7.913
 1904POPC   C4B28378  14.103   0.547   7.519
 1905POPC   NC328379   3.556  30.542   9.908
 1905POPC   PO428380   3.760  30.957   9.383
 1905POPC   GL128381   3.468  30.905   9.072
 1905POPC   GL228382   3.636  30.573   9.038
 1905POPC   C1A28383   3.294  30.993   8.656
 1905POPC   D2A28384   3.463  31.170   8.290
 1905POPC   C3A28385   3.366  30.954   7.900
 1905POPC   C4A28386   3.291  30.671   7.548
 1905POPC   C1B28387   3.771  30.795   8.660
 1905POPC   C2B28388   3.721  30.735   8.214
 1905POPC   C3B28389   3.792  30.661   7.773
 1905POPC   C4B28390   4.052  30.636   7.396
 1906POPC   NC328391  40.596  16.129   9.530
 1906POPC   PO428392  41.160  15.644   9.372
 1906POPC   GL128393  40.942  16.021   9.149
 1906POPC   GL228394  40.554  16.046   9.042
 1906POPC   C1A28395  40.947  16.247   8.797
 1906POPC   D2A28396  40.693  16.199   8.450
 1906POPC   C3A28397  40.894  15.984   8.112
 1906POPC   C4A28398  40.814  16.069   7.693
 1906POPC   C1B28399  40.323  15.861   8.708
 1906POPC   C2B28400  40.428  15.763   8.274
 1906POPC   C3B28401  40.425  15.737   7.814
 1906POPC   C4B28402  40.554  15.758   7.389
 1907POPC   NC328403  21.684  24.743   9.521
 1907POPC   PO428404  22.288  24.329   9.491
 1907POPC   GL128405  21.939  24.420   9.185
 1907POPC   GL228406  21.933  24.813   9.101
 1907POPC   C1A28407  21.835  24.485   8.738
 1907POPC   D2A28408  22.087  24.586   8.392
 1907POPC   C3A28409  21.941  24.570   7.985
 1907POPC   C4A28410  22.218  24.484   7.626
 1907POPC   C1B28411  22.118  25.010   8.755
 1907POPC   C2B28412  22.433  24.953   8.420
 1907POPC   C3B28413  22.455  24.852   7.982
 1907POPC   C4B28414  22.132  24.962   7.724
 1908POPC   NC328415   8.664  10.756   9.551
 1908POPC   PO428416   9.098  10.227   9.657
 1908POPC   GL128417   9.077  10.435   9.274
 1908POPC   GL228418   8.762  10.308   9.180
 1908POPC   C1A28419   9.209  10.432   8.836
 1908POPC   D2A28420   9.066  10.283   8.406
 1908POPC   C3A28421   9.038  10.436   7.982
 1908POPC   C4A28422   9.152  10.791   7.722
 1908POPC   C1B28423   8.690  10.389   8.732
 1908POPC   C2B28424   8.606  10.540   8.273
 1908POPC   C3B28425   8.576  10.540   7.794
 1908POPC   C4B28426   8.838  10.353   7.466
 1909POPC   NC328427   4.666  18.363   9.598
 1909POPC   PO428428   4.226  17.895   9.673
 1909POPC   GL128429   4.128  18.143   9.231
 1909POPC   GL228430   4.417  18.351   9.169
 1909POPC   C1A28431   4.167  18.270   8.743
 1909POPC   D2A28432   4.057  18.435   8.318
 1909POPC   C3A28433   4.297  18.249   7.960
 1909POPC   C4A28434   4.176  17.962   7.636
 1909POPC   C1B28435   4.549  18.598   8.817
 1909POPC   C2B28436   4.552  18.542   8.367
 1909POPC   C3B28437   4.573  18.669   7.935
 1909POPC   C4B28438   4.536  18.591   7.479
 1910POPC   NC328439  14.256   6.839   9.922
 1910POPC   PO428440  14.625   6.370   9.570
 1910POPC   GL128441  14.338   6.548   9.254
 1910POPC   GL228442  14.427   6.917   9.226
 1910POPC   C1A28443  14.221   6.684   8.818
 1910POPC   D2A28444  14.402   6.630   8.434
 1910POPC   C3A28445  14.107   6.603   8.093
 1910POPC   C4A28446  14.164   6.593   7.686
 1910POPC   C1B28447  14.687   6.931   8.808
 1910POPC   C2B28448  14.676   7.061   8.349
 1910POPC   C3B28449  14.618   6.777   7.963
 1910POPC   C4B28450  14.651   6.795   7.477
 1911POPC   NC328451   8.422  21.847   9.372
 1911POPC   PO428452   8.363  21.168   9.733
 1911POPC   GL128453   8.104  21.424   9.327
 1911POPC   GL228454   7.883  21.207   9.148
 1911POPC   C1A28455   8.148  21.565   8.840
 1911POPC   D2A28456   8.362  21.407   8.443
 1911POPC   C3A28457   8.338  21.624   8.053
 1911POPC   C4A28458   8.407  21.608   7.623
 1911POPC   C1B28459   8.065  21.053   8.748
 1911POPC   C2B28460   8.115  20.938   8.330
 1911POPC   C3B28461   8.196  21.128   7.935
 1911POPC   C4B28462   8.525  21.137   7.611
 1912POPC   NC328463  41.110  16.056   9.620
 1912POPC   PO428464  41.750  15.963   9.674
 1912POPC   GL128465  41.629  16.053   9.258
 1912POPC   GL228466  41.884  15.790   9.181
 1912POPC   C1A28467  41.447  16.221   8.847
 1912POPC   D2A28468  41.647  16.195   8.433
 1912POPC   C3A28469  41.447  16.213   8.035
 1912POPC   C4A28470  41.291  15.913   7.744
 1912POPC   C1B28471  41.604  15.747   8.819
 1912POPC   C2B28472  41.360  15.779   8.436
 1912POPC   C3B28473  41.615  15.732   8.082
 1912POPC   C4B28474  41.775  15.685   7.686
 1913POPC   NC328475  17.343  20.275   9.411
 1913POPC   PO428476  17.794  20.743   9.632
 1913POPC   GL128477  17.659  20.657   9.224
 1913POPC   GL228478  17.338  20.860   9.264
 1913POPC   C1A28479  17.649  20.386   8.805
 1913POPC   D2A28480  17.873  20.417   8.402
 1913POPC   C3A28481  17.698  20.660   8.070
 1913POPC   C4A28482  17.323  20.521   7.904
 1913POPC   C1B28483  17.456  20.853   8.809
 1913POPC   C2B28484  17.273  20.650   8.428
 1913POPC   C3B28485  17.060  20.891   8.113
 1913POPC   C4B28486  17.332  21.090   7.843
 1914POPC   NC328487  32.431  33.017   9.490
 1914POPC   PO428488  33.099  32.821   9.546
 1914POPC   GL128489  33.347  32.936   9.193
 1914POPC   GL228490  33.233  33.254   9.202
 1914POPC   C1A28491  33.299  33.026   8.750
 1914POPC   D2A28492  33.336  32.948   8.322
 1914POPC   C3A28493  33.014  32.725   8.103
 1914POPC   C4A28494  32.837  32.896   7.739
 1914POPC   C1B28495  32.866  33.154   8.965
 1914POPC   C2B28496  32.909  33.238   8.514
 1914POPC   C3B28497  32.972  33.245   8.090
 1914POPC   C4B28498  32.629  33.354   7.827
 1915POPC   NC328499  23.236  31.936   9.448
 1915POPC   PO428500  22.981  31.362   9.399
 1915POPC   GL128501  23.080  31.622   9.069
 1915POPC   GL228502  22.859  31.921   9.114
 1915POPC   C1A28503  23.132  31.472   8.655
 1915POPC   D2A28504  22.850  31.346   8.347
 1915POPC   C3A28505  23.048  31.254   7.973
 1915POPC   C4A28506  23.273  31.547   7.742
 1915POPC   C1B28507  22.729  31.810   8.718
 1915POPC   C2B28508  22.665  31.857   8.323
 1915POPC   C3B28509  22.848  31.717   7.973
 1915POPC   C4B28510  22.822  31.803   7.556
 1916POPC   NC328511  14.383  40.352   9.484
 1916POPC   PO428512  14.559  39.670   9.442
 1916POPC   GL128513  14.364  39.949   9.145
 1916POPC   GL228514  14.669  40.124   9.094
 1916POPC   C1A28515  14.011  40.007   8.818
 1916POPC   D2A28516  14.096  39.981   8.375
 1916POPC   C3A28517  14.449  39.750   8.190
 1916POPC   C4A28518  14.298  39.816   7.760
 1916POPC   C1B28519  14.499  40.104   8.675
 1916POPC   C2B28520  14.519  40.244   8.247
 1916POPC   C3B28521  14.418  40.303   7.816
 1916POPC   C4B28522  14.551  40.149   7.423
 1917POPC   NC328523   4.163  23.830   9.488
 1917POPC   PO428524   4.403  24.429   9.643
 1917POPC   GL128525   4.272  24.233   9.152
 1917POPC   GL228526   4.008  23.988   9.030
 1917POPC   C1A28527   4.415  24.344   8.687
 1917POPC   D2A28528   4.375  24.298   8.208
 1917POPC   C3A28529   4.570  24.529   7.825
 1917POPC   C4A28530   4.714  24.676   7.403
 1917POPC   C1B28531   4.045  23.983   8.571
 1917POPC   C2B28532   3.912  24.089   8.156
 1917POPC   C3B28533   4.031  24.329   7.781
 1917POPC   C4B28534   3.861  24.226   7.345
 1918POPC   NC328535   7.294  25.209   9.437
 1918POPC   PO428536   7.961  25.271   9.529
 1918POPC   GL128537   7.751  25.173   9.156
 1918POPC   GL228538   7.644  25.529   9.154
 1918POPC   C1A28539   7.488  25.131   8.750
 1918POPC   D2A28540   7.307  25.341   8.353
 1918POPC   C3A28541   7.279  25.209   7.897
 1918POPC   C4A28542   7.304  25.201   7.425
 1918POPC   C1B28543   7.869  25.467   8.761
 1918POPC   C2B28544   8.067  25.413   8.378
 1918POPC   C3B28545   7.770  25.315   8.071
 1918POPC   C4B28546   7.736  25.125   7.690
 1919POPC   NC328547  31.980   6.361   9.791
 1919POPC   PO428548  32.553   6.534   9.556
 1919POPC   GL128549  32.415   6.454   9.140
 1919POPC   GL228550  32.427   6.781   9.084
 1919POPC   C1A28551  32.145   6.488   8.747
 1919POPC   D2A28552  31.955   6.439   8.326
 1919POPC   C3A28553  32.207   6.544   7.933
 1919POPC   C4A28554  32.166   6.493   7.475
 1919POPC   C1B28555  32.408   6.922   8.711
 1919POPC   C2B28556  32.397   6.814   8.320
 1919POPC   C3B28557  32.298   7.038   7.944
 1919POPC   C4B28558  32.501   6.974   7.577
 1920POPC   NC328559  18.783   3.744   9.495
 1920POPC   PO428560  19.289   3.389   9.652
 1920POPC   GL128561  19.124   3.520   9.189
 1920POPC   GL228562  19.007   3.860   9.055
 1920POPC   C1A28563  19.038   3.319   8.785
 1920POPC   D2A28564  18.875   3.355   8.359
 1920POPC   C3A28565  19.045   3.296   7.953
 1920POPC   C4A28566  18.753   3.576   7.810
 1920POPC   C1B28567  19.018   3.799   8.613
 1920POPC   C2B28568  19.083   3.787   8.148
 1920POPC   C3B28569  19.062   3.993   7.767
 1920POPC   C4B28570  19.371   4.037   7.409
 1921POPC   NC328571  32.365  34.874   9.757
 1921POPC   PO428572  31.893  34.613   9.744
 1921POPC   GL128573  32.197  34.597   9.336
 1921POPC   GL228574  32.466  34.838   9.253
 1921POPC   C1A28575  32.308  34.561   8.838
 1921POPC   D2A28576  32.129  34.437   8.393
 1921POPC   C3A28577  32.259  34.418   7.932
 1921POPC   C4A28578  31.987  34.370   7.543
 1921POPC   C1B28579  32.279  35.069   8.881
 1921POPC   C2B28580  32.202  34.961   8.420
 1921POPC   C3B28581  32.100  34.908   7.949
 1921POPC   C4B28582  32.274  34.796   7.524
 1922POPC   NC328583  38.873  16.150   9.532
 1922POPC   PO428584  39.502  15.966   9.311
 1922POPC   GL128585  39.187  16.147   9.104
 1922POPC   GL228586  38.949  15.888   9.111
 1922POPC   C1A28587  39.236  16.068   8.659
 1922POPC   D2A28588  39.552  16.221   8.369
 1922POPC   C3A28589  39.511  15.928   8.053
 1922POPC   C4A28590  39.385  16.023   7.654
 1922POPC   C1B28591  38.735  16.112   8.812
 1922POPC   C2B28592  38.770  15.951   8.427
 1922POPC   C3B28593  39.015  16.023   8.087
 1922POPC   C4B28594  38.879  16.064   7.669
 1923POPC   NC328595   5.635  26.694   9.566
 1923POPC   PO428596   6.093  27.107   9.538
 1923POPC   GL128597   5.905  27.009   9.167
 1923POPC   GL228598   5.893  26.632   9.086
 1923POPC   C1A28599   5.847  26.991   8.738
 1923POPC   D2A28600   5.808  27.288   8.385
 1923POPC   C3A28601   5.861  27.122   7.945
 1923POPC   C4A28602   5.932  26.713   7.714
 1923POPC   C1B28603   5.839  26.448   8.639
 1923POPC   C2B28604   5.811  26.410   8.145
 1923POPC   C3B28605   5.598  26.336   7.730
 1923POPC   C4B28606   5.608  26.439   7.284
 1924POPC   NC328607  18.774   5.528   9.731
 1924POPC   PO428608  19.276   6.046   9.508
 1924POPC   GL128609  19.024   5.997   9.093
 1924POPC   GL228610  18.951   5.617   8.952
 1924POPC   C1A28611  19.122   5.979   8.675
 1924POPC   D2A28612  19.380   5.823   8.402
 1924POPC   C3A28613  19.288   6.010   8.015
 1924POPC   C4A28614  18.909   5.991   7.758
 1924POPC   C1B28615  18.743   5.626   8.604
 1924POPC   C2B28616  18.837   5.811   8.242
 1924POPC   C3B28617  18.770   5.531   7.947
 1924POPC   C4B28618  18.940   5.246   7.715
 1925POPC   NC328619  40.208  33.499   9.505
 1925POPC   PO428620  39.869  34.033   9.555
 1925POPC   GL128621  39.942  33.787   9.178
 1925POPC   GL228622  40.324  33.838   9.157
 1925POPC   C1A28623  39.896  33.790   8.725
 1925POPC   D2A28624  39.703  33.768   8.290
 1925POPC   C3A28625  39.915  33.910   7.946
 1925POPC   C4A28626  39.848  33.798   7.499
 1925POPC   C1B28627  40.359  33.604   8.785
 1925POPC   C2B28628  40.191  33.575   8.357
 1925POPC   C3B28629  40.441  33.496   8.015
 1925POPC   C4B28630  40.486  33.219   7.645
 1926POPC   NC328631  17.997  27.916   9.505
 1926POPC   PO428632  18.368  28.525   9.405
 1926POPC   GL128633  18.120  28.547   9.069
 1926POPC   GL228634  18.006  28.228   9.105
 1926POPC   C1A28635  18.182  28.520   8.624
 1926POPC   D2A28636  18.483  28.535   8.350
 1926POPC   C3A28637  18.402  28.342   7.993
 1926POPC   C4A28638  18.046  28.480   7.782
 1926POPC   C1B28639  18.297  28.053   8.782
 1926POPC   C2B28640  18.204  27.999   8.335
 1926POPC   C3B28641  18.058  27.968   7.898
 1926POPC   C4B28642  18.287  28.079   7.539
 1927POPC   NC328643  10.219  23.483   9.490
 1927POPC   PO428644  10.814  23.862   9.472
 1927POPC   GL128645  10.522  23.719   9.135
 1927POPC   GL228646  10.469  23.356   9.066
 1927POPC   C1A28647  10.366  23.974   8.800
 1927POPC   D2A28648  10.098  24.072   8.439
 1927POPC   C3A28649  10.321  23.971   8.068
 1927POPC   C4A28650  10.560  23.993   7.707
 1927POPC   C1B28651  10.678  23.453   8.689
 1927POPC   C2B28652  10.514  23.556   8.300
 1927POPC   C3B28653  10.554  23.507   7.864
 1927POPC   C4B28654  10.782  23.216   7.626
 1928POPC   NC328655  24.579   8.719   9.515
 1928POPC   PO428656  24.144   9.217   9.390
 1928POPC   GL128657  24.254   8.879   9.135
 1928POPC   GL228658  24.550   9.027   9.093
 1928POPC   C1A28659  24.116   8.642   8.750
 1928POPC   D2A28660  23.984   8.513   8.307
 1928POPC   C3A28661  24.221   8.741   8.013
 1928POPC   C4A28662  24.538   8.790   7.733
 1928POPC   C1B28663  24.619   8.743   8.780
 1928POPC   C2B28664  24.653   8.763   8.330
 1928POPC   C3B28665  24.817   9.088   8.070
 1928POPC   C4B28666  24.985   9.527   7.879
 1929POPC   NC328667  43.057   8.843   9.557
 1929POPC   PO428668  43.150   9.489   9.635
 1929POPC   GL128669  43.076   9.258   9.226
 1929POPC   GL228670  43.416   9.094   9.137
 1929POPC   C1A28671  43.144   9.309   8.753
 1929POPC   D2A28672  43.220   8.919   8.505
 1929POPC   C3A28673  43.044   8.832   8.081
 1929POPC   C4A28674  43.006   8.910   7.652
 1929POPC   C1B28675  43.639   9.194   8.703
 1929POPC   C2B28676  43.553   9.181   8.238
 1929POPC   C3B28677  43.277   9.271   7.920
 1929POPC   C4B28678  43.408   9.368   7.489
 1930POPC   NC328679  27.131   9.751   9.536
 1930POPC   PO428680  27.840   9.500   9.485
 1930POPC   GL128681  27.764   9.687   9.081
 1930POPC   GL228682  27.530   9.895   9.212
 1930POPC   C1A28683  27.425   9.617   8.746
 1930POPC   D2A28684  27.391   9.631   8.278
 1930POPC   C3A28685  27.710   9.516   7.959
 1930POPC   C4A28686  27.555   9.386   7.511
 1930POPC   C1B28687  27.424  10.104   8.800
 1930POPC   C2B28688  27.298  10.166   8.386
 1930POPC   C3B28689  27.408  10.103   8.008
 1930POPC   C4B28690  27.408   9.827   7.694
 1931POPC   NC328691   2.524  11.749   9.382
 1931POPC   PO428692   2.657  12.353   9.664
 1931POPC   GL128693   2.902  12.308   9.260
 1931POPC   GL228694   2.984  11.962   9.229
 1931POPC   C1A28695   2.832  12.258   8.818
 1931POPC   D2A28696   3.093  12.118   8.469
 1931POPC   C3A28697   3.063  12.331   8.080
 1931POPC   C4A28698   2.855  12.233   7.702
 1931POPC   C1B28699   2.930  11.766   8.839
 1931POPC   C2B28700   2.669  11.809   8.469
 1931POPC   C3B28701   2.756  11.903   8.074
 1931POPC   C4B28702   2.566  11.815   7.694
 1932POPC   NC328703  18.619   9.529   9.376
 1932POPC   PO428704  18.141   9.980   9.468
 1932POPC   GL128705  18.199   9.713   9.140
 1932POPC   GL228706  17.872   9.519   9.106
 1932POPC   C1A28707  18.496   9.763   8.769
 1932POPC   D2A28708  18.319   9.796   8.358
 1932POPC   C3A28709  18.497   9.747   7.967
 1932POPC   C4A28710  18.489  10.138   7.694
 1932POPC   C1B28711  18.026   9.530   8.696
 1932POPC   C2B28712  17.813   9.677   8.337
 1932POPC   C3B28713  17.797   9.835   7.959
 1932POPC   C4B28714  18.082   9.739   7.663
 1933POPC   NC328715  19.231  10.317   9.449
 1933POPC   PO428716  18.737  10.680   9.704
 1933POPC   GL128717  18.817  10.465   9.224
 1933POPC   GL228718  19.132  10.566   9.021
 1933POPC   C1A28719  18.852  10.215   8.809
 1933POPC   D2A28720  18.997  10.515   8.480
 1933POPC   C3A28721  19.057  10.519   8.025
 1933POPC   C4A28722  18.857  10.517   7.611
 1933POPC   C1B28723  19.335  10.855   8.741
 1933POPC   C2B28724  19.364  10.905   8.309
 1933POPC   C3B28725  19.542  10.749   7.939
 1933POPC   C4B28726  19.356  10.628   7.579
 1934POPC   NC328727  19.977  39.083   9.676
 1934POPC   PO428728  19.528  39.461   9.488
 1934POPC   GL128729  19.873  39.311   9.208
 1934POPC   GL228730  19.959  38.962   9.169
 1934POPC   C1A28731  19.871  39.256   8.751
 1934POPC   D2A28732  20.048  39.129   8.341
 1934POPC   C3A28733  19.824  39.269   7.944
 1934POPC   C4A28734  19.778  39.345   7.449
 1934POPC   C1B28735  20.104  38.789   8.767
 1934POPC   C2B28736  20.072  38.587   8.361
 1934POPC   C3B28737  19.881  38.763   7.994
 1934POPC   C4B28738  19.905  38.870   7.529
 1935POPC   NC328739  38.844  13.593   9.499
 1935POPC   PO428740  38.172  13.848   9.576
 1935POPC   GL128741  38.429  13.690   9.211
 1935POPC   GL228742  38.769  13.860   9.083
 1935POPC   C1A28743  38.446  13.366   8.902
 1935POPC   D2A28744  38.489  13.258   8.472
 1935POPC   C3A28745  38.471  13.460   8.085
 1935POPC   C4A28746  38.791  13.487   7.771
 1935POPC   C1B28747  38.634  13.792   8.683
 1935POPC   C2B28748  38.660  13.975   8.303
 1935POPC   C3B28749  38.667  13.954   7.918
 1935POPC   C4B28750  38.384  13.799   7.699
 1936POPC   NC328751  29.153   7.875   9.508
 1936POPC   PO428752  29.061   8.573   9.503
 1936POPC   GL128753  29.167   8.330   9.154
 1936POPC   GL228754  28.853   8.325   8.971
 1936POPC   C1A28755  29.428   8.332   8.761
 1936POPC   D2A28756  29.464   8.094   8.362
 1936POPC   C3A28757  29.315   8.192   7.967
 1936POPC   C4A28758  29.005   8.184   7.672
 1936POPC   C1B28759  28.979   8.173   8.567
 1936POPC   C2B28760  28.848   8.092   8.160
 1936POPC   C3B28761  28.965   7.743   7.909
 1936POPC   C4B28762  28.860   7.731   7.465
 1937POPC   NC328763  43.830   8.314   9.553
 1937POPC   PO428764  43.600   7.687   9.321
 1937POPC   GL128765  43.914   7.916   9.122
 1937POPC   GL228766  43.979   8.262   9.059
 1937POPC   C1A28767  44.034   7.916   8.684
 1937POPC   D2A28768  43.978   8.274   8.377
 1937POPC   C3A28769  43.930   8.104   7.964
 1937POPC   C4A28770  43.779   7.688   7.850
 1937POPC   C1B28771  44.309   8.345   8.748
 1937POPC   C2B28772  44.444   8.566   8.399
 1937POPC   C3B28773  44.312   8.430   8.016
 1937POPC   C4B28774  44.385   8.264   7.608
 1938POPC   NC328775  44.153  32.009   9.398
 1938POPC   PO428776  43.623  32.454   9.582
 1938POPC   GL128777  43.769  32.280   9.216
 1938POPC   GL228778  43.964  32.566   9.143
 1938POPC   C1A28779  43.962  32.215   8.806
 1938POPC   D2A28780  44.133  32.373   8.470
 1938POPC   C3A28781  44.019  32.045   8.195
 1938POPC   C4A28782  44.049  32.081   7.768
 1938POPC   C1B28783  43.574  32.566   8.845
 1938POPC   C2B28784  43.661  32.529   8.402
 1938POPC   C3B28785  43.939  32.569   8.039
 1938POPC   C4B28786  43.793  32.587   7.627
 1939POPC   NC328787  38.157  10.717   9.456
 1939POPC   PO428788  38.664  10.325   9.403
 1939POPC   GL128789  38.507  10.613   9.104
 1939POPC   GL228790  38.209  10.450   9.023
 1939POPC   C1A28791  38.491  10.740   8.677
 1939POPC   D2A28792  38.828  10.719   8.359
 1939POPC   C3A28793  38.565  10.727   8.043
 1939POPC   C4A28794  38.432  10.652   7.657
 1939POPC   C1B28795  37.988  10.540   8.667
 1939POPC   C2B28796  38.161  10.511   8.291
 1939POPC   C3B28797  38.269  10.278   7.969
 1939POPC   C4B28798  38.070  10.300   7.576
 1940POPC   NC328799   9.886  24.821   9.558
 1940POPC   PO428800   9.913  24.101   9.512
 1940POPC   GL128801   9.744  24.428   9.202
 1940POPC   GL228802   9.424  24.327   9.006
 1940POPC   C1A28803   9.729  24.732   8.850
 1940POPC   D2A28804   9.958  24.887   8.464
 1940POPC   C3A28805   9.869  24.721   8.034
 1940POPC   C4A28806  10.034  24.785   7.607
 1940POPC   C1B28807   9.683  24.247   8.702
 1940POPC   C2B28808   9.583  24.471   8.369
 1940POPC   C3B28809   9.406  24.407   7.969
 1940POPC   C4B28810   9.572  24.600   7.626
 1941POPC   NC328811  17.930   9.177   9.480
 1941POPC   PO428812  17.468   8.824   9.659
 1941POPC   GL128813  17.560   8.825   9.214
 1941POPC   GL228814  17.907   8.702   9.172
 1941POPC   C1A28815  17.451   8.772   8.770
 1941POPC   D2A28816  17.390   9.050   8.405
 1941POPC   C3A28817  17.287   8.791   8.077
 1941POPC   C4A28818  17.314   8.541   7.704
 1941POPC   C1B28819  17.884   9.030   8.830
 1941POPC   C2B28820  17.919   9.132   8.378
 1941POPC   C3B28821  17.748   9.032   7.979
 1941POPC   C4B28822  17.425   9.046   7.684
 1942POPC   NC328823  26.700  16.409   9.533
 1942POPC   PO428824  26.705  15.707   9.573
 1942POPC   GL128825  26.800  16.011   9.221
 1942POPC   GL228826  27.063  15.771   9.176
 1942POPC   C1A28827  26.705  16.278   8.801
 1942POPC   D2A28828  26.619  16.475   8.341
 1942POPC   C3A28829  26.790  16.196   7.987
 1942POPC   C4A28830  27.042  15.865   7.754
 1942POPC   C1B28831  26.693  15.638   8.897
 1942POPC   C2B28832  26.543  15.509   8.472
 1942POPC   C3B28833  26.738  15.605   8.082
 1942POPC   C4B28834  26.581  15.519   7.682
 1943POPC   NC328835  14.775  38.246   9.451
 1943POPC   PO428836  15.359  38.512   9.673
 1943POPC   GL128837  15.287  38.423   9.245
 1943POPC   GL228838  15.193  38.749   9.085
 1943POPC   C1A28839  15.196  38.302   8.833
 1943POPC   D2A28840  15.129  38.518   8.509
 1943POPC   C3A28841  14.946  38.286   8.197
 1943POPC   C4A28842  15.032  38.371   7.783
 1943POPC   C1B28843  14.910  38.952   8.769
 1943POPC   C2B28844  14.673  38.755   8.426
 1943POPC   C3B28845  14.636  38.658   7.997
 1943POPC   C4B28846  14.702  38.662   7.548
 1944POPC   NC328847   3.767  40.140   9.363
 1944POPC   PO428848   3.153  39.863   9.534
 1944POPC   GL128849   3.361  39.835   9.125
 1944POPC   GL228850   3.685  39.911   8.918
 1944POPC   C1A28851   3.224  39.900   8.704
 1944POPC   D2A28852   3.266  40.185   8.341
 1944POPC   C3A28853   3.328  40.005   7.953
 1944POPC   C4A28854   3.725  39.916   7.827
 1944POPC   C1B28855   4.015  40.039   8.632
 1944POPC   C2B28856   4.288  40.101   8.281
 1944POPC   C3B28857   4.042  40.321   7.979
 1944POPC   C4B28858   3.619  40.420   7.857
 1945POPC   NC328859  23.535  32.544   9.398
 1945POPC   PO428860  22.888  32.282   9.508
 1945POPC   GL128861  22.829  32.435   9.124
 1945POPC   GL228862  23.197  32.314   9.054
 1945POPC   C1A28863  22.809  32.328   8.704
 1945POPC   D2A28864  22.995  32.256   8.312
 1945POPC   C3A28865  22.739  32.223   7.945
 1945POPC   C4A28866  22.908  32.311   7.545
 1945POPC   C1B28867  23.233  31.984   8.714
 1945POPC   C2B28868  23.248  31.793   8.269
 1945POPC   C3B28869  23.230  32.052   7.872
 1945POPC   C4B28870  23.268  31.971   7.425
 1946POPC   NC328871  36.401  14.176   9.465
 1946POPC   PO428872  35.790  14.392   9.510
 1946POPC   GL128873  36.078  14.479   9.176
 1946POPC   GL228874  36.096  14.176   9.057
 1946POPC   C1A28875  36.364  14.515   8.810
 1946POPC   D2A28876  36.194  14.339   8.442
 1946POPC   C3A28877  36.290  14.443   8.023
 1946POPC   C4A28878  36.088  14.448   7.600
 1946POPC   C1B28879  35.896  13.922   8.739
 1946POPC   C2B28880  36.012  13.858   8.332
 1946POPC   C3B28881  35.821  13.958   7.957
 1946POPC   C4B28882  35.683  13.805   7.578
 1947POPC   NC328883  18.524  10.982   9.393
 1947POPC   PO428884  18.118  11.434   9.666
 1947POPC   GL128885  18.133  11.459   9.217
 1947POPC   GL228886  17.786  11.466   9.135
 1947POPC   C1A28887  18.270  11.215   8.846
 1947POPC   D2A28888  18.440  11.006   8.473
 1947POPC   C3A28889  18.352  11.205   8.089
 1947POPC   C4A28890  18.612  11.067   7.766
 1947POPC   C1B28891  17.885  11.564   8.744
 1947POPC   C2B28892  18.093  11.581   8.347
 1947POPC   C3B28893  17.984  11.735   7.934
 1947POPC   C4B28894  17.931  11.667   7.465
 1948POPC   NC328895  41.593  17.120   9.248
 1948POPC   PO428896  41.143  17.464   9.617
 1948POPC   GL128897  41.325  17.697   9.153
 1948POPC   GL228898  41.657  17.583   9.026
 1948POPC   C1A28899  41.264  17.628   8.657
 1948POPC   D2A28900  41.197  17.211   8.359
 1948POPC   C3A28901  41.437  17.206   7.944
 1948POPC   C4A28902  41.282  17.389   7.543
 1948POPC   C1B28903  42.060  17.472   8.787
 1948POPC   C2B28904  42.069  17.332   8.306
 1948POPC   C3B28905  42.017  17.440   7.835
 1948POPC   C4B28906  42.183  17.445   7.384
 1949POPC   NC328907  35.503  27.896   9.392
 1949POPC   PO428908  35.579  27.197   9.491
 1949POPC   GL128909  35.457  27.458   9.133
 1949POPC   GL228910  35.777  27.696   9.035
 1949POPC   C1A28911  35.245  27.373   8.742
 1949POPC   D2A28912  35.453  27.424   8.341
 1949POPC   C3A28913  35.473  27.212   8.012
 1949POPC   C4A28914  35.289  27.430   7.677
 1949POPC   C1B28915  35.463  27.806   8.726
 1949POPC   C2B28916  35.390  27.922   8.304
 1949POPC   C3B28917  35.240  27.868   7.919
 1949POPC   C4B28918  35.440  27.918   7.513
 1950POPC   NC328919  27.218  39.871   9.396
 1950POPC   PO428920  27.864  40.075   9.448
 1950POPC   GL128921  27.608  40.028   9.095
 1950POPC   GL228922  27.459  40.323   9.110
 1950POPC   C1A28923  27.471  40.057   8.656
 1950POPC   D2A28924  27.337  39.785   8.313
 1950POPC   C3A28925  27.735  39.721   8.117
 1950POPC   C4A28926  27.878  39.768   7.693
 1950POPC   C1B28927  27.129  40.439   8.773
 1950POPC   C2B28928  27.060  40.241   8.366
 1950POPC   C3B28929  27.327  40.284   8.023
 1950POPC   C4B28930  27.376  40.650   7.756
 1951POPC   NC328931  12.353  17.385   9.412
 1951POPC   PO428932  11.828  17.660   9.553
 1951POPC   GL128933  12.055  17.709   9.141
 1951POPC   GL228934  12.264  17.974   9.158
 1951POPC   C1A28935  12.345  17.671   8.734
 1951POPC   D2A28936  12.438  17.459   8.315
 1951POPC   C3A28937  12.242  17.564   7.929
 1951POPC   C4A28938  11.826  17.602   7.704
 1951POPC   C1B28939  11.973  18.027   8.743
 1951POPC   C2B28940  11.956  17.861   8.279
 1951POPC   C3B28941  12.050  18.034   7.841
 1951POPC   C4B28942  11.974  17.991   7.347
 1952POPC   NC328943  35.065  40.237   9.694
 1952POPC   PO428944  35.644  40.013   9.487
 1952POPC   GL128945  35.365  40.250   9.210
 1952POPC   GL228946  35.206  39.980   9.064
 1952POPC   C1A28947  35.393  40.388   8.765
 1952POPC   D2A28948  35.321  40.352   8.294
 1952POPC   C3A28949  35.473  40.058   7.956
 1952POPC   C4A28950  35.562  39.780   7.545
 1952POPC   C1B28951  35.240  39.929   8.595
 1952POPC   C2B28952  35.039  39.884   8.186
 1952POPC   C3B28953  35.071  39.753   7.733
 1952POPC   C4B28954  34.949  39.763   7.286
 1953POPC   NC328955  19.425  17.321   9.388
 1953POPC   PO428956  18.809  17.671   9.490
 1953POPC   GL128957  19.104  17.628   9.152
 1953POPC   GL228958  19.435  17.819   9.209
 1953POPC   C1A28959  19.110  17.313   8.816
 1953POPC   D2A28960  18.851  17.248   8.464
 1953POPC   C3A28961  18.940  17.431   8.078
 1953POPC   C4A28962  19.149  17.435   7.718
 1953POPC   C1B28963  19.319  17.938   8.806
 1953POPC   C2B28964  19.164  17.687   8.489
 1953POPC   C3B28965  19.377  17.672   8.141
 1953POPC   C4B28966  19.412  17.852   7.737
 1954POPC   NC328967  34.525   0.440   9.771
 1954POPC   PO428968  34.235   0.701   9.289
 1954POPC   GL128969  34.683   0.718   9.237
 1954POPC   GL228970  34.730   0.367   9.261
 1954POPC   C1A28971  34.874   0.669   8.823
 1954POPC   D2A28972  34.586   0.533   8.459
 1954POPC   C3A28973  34.623   0.455   7.996
 1954POPC   C4A28974  34.307   0.217   7.741
 1954POPC   C1B28975  34.791   0.166   8.868
 1954POPC   C2B28976  34.934   0.161   8.452
 1954POPC   C3B28977  34.955   0.058   8.073
 1954POPC   C4B28978  34.742  44.966   7.750
 1955POPC   NC328979   5.797   8.318   9.559
 1955POPC   PO428980   5.687   7.656   9.372
 1955POPC   GL128981   5.949   7.983   9.148
 1955POPC   GL228982   5.922   8.366   9.077
 1955POPC   C1A28983   6.154   8.034   8.742
 1955POPC   D2A28984   6.139   8.225   8.340
 1955POPC   C3A28985   5.834   8.035   8.089
 1955POPC   C4A28986   5.550   8.023   7.734
 1955POPC   C1B28987   5.868   8.514   8.669
 1955POPC   C2B28988   5.717   8.528   8.248
 1955POPC   C3B28989   5.759   8.472   7.816
 1955POPC   C4B28990   6.064   8.113   7.653
 1956POPC   NC328991  39.601  30.424   9.408
 1956POPC   PO428992  39.062  30.792   9.549
 1956POPC   GL128993  39.260  30.721   9.176
 1956POPC   GL228994  39.021  30.449   9.120
 1956POPC   C1A28995  39.397  30.584   8.767
 1956POPC   D2A28996  39.393  30.861   8.398
 1956POPC   C3A28997  39.320  30.747   7.976
 1956POPC   C4A28998  39.091  30.882   7.577
 1956POPC   C1B28999  38.893  30.330   8.697
 1956POPC   C2B29000  39.226  30.306   8.366
 1956POPC   C3B29001  39.403  30.240   7.961
 1956POPC   C4B29002  39.146  30.385   7.626
 1957POPC   NC329003  42.645  36.299   9.857
 1957POPC   PO429004  42.517  35.851   9.435
 1957POPC   GL129005  42.490  35.997   9.091
 1957POPC   GL229006  42.451  36.356   9.158
 1957POPC   C1A29007  42.718  35.874   8.715
 1957POPC   D2A29008  42.598  35.677   8.347
 1957POPC   C3A29009  42.377  35.904   8.038
 1957POPC   C4A29010  42.521  35.793   7.630
 1957POPC   C1B29011  42.319  36.249   8.712
 1957POPC   C2B29012  42.072  36.143   8.385
 1957POPC   C3B29013  42.106  36.368   8.019
 1957POPC   C4B29014  42.313  36.274   7.642
 1958POPC   NC329015  35.868  23.079   9.354
 1958POPC   PO429016  36.546  22.871   9.535
 1958POPC   GL129017  36.288  22.882   9.129
 1958POPC   GL229018  36.494  23.085   8.964
 1958POPC   C1A29019  36.080  22.827   8.728
 1958POPC   D2A29020  36.294  22.927   8.357
 1958POPC   C3A29021  36.071  22.966   7.988
 1958POPC   C4A29022  36.189  22.842   7.603
 1958POPC   C1B29023  36.605  23.378   8.694
 1958POPC   C2B29024  36.431  23.434   8.322
 1958POPC   C3B29025  36.484  23.223   7.944
 1958POPC   C4B29026  36.321  23.340   7.528
 1959POPC   NC329027   1.822  10.661   9.697
 1959POPC   PO429028   2.308  10.259   9.464
 1959POPC   GL129029   1.938  10.450   9.221
 1959POPC   GL229030   2.067  10.674   8.969
 1959POPC   C1A29031   1.779  10.298   8.806
 1959POPC   D2A29032   2.002  10.252   8.411
 1959POPC   C3A29033   1.877  10.383   8.025
 1959POPC   C4A29034   1.915  10.419   7.596
 1959POPC   C1B29035   2.355  10.864   8.700
 1959POPC   C2B29036   2.267  10.719   8.322
 1959POPC   C3B29037   2.295  10.970   8.015
 1959POPC   C4B29038   2.071  10.889   7.660
 1960POPC   NC329039  30.040  16.417   9.610
 1960POPC   PO429040  29.771  16.900   9.802
 1960POPC   GL129041  29.867  17.005   9.344
 1960POPC   GL229042  29.985  16.700   9.173
 1960POPC   C1A29043  29.820  17.092   8.877
 1960POPC   D2A29044  29.604  17.003   8.463
 1960POPC   C3A29045  29.844  16.874   8.077
 1960POPC   C4A29046  29.998  17.151   7.749
 1960POPC   C1B29047  29.849  16.574   8.748
 1960POPC   C2B29048  29.995  16.391   8.345
 1960POPC   C3B29049  30.140  16.390   7.911
 1960POPC   C4B29050  30.109  16.679   7.556
 1961POPC   NC329051  17.731   7.718   9.461
 1961POPC   PO429052  17.496   7.129   9.476
 1961POPC   GL129053  17.512   7.379   9.130
 1961POPC   GL229054  17.833   7.360   9.105
 1961POPC   C1A29055  17.530   7.508   8.712
 1961POPC   D2A29056  17.232   7.398   8.423
 1961POPC   C3A29057  17.318   7.255   8.008
 1961POPC   C4A29058  17.486   7.568   7.733
 1961POPC   C1B29059  17.877   7.109   8.762
 1961POPC   C2B29060  17.700   7.159   8.358
 1961POPC   C3B29061  17.840   7.255   7.937
 1961POPC   C4B29062  17.598   7.087   7.581
 1962POPC   NC329063  13.082  28.166   9.436
 1962POPC   PO429064  12.505  28.485   9.396
 1962POPC   GL129065  12.741  28.238   9.061
 1962POPC   GL229066  13.129  28.351   8.974
 1962POPC   C1A29067  12.749  28.363   8.614
 1962POPC   D2A29068  13.115  28.397   8.317
 1962POPC   C3A29069  12.921  28.436   7.874
 1962POPC   C4A29070  12.584  28.531   7.568
 1962POPC   C1B29071  13.070  28.002   8.719
 1962POPC   C2B29072  13.255  27.861   8.378
 1962POPC   C3B29073  13.068  27.976   8.042
 1962POPC   C4B29074  13.185  27.840   7.726
 1963POPC   NC329075  34.473  31.545   9.506
 1963POPC   PO429076  34.625  30.896   9.538
 1963POPC   GL129077  34.542  31.236   9.138
 1963POPC   GL229078  34.758  31.504   9.076
 1963POPC   C1A29079  34.424  31.432   8.712
 1963POPC   D2A29080  34.553  31.616   8.312
 1963POPC   C3A29081  34.826  31.378   8.029
 1963POPC   C4A29082  34.601  31.186   7.673
 1963POPC   C1B29083  34.930  31.639   8.679
 1963POPC   C2B29084  35.016  31.873   8.304
 1963POPC   C3B29085  34.847  31.906   7.898
 1963POPC   C4B29086  34.866  31.607   7.569
 1964POPC   NC329087  22.548  17.631   9.828
 1964POPC   PO429088  23.034  17.542   9.319
 1964POPC   GL129089  22.827  17.527   8.955
 1964POPC   GL229090  23.097  17.434   8.801
 1964POPC   C1A29091  22.457  17.493   8.670
 1964POPC   D2A29092  22.434  17.221   8.324
 1964POPC   C3A29093  22.844  17.315   8.132
 1964POPC   C4A29094  23.054  17.293   7.739
 1964POPC   C1B29095  23.005  17.803   8.577
 1964POPC   C2B29096  22.934  17.847   8.144
 1964POPC   C3B29097  23.095  17.927   7.737
 1964POPC   C4B29098  22.989  18.028   7.296
 1965POPC   NC329099  14.758  27.864   9.473
 1965POPC   PO429100  14.216  27.588   9.475
 1965POPC   GL129101  14.315  27.643   9.073
 1965POPC   GL229102  14.629  27.659   9.041
 1965POPC   C1A29103  14.374  27.436   8.669
 1965POPC   D2A29104  14.350  27.628   8.278
 1965POPC   C3A29105  14.487  27.342   7.971
 1965POPC   C4A29106  14.804  27.486   7.713
 1965POPC   C1B29107  14.468  27.932   8.682
 1965POPC   C2B29108  14.691  28.093   8.314
 1965POPC   C3B29109  14.615  27.943   7.907
 1965POPC   C4B29110  14.241  27.764   7.753
 1966POPC   NC329111  44.063  12.127   9.748
 1966POPC   PO429112  43.457  11.913   9.642
 1966POPC   GL129113  43.820  11.896   9.341
 1966POPC   GL229114  44.005  12.198   9.252
 1966POPC   C1A29115  43.833  11.878   8.875
 1966POPC   D2A29116  43.603  12.046   8.517
 1966POPC   C3A29117  43.735  11.938   8.131
 1966POPC   C4A29118  43.901  11.936   7.754
 1966POPC   C1B29119  44.179  12.270   8.847
 1966POPC   C2B29120  44.168  12.156   8.399
 1966POPC   C3B29121  44.174  12.313   7.943
 1966POPC   C4B29122  44.337  12.430   7.494
 1967POPC   NC329123   9.529  30.384   9.432
 1967POPC   PO429124   8.880  30.201   9.228
 1967POPC   GL129125   8.700  30.515   8.983
 1967POPC   GL229126   8.646  30.834   9.150
 1967POPC   C1A29127   8.847  30.544   8.575
 1967POPC   D2A29128   8.981  30.325   8.219
 1967POPC   C3A29129   8.898  30.562   7.867
 1967POPC   C4A29130   9.204  30.616   7.530
 1967POPC   C1B29131   8.571  30.950   8.707
 1967POPC   C2B29132   8.518  30.906   8.241
 1967POPC   C3B29133   8.666  31.165   7.891
 1967POPC   C4B29134   8.907  31.013   7.545
 1968POPC   NC329135  10.309   0.147   9.771
 1968POPC   PO429136   9.686   0.531   9.518
 1968POPC   GL129137   9.768   0.442   9.047
 1968POPC   GL229138  10.046   0.265   8.910
 1968POPC   C1A29139   9.608   0.174   8.684
 1968POPC   D2A29140   9.522   0.058   8.274
 1968POPC   C3A29141   9.817   0.311   8.011
 1968POPC   C4A29142   9.733   0.457   7.588
 1968POPC   C1B29143  10.180   0.571   8.572
 1968POPC   C2B29144  10.234   0.662   8.099
 1968POPC   C3B29145  10.227   0.431   7.695
 1968POPC   C4B29146  10.123   0.421   7.253
 1969POPC   NC329147  27.546  29.268   9.681
 1969POPC   PO429148  27.970  28.949   9.487
 1969POPC   GL129149  27.553  29.017   9.232
 1969POPC   GL229150  27.442  29.375   9.171
 1969POPC   C1A29151  27.402  29.025   8.782
 1969POPC   D2A29152  27.520  29.208   8.375
 1969POPC   C3A29153  27.268  29.159   7.987
 1969POPC   C4A29154  27.208  28.783   7.710
 1969POPC   C1B29155  27.209  29.516   8.780
 1969POPC   C2B29156  27.213  29.636   8.319
 1969POPC   C3B29157  27.599  29.590   8.058
 1969POPC   C4B29158  27.765  29.246   7.827
 1970POPC   NC329159   8.677  40.915   9.552
 1970POPC   PO429160   9.287  40.559   9.372
 1970POPC   GL129161   8.948  40.760   9.129
 1970POPC   GL229162   8.867  41.107   9.124
 1970POPC   C1A29163   8.740  40.611   8.760
 1970POPC   D2A29164   8.863  40.698   8.360
 1970POPC   C3A29165   8.947  40.484   7.980
 1970POPC   C4A29166   9.304  40.477   7.688
 1970POPC   C1B29167   9.055  41.025   8.713
 1970POPC   C2B29168   8.869  41.207   8.350
 1970POPC   C3B29169   8.973  41.049   7.994
 1970POPC   C4B29170   8.736  40.939   7.709
 1971POPC   NC329171  17.691  24.334   9.435
 1971POPC   PO429172  17.017  24.415   9.456
 1971POPC   GL129173  17.293  24.468   9.100
 1971POPC   GL229174  17.513  24.172   8.958
 1971POPC   C1A29175  17.514  24.685   8.775
 1971POPC   D2A29176  17.463  24.413   8.423
 1971POPC   C3A29177  17.542  24.596   8.021
 1971POPC   C4A29178  17.295  24.504   7.664
 1971POPC   C1B29179  17.884  24.338   8.717
 1971POPC   C2B29180  17.932  24.588   8.400
 1971POPC   C3B29181  17.894  24.251   8.158
 1971POPC   C4B29182  17.926  24.196   7.746
 1972POPC   NC329183   4.023  38.693   9.793
 1972POPC   PO429184   4.532  38.320   9.885
 1972POPC   GL129185   4.332  38.501   9.428
 1972POPC   GL229186   4.553  38.384   9.179
 1972POPC   C1A29187   4.161  38.629   8.953
 1972POPC   D2A29188   4.114  38.450   8.479
 1972POPC   C3A29189   4.281  38.456   8.009
 1972POPC   C4A29190   4.460  38.383   7.592
 1972POPC   C1B29191   4.578  38.371   8.740
 1972POPC   C2B29192   4.582  38.233   8.343
 1972POPC   C3B29193   4.499  38.006   7.968
 1972POPC   C4B29194   4.743  37.943   7.623
 1973POPC   NC329195  20.851   9.805   9.462
 1973POPC   PO429196  20.118   9.579   9.452
 1973POPC   GL129197  20.406   9.711   9.119
 1973POPC   GL229198  20.664   9.491   9.111
 1973POPC   C1A29199  20.624   9.760   8.689
 1973POPC   D2A29200  20.738  10.102   8.418
 1973POPC   C3A29201  20.441  10.088   8.105
 1973POPC   C4A29202  20.509  10.028   7.655
 1973POPC   C1B29203  20.817   9.250   8.754
 1973POPC   C2B29204  20.913   9.334   8.322
 1973POPC   C3B29205  20.734   9.656   8.078
 1973POPC   C4B29206  20.650   9.549   7.676
 1974POPC   NC329207  28.304  27.414   9.559
 1974POPC   PO429208  28.807  27.693   9.519
 1974POPC   GL129209  28.558  27.665   9.148
 1974POPC   GL229210  28.527  27.333   9.066
 1974POPC   C1A29211  28.432  27.732   8.695
 1974POPC   D2A29212  28.524  27.558   8.279
 1974POPC   C3A29213  28.317  27.737   7.929
 1974POPC   C4A29214  28.104  27.997   7.624
 1974POPC   C1B29215  28.349  27.230   8.652
 1974POPC   C2B29216  28.288  27.122   8.198
 1974POPC   C3B29217  28.018  27.316   7.903
 1974POPC   C4B29218  27.898  27.544   7.526
 1975POPC   NC329219  44.809  34.888   9.578
 1975POPC   PO429220  44.721  35.548   9.469
 1975POPC   GL129221  44.686  35.347   9.112
 1975POPC   GL229222  44.960  35.112   9.127
 1975POPC   C1A29223  44.718  35.507   8.698
 1975POPC   D2A29224  44.490  35.628   8.330
 1975POPC   C3A29225  44.698  35.507   7.995
 1975POPC   C4A29226  44.478  35.160   7.811
 1975POPC   C1B29227  44.758  35.006   8.725
 1975POPC   C2B29228  44.730  35.058   8.271
 1975POPC   C3B29229  44.969  35.038   7.867
 1975POPC   C4B29230  44.792  34.909   7.469
 1976POPC   NC329231  30.061   7.943   9.822
 1976POPC   PO429232  29.590   7.606   9.492
 1976POPC   GL129233  29.825   7.532   9.103
 1976POPC   GL229234  30.101   7.302   9.101
 1976POPC   C1A29235  30.019   7.594   8.696
 1976POPC   D2A29236  30.230   7.489   8.338
 1976POPC   C3A29237  29.976   7.483   7.998
 1976POPC   C4A29238  29.889   7.678   7.593
 1976POPC   C1B29239  30.242   7.122   8.722
 1976POPC   C2B29240  30.041   7.013   8.338
 1976POPC   C3B29241  30.180   6.997   7.933
 1976POPC   C4B29242  29.957   7.171   7.608
 1977POPC   NC329243   3.862   9.768   9.662
 1977POPC   PO429244   3.213   9.840   9.533
 1977POPC   GL129245   3.305   9.693   9.147
 1977POPC   GL229246   3.561   9.443   9.142
 1977POPC   C1A29247   3.582   9.882   8.841
 1977POPC   D2A29248   3.730   9.717   8.451
 1977POPC   C3A29249   3.524   9.849   8.091
 1977POPC   C4A29250   3.438  10.012   7.706
 1977POPC   C1B29251   3.355   9.449   8.696
 1977POPC   C2B29252   3.214   9.482   8.242
 1977POPC   C3B29253   3.387   9.468   7.790
 1977POPC   C4B29254   3.465   9.233   7.394
 1978POPC   NC329255  19.323   9.638   9.703
 1978POPC   PO429256  18.821   9.972   9.463
 1978POPC   GL129257  19.080   9.883   9.160
 1978POPC   GL229258  19.148   9.524   9.199
 1978POPC   C1A29259  19.056   9.763   8.733
 1978POPC   D2A29260  19.117  10.004   8.379
 1978POPC   C3A29261  18.818  10.094   8.116
 1978POPC   C4A29262  18.981  10.045   7.716
 1978POPC   C1B29263  19.275   9.310   8.789
 1978POPC   C2B29264  19.318   9.430   8.328
 1978POPC   C3B29265  19.097   9.623   7.972
 1978POPC   C4B29266  19.018   9.583   7.501
 1979POPC   NC329267  12.557  39.375   9.464
 1979POPC   PO429268  11.993  39.050   9.490
 1979POPC   GL129269  12.214  39.187   9.128
 1979POPC   GL229270  12.206  39.569   9.147
 1979POPC   C1A29271  12.238  39.285   8.679
 1979POPC   D2A29272  11.873  39.246   8.374
 1979POPC   C3A29273  12.021  39.081   7.992
 1979POPC   C4A29274  12.444  39.224   7.921
 1979POPC   C1B29275  11.967  39.706   8.783
 1979POPC   C2B29276  12.066  39.730   8.340
 1979POPC   C3B29277  12.050  39.602   7.901
 1979POPC   C4B29278  11.872  39.729   7.487
 1980POPC   NC329279  20.932  31.754   9.508
 1980POPC   PO429280  20.630  31.125   9.514
 1980POPC   GL129281  20.602  31.406   9.122
 1980POPC   GL229282  20.679  31.742   9.076
 1980POPC   C1A29283  20.585  31.280   8.679
 1980POPC   D2A29284  20.254  31.144   8.365
 1980POPC   C3A29285  20.389  31.345   8.010
 1980POPC   C4A29286  20.650  31.448   7.683
 1980POPC   C1B29287  20.462  31.817   8.714
 1980POPC   C2B29288  20.618  31.702   8.336
 1980POPC   C3B29289  20.734  31.894   7.969
 1980POPC   C4B29290  20.726  31.950   7.515
 1981POPC   NC329291  32.641   0.120   9.279
 1981POPC   PO429292  32.358  44.659   9.688
 1981POPC   GL129293  32.475  44.600   9.256
 1981POPC   GL229294  32.152  44.498   9.119
 1981POPC   C1A29295  32.498  44.708   8.786
 1981POPC   D2A29296  32.386  44.839   8.381
 1981POPC   C3A29297  32.373  44.580   8.029
 1981POPC   C4A29298  32.329  44.178   7.902
 1981POPC   C1B29299  32.009  44.593   8.702
 1981POPC   C2B29300  31.908  44.640   8.278
 1981POPC   C3B29301  31.849  44.395   7.938
 1981POPC   C4B29302  32.039  44.573   7.646
 1982POPC   NC329303  14.924   7.092   9.411
 1982POPC   PO429304  15.173   7.749   9.329
 1982POPC   GL129305  15.367   7.453   9.043
 1982POPC   GL229306  15.193   7.123   8.963
 1982POPC   C1A29307  15.423   7.465   8.619
 1982POPC   D2A29308  15.189   7.349   8.281
 1982POPC   C3A29309  15.276   7.600   7.930
 1982POPC   C4A29310  15.672   7.585   7.818
 1982POPC   C1B29311  14.874   7.433   8.802
 1982POPC   C2B29312  14.796   7.630   8.413
 1982POPC   C3B29313  14.784   7.461   8.002
 1982POPC   C4B29314  14.954   7.136   7.738
 1983POPC   NC329315  14.271  19.230   9.385
 1983POPC   PO429316  14.576  18.626   9.522
 1983POPC   GL129317  14.450  18.789   9.121
 1983POPC   GL229318  14.695  19.021   9.027
 1983POPC   C1A29319  14.227  18.979   8.785
 1983POPC   D2A29320  14.243  19.257   8.462
 1983POPC   C3A29321  14.578  19.124   8.175
 1983POPC   C4A29322  14.597  18.909   7.751
 1983POPC   C1B29323  14.703  19.297   8.699
 1983POPC   C2B29324  14.565  19.657   8.462
 1983POPC   C3B29325  14.336  19.620   8.076
 1983POPC   C4B29326  14.587  19.451   7.768
 1984POPC   NC329327  36.321   8.667  10.239
 1984POPC   PO429328  36.089   8.878   9.613
 1984POPC   GL129329  35.909   9.015   9.188
 1984POPC   GL229330  35.825   9.367   9.199
 1984POPC   C1A29331  35.885   8.875   8.736
 1984POPC   D2A29332  36.198   8.910   8.381
 1984POPC   C3A29333  36.220   9.027   7.935
 1984POPC   C4A29334  36.606   8.981   7.688
 1984POPC   C1B29335  35.915   9.385   8.758
 1984POPC   C2B29336  35.810   9.243   8.336
 1984POPC   C3B29337  35.880   9.408   7.920
 1984POPC   C4B29338  36.091   9.336   7.524
 1985POPC   NC329339  13.443   5.855   9.612
 1985POPC   PO429340  13.900   6.352   9.555
 1985POPC   GL129341  13.687   6.109   9.178
 1985POPC   GL229342  13.977   5.938   8.990
 1985POPC   C1A29343  13.542   5.979   8.726
 1985POPC   D2A29344  13.456   6.224   8.315
 1985POPC   C3A29345  13.414   5.942   7.945
 1985POPC   C4A29346  13.689   5.808   7.631
 1985POPC   C1B29347  13.930   5.579   8.678
 1985POPC   C2B29348  13.854   5.585   8.215
 1985POPC   C3B29349  13.951   5.424   7.788
 1985POPC   C4B29350  14.027   5.560   7.339
 1986POPC   NC329351   9.622  25.610   9.521
 1986POPC   PO429352   9.483  24.976   9.734
 1986POPC   GL129353   9.540  25.047   9.253
 1986POPC   GL229354   9.779  25.300   9.141
 1986POPC   C1A29355   9.456  25.149   8.789
 1986POPC   D2A29356   9.611  25.257   8.338
 1986POPC   C3A29357   9.503  25.082   7.890
 1986POPC   C4A29358   9.334  25.020   7.434
 1986POPC   C1B29359   9.767  25.607   8.798
 1986POPC   C2B29360   9.767  25.765   8.375
 1986POPC   C3B29361   9.792  25.579   7.984
 1986POPC   C4B29362   9.541  25.541   7.643
 1987POPC   NC329363   7.639   4.530   9.577
 1987POPC   PO429364   7.235   4.941   9.535
 1987POPC   GL129365   7.266   4.969   9.101
 1987POPC   GL229366   7.452   4.677   9.058
 1987POPC   C1A29367   7.291   5.031   8.651
 1987POPC   D2A29368   7.292   5.083   8.195
 1987POPC   C3A29369   7.292   5.110   7.740
 1987POPC   C4A29370   7.539   5.338   7.427
 1987POPC   C1B29371   7.711   4.733   8.682
 1987POPC   C2B29372   7.763   4.921   8.303
 1987POPC   C3B29373   7.616   4.744   7.929
 1987POPC   C4B29374   7.809   4.933   7.617
 1988POPC   NC329375   6.983   3.904   9.399
 1988POPC   PO429376   6.816   3.270   9.569
 1988POPC   GL129377   6.828   3.483   9.142
 1988POPC   GL229378   6.594   3.756   9.070
 1988POPC   C1A29379   6.865   3.582   8.688
 1988POPC   D2A29380   6.682   3.809   8.329
 1988POPC   C3A29381   6.808   3.700   7.930
 1988POPC   C4A29382   6.713   3.543   7.527
 1988POPC   C1B29383   6.355   3.685   8.684
 1988POPC   C2B29384   6.208   3.496   8.320
 1988POPC   C3B29385   6.338   3.535   7.903
 1988POPC   C4B29386   6.386   3.933   7.650
 1989POPC   NC329387  25.265  26.229   9.507
 1989POPC   PO429388  25.192  25.549   9.293
 1989POPC   GL129389  25.324  25.866   9.025
 1989POPC   GL229390  25.121  26.168   9.040
 1989POPC   C1A29391  25.435  25.841   8.571
 1989POPC   D2A29392  25.519  26.166   8.255
 1989POPC   C3A29393  25.331  26.034   7.895
 1989POPC   C4A29394  25.478  25.653   7.686
 1989POPC   C1B29395  25.327  26.328   8.700
 1989POPC   C2B29396  25.032  26.155   8.422
 1989POPC   C3B29397  24.835  26.173   8.047
 1989POPC   C4B29398  24.928  26.290   7.642
 1990POPC   NC329399  40.486  12.507   9.341
 1990POPC   PO429400  40.785  13.122   9.583
 1990POPC   GL129401  40.710  12.986   9.094
 1990POPC   GL229402  40.377  12.940   9.138
 1990POPC   C1A29403  40.786  12.679   8.715
 1990POPC   D2A29404  41.056  12.558   8.352
 1990POPC   C3A29405  40.880  12.513   7.925
 1990POPC   C4A29406  40.793  12.808   7.561
 1990POPC   C1B29407  40.394  13.005   8.695
 1990POPC   C2B29408  40.621  12.941   8.312
 1990POPC   C3B29409  40.466  12.828   7.951
 1990POPC   C4B29410  40.247  12.966   7.627
 1991POPC   NC329411  18.281   8.517   9.519
 1991POPC   PO429412  18.399   9.120   9.446
 1991POPC   GL129413  18.388   8.887   9.081
 1991POPC   GL229414  18.552   8.528   9.088
 1991POPC   C1A29415  18.366   9.088   8.655
 1991POPC   D2A29416  18.506   9.307   8.283
 1991POPC   C3A29417  18.232   9.242   7.934
 1991POPC   C4A29418  18.160   8.841   7.721
 1991POPC   C1B29419  18.356   8.576   8.691
 1991POPC   C2B29420  18.270   8.695   8.272
 1991POPC   C3B29421  18.589   8.626   7.967
 1991POPC   C4B29422  18.647   8.800   7.574
 1992POPC   NC329423  10.834   2.982   9.375
 1992POPC   PO429424  10.120   2.956   9.491
 1992POPC   GL129425  10.336   2.758   9.171
 1992POPC   GL229426  10.494   2.436   9.279
 1992POPC   C1A29427  10.402   2.923   8.757
 1992POPC   D2A29428  10.250   2.995   8.337
 1992POPC   C3A29429  10.520   2.913   7.974
 1992POPC   C4A29430  10.457   2.844   7.544
 1992POPC   C1B29431  10.514   2.399   8.817
 1992POPC   C2B29432  10.595   2.603   8.402
 1992POPC   C3B29433  10.592   2.420   7.998
 1992POPC   C4B29434  10.778   2.460   7.557
 1993POPC   NC329435  17.004  41.764   9.439
 1993POPC   PO429436  17.463  41.314   9.609
 1993POPC   GL129437  17.403  41.467   9.198
 1993POPC   GL229438  17.258  41.200   9.118
 1993POPC   C1A29439  17.587  41.588   8.778
 1993POPC   D2A29440  17.529  41.873   8.426
 1993POPC   C3A29441  17.521  41.639   8.057
 1993POPC   C4A29442  17.306  41.721   7.681
 1993POPC   C1B29443  17.156  41.290   8.731
 1993POPC   C2B29444  17.313  41.266   8.341
 1993POPC   C3B29445  17.178  41.279   7.911
 1993POPC   C4B29446  17.191  41.253   7.452
 1994POPC   NC329447  20.658  41.914   9.708
 1994POPC   PO429448  20.657  42.577   9.593
 1994POPC   GL129449  20.710  42.398   9.209
 1994POPC   GL229450  20.510  42.105   9.193
 1994POPC   C1A29451  20.835  42.282   8.787
 1994POPC   D2A29452  20.705  42.221   8.365
 1994POPC   C3A29453  20.533  42.438   7.998
 1994POPC   C4A29454  20.758  42.174   7.707
 1994POPC   C1B29455  20.311  42.261   8.792
 1994POPC   C2B29456  20.180  42.289   8.375
 1994POPC   C3B29457  20.295  42.011   8.098
 1994POPC   C4B29458  20.219  42.114   7.725
 1995POPC   NC329459  14.957  24.666   9.281
 1995POPC   PO429460  15.404  24.340   9.631
 1995POPC   GL129461  15.330  24.361   9.155
 1995POPC   GL229462  15.608  24.387   9.052
 1995POPC   C1A29463  15.282  24.607   8.720
 1995POPC   D2A29464  15.307  24.535   8.272
 1995POPC   C3A29465  15.187  24.552   7.836
 1995POPC   C4A29466  14.899  24.271   7.606
 1995POPC   C1B29467  15.525  24.162   8.700
 1995POPC   C2B29468  15.725  24.176   8.329
 1995POPC   C3B29469  15.535  24.139   7.985
 1995POPC   C4B29470  15.376  24.139   7.608
 1996POPC   NC329471  32.276   2.358   9.575
 1996POPC   PO429472  32.393   2.988   9.639
 1996POPC   GL129473  32.262   2.875   9.220
 1996POPC   GL229474  32.128   2.544   9.125
 1996POPC   C1A29475  32.236   2.956   8.780
 1996POPC   D2A29476  32.447   2.981   8.401
 1996POPC   C3A29477  32.260   2.939   8.017
 1996POPC   C4A29478  32.344   2.987   7.572
 1996POPC   C1B29479  32.344   2.441   8.737
 1996POPC   C2B29480  32.614   2.491   8.351
 1996POPC   C3B29481  32.653   2.525   7.932
 1996POPC   C4B29482  32.272   2.495   7.749
 1997POPC   NC329483   5.325  20.773   9.303
 1997POPC   PO429484   5.913  20.582   9.644
 1997POPC   GL129485   5.810  20.560   9.212
 1997POPC   GL229486   5.646  20.293   9.067
 1997POPC   C1A29487   6.007  20.504   8.796
 1997POPC   D2A29488   6.000  20.246   8.443
 1997POPC   C3A29489   6.134  20.568   8.171
 1997POPC   C4A29490   5.943  20.647   7.800
 1997POPC   C1B29491   5.532  20.415   8.669
 1997POPC   C2B29492   5.639  20.564   8.269
 1997POPC   C3B29493   5.508  20.365   7.902
 1997POPC   C4B29494   5.596  20.481   7.476
 1998POPC   NC329495  13.800   7.709   9.733
 1998POPC   PO429496  13.463   7.323   9.350
 1998POPC   GL129497  13.625   7.683   9.133
 1998POPC   GL229498  13.331   7.806   8.985
 1998POPC   C1A29499  13.951   7.635   8.798
 1998POPC   D2A29500  13.855   7.433   8.421
 1998POPC   C3A29501  13.975   7.652   8.068
 1998POPC   C4A29502  13.769   7.570   7.724
 1998POPC   C1B29503  13.451   7.397   8.744
 1998POPC   C2B29504  13.364   7.159   8.432
 1998POPC   C3B29505  13.515   7.250   8.070
 1998POPC   C4B29506  13.371   7.187   7.708
 1999POPC   NC329507  14.136  18.375   9.267
 1999POPC   PO429508  14.535  18.003   9.724
 1999POPC   GL129509  14.620  18.018   9.172
 1999POPC   GL229510  14.304  18.039   8.896
 1999POPC   C1A29511  14.752  18.105   8.717
 1999POPC   D2A29512  14.387  18.087   8.362
 1999POPC   C3A29513  14.500  18.175   7.924
 1999POPC   C4A29514  14.506  18.039   7.475
 1999POPC   C1B29515  14.264  18.473   8.669
 1999POPC   C2B29516  14.052  18.733   8.354
 1999POPC   C3B29517  14.133  18.546   7.974
 1999POPC   C4B29518  14.098  18.291   7.602
 2000POPC   NC329519   7.329  26.444   9.507
 2000POPC   PO429520   7.807  26.984   9.370
 2000POPC   GL129521   7.563  26.698   9.108
 2000POPC   GL229522   7.194  26.725   9.054
 2000POPC   C1A29523   7.554  26.601   8.679
 2000POPC   D2A29524   7.619  26.804   8.297
 2000POPC   C3A29525   7.208  26.894   8.094
 2000POPC   C4A29526   7.224  26.630   7.776
 2000POPC   C1B29527   7.175  27.005   8.626
 2000POPC   C2B29528   7.434  27.275   8.330
 2000POPC   C3B29529   7.620  27.157   7.905
 2000POPC   C4B29530   7.596  27.027   7.472
 2001POPC   NC329531   5.290   9.064   9.904
 2001POPC   PO429532   5.624   8.724   9.377
 2001POPC   GL129533   5.410   8.699   9.046
 2001POPC   GL229534   5.090   8.714   9.220
 2001POPC   C1A29535   5.368   8.626   8.631
 2001POPC   D2A29536   5.150   8.862   8.370
 2001POPC   C3A29537   5.352   8.948   8.022
 2001POPC   C4A29538   5.253   8.764   7.626
 2001POPC   C1B29539   5.028   9.012   8.876
 2001POPC   C2B29540   4.919   9.271   8.551
 2001POPC   C3B29541   4.863   9.241   8.122
 2001POPC   C4B29542   5.037   9.232   7.720
 2002POPC   NC329543  11.526  22.597   9.639
 2002POPC   PO429544  11.242  22.056   9.393
 2002POPC   GL129545  11.391  21.981   9.011
 2002POPC   GL229546  11.566  22.285   9.016
 2002POPC   C1A29547  11.504  21.987   8.599
 2002POPC   D2A29548  11.238  21.999   8.269
 2002POPC   C3A29549  11.436  21.881   7.873
 2002POPC   C4A29550  11.683  22.228   7.795
 2002POPC   C1B29551  11.149  22.325   8.738
 2002POPC   C2B29552  10.801  22.284   8.503
 2002POPC   C3B29553  10.900  22.386   8.095
 2002POPC   C4B29554  11.179  22.303   7.793
 2003POPC   NC329555  18.640  18.856   9.367
 2003POPC   PO429556  19.302  19.066   9.530
 2003POPC   GL129557  19.209  18.904   9.128
 2003POPC   GL229558  18.952  19.149   9.069
 2003POPC   C1A29559  19.222  18.941   8.665
 2003POPC   D2A29560  19.387  19.191   8.360
 2003POPC   C3A29561  19.347  19.052   8.018
 2003POPC   C4A29562  19.209  19.264   7.696
 2003POPC   C1B29563  18.714  18.999   8.710
 2003POPC   C2B29564  18.837  19.146   8.292
 2003POPC   C3B29565  18.733  19.178   7.855
 2003POPC   C4B29566  18.873  18.908   7.488
 2004POPC   NC329567  39.409  14.078   9.676
 2004POPC   PO429568  39.294  13.408   9.501
 2004POPC   GL129569  39.226  13.570   9.117
 2004POPC   GL229570  39.429  13.873   9.054
 2004POPC   C1A29571  38.967  13.409   8.791
 2004POPC   D2A29572  38.915  13.513   8.353
 2004POPC   C3A29573  39.140  13.740   8.078
 2004POPC   C4A29574  39.422  13.892   7.798
 2004POPC   C1B29575  39.354  13.702   8.635
 2004POPC   C2B29576  39.392  13.291   8.477
 2004POPC   C3B29577  39.477  13.349   8.069
 2004POPC   C4B29578  39.627  13.446   7.663
 2005POPC   NC329579  17.582  13.698   9.878
 2005POPC   PO429580  17.276  13.476   9.361
 2005POPC   GL129581  17.594  13.624   9.113
 2005POPC   GL229582  17.328  13.695   8.903
 2005POPC   C1A29583  17.741  13.506   8.701
 2005POPC   D2A29584  17.892  13.722   8.355
 2005POPC   C3A29585  17.712  13.631   7.947
 2005POPC   C4A29586  17.793  13.794   7.514
 2005POPC   C1B29587  17.235  14.004   8.650
 2005POPC   C2B29588  17.352  13.830   8.300
 2005POPC   C3B29589  17.188  13.855   7.955
 2005POPC   C4B29590  17.288  13.805   7.564
 2006POPC   NC329591  24.987   6.481   9.600
 2006POPC   PO429592  25.429   6.997   9.432
 2006POPC   GL129593  25.198   7.003   9.091
 2006POPC   GL229594  25.228   6.638   9.081
 2006POPC   C1A29595  25.317   6.935   8.661
 2006POPC   D2A29596  25.174   6.678   8.348
 2006POPC   C3A29597  25.319   6.765   7.953
 2006POPC   C4A29598  25.045   6.956   7.675
 2006POPC   C1B29599  25.438   6.411   8.713
 2006POPC   C2B29600  25.457   6.270   8.247
 2006POPC   C3B29601  25.113   6.309   7.957
 2006POPC   C4B29602  25.386   6.299   7.671
 2007POPC   NC329603  16.010  21.173   9.539
 2007POPC   PO429604  16.253  21.856   9.502
 2007POPC   GL129605  16.099  21.632   9.117
 2007POPC   GL229606  16.006  21.274   9.060
 2007POPC   C1A29607  15.904  21.578   8.671
 2007POPC   D2A29608  15.574  21.425   8.356
 2007POPC   C3A29609  15.656  21.566   7.925
 2007POPC   C4A29610  16.083  21.724   7.754
 2007POPC   C1B29611  15.743  21.092   8.754
 2007POPC   C2B29612  15.851  21.009   8.333
 2007POPC   C3B29613  16.038  21.179   7.947
 2007POPC   C4B29614  15.899  21.314   7.532
 2008POPC   NC329615  36.427  18.445   9.312
 2008POPC   PO429616  36.132  19.117   9.520
 2008POPC   GL129617  36.131  19.073   9.140
 2008POPC   GL229618  36.029  18.760   9.119
 2008POPC   C1A29619  36.312  19.064   8.766
 2008POPC   D2A29620  36.359  19.217   8.382
 2008POPC   C3A29621  36.307  18.950   8.050
 2008POPC   C4A29622  36.460  19.049   7.670
 2008POPC   C1B29623  35.766  18.961   8.802
 2008POPC   C2B29624  35.842  19.144   8.442
 2008POPC   C3B29625  35.799  19.024   8.053
 2008POPC   C4B29626  35.942  18.896   7.660
 2009POPC   NC329627  14.799  42.728   9.335
 2009POPC   PO429628  14.450  42.222   9.601
 2009POPC   GL129629  14.401  42.189   9.166
 2009POPC   GL229630  14.060  42.188   9.078
 2009POPC   C1A29631  14.662  42.280   8.792
 2009POPC   D2A29632  14.579  42.455   8.376
 2009POPC   C3A29633  14.592  42.332   7.937
 2009POPC   C4A29634  14.609  42.327   7.466
 2009POPC   C1B29635  14.126  42.598   8.909
 2009POPC   C2B29636  14.127  42.711   8.486
 2009POPC   C3B29637  14.095  42.402   8.173
 2009POPC   C4B29638  14.100  42.210   7.799
 2010POPC   NC329639   5.030  10.911   9.467
 2010POPC   PO429640   5.443  11.521   9.459
 2010POPC   GL129641   5.325  11.228   9.195
 2010POPC   GL229642   4.975  11.342   9.187
 2010POPC   C1A29643   5.230  11.100   8.800
 2010POPC   D2A29644   5.316  11.274   8.417
 2010POPC   C3A29645   5.109  11.206   7.995
 2010POPC   C4A29646   5.306  11.131   7.617
 2010POPC   C1B29647   4.919  11.514   8.778
 2010POPC   C2B29648   4.840  11.431   8.353
 2010POPC   C3B29649   4.944  11.678   7.951
 2010POPC   C4B29650   4.968  11.518   7.533
 2011POPC   NC329651   1.892  38.215   9.606
 2011POPC   PO429652   1.982  38.839   9.760
 2011POPC   GL129653   2.096  38.483   9.258
 2011POPC   GL229654   2.311  38.679   8.998
 2011POPC   C1A29655   1.872  38.457   8.836
 2011POPC   D2A29656   1.753  38.199   8.496
 2011POPC   C3A29657   1.920  38.306   8.092
 2011POPC   C4A29658   1.883  38.290   7.638
 2011POPC   C1B29659   2.085  38.910   8.643
 2011POPC   C2B29660   2.010  38.833   8.232
 2011POPC   C3B29661   1.918  38.779   7.811
 2011POPC   C4B29662   2.011  38.768   7.352
 2012POPC   NC329663  35.209   3.132   9.731
 2012POPC   PO429664  35.143   2.475   9.595
 2012POPC   GL129665  35.109   2.824   9.302
 2012POPC   GL229666  35.121   2.545   9.084
 2012POPC   C1A29667  35.086   2.996   8.861
 2012POPC   D2A29668  35.068   2.823   8.436
 2012POPC   C3A29669  35.194   3.045   8.048
 2012POPC   C4A29670  35.606   3.115   7.857
 2012POPC   C1B29671  35.447   2.638   8.760
 2012POPC   C2B29672  35.576   2.802   8.351
 2012POPC   C3B29673  35.552   2.640   7.957
 2012POPC   C4B29674  35.236   2.470   7.756
 2013POPC   NC329675   1.331  12.951   9.596
 2013POPC   PO429676   1.291  12.452   9.136
 2013POPC   GL129677   1.114  12.852   9.102
 2013POPC   GL229678   1.394  13.104   9.118
 2013POPC   C1A29679   0.904  12.844   8.708
 2013POPC   D2A29680   0.780  12.882   8.282
 2013POPC   C3A29681   1.121  12.795   7.989
 2013POPC   C4A29682   1.249  12.652   7.573
 2013POPC   C1B29683   1.199  13.317   8.783
 2013POPC   C2B29684   1.151  13.256   8.344
 2013POPC   C3B29685   0.937  13.290   7.964
 2013POPC   C4B29686   1.087  13.400   7.558
 2014POPC   NC329687  20.159   1.005   9.554
 2014POPC   PO429688  19.635   1.367   9.476
 2014POPC   GL129689  19.791   1.240   9.109
 2014POPC   GL229690  19.770   0.908   9.142
 2014POPC   C1A29691  20.008   1.105   8.719
 2014POPC   D2A29692  19.980   1.024   8.284
 2014POPC   C3A29693  19.785   1.326   8.038
 2014POPC   C4A29694  19.675   1.568   7.704
 2014POPC   C1B29695  19.494   1.009   8.733
 2014POPC   C2B29696  19.424   1.024   8.254
 2014POPC   C3B29697  19.674   0.860   7.874
 2014POPC   C4B29698  19.976   0.718   7.537
 2015POPC   NC329699  11.669  42.267   9.602
 2015POPC   PO429700  11.036  42.535   9.457
 2015POPC   GL129701  11.151  42.542   9.055
 2015POPC   GL229702  11.483  42.412   9.156
 2015POPC   C1A29703  11.000  42.332   8.670
 2015POPC   D2A29704  11.041  41.938   8.450
 2015POPC   C3A29705  11.015  41.967   8.023
 2015POPC   C4A29706  11.143  41.811   7.637
 2015POPC   C1B29707  11.397  42.109   8.869
 2015POPC   C2B29708  11.525  42.100   8.438
 2015POPC   C3B29709  11.529  41.979   8.005
 2015POPC   C4B29710  11.405  42.274   7.726
 2016POPC   NC329711  22.665  22.083   9.428
 2016POPC   PO429712  23.298  22.244   9.668
 2016POPC   GL129713  23.113  22.384   9.241
 2016POPC   GL229714  22.783  22.512   9.184
 2016POPC   C1A29715  22.997  22.258   8.815
 2016POPC   D2A29716  23.176  22.168   8.438
 2016POPC   C3A29717  22.952  22.169   8.072
 2016POPC   C4A29718  22.997  21.909   7.737
 2016POPC   C1B29719  22.634  22.626   8.797
 2016POPC   C2B29720  22.792  22.529   8.409
 2016POPC   C3B29721  22.603  22.556   8.029
 2016POPC   C4B29722  22.754  22.403   7.658
 2017POPC   NC329723   3.746  20.522   9.530
 2017POPC   PO429724   3.093  20.827   9.593
 2017POPC   GL129725   3.368  20.880   9.176
 2017POPC   GL229726   3.698  20.789   9.109
 2017POPC   C1A29727   3.403  20.776   8.715
 2017POPC   D2A29728   3.211  20.587   8.344
 2017POPC   C3A29729   3.368  20.729   7.959
 2017POPC   C4A29730   3.599  20.872   7.664
 2017POPC   C1B29731   3.714  20.405   8.874
 2017POPC   C2B29732   3.700  20.418   8.431
 2017POPC   C3B29733   3.575  20.261   8.039
 2017POPC   C4B29734   3.695  20.356   7.639
 2018POPC   NC329735   7.502  39.208   9.494
 2018POPC   PO429736   6.948  38.844   9.741
 2018POPC   GL129737   7.044  39.031   9.305
 2018POPC   GL229738   7.106  38.729   9.163
 2018POPC   C1A29739   7.212  39.299   8.894
 2018POPC   D2A29740   7.639  39.377   8.593
 2018POPC   C3A29741   7.675  39.488   8.111
 2018POPC   C4A29742   7.479  39.389   7.672
 2018POPC   C1B29743   7.057  38.816   8.734
 2018POPC   C2B29744   7.254  39.081   8.429
 2018POPC   C3B29745   7.444  39.037   8.043
 2018POPC   C4B29746   7.103  39.017   7.734
 2019POPC   NC329747  19.556  30.569   9.475
 2019POPC   PO429748  19.939  31.101   9.492
 2019POPC   GL129749  19.899  30.783   9.186
 2019POPC   GL229750  19.605  30.930   9.073
 2019POPC   C1A29751  19.901  30.556   8.806
 2019POPC   D2A29752  20.067  30.581   8.375
 2019POPC   C3A29753  19.907  30.504   7.964
 2019POPC   C4A29754  19.979  30.856   7.695
 2019POPC   C1B29755  19.467  30.790   8.639
 2019POPC   C2B29756  19.537  30.770   8.183
 2019POPC   C3B29757  19.526  31.054   7.822
 2019POPC   C4B29758  19.705  31.170   7.372
 2020POPC   NC329759   2.543  21.424   9.643
 2020POPC   PO429760   3.155  21.621   9.711
 2020POPC   GL129761   3.002  21.588   9.282
 2020POPC   GL229762   3.016  21.244   9.120
 2020POPC   C1A29763   3.026  21.667   8.812
 2020POPC   D2A29764   3.043  21.453   8.380
 2020POPC   C3A29765   2.853  21.460   7.934
 2020POPC   C4A29766   2.740  21.394   7.497
 2020POPC   C1B29767   2.958  21.029   8.659
 2020POPC   C2B29768   2.949  21.001   8.162
 2020POPC   C3B29769   2.647  20.988   7.792
 2020POPC   C4B29770   2.422  20.788   7.461
 2021POPC   NC329771  41.317  24.811   9.275
 2021POPC   PO429772  41.815  24.439   9.634
 2021POPC   GL129773  41.576  24.360   9.226
 2021POPC   GL229774  41.759  24.604   9.114
 2021POPC   C1A29775  41.432  24.494   8.750
 2021POPC   D2A29776  41.339  24.360   8.356
 2021POPC   C3A29777  41.621  24.339   8.019
 2021POPC   C4A29778  41.447  24.123   7.699
 2021POPC   C1B29779  41.893  24.293   8.747
 2021POPC   C2B29780  42.080  24.264   8.315
 2021POPC   C3B29781  42.113  24.343   7.861
 2021POPC   C4B29782  41.871  24.319   7.504
 2022POPC   NC329783  36.774  20.183   9.932
 2022POPC   PO429784  37.009  19.596   9.532
 2022POPC   GL129785  36.840  19.781   9.141
 2022POPC   GL229786  36.496  19.907   9.161
 2022POPC   C1A29787  36.786  20.021   8.746
 2022POPC   D2A29788  36.958  20.130   8.348
 2022POPC   C3A29789  36.829  19.893   8.002
 2022POPC   C4A29790  36.962  19.926   7.585
 2022POPC   C1B29791  36.458  19.626   8.784
 2022POPC   C2B29792  36.679  19.606   8.398
 2022POPC   C3B29793  36.665  19.392   8.008
 2022POPC   C4B29794  36.582  19.577   7.629
 2023POPC   NC329795  16.468  16.068   9.885
 2023POPC   PO429796  15.795  16.128   9.726
 2023POPC   GL129797  15.863  15.860   9.281
 2023POPC   GL229798  15.531  15.736   9.292
 2023POPC   C1A29799  16.003  15.874   8.846
 2023POPC   D2A29800  15.793  15.970   8.455
 2023POPC   C3A29801  15.889  15.742   8.066
 2023POPC   C4A29802  16.181  15.938   7.777
 2023POPC   C1B29803  15.508  15.740   8.864
 2023POPC   C2B29804  15.254  15.761   8.527
 2023POPC   C3B29805  15.393  15.936   8.144
 2023POPC   C4B29806  15.708  16.259   7.986
 2024POPC   NC329807  21.477  33.862   9.552
 2024POPC   PO429808  20.937  33.475   9.516
 2024POPC   GL129809  21.270  33.469   9.231
 2024POPC   GL229810  21.308  33.814   9.092
 2024POPC   C1A29811  21.398  33.431   8.799
 2024POPC   D2A29812  21.357  33.723   8.500
 2024POPC   C3A29813  21.287  33.594   8.085
 2024POPC   C4A29814  21.379  33.503   7.654
 2024POPC   C1B29815  21.619  34.048   8.859
 2024POPC   C2B29816  21.848  33.924   8.507
 2024POPC   C3B29817  21.719  33.898   8.104
 2024POPC   C4B29818  21.646  33.933   7.687
 2025POPC   NC329819  31.292  11.724   9.737
 2025POPC   PO429820  31.162  11.299   9.506
 2025POPC   GL129821  31.300  11.372   9.029
 2025POPC   GL229822  31.664  11.417   8.952
 2025POPC   C1A29823  31.345  11.498   8.556
 2025POPC   D2A29824  31.598  11.412   8.178
 2025POPC   C3A29825  31.497  11.149   7.830
 2025POPC   C4A29826  31.226  11.326   7.505
 2025POPC   C1B29827  31.684  11.115   8.597
 2025POPC   C2B29828  31.845  10.942   8.196
 2025POPC   C3B29829  31.985  10.995   7.760
 2025POPC   C4B29830  31.804  11.247   7.410
 2026POPC   NC329831   7.681   2.281   9.671
 2026POPC   PO429832   7.419   1.724   9.467
 2026POPC   GL129833   7.564   2.051   9.197
 2026POPC   GL229834   7.454   2.386   9.209
 2026POPC   C1A29835   7.536   2.096   8.748
 2026POPC   D2A29836   7.621   1.863   8.388
 2026POPC   C3A29837   7.448   1.993   8.054
 2026POPC   C4A29838   7.493   1.748   7.727
 2026POPC   C1B29839   7.138   2.425   8.873
 2026POPC   C2B29840   7.054   2.406   8.424
 2026POPC   C3B29841   7.172   2.429   7.990
 2026POPC   C4B29842   7.218   2.162   7.627
 2027POPC   NC329843  21.915   6.662   9.412
 2027POPC   PO429844  22.398   6.416   9.687
 2027POPC   GL129845  22.294   6.360   9.227
 2027POPC   GL229846  22.364   6.693   9.159
 2027POPC   C1A29847  22.171   6.449   8.755
 2027POPC   D2A29848  22.313   6.410   8.318
 2027POPC   C3A29849  22.083   6.445   7.920
 2027POPC   C4A29850  21.925   6.877   7.857
 2027POPC   C1B29851  22.607   6.873   8.885
 2027POPC   C2B29852  22.635   6.810   8.459
 2027POPC   C3B29853  22.365   6.896   8.128
 2027POPC   C4B29854  22.409   6.766   7.717
 2028POPC   NC329855  20.022  10.045   9.480
 2028POPC   PO429856  19.962  10.716   9.414
 2028POPC   GL129857  19.648  10.655   9.120
 2028POPC   GL229858  19.629  10.305   9.116
 2028POPC   C1A29859  19.769  10.589   8.690
 2028POPC   D2A29860  19.884  10.805   8.321
 2028POPC   C3A29861  20.017  10.563   7.943
 2028POPC   C4A29862  19.953  10.128   7.933
 2028POPC   C1B29863  19.397  10.225   8.745
 2028POPC   C2B29864  19.468  10.390   8.317
 2028POPC   C3B29865  19.452  10.229   7.896
 2028POPC   C4B29866  19.705  10.275   7.515
 2029POPC   NC329867  40.280   1.318   9.415
 2029POPC   PO429868  39.600   1.321   9.484
 2029POPC   GL129869  39.845   1.362   9.131
 2029POPC   GL229870  39.992   1.076   9.019
 2029POPC   C1A29871  39.880   1.458   8.696
 2029POPC   D2A29872  39.997   1.369   8.271
 2029POPC   C3A29873  39.854   1.550   7.882
 2029POPC   C4A29874  40.062   1.420   7.500
 2029POPC   C1B29875  40.198   0.915   8.633
 2029POPC   C2B29876  40.246   0.959   8.156
 2029POPC   C3B29877  39.930   1.054   7.825
 2029POPC   C4B29878  39.819   0.984   7.355
 2030POPC   NC329879   7.568  42.138   9.663
 2030POPC   PO429880   7.029  42.501   9.664
 2030POPC   GL129881   7.252  42.289   9.268
 2030POPC   GL229882   7.142  42.001   9.049
 2030POPC   C1A29883   7.669  42.247   9.024
 2030POPC   D2A29884   7.835  42.280   8.579
 2030POPC   C3A29885   7.547  42.192   8.225
 2030POPC   C4A29886   7.542  42.251   7.744
 2030POPC   C1B29887   7.254  42.347   8.744
 2030POPC   C2B29888   7.211  42.565   8.369
 2030POPC   C3B29889   7.118  42.436   7.949
 2030POPC   C4B29890   7.130  42.413   7.481
 2031POPC   NC329891  21.842  42.745   9.337
 2031POPC   PO429892  22.049  42.110   9.666
 2031POPC   GL129893  22.056  42.242   9.209
 2031POPC   GL229894  22.214  42.541   9.061
 2031POPC   C1A29895  21.944  42.218   8.758
 2031POPC   D2A29896  21.794  42.321   8.336
 2031POPC   C3A29897  22.081  42.209   7.971
 2031POPC   C4A29898  22.249  42.202   7.514
 2031POPC   C1B29899  22.347  42.542   8.613
 2031POPC   C2B29900  22.457  42.472   8.166
 2031POPC   C3B29901  22.336  42.658   7.748
 2031POPC   C4B29902  22.315  42.631   7.265
 2032POPC   NC329903   5.193   6.650   9.550
 2032POPC   PO429904   4.637   6.419   9.380
 2032POPC   GL129905   4.984   6.428   9.119
 2032POPC   GL229906   5.386   6.431   9.115
 2032POPC   C1A29907   5.021   6.275   8.746
 2032POPC   D2A29908   5.280   6.335   8.429
 2032POPC   C3A29909   5.033   6.609   8.225
 2032POPC   C4A29910   5.003   6.657   7.807
 2032POPC   C1B29911   5.305   6.749   8.828
 2032POPC   C2B29912   5.464   6.834   8.424
 2032POPC   C3B29913   5.465   6.754   7.975
 2032POPC   C4B29914   5.370   6.912   7.544
 2033POPC   NC329915  42.816   3.771   9.545
 2033POPC   PO429916  43.059   3.274   9.802
 2033POPC   GL129917  43.032   3.403   9.261
 2033POPC   GL229918  42.824   3.667   9.058
 2033POPC   C1A29919  43.056   3.296   8.823
 2033POPC   D2A29920  43.089   3.415   8.425
 2033POPC   C3A29921  43.111   3.340   7.998
 2033POPC   C4A29922  43.405   3.581   7.770
 2033POPC   C1B29923  42.791   3.767   8.623
 2033POPC   C2B29924  42.772   3.692   8.176
 2033POPC   C3B29925  42.933   3.794   7.789
 2033POPC   C4B29926  43.092   3.708   7.367
 2034POPC   NC329927   4.643  16.018   9.603
 2034POPC   PO429928   4.032  16.110   9.503
 2034POPC   GL129929   4.291  15.821   9.254
 2034POPC   GL229930   4.427  16.117   9.116
 2034POPC   C1A29931   4.490  15.682   8.832
 2034POPC   D2A29932   4.596  15.798   8.411
 2034POPC   C3A29933   4.578  15.638   7.994
 2034POPC   C4A29934   4.685  15.928   7.667
 2034POPC   C1B29935   4.079  16.025   8.824
 2034POPC   C2B29936   4.005  16.092   8.386
 2034POPC   C3B29937   4.293  16.068   8.064
 2034POPC   C4B29938   4.161  15.823   7.770
 2035POPC   NC329939  39.930  27.911   9.365
 2035POPC   PO429940  40.189  28.526   9.557
 2035POPC   GL129941  39.914  28.459   9.222
 2035POPC   GL229942  39.593  28.276   9.253
 2035POPC   C1A29943  39.835  28.454   8.789
 2035POPC   D2A29944  40.066  28.325   8.430
 2035POPC   C3A29945  39.937  28.422   8.018
 2035POPC   C4A29946  40.157  28.230   7.701
 2035POPC   C1B29947  39.536  28.050   8.805
 2035POPC   C2B29948  39.519  28.292   8.397
 2035POPC   C3B29949  39.465  28.288   7.945
 2035POPC   C4B29950  39.322  27.923   7.764
 2036POPC   NC329951  18.461  31.276   9.422
 2036POPC   PO429952  18.233  31.816   9.412
 2036POPC   GL129953  18.240  31.583   9.045
 2036POPC   GL229954  17.944  31.401   9.142
 2036POPC   C1A29955  18.350  31.641   8.591
 2036POPC   D2A29956  18.303  31.758   8.158
 2036POPC   C3A29957  18.463  31.507   7.870
 2036POPC   C4A29958  18.320  31.257   7.496
 2036POPC   C1B29959  17.992  31.284   8.708
 2036POPC   C2B29960  18.136  31.262   8.280
 2036POPC   C3B29961  17.965  31.328   7.868
 2036POPC   C4B29962  17.819  31.363   7.413
 2037POPC   NC329963  13.000  14.409   9.869
 2037POPC   PO429964  12.422  14.425   9.589
 2037POPC   GL129965  12.756  14.343   9.226
 2037POPC   GL229966  12.958  14.062   9.044
 2037POPC   C1A29967  12.920  14.484   8.788
 2037POPC   D2A29968  13.116  14.326   8.374
 2037POPC   C3A29969  13.031  14.119   7.984
 2037POPC   C4A29970  13.094  14.346   7.616
 2037POPC   C1B29971  12.819  13.944   8.589
 2037POPC   C2B29972  12.576  14.037   8.174
 2037POPC   C3B29973  12.458  14.329   7.810
 2037POPC   C4B29974  12.602  14.377   7.363
 2038POPC   NC329975  23.101  15.647   9.550
 2038POPC   PO429976  22.758  16.192   9.258
 2038POPC   GL129977  22.999  15.879   9.071
 2038POPC   GL229978  22.733  15.668   9.119
 2038POPC   C1A29979  23.089  15.968   8.629
 2038POPC   D2A29980  22.822  16.264   8.365
 2038POPC   C3A29981  22.939  16.190   7.945
 2038POPC   C4A29982  23.014  15.783   7.729
 2038POPC   C1B29983  22.614  15.809   8.689
 2038POPC   C2B29984  22.768  15.756   8.239
 2038POPC   C3B29985  22.634  15.487   7.894
 2038POPC   C4B29986  22.612  15.550   7.445
 2039POPC   NC329987  14.418  43.613   9.604
 2039POPC   PO429988  14.381  42.927   9.536
 2039POPC   GL129989  14.398  42.999   9.116
 2039POPC   GL229990  14.467  43.318   9.187
 2039POPC   C1A29991  14.564  42.838   8.738
 2039POPC   D2A29992  14.675  42.962   8.347
 2039POPC   C3A29993  14.412  42.818   8.043
 2039POPC   C4A29994  14.658  42.775   7.703
 2039POPC   C1B29995  14.205  43.407   8.830
 2039POPC   C2B29996  14.245  43.204   8.471
 2039POPC   C3B29997  14.267  43.310   8.064
 2039POPC   C4B29998  14.277  43.144   7.659
 2040POPC   NC329999  38.429  29.698   9.571
 2040POPC   PO430000  38.167  30.327   9.427
 2040POPC   GL130001  38.395  30.015   9.163
 2040POPC   GL230002  38.289  29.640   9.098
 2040POPC   C1A30003  38.565  29.916   8.767
 2040POPC   D2A30004  38.383  29.701   8.427
 2040POPC   C3A30005  38.365  29.913   8.010
 2040POPC   C4A30006  38.118  29.851   7.668
 2040POPC   C1B30007  38.537  29.383   8.831
 2040POPC   C2B30008  38.701  29.276   8.439
 2040POPC   C3B30009  38.726  29.556   8.081
 2040POPC   C4B30010  38.563  29.588   7.644
 2041POPC   NC330011  31.722  21.161   9.816
 2041POPC   PO430012  31.205  21.545   9.554
 2041POPC   GL130013  31.381  21.303   9.221
 2041POPC   GL230014  31.721  21.278   9.253
 2041POPC   C1A30015  31.458  21.375   8.767
 2041POPC   D2A30016  31.254  21.492   8.353
 2041POPC   C3A30017  31.561  21.473   8.029
 2041POPC   C4A30018  31.693  21.547   7.616
 2041POPC   C1B30019  31.903  21.078   8.881
 2041POPC   C2B30020  31.899  21.259   8.490
 2041POPC   C3B30021  31.751  21.032   8.197
 2041POPC   C4B30022  31.748  21.038   7.815
 2042POPC   NC330023  25.226  37.762   9.652
 2042POPC   PO430024  25.677  37.467   9.318
 2042POPC   GL130025  25.387  37.737   9.102
 2042POPC   GL230026  25.140  38.000   9.171
 2042POPC   C1A30027  25.173  37.703   8.694
 2042POPC   D2A30028  25.007  37.376   8.428
 2042POPC   C3A30029  25.335  37.353   8.132
 2042POPC   C4A30030  25.474  37.343   7.721
 2042POPC   C1B30031  24.771  37.950   8.874
 2042POPC   C2B30032  24.704  37.863   8.444
 2042POPC   C3B30033  25.049  37.820   8.167
 2042POPC   C4B30034  25.202  37.766   7.766
 2043POPC   NC330035   7.966   4.088   9.414
 2043POPC   PO430036   7.247   4.286   9.476
 2043POPC   GL130037   7.243   4.215   9.068
 2043POPC   GL230038   7.587   4.173   9.085
 2043POPC   C1A30039   7.372   4.287   8.639
 2043POPC   D2A30040   7.348   4.605   8.349
 2043POPC   C3A30041   7.113   4.589   7.958
 2043POPC   C4A30042   7.277   4.395   7.568
 2043POPC   C1B30043   7.870   4.076   8.759
 2043POPC   C2B30044   7.881   3.943   8.364
 2043POPC   C3B30045   7.523   4.163   8.141
 2043POPC   C4B30046   7.176   4.049   7.919
 2044POPC   NC330047  25.431  34.340   9.448
 2044POPC   PO430048  24.947  34.806   9.437
 2044POPC   GL130049  25.113  34.586   9.104
 2044POPC   GL230050  25.333  34.872   9.090
 2044POPC   C1A30051  25.204  34.585   8.653
 2044POPC   D2A30052  25.200  34.831   8.258
 2044POPC   C3A30053  25.267  34.573   7.880
 2044POPC   C4A30054  25.642  34.319   7.746
 2044POPC   C1B30055  25.054  35.060   8.765
 2044POPC   C2B30056  24.764  35.089   8.409
 2044POPC   C3B30057  24.754  34.882   8.003
 2044POPC   C4B30058  24.904  34.789   7.607
 2045POPC   NC330059  27.991   4.931   9.384
 2045POPC   PO430060  27.606   5.382   9.597
 2045POPC   GL130061  27.538   5.290   9.190
 2045POPC   GL230062  27.248   5.105   9.273
 2045POPC   C1A30063  27.709   5.180   8.786
 2045POPC   D2A30064  27.935   5.134   8.406
 2045POPC   C3A30065  27.717   5.259   8.057
 2045POPC   C4A30066  27.670   5.204   7.638
 2045POPC   C1B30067  27.240   4.991   8.812
 2045POPC   C2B30068  27.409   4.985   8.372
 2045POPC   C3B30069  27.276   4.943   7.949
 2045POPC   C4B30070  27.197   5.106   7.547
 2046POPC   NC330071  12.068  40.586   9.572
 2046POPC   PO430072  12.043  41.235   9.833
 2046POPC   GL130073  12.161  41.168   9.348
 2046POPC   GL230074  12.343  40.850   9.224
 2046POPC   C1A30075  12.183  41.134   8.856
 2046POPC   D2A30076  11.932  40.870   8.543
 2046POPC   C3A30077  11.975  40.884   8.100
 2046POPC   C4A30078  12.065  41.030   7.713
 2046POPC   C1B30079  12.257  40.592   8.811
 2046POPC   C2B30080  12.267  40.514   8.304
 2046POPC   C3B30081  12.358  40.610   7.804
 2046POPC   C4B30082  12.551  40.635   7.334
 2047POPC   NC330083  18.505  17.232   9.530
 2047POPC   PO430084  18.048  17.718   9.342
 2047POPC   GL130085  18.247  17.332   9.092
 2047POPC   GL230086  18.634  17.273   9.047
 2047POPC   C1A30087  18.313  17.378   8.655
 2047POPC   D2A30088  18.127  17.739   8.447
 2047POPC   C3A30089  18.167  17.757   8.000
 2047POPC   C4A30090  18.187  17.369   7.750
 2047POPC   C1B30091  18.720  17.647   8.812
 2047POPC   C2B30092  18.641  17.712   8.378
 2047POPC   C3B30093  18.454  17.366   8.161
 2047POPC   C4B30094  18.635  17.077   7.831
 2048POPC   NC330095  20.775   1.031   9.884
 2048POPC   PO430096  20.370   1.426   9.571
 2048POPC   GL130097  20.312   1.260   9.138
 2048POPC   GL230098  20.641   1.123   9.094
 2048POPC   C1A30099  20.437   1.387   8.715
 2048POPC   D2A30100  20.503   1.166   8.374
 2048POPC   C3A30101  20.351   1.276   8.030
 2048POPC   C4A30102  20.487   1.516   7.744
 2048POPC   C1B30103  20.904   1.137   8.693
 2048POPC   C2B30104  20.970   0.994   8.238
 2048POPC   C3B30105  20.872   1.199   7.850
 2048POPC   C4B30106  20.971   1.300   7.407
 2049POPC   NC330107   6.705  29.626   9.495
 2049POPC   PO430108   6.999  28.991   9.508
 2049POPC   GL130109   6.847  29.249   9.180
 2049POPC   GL230110   7.098  29.556   9.179
 2049POPC   C1A30111   6.561  29.159   8.862
 2049POPC   D2A30112   6.468  28.834   8.564
 2049POPC   C3A30113   6.650  28.924   8.169
 2049POPC   C4A30114   6.544  29.142   7.756
 2049POPC   C1B30115   6.847  29.626   8.817
 2049POPC   C2B30116   6.747  29.404   8.467
 2049POPC   C3B30117   6.848  29.402   8.074
 2049POPC   C4B30118   6.778  29.624   7.735
 2050POPC   NC330119  41.780  44.945   9.538
 2050POPC   PO430120  41.601  44.363   9.535
 2050POPC   GL130121  41.631  44.595   9.160
 2050POPC   GL230122  41.414  44.888   9.170
 2050POPC   C1A30123  41.600  44.456   8.748
 2050POPC   D2A30124  41.677  44.419   8.312
 2050POPC   C3A30125  41.409  44.676   8.055
 2050POPC   C4A30126  41.350  44.718   7.611
 2050POPC   C1B30127  41.343  44.921   8.739
 2050POPC   C2B30128  41.246   0.104   8.331
 2050POPC   C3B30129  41.236   0.121   7.875
 2050POPC   C4B30130  41.265   0.170   7.410
 2051POPC   NC330131   1.750   5.557   9.437
 2051POPC   PO430132   1.974   4.865   9.494
 2051POPC   GL130133   1.780   4.940   9.135
 2051POPC   GL230134   1.617   4.669   8.981
 2051POPC   C1A30135   2.039   5.095   8.797
 2051POPC   D2A30136   2.335   5.032   8.465
 2051POPC   C3A30137   2.206   5.244   8.104
 2051POPC   C4A30138   2.250   5.127   7.691
 2051POPC   C1B30139   1.543   5.036   8.694
 2051POPC   C2B30140   1.550   5.147   8.260
 2051POPC   C3B30141   1.779   5.007   7.898
 2051POPC   C4B30142   1.789   5.145   7.453
 2052POPC   NC330143   4.771   5.975   9.343
 2052POPC   PO430144   4.124   5.784   9.503
 2052POPC   GL130145   4.353   5.801   9.123
 2052POPC   GL230146   4.393   6.173   9.027
 2052POPC   C1A30147   4.569   5.799   8.715
 2052POPC   D2A30148   4.850   5.939   8.394
 2052POPC   C3A30149   4.706   5.847   7.993
 2052POPC   C4A30150   4.402   5.813   7.655
 2052POPC   C1B30151   3.999   6.066   8.861
 2052POPC   C2B30152   3.985   5.877   8.458
 2052POPC   C3B30153   4.240   6.035   8.112
 2052POPC   C4B30154   4.189   6.263   7.708
 2053POPC   NC330155   4.432  15.258   9.588
 2053POPC   PO430156   4.333  14.589   9.509
 2053POPC   GL130157   4.234  14.955   9.138
 2053POPC   GL230158   4.275  15.319   9.125
 2053POPC   C1A30159   4.229  15.106   8.671
 2053POPC   D2A30160   4.506  15.257   8.328
 2053POPC   C3A30161   4.484  15.024   7.914
 2053POPC   C4A30162   4.437  14.927   7.451
 2053POPC   C1B30163   4.001  15.523   8.858
 2053POPC   C2B30164   4.126  15.593   8.423
 2053POPC   C3B30165   4.098  15.370   8.025
 2053POPC   C4B30166   4.287  15.381   7.615
 2054POPC   NC330167  26.882  39.150   9.422
 2054POPC   PO430168  26.765  39.890   9.438
 2054POPC   GL130169  26.891  39.586   9.138
 2054POPC   GL230170  26.663  39.361   8.998
 2054POPC   C1A30171  27.105  39.463   8.762
 2054POPC   D2A30172  27.088  39.312   8.352
 2054POPC   C3A30173  26.836  39.396   7.997
 2054POPC   C4A30174  27.054  39.444   7.611
 2054POPC   C1B30175  26.830  39.024   8.727
 2054POPC   C2B30176  26.723  38.935   8.307
 2054POPC   C3B30177  26.800  38.885   7.869
 2054POPC   C4B30178  26.731  39.086   7.475
 2055POPC   NC330179  15.236  35.899   9.482
 2055POPC   PO430180  15.605  36.400   9.232
 2055POPC   GL130181  15.200  36.348   9.125
 2055POPC   GL230182  15.325  36.032   9.000
 2055POPC   C1A30183  14.964  36.427   8.765
 2055POPC   D2A30184  15.158  36.474   8.366
 2055POPC   C3A30185  15.010  36.356   7.955
 2055POPC   C4A30186  15.406  36.217   7.806
 2055POPC   C1B30187  14.927  35.918   8.877
 2055POPC   C2B30188  14.882  35.835   8.457
 2055POPC   C3B30189  15.124  35.862   8.075
 2055POPC   C4B30190  14.938  35.912   7.694
 2056POPC   NC330191  33.941   0.979   9.548
 2056POPC   PO430192  33.376   0.906   9.306
 2056POPC   GL130193  33.655   1.167   9.123
 2056POPC   GL230194  33.895   0.963   9.015
 2056POPC   C1A30195  33.531   1.307   8.745
 2056POPC   D2A30196  33.735   1.006   8.509
 2056POPC   C3A30197  33.742   1.023   8.078
 2056POPC   C4A30198  33.595   1.328   7.795
 2056POPC   C1B30199  34.060   1.280   8.791
 2056POPC   C2B30200  34.177   1.244   8.382
 2056POPC   C3B30201  34.130   1.354   7.982
 2056POPC   C4B30202  34.013   1.081   7.641
 2057POPC   NC330203  20.945   8.810   9.433
 2057POPC   PO430204  20.277   8.717   9.557
 2057POPC   GL130205  20.492   8.678   9.199
 2057POPC   GL230206  20.511   9.019   9.181
 2057POPC   C1A30207  20.644   8.755   8.778
 2057POPC   D2A30208  20.535   8.913   8.419
 2057POPC   C3A30209  20.675   8.701   8.097
 2057POPC   C4A30210  20.720   8.897   7.706
 2057POPC   C1B30211  20.309   9.247   8.832
 2057POPC   C2B30212  20.393   9.387   8.406
 2057POPC   C3B30213  20.414   9.235   7.980
 2057POPC   C4B30214  20.189   9.342   7.551
 2058POPC   NC330215  10.102  29.632   9.432
 2058POPC   PO430216  10.704  29.520   9.409
 2058POPC   GL130217  10.568  29.821   9.114
 2058POPC   GL230218  10.261  29.993   9.090
 2058POPC   C1A30219  10.647  30.011   8.714
 2058POPC   D2A30220  10.465  29.892   8.346
 2058POPC   C3A30221  10.555  29.977   7.923
 2058POPC   C4A30222  10.233  30.011   7.585
 2058POPC   C1B30223  10.170  29.715   8.764
 2058POPC   C2B30224  10.032  29.633   8.376
 2058POPC   C3B30225  10.179  29.627   7.987
 2058POPC   C4B30226   9.931  29.577   7.687
 2059POPC   NC330227   7.863  22.676   9.292
 2059POPC   PO430228   7.969  22.018   9.391
 2059POPC   GL130229   8.024  22.243   9.077
 2059POPC   GL230230   8.324  22.385   9.176
 2059POPC   C1A30231   8.019  22.155   8.684
 2059POPC   D2A30232   8.022  21.869   8.387
 2059POPC   C3A30233   8.067  22.127   8.048
 2059POPC   C4A30234   8.248  22.059   7.699
 2059POPC   C1B30235   8.511  22.208   8.794
 2059POPC   C2B30236   8.404  22.317   8.370
 2059POPC   C3B30237   8.530  22.379   7.957
 2059POPC   C4B30238   8.874  22.349   7.689
 2060POPC   NC330239  28.030  19.911   9.600
 2060POPC   PO430240  28.224  19.271   9.458
 2060POPC   GL130241  28.269  19.684   9.187
 2060POPC   GL230242  28.585  19.935   9.188
 2060POPC   C1A30243  28.417  19.737   8.753
 2060POPC   D2A30244  28.657  19.603   8.393
 2060POPC   C3A30245  28.365  19.698   8.073
 2060POPC   C4A30246  28.278  19.724   7.647
 2060POPC   C1B30247  28.235  20.189   8.983
 2060POPC   C2B30248  28.071  20.329   8.579
 2060POPC   C3B30249  28.099  20.347   8.107
 2060POPC   C4B30250  28.358  20.200   7.751
 2061POPC   NC330251  40.611   0.619   9.443
 2061POPC   PO430252  41.246   0.296   9.473
 2061POPC   GL130253  40.905   0.180   9.171
 2061POPC   GL230254  40.534   0.227   9.135
 2061POPC   C1A30255  40.932   0.223   8.773
 2061POPC   D2A30256  40.927   0.499   8.452
 2061POPC   C3A30257  40.815   0.309   8.075
 2061POPC   C4A30258  40.898   0.463   7.655
 2061POPC   C1B30259  40.520   0.538   8.789
 2061POPC   C2B30260  40.410   0.519   8.351
 2061POPC   C3B30261  40.411   0.558   7.898
 2061POPC   C4B30262  40.317   0.179   7.754
 2062POPC   NC330263  20.343  24.471   9.781
 2062POPC   PO430264  19.821  24.099   9.655
 2062POPC   GL130265  19.664  24.311   9.224
 2062POPC   GL230266  19.800  24.649   9.204
 2062POPC   C1A30267  19.775  24.311   8.773
 2062POPC   D2A30268  19.982  24.523   8.456
 2062POPC   C3A30269  19.805  24.348   8.065
 2062POPC   C4A30270  20.001  24.441   7.692
 2062POPC   C1B30271  19.589  24.780   8.819
 2062POPC   C2B30272  19.500  24.612   8.387
 2062POPC   C3B30273  19.676  24.839   7.992
 2062POPC   C4B30274  19.621  24.880   7.527
 2063POPC   NC330275  15.085  14.205   9.477
 2063POPC   PO430276  15.546  14.491   9.266
 2063POPC   GL130277  15.417  14.279   8.999
 2063POPC   GL230278  15.093  14.449   9.015
 2063POPC   C1A30279  15.359  14.334   8.597
 2063POPC   D2A30280  15.134  14.374   8.263
 2063POPC   C3A30281  15.363  14.228   7.954
 2063POPC   C4A30282  15.202  14.361   7.591
 2063POPC   C1B30283  14.866  14.207   8.711
 2063POPC   C2B30284  14.664  14.041   8.342
 2063POPC   C3B30285  14.803  14.157   7.917
 2063POPC   C4B30286  14.898  13.917   7.551
 2064POPC   NC330287  34.417   3.619   9.916
 2064POPC   PO430288  34.604   3.617   9.335
 2064POPC   GL130289  34.259   3.658   9.088
 2064POPC   GL230290  34.386   3.389   8.928
 2064POPC   C1A30291  34.101   3.645   8.643
 2064POPC   D2A30292  34.416   3.464   8.383
 2064POPC   C3A30293  34.465   3.626   7.980
 2064POPC   C4A30294  34.494   3.677   7.559
 2064POPC   C1B30295  34.805   3.413   8.723
 2064POPC   C2B30296  34.930   3.543   8.308
 2064POPC   C3B30297  34.971   3.527   7.862
 2064POPC   C4B30298  34.962   3.549   7.410
 2065POPC   NC330299  21.922   9.025   9.415
 2065POPC   PO430300  22.575   8.869   9.432
 2065POPC   GL130301  22.324   8.790   9.052
 2065POPC   GL230302  21.945   8.718   9.016
 2065POPC   C1A30303  22.258   8.731   8.590
 2065POPC   D2A30304  22.218   9.059   8.266
 2065POPC   C3A30305  22.418   9.005   7.866
 2065POPC   C4A30306  22.272   8.931   7.441
 2065POPC   C1B30307  21.793   8.974   8.662
 2065POPC   C2B30308  21.672   8.906   8.248
 2065POPC   C3B30309  21.891   8.935   7.857
 2065POPC   C4B30310  21.897   9.339   7.665
 2066POPC   NC330311  12.527  26.701   9.421
 2066POPC   PO430312  11.909  26.505   9.457
 2066POPC   GL130313  12.101  26.690   9.131
 2066POPC   GL230314  11.899  26.924   9.106
 2066POPC   C1A30315  12.146  26.679   8.706
 2066POPC   D2A30316  12.108  26.431   8.368
 2066POPC   C3A30317  12.024  26.601   7.994
 2066POPC   C4A30318  12.318  26.857   7.868
 2066POPC   C1B30319  11.885  27.125   8.703
 2066POPC   C2B30320  12.007  27.022   8.293
 2066POPC   C3B30321  11.882  27.143   7.874
 2066POPC   C4B30322  11.774  26.873   7.512
 2067POPC   NC330323  38.443  11.610   9.803
 2067POPC   PO430324  38.529  12.164   9.379
 2067POPC   GL130325  38.257  12.036   9.017
 2067POPC   GL230326  38.557  11.881   8.851
 2067POPC   C1A30327  38.200  12.053   8.553
 2067POPC   D2A30328  38.439  12.039   8.194
 2067POPC   C3A30329  38.264  12.033   7.811
 2067POPC   C4A30330  37.927  12.247   7.616
 2067POPC   C1B30331  38.901  11.607   8.712
 2067POPC   C2B30332  39.001  11.591   8.277
 2067POPC   C3B30333  38.725  11.667   7.931
 2067POPC   C4B30334  38.668  11.897   7.548
 2068POPC   NC330335  14.288  29.383   9.504
 2068POPC   PO430336  14.653  28.912   9.539
 2068POPC   GL130337  14.405  28.988   9.154
 2068POPC   GL230338  14.327  28.649   9.140
 2068POPC   C1A30339  14.338  29.258   8.737
 2068POPC   D2A30340  14.502  29.430   8.309
 2068POPC   C3A30341  14.245  29.429   7.928
 2068POPC   C4A30342  14.325  29.248   7.521
 2068POPC   C1B30343  14.233  28.747   8.714
 2068POPC   C2B30344  14.380  28.924   8.342
 2068POPC   C3B30345  14.243  28.926   7.932
 2068POPC   C4B30346  14.151  28.686   7.590
 2069POPC   NC330347  25.119  17.206   9.777
 2069POPC   PO430348  25.395  16.752   9.447
 2069POPC   GL130349  25.208  16.564   9.126
 2069POPC   GL230350  24.978  16.873   9.144
 2069POPC   C1A30351  25.486  16.502   8.745
 2069POPC   D2A30352  25.402  16.315   8.313
 2069POPC   C3A30353  25.507  16.468   7.885
 2069POPC   C4A30354  25.202  16.460   7.506
 2069POPC   C1B30355  25.167  16.898   8.741
 2069POPC   C2B30356  25.381  16.827   8.361
 2069POPC   C3B30357  25.202  16.882   7.965
 2069POPC   C4B30358  25.410  16.910   7.594
 2070POPC   NC330359  19.255  20.372   9.495
 2070POPC   PO430360  18.583  20.214   9.517
 2070POPC   GL130361  18.901  20.224   9.131
 2070POPC   GL230362  19.049  20.577   9.060
 2070POPC   C1A30363  19.084  20.219   8.672
 2070POPC   D2A30364  19.319  20.468   8.364
 2070POPC   C3A30365  19.310  20.388   7.946
 2070POPC   C4A30366  19.030  20.296   7.600
 2070POPC   C1B30367  19.103  21.016   8.854
 2070POPC   C2B30368  18.946  21.173   8.449
 2070POPC   C3B30369  18.978  20.964   8.019
 2070POPC   C4B30370  19.158  20.783   7.634
 2071POPC   NC330371  15.955  19.382   9.600
 2071POPC   PO430372  15.653  19.874   9.425
 2071POPC   GL130373  15.901  19.675   9.154
 2071POPC   GL230374  16.258  19.658   9.256
 2071POPC   C1A30375  15.816  19.650   8.726
 2071POPC   D2A30376  15.880  19.961   8.401
 2071POPC   C3A30377  15.775  19.799   8.012
 2071POPC   C4A30378  15.970  19.993   7.746
 2071POPC   C1B30379  16.291  19.870   8.843
 2071POPC   C2B30380  16.394  19.790   8.425
 2071POPC   C3B30381  16.323  19.730   8.001
 2071POPC   C4B30382  16.102  19.460   7.786
 2072POPC   NC330383   8.406  41.702   9.569
 2072POPC   PO430384   7.894  41.212   9.620
 2072POPC   GL130385   8.012  41.499   9.304
 2072POPC   GL230386   8.346  41.298   9.243
 2072POPC   C1A30387   7.914  41.685   8.908
 2072POPC   D2A30388   8.003  41.383   8.571
 2072POPC   C3A30389   7.902  41.481   8.152
 2072POPC   C4A30390   7.979  41.457   7.726
 2072POPC   C1B30391   8.399  41.581   8.897
 2072POPC   C2B30392   8.483  41.537   8.459
 2072POPC   C3B30393   8.396  41.432   8.030
 2072POPC   C4B30394   8.404  41.789   7.765
 2073POPC   NC330395  37.666   2.350   9.759
 2073POPC   PO430396  37.485   2.870   9.363
 2073POPC   GL130397  37.752   2.928   9.021
 2073POPC   GL230398  37.512   2.840   8.769
 2073POPC   C1A30399  38.020   2.844   8.668
 2073POPC   D2A30400  37.810   2.757   8.293
 2073POPC   C3A30401  37.812   2.988   7.905
 2073POPC   C4A30402  37.856   2.812   7.482
 2073POPC   C1B30403  37.372   2.497   8.518
 2073POPC   C2B30404  37.581   2.309   8.163
 2073POPC   C3B30405  37.595   2.457   7.732
 2073POPC   C4B30406  37.427   2.575   7.302
 2074POPC   NC330407  12.630   9.244   9.466
 2074POPC   PO430408  13.131   8.820   9.367
 2074POPC   GL130409  12.681   8.859   9.137
 2074POPC   GL230410  12.444   8.572   9.182
 2074POPC   C1A30411  12.661   9.068   8.723
 2074POPC   D2A30412  13.087   9.042   8.542
 2074POPC   C3A30413  13.177   9.004   8.109
 2074POPC   C4A30414  13.022   9.018   7.705
 2074POPC   C1B30415  12.332   8.615   8.740
 2074POPC   C2B30416  12.537   8.725   8.345
 2074POPC   C3B30417  12.670   9.051   8.095
 2074POPC   C4B30418  12.529   9.209   7.677
 2075POPC   NC330419   4.480   1.578   9.556
 2075POPC   PO430420   4.171   2.188   9.578
 2075POPC   GL130421   4.416   2.155   9.197
 2075POPC   GL230422   4.645   1.865   9.145
 2075POPC   C1A30423   4.269   2.121   8.767
 2075POPC   D2A30424   4.392   2.105   8.334
 2075POPC   C3A30425   4.152   2.181   7.945
 2075POPC   C4A30426   4.308   2.323   7.583
 2075POPC   C1B30427   4.624   1.763   8.692
 2075POPC   C2B30428   4.828   1.870   8.288
 2075POPC   C3B30429   4.660   2.064   7.884
 2075POPC   C4B30430   4.556   1.871   7.479
 2076POPC   NC330431  24.968  35.266   9.508
 2076POPC   PO430432  25.575  35.444   9.692
 2076POPC   GL130433  25.528  35.333   9.246
 2076POPC   GL230434  25.214  35.426   9.106
 2076POPC   C1A30435  25.584  35.211   8.810
 2076POPC   D2A30436  25.402  35.288   8.418
 2076POPC   C3A30437  25.579  35.230   8.008
 2076POPC   C4A30438  25.338  35.097   7.659
 2076POPC   C1B30439  24.922  35.554   8.783
 2076POPC   C2B30440  24.998  35.600   8.353
 2076POPC   C3B30441  25.048  35.301   8.035
 2076POPC   C4B30442  24.785  35.286   7.711
 2077POPC   NC330443   9.594   1.596   9.976
 2077POPC   PO430444   9.932   2.059   9.651
 2077POPC   GL130445   9.750   1.993   9.250
 2077POPC   GL230446   9.548   2.277   9.285
 2077POPC   C1A30447   9.823   1.947   8.809
 2077POPC   D2A30448   9.860   2.067   8.396
 2077POPC   C3A30449   9.779   1.795   8.012
 2077POPC   C4A30450   9.837   2.072   7.618
 2077POPC   C1B30451   9.492   2.333   8.852
 2077POPC   C2B30452   9.365   2.208   8.432
 2077POPC   C3B30453   9.560   2.253   8.032
 2077POPC   C4B30454   9.358   2.250   7.651
 2078POPC   NC330455  19.265  40.295   9.322
 2078POPC   PO430456  18.855  39.768   9.392
 2078POPC   GL130457  19.024  39.926   9.050
 2078POPC   GL230458  19.346  39.771   9.098
 2078POPC   C1A30459  19.043  39.788   8.641
 2078POPC   D2A30460  19.031  39.999   8.250
 2078POPC   C3A30461  19.036  39.723   7.907
 2078POPC   C4A30462  19.120  39.730   7.479
 2078POPC   C1B30463  19.480  40.037   8.750
 2078POPC   C2B30464  19.570  40.109   8.307
 2078POPC   C3B30465  19.379  40.124   7.882
 2078POPC   C4B30466  19.356  40.205   7.441
 2079POPC   NC330467  14.009  39.694   9.413
 2079POPC   PO430468  13.875  40.371   9.432
 2079POPC   GL130469  13.544  40.076   9.217
 2079POPC   GL230470  13.478  39.686   9.218
 2079POPC   C1A30471  13.410  39.998   8.803
 2079POPC   D2A30472  13.599  39.982   8.440
 2079POPC   C3A30473  13.434  40.083   8.065
 2079POPC   C4A30474  13.536  40.237   7.647
 2079POPC   C1B30475  13.680  39.564   8.813
 2079POPC   C2B30476  13.597  39.477   8.379
 2079POPC   C3B30477  13.808  39.696   8.049
 2079POPC   C4B30478  13.805  39.791   7.622
 2080POPC   NC330479  24.691  22.337   9.307
 2080POPC   PO430480  24.275  22.060   9.737
 2080POPC   GL130481  24.281  22.064   9.210
 2080POPC   GL230482  24.220  22.339   9.014
 2080POPC   C1A30483  24.546  22.061   8.754
 2080POPC   D2A30484  24.741  22.086   8.347
 2080POPC   C3A30485  24.553  22.174   7.953
 2080POPC   C4A30486  24.648  22.147   7.532
 2080POPC   C1B30487  23.964  22.501   8.686
 2080POPC   C2B30488  23.929  22.581   8.248
 2080POPC   C3B30489  24.192  22.544   7.896
 2080POPC   C4B30490  24.159  22.332   7.513
 2081POPC   NC330491  25.222  41.236   9.544
 2081POPC   PO430492  25.526  41.774   9.553
 2081POPC   GL130493  25.418  41.543   9.150
 2081POPC   GL230494  25.378  41.200   9.078
 2081POPC   C1A30495  25.554  41.464   8.708
 2081POPC   D2A30496  25.637  41.210   8.405
 2081POPC   C3A30497  25.658  41.441   8.071
 2081POPC   C4A30498  25.455  41.470   7.710
 2081POPC   C1B30499  25.163  41.149   8.693
 2081POPC   C2B30500  25.166  41.369   8.284
 2081POPC   C3B30501  24.996  41.314   7.857
 2081POPC   C4B30502  25.036  41.665   7.515
 2082POPC   NC330503  25.452  42.222   9.514
 2082POPC   PO430504  24.989  42.582   9.360
 2082POPC   GL130505  25.194  42.331   9.064
 2082POPC   GL230506  25.160  41.984   9.168
 2082POPC   C1A30507  25.163  42.258   8.606
 2082POPC   D2A30508  25.466  42.318   8.267
 2082POPC   C3A30509  25.173  42.320   7.887
 2082POPC   C4A30510  24.844  42.129   7.612
 2082POPC   C1B30511  25.458  41.934   8.838
 2082POPC   C2B30512  25.367  41.822   8.396
 2082POPC   C3B30513  25.455  41.905   7.967
 2082POPC   C4B30514  25.697  42.253   7.798
 2083POPC   NC330515  38.645  40.304   9.452
 2083POPC   PO430516  39.011  39.704   9.399
 2083POPC   GL130517  38.629  39.813   9.103
 2083POPC   GL230518  38.388  40.134   9.040
 2083POPC   C1A30519  38.523  39.815   8.645
 2083POPC   D2A30520  38.663  39.968   8.218
 2083POPC   C3A30521  38.729  39.765   7.796
 2083POPC   C4A30522  38.733  39.679   7.323
 2083POPC   C1B30523  38.724  40.288   8.760
 2083POPC   C2B30524  38.964  40.348   8.371
 2083POPC   C3B30525  38.719  40.468   7.985
 2083POPC   C4B30526  38.334  40.275   7.856
 2084POPC   NC330527  27.350  20.837   9.448
 2084POPC   PO430528  27.674  20.260   9.632
 2084POPC   GL130529  27.693  20.526   9.228
 2084POPC   GL230530  27.378  20.513   9.058
 2084POPC   C1A30531  27.740  20.774   8.845
 2084POPC   D2A30532  27.664  20.599   8.446
 2084POPC   C3A30533  27.435  20.736   8.115
 2084POPC   C4A30534  27.667  20.508   7.828
 2084POPC   C1B30535  27.366  20.289   8.731
 2084POPC   C2B30536  27.181  20.309   8.354
 2084POPC   C3B30537  27.333  20.128   7.987
 2084POPC   C4B30538  27.343  20.228   7.561
 2085POPC   NC330539  22.344  25.506   9.360
 2085POPC   PO430540  21.802  25.202   9.453
 2085POPC   GL130541  21.881  25.381   9.050
 2085POPC   GL230542  22.145  25.592   8.903
 2085POPC   C1A30543  21.732  25.394   8.629
 2085POPC   D2A30544  21.898  25.097   8.306
 2085POPC   C3A30545  22.202  25.325   8.080
 2085POPC   C4A30546  22.056  25.649   7.800
 2085POPC   C1B30547  22.501  25.371   8.721
 2085POPC   C2B30548  22.699  25.368   8.313
 2085POPC   C3B30549  22.665  25.438   7.881
 2085POPC   C4B30550  22.491  25.691   7.552
 2086POPC   NC330551  38.991  20.183   9.773
 2086POPC   PO430552  39.474  20.647   9.802
 2086POPC   GL130553  39.345  20.576   9.328
 2086POPC   GL230554  39.620  20.695   9.098
 2086POPC   C1A30555  39.082  20.643   8.915
 2086POPC   D2A30556  38.990  20.397   8.492
 2086POPC   C3A30557  39.105  20.531   8.044
 2086POPC   C4A30558  38.883  20.693   7.665
 2086POPC   C1B30559  39.460  20.916   8.697
 2086POPC   C2B30560  39.367  20.964   8.239
 2086POPC   C3B30561  39.260  21.017   7.791
 2086POPC   C4B30562  39.097  21.051   7.349
 2087POPC   NC330563  34.065  19.670   9.562
 2087POPC   PO430564  33.851  20.244   9.216
 2087POPC   GL130565  33.730  19.787   9.142
 2087POPC   GL230566  33.402  19.595   9.243
 2087POPC   C1A30567  33.901  19.693   8.720
 2087POPC   D2A30568  34.091  19.941   8.389
 2087POPC   C3A30569  33.858  19.986   8.019
 2087POPC   C4A30570  34.108  20.064   7.686
 2087POPC   C1B30571  33.396  19.552   8.760
 2087POPC   C2B30572  33.578  19.548   8.303
 2087POPC   C3B30573  33.694  19.518   7.845
 2087POPC   C4B30574  33.524  19.406   7.427
 2088POPC   NC330575  39.767  28.866   9.611
 2088POPC   PO430576  40.387  29.196   9.717
 2088POPC   GL130577  40.133  29.064   9.308
 2088POPC   GL230578  40.058  29.352   9.084
 2088POPC   C1A30579  40.028  28.914   8.840
 2088POPC   D2A30580  39.928  28.804   8.379
 2088POPC   C3A30581  39.909  28.926   7.918
 2088POPC   C4A30582  39.743  28.668   7.558
 2088POPC   C1B30583  40.291  29.295   8.647
 2088POPC   C2B30584  40.245  29.176   8.217
 2088POPC   C3B30585  40.386  29.158   7.782
 2088POPC   C4B30586  40.319  29.289   7.328
 2089POPC   NC330587  24.323  19.959   9.568
 2089POPC   PO430588  24.890  20.140   9.286
 2089POPC   GL130589  24.497  19.937   9.084
 2089POPC   GL230590  24.226  19.664   9.173
 2089POPC   C1A30591  24.523  19.690   8.726
 2089POPC   D2A30592  24.696  19.718   8.345
 2089POPC   C3A30593  24.496  19.842   8.002
 2089POPC   C4A30594  24.705  19.959   7.606
 2089POPC   C1B30595  24.029  19.406   8.853
 2089POPC   C2B30596  24.205  19.409   8.421
 2089POPC   C3B30597  24.117  19.476   7.967
 2089POPC   C4B30598  24.309  19.650   7.580
 2090POPC   NC330599  38.345  33.327   9.600
 2090POPC   PO430600  38.599  32.713   9.582
 2090POPC   GL130601  38.453  32.934   9.217
 2090POPC   GL230602  38.786  32.995   8.997
 2090POPC   C1A30603  38.373  33.291   8.915
 2090POPC   D2A30604  38.640  33.317   8.560
 2090POPC   C3A30605  38.493  33.396   8.149
 2090POPC   C4A30606  38.238  33.226   7.798
 2090POPC   C1B30607  38.479  32.810   8.727
 2090POPC   C2B30608  38.288  32.983   8.383
 2090POPC   C3B30609  38.488  32.876   8.036
 2090POPC   C4B30610  38.321  32.705   7.653
 2091POPC   NC330611   7.721  27.355   9.634
 2091POPC   PO430612   8.480  27.275   9.660
 2091POPC   GL130613   8.331  27.618   9.371
 2091POPC   GL230614   8.120  27.380   9.213
 2091POPC   C1A30615   8.132  27.827   8.988
 2091POPC   D2A30616   8.242  27.952   8.585
 2091POPC   C3A30617   8.045  27.892   8.198
 2091POPC   C4A30618   8.098  27.835   7.762
 2091POPC   C1B30619   8.071  27.365   8.763
 2091POPC   C2B30620   7.919  27.419   8.333
 2091POPC   C3B30621   8.100  27.356   7.940
 2091POPC   C4B30622   8.410  27.376   7.626
 2092POPC   NC330623  31.742  24.414   9.518
 2092POPC   PO430624  31.350  24.716   9.772
 2092POPC   GL130625  31.383  24.743   9.301
 2092POPC   GL230626  31.067  24.721   9.116
 2092POPC   C1A30627  31.485  24.583   8.846
 2092POPC   D2A30628  31.405  24.340   8.429
 2092POPC   C3A30629  31.549  24.474   7.987
 2092POPC   C4A30630  31.447  24.613   7.541
 2092POPC   C1B30631  31.000  24.639   8.640
 2092POPC   C2B30632  31.112  24.687   8.176
 2092POPC   C3B30633  31.070  24.381   7.825
 2092POPC   C4B30634  30.991  24.385   7.367
 2093POPC   NC330635  28.181  23.304   9.909
 2093POPC   PO430636  28.574  23.474   9.448
 2093POPC   GL130637  28.363  23.570   9.118
 2093POPC   GL230638  28.609  23.810   9.036
 2093POPC   C1A30639  28.172  23.768   8.768
 2093POPC   D2A30640  28.008  23.853   8.381
 2093POPC   C3A30641  28.146  23.694   7.999
 2093POPC   C4A30642  28.286  23.962   7.707
 2093POPC   C1B30643  28.623  23.559   8.678
 2093POPC   C2B30644  28.628  23.680   8.242
 2093POPC   C3B30645  28.617  23.558   7.812
 2093POPC   C4B30646  28.862  23.392   7.489
 2094POPC   NC330647  38.438  17.029   9.340
 2094POPC   PO430648  38.190  16.444   9.494
 2094POPC   GL130649  38.521  16.413   9.211
 2094POPC   GL230650  38.279  16.301   8.989
 2094POPC   C1A30651  38.672  16.626   8.829
 2094POPC   D2A30652  38.488  16.679   8.426
 2094POPC   C3A30653  38.715  16.788   8.073
 2094POPC   C4A30654  38.526  16.816   7.675
 2094POPC   C1B30655  37.933  16.398   8.728
 2094POPC   C2B30656  37.950  16.638   8.398
 2094POPC   C3B30657  38.149  16.555   8.036
 2094POPC   C4B30658  37.917  16.351   7.728
 2095POPC   NC330659   6.281  32.908   9.484
 2095POPC   PO430660   6.761  33.321   9.604
 2095POPC   GL130661   6.686  33.118   9.208
 2095POPC   GL230662   6.398  33.317   9.169
 2095POPC   C1A30663   6.830  32.999   8.764
 2095POPC   D2A30664   6.981  33.232   8.381
 2095POPC   C3A30665   6.741  33.119   8.005
 2095POPC   C4A30666   6.727  33.007   7.550
 2095POPC   C1B30667   6.294  33.100   8.806
 2095POPC   C2B30668   6.330  33.214   8.380
 2095POPC   C3B30669   6.371  33.503   8.043
 2095POPC   C4B30670   6.292  33.297   7.674
 2096POPC   NC330671  28.395  34.640   9.343
 2096POPC   PO430672  28.628  34.097   9.527
 2096POPC   GL130673  28.362  34.181   9.139
 2096POPC   GL230674  28.006  34.310   9.211
 2096POPC   C1A30675  28.501  34.336   8.733
 2096POPC   D2A30676  28.572  34.487   8.283
 2096POPC   C3A30677  28.348  34.717   7.989
 2096POPC   C4A30678  28.469  34.628   7.553
 2096POPC   C1B30679  28.000  34.470   8.785
 2096POPC   C2B30680  28.118  34.290   8.413
 2096POPC   C3B30681  28.049  34.299   8.013
 2096POPC   C4B30682  27.965  34.556   7.704
 2097POPC   NC330683  18.693  28.202   9.342
 2097POPC   PO430684  19.299  28.440   9.414
 2097POPC   GL130685  19.087  28.474   9.051
 2097POPC   GL230686  18.820  28.679   9.206
 2097POPC   C1A30687  18.945  28.184   8.702
 2097POPC   D2A30688  18.732  28.084   8.317
 2097POPC   C3A30689  18.937  28.051   7.921
 2097POPC   C4A30690  19.187  28.359   7.710
 2097POPC   C1B30691  18.675  28.633   8.809
 2097POPC   C2B30692  18.968  28.639   8.454
 2097POPC   C3B30693  18.889  28.550   8.052
 2097POPC   C4B30694  18.957  28.811   7.712
 2098POPC   NC330695   9.089  33.748   9.665
 2098POPC   PO430696   8.531  33.816   9.659
 2098POPC   GL130697   8.857  33.898   9.248
 2098POPC   GL230698   9.029  33.576   9.165
 2098POPC   C1A30699   8.965  33.871   8.737
 2098POPC   D2A30700   8.765  33.541   8.454
 2098POPC   C3A30701   8.836  33.583   8.020
 2098POPC   C4A30702   8.964  33.912   7.733
 2098POPC   C1B30703   9.300  33.494   8.787
 2098POPC   C2B30704   9.255  33.421   8.328
 2098POPC   C3B30705   9.323  33.547   7.869
 2098POPC   C4B30706   9.350  33.699   7.419
 2099POPC   NC330707  37.159  14.563   9.706
 2099POPC   PO430708  36.499  14.644   9.468
 2099POPC   GL130709  36.760  14.392   9.180
 2099POPC   GL230710  37.128  14.442   9.171
 2099POPC   C1A30711  36.845  14.333   8.753
 2099POPC   D2A30712  36.708  14.497   8.365
 2099POPC   C3A30713  36.836  14.217   8.040
 2099POPC   C4A30714  36.762  14.062   7.650
 2099POPC   C1B30715  37.234  14.722   8.805
 2099POPC   C2B30716  37.123  14.876   8.384
 2099POPC   C3B30717  36.994  14.696   7.946
 2099POPC   C4B30718  37.209  14.358   7.690
 2100POPC   NC330719  32.418   1.749   9.518
 2100POPC   PO430720  31.872   2.130   9.593
 2100POPC   GL130721  32.041   2.026   9.177
 2100POPC   GL230722  32.385   2.085   9.116
 2100POPC   C1A30723  31.915   2.137   8.749
 2100POPC   D2A30724  31.766   1.980   8.355
 2100POPC   C3A30725  31.888   2.184   7.979
 2100POPC   C4A30726  32.016   2.081   7.567
 2100POPC   C1B30727  32.380   1.933   8.694
 2100POPC   C2B30728  32.279   2.093   8.306
 2100POPC   C3B30729  32.466   2.056   7.904
 2100POPC   C4B30730  32.590   1.753   7.630
 2101POPC   NC330731   6.833   8.620   9.459
 2101POPC   PO430732   6.254   8.267   9.483
 2101POPC   GL130733   6.439   8.236   9.119
 2101POPC   GL230734   6.441   8.570   9.073
 2101POPC   C1A30735   6.674   8.181   8.731
 2101POPC   D2A30736   6.653   8.314   8.302
 2101POPC   C3A30737   6.753   8.054   7.935
 2101POPC   C4A30738   6.554   8.167   7.527
 2101POPC   C1B30739   6.729   8.716   8.774
 2101POPC   C2B30740   6.968   8.750   8.435
 2101POPC   C3B30741   6.753   8.766   8.079
 2101POPC   C4B30742   6.876   8.495   7.771
 2102POPC   NC330743  28.234   4.770   9.865
 2102POPC   PO430744  28.365   5.454   9.706
 2102POPC   GL130745  28.399   5.288   9.230
 2102POPC   GL230746  28.644   4.991   9.024
 2102POPC   C1A30747  28.235   5.181   8.821
 2102POPC   D2A30748  28.351   4.828   8.566
 2102POPC   C3A30749  28.335   4.879   8.132
 2102POPC   C4A30750  28.129   5.081   7.819
 2102POPC   C1B30751  28.794   4.629   8.766
 2102POPC   C2B30752  28.941   4.641   8.338
 2102POPC   C3B30753  28.793   4.738   7.930
 2102POPC   C4B30754  28.514   4.840   7.611
 2103POPC   NC330755   2.664   4.525   9.439
 2103POPC   PO430756   2.798   3.888   9.369
 2103POPC   GL130757   2.823   4.175   9.063
 2103POPC   GL230758   2.519   4.367   8.989
 2103POPC   C1A30759   2.896   4.218   8.641
 2103POPC   D2A30760   2.710   4.208   8.260
 2103POPC   C3A30761   2.678   4.482   7.928
 2103POPC   C4A30762   2.873   4.230   7.608
 2103POPC   C1B30763   2.371   4.146   8.649
 2103POPC   C2B30764   2.197   4.176   8.253
 2103POPC   C3B30765   2.425   4.051   7.862
 2103POPC   C4B30766   2.400   4.289   7.455
 2104POPC   NC330767  26.049  23.167   9.328
 2104POPC   PO430768  26.060  22.506   9.541
 2104POPC   GL130769  25.854  22.717   9.138
 2104POPC   GL230770  25.592  23.018   9.089
 2104POPC   C1A30771  25.885  22.857   8.683
 2104POPC   D2A30772  26.185  22.878   8.313
 2104POPC   C3A30773  26.087  22.801   7.878
 2104POPC   C4A30774  26.292  23.015   7.528
 2104POPC   C1B30775  25.568  23.243   8.674
 2104POPC   C2B30776  25.721  23.183   8.260
 2104POPC   C3B30777  25.473  23.161   7.871
 2104POPC   C4B30778  25.393  22.912   7.471
 2105POPC   NC330779  16.347   7.062   9.449
 2105POPC   PO430780  15.649   7.273   9.441
 2105POPC   GL130781  15.962   7.362   9.121
 2105POPC   GL230782  16.141   7.062   8.965
 2105POPC   C1A30783  15.948   7.475   8.669
 2105POPC   D2A30784  15.792   7.320   8.257
 2105POPC   C3A30785  16.080   7.294   7.899
 2105POPC   C4A30786  16.300   7.596   7.624
 2105POPC   C1B30787  15.687   7.044   8.796
 2105POPC   C2B30788  15.475   6.945   8.376
 2105POPC   C3B30789  15.469   7.121   7.913
 2105POPC   C4B30790  15.746   7.054   7.543
 2106POPC   NC330791  12.202   0.242   9.478
 2106POPC   PO430792  12.019   0.835   9.550
 2106POPC   GL130793  12.054   0.625   9.172
 2106POPC   GL230794  11.759   0.739   9.077
 2106POPC   C1A30795  12.193   0.353   8.807
 2106POPC   D2A30796  12.433   0.264   8.425
 2106POPC   C3A30797  12.189   0.368   8.045
 2106POPC   C4A30798  12.034   0.278   7.646
 2106POPC   C1B30799  11.702   0.456   8.730
 2106POPC   C2B30800  11.755   0.494   8.292
 2106POPC   C3B30801  11.828   0.707   7.894
 2106POPC   C4B30802  11.569   0.501   7.591
 2107POPC   NC330803  21.689   4.886   9.694
 2107POPC   PO430804  22.085   5.474   9.561
 2107POPC   GL130805  22.125   5.228   9.217
 2107POPC   GL230806  21.885   5.464   9.062
 2107POPC   C1A30807  22.135   4.955   8.861
 2107POPC   D2A30808  22.099   5.035   8.422
 2107POPC   C3A30809  22.385   4.900   8.120
 2107POPC   C4A30810  22.145   4.865   7.751
 2107POPC   C1B30811  22.248   5.434   8.764
 2107POPC   C2B30812  22.429   5.388   8.301
 2107POPC   C3B30813  22.371   5.328   7.831
 2107POPC   C4B30814  22.184   5.515   7.451
 2108POPC   NC330815  38.028  24.767   9.546
 2108POPC   PO430816  37.450  24.371   9.403
 2108POPC   GL130817  37.595  24.520   9.073
 2108POPC   GL230818  37.743  24.810   9.132
 2108POPC   C1A30819  37.677  24.358   8.702
 2108POPC   D2A30820  37.450  24.434   8.358
 2108POPC   C3A30821  37.662  24.256   8.044
 2108POPC   C4A30822  37.560  24.389   7.668
 2108POPC   C1B30823  37.965  24.773   8.784
 2108POPC   C2B30824  37.910  24.668   8.372
 2108POPC   C3B30825  37.707  24.765   8.028
 2108POPC   C4B30826  37.720  24.864   7.639
 2109POPC   NC330827  19.980  14.367   9.507
 2109POPC   PO430828  19.282  14.498   9.450
 2109POPC   GL130829  19.563  14.283   9.141
 2109POPC   GL230830  19.892  14.106   9.074
 2109POPC   C1A30831  19.675  14.423   8.745
 2109POPC   D2A30832  19.557  14.433   8.364
 2109POPC   C3A30833  19.781  14.535   8.035
 2109POPC   C4A30834  19.615  14.618   7.657
 2109POPC   C1B30835  20.156  14.345   8.802
 2109POPC   C2B30836  20.089  14.287   8.398
 2109POPC   C3B30837  20.100  14.149   8.015
 2109POPC   C4B30838  20.095  14.372   7.646
 2110POPC   NC330839  36.209  36.498   9.948
 2110POPC   PO430840  36.207  35.997   9.413
 2110POPC   GL130841  36.317  36.134   8.982
 2110POPC   GL230842  36.078  36.421   8.982
 2110POPC   C1A30843  36.446  36.002   8.525
 2110POPC   D2A30844  36.295  35.797   8.126
 2110POPC   C3A30845  36.292  36.072   7.732
 2110POPC   C4A30846  36.127  36.375   7.390
 2110POPC   C1B30847  36.014  36.300   8.582
 2110POPC   C2B30848  36.089  36.252   8.169
 2110POPC   C3B30849  35.860  36.369   7.825
 2110POPC   C4B30850  35.497  36.329   7.582
 2111POPC   NC330851  26.748  10.491   9.549
 2111POPC   PO430852  26.697   9.842   9.377
 2111POPC   GL130853  26.690  10.224   9.103
 2111POPC   GL230854  26.944  10.470   9.095
 2111POPC   C1A30855  26.601  10.467   8.694
 2111POPC   D2A30856  26.402  10.700   8.350
 2111POPC   C3A30857  26.571  10.660   7.976
 2111POPC   C4A30858  26.634  10.312   7.738
 2111POPC   C1B30859  27.138  10.549   8.743
 2111POPC   C2B30860  26.981  10.594   8.360
 2111POPC   C3B30861  27.038  10.485   7.976
 2111POPC   C4B30862  27.059  10.888   7.771
 2112POPC   NC330863  14.891  18.995   9.484
 2112POPC   PO430864  15.577  19.120   9.613
 2112POPC   GL130865  15.323  19.237   9.221
 2112POPC   GL230866  15.237  18.905   9.133
 2112POPC   C1A30867  15.220  19.286   8.745
 2112POPC   D2A30868  15.007  19.402   8.302
 2112POPC   C3A30869  15.241  19.339   7.915
 2112POPC   C4A30870  14.979  19.206   7.562
 2112POPC   C1B30871  15.225  18.723   8.758
 2112POPC   C2B30872  15.087  18.907   8.393
 2112POPC   C3B30873  15.034  18.896   7.977
 2112POPC   C4B30874  15.287  18.790   7.598
 2113POPC   NC330875   9.521  23.110   9.484
 2113POPC   PO430876   9.900  22.639   9.659
 2113POPC   GL130877   9.904  22.872   9.230
 2113POPC   GL230878   9.630  22.730   9.077
 2113POPC   C1A30879   9.730  23.189   8.869
 2113POPC   D2A30880   9.384  23.279   8.558
 2113POPC   C3A30881   9.393  23.009   8.196
 2113POPC   C4A30882   9.475  23.155   7.782
 2113POPC   C1B30883   9.781  22.745   8.618
 2113POPC   C2B30884   9.904  22.758   8.171
 2113POPC   C3B30885   9.921  22.943   7.748
 2113POPC   C4B30886  10.065  22.846   7.335
 2114POPC   NC330887  33.524  41.432   9.335
 2114POPC   PO430888  34.147  41.362   9.580
 2114POPC   GL130889  34.015  41.445   9.143
 2114POPC   GL230890  33.831  41.760   9.050
 2114POPC   C1A30891  33.844  41.380   8.718
 2114POPC   D2A30892  33.660  41.259   8.339
 2114POPC   C3A30893  33.875  41.206   8.005
 2114POPC   C4A30894  33.966  41.313   7.609
 2114POPC   C1B30895  33.650  41.843   8.607
 2114POPC   C2B30896  33.782  41.774   8.194
 2114POPC   C3B30897  33.739  41.728   7.761
 2114POPC   C4B30898  33.674  41.820   7.294
 2115POPC   NC330899  41.230  44.123   9.388
 2115POPC   PO430900  41.481  43.608   9.664
 2115POPC   GL130901  41.642  43.699   9.201
 2115POPC   GL230902  41.660  44.063   9.112
 2115POPC   C1A30903  41.496  43.723   8.757
 2115POPC   D2A30904  41.462  43.965   8.391
 2115POPC   C3A30905  41.575  43.750   8.025
 2115POPC   C4A30906  41.440  43.520   7.682
 2115POPC   C1B30907  41.897  44.038   8.740
 2115POPC   C2B30908  42.064  44.079   8.329
 2115POPC   C3B30909  41.887  44.149   7.920
 2115POPC   C4B30910  41.485  44.232   7.835
 2116POPC   NC330911  23.320  17.264   9.569
 2116POPC   PO430912  23.340  16.593   9.472
 2116POPC   GL130913  23.609  16.753   9.148
 2116POPC   GL230914  23.723  17.073   9.218
 2116POPC   C1A30915  23.900  16.788   8.788
 2116POPC   D2A30916  23.741  16.830   8.355
 2116POPC   C3A30917  23.950  16.533   8.065
 2116POPC   C4A30918  24.075  16.634   7.635
 2116POPC   C1B30919  23.503  17.105   8.788
 2116POPC   C2B30920  23.206  17.098   8.452
 2116POPC   C3B30921  23.340  17.039   8.069
 2116POPC   C4B30922  23.673  16.887   7.833
 2117POPC   NC330923  23.949  11.084   9.536
 2117POPC   PO430924  23.451  11.553   9.704
 2117POPC   GL130925  23.713  11.460   9.245
 2117POPC   GL230926  23.866  11.139   9.062
 2117POPC   C1A30927  23.701  11.533   8.752
 2117POPC   D2A30928  23.656  11.392   8.276
 2117POPC   C3A30929  23.818  11.569   7.893
 2117POPC   C4A30930  23.766  11.319   7.518
 2117POPC   C1B30931  23.828  11.051   8.665
 2117POPC   C2B30932  23.714  10.884   8.313
 2117POPC   C3B30933  23.804  10.990   7.912
 2117POPC   C4B30934  24.187  11.219   7.804
 2118POPC   NC330935  12.155  14.824   9.532
 2118POPC   PO430936  12.580  15.332   9.347
 2118POPC   GL130937  12.326  15.098   9.062
 2118POPC   GL230938  11.969  15.036   9.090
 2118POPC   C1A30939  12.240  15.105   8.614
 2118POPC   D2A30940  12.241  15.176   8.185
 2118POPC   C3A30941  12.336  14.821   7.934
 2118POPC   C4A30942  12.183  14.714   7.518
 2118POPC   C1B30943  11.841  15.361   8.782
 2118POPC   C2B30944  11.744  15.336   8.318
 2118POPC   C3B30945  11.811  15.193   7.867
 2118POPC   C4B30946  11.559  15.290   7.485
 2119POPC   NC330947  16.852  14.367   9.736
 2119POPC   PO430948  16.446  14.771   9.389
 2119POPC   GL130949  16.794  14.562   9.164
 2119POPC   GL230950  16.798  14.211   9.231
 2119POPC   C1A30951  16.989  14.451   8.761
 2119POPC   D2A30952  16.729  14.539   8.396
 2119POPC   C3A30953  16.808  14.526   7.966
 2119POPC   C4A30954  17.049  14.270   7.700
 2119POPC   C1B30955  16.660  14.088   8.802
 2119POPC   C2B30956  16.807  13.997   8.385
 2119POPC   C3B30957  16.663  14.026   7.984
 2119POPC   C4B30958  16.784  13.842   7.634
 2120POPC   NC330959  20.006   9.063   9.664
 2120POPC   PO430960  19.545   8.522   9.492
 2120POPC   GL130961  19.641   8.820   9.175
 2120POPC   GL230962  19.994   8.894   9.167
 2120POPC   C1A30963  19.666   8.981   8.741
 2120POPC   D2A30964  19.833   9.309   8.471
 2120POPC   C3A30965  19.744   9.186   8.055
 2120POPC   C4A30966  19.791   9.020   7.647
 2120POPC   C1B30967  20.136   8.781   8.775
 2120POPC   C2B30968  20.025   8.824   8.356
 2120POPC   C3B30969  20.186   8.799   7.959
 2120POPC   C4B30970  20.249   8.859   7.504
 2121POPC   NC330971  37.142  19.143   9.600
 2121POPC   PO430972  36.808  18.703   9.348
 2121POPC   GL130973  37.083  18.910   9.099
 2121POPC   GL230974  36.920  19.245   9.128
 2121POPC   C1A30975  37.059  18.773   8.664
 2121POPC   D2A30976  36.668  18.784   8.399
 2121POPC   C3A30977  36.799  18.780   7.948
 2121POPC   C4A30978  36.840  18.775   7.471
 2121POPC   C1B30979  36.820  19.229   8.702
 2121POPC   C2B30980  37.023  19.148   8.301
 2121POPC   C3B30981  37.113  19.187   7.868
 2121POPC   C4B30982  37.064  19.431   7.535
 2122POPC   NC330983  34.222  18.281   9.591
 2122POPC   PO430984  34.813  18.481   9.651
 2122POPC   GL130985  34.509  18.514   9.234
 2122POPC   GL230986  34.274  18.217   9.097
 2122POPC   C1A30987  34.460  18.530   8.766
 2122POPC   D2A30988  34.697  18.312   8.461
 2122POPC   C3A30989  34.645  18.442   8.058
 2122POPC   C4A30990  34.619  18.309   7.635
 2122POPC   C1B30991  34.274  17.946   8.702
 2122POPC   C2B30992  34.314  18.025   8.230
 2122POPC   C3B30993  34.475  17.810   7.856
 2122POPC   C4B30994  34.450  17.874   7.394
 2123POPC   NC330995  37.201  18.453   9.340
 2123POPC   PO430996  37.790  18.110   9.607
 2123POPC   GL130997  37.638  18.211   9.224
 2123POPC   GL230998  37.739  18.516   9.258
 2123POPC   C1A30999  37.590  18.339   8.786
 2123POPC   D2A31000  37.428  18.279   8.365
 2123POPC   C3A31001  37.616  17.960   8.113
 2123POPC   C4A31002  37.666  18.279   7.816
 2123POPC   C1B31003  37.994  18.655   8.946
 2123POPC   C2B31004  38.013  18.728   8.510
 2123POPC   C3B31005  37.808  18.654   8.148
 2123POPC   C4B31006  37.959  18.679   7.734
 2124POPC   NC331007  39.649  12.287   9.474
 2124POPC   PO431008  40.307  12.250   9.682
 2124POPC   GL131009  40.214  12.089   9.229
 2124POPC   GL231010  39.902  11.878   9.139
 2124POPC   C1A31011  40.348  11.894   8.856
 2124POPC   D2A31012  40.368  12.039   8.428
 2124POPC   C3A31013  40.118  11.876   8.093
 2124POPC   C4A31014  39.825  12.081   7.842
 2124POPC   C1B31015  39.910  12.108   8.716
 2124POPC   C2B31016  39.771  12.297   8.311
 2124POPC   C3B31017  39.502  12.453   7.936
 2124POPC   C4B31018  39.569  12.484   7.496
 2125POPC   NC331019  13.710  10.820   9.627
 2125POPC   PO431020  13.304  11.374   9.528
 2125POPC   GL131021  13.460  11.311   9.138
 2125POPC   GL231022  13.474  11.648   9.096
 2125POPC   C1A31023  13.511  11.092   8.758
 2125POPC   D2A31024  13.856  11.131   8.464
 2125POPC   C3A31025  13.710  11.049   8.086
 2125POPC   C4A31026  13.862  11.130   7.720
 2125POPC   C1B31027  13.733  11.547   8.748
 2125POPC   C2B31028  13.791  11.641   8.324
 2125POPC   C3B31029  13.633  11.568   7.922
 2125POPC   C4B31030  13.322  11.546   7.574
 2126POPC   NC331031  31.037   3.970   9.502
 2126POPC   PO431032  30.494   4.338   9.563
 2126POPC   GL131033  30.532   4.397   9.175
 2126POPC   GL231034  30.862   4.308   9.103
 2126POPC   C1A31035  30.433   4.462   8.781
 2126POPC   D2A31036  30.523   4.646   8.422
 2126POPC   C3A31037  30.605   4.371   8.072
 2126POPC   C4A31038  30.317   4.290   7.741
 2126POPC   C1B31039  30.936   4.508   8.678
 2126POPC   C2B31040  31.024   4.637   8.210
 2126POPC   C3B31041  30.990   4.525   7.762
 2126POPC   C4B31042  31.223   4.234   7.495
 2127POPC   NC331043  11.278  11.480   9.650
 2127POPC   PO431044  11.364  10.770   9.577
 2127POPC   GL131045  11.411  11.144   9.247
 2127POPC   GL231046  11.092  11.331   9.204
 2127POPC   C1A31047  11.547  11.099   8.800
 2127POPC   D2A31048  11.396  10.860   8.428
 2127POPC   C3A31049  11.470  11.115   8.080
 2127POPC   C4A31050  11.419  11.339   7.722
 2127POPC   C1B31051  11.038  11.143   8.832
 2127POPC   C2B31052  11.117  11.289   8.458
 2127POPC   C3B31053  11.096  11.490   8.085
 2127POPC   C4B31054  11.082  11.713   7.712
 2128POPC   NC331055   5.195   7.776   9.402
 2128POPC   PO431056   5.075   7.125   9.592
 2128POPC   GL131057   4.935   7.366   9.223
 2128POPC   GL231058   5.298   7.361   9.114
 2128POPC   C1A31059   4.962   7.505   8.761
 2128POPC   D2A31060   5.248   7.316   8.406
 2128POPC   C3A31061   5.112   7.192   7.945
 2128POPC   C4A31062   4.934   7.468   7.571
 2128POPC   C1B31063   5.520   7.586   8.769
 2128POPC   C2B31064   5.739   7.647   8.405
 2128POPC   C3B31065   5.462   7.659   8.061
 2128POPC   C4B31066   5.435   7.469   7.663
 2129POPC   NC331067  35.773  39.560   9.494
 2129POPC   PO431068  36.362  39.903   9.580
 2129POPC   GL131069  36.384  40.024   9.178
 2129POPC   GL231070  36.039  39.885   9.138
 2129POPC   C1A31071  36.456  40.188   8.782
 2129POPC   D2A31072  36.437  39.991   8.389
 2129POPC   C3A31073  36.391  40.225   8.020
 2129POPC   C4A31074  36.369  39.948   7.693
 2129POPC   C1B31075  35.712  39.987   8.847
 2129POPC   C2B31076  35.755  40.135   8.448
 2129POPC   C3B31077  35.962  39.951   8.097
 2129POPC   C4B31078  35.906  40.111   7.684
 2130POPC   NC331079  41.075  31.220   9.510
 2130POPC   PO431080  40.497  31.589   9.546
 2130POPC   GL131081  40.776  31.524   9.212
 2130POPC   GL231082  40.640  31.205   9.109
 2130POPC   C1A31083  41.003  31.414   8.825
 2130POPC   D2A31084  41.061  31.220   8.433
 2130POPC   C3A31085  41.038  31.393   7.997
 2130POPC   C4A31086  41.068  31.611   7.563
 2130POPC   C1B31087  40.520  31.507   8.744
 2130POPC   C2B31088  40.507  31.547   8.297
 2130POPC   C3B31089  40.591  31.580   7.866
 2130POPC   C4B31090  40.736  31.235   7.599
 2131POPC   NC331091  28.538   0.268   9.593
 2131POPC   PO431092  27.800   0.399   9.785
 2131POPC   GL131093  28.095   0.381   9.352
 2131POPC   GL231094  28.073   0.102   9.082
 2131POPC   C1A31095  28.411   0.480   8.967
 2131POPC   D2A31096  28.372   0.762   8.565
 2131POPC   C3A31097  28.390   0.578   8.125
 2131POPC   C4A31098  28.662   0.416   7.797
 2131POPC   C1B31099  28.338  44.991   8.709
 2131POPC   C2B31100  28.419  44.844   8.260
 2131POPC   C3B31101  28.266   0.088   7.904
 2131POPC   C4B31102  27.951   0.428   7.794
 2132POPC   NC331103  12.398   7.655   9.481
 2132POPC   PO431104  11.896   7.222   9.425
 2132POPC   GL131105  11.962   7.595   9.223
 2132POPC   GL231106  12.249   7.527   9.033
 2132POPC   C1A31107  11.831   7.719   8.822
 2132POPC   D2A31108  11.859   7.599   8.395
 2132POPC   C3A31109  12.169   7.697   8.071
 2132POPC   C4A31110  12.109   7.453   7.698
 2132POPC   C1B31111  12.469   7.335   8.743
 2132POPC   C2B31112  12.299   7.270   8.347
 2132POPC   C3B31113  12.436   7.144   7.948
 2132POPC   C4B31114  12.569   7.277   7.553
 2133POPC   NC331115  43.372   1.976   9.755
 2133POPC   PO431116  43.922   2.330   9.426
 2133POPC   GL131117  43.952   2.120   9.098
 2133POPC   GL231118  43.957   1.806   9.180
 2133POPC   C1A31119  44.038   2.188   8.680
 2133POPC   D2A31120  43.922   2.286   8.249
 2133POPC   C3A31121  44.101   2.322   7.817
 2133POPC   C4A31122  44.040   2.171   7.393
 2133POPC   C1B31123  44.007   1.679   8.795
 2133POPC   C2B31124  43.824   1.773   8.404
 2133POPC   C3B31125  43.940   1.851   7.988
 2133POPC   C4B31126  43.881   1.676   7.594
 2134POPC   NC331127   2.072   8.812   9.470
 2134POPC   PO431128   1.731   9.447   9.378
 2134POPC   GL131129   1.983   9.362   9.037
 2134POPC   GL231130   2.202   9.058   9.049
 2134POPC   C1A31131   2.018   9.259   8.601
 2134POPC   D2A31132   2.242   9.262   8.235
 2134POPC   C3A31133   2.024   9.005   7.998
 2134POPC   C4A31134   1.958   9.257   7.709
 2134POPC   C1B31135   1.815   8.865   8.854
 2134POPC   C2B31136   1.751   8.781   8.424
 2134POPC   C3B31137   1.623   8.683   8.024
 2134POPC   C4B31138   1.535   8.979   7.692
 2135POPC   NC331139  38.528  31.478   9.520
 2135POPC   PO431140  37.883  31.451   9.577
 2135POPC   GL131141  38.167  31.495   9.151
 2135POPC   GL231142  38.468  31.761   9.045
 2135POPC   C1A31143  38.338  31.359   8.769
 2135POPC   D2A31144  38.526  31.573   8.428
 2135POPC   C3A31145  38.380  31.417   8.042
 2135POPC   C4A31146  38.497  31.468   7.634
 2135POPC   C1B31147  38.165  31.866   8.675
 2135POPC   C2B31148  38.034  31.781   8.201
 2135POPC   C3B31149  38.077  31.762   7.718
 2135POPC   C4B31150  38.329  31.779   7.273
 2136POPC   NC331151  20.252  20.390   9.436
 2136POPC   PO431152  19.626  20.639   9.486
 2136POPC   GL131153  19.750  20.364   9.179
 2136POPC   GL231154  19.450  20.230   9.032
 2136POPC   C1A31155  20.001  20.538   8.842
 2136POPC   D2A31156  19.899  20.809   8.511
 2136POPC   C3A31157  19.803  20.590   8.167
 2136POPC   C4A31158  19.941  20.688   7.756
 2136POPC   C1B31159  19.489  20.663   8.803
 2136POPC   C2B31160  19.420  20.958   8.411
 2136POPC   C3B31161  19.506  20.944   7.954
 2136POPC   C4B31162  19.614  20.999   7.485
 2137POPC   NC331163  15.662  26.076   9.294
 2137POPC   PO431164  16.339  26.214   9.430
 2137POPC   GL131165  16.073  26.210   9.067
 2137POPC   GL231166  15.972  25.837   8.974
 2137POPC   C1A31167  15.998  26.225   8.643
 2137POPC   D2A31168  16.206  26.450   8.336
 2137POPC   C3A31169  16.093  26.222   8.008
 2137POPC   C4A31170  15.978  26.129   7.613
 2137POPC   C1B31171  15.611  25.866   8.690
 2137POPC   C2B31172  15.444  25.748   8.299
 2137POPC   C3B31173  15.591  25.894   7.901
 2137POPC   C4B31174  15.548  25.841   7.475
 2138POPC   NC331175  17.298  16.537   9.584
 2138POPC   PO431176  17.765  16.914   9.343
 2138POPC   GL131177  17.425  16.631   9.096
 2138POPC   GL231178  17.146  16.326   9.161
 2138POPC   C1A31179  17.498  16.711   8.663
 2138POPC   D2A31180  17.850  16.746   8.392
 2138POPC   C3A31181  17.707  16.653   7.981
 2138POPC   C4A31182  17.420  16.865   7.740
 2138POPC   C1B31183  17.343  16.216   8.785
 2138POPC   C2B31184  17.209  16.362   8.402
 2138POPC   C3B31185  17.144  16.524   8.007
 2138POPC   C4B31186  17.372  16.356   7.670
 2139POPC   NC331187  15.463  27.799   9.513
 2139POPC   PO431188  14.932  27.357   9.413
 2139POPC   GL131189  15.093  27.450   9.054
 2139POPC   GL231190  15.183  27.824   9.059
 2139POPC   C1A31191  15.227  27.341   8.654
 2139POPC   D2A31192  15.361  27.553   8.294
 2139POPC   C3A31193  15.229  27.350   7.973
 2139POPC   C4A31194  15.302  27.484   7.562
 2139POPC   C1B31195  14.932  27.742   8.662
 2139POPC   C2B31196  14.867  27.616   8.243
 2139POPC   C3B31197  15.116  27.834   7.922
 2139POPC   C4B31198  15.054  27.910   7.478
 2140POPC   NC331199  19.863  33.160   9.489
 2140POPC   PO431200  20.238  32.591   9.409
 2140POPC   GL131201  19.895  32.696   9.105
 2140POPC   GL231202  19.538  32.853   9.156
 2140POPC   C1A31203  19.887  32.738   8.644
 2140POPC   D2A31204  19.841  33.066   8.312
 2140POPC   C3A31205  20.136  33.124   7.967
 2140POPC   C4A31206  20.162  32.975   7.551
 2140POPC   C1B31207  19.513  33.095   8.754
 2140POPC   C2B31208  19.417  33.324   8.348
 2140POPC   C3B31209  19.405  33.123   7.983
 2140POPC   C4B31210  19.690  33.109   7.691
 2141POPC   NC331211  37.130  30.275   9.889
 2141POPC   PO431212  37.036  29.641   9.565
 2141POPC   GL131213  36.962  29.688   9.124
 2141POPC   GL231214  37.035  30.067   9.128
 2141POPC   C1A31215  36.977  29.811   8.696
 2141POPC   D2A31216  37.176  30.123   8.441
 2141POPC   C3A31217  37.095  29.984   8.037
 2141POPC   C4A31218  36.798  29.677   7.824
 2141POPC   C1B31219  36.809  30.292   8.787
 2141POPC   C2B31220  36.721  30.365   8.322
 2141POPC   C3B31221  36.615  30.145   7.918
 2141POPC   C4B31222  36.574  30.302   7.451
 2142POPC   NC331223  17.475  32.608   9.562
 2142POPC   PO431224  17.844  33.211   9.504
 2142POPC   GL131225  17.556  33.036   9.199
 2142POPC   GL231226  17.665  32.713   9.085
 2142POPC   C1A31227  17.608  33.118   8.740
 2142POPC   D2A31228  17.400  33.354   8.411
 2142POPC   C3A31229  17.387  33.245   7.989
 2142POPC   C4A31230  17.456  33.176   7.519
 2142POPC   C1B31231  17.489  32.621   8.668
 2142POPC   C2B31232  17.533  32.831   8.280
 2142POPC   C3B31233  17.454  32.745   7.860
 2142POPC   C4B31234  17.149  32.788   7.512
 2143POPC   NC331235  20.926  23.026   9.450
 2143POPC   PO431236  20.210  23.124   9.500
 2143POPC   GL131237  20.318  22.851   9.154
 2143POPC   GL231238  20.685  22.880   9.008
 2143POPC   C1A31239  20.319  22.596   8.807
 2143POPC   D2A31240  20.687  22.595   8.530
 2143POPC   C3A31241  20.601  22.724   8.109
 2143POPC   C4A31242  20.797  22.807   7.716
 2143POPC   C1B31243  20.402  23.088   8.694
 2143POPC   C2B31244  20.253  23.303   8.355
 2143POPC   C3B31245  20.480  23.244   7.991
 2143POPC   C4B31246  20.300  22.932   7.736
 2144POPC   NC331247  29.574  18.835   9.356
 2144POPC   PO431248  30.125  19.283   9.643
 2144POPC   GL131249  30.068  18.988   9.280
 2144POPC   GL231250  29.821  19.065   8.998
 2144POPC   C1A31251  30.252  18.800   8.906
 2144POPC   D2A31252  30.168  18.838   8.461
 2144POPC   C3A31253  30.164  19.177   8.173
 2144POPC   C4A31254  30.090  18.870   7.866
 2144POPC   C1B31255  29.548  19.069   8.657
 2144POPC   C2B31256  29.666  19.027   8.252
 2144POPC   C3B31257  29.414  19.034   7.921
 2144POPC   C4B31258  29.688  19.119   7.658
 2145POPC   NC331259  14.350  41.767   9.516
 2145POPC   PO431260  14.296  41.042   9.475
 2145POPC   GL131261  14.133  41.374   9.206
 2145POPC   GL231262  14.231  41.713   9.024
 2145POPC   C1A31263  13.982  41.335   8.811
 2145POPC   D2A31264  14.173  41.533   8.446
 2145POPC   C3A31265  14.071  41.362   8.033
 2145POPC   C4A31266  14.389  41.380   7.738
 2145POPC   C1B31267  14.264  42.008   8.633
 2145POPC   C2B31268  14.426  41.929   8.207
 2145POPC   C3B31269  14.458  41.882   7.749
 2145POPC   C4B31270  14.227  42.026   7.318
 2146POPC   NC331271  32.049  41.248   9.407
 2146POPC   PO431272  32.218  41.994   9.450
 2146POPC   GL131273  32.293  41.732   9.115
 2146POPC   GL231274  32.579  41.863   8.937
 2146POPC   C1A31275  32.085  41.603   8.731
 2146POPC   D2A31276  31.863  41.694   8.313
 2146POPC   C3A31277  32.025  41.657   7.873
 2146POPC   C4A31278  31.926  41.399   7.496
 2146POPC   C1B31279  32.606  41.415   8.798
 2146POPC   C2B31280  32.729  41.286   8.370
 2146POPC   C3B31281  32.835  41.541   8.000
 2146POPC   C4B31282  32.510  41.851   7.893
 2147POPC   NC331283  21.756  26.010   9.724
 2147POPC   PO431284  22.372  25.995   9.410
 2147POPC   GL131285  22.095  26.092   9.145
 2147POPC   GL231286  21.838  25.861   9.223
 2147POPC   C1A31287  22.286  26.051   8.752
 2147POPC   D2A31288  22.286  25.744   8.397
 2147POPC   C3A31289  22.442  25.923   8.013
 2147POPC   C4A31290  22.441  26.348   7.868
 2147POPC   C1B31291  21.778  25.992   8.768
 2147POPC   C2B31292  21.978  26.205   8.393
 2147POPC   C3B31293  21.969  26.145   7.953
 2147POPC   C4B31294  21.721  25.978   7.603
 2148POPC   NC331295  18.349  34.836   9.511
 2148POPC   PO431296  17.862  34.459   9.334
 2148POPC   GL131297  18.199  34.509   9.108
 2148POPC   GL231298  18.041  34.836   9.015
 2148POPC   C1A31299  18.284  34.380   8.691
 2148POPC   D2A31300  18.499  34.501   8.331
 2148POPC   C3A31301  18.289  34.462   7.964
 2148POPC   C4A31302  18.143  34.100   7.760
 2148POPC   C1B31303  18.453  34.857   8.791
 2148POPC   C2B31304  18.645  34.991   8.384
 2148POPC   C3B31305  18.484  34.944   7.956
 2148POPC   C4B31306  18.323  34.777   7.564
 2149POPC   NC331307  44.217  14.411   9.504
 2149POPC   PO431308  43.535  14.241   9.483
 2149POPC   GL131309  43.713  14.478   9.138
 2149POPC   GL231310  44.025  14.680   9.089
 2149POPC   C1A31311  43.805  14.318   8.756
 2149POPC   D2A31312  44.028  14.442   8.418
 2149POPC   C3A31313  43.776  14.555   8.132
 2149POPC   C4A31314  43.833  14.561   7.724
 2149POPC   C1B31315  44.225  14.842   8.696
 2149POPC   C2B31316  44.217  14.869   8.243
 2149POPC   C3B31317  44.292  14.564   7.958
 2149POPC   C4B31318  44.297  14.438   7.561
 2150POPC   NC331319  30.290  37.606   9.535
 2150POPC   PO431320  29.742  37.535   9.542
 2150POPC   GL131321  29.938  37.687   9.132
 2150POPC   GL231322  30.191  37.471   8.967
 2150POPC   C1A31323  29.951  37.811   8.673
 2150POPC   D2A31324  30.015  37.565   8.275
 2150POPC   C3A31325  29.838  37.747   7.905
 2150POPC   C4A31326  29.731  38.142   7.737
 2150POPC   C1B31327  29.801  37.330   8.702
 2150POPC   C2B31328  29.618  37.220   8.267
 2150POPC   C3B31329  29.695  37.278   7.827
 2150POPC   C4B31330  30.060  37.395   7.561
 2151POPC   NC331331  41.374   0.824   9.786
 2151POPC   PO431332  41.851   0.385   9.622
 2151POPC   GL131333  41.813   0.262   9.143
 2151POPC   GL231334  42.111   0.232   8.947
 2151POPC   C1A31335  41.630   0.350   8.728
 2151POPC   D2A31336  41.647   0.628   8.381
 2151POPC   C3A31337  41.313   0.581   8.121
 2151POPC   C4A31338  41.436   0.551   7.748
 2151POPC   C1B31339  41.865  44.899   8.785
 2151POPC   C2B31340  41.719  44.914   8.393
 2151POPC   C3B31341  41.705   0.187   8.052
 2151POPC   C4B31342  41.731   0.114   7.616
 2152POPC   NC331343  21.477  35.632   9.470
 2152POPC   PO431344  21.198  34.960   9.434
 2152POPC   GL131345  21.532  35.164   9.181
 2152POPC   GL231346  21.237  35.275   9.025
 2152POPC   C1A31347  21.637  35.510   8.834
 2152POPC   D2A31348  21.457  35.681   8.455
 2152POPC   C3A31349  21.502  35.467   8.067
 2152POPC   C4A31350  21.394  35.638   7.682
 2152POPC   C1B31351  21.064  35.042   8.713
 2152POPC   C2B31352  21.201  35.071   8.285
 2152POPC   C3B31353  21.020  34.958   7.896
 2152POPC   C4B31354  21.176  35.174   7.498
 2153POPC   NC331355  25.244  36.688   9.505
 2153POPC   PO431356  25.251  37.307   9.659
 2153POPC   GL131357  25.451  37.052   9.217
 2153POPC   GL231358  25.546  36.735   9.088
 2153POPC   C1A31359  25.509  37.157   8.755
 2153POPC   D2A31360  25.570  36.830   8.468
 2153POPC   C3A31361  25.571  36.897   8.018
 2153POPC   C4A31362  25.426  36.856   7.587
 2153POPC   C1B31363  25.165  36.787   8.794
 2153POPC   C2B31364  25.090  36.829   8.317
 2153POPC   C3B31365  25.181  36.569   7.918
 2153POPC   C4B31366  25.081  36.521   7.449
 2154POPC   NC331367   4.680  19.057   9.709
 2154POPC   PO431368   4.185  18.625   9.552
 2154POPC   GL131369   4.250  18.833   9.153
 2154POPC   GL231370   4.545  19.021   9.195
 2154POPC   C1A31371   4.075  18.791   8.725
 2154POPC   D2A31372   4.083  19.082   8.383
 2154POPC   C3A31373   4.101  18.867   8.018
 2154POPC   C4A31374   4.281  18.995   7.643
 2154POPC   C1B31375   4.487  19.125   8.735
 2154POPC   C2B31376   4.509  19.381   8.340
 2154POPC   C3B31377   4.299  19.416   7.942
 2154POPC   C4B31378   4.448  19.471   7.509
 2155POPC   NC331379  19.293  32.032   9.641
 2155POPC   PO431380  18.834  32.498   9.731
 2155POPC   GL131381  18.940  32.232   9.260
 2155POPC   GL231382  19.152  32.028   9.170
 2155POPC   C1A31383  18.843  32.207   8.810
 2155POPC   D2A31384  18.879  32.497   8.462
 2155POPC   C3A31385  18.818  32.334   8.065
 2155POPC   C4A31386  18.773  32.636   7.764
 2155POPC   C1B31387  19.279  31.969   8.766
 2155POPC   C2B31388  19.212  32.115   8.354
 2155POPC   C3B31389  19.272  32.131   7.915
 2155POPC   C4B31390  19.522  32.397   7.684
 2156POPC   NC331391  23.171  19.670   9.568
 2156POPC   PO431392  23.871  19.800   9.571
 2156POPC   GL131393  23.754  19.860   9.170
 2156POPC   GL231394  24.004  20.141   9.139
 2156POPC   C1A31395  23.590  19.689   8.782
 2156POPC   D2A31396  23.700  19.440   8.413
 2156POPC   C3A31397  23.636  19.651   8.042
 2156POPC   C4A31398  23.370  19.798   7.728
 2156POPC   C1B31399  24.072  19.902   8.749
 2156POPC   C2B31400  24.003  19.915   8.325
 2156POPC   C3B31401  24.101  20.180   7.985
 2156POPC   C4B31402  23.995  20.052   7.570
 2157POPC   NC331403  36.445  15.760   9.444
 2157POPC   PO431404  36.450  16.440   9.399
 2157POPC   GL131405  36.278  16.163   9.146
 2157POPC   GL231406  35.990  16.026   9.305
 2157POPC   C1A31407  36.335  16.134   8.690
 2157POPC   D2A31408  36.476  16.265   8.273
 2157POPC   C3A31409  36.339  15.995   7.951
 2157POPC   C4A31410  35.980  16.100   7.715
 2157POPC   C1B31411  36.047  15.761   8.908
 2157POPC   C2B31412  36.125  15.709   8.455
 2157POPC   C3B31413  35.921  15.739   8.066
 2157POPC   C4B31414  35.829  15.616   7.670
 2158POPC   NC331415  17.032  28.144   9.634
 2158POPC   PO431416  17.643  28.204   9.594
 2158POPC   GL131417  17.364  28.385   9.303
 2158POPC   GL231418  17.597  28.593   9.119
 2158POPC   C1A31419  17.254  28.286   8.894
 2158POPC   D2A31420  17.250  28.503   8.500
 2158POPC   C3A31421  17.198  28.363   8.094
 2158POPC   C4A31422  17.550  28.473   7.837
 2158POPC   C1B31423  17.711  28.372   8.710
 2158POPC   C2B31424  17.668  28.214   8.269
 2158POPC   C3B31425  17.554  27.983   7.855
 2158POPC   C4B31426  17.792  28.187   7.469
 2159POPC   NC331427  33.235  43.723   9.558
 2159POPC   PO431428  33.170  44.274   9.838
 2159POPC   GL131429  32.991  44.193   9.346
 2159POPC   GL231430  32.890  43.826   9.197
 2159POPC   C1A31431  33.123  44.130   8.866
 2159POPC   D2A31432  32.935  43.889   8.524
 2159POPC   C3A31433  33.051  43.964   8.090
 2159POPC   C4A31434  32.830  44.155   7.768
 2159POPC   C1B31435  33.228  43.619   8.893
 2159POPC   C2B31436  33.259  43.459   8.459
 2159POPC   C3B31437  33.353  43.529   8.035
 2159POPC   C4B31438  33.169  43.572   7.643
 2160POPC   NC331439   2.149  23.332   9.661
 2160POPC   PO431440   2.390  22.701   9.664
 2160POPC   GL131441   2.077  22.866   9.415
 2160POPC   GL231442   2.054  22.584   9.212
 2160POPC   C1A31443   2.050  23.079   9.002
 2160POPC   D2A31444   2.003  23.037   8.522
 2160POPC   C3A31445   2.164  23.266   8.142
 2160POPC   C4A31446   2.013  23.189   7.723
 2160POPC   C1B31447   1.931  22.601   8.805
 2160POPC   C2B31448   2.095  22.544   8.402
 2160POPC   C3B31449   1.989  22.773   8.046
 2160POPC   C4B31450   2.040  22.675   7.604
 2161POPC   NC331451  22.628  38.661   9.565
 2161POPC   PO431452  23.200  38.243   9.455
 2161POPC   GL131453  22.945  38.497   9.178
 2161POPC   GL231454  22.651  38.317   9.148
 2161POPC   C1A31455  22.811  38.531   8.731
 2161POPC   D2A31456  22.742  38.357   8.337
 2161POPC   C3A31457  22.808  38.538   7.960
 2161POPC   C4A31458  23.099  38.589   7.632
 2161POPC   C1B31459  22.624  38.021   8.812
 2161POPC   C2B31460  22.482  37.899   8.406
 2161POPC   C3B31461  22.621  38.005   7.997
 2161POPC   C4B31462  22.831  38.144   7.596
 2162POPC   NC331463  34.144  30.366   9.304
 2162POPC   PO431464  33.719  30.729   9.749
 2162POPC   GL131465  33.783  30.907   9.273
 2162POPC   GL231466  33.479  30.892   9.064
 2162POPC   C1A31467  33.926  30.860   8.802
 2162POPC   D2A31468  33.834  30.591   8.392
 2162POPC   C3A31469  34.087  30.568   7.981
 2162POPC   C4A31470  34.082  30.872   7.633
 2162POPC   C1B31471  33.311  30.838   8.665
 2162POPC   C2B31472  33.353  30.775   8.239
 2162POPC   C3B31473  33.655  30.847   7.936
 2162POPC   C4B31474  33.720  30.508   7.621
 2163POPC   NC331475  39.797  18.906   9.641
 2163POPC   PO431476  40.301  19.230   9.425
 2163POPC   GL131477  40.010  19.004   9.158
 2163POPC   GL231478  39.686  19.174   9.201
 2163POPC   C1A31479  40.055  18.914   8.694
 2163POPC   D2A31480  40.271  19.098   8.309
 2163POPC   C3A31481  40.061  19.120   7.919
 2163POPC   C4A31482  40.026  18.722   7.743
 2163POPC   C1B31483  39.809  19.337   8.786
 2163POPC   C2B31484  39.720  19.210   8.358
 2163POPC   C3B31485  39.603  19.379   7.928
 2163POPC   C4B31486  39.822  19.358   7.505
 2164POPC   NC331487  27.427  24.009   9.449
 2164POPC   PO431488  27.944  23.586   9.625
 2164POPC   GL131489  27.850  23.638   9.165
 2164POPC   GL231490  27.538  23.782   8.996
 2164POPC   C1A31491  27.801  23.426   8.745
 2164POPC   D2A31492  27.537  23.613   8.440
 2164POPC   C3A31493  27.639  23.810   8.043
 2164POPC   C4A31494  27.697  23.489   7.816
 2164POPC   C1B31495  27.165  23.893   8.706
 2164POPC   C2B31496  27.187  23.925   8.264
 2164POPC   C3B31497  27.161  23.694   7.889
 2164POPC   C4B31498  27.394  23.752   7.518
 2165POPC   NC331499  44.636   9.404   9.539
 2165POPC   PO431500  44.901  10.003   9.618
 2165POPC   GL131501  44.895   9.796   9.218
 2165POPC   GL231502  44.539   9.778   9.201
 2165POPC   C1A31503   0.024   9.773   8.754
 2165POPC   D2A31504  44.985   9.496   8.391
 2165POPC   C3A31505  44.834   9.619   7.964
 2165POPC   C4A31506  44.898   9.737   7.499
 2165POPC   C1B31507  44.532   9.993   8.827
 2165POPC   C2B31508  44.645   9.919   8.397
 2165POPC   C3B31509  44.452   9.956   7.998
 2165POPC   C4B31510  44.399   9.686   7.628
 2166POPC   NC331511   1.366   2.399   9.567
 2166POPC   PO431512   1.373   1.638   9.596
 2166POPC   GL131513   1.403   1.848   9.194
 2166POPC   GL231514   1.140   2.061   9.231
 2166POPC   C1A31515   1.477   2.217   8.889
 2166POPC   D2A31516   1.489   2.309   8.439
 2166POPC   C3A31517   1.346   2.040   8.098
 2166POPC   C4A31518   1.374   2.143   7.684
 2166POPC   C1B31519   1.022   2.025   8.787
 2166POPC   C2B31520   0.933   2.223   8.370
 2166POPC   C3B31521   0.909   2.182   7.900
 2166POPC   C4B31522   1.038   1.759   7.712
 2167POPC   NC331523   7.511  31.893   9.454
 2167POPC   PO431524   6.893  31.658   9.528
 2167POPC   GL131525   7.200  31.502   9.243
 2167POPC   GL231526   7.055  31.184   9.126
 2167POPC   C1A31527   7.434  31.482   8.854
 2167POPC   D2A31528   7.552  31.640   8.442
 2167POPC   C3A31529   7.622  31.462   8.036
 2167POPC   C4A31530   7.899  31.610   7.749
 2167POPC   C1B31531   6.973  31.319   8.692
 2167POPC   C2B31532   7.181  31.275   8.307
 2167POPC   C3B31533   7.109  31.202   7.898
 2167POPC   C4B31534   7.305  31.430   7.623
 2168POPC   NC331535   5.587  24.790   9.432
 2168POPC   PO431536   5.727  25.379   9.467
 2168POPC   GL131537   5.893  25.127   9.123
 2168POPC   GL231538   6.260  24.979   9.087
 2168POPC   C1A31539   5.784  25.273   8.724
 2168POPC   D2A31540   5.910  25.566   8.418
 2168POPC   C3A31541   5.825  25.407   8.035
 2168POPC   C4A31542   5.908  25.531   7.635
 2168POPC   C1B31543   6.021  24.813   8.749
 2168POPC   C2B31544   5.979  24.967   8.306
 2168POPC   C3B31545   5.921  24.924   7.856
 2168POPC   C4B31546   5.561  25.141   7.655
 2169POPC   NC331547   3.783  17.350   9.509
 2169POPC   PO431548   3.310  17.797   9.648
 2169POPC   GL131549   3.426  17.666   9.186
 2169POPC   GL231550   3.373  17.314   9.058
 2169POPC   C1A31551   3.649  17.660   8.751
 2169POPC   D2A31552   3.936  17.871   8.380
 2169POPC   C3A31553   3.916  17.661   7.977
 2169POPC   C4A31554   3.679  17.398   7.685
 2169POPC   C1B31555   3.227  17.352   8.620
 2169POPC   C2B31556   3.307  17.446   8.163
 2169POPC   C3B31557   3.226  17.179   7.794
 2169POPC   C4B31558   3.113  17.156   7.338
 2170POPC   NC331559   4.156  10.805   9.557
 2170POPC   PO431560   4.157  10.118   9.640
 2170POPC   GL131561   4.305  10.393   9.277
 2170POPC   GL231562   4.569  10.654   9.228
 2170POPC   C1A31563   4.153  10.639   8.908
 2170POPC   D2A31564   4.204  10.462   8.514
 2170POPC   C3A31565   4.171  10.695   8.138
 2170POPC   C4A31566   4.133  10.509   7.750
 2170POPC   C1B31567   4.630  10.521   8.791
 2170POPC   C2B31568   4.676  10.514   8.319
 2170POPC   C3B31569   4.613  10.619   7.872
 2170POPC   C4B31570   4.838  10.940   7.652
 2171POPC   NC331571  33.294   1.742   9.548
 2171POPC   PO431572  32.703   2.137   9.521
 2171POPC   GL131573  32.892   2.152   9.127
 2171POPC   GL231574  33.232   2.050   9.110
 2171POPC   C1A31575  32.833   2.243   8.736
 2171POPC   D2A31576  32.801   2.008   8.356
 2171POPC   C3A31577  32.996   2.134   7.975
 2171POPC   C4A31578  32.849   2.177   7.556
 2171POPC   C1B31579  33.331   1.906   8.692
 2171POPC   C2B31580  33.281   1.778   8.256
 2171POPC   C3B31581  33.300   1.756   7.809
 2171POPC   C4B31582  33.351   2.105   7.547
 2172POPC   NC331583  16.098  10.723   9.510
 2172POPC   PO431584  16.448  10.184   9.230
 2172POPC   GL131585  16.177  10.453   9.076
 2172POPC   GL231586  15.825  10.389   9.102
 2172POPC   C1A31587  16.101  10.294   8.681
 2172POPC   D2A31588  16.132  10.402   8.306
 2172POPC   C3A31589  15.754  10.484   8.161
 2172POPC   C4A31590  15.839  10.365   7.769
 2172POPC   C1B31591  15.670  10.564   8.692
 2172POPC   C2B31592  15.322  10.744   8.451
 2172POPC   C3B31593  15.426  11.032   8.136
 2172POPC   C4B31594  15.627  10.849   7.793
 2173POPC   NC331595   9.709  36.005   9.658
 2173POPC   PO431596  10.379  36.075   9.611
 2173POPC   GL131597  10.347  36.234   9.159
 2173POPC   GL231598  10.659  36.339   9.004
 2173POPC   C1A31599  10.151  36.381   8.751
 2173POPC   D2A31600  10.080  36.285   8.285
 2173POPC   C3A31601  10.236  36.048   7.871
 2173POPC   C4A31602  10.032  36.212   7.485
 2173POPC   C1B31603  10.548  36.097   8.650
 2173POPC   C2B31604  10.590  36.226   8.223
 2173POPC   C3B31605  10.758  35.946   7.915
 2173POPC   C4B31606  10.579  35.626   7.640
 2174POPC   NC331607  18.772  41.813   9.582
 2174POPC   PO431608  19.424  41.671   9.541
 2174POPC   GL131609  19.138  41.873   9.159
 2174POPC   GL231610  18.730  41.799   9.078
 2174POPC   C1A31611  19.012  41.919   8.682
 2174POPC   D2A31612  18.849  41.684   8.334
 2174POPC   C3A31613  19.021  41.854   8.034
 2174POPC   C4A31614  19.251  42.015   7.780
 2174POPC   C1B31615  18.617  41.485   8.727
 2174POPC   C2B31616  18.806  41.183   8.365
 2174POPC   C3B31617  18.946  41.332   7.938
 2174POPC   C4B31618  18.967  41.638   7.583
 2175POPC   NC331619  25.976  41.688   9.588
 2175POPC   PO431620  25.847  41.062   9.607
 2175POPC   GL131621  25.868  41.307   9.226
 2175POPC   GL231622  26.202  41.496   9.172
 2175POPC   C1A31623  25.973  41.194   8.819
 2175POPC   D2A31624  26.125  41.346   8.465
 2175POPC   C3A31625  26.050  41.105   8.105
 2175POPC   C4A31626  26.088  41.397   7.780
 2175POPC   C1B31627  25.964  41.721   8.846
 2175POPC   C2B31628  25.865  41.795   8.420
 2175POPC   C3B31629  25.981  41.856   8.008
 2175POPC   C4B31630  25.823  41.792   7.606
 2176POPC   NC331631   4.550  37.900   9.709
 2176POPC   PO431632   4.046  37.489   9.615
 2176POPC   GL131633   4.189  37.710   9.278
 2176POPC   GL231634   4.164  38.036   9.370
 2176POPC   C1A31635   4.292  37.625   8.854
 2176POPC   D2A31636   4.155  37.420   8.474
 2176POPC   C3A31637   4.274  37.557   8.081
 2176POPC   C4A31638   4.444  37.548   7.695
 2176POPC   C1B31639   4.156  38.119   8.934
 2176POPC   C2B31640   4.072  37.946   8.527
 2176POPC   C3B31641   3.992  38.009   8.098
 2176POPC   C4B31642   3.982  37.782   7.705
 2177POPC   NC331643  34.583   5.460   9.372
 2177POPC   PO431644  34.327   6.080   9.563
 2177POPC   GL131645  34.218   5.934   9.158
 2177POPC   GL231646  34.529   5.811   9.016
 2177POPC   C1A31647  34.222   6.014   8.675
 2177POPC   D2A31648  34.554   5.874   8.397
 2177POPC   C3A31649  34.523   6.002   7.993
 2177POPC   C4A31650  34.298   5.924   7.647
 2177POPC   C1B31651  34.834   5.620   8.737
 2177POPC   C2B31652  34.782   5.376   8.355
 2177POPC   C3B31653  34.879   5.384   7.921
 2177POPC   C4B31654  34.783   5.722   7.652
 2178POPC   NC331655  15.583   1.289   9.807
 2178POPC   PO431656  16.080   0.975   9.483
 2178POPC   GL131657  16.126   1.156   9.081
 2178POPC   GL231658  15.823   1.316   9.066
 2178POPC   C1A31659  16.059   1.081   8.631
 2178POPC   D2A31660  15.805   1.287   8.285
 2178POPC   C3A31661  16.033   1.318   7.902
 2178POPC   C4A31662  16.314   1.036   7.733
 2178POPC   C1B31663  15.931   1.567   8.706
 2178POPC   C2B31664  15.971   1.795   8.354
 2178POPC   C3B31665  15.739   1.732   7.980
 2178POPC   C4B31666  15.683   1.604   7.576
 2179POPC   NC331667  24.131  39.591   9.687
 2179POPC   PO431668  23.695  39.095   9.509
 2179POPC   GL131669  23.457  39.190   9.165
 2179POPC   GL231670  23.373  38.831   9.184
 2179POPC   C1A31671  23.539  39.388   8.765
 2179POPC   D2A31672  23.789  39.465   8.394
 2179POPC   C3A31673  23.589  39.421   8.009
 2179POPC   C4A31674  23.753  39.351   7.637
 2179POPC   C1B31675  23.614  38.885   8.766
 2179POPC   C2B31676  23.495  39.033   8.332
 2179POPC   C3B31677  23.585  38.916   7.864
 2179POPC   C4B31678  23.531  38.809   7.400
 2180POPC   NC331679  22.567  12.179   9.308
 2180POPC   PO431680  21.955  12.266   9.469
 2180POPC   GL131681  22.000  12.073   9.101
 2180POPC   GL231682  22.227  11.804   9.147
 2180POPC   C1A31683  22.199  12.207   8.715
 2180POPC   D2A31684  22.324  12.166   8.294
 2180POPC   C3A31685  22.053  12.383   8.061
 2180POPC   C4A31686  21.885  12.260   7.711
 2180POPC   C1B31687  22.061  11.704   8.724
 2180POPC   C2B31688  22.138  11.591   8.263
 2180POPC   C3B31689  22.129  11.854   7.911
 2180POPC   C4B31690  22.408  12.179   7.755
 2181POPC   NC331691   6.183  25.277   9.506
 2181POPC   PO431692   6.844  25.024   9.454
 2181POPC   GL131693   6.793  25.325   9.133
 2181POPC   GL231694   6.469  25.448   9.120
 2181POPC   C1A31695   6.789  25.318   8.677
 2181POPC   D2A31696   6.878  25.064   8.321
 2181POPC   C3A31697   6.783  25.270   7.957
 2181POPC   C4A31698   6.852  25.046   7.616
 2181POPC   C1B31699   6.280  25.359   8.730
 2181POPC   C2B31700   6.368  25.340   8.290
 2181POPC   C3B31701   6.288  25.281   7.857
 2181POPC   C4B31702   6.425  25.346   7.454
 2182POPC   NC331703  32.017  44.278   9.557
 2182POPC   PO431704  32.428  43.683   9.562
 2182POPC   GL131705  32.445  44.071   9.338
 2182POPC   GL231706  32.143  43.943   9.203
 2182POPC   C1A31707  32.579  44.215   8.916
 2182POPC   D2A31708  32.453  44.258   8.452
 2182POPC   C3A31709  32.491  43.830   8.219
 2182POPC   C4A31710  32.712  43.580   7.872
 2182POPC   C1B31711  32.072  44.098   8.801
 2182POPC   C2B31712  31.938  44.135   8.376
 2182POPC   C3B31713  31.917  43.895   8.010
 2182POPC   C4B31714  32.200  43.603   7.811
 2183POPC   NC331715   2.382  38.806   9.514
 2183POPC   PO431716   2.949  38.345   9.571
 2183POPC   GL131717   2.936  38.110   9.176
 2183POPC   GL231718   2.574  38.068   9.172
 2183POPC   C1A31719   2.845  38.003   8.745
 2183POPC   D2A31720   2.732  38.298   8.463
 2183POPC   C3A31721   2.903  38.285   8.072
 2183POPC   C4A31722   2.861  38.476   7.658
 2183POPC   C1B31723   2.324  38.186   8.846
 2183POPC   C2B31724   2.239  38.447   8.491
 2183POPC   C3B31725   2.406  38.432   8.080
 2183POPC   C4B31726   2.334  38.516   7.662
 2184POPC   NC331727  28.968  43.677   9.526
 2184POPC   PO431728  29.225  44.305   9.463
 2184POPC   GL131729  29.043  44.047   9.174
 2184POPC   GL231730  29.320  43.846   9.090
 2184POPC   C1A31731  29.039  44.044   8.721
 2184POPC   D2A31732  29.245  43.971   8.313
 2184POPC   C3A31733  29.003  43.992   7.933
 2184POPC   C4A31734  29.069  44.242   7.529
 2184POPC   C1B31735  29.358  43.623   8.697
 2184POPC   C2B31736  29.630  43.623   8.329
 2184POPC   C3B31737  29.611  43.451   7.971
 2184POPC   C4B31738  29.234  43.515   7.835
 2185POPC   NC331739  35.154  11.390   9.548
 2185POPC   PO431740  35.801  11.512   9.202
 2185POPC   GL131741  35.438  11.218   9.105
 2185POPC   GL231742  35.104  11.348   9.051
 2185POPC   C1A31743  35.305  10.948   8.732
 2185POPC   D2A31744  35.054  10.861   8.359
 2185POPC   C3A31745  35.187  11.013   7.934
 2185POPC   C4A31746  35.475  10.875   7.640
 2185POPC   C1B31747  35.111  11.393   8.609
 2185POPC   C2B31748  35.250  11.639   8.293
 2185POPC   C3B31749  35.274  11.522   7.887
 2185POPC   C4B31750  35.498  11.773   7.662
 2186POPC   NC331751   6.197  19.429   9.585
 2186POPC   PO431752   5.858  18.784   9.593
 2186POPC   GL131753   5.999  19.090   9.256
 2186POPC   GL231754   5.707  19.269   9.128
 2186POPC   C1A31755   6.151  19.111   8.802
 2186POPC   D2A31756   5.996  18.856   8.426
 2186POPC   C3A31757   6.136  18.996   7.994
 2186POPC   C4A31758   6.278  19.324   7.718
 2186POPC   C1B31759   5.669  19.192   8.690
 2186POPC   C2B31760   5.846  19.320   8.291
 2186POPC   C3B31761   5.804  19.389   7.859
 2186POPC   C4B31762   5.875  19.051   7.515
 2187POPC   NC331763  22.318  35.150   9.557
 2187POPC   PO431764  22.044  35.777   9.435
 2187POPC   GL131765  22.096  35.387   9.164
 2187POPC   GL231766  22.435  35.225   9.063
 2187POPC   C1A31767  21.956  35.115   8.834
 2187POPC   D2A31768  21.846  35.234   8.411
 2187POPC   C3A31769  22.114  35.315   8.029
 2187POPC   C4A31770  21.912  35.142   7.650
 2187POPC   C1B31771  22.307  35.456   8.661
 2187POPC   C2B31772  22.483  35.755   8.355
 2187POPC   C3B31773  22.693  35.627   7.962
 2187POPC   C4B31774  22.637  35.639   7.485
 2188POPC   NC331775  42.542  32.966   9.616
 2188POPC   PO431776  42.239  33.463   9.536
 2188POPC   GL131777  42.237  33.154   9.215
 2188POPC   GL231778  42.314  32.784   9.205
 2188POPC   C1A31779  42.165  33.078   8.791
 2188POPC   D2A31780  42.429  33.105   8.474
 2188POPC   C3A31781  42.294  33.313   8.101
 2188POPC   C4A31782  42.442  33.189   7.681
 2188POPC   C1B31783  42.555  32.705   8.842
 2188POPC   C2B31784  42.689  32.624   8.424
 2188POPC   C3B31785  42.824  32.698   7.987
 2188POPC   C4B31786  42.781  32.811   7.552
 2189POPC   NC331787  16.897  30.633   9.567
 2189POPC   PO431788  16.244  30.656   9.494
 2189POPC   GL131789  16.476  30.658   9.120
 2189POPC   GL231790  16.818  30.713   9.075
 2189POPC   C1A31791  16.492  30.683   8.683
 2189POPC   D2A31792  16.796  30.977   8.552
 2189POPC   C3A31793  16.714  31.065   8.150
 2189POPC   C4A31794  16.715  30.715   7.880
 2189POPC   C1B31795  17.012  30.511   8.730
 2189POPC   C2B31796  17.196  30.679   8.337
 2189POPC   C3B31797  17.210  30.614   7.880
 2189POPC   C4B31798  17.088  30.437   7.495
 2190POPC   NC331799  40.474  18.782   9.445
 2190POPC   PO431800  40.956  18.323   9.430
 2190POPC   GL131801  40.612  18.303   9.183
 2190POPC   GL231802  40.610  17.954   9.092
 2190POPC   C1A31803  40.501  18.334   8.752
 2190POPC   D2A31804  40.612  18.070   8.407
 2190POPC   C3A31805  40.751  18.331   8.125
 2190POPC   C4A31806  40.461  18.585   7.944
 2190POPC   C1B31807  40.996  18.060   8.831
 2190POPC   C2B31808  41.132  18.060   8.408
 2190POPC   C3B31809  41.066  17.955   7.980
 2190POPC   C4B31810  41.364  17.927   7.657
 2191POPC   NC331811   6.515  11.645   9.643
 2191POPC   PO431812   6.898  12.171   9.460
 2191POPC   GL131813   6.632  11.908   9.151
 2191POPC   GL231814   6.356  12.121   9.134
 2191POPC   C1A31815   6.805  11.775   8.733
 2191POPC   D2A31816   6.801  11.984   8.340
 2191POPC   C3A31817   6.646  11.904   7.951
 2191POPC   C4A31818   6.918  12.055   7.653
 2191POPC   C1B31819   6.493  12.172   8.691
 2191POPC   C2B31820   6.346  12.242   8.263
 2191POPC   C3B31821   6.439  12.348   7.828
 2191POPC   C4B31822   6.625  12.527   7.488
 2192POPC   NC331823   1.773  40.079   9.574
 2192POPC   PO431824   2.281  39.866   9.701
 2192POPC   GL131825   2.144  40.050   9.200
 2192POPC   GL231826   1.838  39.895   9.051
 2192POPC   C1A31827   2.209  39.944   8.707
 2192POPC   D2A31828   1.987  39.716   8.349
 2192POPC   C3A31829   2.074  39.929   7.940
 2192POPC   C4A31830   2.399  39.958   7.611
 2192POPC   C1B31831   1.595  39.910   8.648
 2192POPC   C2B31832   1.650  40.060   8.198
 2192POPC   C3B31833   1.590  40.277   7.806
 2192POPC   C4B31834   1.563  40.212   7.337
 2193POPC   NC331835  35.818  11.124   9.458
 2193POPC   PO431836  36.458  11.381   9.602
 2193POPC   GL131837  36.252  11.254   9.189
 2193POPC   GL231838  35.932  11.100   8.971
 2193POPC   C1A31839  36.303  11.350   8.757
 2193POPC   D2A31840  36.088  11.197   8.390
 2193POPC   C3A31841  36.246  11.361   8.039
 2193POPC   C4A31842  36.164  11.194   7.664
 2193POPC   C1B31843  35.651  11.331   8.634
 2193POPC   C2B31844  35.509  11.170   8.298
 2193POPC   C3B31845  35.768  11.085   7.994
 2193POPC   C4B31846  35.697  11.321   7.687
 2194POPC   NC331847  44.106  10.240   9.396
 2194POPC   PO431848  44.122   9.574   9.420
 2194POPC   GL131849  44.029   9.819   9.074
 2194POPC   GL231850  43.670   9.880   9.156
 2194POPC   C1A31851  44.135   9.708   8.647
 2194POPC   D2A31852  43.959   9.450   8.341
 2194POPC   C3A31853  44.046   9.663   8.007
 2194POPC   C4A31854  43.888  10.097   7.907
 2194POPC   C1B31855  43.639   9.711   8.738
 2194POPC   C2B31856  43.654   9.854   8.308
 2194POPC   C3B31857  43.559   9.692   7.884
 2194POPC   C4B31858  43.620   9.841   7.468
 2195POPC   NC331859  26.216  30.076   9.461
 2195POPC   PO431860  25.652  29.685   9.554
 2195POPC   GL131861  25.778  29.914   9.205
 2195POPC   GL231862  26.050  29.699   9.161
 2195POPC   C1A31863  25.771  29.878   8.748
 2195POPC   D2A31864  25.619  29.816   8.329
 2195POPC   C3A31865  25.719  30.101   7.973
 2195POPC   C4A31866  26.035  30.074   7.648
 2195POPC   C1B31867  26.194  29.580   8.766
 2195POPC   C2B31868  26.139  29.725   8.375
 2195POPC   C3B31869  26.239  30.038   8.111
 2195POPC   C4B31870  26.507  29.853   7.815
 2196POPC   NC331871   4.862   8.369   9.551
 2196POPC   PO431872   5.448   8.048   9.679
 2196POPC   GL131873   5.395   8.236   9.262
 2196POPC   GL231874   5.075   8.210   9.095
 2196POPC   C1A31875   5.523   8.163   8.840
 2196POPC   D2A31876   5.441   8.100   8.406
 2196POPC   C3A31877   5.252   8.397   8.100
 2196POPC   C4A31878   5.099   8.251   7.715
 2196POPC   C1B31879   4.887   8.528   8.774
 2196POPC   C2B31880   4.774   8.503   8.317
 2196POPC   C3B31881   4.630   8.402   7.863
 2196POPC   C4B31882   4.789   8.509   7.426
 2197POPC   NC331883  39.644  41.021   9.568
 2197POPC   PO431884  38.994  40.941   9.371
 2197POPC   GL131885  39.196  40.680   9.163
 2197POPC   GL231886  39.551  40.647   9.214
 2197POPC   C1A31887  39.105  40.636   8.763
 2197POPC   D2A31888  39.078  40.847   8.389
 2197POPC   C3A31889  39.174  40.701   8.002
 2197POPC   C4A31890  39.178  40.989   7.668
 2197POPC   C1B31891  39.528  40.934   8.846
 2197POPC   C2B31892  39.600  40.787   8.407
 2197POPC   C3B31893  39.650  40.522   8.038
 2197POPC   C4B31894  39.590  40.688   7.643
 2198POPC   NC331895  43.875  34.634   9.833
 2198POPC   PO431896  43.971  34.119   9.402
 2198POPC   GL131897  43.843  34.387   9.080
 2198POPC   GL231898  43.819  34.728   9.180
 2198POPC   C1A31899  43.912  34.430   8.652
 2198POPC   D2A31900  43.876  34.151   8.363
 2198POPC   C3A31901  44.125  34.258   8.077
 2198POPC   C4A31902  43.840  34.315   7.787
 2198POPC   C1B31903  43.967  34.907   8.790
 2198POPC   C2B31904  43.836  34.939   8.367
 2198POPC   C3B31905  43.936  34.780   7.973
 2198POPC   C4B31906  43.736  34.754   7.577
 2199POPC   NC331907  15.608   6.815   9.496
 2199POPC   PO431908  16.202   6.559   9.479
 2199POPC   GL131909  15.918   6.615   9.133
 2199POPC   GL231910  15.715   6.322   9.123
 2199POPC   C1A31911  15.858   6.580   8.674
 2199POPC   D2A31912  15.998   6.880   8.411
 2199POPC   C3A31913  15.880   6.826   8.001
 2199POPC   C4A31914  16.173   6.749   7.679
 2199POPC   C1B31915  16.143   6.233   8.889
 2199POPC   C2B31916  16.290   6.293   8.442
 2199POPC   C3B31917  16.042   6.339   8.039
 2199POPC   C4B31918  15.607   6.171   7.936
 2200POPC   NC331919  19.853  34.115   9.503
 2200POPC   PO431920  20.168  33.536   9.607
 2200POPC   GL131921  19.946  33.669   9.214
 2200POPC   GL231922  19.565  33.731   9.212
 2200POPC   C1A31923  19.944  33.916   8.816
 2200POPC   D2A31924  19.643  34.046   8.459
 2200POPC   C3A31925  19.870  33.985   8.074
 2200POPC   C4A31926  19.937  33.936   7.619
 2200POPC   C1B31927  19.534  33.617   8.773
 2200POPC   C2B31928  19.858  33.579   8.422
 2200POPC   C3B31929  19.793  33.503   7.981
 2200POPC   C4B31930  19.548  33.599   7.611
 2201POPC   NC331931  11.301  15.321   9.685
 2201POPC   PO431932  11.849  15.159   9.601
 2201POPC   GL131933  11.560  15.294   9.240
 2201POPC   GL231934  11.379  15.000   9.146
 2201POPC   C1A31935  11.337  15.417   8.831
 2201POPC   D2A31936  11.207  15.264   8.405
 2201POPC   C3A31937  11.327  15.352   7.974
 2201POPC   C4A31938  11.063  15.267   7.636
 2201POPC   C1B31939  11.530  14.960   8.682
 2201POPC   C2B31940  11.506  14.894   8.198
 2201POPC   C3B31941  11.401  14.868   7.750
 2201POPC   C4B31942  11.182  14.523   7.501
 2202POPC   NC331943  13.488   2.181   9.506
 2202POPC   PO431944  13.888   1.663   9.472
 2202POPC   GL131945  13.639   1.838   9.153
 2202POPC   GL231946  13.264   1.830   9.226
 2202POPC   C1A31947  13.735   2.155   8.869
 2202POPC   D2A31948  13.903   2.244   8.496
 2202POPC   C3A31949  13.825   1.973   8.198
 2202POPC   C4A31950  13.875   2.063   7.782
 2202POPC   C1B31951  13.234   2.095   8.862
 2202POPC   C2B31952  13.396   1.990   8.496
 2202POPC   C3B31953  13.335   1.893   8.078
 2202POPC   C4B31954  13.498   1.731   7.715
 2203POPC   NC331955  44.349  40.337   9.378
 2203POPC   PO431956  44.753  40.882   9.510
 2203POPC   GL131957  44.613  40.659   9.076
 2203POPC   GL231958  44.804  40.353   9.087
 2203POPC   C1A31959  44.474  40.562   8.600
 2203POPC   D2A31960  44.332  40.827   8.229
 2203POPC   C3A31961  44.442  40.638   7.823
 2203POPC   C4A31962  44.624  40.801   7.406
 2203POPC   C1B31963  44.961  40.549   8.699
 2203POPC   C2B31964  44.874  40.769   8.274
 2203POPC   C3B31965  44.945  40.685   7.807
 2203POPC   C4B31966   0.050  40.510   7.373
 2204POPC   NC331967  11.652  39.702   9.735
 2204POPC   PO431968  12.152  40.128   9.654
 2204POPC   GL131969  12.202  40.103   9.214
 2204POPC   GL231970  12.510  40.239   9.088
 2204POPC   C1A31971  11.853  40.180   8.948
 2204POPC   D2A31972  11.711  40.399   8.594
 2204POPC   C3A31973  11.714  40.233   8.161
 2204POPC   C4A31974  11.988  40.115   7.830
 2204POPC   C1B31975  12.298  40.104   8.682
 2204POPC   C2B31976  12.479  40.032   8.271
 2204POPC   C3B31977  12.507  40.093   7.822
 2204POPC   C4B31978  12.294  40.232   7.448
 2205POPC   NC331979  18.509  15.526   9.198
 2205POPC   PO431980  18.883  15.120   9.549
 2205POPC   GL131981  19.018  15.181   9.130
 2205POPC   GL231982  19.000  14.787   9.059
 2205POPC   C1A31983  19.146  15.251   8.688
 2205POPC   D2A31984  18.963  14.977   8.362
 2205POPC   C3A31985  18.777  15.183   8.017
 2205POPC   C4A31986  18.830  15.247   7.576
 2205POPC   C1B31987  19.364  14.813   8.813
 2205POPC   C2B31988  19.489  14.949   8.424
 2205POPC   C3B31989  19.328  14.779   8.053
 2205POPC   C4B31990  19.104  14.821   7.681
 2206POPC   NC331991  20.325  26.063   9.633
 2206POPC   PO431992  19.707  26.307   9.612
 2206POPC   GL131993  19.847  26.153   9.246
 2206POPC   GL231994  19.877  26.511   9.150
 2206POPC   C1A31995  19.893  25.815   8.922
 2206POPC   D2A31996  19.908  25.909   8.469
 2206POPC   C3A31997  19.776  25.772   8.065
 2206POPC   C4A31998  19.911  26.000   7.737
 2206POPC   C1B31999  19.973  26.326   8.764
 2206POPC   C2B32000  20.157  26.374   8.360
 2206POPC   C3B32001  20.124  26.438   7.917
 2206POPC   C4B32002  19.933  26.453   7.498
 2207POPC   NC332003  20.027  32.175   9.438
 2207POPC   PO432004  19.448  32.425   9.448
 2207POPC   GL132005  19.555  32.321   9.062
 2207POPC   GL232006  19.663  32.024   9.115
 2207POPC   C1A32007  19.637  32.295   8.627
 2207POPC   D2A32008  19.675  32.313   8.191
 2207POPC   C3A32009  19.800  32.684   7.980
 2207POPC   C4A32010  20.041  32.512   7.660
 2207POPC   C1B32011  19.789  31.831   8.779
 2207POPC   C2B32012  19.576  31.722   8.431
 2207POPC   C3B32013  19.669  31.831   8.057
 2207POPC   C4B32014  19.867  32.050   7.750
 2208POPC   NC332015   7.779  20.145   9.440
 2208POPC   PO432016   8.279  19.668   9.417
 2208POPC   GL132017   8.080  19.859   9.037
 2208POPC   GL232018   7.907  20.160   8.952
 2208POPC   C1A32019   7.901  19.779   8.606
 2208POPC   D2A32020   7.821  19.800   8.155
 2208POPC   C3A32021   8.167  19.651   7.846
 2208POPC   C4A32022   8.287  19.516   7.402
 2208POPC   C1B32023   8.257  20.152   8.660
 2208POPC   C2B32024   8.272  20.016   8.257
 2208POPC   C3B32025   8.068  20.143   7.872
 2208POPC   C4B32026   8.208  20.017   7.446
 2209POPC   NC332027  37.066  36.874   9.595
 2209POPC   PO432028  36.338  36.943   9.711
 2209POPC   GL132029  36.648  37.131   9.335
 2209POPC   GL232030  36.925  36.872   9.122
 2209POPC   C1A32031  36.720  37.260   8.883
 2209POPC   D2A32032  36.826  36.935   8.604
 2209POPC   C3A32033  36.831  36.965   8.176
 2209POPC   C4A32034  36.885  36.907   7.761
 2209POPC   C1B32035  37.209  36.641   8.814
 2209POPC   C2B32036  37.415  36.741   8.428
 2209POPC   C3B32037  37.271  36.708   8.020
 2209POPC   C4B32038  37.240  36.462   7.665
 2210POPC   NC332039  23.681  40.853   9.564
 2210POPC   PO432040  23.412  40.384   9.165
 2210POPC   GL132041  23.646  40.765   9.063
 2210POPC   GL232042  23.533  41.103   9.140
 2210POPC   C1A32043  23.849  40.840   8.688
 2210POPC   D2A32044  23.996  40.524   8.388
 2210POPC   C3A32045  23.764  40.522   8.027
 2210POPC   C4A32046  23.837  40.501   7.593
 2210POPC   C1B32047  23.504  41.214   8.739
 2210POPC   C2B32048  23.286  41.170   8.380
 2210POPC   C3B32049  23.371  41.266   7.976
 2210POPC   C4B32050  23.675  40.991   7.781
 2211POPC   NC332051   9.918  41.960   9.322
 2211POPC   PO432052   9.946  41.301   9.497
 2211POPC   GL132053   9.784  41.425   9.120
 2211POPC   GL232054   9.574  41.709   9.063
 2211POPC   C1A32055   9.861  41.288   8.720
 2211POPC   D2A32056   9.909  41.457   8.375
 2211POPC   C3A32057   9.721  41.679   8.077
 2211POPC   C4A32058   9.790  41.339   7.812
 2211POPC   C1B32059   9.378  41.429   8.782
 2211POPC   C2B32060   9.386  41.276   8.354
 2211POPC   C3B32061   9.279  41.461   7.949
 2211POPC   C4B32062   9.398  41.399   7.516
 2212POPC   NC332063  16.493   8.051   9.485
 2212POPC   PO432064  16.965   8.578   9.637
 2212POPC   GL132065  16.843   8.433   9.225
 2212POPC   GL232066  17.094   8.189   9.157
 2212POPC   C1A32067  16.699   8.186   8.844
 2212POPC   D2A32068  16.772   8.294   8.420
 2212POPC   C3A32069  16.459   8.237   8.106
 2212POPC   C4A32070  16.496   8.374   7.697
 2212POPC   C1B32071  17.201   8.316   8.742
 2212POPC   C2B32072  17.282   8.348   8.292
 2212POPC   C3B32073  16.961   8.238   7.945
 2212POPC   C4B32074  16.680   7.918   7.770
 2213POPC   NC332075  36.053  11.635   9.563
 2213POPC   PO432076  35.844  12.295   9.649
 2213POPC   GL132077  36.152  12.083   9.293
 2213POPC   GL232078  36.430  11.791   9.240
 2213POPC   C1A32079  36.426  12.306   8.966
 2213POPC   D2A32080  36.457  12.221   8.520
 2213POPC   C3A32081  36.367  12.441   8.133
 2213POPC   C4A32082  36.144  12.220   7.821
 2213POPC   C1B32083  36.265  11.844   8.831
 2213POPC   C2B32084  36.022  11.696   8.482
 2213POPC   C3B32085  35.777  11.604   8.117
 2213POPC   C4B32086  36.010  11.720   7.733
 2214POPC   NC332087  24.050  10.366   9.744
 2214POPC   PO432088  24.607  10.176   9.442
 2214POPC   GL132089  24.371  10.448   9.189
 2214POPC   GL232090  24.041  10.591   9.224
 2214POPC   C1A32091  24.461  10.525   8.767
 2214POPC   D2A32092  24.572  10.726   8.400
 2214POPC   C3A32093  24.617  10.388   8.113
 2214POPC   C4A32094  24.548  10.389   7.670
 2214POPC   C1B32095  23.958  10.572   8.803
 2214POPC   C2B32096  24.090  10.544   8.375
 2214POPC   C3B32097  24.249  10.726   7.972
 2214POPC   C4B32098  24.314  10.815   7.518
 2215POPC   NC332099  15.362  36.511   9.599
 2215POPC   PO432100  14.982  37.131   9.512
 2215POPC   GL132101  15.265  36.950   9.222
 2215POPC   GL232102  15.225  37.274   9.080
 2215POPC   C1A32103  15.277  36.843   8.772
 2215POPC   D2A32104  15.197  36.975   8.316
 2215POPC   C3A32105  15.349  36.738   7.936
 2215POPC   C4A32106  15.381  36.676   7.462
 2215POPC   C1B32107  15.115  37.346   8.661
 2215POPC   C2B32108  15.200  37.491   8.245
 2215POPC   C3B32109  15.136  37.207   7.872
 2215POPC   C4B32110  15.026  37.129   7.446
 2216POPC   NC332111   1.794  25.301  10.128
 2216POPC   PO432112   2.000  25.183   9.727
 2216POPC   GL132113   2.069  25.350   9.289
 2216POPC   GL232114   1.797  25.542   9.123
 2216POPC   C1A32115   2.128  25.264   8.833
 2216POPC   D2A32116   2.015  25.132   8.411
 2216POPC   C3A32117   2.216  25.279   8.018
 2216POPC   C4A32118   2.216  25.203   7.540
 2216POPC   C1B32119   1.680  25.459   8.656
 2216POPC   C2B32120   1.788  25.537   8.206
 2216POPC   C3B32121   1.825  25.475   7.756
 2216POPC   C4B32122   1.529  25.432   7.405
 2217POPC   NC332123  28.897   4.947   9.468
 2217POPC   PO432124  29.324   5.457   9.425
 2217POPC   GL132125  29.135   5.242   9.108
 2217POPC   GL232126  28.867   5.430   9.075
 2217POPC   C1A32127  29.102   5.042   8.719
 2217POPC   D2A32128  29.384   4.961   8.394
 2217POPC   C3A32129  29.292   4.843   7.992
 2217POPC   C4A32130  29.458   4.865   7.598
 2217POPC   C1B32131  28.701   5.368   8.673
 2217POPC   C2B32132  28.788   5.135   8.312
 2217POPC   C3B32133  28.973   5.236   7.932
 2217POPC   C4B32134  28.991   5.041   7.556
 2218POPC   NC332135  27.315  17.288   9.509
 2218POPC   PO432136  27.758  17.851   9.603
 2218POPC   GL132137  27.633  17.623   9.243
 2218POPC   GL232138  27.856  17.359   9.127
 2218POPC   C1A32139  27.679  17.724   8.805
 2218POPC   D2A32140  27.431  17.634   8.445
 2218POPC   C3A32141  27.650  17.589   8.069
 2218POPC   C4A32142  27.505  17.641   7.667
 2218POPC   C1B32143  27.521  17.243   8.843
 2218POPC   C2B32144  27.398  17.086   8.430
 2218POPC   C3B32145  27.293  17.232   8.027
 2218POPC   C4B32146  27.362  17.143   7.612
 2219POPC   NC332147  19.049  23.212   9.769
 2219POPC   PO432148  18.997  23.858   9.528
 2219POPC   GL132149  19.002  23.587   9.170
 2219POPC   GL232150  18.731  23.718   9.043
 2219POPC   C1A32151  18.950  23.380   8.747
 2219POPC   D2A32152  18.992  23.552   8.349
 2219POPC   C3A32153  19.202  23.319   8.064
 2219POPC   C4A32154  19.014  23.477   7.694
 2219POPC   C1B32155  18.968  23.943   8.746
 2219POPC   C2B32156  18.826  24.044   8.323
 2219POPC   C3B32157  18.852  23.965   7.866
 2219POPC   C4B32158  18.739  23.860   7.418
 2220POPC   NC332159  33.603  32.051   9.791
 2220POPC   PO432160  34.205  31.932   9.529
 2220POPC   GL132161  33.785  31.973   9.300
 2220POPC   GL232162  33.705  32.319   9.141
 2220POPC   C1A32163  33.587  31.880   8.903
 2220POPC   D2A32164  33.602  32.076   8.505
 2220POPC   C3A32165  33.460  31.952   8.106
 2220POPC   C4A32166  33.679  31.785   7.783
 2220POPC   C1B32167  33.928  32.424   8.730
 2220POPC   C2B32168  34.061  32.264   8.336
 2220POPC   C3B32169  33.904  32.229   7.934
 2220POPC   C4B32170  33.772  32.589   7.717
 2221POPC   NC332171   8.790   7.081   9.406
 2221POPC   PO432172   9.069   7.679   9.513
 2221POPC   GL132173   8.961   7.576   9.122
 2221POPC   GL232174   8.592   7.460   9.121
 2221POPC   C1A32175   9.184   7.302   8.805
 2221POPC   D2A32176   9.191   7.121   8.377
 2221POPC   C3A32177   8.948   7.185   7.988
 2221POPC   C4A32178   9.146   7.057   7.598
 2221POPC   C1B32179   8.731   7.538   8.681
 2221POPC   C2B32180   9.114   7.735   8.535
 2221POPC   C3B32181   9.121   7.672   8.109
 2221POPC   C4B32182   8.781   7.690   7.826
 2222POPC   NC332183  24.489  31.851   9.918
 2222POPC   PO432184  24.160  31.414   9.521
 2222POPC   GL132185  24.318  31.310   9.137
 2222POPC   GL232186  24.579  31.528   9.147
 2222POPC   C1A32187  24.452  31.162   8.732
 2222POPC   D2A32188  24.626  31.336   8.352
 2222POPC   C3A32189  24.501  31.132   7.989
 2222POPC   C4A32190  24.310  31.181   7.615
 2222POPC   C1B32191  24.307  31.674   8.784
 2222POPC   C2B32192  24.358  31.838   8.374
 2222POPC   C3B32193  24.342  31.923   7.936
 2222POPC   C4B32194  24.570  31.603   7.733
 2223POPC   NC332195   3.759  15.736   9.452
 2223POPC   PO432196   3.326  16.217   9.591
 2223POPC   GL132197   3.345  15.970   9.220
 2223POPC   GL232198   3.647  16.128   9.124
 2223POPC   C1A32199   3.357  15.852   8.774
 2223POPC   D2A32200   3.629  15.592   8.513
 2223POPC   C3A32201   3.739  15.733   8.091
 2223POPC   C4A32202   3.494  15.890   7.743
 2223POPC   C1B32203   3.315  16.382   8.897
 2223POPC   C2B32204   3.314  16.471   8.446
 2223POPC   C3B32205   3.517  16.190   8.164
 2223POPC   C4B32206   3.856  16.210   7.854
 2224POPC   NC332207  42.746  31.539   9.967
 2224POPC   PO432208  42.359  31.083   9.580
 2224POPC   GL132209  42.213  31.382   9.196
 2224POPC   GL232210  41.990  31.217   8.990
 2224POPC   C1A32211  42.314  31.665   8.829
 2224POPC   D2A32212  42.596  31.720   8.504
 2224POPC   C3A32213  42.374  31.768   8.148
 2224POPC   C4A32214  42.432  31.597   7.763
 2224POPC   C1B32215  42.368  31.179   8.733
 2224POPC   C2B32216  42.338  31.184   8.287
 2224POPC   C3B32217  42.288  31.122   7.839
 2224POPC   C4B32218  41.940  31.257   7.546
 2225POPC   NC332219  21.157  33.058   9.597
 2225POPC   PO432220  21.786  33.424   9.551
 2225POPC   GL132221  21.675  33.163   9.148
 2225POPC   GL232222  21.458  32.905   9.181
 2225POPC   C1A32223  21.666  33.014   8.704
 2225POPC   D2A32224  21.319  33.108   8.396
 2225POPC   C3A32225  21.368  33.098   7.949
 2225POPC   C4A32226  21.369  32.958   7.522
 2225POPC   C1B32227  21.262  32.730   8.786
 2225POPC   C2B32228  21.307  32.593   8.358
 2225POPC   C3B32229  21.318  32.605   7.908
 2225POPC   C4B32230  21.405  32.470   7.440
 2226POPC   NC332231  34.950  35.214   9.874
 2226POPC   PO432232  35.603  35.212   9.549
 2226POPC   GL132233  35.683  35.049   9.115
 2226POPC   GL232234  35.367  34.911   9.160
 2226POPC   C1A32235  35.747  35.231   8.722
 2226POPC   D2A32236  35.508  35.439   8.404
 2226POPC   C3A32237  35.520  35.336   7.967
 2226POPC   C4A32238  35.654  35.477   7.518
 2226POPC   C1B32239  35.247  35.175   8.806
 2226POPC   C2B32240  35.152  35.053   8.379
 2226POPC   C3B32241  35.087  35.011   7.937
 2226POPC   C4B32242  35.115  34.678   7.627
 2227POPC   NC332243  32.583  43.208   9.492
 2227POPC   PO432244  33.283  43.256   9.546
 2227POPC   GL132245  33.012  43.247   9.169
 2227POPC   GL232246  32.667  43.211   8.998
 2227POPC   C1A32247  33.121  43.067   8.773
 2227POPC   D2A32248  33.193  42.791   8.432
 2227POPC   C3A32249  33.189  43.025   8.037
 2227POPC   C4A32250  33.477  43.132   7.723
 2227POPC   C1B32251  32.653  42.887   8.659
 2227POPC   C2B32252  32.720  42.949   8.245
 2227POPC   C3B32253  32.740  42.845   7.842
 2227POPC   C4B32254  32.960  43.075   7.557
 2228POPC   NC332255  16.869  17.803   9.421
 2228POPC   PO432256  16.495  17.472   9.857
 2228POPC   GL132257  16.433  17.540   9.335
 2228POPC   GL232258  16.400  17.878   9.187
 2228POPC   C1A32259  16.688  17.470   8.865
 2228POPC   D2A32260  16.949  17.571   8.486
 2228POPC   C3A32261  16.802  17.554   8.061
 2228POPC   C4A32262  16.627  17.316   7.721
 2228POPC   C1B32263  16.142  18.015   8.849
 2228POPC   C2B32264  16.146  17.994   8.424
 2228POPC   C3B32265  16.359  17.861   8.045
 2228POPC   C4B32266  16.207  17.702   7.647
 2229POPC   NC332267   7.339  38.461   9.535
 2229POPC   PO432268   7.724  38.894   9.239
 2229POPC   GL132269   7.551  38.589   8.952
 2229POPC   GL232270   7.513  38.255   9.097
 2229POPC   C1A32271   7.464  38.590   8.505
 2229POPC   D2A32272   7.116  38.638   8.191
 2229POPC   C3A32273   7.372  38.592   7.832
 2229POPC   C4A32274   7.396  38.468   7.416
 2229POPC   C1B32275   7.258  38.156   8.711
 2229POPC   C2B32276   7.321  38.157   8.244
 2229POPC   C3B32277   7.274  38.107   7.794
 2229POPC   C4B32278   7.168  38.009   7.346
 2230POPC   NC332279   2.420   2.129   9.399
 2230POPC   PO432280   1.745   2.120   9.487
 2230POPC   GL132281   1.900   1.996   9.084
 2230POPC   GL232282   2.219   1.901   8.995
 2230POPC   C1A32283   1.949   2.197   8.680
 2230POPC   D2A32284   2.109   2.257   8.274
 2230POPC   C3A32285   1.819   2.236   7.940
 2230POPC   C4A32286   1.846   2.098   7.513
 2230POPC   C1B32287   2.112   1.721   8.623
 2230POPC   C2B32288   2.223   1.763   8.155
 2230POPC   C3B32289   2.272   1.981   7.762
 2230POPC   C4B32290   2.313   1.936   7.301
 2231POPC   NC332291  18.545  32.168   9.535
 2231POPC   PO432292  17.861  32.353   9.619
 2231POPC   GL132293  18.099  32.287   9.235
 2231POPC   GL232294  18.167  32.571   9.016
 2231POPC   C1A32295  18.264  32.096   8.834
 2231POPC   D2A32296  18.494  32.138   8.452
 2231POPC   C3A32297  18.307  32.271   8.087
 2231POPC   C4A32298  18.524  32.042   7.737
 2231POPC   C1B32299  18.086  32.501   8.559
 2231POPC   C2B32300  18.017  32.729   8.187
 2231POPC   C3B32301  18.055  32.642   7.785
 2231POPC   C4B32302  18.085  32.252   7.633
 2232POPC   NC332303   6.861  23.763   9.633
 2232POPC   PO432304   6.268  23.923   9.310
 2232POPC   GL132305   6.637  23.726   9.107
 2232POPC   GL232306   6.964  23.878   9.126
 2232POPC   C1A32307   6.528  23.598   8.677
 2232POPC   D2A32308   6.280  23.607   8.291
 2232POPC   C3A32309   6.506  23.753   7.958
 2232POPC   C4A32310   6.585  23.627   7.515
 2232POPC   C1B32311   6.725  24.077   8.746
 2232POPC   C2B32312   6.442  24.144   8.390
 2232POPC   C3B32313   6.577  24.288   7.981
 2232POPC   C4B32314   6.791  24.064   7.674
 2233POPC   NC332315  23.985  26.921   9.248
 2233POPC   PO432316  23.276  27.122   9.360
 2233POPC   GL132317  23.522  26.936   9.000
 2233POPC   GL232318  23.662  26.597   8.987
 2233POPC   C1A32319  23.725  26.959   8.579
 2233POPC   D2A32320  23.825  27.043   8.123
 2233POPC   C3A32321  23.534  26.920   7.800
 2233POPC   C4A32322  23.469  27.030   7.344
 2233POPC   C1B32323  24.004  26.501   8.697
 2233POPC   C2B32324  24.037  26.614   8.271
 2233POPC   C3B32325  24.006  26.639   7.805
 2233POPC   C4B32326  23.863  26.692   7.379
 2234POPC   NC332327  36.543  17.640   9.513
 2234POPC   PO432328  37.247  17.820   9.472
 2234POPC   GL132329  36.926  17.600   9.138
 2234POPC   GL232330  36.521  17.568   9.027
 2234POPC   C1A32331  37.046  17.477   8.711
 2234POPC   D2A32332  36.949  17.418   8.276
 2234POPC   C3A32333  37.245  17.219   7.998
 2234POPC   C4A32334  37.124  17.148   7.557
 2234POPC   C1B32335  36.660  17.856   8.756
 2234POPC   C2B32336  36.582  17.893   8.342
 2234POPC   C3B32337  36.689  17.853   7.931
 2234POPC   C4B32338  36.989  17.602   7.776
 2235POPC   NC332339  41.829   2.408   9.514
 2235POPC   PO432340  41.530   3.033   9.579
 2235POPC   GL132341  41.679   2.830   9.217
 2235POPC   GL232342  41.455   2.536   9.196
 2235POPC   C1A32343  41.653   2.952   8.772
 2235POPC   D2A32344  41.838   2.989   8.330
 2235POPC   C3A32345  41.551   2.990   7.944
 2235POPC   C4A32346  41.613   2.947   7.492
 2235POPC   C1B32347  41.785   2.469   8.884
 2235POPC   C2B32348  41.689   2.523   8.485
 2235POPC   C3B32349  41.731   2.543   8.060
 2235POPC   C4B32350  41.406   2.468   7.779
 2236POPC   NC332351  11.463   7.305   9.547
 2236POPC   PO432352  11.559   7.922   9.626
 2236POPC   GL132353  11.456   7.697   9.194
 2236POPC   GL232354  11.566   7.316   9.050
 2236POPC   C1A32355  11.316   7.621   8.764
 2236POPC   D2A32356  11.223   7.372   8.403
 2236POPC   C3A32357  11.298   7.634   8.052
 2236POPC   C4A32358  11.594   7.667   7.723
 2236POPC   C1B32359  11.206   7.077   8.857
 2236POPC   C2B32360  11.104   6.865   8.447
 2236POPC   C3B32361  10.916   6.975   8.012
 2236POPC   C4B32362  11.135   7.286   7.711
 2237POPC   NC332363  23.212   5.787  10.135
 2237POPC   PO432364  22.768   5.736   9.669
 2237POPC   GL132365  22.812   5.903   9.266
 2237POPC   GL232366  22.838   5.574   9.159
 2237POPC   C1A32367  23.004   5.962   8.848
 2237POPC   D2A32368  23.210   5.975   8.454
 2237POPC   C3A32369  23.001   5.977   8.052
 2237POPC   C4A32370  23.120   6.200   7.737
 2237POPC   C1B32371  22.727   5.530   8.773
 2237POPC   C2B32372  22.805   5.687   8.409
 2237POPC   C3B32373  22.826   5.494   7.999
 2237POPC   C4B32374  23.019   5.622   7.660
 2238POPC   NC332375  21.892  23.116   9.623
 2238POPC   PO432376  21.323  22.615   9.488
 2238POPC   GL132377  21.533  22.904   9.248
 2238POPC   GL232378  21.406  23.239   9.307
 2238POPC   C1A32379  21.615  22.851   8.817
 2238POPC   D2A32380  21.553  23.102   8.413
 2238POPC   C3A32381  21.542  22.816   8.054
 2238POPC   C4A32382  21.656  22.854   7.623
 2238POPC   C1B32383  21.317  23.268   8.869
 2238POPC   C2B32384  21.064  23.018   8.557
 2238POPC   C3B32385  21.052  23.028   8.106
 2238POPC   C4B32386  21.276  23.166   7.728
 2239POPC   NC332387  41.224  22.499   9.513
 2239POPC   PO432388  41.419  23.152   9.434
 2239POPC   GL132389  41.156  23.056   9.095
 2239POPC   GL232390  41.101  22.691   9.074
 2239POPC   C1A32391  41.342  23.117   8.705
 2239POPC   D2A32392  41.677  22.881   8.480
 2239POPC   C3A32393  41.606  22.810   8.033
 2239POPC   C4A32394  41.408  23.083   7.769
 2239POPC   C1B32395  41.281  22.615   8.696
 2239POPC   C2B32396  41.182  22.828   8.315
 2239POPC   C3B32397  41.093  22.652   7.916
 2239POPC   C4B32398  41.294  22.510   7.553
 2240POPC   NC332399   4.960  21.520   9.464
 2240POPC   PO432400   5.406  21.139   9.592
 2240POPC   GL132401   5.354  21.198   9.062
 2240POPC   GL232402   4.991  21.308   9.020
 2240POPC   C1A32403   5.240  21.402   8.617
 2240POPC   D2A32404   4.925  21.340   8.306
 2240POPC   C3A32405   5.169  21.361   7.927
 2240POPC   C4A32406   5.601  21.308   7.755
 2240POPC   C1B32407   4.758  21.608   8.742
 2240POPC   C2B32408   4.859  21.862   8.367
 2240POPC   C3B32409   4.791  21.710   7.958
 2240POPC   C4B32410   4.599  21.660   7.570
 2241POPC   NC332411   0.430   7.925   9.616
 2241POPC   PO432412   0.536   7.298   9.582
 2241POPC   GL132413   0.581   7.573   9.224
 2241POPC   GL232414   0.805   7.324   9.111
 2241POPC   C1A32415   0.553   7.654   8.764
 2241POPC   D2A32416   0.364   7.487   8.358
 2241POPC   C3A32417   0.266   7.536   7.885
 2241POPC   C4A32418  44.994   7.533   7.512
 2241POPC   C1B32419   0.806   7.039   8.790
 2241POPC   C2B32420   0.666   7.077   8.379
 2241POPC   C3B32421   0.739   7.323   8.020
 2241POPC   C4B32422   0.715   7.070   7.712
 2242POPC   NC332423  25.966  35.222   9.560
 2242POPC   PO432424  25.729  35.797   9.309
 2242POPC   GL132425  25.933  35.608   9.004
 2242POPC   GL232426  26.029  35.280   9.068
 2242POPC   C1A32427  25.910  35.547   8.577
 2242POPC   D2A32428  26.190  35.595   8.238
 2242POPC   C3A32429  26.044  35.500   7.799
 2242POPC   C4A32430  25.672  35.526   7.580
 2242POPC   C1B32431  26.058  35.021   8.733
 2242POPC   C2B32432  25.888  35.082   8.393
 2242POPC   C3B32433  26.080  35.074   8.059
 2242POPC   C4B32434  26.311  35.037   7.732
 2243POPC   NC332435  14.213  44.849   9.455
 2243POPC   PO432436  14.640  44.209   9.441
 2243POPC   GL132437  14.445  44.500   9.144
 2243POPC   GL232438  14.569  44.857   9.090
 2243POPC   C1A32439  14.258  44.664   8.753
 2243POPC   D2A32440  14.243  44.830   8.332
 2243POPC   C3A32441  14.150  44.624   7.955
 2243POPC   C4A32442  14.453  44.443   7.659
 2243POPC   C1B32443  14.798  44.913   8.694
 2243POPC   C2B32444  14.683   0.087   8.288
 2243POPC   C3B32445  14.552  44.927   7.870
 2243POPC   C4B32446  14.763  44.857   7.463
 2244POPC   NC332447  28.700  31.140   9.444
 2244POPC   PO432448  28.888  31.865   9.501
 2244POPC   GL132449  29.027  31.860   9.088
 2244POPC   GL232450  29.008  31.504   9.023
 2244POPC   C1A32451  29.336  31.816   8.765
 2244POPC   D2A32452  29.389  32.003   8.335
 2244POPC   C3A32453  29.410  31.685   8.030
 2244POPC   C4A32454  29.053  31.644   7.754
 2244POPC   C1B32455  29.278  31.331   8.652
 2244POPC   C2B32456  29.136  31.289   8.233
 2244POPC   C3B32457  29.297  31.219   7.835
 2244POPC   C4B32458  29.430  31.450   7.470
 2245POPC   NC332459  34.273  20.260   9.401
 2245POPC   PO432460  34.640  20.852   9.339
 2245POPC   GL132461  34.659  20.512   9.117
 2245POPC   GL232462  35.005  20.376   9.090
 2245POPC   C1A32463  34.498  20.574   8.703
 2245POPC   D2A32464  34.451  20.313   8.351
 2245POPC   C3A32465  34.634  20.481   8.006
 2245POPC   C4A32466  34.475  20.843   7.796
 2245POPC   C1B32467  34.991  20.720   8.764
 2245POPC   C2B32468  34.782  20.830   8.369
 2245POPC   C3B32469  34.950  20.913   7.973
 2245POPC   C4B32470  34.911  20.869   7.517
 2246POPC   NC332471  22.879  19.178   9.794
 2246POPC   PO432472  22.470  18.744   9.577
 2246POPC   GL132473  22.616  19.143   9.326
 2246POPC   GL232474  22.969  19.286   9.282
 2246POPC   C1A32475  22.657  19.280   8.887
 2246POPC   D2A32476  22.711  19.338   8.417
 2246POPC   C3A32477  22.924  18.962   8.203
 2246POPC   C4A32478  23.053  18.899   7.758
 2246POPC   C1B32479  23.152  19.414   8.876
 2246POPC   C2B32480  23.186  19.569   8.446
 2246POPC   C3B32481  23.198  19.372   8.036
 2246POPC   C4B32482  23.301  19.314   7.613
 2247POPC   NC332483  41.858  43.949   9.587
 2247POPC   PO432484  42.562  44.091   9.505
 2247POPC   GL132485  42.480  43.849   9.153
 2247POPC   GL232486  42.147  43.867   9.165
 2247POPC   C1A32487  42.422  43.980   8.719
 2247POPC   D2A32488  42.519  43.806   8.315
 2247POPC   C3A32489  42.374  44.048   7.933
 2247POPC   C4A32490  42.610  44.123   7.585
 2247POPC   C1B32491  42.101  43.581   8.838
 2247POPC   C2B32492  41.918  43.601   8.453
 2247POPC   C3B32493  42.113  43.635   8.068
 2247POPC   C4B32494  42.024  43.691   7.676
 2248POPC   NC332495   1.101  38.584   9.384
 2248POPC   PO432496   1.491  38.084   9.421
 2248POPC   GL132497   1.462  38.384   9.100
 2248POPC   GL232498   1.537  38.736   9.134
 2248POPC   C1A32499   1.337  38.533   8.682
 2248POPC   D2A32500   1.559  38.640   8.316
 2248POPC   C3A32501   1.453  38.427   7.931
 2248POPC   C4A32502   1.105  38.427   7.666
 2248POPC   C1B32503   1.562  38.973   8.758
 2248POPC   C2B32504   1.236  39.027   8.449
 2248POPC   C3B32505   1.124  38.796   8.085
 2248POPC   C4B32506   1.183  38.928   7.702
 2249POPC   NC332507  41.753  29.720   9.500
 2249POPC   PO432508  41.183  30.111   9.569
 2249POPC   GL132509  41.303  29.862   9.190
 2249POPC   GL232510  41.606  29.994   9.085
 2249POPC   C1A32511  41.339  29.778   8.709
 2249POPC   D2A32512  41.523  29.989   8.304
 2249POPC   C3A32513  41.298  30.117   7.942
 2249POPC   C4A32514  41.362  29.849   7.598
 2249POPC   C1B32515  41.835  29.942   8.711
 2249POPC   C2B32516  42.031  29.873   8.342
 2249POPC   C3B32517  41.942  29.801   7.927
 2249POPC   C4B32518  41.865  30.216   7.734
 2250POPC   NC332519  18.560  12.750   9.410
 2250POPC   PO432520  18.106  13.197   9.551
 2250POPC   GL132521  18.173  13.080   9.151
 2250POPC   GL232522  18.504  13.185   9.116
 2250POPC   C1A32523  18.173  12.950   8.717
 2250POPC   D2A32524  18.389  13.109   8.339
 2250POPC   C3A32525  18.180  13.010   7.928
 2250POPC   C4A32526  17.999  12.825   7.569
 2250POPC   C1B32527  18.696  12.947   8.790
 2250POPC   C2B32528  18.881  12.872   8.396
 2250POPC   C3B32529  18.651  12.788   8.023
 2250POPC   C4B32530  18.484  12.694   7.642
 2251POPC   NC332531  17.796  41.000   9.614
 2251POPC   PO432532  17.308  40.499   9.495
 2251POPC   GL132533  17.514  40.545   9.132
 2251POPC   GL232534  17.630  40.852   9.145
 2251POPC   C1A32535  17.573  40.533   8.709
 2251POPC   D2A32536  17.506  40.785   8.369
 2251POPC   C3A32537  17.482  40.568   8.003
 2251POPC   C4A32538  17.665  40.567   7.610
 2251POPC   C1B32539  17.645  41.080   8.770
 2251POPC   C2B32540  17.804  41.236   8.360
 2251POPC   C3B32541  17.663  41.095   7.987
 2251POPC   C4B32542  17.653  41.078   7.586
 2252POPC   NC332543  15.303  27.029   9.423
 2252POPC   PO432544  15.472  26.436   9.475
 2252POPC   GL132545  15.140  26.603   9.168
 2252POPC   GL232546  14.863  26.884   9.164
 2252POPC   C1A32547  15.147  26.748   8.746
 2252POPC   D2A32548  15.232  26.583   8.347
 2252POPC   C3A32549  15.393  26.865   8.089
 2252POPC   C4A32550  15.401  26.981   7.681
 2252POPC   C1B32551  14.780  27.108   8.757
 2252POPC   C2B32552  14.915  27.074   8.319
 2252POPC   C3B32553  14.882  26.983   7.881
 2252POPC   C4B32554  14.843  27.035   7.422
 2253POPC   NC332555  35.996  32.484   9.477
 2253POPC   PO432556  36.429  32.001   9.553
 2253POPC   GL132557  36.124  32.059   9.217
 2253POPC   GL232558  35.743  32.154   9.163
 2253POPC   C1A32559  36.096  32.140   8.793
 2253POPC   D2A32560  35.930  32.294   8.436
 2253POPC   C3A32561  35.920  32.021   8.080
 2253POPC   C4A32562  36.247  32.154   7.793
 2253POPC   C1B32563  35.599  32.436   8.831
 2253POPC   C2B32564  35.561  32.664   8.441
 2253POPC   C3B32565  35.725  32.536   8.036
 2253POPC   C4B32566  35.788  32.325   7.663
 2254POPC   NC332567  41.677   9.649   9.512
 2254POPC   PO432568  41.064   9.953   9.504
 2254POPC   GL132569  41.342   9.886   9.146
 2254POPC   GL232570  41.680   9.999   9.129
 2254POPC   C1A32571  41.300   9.998   8.701
 2254POPC   D2A32572  41.544  10.049   8.326
 2254POPC   C3A32573  41.597   9.671   8.083
 2254POPC   C4A32574  41.438   9.642   7.691
 2254POPC   C1B32575  41.903   9.938   8.740
 2254POPC   C2B32576  42.032   9.845   8.310
 2254POPC   C3B32577  41.894  10.030   7.903
 2254POPC   C4B32578  41.717   9.978   7.451
 2255POPC   NC332579   1.003  40.125   9.459
 2255POPC   PO432580   1.576  39.692   9.434
 2255POPC   GL132581   1.308  39.845   9.105
 2255POPC   GL232582   0.939  39.786   9.028
 2255POPC   C1A32583   1.247  40.222   8.874
 2255POPC   D2A32584   1.325  40.323   8.480
 2255POPC   C3A32585   1.157  40.065   8.113
 2255POPC   C4A32586   1.089  40.219   7.727
 2255POPC   C1B32587   1.047  39.873   8.577
 2255POPC   C2B32588   1.346  39.612   8.304
 2255POPC   C3B32589   1.599  39.601   7.961
 2255POPC   C4B32590   1.398  39.832   7.663
 2256POPC   NC332591  15.837  24.231   9.467
 2256POPC   PO432592  15.500  24.825   9.341
 2256POPC   GL132593  15.965  24.805   9.092
 2256POPC   GL232594  16.098  24.466   9.070
 2256POPC   C1A32595  16.336  24.710   8.722
 2256POPC   D2A32596  16.219  24.448   8.342
 2256POPC   C3A32597  16.243  24.595   7.906
 2256POPC   C4A32598  16.264  24.350   7.534
 2256POPC   C1B32599  15.833  24.585   8.641
 2256POPC   C2B32600  15.783  24.639   8.140
 2256POPC   C3B32601  15.786  24.478   7.703
 2256POPC   C4B32602  15.534  24.559   7.353
 2257POPC   NC332603   8.204   0.787   9.441
 2257POPC   PO432604   7.999   0.079   9.455
 2257POPC   GL132605   8.010   0.378   9.156
 2257POPC   GL232606   8.375   0.372   9.120
 2257POPC   C1A32607   8.048   0.380   8.709
 2257POPC   D2A32608   8.002   0.576   8.340
 2257POPC   C3A32609   8.049   0.295   8.026
 2257POPC   C4A32610   7.911   0.456   7.648
 2257POPC   C1B32611   8.450   0.677   8.777
 2257POPC   C2B32612   8.525   0.549   8.332
 2257POPC   C3B32613   8.387   0.711   7.936
 2257POPC   C4B32614   8.316   0.731   7.489
 2258POPC   NC332615  18.335  39.046   9.368
 2258POPC   PO432616  18.152  38.497   9.783
 2258POPC   GL132617  18.105  38.290   9.353
 2258POPC   GL232618  18.258  38.563   9.212
 2258POPC   C1A32619  18.147  38.204   8.865
 2258POPC   D2A32620  18.314  38.353   8.440
 2258POPC   C3A32621  18.188  38.281   8.040
 2258POPC   C4A32622  17.938  38.564   7.865
 2258POPC   C1B32623  18.472  38.609   8.838
 2258POPC   C2B32624  18.561  38.848   8.529
 2258POPC   C3B32625  18.582  38.783   8.121
 2258POPC   C4B32626  18.443  38.612   7.748
 2259POPC   NC332627   6.234  10.436   9.768
 2259POPC   PO432628   6.886  10.366   9.626
 2259POPC   GL132629   6.898  10.474   9.200
 2259POPC   GL232630   6.615  10.676   9.155
 2259POPC   C1A32631   6.800  10.342   8.775
 2259POPC   D2A32632   6.784  10.527   8.360
 2259POPC   C3A32633   6.681  10.219   8.068
 2259POPC   C4A32634   6.871  10.202   7.690
 2259POPC   C1B32635   6.612  10.847   8.723
 2259POPC   C2B32636   6.486  11.072   8.327
 2259POPC   C3B32637   6.325  10.946   7.938
 2259POPC   C4B32638   6.571  10.636   7.757
 2260POPC   NC332639  30.778  21.824   9.504
 2260POPC   PO432640  30.513  22.470   9.551
 2260POPC   GL132641  30.426  22.109   9.250
 2260POPC   GL232642  30.685  21.955   9.018
 2260POPC   C1A32643  30.267  22.177   8.853
 2260POPC   D2A32644  30.351  22.045   8.444
 2260POPC   C3A32645  30.645  22.246   8.188
 2260POPC   C4A32646  30.562  22.462   7.807
 2260POPC   C1B32647  30.875  22.076   8.623
 2260POPC   C2B32648  31.076  21.958   8.201
 2260POPC   C3B32649  30.820  21.939   7.828
 2260POPC   C4B32650  30.377  21.843   7.952
 2261POPC   NC332651   5.468  34.309   9.576
 2261POPC   PO432652   4.811  34.239   9.597
 2261POPC   GL132653   4.954  34.436   9.219
 2261POPC   GL232654   5.269  34.515   9.151
 2261POPC   C1A32655   4.939  34.537   8.765
 2261POPC   D2A32656   4.870  34.724   8.359
 2261POPC   C3A32657   4.796  34.467   7.987
 2261POPC   C4A32658   4.844  34.533   7.525
 2261POPC   C1B32659   5.435  34.764   8.783
 2261POPC   C2B32660   5.355  34.948   8.383
 2261POPC   C3B32661   5.270  34.722   7.993
 2261POPC   C4B32662   5.529  34.758   7.635
 2262POPC   NC332663  26.399  30.751   9.572
 2262POPC   PO432664  25.875  30.455   9.444
 2262POPC   GL132665  25.917  30.865   9.233
 2262POPC   GL232666  26.246  30.931   9.119
 2262POPC   C1A32667  25.786  30.961   8.801
 2262POPC   D2A32668  25.891  30.762   8.394
 2262POPC   C3A32669  25.888  30.893   7.961
 2262POPC   C4A32670  25.827  30.552   7.643
 2262POPC   C1B32671  26.283  30.924   8.696
 2262POPC   C2B32672  26.479  30.850   8.336
 2262POPC   C3B32673  26.411  30.912   7.964
 2262POPC   C4B32674  26.317  30.654   7.666
 2263POPC   NC332675   1.636  36.077   9.806
 2263POPC   PO432676   2.247  36.204   9.769
 2263POPC   GL132677   2.089  36.033   9.295
 2263POPC   GL232678   1.759  35.858   9.172
 2263POPC   C1A32679   2.033  36.245   8.843
 2263POPC   D2A32680   1.781  36.369   8.448
 2263POPC   C3A32681   1.973  36.260   8.041
 2263POPC   C4A32682   2.029  36.450   7.639
 2263POPC   C1B32683   1.625  35.933   8.736
 2263POPC   C2B32684   1.560  35.704   8.340
 2263POPC   C3B32685   1.860  35.758   7.968
 2263POPC   C4B32686   1.762  36.028   7.597
 2264POPC   NC332687  10.466  28.098   9.562
 2264POPC   PO432688  10.847  28.685   9.633
 2264POPC   GL132689  10.576  28.544   9.268
 2264POPC   GL232690  10.696  28.228   9.140
 2264POPC   C1A32691  10.426  28.510   8.808
 2264POPC   D2A32692  10.170  28.677   8.467
 2264POPC   C3A32693  10.326  28.529   8.094
 2264POPC   C4A32694  10.212  28.214   7.820
 2264POPC   C1B32695  10.936  28.346   8.785
 2264POPC   C2B32696  10.850  28.358   8.362
 2264POPC   C3B32697  10.709  28.213   7.984
 2264POPC   C4B32698  10.883  28.492   7.729
 2265POPC   NC332699  17.130   9.648   9.495
 2265POPC   PO432700  16.602   9.798   9.668
 2265POPC   GL132701  16.765   9.796   9.198
 2265POPC   GL232702  16.816   9.470   9.096
 2265POPC   C1A32703  16.746   9.828   8.731
 2265POPC   D2A32704  16.516  10.064   8.405
 2265POPC   C3A32705  16.663   9.934   8.006
 2265POPC   C4A32706  16.921   9.645   7.812
 2265POPC   C1B32707  16.525   9.292   8.726
 2265POPC   C2B32708  16.379   9.117   8.340
 2265POPC   C3B32709  16.469   9.198   7.919
 2265POPC   C4B32710  16.416   9.576   7.740
 2266POPC   NC332711   6.978  42.918   9.455
 2266POPC   PO432712   7.531  43.285   9.480
 2266POPC   GL132713   7.424  43.123   9.093
 2266POPC   GL232714   7.311  42.779   9.095
 2266POPC   C1A32715   7.503  43.173   8.645
 2266POPC   D2A32716   7.522  43.476   8.291
 2266POPC   C3A32717   7.474  43.339   7.866
 2266POPC   C4A32718   7.074  43.266   7.643
 2266POPC   C1B32719   7.630  42.708   8.836
 2266POPC   C2B32720   7.763  42.758   8.445
 2266POPC   C3B32721   7.618  42.667   8.046
 2266POPC   C4B32722   7.357  42.835   7.742
 2267POPC   NC332723  37.207  37.863   9.556
 2267POPC   PO432724  37.888  37.598   9.616
 2267POPC   GL132725  37.568  37.605   9.288
 2267POPC   GL232726  37.519  37.955   9.188
 2267POPC   C1A32727  37.546  37.615   8.826
 2267POPC   D2A32728  37.676  37.474   8.433
 2267POPC   C3A32729  37.777  37.755   8.103
 2267POPC   C4A32730  37.804  37.630   7.696
 2267POPC   C1B32731  37.443  38.131   8.814
 2267POPC   C2B32732  37.432  37.989   8.407
 2267POPC   C3B32733  37.396  38.150   7.973
 2267POPC   C4B32734  37.500  37.989   7.526
 2268POPC   NC332735  42.664  23.623   9.400
 2268POPC   PO432736  43.327  23.475   9.428
 2268POPC   GL132737  43.068  23.610   9.087
 2268POPC   GL232738  42.953  23.950   9.133
 2268POPC   C1A32739  42.995  23.751   8.656
 2268POPC   D2A32740  43.275  23.909   8.348
 2268POPC   C3A32741  43.096  23.741   7.979
 2268POPC   C4A32742  43.016  23.557   7.561
 2268POPC   C1B32743  43.132  24.207   8.795
 2268POPC   C2B32744  42.945  24.288   8.416
 2268POPC   C3B32745  43.104  24.244   7.995
 2268POPC   C4B32746  43.074  24.119   7.605
 2269POPC   NC332747  28.147  16.758   9.741
 2269POPC   PO432748  28.530  17.228   9.647
 2269POPC   GL132749  28.284  17.082   9.275
 2269POPC   GL232750  28.265  16.733   9.238
 2269POPC   C1A32751  28.144  17.056   8.823
 2269POPC   D2A32752  28.158  16.758   8.448
 2269POPC   C3A32753  28.047  16.715   7.995
 2269POPC   C4A32754  28.176  16.474   7.633
 2269POPC   C1B32755  28.604  16.842   8.934
 2269POPC   C2B32756  28.602  17.022   8.510
 2269POPC   C3B32757  28.505  16.974   8.049
 2269POPC   C4B32758  28.646  16.764   7.638
 2270POPC   NC332759  44.948  41.229   9.738
 2270POPC   PO432760  44.604  41.534   9.412
 2270POPC   GL132761  44.664  41.471   8.994
 2270POPC   GL232762  44.732  41.150   9.065
 2270POPC   C1A32763  44.911  41.469   8.597
 2270POPC   D2A32764   0.108  41.571   8.197
 2270POPC   C3A32765  44.797  41.607   7.859
 2270POPC   C4A32766  44.778  41.778   7.445
 2270POPC   C1B32767  44.571  41.072   8.649
 2270POPC   C2B32768  44.644  41.233   8.223
 2270POPC   C3B32769  44.591  41.135   7.797
 2270POPC   C4B32770  44.794  41.281   7.436
 2271POPC   NC332771  41.133  40.620   9.460
 2271POPC   PO432772  40.876  41.258   9.368
 2271POPC   GL132773  40.884  40.937   9.135
 2271POPC   GL232774  40.585  40.784   9.197
 2271POPC   C1A32775  40.933  40.808   8.732
 2271POPC   D2A32776  41.154  40.578   8.456
 2271POPC   C3A32777  40.981  40.668   8.053
 2271POPC   C4A32778  40.922  41.022   7.784
 2271POPC   C1B32779  40.436  40.683   8.770
 2271POPC   C2B32780  40.568  40.581   8.360
 2271POPC   C3B32781  40.483  40.822   7.975
 2271POPC   C4B32782  40.475  40.833   7.546
 2272POPC   NC332783  28.664   2.664   9.611
 2272POPC   PO432784  28.211   3.050   9.637
 2272POPC   GL132785  28.315   2.730   9.237
 2272POPC   GL232786  28.632   2.505   9.137
 2272POPC   C1A32787  28.211   2.738   8.785
 2272POPC   D2A32788  28.135   3.003   8.381
 2272POPC   C3A32789  28.058   2.811   8.000
 2272POPC   C4A32790  28.281   2.548   7.725
 2272POPC   C1B32791  28.681   2.874   8.896
 2272POPC   C2B32792  28.620   2.915   8.484
 2272POPC   C3B32793  28.638   2.801   8.055
 2272POPC   C4B32794  28.795   2.967   7.659
 2273POPC   NC332795   9.011   2.618   9.865
 2273POPC   PO432796   9.042   2.220   9.339
 2273POPC   GL132797   9.091   2.567   9.109
 2273POPC   GL232798   8.862   2.820   9.204
 2273POPC   C1A32799   9.081   2.569   8.673
 2273POPC   D2A32800   8.856   2.356   8.365
 2273POPC   C3A32801   9.123   2.495   8.070
 2273POPC   C4A32802   9.144   2.704   7.702
 2273POPC   C1B32803   8.619   2.681   8.821
 2273POPC   C2B32804   8.519   2.765   8.382
 2273POPC   C3B32805   8.669   2.676   7.956
 2273POPC   C4B32806   8.514   2.422   7.610
 2274POPC   NC332807   0.812  31.033   9.729
 2274POPC   PO432808   0.096  31.020   9.736
 2274POPC   GL132809   0.329  30.976   9.290
 2274POPC   GL232810   0.114  31.126   9.025
 2274POPC   C1A32811   0.477  30.716   8.890
 2274POPC   D2A32812   0.478  30.731   8.394
 2274POPC   C3A32813   0.533  30.494   7.983
 2274POPC   C4A32814   0.444  30.529   7.511
 2274POPC   C1B32815   0.430  31.173   8.679
 2274POPC   C2B32816   0.508  31.222   8.231
 2274POPC   C3B32817   0.513  30.989   7.830
 2274POPC   C4B32818   0.653  30.977   7.390
 2275POPC   NC332819  21.953  32.983   9.543
 2275POPC   PO432820  22.581  33.233   9.548
 2275POPC   GL132821  22.369  32.994   9.232
 2275POPC   GL232822  22.164  33.263   9.159
 2275POPC   C1A32823  22.149  32.864   8.856
 2275POPC   D2A32824  22.116  33.069   8.455
 2275POPC   C3A32825  21.786  32.929   8.187
 2275POPC   C4A32826  21.782  32.768   7.781
 2275POPC   C1B32827  22.496  33.386   8.892
 2275POPC   C2B32828  22.533  33.608   8.512
 2275POPC   C3B32829  22.277  33.474   8.169
 2275POPC   C4B32830  22.192  33.137   7.858
 2276POPC   NC332831  37.090  22.361   9.490
 2276POPC   PO432832  36.464  22.053   9.583
 2276POPC   GL132833  36.712  22.121   9.203
 2276POPC   GL232834  37.008  21.895   9.163
 2276POPC   C1A32835  36.853  22.240   8.786
 2276POPC   D2A32836  36.925  22.076   8.367
 2276POPC   C3A32837  36.717  22.143   7.955
 2276POPC   C4A32838  36.444  21.883   7.712
 2276POPC   C1B32839  37.298  21.973   8.793
 2276POPC   C2B32840  37.445  22.056   8.395
 2276POPC   C3B32841  37.233  21.956   7.979
 2276POPC   C4B32842  37.184  22.146   7.616
 2277POPC   NC332843  43.911  30.556   9.761
 2277POPC   PO432844  44.103  31.140   9.748
 2277POPC   GL132845  43.960  31.004   9.311
 2277POPC   GL232846  44.030  30.647   9.252
 2277POPC   C1A32847  43.922  30.950   8.849
 2277POPC   D2A32848  43.663  31.121   8.503
 2277POPC   C3A32849  43.774  30.883   8.141
 2277POPC   C4A32850  43.893  30.657   7.735
 2277POPC   C1B32851  43.962  30.435   8.834
 2277POPC   C2B32852  43.909  30.424   8.362
 2277POPC   C3B32853  44.050  30.227   7.953
 2277POPC   C4B32854  44.255  30.274   7.534
 2278POPC   NC332855  20.204  42.466   9.416
 2278POPC   PO432856  19.498  42.667   9.503
 2278POPC   GL132857  19.698  42.488   9.116
 2278POPC   GL232858  19.594  42.133   8.974
 2278POPC   C1A32859  19.811  42.494   8.669
 2278POPC   D2A32860  19.694  42.578   8.212
 2278POPC   C3A32861  20.027  42.540   7.884
 2278POPC   C4A32862  19.974  42.494   7.378
 2278POPC   C1B32863  19.882  41.973   8.668
 2278POPC   C2B32864  19.895  41.774   8.300
 2278POPC   C3B32865  19.774  42.052   8.022
 2278POPC   C4B32866  19.661  42.264   7.688
 2279POPC   NC332867  37.698  33.555   9.480
 2279POPC   PO432868  37.346  34.113   9.426
 2279POPC   GL132869  37.556  33.943   9.070
 2279POPC   GL232870  37.411  33.625   9.017
 2279POPC   C1A32871  37.735  33.979   8.642
 2279POPC   D2A32872  37.872  34.151   8.229
 2279POPC   C3A32873  37.677  33.955   7.821
 2279POPC   C4A32874  37.305  33.615   7.750
 2279POPC   C1B32875  37.860  33.538   8.866
 2279POPC   C2B32876  38.048  33.414   8.495
 2279POPC   C3B32877  37.840  33.296   8.119
 2279POPC   C4B32878  37.775  33.449   7.698
 2280POPC   NC332879   9.158  41.824   9.588
 2280POPC   PO432880   8.781  41.365   9.585
 2280POPC   GL132881   8.792  41.614   9.213
 2280POPC   GL232882   9.072  41.817   9.100
 2280POPC   C1A32883   8.877  41.490   8.782
 2280POPC   D2A32884   9.072  41.675   8.423
 2280POPC   C3A32885   8.820  41.704   8.102
 2280POPC   C4A32886   8.808  41.477   7.748
 2280POPC   C1B32887   9.278  41.998   8.752
 2280POPC   C2B32888   9.412  42.052   8.308
 2280POPC   C3B32889   9.189  41.985   7.918
 2280POPC   C4B32890   9.120  41.799   7.477
 2281POPC   NC332891  14.337   3.914   9.379
 2281POPC   PO432892  14.391   3.295   9.716
 2281POPC   GL132893  14.439   3.435   9.262
 2281POPC   GL232894  14.702   3.339   9.139
 2281POPC   C1A32895  14.341   3.532   8.799
 2281POPC   D2A32896  14.312   3.880   8.486
 2281POPC   C3A32897  14.435   3.846   8.067
 2281POPC   C4A32898  14.605   3.769   7.673
 2281POPC   C1B32899  14.819   3.323   8.749
 2281POPC   C2B32900  14.699   3.486   8.362
 2281POPC   C3B32901  14.918   3.500   7.967
 2281POPC   C4B32902  14.798   3.319   7.570
 2282POPC   NC332903  31.512  21.824   9.323
 2282POPC   PO432904  30.991  22.203   9.351
 2282POPC   GL132905  31.278  22.148   9.012
 2282POPC   GL232906  31.686  22.227   9.076
 2282POPC   C1A32907  31.379  22.110   8.607
 2282POPC   D2A32908  31.638  22.330   8.326
 2282POPC   C3A32909  31.397  22.273   7.983
 2282POPC   C4A32910  31.356  21.956   7.683
 2282POPC   C1B32911  31.865  22.067   8.720
 2282POPC   C2B32912  31.719  21.797   8.391
 2282POPC   C3B32913  31.778  21.940   7.977
 2282POPC   C4B32914  32.013  21.958   7.612
 2283POPC   NC332915   0.588   6.840   9.687
 2283POPC   PO432916   0.682   6.267   9.296
 2283POPC   GL132917   0.485   6.594   9.066
 2283POPC   GL232918   0.465   6.930   9.199
 2283POPC   C1A32919   0.488   6.653   8.623
 2283POPC   D2A32920   0.771   6.567   8.287
 2283POPC   C3A32921   0.580   6.342   7.946
 2283POPC   C4A32922   0.364   6.648   7.684
 2283POPC   C1B32923   0.321   7.169   8.850
 2283POPC   C2B32924   0.171   7.030   8.471
 2283POPC   C3B32925   0.267   7.060   8.031
 2283POPC   C4B32926  44.978   7.039   7.692
 2284POPC   NC332927  15.939  12.868   9.635
 2284POPC   PO432928  16.397  13.318   9.354
 2284POPC   GL132929  16.161  12.928   9.173
 2284POPC   GL232930  15.921  12.621   9.188
 2284POPC   C1A32931  15.978  12.842   8.721
 2284POPC   D2A32932  15.755  12.978   8.305
 2284POPC   C3A32933  16.038  13.087   7.946
 2284POPC   C4A32934  16.092  12.913   7.499
 2284POPC   C1B32935  16.334  12.524   8.946
 2284POPC   C2B32936  16.399  12.506   8.509
 2284POPC   C3B32937  16.299  12.662   8.103
 2284POPC   C4B32938  16.377  12.449   7.720
 2285POPC   NC332939  17.351  20.869   9.809
 2285POPC   PO432940  17.464  21.420   9.550
 2285POPC   GL132941  17.474  21.398   9.115
 2285POPC   GL232942  17.775  21.594   9.128
 2285POPC   C1A32943  17.375  21.330   8.671
 2285POPC   D2A32944  17.251  21.345   8.267
 2285POPC   C3A32945  17.411  21.638   8.005
 2285POPC   C4A32946  17.550  21.569   7.570
 2285POPC   C1B32947  17.670  21.723   8.733
 2285POPC   C2B32948  17.792  21.558   8.328
 2285POPC   C3B32949  17.804  21.284   7.931
 2285POPC   C4B32950  18.001  21.270   7.489
 2286POPC   NC332951  42.104  24.834   9.718
 2286POPC   PO432952  42.346  25.426   9.509
 2286POPC   GL132953  42.292  25.446   9.105
 2286POPC   GL232954  42.072  25.199   9.029
 2286POPC   C1A32955  42.269  25.538   8.698
 2286POPC   D2A32956  42.320  25.453   8.302
 2286POPC   C3A32957  42.095  25.265   8.001
 2286POPC   C4A32958  42.368  25.373   7.686
 2286POPC   C1B32959  42.486  25.027   8.839
 2286POPC   C2B32960  42.656  25.107   8.474
 2286POPC   C3B32961  42.608  25.098   8.040
 2286POPC   C4B32962  42.659  24.939   7.606
 2287POPC   NC332963  13.939  28.434   9.412
 2287POPC   PO432964  14.651  28.308   9.542
 2287POPC   GL132965  14.567  28.187   9.123
 2287POPC   GL232966  14.204  28.142   9.083
 2287POPC   C1A32967  14.589  28.408   8.744
 2287POPC   D2A32968  14.801  28.577   8.417
 2287POPC   C3A32969  14.638  28.609   8.013
 2287POPC   C4A32970  14.548  28.378   7.653
 2287POPC   C1B32971  14.059  28.269   8.672
 2287POPC   C2B32972  14.238  28.400   8.284
 2287POPC   C3B32973  14.082  28.256   7.881
 2287POPC   C4B32974  14.115  28.206   7.431
 2288POPC   NC332975  18.817  30.476   9.881
 2288POPC   PO432976  18.304  30.821   9.485
 2288POPC   GL132977  18.216  30.964   9.068
 2288POPC   GL232978  17.857  30.868   8.988
 2288POPC   C1A32979  18.497  31.169   8.731
 2288POPC   D2A32980  18.663  31.283   8.304
 2288POPC   C3A32981  18.512  30.996   7.957
 2288POPC   C4A32982  18.542  30.802   7.524
 2288POPC   C1B32983  18.142  30.807   8.595
 2288POPC   C2B32984  18.092  30.768   8.176
 2288POPC   C3B32985  18.060  30.830   7.744
 2288POPC   C4B32986  17.993  30.897   7.300
 2289POPC   NC332987  35.585   0.697   9.517
 2289POPC   PO432988  34.983   0.468   9.728
 2289POPC   GL132989  35.214   0.474   9.227
 2289POPC   GL232990  35.576   0.442   9.098
 2289POPC   C1A32991  35.279   0.389   8.725
 2289POPC   D2A32992  35.598   0.282   8.388
 2289POPC   C3A32993  35.416   0.234   7.983
 2289POPC   C4A32994  35.085   0.415   7.706
 2289POPC   C1B32995  35.722   0.659   8.731
 2289POPC   C2B32996  35.767   0.783   8.312
 2289POPC   C3B32997  35.501   0.729   7.950
 2289POPC   C4B32998  35.596   0.512   7.560
 2290POPC   NC332999  24.723  33.641   9.546
 2290POPC   PO433000  25.307  33.902   9.579
 2290POPC   GL133001  25.075  33.845   9.195
 2290POPC   GL233002  24.860  34.111   9.239
 2290POPC   C1A33003  25.107  33.685   8.759
 2290POPC   D2A33004  25.385  33.751   8.388
 2290POPC   C3A33005  25.316  33.554   7.994
 2290POPC   C4A33006  25.532  33.715   7.642
 2290POPC   C1B33007  24.886  34.165   8.778
 2290POPC   C2B33008  25.087  34.168   8.337
 2290POPC   C3B33009  25.193  34.049   7.871
 2290POPC   C4B33010  25.060  33.835   7.446
 2291POPC   NC333011  26.565   4.473   9.998
 2291POPC   PO433012  26.168   4.435   9.489
 2291POPC   GL133013  26.169   4.405   9.050
 2291POPC   GL233014  26.516   4.314   8.947
 2291POPC   C1A33015  25.967   4.556   8.655
 2291POPC   D2A33016  25.797   4.787   8.324
 2291POPC   C3A33017  25.778   4.474   7.969
 2291POPC   C4A33018  26.125   4.298   7.742
 2291POPC   C1B33019  26.285   4.161   8.616
 2291POPC   C2B33020  26.133   4.221   8.238
 2291POPC   C3B33021  25.929   3.897   7.952
 2291POPC   C4B33022  26.063   3.830   7.503
 2292POPC   NC333023  34.312   9.885   9.459
 2292POPC   PO433024  34.568   9.256   9.470
 2292POPC   GL133025  34.537   9.551   9.138
 2292POPC   GL233026  34.319   9.412   8.895
 2292POPC   C1A33027  34.559   9.867   8.815
 2292POPC   D2A33028  34.600   9.845   8.362
 2292POPC   C3A33029  34.293   9.653   8.063
 2292POPC   C4A33030  34.395   9.919   7.686
 2292POPC   C1B33031  34.761   9.413   8.665
 2292POPC   C2B33032  34.959   9.490   8.241
 2292POPC   C3B33033  34.729   9.551   7.847
 2292POPC   C4B33034  34.338   9.440   7.568
 2293POPC   NC333035  28.865  42.982   9.319
 2293POPC   PO433036  29.395  43.470   9.428
 2293POPC   GL133037  29.152  43.356   9.101
 2293POPC   GL233038  28.817  43.499   9.085
 2293POPC   C1A33039  29.191  43.072   8.749
 2293POPC   D2A33040  28.856  42.962   8.470
 2293POPC   C3A33041  28.988  43.058   8.057
 2293POPC   C4A33042  29.337  43.002   7.775
 2293POPC   C1B33043  28.870  43.463   8.679
 2293POPC   C2B33044  28.985  43.531   8.290
 2293POPC   C3B33045  28.733  43.553   7.934
 2293POPC   C4B33046  28.846  43.272   7.622
 2294POPC   NC333047  35.169  33.018   9.478
 2294POPC   PO433048  35.603  33.540   9.681
 2294POPC   GL133049  35.706  33.111   9.328
 2294POPC   GL233050  35.434  33.078   9.063
 2294POPC   C1A33051  35.839  32.902   8.863
 2294POPC   D2A33052  35.780  33.199   8.499
 2294POPC   C3A33053  35.670  33.053   8.076
 2294POPC   C4A33054  35.483  33.005   7.657
 2294POPC   C1B33055  35.174  33.242   8.733
 2294POPC   C2B33056  34.928  33.365   8.355
 2294POPC   C3B33057  35.126  33.242   7.948
 2294POPC   C4B33058  35.171  33.356   7.474
 2295POPC   NC333059   2.825  22.887   9.620
 2295POPC   PO433060   2.590  23.503   9.626
 2295POPC   GL133061   2.622  23.174   9.249
 2295POPC   GL233062   2.528  22.820   9.182
 2295POPC   C1A33063   2.943  22.959   8.931
 2295POPC   D2A33064   2.873  22.683   8.534
 2295POPC   C3A33065   2.935  22.865   8.079
 2295POPC   C4A33066   2.870  23.052   7.651
 2295POPC   C1B33067   2.470  22.952   8.740
 2295POPC   C2B33068   2.466  22.892   8.293
 2295POPC   C3B33069   2.438  22.906   7.846
 2295POPC   C4B33070   2.402  22.969   7.390
 2296POPC   NC333071  36.463  21.582   9.511
 2296POPC   PO433072  37.102  21.210   9.442
 2296POPC   GL133073  36.984  21.358   9.085
 2296POPC   GL233074  36.646  21.296   9.084
 2296POPC   C1A33075  37.200  21.460   8.729
 2296POPC   D2A33076  37.192  21.617   8.350
 2296POPC   C3A33077  36.928  21.466   8.054
 2296POPC   C4A33078  36.902  21.645   7.648
 2296POPC   C1B33079  36.717  21.296   8.620
 2296POPC   C2B33080  36.419  21.326   8.276
 2296POPC   C3B33081  36.493  21.364   7.819
 2296POPC   C4B33082  36.752  21.134   7.535
 2297POPC   NC333083  17.524  18.339   9.471
 2297POPC   PO433084  17.325  17.809   9.411
 2297POPC   GL133085  17.268  18.120   9.111
 2297POPC   GL233086  17.556  18.002   8.949
 2297POPC   C1A33087  17.362  18.447   8.811
 2297POPC   D2A33088  17.542  18.466   8.406
 2297POPC   C3A33089  17.332  18.476   8.006
 2297POPC   C4A33090  17.616  18.417   7.657
 2297POPC   C1B33091  17.214  18.014   8.595
 2297POPC   C2B33092  17.209  17.918   8.143
 2297POPC   C3B33093  17.327  17.997   7.690
 2297POPC   C4B33094  17.302  18.037   7.211
 2298POPC   NC333095  25.373   8.103   9.419
 2298POPC   PO433096  24.861   8.381   9.384
 2298POPC   GL133097  25.053   8.409   9.047
 2298POPC   GL233098  25.060   8.059   9.009
 2298POPC   C1A33099  24.985   8.442   8.608
 2298POPC   D2A33100  25.031   8.124   8.354
 2298POPC   C3A33101  25.267   8.167   7.986
 2298POPC   C4A33102  25.212   8.368   7.615
 2298POPC   C1B33103  25.394   8.177   8.744
 2298POPC   C2B33104  25.513   8.344   8.398
 2298POPC   C3B33105  25.783   8.187   8.065
 2298POPC   C4B33106  25.644   7.979   7.692
 2299POPC   NC333107  31.105   5.180  10.084
 2299POPC   PO433108  31.557   5.207   9.571
 2299POPC   GL133109  31.367   5.039   9.204
 2299POPC   GL233110  31.700   5.044   9.072
 2299POPC   C1A33111  31.324   5.183   8.766
 2299POPC   D2A33112  31.599   5.158   8.388
 2299POPC   C3A33113  31.358   5.023   8.029
 2299POPC   C4A33114  31.025   5.050   7.741
 2299POPC   C1B33115  31.892   4.763   8.765
 2299POPC   C2B33116  32.024   4.840   8.342
 2299POPC   C3B33117  31.854   4.895   7.945
 2299POPC   C4B33118  31.905   4.894   7.506
 2300POPC   NC333119  33.914   7.397   9.626
 2300POPC   PO433120  33.421   7.664   9.229
 2300POPC   GL133121  33.719   7.533   8.986
 2300POPC   GL233122  34.024   7.407   9.109
 2300POPC   C1A33123  33.877   7.543   8.617
 2300POPC   D2A33124  34.174   7.468   8.342
 2300POPC   C3A33125  33.995   7.548   7.938
 2300POPC   C4A33126  33.656   7.575   7.666
 2300POPC   C1B33127  33.909   7.063   8.771
 2300POPC   C2B33128  33.766   6.953   8.334
 2300POPC   C3B33129  33.709   7.087   7.901
 2300POPC   C4B33130  33.950   7.177   7.497
 2301POPC   NC333131  37.853  19.388   9.435
 2301POPC   PO433132  37.449  18.797   9.538
 2301POPC   GL133133  37.608  19.008   9.156
 2301POPC   GL233134  37.416  19.304   9.178
 2301POPC   C1A33135  37.886  19.179   8.782
 2301POPC   D2A33136  38.015  19.380   8.361
 2301POPC   C3A33137  37.950  19.141   7.967
 2301POPC   C4A33138  37.552  18.953   7.806
 2301POPC   C1B33139  37.351  19.190   8.747
 2301POPC   C2B33140  37.556  19.087   8.365
 2301POPC   C3B33141  37.552  19.406   8.079
 2301POPC   C4B33142  37.565  19.459   7.640
 2302POPC   NC333143  16.626   3.018   9.576
 2302POPC   PO433144  16.200   2.636   9.420
 2302POPC   GL133145  16.507   2.795   9.099
 2302POPC   GL233146  16.850   2.918   9.140
 2302POPC   C1A33147  16.541   2.967   8.684
 2302POPC   D2A33148  16.492   2.708   8.322
 2302POPC   C3A33149  16.555   2.927   7.964
 2302POPC   C4A33150  16.546   2.713   7.567
 2302POPC   C1B33151  16.968   2.714   8.764
 2302POPC   C2B33152  16.976   2.795   8.356
 2302POPC   C3B33153  16.953   2.632   7.960
 2302POPC   C4B33154  16.959   2.983   7.652
 2303POPC   NC333155  11.921   5.865   9.589
 2303POPC   PO433156  12.211   6.441   9.694
 2303POPC   GL133157  11.925   6.216   9.242
 2303POPC   GL233158  11.853   5.816   9.104
 2303POPC   C1A33159  11.974   6.139   8.742
 2303POPC   D2A33160  12.069   6.262   8.310
 2303POPC   C3A33161  12.329   6.108   7.971
 2303POPC   C4A33162  12.030   6.137   7.644
 2303POPC   C1B33163  11.692   5.693   8.692
 2303POPC   C2B33164  11.808   5.568   8.267
 2303POPC   C3B33165  12.001   5.689   7.890
 2303POPC   C4B33166  11.891   5.698   7.443
 2304POPC   NC333167   8.605   2.390   9.402
 2304POPC   PO433168   8.548   3.066   9.539
 2304POPC   GL133169   8.299   2.825   9.201
 2304POPC   GL233170   8.003   2.591   9.307
 2304POPC   C1A33171   8.150   2.850   8.743
 2304POPC   D2A33172   7.907   2.816   8.381
 2304POPC   C3A33173   8.145   2.683   8.031
 2304POPC   C4A33174   8.304   2.892   7.679
 2304POPC   C1B33175   7.851   2.471   8.895
 2304POPC   C2B33176   8.009   2.289   8.500
 2304POPC   C3B33177   7.907   2.217   8.048
 2304POPC   C4B33178   7.973   2.418   7.626
 2305POPC   NC333179  18.496  21.997   9.396
 2305POPC   PO433180  17.942  22.298   9.559
 2305POPC   GL133181  18.172  22.300   9.161
 2305POPC   GL233182  17.972  22.573   9.112
 2305POPC   C1A33183  18.406  22.104   8.759
 2305POPC   D2A33184  18.599  22.090   8.350
 2305POPC   C3A33185  18.432  22.019   7.960
 2305POPC   C4A33186  18.303  22.182   7.556
 2305POPC   C1B33187  18.194  22.598   8.758
 2305POPC   C2B33188  18.053  22.524   8.376
 2305POPC   C3B33189  18.144  22.431   7.987
 2305POPC   C4B33190  17.865  22.395   7.672
 2306POPC   NC333191  12.966  10.156   9.699
 2306POPC   PO433192  12.659  10.623   9.386
 2306POPC   GL133193  12.921  10.363   9.162
 2306POPC   GL233194  13.200  10.536   9.093
 2306POPC   C1A33195  12.702  10.344   8.765
 2306POPC   D2A33196  12.538  10.383   8.360
 2306POPC   C3A33197  12.912  10.321   8.177
 2306POPC   C4A33198  13.042  10.369   7.798
 2306POPC   C1B33199  13.153  10.699   8.660
 2306POPC   C2B33200  13.189  10.751   8.181
 2306POPC   C3B33201  12.875  10.841   7.805
 2306POPC   C4B33202  12.629  10.834   7.389
 2307POPC   NC333203  19.196  35.501   9.505
 2307POPC   PO433204  18.638  35.193   9.573
 2307POPC   GL133205  18.870  35.262   9.194
 2307POPC   GL233206  19.149  35.074   9.197
 2307POPC   C1A33207  19.055  35.529   8.838
 2307POPC   D2A33208  19.180  35.402   8.406
 2307POPC   C3A33209  19.066  35.603   8.028
 2307POPC   C4A33210  19.162  35.555   7.562
 2307POPC   C1B33211  19.014  35.004   8.763
 2307POPC   C2B33212  19.144  34.914   8.326
 2307POPC   C3B33213  18.993  35.096   7.935
 2307POPC   C4B33214  19.135  35.046   7.504
 2308POPC   NC333215  31.553  20.826   9.376
 2308POPC   PO433216  31.743  20.146   9.450
 2308POPC   GL133217  31.657  20.415   9.103
 2308POPC   GL233218  31.277  20.503   9.104
 2308POPC   C1A33219  31.586  20.654   8.721
 2308POPC   D2A33220  31.732  20.540   8.354
 2308POPC   C3A33221  31.527  20.588   7.969
 2308POPC   C4A33222  31.522  20.688   7.523
 2308POPC   C1B33223  31.171  20.920   8.832
 2308POPC   C2B33224  31.312  20.988   8.430
 2308POPC   C3B33225  31.256  21.050   7.997
 2308POPC   C4B33226  31.333  21.157   7.547
 2309POPC   NC333227  24.299  27.519   9.554
 2309POPC   PO433228  24.997  27.583   9.576
 2309POPC   GL133229  24.745  27.600   9.224
 2309POPC   GL233230  24.430  27.534   9.062
 2309POPC   C1A33231  24.870  27.536   8.802
 2309POPC   D2A33232  24.627  27.480   8.430
 2309POPC   C3A33233  24.719  27.682   8.071
 2309POPC   C4A33234  24.824  27.736   7.644
 2309POPC   C1B33235  24.308  27.769   8.745
 2309POPC   C2B33236  24.185  27.888   8.354
 2309POPC   C3B33237  24.281  27.909   7.946
 2309POPC   C4B33238  24.395  28.106   7.620
 2310POPC   NC333239  36.590  34.922   9.393
 2310POPC   PO433240  36.037  34.386   9.376
 2310POPC   GL133241  36.163  34.672   9.144
 2310POPC   GL233242  36.476  34.552   9.077
 2310POPC   C1A33243  36.005  34.772   8.769
 2310POPC   D2A33244  35.871  34.472   8.461
 2310POPC   C3A33245  36.041  34.671   8.118
 2310POPC   C4A33246  35.946  34.654   7.708
 2310POPC   C1B33247  36.282  34.338   8.749
 2310POPC   C2B33248  36.364  34.295   8.317
 2310POPC   C3B33249  36.056  34.178   8.011
 2310POPC   C4B33250  36.052  34.178   7.552
 2311POPC   NC333251  44.285   6.027   9.466
 2311POPC   PO433252  43.584   5.993   9.613
 2311POPC   GL133253  43.802   5.833   9.290
 2311POPC   GL233254  43.864   6.177   9.209
 2311POPC   C1A33255  43.875   5.807   8.844
 2311POPC   D2A33256  43.842   5.985   8.440
 2311POPC   C3A33257  43.858   5.702   8.120
 2311POPC   C4A33258  43.651   5.612   7.734
 2311POPC   C1B33259  44.093   6.262   8.853
 2311POPC   C2B33260  44.310   6.189   8.454
 2311POPC   C3B33261  44.122   6.195   8.062
 2311POPC   C4B33262  43.764   6.208   7.825
 2312POPC   NC333263   3.333  11.789   9.555
 2312POPC   PO433264   3.332  12.431   9.493
 2312POPC   GL133265   3.456  12.178   9.154
 2312POPC   GL233266   3.715  11.921   9.195
 2312POPC   C1A33267   3.675  12.205   8.751
 2312POPC   D2A33268   3.592  12.041   8.345
 2312POPC   C3A33269   3.572  12.293   7.978
 2312POPC   C4A33270   3.350  12.255   7.634
 2312POPC   C1B33271   3.935  11.759   8.818
 2312POPC   C2B33272   4.071  11.860   8.381
 2312POPC   C3B33273   3.889  11.857   7.954
 2312POPC   C4B33274   3.546  11.691   7.729
 2313POPC   NC333275  10.953  37.437   9.442
 2313POPC   PO433276  11.614  37.648   9.569
 2313POPC   GL133277  11.375  37.703   9.220
 2313POPC   GL233278  11.604  37.954   9.129
 2313POPC   C1A33279  11.193  37.572   8.842
 2313POPC   D2A33280  11.390  37.688   8.485
 2313POPC   C3A33281  11.379  37.309   8.265
 2313POPC   C4A33282  11.263  37.441   7.874
 2313POPC   C1B33283  11.240  38.062   8.851
 2313POPC   C2B33284  10.983  38.025   8.455
 2313POPC   C3B33285  11.130  37.901   8.058
 2313POPC   C4B33286  11.517  37.995   7.834
 2314POPC   NC333287  21.446  26.538   9.619
 2314POPC   PO433288  21.375  25.920   9.441
 2314POPC   GL133289  21.358  26.052   9.097
 2314POPC   GL233290  21.594  26.319   9.175
 2314POPC   C1A33291  21.293  25.851   8.703
 2314POPC   D2A33292  21.414  25.703   8.284
 2314POPC   C3A33293  21.233  25.922   7.917
 2314POPC   C4A33294  21.274  26.259   7.642
 2314POPC   C1B33295  21.437  26.396   8.757
 2314POPC   C2B33296  21.478  26.251   8.354
 2314POPC   C3B33297  21.592  26.514   8.045
 2314POPC   C4B33298  21.706  26.481   7.676
 2315POPC   NC333299   5.426  22.966   9.535
 2315POPC   PO433300   4.846  22.647   9.401
 2315POPC   GL133301   5.141  22.837   9.137
 2315POPC   GL233302   5.357  22.570   9.204
 2315POPC   C1A33303   5.198  23.111   8.770
 2315POPC   D2A33304   5.416  23.169   8.340
 2315POPC   C3A33305   5.202  23.188   7.948
 2315POPC   C4A33306   4.755  23.193   7.911
 2315POPC   C1B33307   5.183  22.514   8.766
 2315POPC   C2B33308   5.149  22.746   8.425
 2315POPC   C3B33309   5.269  22.690   8.052
 2315POPC   C4B33310   5.131  22.474   7.761
 2316POPC   NC333311  23.592  36.747   9.510
 2316POPC   PO433312  23.987  37.281   9.691
 2316POPC   GL133313  23.929  37.036   9.227
 2316POPC   GL233314  23.880  36.672   9.112
 2316POPC   C1A33315  23.703  37.023   8.778
 2316POPC   D2A33316  23.532  37.366   8.535
 2316POPC   C3A33317  23.637  37.266   8.114
 2316POPC   C4A33318  23.688  36.925   7.826
 2316POPC   C1B33319  23.915  36.552   8.691
 2316POPC   C2B33320  23.778  36.616   8.268
 2316POPC   C3B33321  23.835  36.430   7.869
 2316POPC   C4B33322  23.601  36.499   7.485
 2317POPC   NC333323   9.533  44.299   9.575
 2317POPC   PO433324   9.886  43.793   9.456
 2317POPC   GL133325   9.843  43.792   9.042
 2317POPC   GL233326  10.185  43.908   9.012
 2317POPC   C1A33327   9.645  43.842   8.645
 2317POPC   D2A33328   9.346  43.851   8.299
 2317POPC   C3A33329   9.511  44.070   7.971
 2317POPC   C4A33330   9.640  44.099   7.546
 2317POPC   C1B33331   9.975  44.220   8.762
 2317POPC   C2B33332   9.903  44.148   8.323
 2317POPC   C3B33333   9.995  44.249   7.917
 2317POPC   C4B33334  10.199  44.170   7.507
 2318POPC   NC333335  37.334  18.174   9.759
 2318POPC   PO433336  36.639  18.230   9.685
 2318POPC   GL133337  36.801  18.106   9.219
 2318POPC   GL233338  37.163  18.050   9.043
 2318POPC   C1A33339  36.829  18.336   8.800
 2318POPC   D2A33340  36.885  18.324   8.361
 2318POPC   C3A33341  36.543  18.345   8.083
 2318POPC   C4A33342  36.760  18.318   7.706
 2318POPC   C1B33343  37.137  17.963   8.631
 2318POPC   C2B33344  37.113  17.885   8.221
 2318POPC   C3B33345  37.187  18.073   7.850
 2318POPC   C4B33346  37.121  18.065   7.416
 2319POPC   NC333347  13.854  40.844   9.427
 2319POPC   PO433348  13.322  41.245   9.371
 2319POPC   GL133349  13.527  40.988   9.071
 2319POPC   GL233350  13.484  40.608   9.136
 2319POPC   C1A33351  13.677  40.939   8.683
 2319POPC   D2A33352  13.432  40.921   8.341
 2319POPC   C3A33353  13.702  40.960   8.033
 2319POPC   C4A33354  13.810  40.659   7.753
 2319POPC   C1B33355  13.635  40.440   8.720
 2319POPC   C2B33356  13.711  40.466   8.256
 2319POPC   C3B33357  13.941  40.200   7.940
 2319POPC   C4B33358  14.035  40.293   7.468
 2320POPC   NC333359  32.735   7.934   9.412
 2320POPC   PO433360  33.142   8.376   9.688
 2320POPC   GL133361  33.077   8.226   9.189
 2320POPC   GL233362  32.846   8.354   8.938
 2320POPC   C1A33363  33.085   7.946   8.789
 2320POPC   D2A33364  33.463   7.918   8.527
 2320POPC   C3A33365  33.216   7.849   8.167
 2320POPC   C4A33366  33.235   8.094   7.790
 2320POPC   C1B33367  33.287   8.400   8.726
 2320POPC   C2B33368  33.262   8.334   8.285
 2320POPC   C3B33369  32.857   8.312   8.057
 2320POPC   C4B33370  32.628   8.110   7.726
 2321POPC   NC333371  35.834  17.989   9.483
 2321POPC   PO433372  36.135  17.379   9.538
 2321POPC   GL133373  36.008  17.391   9.127
 2321POPC   GL233374  35.912  17.729   9.044
 2321POPC   C1A33375  36.164  17.247   8.744
 2321POPC   D2A33376  36.513  17.405   8.530
 2321POPC   C3A33377  36.467  17.414   8.097
 2321POPC   C4A33378  36.178  17.446   7.794
 2321POPC   C1B33379  36.147  17.751   8.658
 2321POPC   C2B33380  35.993  17.530   8.303
 2321POPC   C3B33381  35.712  17.586   7.949
 2321POPC   C4B33382  35.839  17.846   7.621
 2322POPC   NC333383   5.931  41.500   9.637
 2322POPC   PO433384   6.427  41.771   9.413
 2322POPC   GL133385   6.192  41.632   9.049
 2322POPC   GL233386   5.931  41.396   9.116
 2322POPC   C1A33387   6.008  41.601   8.621
 2322POPC   D2A33388   5.693  41.480   8.299
 2322POPC   C3A33389   5.761  41.778   7.971
 2322POPC   C4A33390   6.187  41.689   7.921
 2322POPC   C1B33391   5.712  41.157   8.782
 2322POPC   C2B33392   5.610  40.961   8.388
 2322POPC   C3B33393   5.647  41.076   7.941
 2322POPC   C4B33394   5.898  41.356   7.707
 2323POPC   NC333395  24.392  36.174   9.614
 2323POPC   PO433396  24.849  35.898   9.352
 2323POPC   GL133397  24.601  36.284   9.134
 2323POPC   GL233398  24.219  36.273   9.131
 2323POPC   C1A33399  24.430  36.498   8.736
 2323POPC   D2A33400  24.245  36.388   8.316
 2323POPC   C3A33401  24.561  36.156   8.085
 2323POPC   C4A33402  24.776  36.262   7.747
 2323POPC   C1B33403  24.150  36.039   8.771
 2323POPC   C2B33404  24.254  35.861   8.376
 2323POPC   C3B33405  24.077  35.985   7.991
 2323POPC   C4B33406  24.257  36.217   7.657
 2324POPC   NC333407  27.461   0.953   9.519
 2324POPC   PO433408  28.012   1.296   9.540
 2324POPC   GL133409  27.897   1.393   9.112
 2324POPC   GL233410  27.553   1.251   9.083
 2324POPC   C1A33411  27.911   1.340   8.640
 2324POPC   D2A33412  27.927   1.012   8.314
 2324POPC   C3A33413  27.783   1.144   7.903
 2324POPC   C4A33414  27.618   1.557   7.742
 2324POPC   C1B33415  27.460   1.108   8.658
 2324POPC   C2B33416  27.447   1.299   8.255
 2324POPC   C3B33417  27.263   1.190   7.863
 2324POPC   C4B33418  27.453   0.899   7.575
 2325POPC   NC333419  15.874  30.239   9.630
 2325POPC   PO433420  16.246  29.661   9.402
 2325POPC   GL133421  15.986  29.777   9.104
 2325POPC   GL233422  15.670  29.631   9.035
 2325POPC   C1A33423  16.126  29.769   8.713
 2325POPC   D2A33424  16.363  29.617   8.385
 2325POPC   C3A33425  16.248  29.881   8.065
 2325POPC   C4A33426  16.133  29.854   7.658
 2325POPC   C1B33427  15.664  29.966   8.733
 2325POPC   C2B33428  15.893  30.090   8.378
 2325POPC   C3B33429  15.879  30.265   7.988
 2325POPC   C4B33430  15.649  30.130   7.627
 2326POPC   NC333431  28.719  42.001   9.448
 2326POPC   PO433432  28.274  42.497   9.541
 2326POPC   GL133433  28.581  42.439   9.195
 2326POPC   GL233434  28.603  42.120   8.979
 2326POPC   C1A33435  28.650  42.569   8.769
 2326POPC   D2A33436  28.450  42.269   8.477
 2326POPC   C3A33437  28.395  42.423   8.077
 2326POPC   C4A33438  28.222  42.339   7.687
 2326POPC   C1B33439  28.922  42.105   8.633
 2326POPC   C2B33440  28.829  42.046   8.182
 2326POPC   C3B33441  28.657  42.100   7.768
 2326POPC   C4B33442  28.454  42.045   7.339
 2327POPC   NC333443  17.674  35.888   9.597
 2327POPC   PO433444  17.272  36.499   9.434
 2327POPC   GL133445  17.238  36.290   9.074
 2327POPC   GL233446  17.281  35.925   9.205
 2327POPC   C1A33447  17.534  36.308   8.714
 2327POPC   D2A33448  17.616  35.959   8.417
 2327POPC   C3A33449  17.677  36.033   7.980
 2327POPC   C4A33450  17.931  36.136   7.643
 2327POPC   C1B33451  17.211  35.900   8.753
 2327POPC   C2B33452  17.146  36.192   8.415
 2327POPC   C3B33453  17.170  36.063   8.050
 2327POPC   C4B33454  17.272  35.794   7.706
 2328POPC   NC333455  24.764  25.583   9.463
 2328POPC   PO433456  24.786  26.279   9.545
 2328POPC   GL133457  24.592  26.159   9.176
 2328POPC   GL233458  24.740  25.839   9.037
 2328POPC   C1A33459  24.401  26.110   8.792
 2328POPC   D2A33460  24.523  25.847   8.485
 2328POPC   C3A33461  24.445  25.861   8.086
 2328POPC   C4A33462  24.446  26.103   7.717
 2328POPC   C1B33463  24.963  25.704   8.676
 2328POPC   C2B33464  24.943  25.705   8.219
 2328POPC   C3B33465  24.916  25.768   7.750
 2328POPC   C4B33466  24.719  25.897   7.346
 2329POPC   NC333467  14.153   3.049   9.396
 2329POPC   PO433468  13.679   2.601   9.603
 2329POPC   GL133469  13.600   2.560   9.168
 2329POPC   GL233470  13.736   2.873   9.127
 2329POPC   C1A33471  13.481   2.583   8.720
 2329POPC   D2A33472  13.487   2.443   8.276
 2329POPC   C3A33473  13.533   2.768   7.982
 2329POPC   C4A33474  13.238   3.065   7.838
 2329POPC   C1B33475  13.826   3.025   8.728
 2329POPC   C2B33476  13.882   2.754   8.394
 2329POPC   C3B33477  13.992   2.512   8.048
 2329POPC   C4B33478  14.024   2.709   7.667
 2330POPC   NC333479  20.042   4.841   9.567
 2330POPC   PO433480  19.593   5.387   9.486
 2330POPC   GL133481  19.857   5.193   9.223
 2330POPC   GL233482  19.724   4.885   9.055
 2330POPC   C1A33483  20.032   5.269   8.839
 2330POPC   D2A33484  19.876   5.011   8.497
 2330POPC   C3A33485  19.792   5.145   8.080
 2330POPC   C4A33486  19.587   5.285   7.706
 2330POPC   C1B33487  19.439   4.806   8.657
 2330POPC   C2B33488  19.599   4.645   8.215
 2330POPC   C3B33489  19.691   4.757   7.750
 2330POPC   C4B33490  20.030   4.660   7.406
 2331POPC   NC333491  37.206  12.320   9.526
 2331POPC   PO433492  36.583  12.152   9.577
 2331POPC   GL133493  36.855  12.137   9.208
 2331POPC   GL233494  36.980  11.832   9.100
 2331POPC   C1A33495  36.918  12.195   8.762
 2331POPC   D2A33496  36.848  11.869   8.453
 2331POPC   C3A33497  36.689  12.012   8.074
 2331POPC   C4A33498  36.812  12.310   7.801
 2331POPC   C1B33499  37.282  11.818   8.763
 2331POPC   C2B33500  37.523  11.733   8.415
 2331POPC   C3B33501  37.385  11.705   8.002
 2331POPC   C4B33502  37.104  11.896   7.749
 2332POPC   NC333503  18.124  28.908   9.495
 2332POPC   PO433504  18.219  29.561   9.421
 2332POPC   GL133505  18.190  29.285   9.140
 2332POPC   GL233506  18.062  29.515   8.947
 2332POPC   C1A33507  18.138  28.987   8.810
 2332POPC   D2A33508  17.965  28.939   8.374
 2332POPC   C3A33509  18.261  28.863   8.022
 2332POPC   C4A33510  18.214  28.945   7.581
 2332POPC   C1B33511  18.266  29.427   8.623
 2332POPC   C2B33512  18.293  29.322   8.209
 2332POPC   C3B33513  18.277  29.550   7.865
 2332POPC   C4B33514  18.357  29.500   7.428
 2333POPC   NC333515  14.157  38.135   9.476
 2333POPC   PO433516  13.602  38.504   9.506
 2333POPC   GL133517  13.639  38.409   9.094
 2333POPC   GL233518  13.983  38.422   9.094
 2333POPC   C1A33519  13.496  38.480   8.660
 2333POPC   D2A33520  13.579  38.606   8.237
 2333POPC   C3A33521  13.531  38.265   7.940
 2333POPC   C4A33522  13.156  38.091   7.776
 2333POPC   C1B33523  13.970  38.153   8.763
 2333POPC   C2B33524  13.781  38.111   8.387
 2333POPC   C3B33525  13.964  37.914   8.061
 2333POPC   C4B33526  14.025  38.060   7.658
 2334POPC   NC333527  20.641  34.323   9.486
 2334POPC   PO433528  20.443  34.990   9.494
 2334POPC   GL133529  20.423  34.713   9.179
 2334POPC   GL233530  20.711  34.871   9.042
 2334POPC   C1A33531  20.241  34.661   8.781
 2334POPC   D2A33532  20.194  34.817   8.365
 2334POPC   C3A33533  20.483  34.741   8.032
 2334POPC   C4A33534  20.296  34.644   7.651
 2334POPC   C1B33535  20.710  34.480   8.786
 2334POPC   C2B33536  20.578  34.350   8.375
 2334POPC   C3B33537  20.475  34.225   7.943
 2334POPC   C4B33538  20.816  34.227   7.683
 2335POPC   NC333539  32.301  30.492   9.554
 2335POPC   PO433540  31.911  31.038   9.407
 2335POPC   GL133541  32.182  30.769   9.145
 2335POPC   GL233542  32.505  30.882   9.255
 2335POPC   C1A33543  32.316  30.601   8.740
 2335POPC   D2A33544  32.521  30.560   8.317
 2335POPC   C3A33545  32.382  30.654   7.864
 2335POPC   C4A33546  32.117  30.553   7.480
 2335POPC   C1B33547  32.460  31.091   8.866
 2335POPC   C2B33548  32.347  31.039   8.456
 2335POPC   C3B33549  32.345  31.133   8.047
 2335POPC   C4B33550  32.708  31.140   7.811
 2336POPC   NC333551  30.052   3.103   9.139
 2336POPC   PO433552  29.939   2.564   9.557
 2336POPC   GL133553  29.806   2.613   9.126
 2336POPC   GL233554  29.568   2.868   9.057
 2336POPC   C1A33555  30.011   2.601   8.706
 2336POPC   D2A33556  30.149   2.741   8.288
 2336POPC   C3A33557  29.997   2.404   8.048
 2336POPC   C4A33558  29.691   2.468   7.757
 2336POPC   C1B33559  29.516   2.670   8.666
 2336POPC   C2B33560  29.627   2.687   8.251
 2336POPC   C3B33561  29.655   2.946   7.876
 2336POPC   C4B33562  29.748   2.869   7.411
 2337POPC   NC333563  44.082  24.293   9.645
 2337POPC   PO433564  43.504  24.530   9.651
 2337POPC   GL133565  43.798  24.539   9.279
 2337POPC   GL233566  43.802  24.203   9.213
 2337POPC   C1A33567  43.975  24.614   8.851
 2337POPC   D2A33568  43.841  24.709   8.424
 2337POPC   C3A33569  44.008  24.498   8.051
 2337POPC   C4A33570  43.948  24.569   7.618
 2337POPC   C1B33571  43.647  24.225   8.810
 2337POPC   C2B33572  43.807  24.180   8.408
 2337POPC   C3B33573  43.651  24.125   8.023
 2337POPC   C4B33574  43.908  24.049   7.676
 2338POPC   NC333575  43.593  39.375   9.552
 2338POPC   PO433576  44.099  38.958   9.379
 2338POPC   GL133577  43.832  39.187   9.102
 2338POPC   GL233578  43.803  39.532   9.108
 2338POPC   C1A33579  43.825  39.181   8.635
 2338POPC   D2A33580  43.714  39.064   8.184
 2338POPC   C3A33581  44.074  39.134   7.956
 2338POPC   C4A33582  44.194  38.877   7.646
 2338POPC   C1B33583  43.713  39.682   8.691
 2338POPC   C2B33584  43.697  39.559   8.264
 2338POPC   C3B33585  43.725  39.478   7.802
 2338POPC   C4B33586  43.772  39.599   7.333
 2339POPC   NC333587  15.921  44.281   9.618
 2339POPC   PO433588  16.164  43.650   9.396
 2339POPC   GL133589  16.076  44.003   9.166
 2339POPC   GL233590  15.734  44.016   9.206
 2339POPC   C1A33591  16.150  43.956   8.742
 2339POPC   D2A33592  15.969  43.799   8.377
 2339POPC   C3A33593  16.146  43.989   8.023
 2339POPC   C4A33594  16.261  43.987   7.619
 2339POPC   C1B33595  15.625  43.873   8.779
 2339POPC   C2B33596  15.518  44.060   8.370
 2339POPC   C3B33597  15.633  43.847   7.988
 2339POPC   C4B33598  15.766  43.961   7.599
 2340POPC   NC333599  37.850  31.837   9.322
 2340POPC   PO433600  37.348  31.300   9.391
 2340POPC   GL133601  37.654  31.400   9.112
 2340POPC   GL233602  37.468  31.702   8.989
 2340POPC   C1A33603  37.829  31.455   8.694
 2340POPC   D2A33604  37.602  31.497   8.293
 2340POPC   C3A33605  37.849  31.263   8.042
 2340POPC   C4A33606  38.061  31.240   7.678
 2340POPC   C1B33607  37.333  31.331   8.715
 2340POPC   C2B33608  37.176  31.147   8.356
 2340POPC   C3B33609  37.314  31.215   7.935
 2340POPC   C4B33610  37.587  31.484   7.682
 2341POPC   NC333611  19.377  11.160   9.456
 2341POPC   PO433612  19.957  11.397   9.773
 2341POPC   GL133613  19.870  11.257   9.327
 2341POPC   GL233614  19.641  11.521   9.203
 2341POPC   C1A33615  19.794  11.120   8.865
 2341POPC   D2A33616  19.702  11.285   8.421
 2341POPC   C3A33617  19.852  11.181   7.988
 2341POPC   C4A33618  20.048  11.220   7.601
 2341POPC   C1B33619  19.780  11.639   8.797
 2341POPC   C2B33620  19.931  11.763   8.386
 2341POPC   C3B33621  19.728  11.689   8.013
 2341POPC   C4B33622  19.650  11.569   7.612
 2342POPC   NC333623   3.776   7.036   9.557
 2342POPC   PO433624   3.507   6.433   9.424
 2342POPC   GL133625   3.697   6.515   9.078
 2342POPC   GL233626   3.745   6.873   9.085
 2342POPC   C1A33627   3.567   6.633   8.671
 2342POPC   D2A33628   3.322   6.639   8.320
 2342POPC   C3A33629   3.562   6.519   8.014
 2342POPC   C4A33630   3.395   6.667   7.685
 2342POPC   C1B33631   3.556   7.195   8.828
 2342POPC   C2B33632   3.410   7.126   8.428
 2342POPC   C3B33633   3.596   7.022   8.062
 2342POPC   C4B33634   3.570   7.157   7.669
 2343POPC   NC333635  23.549  13.420   9.372
 2343POPC   PO433636  23.512  12.718   9.623
 2343POPC   GL133637  23.491  12.925   9.243
 2343POPC   GL233638  23.787  12.795   9.085
 2343POPC   C1A33639  23.382  12.897   8.800
 2343POPC   D2A33640  23.531  12.559   8.535
 2343POPC   C3A33641  23.486  12.692   8.117
 2343POPC   C4A33642  23.748  13.040   7.942
 2343POPC   C1B33643  24.101  12.565   8.837
 2343POPC   C2B33644  24.209  12.598   8.416
 2343POPC   C3B33645  24.027  12.612   8.031
 2343POPC   C4B33646  24.177  12.535   7.632
 2344POPC   NC333647  21.903  26.918   9.830
 2344POPC   PO433648  21.303  26.963   9.535
 2344POPC   GL133649  21.290  26.746   9.163
 2344POPC   GL233650  21.052  26.468   9.206
 2344POPC   C1A33651  21.441  26.914   8.772
 2344POPC   D2A33652  21.292  27.182   8.420
 2344POPC   C3A33653  21.144  27.046   8.017
 2344POPC   C4A33654  21.394  26.879   7.706
 2344POPC   C1B33655  20.982  26.647   8.778
 2344POPC   C2B33656  21.175  26.672   8.401
 2344POPC   C3B33657  21.089  26.523   8.043
 2344POPC   C4B33658  20.915  26.619   7.679
 2345POPC   NC333659  37.408  32.882   9.476
 2345POPC   PO433660  38.056  32.960   9.579
 2345POPC   GL133661  37.972  33.179   9.214
 2345POPC   GL233662  37.619  33.166   9.111
 2345POPC   C1A33663  37.969  33.002   8.788
 2345POPC   D2A33664  37.774  32.781   8.443
 2345POPC   C3A33665  37.949  32.800   8.018
 2345POPC   C4A33666  37.859  32.961   7.608
 2345POPC   C1B33667  37.504  33.232   8.658
 2345POPC   C2B33668  37.292  33.292   8.240
 2345POPC   C3B33669  37.401  33.091   7.838
 2345POPC   C4B33670  37.388  33.242   7.402
 2346POPC   NC333671  21.425  18.768   9.327
 2346POPC   PO433672  21.786  19.367   9.474
 2346POPC   GL133673  21.463  19.250   9.112
 2346POPC   GL233674  21.161  18.999   8.981
 2346POPC   C1A33675  21.368  19.345   8.670
 2346POPC   D2A33676  21.632  19.457   8.323
 2346POPC   C3A33677  21.428  19.273   7.983
 2346POPC   C4A33678  21.518  18.892   7.759
 2346POPC   C1B33679  21.501  18.851   8.684
 2346POPC   C2B33680  21.412  18.778   8.254
 2346POPC   C3B33681  21.077  18.862   7.979
 2346POPC   C4B33682  21.038  18.829   7.553
 2347POPC   NC333683  13.308  43.642   9.533
 2347POPC   PO433684  13.995  43.642   9.422
 2347POPC   GL133685  13.739  43.948   9.171
 2347POPC   GL233686  13.380  43.858   9.062
 2347POPC   C1A33687  13.761  44.122   8.752
 2347POPC   D2A33688  13.797  43.940   8.353
 2347POPC   C3A33689  13.706  44.144   7.976
 2347POPC   C4A33690  13.640  43.939   7.575
 2347POPC   C1B33691  13.310  43.933   8.629
 2347POPC   C2B33692  13.303  43.908   8.197
 2347POPC   C3B33693  13.197  43.980   7.794
 2347POPC   C4B33694  13.171  44.023   7.332
 2348POPC   NC333695   7.698  11.009   9.594
 2348POPC   PO433696   7.160  11.302   9.406
 2348POPC   GL133697   7.492  11.284   9.151
 2348POPC   GL233698   7.335  11.554   8.983
 2348POPC   C1A33699   7.490  11.081   8.762
 2348POPC   D2A33700   7.475  11.270   8.374
 2348POPC   C3A33701   7.316  11.285   7.977
 2348POPC   C4A33702   7.047  11.596   7.844
 2348POPC   C1B33703   7.685  11.563   8.728
 2348POPC   C2B33704   7.790  11.661   8.308
 2348POPC   C3B33705   7.629  11.706   7.897
 2348POPC   C4B33706   7.893  11.770   7.503
 2349POPC   NC333707   8.633  20.031   9.462
 2349POPC   PO433708   9.243  19.835   9.622
 2349POPC   GL133709   9.092  19.989   9.242
 2349POPC   GL233710   8.910  19.694   9.165
 2349POPC   C1A33711   9.187  19.977   8.812
 2349POPC   D2A33712   9.282  20.215   8.455
 2349POPC   C3A33713   9.311  20.025   8.064
 2349POPC   C4A33714   9.081  20.042   7.708
 2349POPC   C1B33715   8.687  19.892   8.791
 2349POPC   C2B33716   8.831  19.960   8.335
 2349POPC   C3B33717   8.966  19.638   8.009
 2349POPC   C4B33718   8.826  19.336   7.671
 2350POPC   NC333719   9.476   4.100   9.344
 2350POPC   PO433720   9.040   4.595   9.526
 2350POPC   GL133721   8.841   4.461   9.155
 2350POPC   GL233722   8.917   4.103   9.171
 2350POPC   C1A33723   8.791   4.396   8.727
 2350POPC   D2A33724   9.024   4.543   8.374
 2350POPC   C3A33725   8.755   4.420   8.041
 2350POPC   C4A33726   8.700   4.091   7.763
 2350POPC   C1B33727   9.150   4.043   8.767
 2350POPC   C2B33728   9.023   4.041   8.316
 2350POPC   C3B33729   9.187   4.001   7.870
 2350POPC   C4B33730   9.047   3.968   7.391
 2351POPC   NC333731  15.123  26.010   9.571
 2351POPC   PO433732  15.725  25.655   9.412
 2351POPC   GL133733  15.345  25.729   9.122
 2351POPC   GL233734  15.210  26.097   9.058
 2351POPC   C1A33735  15.131  25.714   8.728
 2351POPC   D2A33736  15.095  26.105   8.529
 2351POPC   C3A33737  15.158  26.133   8.096
 2351POPC   C4A33738  15.143  26.185   7.651
 2351POPC   C1B33739  15.484  26.353   8.748
 2351POPC   C2B33740  15.623  26.238   8.300
 2351POPC   C3B33741  15.575  26.415   7.881
 2351POPC   C4B33742  15.570  26.346   7.423
 2352POPC   NC333743  18.967  15.599   9.638
 2352POPC   PO433744  18.602  16.129   9.402
 2352POPC   GL133745  18.782  16.024   9.014
 2352POPC   GL233746  18.992  15.710   9.094
 2352POPC   C1A33747  19.009  16.270   8.683
 2352POPC   D2A33748  19.236  16.199   8.293
 2352POPC   C3A33749  19.057  16.109   7.871
 2352POPC   C4A33750  19.204  16.090   7.430
 2352POPC   C1B33751  19.130  15.771   8.656
 2352POPC   C2B33752  19.052  15.708   8.211
 2352POPC   C3B33753  18.780  15.677   7.862
 2352POPC   C4B33754  18.755  15.742   7.434
 2353POPC   NC333755  34.414  24.015   9.295
 2353POPC   PO433756  34.398  23.396   9.502
 2353POPC   GL133757  34.508  23.551   9.110
 2353POPC   GL233758  34.733  23.822   8.956
 2353POPC   C1A33759  34.340  23.633   8.723
 2353POPC   D2A33760  34.570  23.638   8.352
 2353POPC   C3A33761  34.296  23.661   8.036
 2353POPC   C4A33762  34.256  23.790   7.659
 2353POPC   C1B33763  34.895  23.486   8.736
 2353POPC   C2B33764  34.931  23.206   8.405
 2353POPC   C3B33765  34.965  23.436   8.020
 2353POPC   C4B33766  34.745  23.759   7.789
 2354POPC   NC333767  25.962  36.120   9.537
 2354POPC   PO433768  26.615  36.102   9.518
 2354POPC   GL133769  26.246  36.046   9.126
 2354POPC   GL233770  25.869  36.250   9.084
 2354POPC   C1A33771  26.299  35.880   8.700
 2354POPC   D2A33772  26.458  36.066   8.303
 2354POPC   C3A33773  26.220  36.258   7.980
 2354POPC   C4A33774  26.287  35.944   7.706
 2354POPC   C1B33775  25.811  36.030   8.728
 2354POPC   C2B33776  25.948  36.040   8.368
 2354POPC   C3B33777  25.839  35.903   8.013
 2354POPC   C4B33778  25.789  36.026   7.660
 2355POPC   NC333779   4.198  35.159   9.284
 2355POPC   PO433780   4.133  35.796   9.437
 2355POPC   GL133781   4.261  35.654   9.024
 2355POPC   GL233782   4.641  35.577   9.054
 2355POPC   C1A33783   4.090  35.606   8.575
 2355POPC   D2A33784   3.955  35.694   8.129
 2355POPC   C3A33785   4.283  35.674   7.819
 2355POPC   C4A33786   4.456  35.262   7.751
 2355POPC   C1B33787   4.486  35.312   8.700
 2355POPC   C2B33788   4.440  35.303   8.261
 2355POPC   C3B33789   4.850  35.182   8.080
 2355POPC   C4B33790   4.956  35.262   7.655
 2356POPC   NC333791  39.336  17.001   9.779
 2356POPC   PO433792  39.185  16.487   9.583
 2356POPC   GL133793  39.273  16.674   9.211
 2356POPC   GL233794  39.203  17.007   9.271
 2356POPC   C1A33795  39.190  16.555   8.796
 2356POPC   D2A33796  38.977  16.447   8.418
 2356POPC   C3A33797  39.237  16.481   8.055
 2356POPC   C4A33798  39.016  16.554   7.727
 2356POPC   C1B33799  39.383  17.022   8.846
 2356POPC   C2B33800  39.395  16.828   8.413
 2356POPC   C3B33801  39.279  17.001   8.023
 2356POPC   C4B33802  39.364  17.070   7.609
 2357POPC   NC333803   5.513  19.097   9.572
 2357POPC   PO433804   5.005  18.693   9.691
 2357POPC   GL133805   5.049  19.075   9.362
 2357POPC   GL233806   5.206  19.440   9.362
 2357POPC   C1A33807   4.964  19.100   8.938
 2357POPC   D2A33808   4.908  18.856   8.558
 2357POPC   C3A33809   4.883  19.041   8.140
 2357POPC   C4A33810   4.915  18.931   7.679
 2357POPC   C1B33811   5.297  19.489   8.909
 2357POPC   C2B33812   5.208  19.268   8.520
 2357POPC   C3B33813   5.343  19.282   8.107
 2357POPC   C4B33814   5.390  19.133   7.707
 2358POPC   NC333815  15.090  29.511   9.508
 2358POPC   PO433816  15.651  29.852   9.504
 2358POPC   GL133817  15.307  29.963   9.165
 2358POPC   GL233818  15.031  29.744   9.064
 2358POPC   C1A33819  15.175  30.102   8.723
 2358POPC   D2A33820  15.365  29.969   8.317
 2358POPC   C3A33821  15.274  30.194   7.961
 2358POPC   C4A33822  15.080  30.076   7.585
 2358POPC   C1B33823  15.287  29.610   8.701
 2358POPC   C2B33824  15.214  29.487   8.274
 2358POPC   C3B33825  15.232  29.650   7.823
 2358POPC   C4B33826  15.213  29.659   7.334
 2359POPC   NC333827  15.781  38.281   9.682
 2359POPC   PO433828  16.429  38.019   9.411
 2359POPC   GL133829  16.109  38.214   9.095
 2359POPC   GL233830  15.805  38.469   9.155
 2359POPC   C1A33831  16.086  38.503   8.725
 2359POPC   D2A33832  16.158  38.789   8.362
 2359POPC   C3A33833  16.026  38.662   7.938
 2359POPC   C4A33834  16.277  38.383   7.677
 2359POPC   C1B33835  15.583  38.636   8.762
 2359POPC   C2B33836  15.622  38.458   8.326
 2359POPC   C3B33837  15.555  38.353   7.867
 2359POPC   C4B33838  15.605  38.258   7.415
 2360POPC   NC333839  15.978  14.630   9.329
 2360POPC   PO433840  15.874  13.960   9.513
 2360POPC   GL133841  15.962  14.151   9.136
 2360POPC   GL233842  16.300  14.299   9.101
 2360POPC   C1A33843  15.897  14.331   8.723
 2360POPC   D2A33844  15.770  14.547   8.356
 2360POPC   C3A33845  15.878  14.392   7.953
 2360POPC   C4A33846  15.709  14.253   7.536
 2360POPC   C1B33847  16.353  14.612   8.744
 2360POPC   C2B33848  16.243  14.750   8.302
 2360POPC   C3B33849  16.367  14.815   7.865
 2360POPC   C4B33850  16.299  14.410   7.643
 2361POPC   NC333851  10.512   7.067   9.747
 2361POPC   PO433852  10.650   6.515   9.410
 2361POPC   GL133853  10.396   6.764   9.151
 2361POPC   GL233854  10.586   7.056   9.033
 2361POPC   C1A33855  10.456   6.617   8.736
 2361POPC   D2A33856  10.625   6.701   8.341
 2361POPC   C3A33857  10.436   6.509   8.002
 2361POPC   C4A33858  10.608   6.431   7.590
 2361POPC   C1B33859  10.265   7.090   8.708
 2361POPC   C2B33860  10.181   6.967   8.349
 2361POPC   C3B33861  10.396   7.064   8.041
 2361POPC   C4B33862  10.379   6.913   7.699
 2362POPC   NC333863   2.936   9.266   9.525
 2362POPC   PO433864   2.529   8.715   9.354
 2362POPC   GL133865   2.747   9.019   9.068
 2362POPC   GL233866   3.081   9.196   9.051
 2362POPC   C1A33867   2.538   9.104   8.671
 2362POPC   D2A33868   2.285   8.802   8.440
 2362POPC   C3A33869   2.468   8.771   8.039
 2362POPC   C4A33870   2.512   9.160   7.769
 2362POPC   C1B33871   3.047   9.056   8.596
 2362POPC   C2B33872   2.918   9.079   8.122
 2362POPC   C3B33873   3.038   9.082   7.659
 2362POPC   C4B33874   2.958   9.276   7.229
 2363POPC   NC333875  20.255  21.997   9.487
 2363POPC   PO433876  19.663  22.289   9.452
 2363POPC   GL133877  19.984  22.291   9.151
 2363POPC   GL233878  19.889  21.946   9.133
 2363POPC   C1A33879  19.968  22.226   8.701
 2363POPC   D2A33880  19.772  22.389   8.332
 2363POPC   C3A33881  19.885  22.106   8.042
 2363POPC   C4A33882  19.783  22.051   7.638
 2363POPC   C1B33883  19.682  21.763   8.786
 2363POPC   C2B33884  19.796  21.746   8.387
 2363POPC   C3B33885  19.639  21.664   7.960
 2363POPC   C4B33886  19.306  21.836   7.679
 2364POPC   NC333887  21.730  13.631   9.579
 2364POPC   PO433888  21.121  13.702   9.457
 2364POPC   GL133889  21.436  13.696   9.153
 2364POPC   GL233890  21.666  13.409   9.126
 2364POPC   C1A33891  21.517  13.933   8.785
 2364POPC   D2A33892  21.399  14.045   8.354
 2364POPC   C3A33893  21.217  13.793   8.019
 2364POPC   C4A33894  21.100  13.586   7.614
 2364POPC   C1B33895  21.416  13.357   8.751
 2364POPC   C2B33896  21.509  13.461   8.331
 2364POPC   C3B33897  21.490  13.373   7.925
 2364POPC   C4B33898  21.385  13.063   7.624
 2365POPC   NC333899  28.002   2.621   9.642
 2365POPC   PO433900  27.401   2.467   9.686
 2365POPC   GL133901  27.613   2.648   9.305
 2365POPC   GL233902  27.850   2.944   9.249
 2365POPC   C1A33903  27.717   2.576   8.878
 2365POPC   D2A33904  27.849   2.597   8.459
 2365POPC   C3A33905  27.589   2.590   8.116
 2365POPC   C4A33906  27.716   2.495   7.725
 2365POPC   C1B33907  27.811   3.073   8.790
 2365POPC   C2B33908  27.625   3.069   8.354
 2365POPC   C3B33909  27.581   3.065   7.899
 2365POPC   C4B33910  27.402   2.869   7.543
 2366POPC   NC333911  16.530  28.898   9.386
 2366POPC   PO433912  17.029  29.305   9.408
 2366POPC   GL133913  16.895  29.112   9.080
 2366POPC   GL233914  16.582  29.298   9.045
 2366POPC   C1A33915  16.978  29.282   8.694
 2366POPC   D2A33916  16.866  29.410   8.297
 2366POPC   C3A33917  17.058  29.263   7.917
 2366POPC   C4A33918  16.954  29.221   7.478
 2366POPC   C1B33919  16.530  28.997   8.712
 2366POPC   C2B33920  16.446  29.109   8.278
 2366POPC   C3B33921  16.551  29.166   7.855
 2366POPC   C4B33922  16.288  29.030   7.496
 2367POPC   NC333923  16.121  36.984  10.047
 2367POPC   PO433924  15.554  36.926   9.662
 2367POPC   GL133925  15.824  36.984   9.275
 2367POPC   GL233926  16.032  37.300   9.230
 2367POPC   C1A33927  16.000  36.902   8.827
 2367POPC   D2A33928  16.106  37.096   8.418
 2367POPC   C3A33929  15.987  36.917   8.040
 2367POPC   C4A33930  16.182  36.950   7.649
 2367POPC   C1B33931  15.692  37.304   8.915
 2367POPC   C2B33932  15.614  37.142   8.524
 2367POPC   C3B33933  15.614  37.243   8.092
 2367POPC   C4B33934  15.654  37.051   7.672
 2368POPC   NC333935  27.258   5.650   9.464
 2368POPC   PO433936  26.640   5.745   9.511
 2368POPC   GL133937  26.896   5.890   9.172
 2368POPC   GL233938  27.181   6.109   9.237
 2368POPC   C1A33939  26.772   5.756   8.762
 2368POPC   D2A33940  26.502   5.804   8.431
 2368POPC   C3A33941  26.479   5.533   8.105
 2368POPC   C4A33942  26.501   5.765   7.746
 2368POPC   C1B33943  27.115   6.149   8.797
 2368POPC   C2B33944  27.137   5.894   8.414
 2368POPC   C3B33945  26.881   5.861   8.068
 2368POPC   C4B33946  26.885   6.084   7.648
 2369POPC   NC333947  26.299  22.092   9.460
 2369POPC   PO433948  25.688  21.852   9.587
 2369POPC   GL133949  25.893  21.830   9.217
 2369POPC   GL233950  25.878  22.177   9.180
 2369POPC   C1A33951  25.922  21.779   8.801
 2369POPC   D2A33952  25.997  21.983   8.456
 2369POPC   C3A33953  25.936  21.917   8.042
 2369POPC   C4A33954  25.940  21.777   7.625
 2369POPC   C1B33955  26.018  22.352   8.809
 2369POPC   C2B33956  25.942  22.456   8.399
 2369POPC   C3B33957  26.211  22.350   8.097
 2369POPC   C4B33958  26.110  22.295   7.680
 2370POPC   NC333959  37.268  27.661   9.533
 2370POPC   PO433960  37.705  27.118   9.451
 2370POPC   GL133961  37.624  27.504   9.203
 2370POPC   GL233962  37.288  27.333   9.138
 2370POPC   C1A33963  37.628  27.757   8.793
 2370POPC   D2A33964  37.872  27.744   8.375
 2370POPC   C3A33965  37.695  27.721   7.956
 2370POPC   C4A33966  37.267  27.792   7.834
 2370POPC   C1B33967  37.537  27.244   8.784
 2370POPC   C2B33968  37.486  27.397   8.388
 2370POPC   C3B33969  37.395  27.289   7.992
 2370POPC   C4B33970  37.745  27.176   7.769
 2371POPC   NC333971  31.073  41.390   9.445
 2371POPC   PO433972  30.610  41.937   9.513
 2371POPC   GL133973  30.571  41.642   9.202
 2371POPC   GL233974  30.844  41.704   9.116
 2371POPC   C1A33975  30.472  41.544   8.784
 2371POPC   D2A33976  30.465  41.650   8.359
 2371POPC   C3A33977  30.589  41.450   7.975
 2371POPC   C4A33978  30.369  41.680   7.601
 2371POPC   C1B33979  30.973  41.502   8.780
 2371POPC   C2B33980  30.912  41.341   8.385
 2371POPC   C3B33981  31.142  41.514   8.062
 2371POPC   C4B33982  31.003  41.581   7.682
 2372POPC   NC333983   7.027  44.529   9.340
 2372POPC   PO433984   7.416  44.927   9.728
 2372POPC   GL133985   7.476  44.871   9.228
 2372POPC   GL233986   7.534  44.570   9.144
 2372POPC   C1A33987   7.260  44.765   8.778
 2372POPC   D2A33988   7.334  44.597   8.374
 2372POPC   C3A33989   7.311  44.877   8.027
 2372POPC   C4A33990   7.235  44.722   7.634
 2372POPC   C1B33991   7.754  44.655   8.758
 2372POPC   C2B33992   7.804  44.387   8.393
 2372POPC   C3B33993   7.705  44.569   7.991
 2372POPC   C4B33994   7.582  44.346   7.635
 2373POPC   NC333995  15.846  32.902   9.838
 2373POPC   PO433996  16.434  32.832   9.550
 2373POPC   GL133997  16.187  32.968   9.217
 2373POPC   GL233998  15.837  32.873   9.302
 2373POPC   C1A33999  16.151  32.980   8.760
 2373POPC   D2A34000  16.037  32.736   8.384
 2373POPC   C3A34001  16.149  32.919   7.983
 2373POPC   C4A34002  16.049  33.340   7.855
 2373POPC   C1B34003  15.664  32.873   8.864
 2373POPC   C2B34004  15.564  32.963   8.419
 2373POPC   C3B34005  15.649  32.800   7.999
 2373POPC   C4B34006  15.692  32.993   7.592
 2374POPC   NC334007  35.190  33.773   9.635
 2374POPC   PO434008  35.642  33.577   9.142
 2374POPC   GL134009  35.544  33.961   8.961
 2374POPC   GL234010  35.215  33.939   9.143
 2374POPC   C1A34011  35.530  33.969   8.513
 2374POPC   D2A34012  35.413  33.525   8.302
 2374POPC   C3A34013  35.547  33.521   7.873
 2374POPC   C4A34014  35.612  33.952   7.894
 2374POPC   C1B34015  35.131  33.742   8.735
 2374POPC   C2B34016  35.062  33.910   8.327
 2374POPC   C3B34017  35.095  33.772   7.915
 2374POPC   C4B34018  34.892  33.911   7.534
 2375POPC   NC334019  40.238  34.362   9.555
 2375POPC   PO434020  39.967  34.963   9.392
 2375POPC   GL134021  40.120  34.652   9.104
 2375POPC   GL234022  40.065  34.279   9.093
 2375POPC   C1A34023  39.972  34.519   8.671
 2375POPC   D2A34024  39.996  34.177   8.393
 2375POPC   C3A34025  40.063  34.405   8.054
 2375POPC   C4A34026  40.014  34.804   7.929
 2375POPC   C1B34027  40.361  34.148   8.757
 2375POPC   C2B34028  40.499  34.288   8.350
 2375POPC   C3B34029  40.410  34.038   7.993
 2375POPC   C4B34030  40.144  34.195   7.597
 2376POPC   NC334031  44.557  38.997   9.430
 2376POPC   PO434032  44.018  39.329   9.754
 2376POPC   GL134033  44.295  39.412   9.268
 2376POPC   GL234034  44.697  39.376   9.136
 2376POPC   C1A34035  44.329  39.193   8.822
 2376POPC   D2A34036  44.574  39.139   8.425
 2376POPC   C3A34037  44.537  39.380   8.050
 2376POPC   C4A34038  44.781  39.706   7.866
 2376POPC   C1B34039  44.860  39.012   8.834
 2376POPC   C2B34040   0.096  39.005   8.422
 2376POPC   C3B34041  44.908  39.023   8.031
 2376POPC   C4B34042  44.512  38.813   8.019
 2377POPC   NC334043  37.342  43.616   9.427
 2377POPC   PO434044  36.726  43.905   9.605
 2377POPC   GL134045  36.924  43.818   9.178
 2377POPC   GL234046  37.121  43.520   8.980
 2377POPC   C1A34047  36.921  43.928   8.752
 2377POPC   D2A34048  36.937  44.191   8.424
 2377POPC   C3A34049  36.936  43.992   8.019
 2377POPC   C4A34050  36.817  44.206   7.644
 2377POPC   C1B34051  37.422  43.765   8.690
 2377POPC   C2B34052  37.455  44.127   8.355
 2377POPC   C3B34053  37.377  44.214   7.905
 2377POPC   C4B34054  37.295  43.854   7.649
 2378POPC   NC334055   4.544   4.291   9.517
 2378POPC   PO434056   3.949   3.999   9.281
 2378POPC   GL134057   4.247   4.260   9.076
 2378POPC   GL234058   4.616   4.235   9.040
 2378POPC   C1A34059   4.341   4.300   8.632
 2378POPC   D2A34060   4.495   4.175   8.265
 2378POPC   C3A34061   4.198   4.199   7.922
 2378POPC   C4A34062   3.897   3.853   7.955
 2378POPC   C1B34063   4.777   4.547   8.814
 2378POPC   C2B34064   4.744   4.618   8.402
 2378POPC   C3B34065   4.579   4.555   7.968
 2378POPC   C4B34066   4.402   4.523   7.539
 2379POPC   NC334067  29.591   2.868   9.562
 2379POPC   PO434068  29.067   2.503   9.499
 2379POPC   GL134069  29.079   2.809   9.195
 2379POPC   GL234070  29.129   2.535   8.967
 2379POPC   C1A34071  29.145   3.010   8.763
 2379POPC   D2A34072  29.099   2.770   8.398
 2379POPC   C3A34073  29.189   2.748   7.982
 2379POPC   C4A34074  29.267   2.748   7.554
 2379POPC   C1B34075  28.830   2.410   8.649
 2379POPC   C2B34076  28.873   2.364   8.204
 2379POPC   C3B34077  28.841   2.431   7.775
 2379POPC   C4B34078  28.817   2.512   7.384
 2380POPC   NC334079  40.031   3.550   9.959
 2380POPC   PO434080  39.827   3.306   9.653
 2380POPC   GL134081  40.114   3.418   9.269
 2380POPC   GL234082  40.274   3.751   9.187
 2380POPC   C1A34083  40.154   3.472   8.777
 2380POPC   D2A34084  39.942   3.546   8.355
 2380POPC   C3A34085  40.055   3.366   7.931
 2380POPC   C4A34086  39.841   3.384   7.523
 2380POPC   C1B34087  40.093   3.993   8.814
 2380POPC   C2B34088  39.929   4.067   8.364
 2380POPC   C3B34089  39.917   3.872   7.928
 2380POPC   C4B34090  40.026   3.866   7.483
 2381POPC   NC334091  38.242  44.924   9.545
 2381POPC   PO434092  38.366   0.659   9.532
 2381POPC   GL134093  38.304   0.585   9.119
 2381POPC   GL234094  38.396   0.240   9.157
 2381POPC   C1A34095  38.497   0.453   8.712
 2381POPC   D2A34096  38.360   0.150   8.417
 2381POPC   C3A34097  38.110   0.407   8.178
 2381POPC   C4A34098  38.297   0.612   7.859
 2381POPC   C1B34099  38.810   0.121   8.916
 2381POPC   C2B34100  38.890   0.160   8.477
 2381POPC   C3B34101  38.720   0.465   8.226
 2381POPC   C4B34102  38.785   0.503   7.837
 2382POPC   NC334103  34.412   7.185   9.403
 2382POPC   PO434104  34.624   7.716   9.692
 2382POPC   GL134105  34.705   7.590   9.216
 2382POPC   GL234106  34.798   7.237   9.098
 2382POPC   C1A34107  34.786   7.586   8.750
 2382POPC   D2A34108  34.722   7.297   8.401
 2382POPC   C3A34109  34.591   7.541   8.073
 2382POPC   C4A34110  34.822   7.729   7.769
 2382POPC   C1B34111  34.398   7.251   8.781
 2382POPC   C2B34112  34.303   6.981   8.423
 2382POPC   C3B34113  34.210   7.090   7.996
 2382POPC   C4B34114  34.401   7.360   7.648
 2383POPC   NC334115  18.535   6.180   9.364
 2383POPC   PO434116  18.163   5.628   9.552
 2383POPC   GL134117  18.198   5.858   9.126
 2383POPC   GL234118  18.516   5.942   8.920
 2383POPC   C1A34119  18.130   5.699   8.709
 2383POPC   D2A34120  18.304   5.847   8.318
 2383POPC   C3A34121  18.088   5.669   7.957
 2383POPC   C4A34122  18.403   5.639   7.652
 2383POPC   C1B34123  18.355   6.267   8.710
 2383POPC   C2B34124  18.495   6.449   8.349
 2383POPC   C3B34125  18.530   6.239   7.967
 2383POPC   C4B34126  18.196   6.100   7.704
 2384POPC   NC334127  12.314  38.697   9.447
 2384POPC   PO434128  11.720  38.356   9.504
 2384POPC   GL134129  12.025  38.361   9.178
 2384POPC   GL234130  11.928  38.691   9.096
 2384POPC   C1A34131  12.266  38.252   8.806
 2384POPC   D2A34132  12.138  38.401   8.411
 2384POPC   C3A34133  12.214  38.219   8.002
 2384POPC   C4A34134  12.061  38.390   7.615
 2384POPC   C1B34135  12.239  38.778   8.784
 2384POPC   C2B34136  12.323  38.874   8.351
 2384POPC   C3B34137  12.360  38.710   7.913
 2384POPC   C4B34138  12.357  38.790   7.450
 2385POPC   NC334139  44.739   3.967   9.431
 2385POPC   PO434140  44.534   4.620   9.454
 2385POPC   GL134141  44.511   4.352   9.041
 2385POPC   GL234142  44.472   4.002   9.002
 2385POPC   C1A34143  44.517   4.233   8.557
 2385POPC   D2A34144  44.403   4.095   8.171
 2385POPC   C3A34145  44.503   4.318   7.798
 2385POPC   C4A34146  44.498   4.574   7.410
 2385POPC   C1B34147  44.916   4.067   8.805
 2385POPC   C2B34148  44.990   4.211   8.368
 2385POPC   C3B34149  44.885   4.016   7.997
 2385POPC   C4B34150  44.894   4.105   7.547
 2386POPC   NC334151  43.595  35.169   9.436
 2386POPC   PO434152  42.899  35.219   9.373
 2386POPC   GL134153  43.238  35.366   9.081
 2386POPC   GL234154  43.414  35.712   9.105
 2386POPC   C1A34155  43.012  35.242   8.699
 2386POPC   D2A34156  42.780  35.181   8.331
 2386POPC   C3A34157  42.959  35.213   7.945
 2386POPC   C4A34158  42.705  35.016   7.653
 2386POPC   C1B34159  43.372  35.613   8.660
 2386POPC   C2B34160  43.097  35.593   8.332
 2386POPC   C3B34161  43.208  35.692   7.958
 2386POPC   C4B34162  43.492  35.635   7.632
 2387POPC   NC334163  10.198   4.598   9.535
 2387POPC   PO434164  10.718   4.151   9.451
 2387POPC   GL134165  10.719   4.362   9.089
 2387POPC   GL234166  10.371   4.336   9.072
 2387POPC   C1A34167  10.615   4.208   8.647
 2387POPC   D2A34168  10.373   4.286   8.285
 2387POPC   C3A34169  10.649   4.299   7.959
 2387POPC   C4A34170  10.605   3.871   7.844
 2387POPC   C1B34171  10.113   4.458   8.690
 2387POPC   C2B34172   9.929   4.577   8.279
 2387POPC   C3B34173  10.210   4.603   7.912
 2387POPC   C4B34174  10.197   4.185   7.759
 2388POPC   NC334175  26.132  20.009  10.013
 2388POPC   PO434176  25.757  19.709   9.536
 2388POPC   GL134177  25.966  19.869   9.149
 2388POPC   GL234178  26.280  20.079   9.162
 2388POPC   C1A34179  26.175  19.751   8.727
 2388POPC   D2A34180  26.164  19.545   8.280
 2388POPC   C3A34181  25.876  19.763   7.971
 2388POPC   C4A34182  25.876  19.818   7.509
 2388POPC   C1B34183  26.412  20.212   8.729
 2388POPC   C2B34184  26.278  20.052   8.305
 2388POPC   C3B34185  26.354  19.977   7.868
 2388POPC   C4B34186  26.497  20.346   7.678
 2389POPC   NC334187  27.216  41.421   9.375
 2389POPC   PO434188  27.852  41.785   9.514
 2389POPC   GL134189  27.638  41.662   9.119
 2389POPC   GL234190  27.656  41.301   9.119
 2389POPC   C1A34191  27.413  41.586   8.683
 2389POPC   D2A34192  27.428  41.459   8.215
 2389POPC   C3A34193  27.523  41.754   7.892
 2389POPC   C4A34194  27.925  41.982   7.949
 2389POPC   C1B34195  27.892  41.427   8.755
 2389POPC   C2B34196  27.890  41.316   8.362
 2389POPC   C3B34197  27.960  41.460   7.989
 2389POPC   C4B34198  28.097  41.187   7.667
 2390POPC   NC334199  20.338  11.421   9.534
 2390POPC   PO434200  20.812  11.003   9.435
 2390POPC   GL134201  20.434  11.134   9.115
 2390POPC   GL234202  20.237  11.472   9.049
 2390POPC   C1A34203  20.513  11.054   8.668
 2390POPC   D2A34204  20.879  11.244   8.447
 2390POPC   C3A34205  20.773  11.340   8.029
 2390POPC   C4A34206  20.426  11.081   7.913
 2390POPC   C1B34207  20.581  11.552   8.782
 2390POPC   C2B34208  20.411  11.513   8.377
 2390POPC   C3B34209  20.237  11.556   7.988
 2390POPC   C4B34210  20.480  11.525   7.617
 2391POPC   NC334211  23.679  20.245   9.553
 2391POPC   PO434212  23.498  20.934   9.513
 2391POPC   GL134213  23.655  20.614   9.195
 2391POPC   GL234214  23.501  20.290   9.102
 2391POPC   C1A34215  23.896  20.657   8.825
 2391POPC   D2A34216  24.040  20.504   8.404
 2391POPC   C3A34217  23.809  20.626   8.026
 2391POPC   C4A34218  23.975  20.550   7.621
 2391POPC   C1B34219  23.686  20.209   8.748
 2391POPC   C2B34220  23.574  20.309   8.383
 2391POPC   C3B34221  23.585  20.156   8.022
 2391POPC   C4B34222  23.525  20.301   7.652
 2392POPC   NC334223  32.705   3.257   9.854
 2392POPC   PO434224  32.199   3.537   9.440
 2392POPC   GL134225  32.290   3.580   9.050
 2392POPC   GL234226  32.327   3.928   9.050
 2392POPC   C1A34227  32.373   3.457   8.646
 2392POPC   D2A34228  32.192   3.414   8.257
 2392POPC   C3A34229  32.445   3.413   7.893
 2392POPC   C4A34230  32.213   3.495   7.520
 2392POPC   C1B34231  32.038   3.840   8.682
 2392POPC   C2B34232  32.227   3.941   8.285
 2392POPC   C3B34233  32.232   3.904   7.851
 2392POPC   C4B34234  32.008   3.994   7.476
 2393POPC   NC334235   8.046  36.599   9.556
 2393POPC   PO434236   8.614  36.847   9.411
 2393POPC   GL134237   8.313  36.778   9.113
 2393POPC   GL234238   7.990  36.960   9.199
 2393POPC   C1A34239   8.305  36.768   8.670
 2393POPC   D2A34240   8.384  37.073   8.341
 2393POPC   C3A34241   8.407  36.923   7.911
 2393POPC   C4A34242   8.456  36.997   7.451
 2393POPC   C1B34243   7.813  36.849   8.825
 2393POPC   C2B34244   7.904  36.940   8.431
 2393POPC   C3B34245   7.846  36.788   8.057
 2393POPC   C4B34246   7.958  36.845   7.665
 2394POPC   NC334247   6.429   6.087   9.516
 2394POPC   PO434248   7.033   5.822   9.457
 2394POPC   GL134249   6.769   5.820   9.159
 2394POPC   GL234250   6.636   6.119   9.029
 2394POPC   C1A34251   6.806   5.668   8.780
 2394POPC   D2A34252   6.674   5.853   8.418
 2394POPC   C3A34253   6.850   5.711   8.014
 2394POPC   C4A34254   6.740   5.989   7.684
 2394POPC   C1B34255   6.332   5.804   8.832
 2394POPC   C2B34256   6.239   5.610   8.383
 2394POPC   C3B34257   6.344   5.780   8.000
 2394POPC   C4B34258   6.422   5.604   7.589
 2395POPC   NC334259  16.281  13.713   9.572
 2395POPC   PO434260  15.780  13.305   9.697
 2395POPC   GL134261  15.942  13.530   9.214
 2395POPC   GL234262  16.094  13.366   8.942
 2395POPC   C1A34263  15.885  13.808   8.783
 2395POPC   D2A34264  15.674  14.007   8.380
 2395POPC   C3A34265  15.755  13.893   7.946
 2395POPC   C4A34266  15.887  13.713   7.559
 2395POPC   C1B34267  15.724  13.341   8.696
 2395POPC   C2B34268  15.784  13.506   8.291
 2395POPC   C3B34269  15.582  13.410   7.912
 2395POPC   C4B34270  15.646  13.102   7.615
 2396POPC   NC334271  22.568   9.377   9.421
 2396POPC   PO434272  23.186   9.161   9.669
 2396POPC   GL134273  22.999   9.201   9.213
 2396POPC   GL234274  22.864   8.946   9.042
 2396POPC   C1A34275  23.076   9.266   8.737
 2396POPC   D2A34276  22.764   9.050   8.487
 2396POPC   C3A34277  22.899   9.042   8.066
 2396POPC   C4A34278  22.815   9.382   7.805
 2396POPC   C1B34279  23.184   8.759   8.829
 2396POPC   C2B34280  23.180   8.749   8.402
 2396POPC   C3B34281  23.225   8.639   7.985
 2396POPC   C4B34282  23.324   8.651   7.559
 2397POPC   NC334283   6.049  30.562   9.470
 2397POPC   PO434284   5.487  31.010   9.507
 2397POPC   GL134285   5.796  30.886   9.164
 2397POPC   GL234286   5.727  30.567   9.063
 2397POPC   C1A34287   5.992  30.848   8.737
 2397POPC   D2A34288   5.826  30.820   8.321
 2397POPC   C3A34289   5.906  31.021   7.945
 2397POPC   C4A34290   6.254  30.837   7.692
 2397POPC   C1B34291   5.677  30.441   8.648
 2397POPC   C2B34292   5.801  30.306   8.254
 2397POPC   C3B34293   5.929  30.505   7.889
 2397POPC   C4B34294   6.078  30.360   7.500
 2398POPC   NC334295  31.972   5.453   9.457
 2398POPC   PO434296  32.154   4.856   9.756
 2398POPC   GL134297  32.180   4.949   9.261
 2398POPC   GL234298  32.463   4.803   9.073
 2398POPC   C1A34299  32.116   5.205   8.839
 2398POPC   D2A34300  32.165   5.543   8.547
 2398POPC   C3A34301  32.092   5.379   8.130
 2398POPC   C4A34302  32.238   5.205   7.752
 2398POPC   C1B34303  32.610   5.064   8.777
 2398POPC   C2B34304  32.435   5.128   8.430
 2398POPC   C3B34305  32.507   4.929   8.100
 2398POPC   C4B34306  32.715   5.027   7.747
 2399POPC   NC334307  43.452   5.503   9.594
 2399POPC   PO434308  43.808   4.872   9.552
 2399POPC   GL134309  43.848   5.097   9.174
 2399POPC   GL234310  43.657   5.383   9.031
 2399POPC   C1A34311  43.889   4.965   8.747
 2399POPC   D2A34312  43.858   4.665   8.409
 2399POPC   C3A34313  43.846   4.899   8.029
 2399POPC   C4A34314  44.030   5.284   7.864
 2399POPC   C1B34315  43.715   5.412   8.537
 2399POPC   C2B34316  43.498   5.302   8.116
 2399POPC   C3B34317  43.309   5.242   7.677
 2399POPC   C4B34318  43.521   5.366   7.279
 2400POPC   NC334319  38.156  37.986   9.619
 2400POPC   PO434320  38.507  37.462   9.498
 2400POPC   GL134321  38.178  37.476   9.181
 2400POPC   GL234322  38.023  37.796   9.163
 2400POPC   C1A34323  38.107  37.556   8.724
 2400POPC   D2A34324  38.205  37.505   8.279
 2400POPC   C3A34325  38.615  37.652   8.127
 2400POPC   C4A34326  38.741  37.609   7.695
 2400POPC   C1B34327  38.370  37.994   8.962
 2400POPC   C2B34328  38.390  37.992   8.510
 2400POPC   C3B34329  38.351  38.101   8.082
 2400POPC   C4B34330  38.257  37.834   7.780
 2401POPC   NC334331  20.184  23.578   9.480
 2401POPC   PO434332  20.876  23.489   9.488
 2401POPC   GL134333  20.620  23.646   9.198
 2401POPC   GL234334  20.487  23.341   9.131
 2401POPC   C1A34335  20.411  23.685   8.772
 2401POPC   D2A34336  20.403  23.787   8.351
 2401POPC   C3A34337  20.755  23.951   8.138
 2401POPC   C4A34338  20.546  23.737   7.805
 2401POPC   C1B34339  20.815  23.376   8.816
 2401POPC   C2B34340  20.829  23.472   8.373
 2401POPC   C3B34341  20.976  23.512   7.946
 2401POPC   C4B34342  20.779  23.307   7.578
 2402POPC   NC334343  41.070  39.739   9.483
 2402POPC   PO434344  40.696  40.369   9.516
 2402POPC   GL134345  40.589  40.247   9.143
 2402POPC   GL234346  40.734  39.917   9.129
 2402POPC   C1A34347  40.771  40.279   8.732
 2402POPC   D2A34348  40.927  40.160   8.331
 2402POPC   C3A34349  40.651  40.214   8.007
 2402POPC   C4A34350  40.489  40.318   7.657
 2402POPC   C1B34351  40.590  39.757   8.740
 2402POPC   C2B34352  40.700  39.712   8.303
 2402POPC   C3B34353  40.930  39.781   7.977
 2402POPC   C4B34354  40.850  39.935   7.585
 2403POPC   NC334355   4.795  33.577   9.483
 2403POPC   PO434356   5.312  33.943   9.810
 2403POPC   GL134357   5.173  33.952   9.339
 2403POPC   GL234358   5.158  33.660   9.132
 2403POPC   C1A34359   5.120  34.059   8.841
 2403POPC   D2A34360   4.952  34.167   8.410
 2403POPC   C3A34361   5.146  34.033   8.065
 2403POPC   C4A34362   5.228  34.271   7.718
 2403POPC   C1B34363   4.978  33.553   8.741
 2403POPC   C2B34364   5.074  33.543   8.285
 2403POPC   C3B34365   4.907  33.535   7.860
 2403POPC   C4B34366   4.824  33.605   7.417
 2404POPC   NC334367  38.926  28.831   9.539
 2404POPC   PO434368  39.518  29.267   9.524
 2404POPC   GL134369  39.309  29.013   9.229
 2404POPC   GL234370  39.602  28.856   9.129
 2404POPC   C1A34371  39.066  29.022   8.847
 2404POPC   D2A34372  39.237  29.238   8.484
 2404POPC   C3A34373  39.086  29.171   8.094
 2404POPC   C4A34374  39.078  29.434   7.748
 2404POPC   C1B34375  39.606  29.228   8.870
 2404POPC   C2B34376  39.774  29.279   8.485
 2404POPC   C3B34377  39.586  29.279   8.101
 2404POPC   C4B34378  39.440  29.058   7.731
 2405POPC   NC334379  10.314   3.833   9.448
 2405POPC   PO434380  10.805   3.448   9.324
 2405POPC   GL134381  10.511   3.560   9.062
 2405POPC   GL234382  10.613   3.868   9.016
 2405POPC   C1A34383  10.370   3.449   8.675
 2405POPC   D2A34384  10.668   3.283   8.397
 2405POPC   C3A34385  10.543   3.407   8.013
 2405POPC   C4A34386  10.734   3.348   7.618
 2405POPC   C1B34387  10.183   3.923   8.819
 2405POPC   C2B34388   9.967   3.755   8.454
 2405POPC   C3B34389  10.113   3.741   8.020
 2405POPC   C4B34390  10.093   3.742   7.561
 2406POPC   NC334391  21.629  15.961   9.618
 2406POPC   PO434392  20.999  16.143   9.575
 2406POPC   GL134393  21.274  16.122   9.244
 2406POPC   GL234394  21.439  15.843   9.170
 2406POPC   C1A34395  21.110  16.031   8.832
 2406POPC   D2A34396  21.235  16.030   8.406
 2406POPC   C3A34397  21.016  15.936   8.039
 2406POPC   C4A34398  21.206  16.105   7.680
 2406POPC   C1B34399  21.428  15.624   8.801
 2406POPC   C2B34400  21.218  15.497   8.438
 2406POPC   C3B34401  21.405  15.615   8.071
 2406POPC   C4B34402  21.768  15.701   7.831
 2407POPC   NC334403  38.679  15.285   9.557
 2407POPC   PO434404  38.289  14.779   9.534
 2407POPC   GL134405  38.628  14.895   9.220
 2407POPC   GL234406  38.365  15.100   9.122
 2407POPC   C1A34407  38.701  15.040   8.746
 2407POPC   D2A34408  38.566  14.913   8.345
 2407POPC   C3A34409  38.533  15.175   8.006
 2407POPC   C4A34410  38.792  15.274   7.704
 2407POPC   C1B34411  38.172  14.983   8.713
 2407POPC   C2B34412  38.092  15.061   8.261
 2407POPC   C3B34413  38.071  15.005   7.801
 2407POPC   C4B34414  38.315  15.232   7.512
 2408POPC   NC334415   4.325  13.189   9.370
 2408POPC   PO434416   4.082  12.610   9.545
 2408POPC   GL134417   4.074  12.563   9.100
 2408POPC   GL234418   4.358  12.767   8.999
 2408POPC   C1A34419   3.971  12.643   8.673
 2408POPC   D2A34420   4.202  12.999   8.543
 2408POPC   C3A34421   4.242  12.976   8.110
 2408POPC   C4A34422   4.217  13.228   7.748
 2408POPC   C1B34423   4.673  12.884   8.694
 2408POPC   C2B34424   4.667  13.170   8.337
 2408POPC   C3B34425   4.698  13.044   7.918
 2408POPC   C4B34426   4.561  12.631   7.808
 2409POPC   NC334427  36.705  40.175   9.715
 2409POPC   PO434428  37.358  39.992   9.545
 2409POPC   GL134429  36.956  39.878   9.312
 2409POPC   GL234430  36.870  40.221   9.228
 2409POPC   C1A34431  36.808  39.814   8.869
 2409POPC   D2A34432  36.947  39.954   8.437
 2409POPC   C3A34433  37.098  39.764   8.035
 2409POPC   C4A34434  36.900  39.799   7.627
 2409POPC   C1B34435  36.969  40.307   8.804
 2409POPC   C2B34436  36.776  40.432   8.393
 2409POPC   C3B34437  36.886  40.251   7.974
 2409POPC   C4B34438  36.670  40.304   7.553
 2410POPC   NC334439  27.301   5.127   9.822
 2410POPC   PO434440  26.706   4.945   9.614
 2410POPC   GL134441  26.737   5.031   9.169
 2410POPC   GL234442  26.842   5.389   9.166
 2410POPC   C1A34443  26.729   5.183   8.727
 2410POPC   D2A34444  26.928   5.386   8.397
 2410POPC   C3A34445  26.818   5.156   8.047
 2410POPC   C4A34446  26.712   5.051   7.654
 2410POPC   C1B34447  27.198   5.490   8.841
 2410POPC   C2B34448  27.445   5.487   8.434
 2410POPC   C3B34449  27.252   5.457   7.996
 2410POPC   C4B34450  26.922   5.515   7.697
 2411POPC   NC334451  16.427  20.613   9.627
 2411POPC   PO434452  17.088  20.508   9.712
 2411POPC   GL134453  16.897  20.514   9.310
 2411POPC   GL234454  16.706  20.783   9.226
 2411POPC   C1A34455  17.011  20.607   8.876
 2411POPC   D2A34456  16.766  20.836   8.556
 2411POPC   C3A34457  16.713  20.534   8.223
 2411POPC   C4A34458  16.847  20.456   7.804
 2411POPC   C1B34459  16.505  20.496   8.902
 2411POPC   C2B34460  16.304  20.302   8.536
 2411POPC   C3B34461  16.220  20.278   8.094
 2411POPC   C4B34462  16.412  20.234   7.694
 2412POPC   NC334463  35.419  28.408   9.650
 2412POPC   PO434464  35.903  28.101   9.323
 2412POPC   GL134465  35.590  28.212   9.002
 2412POPC   GL234466  35.248  28.276   9.115
 2412POPC   C1A34467  35.621  28.261   8.582
 2412POPC   D2A34468  35.860  28.205   8.231
 2412POPC   C3A34469  35.576  28.255   7.904
 2412POPC   C4A34470  35.393  28.629   7.755
 2412POPC   C1B34471  35.117  28.187   8.670
 2412POPC   C2B34472  35.147  28.356   8.225
 2412POPC   C3B34473  34.998  28.307   7.794
 2412POPC   C4B34474  34.943  27.972   7.497
 2413POPC   NC334475  19.765   8.145   9.347
 2413POPC   PO434476  20.295   7.831   9.584
 2413POPC   GL134477  20.220   8.004   9.146
 2413POPC   GL234478  20.116   8.369   9.066
 2413POPC   C1A34479  20.037   8.029   8.686
 2413POPC   D2A34480  19.886   8.265   8.294
 2413POPC   C3A34481  19.906   8.043   7.877
 2413POPC   C4A34482  20.190   8.080   7.501
 2413POPC   C1B34483  19.734   8.462   8.764
 2413POPC   C2B34484  19.547   8.638   8.373
 2413POPC   C3B34485  19.670   8.659   7.980
 2413POPC   C4B34486  19.929   8.490   7.674
 2414POPC   NC334487  22.376  21.157   9.611
 2414POPC   PO434488  22.032  21.765   9.738
 2414POPC   GL134489  22.110  21.499   9.321
 2414POPC   GL234490  22.464  21.497   9.212
 2414POPC   C1A34491  22.124  21.430   8.853
 2414POPC   D2A34492  21.938  21.442   8.430
 2414POPC   C3A34493  22.176  21.530   8.064
 2414POPC   C4A34494  21.959  21.486   7.676
 2414POPC   C1B34495  22.604  21.303   8.813
 2414POPC   C2B34496  22.371  21.190   8.433
 2414POPC   C3B34497  22.450  21.098   8.011
 2414POPC   C4B34498  22.388  21.247   7.545
 2415POPC   NC334499  21.273  11.102   9.399
 2415POPC   PO434500  21.415  11.773   9.470
 2415POPC   GL134501  21.403  11.541   9.093
 2415POPC   GL234502  21.704  11.404   8.927
 2415POPC   C1A34503  21.232  11.614   8.696
 2415POPC   D2A34504  21.323  11.469   8.305
 2415POPC   C3A34505  21.166  11.669   7.967
 2415POPC   C4A34506  21.086  11.499   7.587
 2415POPC   C1B34507  21.381  11.120   8.756
 2415POPC   C2B34508  21.292  10.952   8.364
 2415POPC   C3B34509  21.260  11.122   7.929
 2415POPC   C4B34510  21.419  11.119   7.510
 2416POPC   NC334511  38.318  42.112   9.534
 2416POPC   PO434512  38.671  42.731   9.485
 2416POPC   GL134513  38.394  42.521   9.187
 2416POPC   GL234514  38.550  42.193   9.109
 2416POPC   C1A34515  38.251  42.382   8.760
 2416POPC   D2A34516  38.304  42.132   8.404
 2416POPC   C3A34517  38.210  42.308   8.018
 2416POPC   C4A34518  38.439  42.481   7.699
 2416POPC   C1B34519  38.639  41.941   8.746
 2416POPC   C2B34520  38.788  41.959   8.293
 2416POPC   C3B34521  38.643  42.044   7.858
 2416POPC   C4B34522  38.556  42.103   7.362
 2417POPC   NC334523  19.450   7.230   9.413
 2417POPC   PO434524  18.785   7.503   9.484
 2417POPC   GL134525  19.068   7.602   9.151
 2417POPC   GL234526  19.067   7.283   9.088
 2417POPC   C1A34527  19.207   7.634   8.735
 2417POPC   D2A34528  19.218   7.413   8.326
 2417POPC   C3A34529  19.233   7.690   7.975
 2417POPC   C4A34530  19.166   7.915   7.605
 2417POPC   C1B34531  18.879   7.238   8.719
 2417POPC   C2B34532  18.730   7.270   8.317
 2417POPC   C3B34533  18.900   7.302   7.922
 2417POPC   C4B34534  18.981   7.436   7.525
 2418POPC   NC334535  23.793   8.794   9.343
 2418POPC   PO434536  23.447   9.389   9.246
 2418POPC   GL134537  23.511   9.068   9.023
 2418POPC   GL234538  23.839   9.155   8.982
 2418POPC   C1A34539  23.651   8.863   8.629
 2418POPC   D2A34540  23.753   9.157   8.339
 2418POPC   C3A34541  23.480   9.109   7.992
 2418POPC   C4A34542  23.711   8.781   7.876
 2418POPC   C1B34543  24.146   9.177   8.701
 2418POPC   C2B34544  24.285   9.150   8.287
 2418POPC   C3B34545  24.021   9.212   7.908
 2418POPC   C4B34546  24.163   9.073   7.520
 2419POPC   NC334547  21.108  15.670   9.531
 2419POPC   PO434548  20.402  15.665   9.565
 2419POPC   GL134549  20.570  15.830   9.157
 2419POPC   GL234550  20.721  16.189   9.127
 2419POPC   C1A34551  20.673  15.807   8.717
 2419POPC   D2A34552  20.699  15.614   8.296
 2419POPC   C3A34553  20.524  15.828   7.899
 2419POPC   C4A34554  20.332  15.702   7.490
 2419POPC   C1B34555  20.758  16.388   8.728
 2419POPC   C2B34556  20.880  16.400   8.299
 2419POPC   C3B34557  20.754  16.342   7.869
 2419POPC   C4B34558  20.849  16.434   7.433
 2420POPC   NC334559  35.148  29.348   9.854
 2420POPC   PO434560  35.639  29.217   9.503
 2420POPC   GL134561  35.523  29.004   9.125
 2420POPC   GL234562  35.592  28.676   9.194
 2420POPC   C1A34563  35.546  29.139   8.671
 2420POPC   D2A34564  35.660  29.319   8.251
 2420POPC   C3A34565  35.538  29.129   7.842
 2420POPC   C4A34566  35.234  29.247   7.523
 2420POPC   C1B34567  35.366  28.665   8.752
 2420POPC   C2B34568  35.311  28.849   8.275
 2420POPC   C3B34569  35.028  28.947   7.895
 2420POPC   C4B34570  34.973  28.810   7.449
 2421POPC   NC334571  31.965  22.727   9.503
 2421POPC   PO434572  32.271  23.206   9.520
 2421POPC   GL134573  32.334  22.944   9.162
 2421POPC   GL234574  32.633  22.736   9.190
 2421POPC   C1A34575  32.191  23.043   8.730
 2421POPC   D2A34576  32.181  23.227   8.307
 2421POPC   C3A34577  32.157  22.969   7.943
 2421POPC   C4A34578  32.060  22.775   7.550
 2421POPC   C1B34579  32.691  22.972   8.791
 2421POPC   C2B34580  32.533  22.847   8.397
 2421POPC   C3B34581  32.671  22.926   7.996
 2421POPC   C4B34582  32.540  23.002   7.594
 2422POPC   NC334583  22.305  16.165   9.276
 2422POPC   PO434584  21.891  15.704   9.354
 2422POPC   GL134585  21.945  15.889   9.016
 2422POPC   GL234586  21.808  16.225   9.128
 2422POPC   C1A34587  22.101  16.122   8.658
 2422POPC   D2A34588  22.343  16.039   8.310
 2422POPC   C3A34589  22.260  15.828   7.960
 2422POPC   C4A34590  22.534  16.011   7.663
 2422POPC   C1B34591  21.599  16.121   8.757
 2422POPC   C2B34592  21.726  15.873   8.396
 2422POPC   C3B34593  21.863  16.160   8.071
 2422POPC   C4B34594  22.060  16.233   7.681
 2423POPC   NC334595  20.382  37.839   9.364
 2423POPC   PO434596  20.963  37.473   9.474
 2423POPC   GL134597  20.722  37.542   9.133
 2423POPC   GL234598  20.902  37.364   8.950
 2423POPC   C1A34599  20.434  37.567   8.768
 2423POPC   D2A34600  20.439  37.507   8.348
 2423POPC   C3A34601  20.577  37.801   8.072
 2423POPC   C4A34602  20.412  37.878   7.651
 2423POPC   C1B34603  20.919  37.681   8.661
 2423POPC   C2B34604  20.965  37.431   8.332
 2423POPC   C3B34605  20.789  37.259   8.028
 2423POPC   C4B34606  20.835  37.555   7.702
 2424POPC   NC334607  20.869   5.377   9.478
 2424POPC   PO434608  20.400   4.999   9.840
 2424POPC   GL134609  20.538   5.010   9.351
 2424POPC   GL234610  20.287   4.928   9.138
 2424POPC   C1A34611  20.694   5.144   8.899
 2424POPC   D2A34612  20.847   4.934   8.515
 2424POPC   C3A34613  20.725   5.013   8.079
 2424POPC   C4A34614  20.735   5.306   7.731
 2424POPC   C1B34615  20.315   4.865   8.737
 2424POPC   C2B34616  20.366   5.169   8.420
 2424POPC   C3B34617  20.281   5.279   7.988
 2424POPC   C4B34618  20.060   5.108   7.639
 2425POPC   NC334619   1.011  11.495   9.523
 2425POPC   PO434620   1.578  11.612   9.169
 2425POPC   GL134621   1.317  11.210   9.104
 2425POPC   GL234622   0.968  11.127   9.132
 2425POPC   C1A34623   1.180  11.020   8.699
 2425POPC   D2A34624   1.409  11.062   8.360
 2425POPC   C3A34625   1.199  11.012   7.991
 2425POPC   C4A34626   1.253  11.281   7.644
 2425POPC   C1B34627   0.765  11.310   8.768
 2425POPC   C2B34628   0.906  11.340   8.331
 2425POPC   C3B34629   0.809  11.331   7.931
 2425POPC   C4B34630   0.785  11.043   7.595
 2426POPC   NC334631  11.025  44.347   9.943
 2426POPC   PO434632  11.031  44.888   9.600
 2426POPC   GL134633  11.260  44.904   9.192
 2426POPC   GL234634  11.342  44.589   9.025
 2426POPC   C1A34635  11.430   0.002   8.761
 2426POPC   D2A34636  11.311  44.664   8.490
 2426POPC   C3A34637  11.333  44.672   8.070
 2426POPC   C4A34638  11.464  44.421   7.717
 2426POPC   C1B34639  10.991  44.375   8.767
 2426POPC   C2B34640  10.833  44.280   8.332
 2426POPC   C3B34641  10.960  44.342   7.906
 2426POPC   C4B34642  11.030  44.420   7.447
 2427POPC   NC334643  30.078  22.310   9.565
 2427POPC   PO434644  29.613  21.803   9.516
 2427POPC   GL134645  29.753  22.092   9.168
 2427POPC   GL234646  29.570  22.406   9.161
 2427POPC   C1A34647  29.822  21.965   8.735
 2427POPC   D2A34648  29.954  21.752   8.339
 2427POPC   C3A34649  29.861  21.950   7.928
 2427POPC   C4A34650  30.151  22.217   7.674
 2427POPC   C1B34651  29.689  22.456   8.723
 2427POPC   C2B34652  29.796  22.278   8.319
 2427POPC   C3B34653  29.748  22.462   7.880
 2427POPC   C4B34654  29.750  22.329   7.418
 2428POPC   NC334655  14.352  23.957   9.482
 2428POPC   PO434656  14.695  23.555   9.203
 2428POPC   GL134657  14.390  23.799   9.013
 2428POPC   GL234658  14.175  23.524   9.104
 2428POPC   C1A34659  14.438  24.017   8.640
 2428POPC   D2A34660  14.662  23.869   8.287
 2428POPC   C3A34661  14.525  24.037   7.874
 2428POPC   C4A34662  14.528  23.997   7.401
 2428POPC   C1B34663  14.334  23.438   8.668
 2428POPC   C2B34664  14.557  23.361   8.288
 2428POPC   C3B34665  14.599  23.532   7.894
 2428POPC   C4B34666  14.230  23.638   7.645
 2429POPC   NC334667   3.824  22.887   9.642
 2429POPC   PO434668   3.213  23.155   9.604
 2429POPC   GL134669   3.442  22.842   9.292
 2429POPC   GL234670   3.810  22.731   9.160
 2429POPC   C1A34671   3.386  22.706   8.872
 2429POPC   D2A34672   3.313  22.911   8.496
 2429POPC   C3A34673   3.404  22.692   8.135
 2429POPC   C4A34674   3.355  22.888   7.739
 2429POPC   C1B34675   3.751  23.085   8.904
 2429POPC   C2B34676   3.793  23.067   8.489
 2429POPC   C3B34677   3.703  23.090   8.071
 2429POPC   C4B34678   3.867  22.992   7.657
 2430POPC   NC334679  26.121  43.185   9.899
 2430POPC   PO434680  25.654  42.764   9.611
 2430POPC   GL134681  25.886  43.006   9.282
 2430POPC   GL234682  25.660  43.278   9.205
 2430POPC   C1A34683  26.200  43.113   8.915
 2430POPC   D2A34684  26.079  43.238   8.471
 2430POPC   C3A34685  26.287  43.308   8.077
 2430POPC   C4A34686  26.261  43.062   7.725
 2430POPC   C1B34687  25.692  43.096   8.781
 2430POPC   C2B34688  25.751  42.861   8.380
 2430POPC   C3B34689  25.810  43.117   7.999
 2430POPC   C4B34690  25.933  43.435   7.653
 2431POPC   NC334691  13.196  38.272   9.412
 2431POPC   PO434692  12.461  38.167   9.459
 2431POPC   GL134693  12.712  38.225   9.105
 2431POPC   GL234694  12.626  38.567   9.058
 2431POPC   C1A34695  13.032  38.203   8.761
 2431POPC   D2A34696  13.251  38.112   8.393
 2431POPC   C3A34697  13.111  38.446   8.177
 2431POPC   C4A34698  13.167  38.705   7.842
 2431POPC   C1B34699  12.690  38.579   8.624
 2431POPC   C2B34700  12.620  38.376   8.254
 2431POPC   C3B34701  12.739  38.389   7.819
 2431POPC   C4B34702  12.665  38.382   7.393
 2432POPC   NC334703  40.516  26.412   9.661
 2432POPC   PO434704  40.892  25.845   9.542
 2432POPC   GL134705  40.770  26.063   9.187
 2432POPC   GL234706  41.076  26.135   9.021
 2432POPC   C1A34707  40.683  25.982   8.757
 2432POPC   D2A34708  40.546  26.053   8.354
 2432POPC   C3A34709  40.707  25.922   7.984
 2432POPC   C4A34710  40.544  25.947   7.602
 2432POPC   C1B34711  41.069  26.310   8.622
 2432POPC   C2B34712  40.967  26.340   8.214
 2432POPC   C3B34713  41.100  26.212   7.840
 2432POPC   C4B34714  40.975  26.199   7.409
 2433POPC   NC334715  11.963  19.511   9.421
 2433POPC   PO434716  12.455  19.998   9.470
 2433POPC   GL134717  12.202  19.863   9.065
 2433POPC   GL234718  11.850  19.777   8.996
 2433POPC   C1A34719  12.151  19.806   8.603
 2433POPC   D2A34720  12.041  19.625   8.224
 2433POPC   C3A34721  12.303  19.794   7.892
 2433POPC   C4A34722  12.433  19.619   7.502
 2433POPC   C1B34723  11.768  20.175   8.812
 2433POPC   C2B34724  11.625  20.300   8.417
 2433POPC   C3B34725  11.692  19.980   8.135
 2433POPC   C4B34726  11.799  19.829   7.759
 2434POPC   NC334727   5.728  38.252   9.573
 2434POPC   PO434728   6.091  38.748   9.359
 2434POPC   GL134729   6.046  38.461   9.057
 2434POPC   GL234730   5.695  38.396   9.080
 2434POPC   C1A34731   6.038  38.402   8.624
 2434POPC   D2A34732   5.911  38.378   8.210
 2434POPC   C3A34733   6.137  38.543   7.844
 2434POPC   C4A34734   6.330  38.239   7.552
 2434POPC   C1B34735   5.516  38.411   8.665
 2434POPC   C2B34736   5.427  38.526   8.256
 2434POPC   C3B34737   5.579  38.532   7.820
 2434POPC   C4B34738   5.429  38.609   7.393
 2435POPC   NC334739  10.336  43.710   9.486
 2435POPC   PO434740  10.805  44.165   9.584
 2435POPC   GL134741  10.654  44.080   9.178
 2435POPC   GL234742  10.689  43.738   9.121
 2435POPC   C1A34743  10.578  44.080   8.732
 2435POPC   D2A34744  10.371  43.904   8.358
 2435POPC   C3A34745  10.473  44.064   7.942
 2435POPC   C4A34746  10.692  44.064   7.544
 2435POPC   C1B34747  10.506  43.584   8.755
 2435POPC   C2B34748  10.533  43.408   8.364
 2435POPC   C3B34749  10.471  43.537   7.971
 2435POPC   C4B34750  10.343  43.672   7.590
 2436POPC   NC334751  34.716  18.912   9.518
 2436POPC   PO434752  34.468  19.478   9.399
 2436POPC   GL134753  34.708  19.210   9.133
 2436POPC   GL234754  34.376  19.032   9.100
 2436POPC   C1A34755  34.717  18.972   8.749
 2436POPC   D2A34756  34.350  18.971   8.492
 2436POPC   C3A34757  34.465  18.932   8.073
 2436POPC   C4A34758  34.783  18.917   7.785
 2436POPC   C1B34759  34.427  19.408   8.762
 2436POPC   C2B34760  34.228  19.460   8.373
 2436POPC   C3B34761  34.244  19.615   7.958
 2436POPC   C4B34762  34.402  19.305   7.681
 2437POPC   NC334763   7.591   0.326   9.483
 2437POPC   PO434764   7.008  45.000   9.352
 2437POPC   GL134765   7.231   0.263   9.040
 2437POPC   GL234766   7.414   0.585   9.079
 2437POPC   C1A34767   7.603   0.160   8.806
 2437POPC   D2A34768   7.711   0.051   8.369
 2437POPC   C3A34769   7.523   0.375   8.076
 2437POPC   C4A34770   7.114   0.431   7.829
 2437POPC   C1B34771   7.687   0.741   8.753
 2437POPC   C2B34772   7.637   0.943   8.352
 2437POPC   C3B34773   7.326   0.928   8.044
 2437POPC   C4B34774   7.493   0.756   7.702
 2438POPC   NC334775  31.741   8.013   9.335
 2438POPC   PO434776  31.390   8.396   9.738
 2438POPC   GL134777  31.348   8.327   9.269
 2438POPC   GL234778  31.222   7.994   9.309
 2438POPC   C1A34779  31.513   8.265   8.823
 2438POPC   D2A34780  31.811   8.195   8.478
 2438POPC   C3A34781  31.666   8.368   8.094
 2438POPC   C4A34782  31.668   8.126   7.739
 2438POPC   C1B34783  31.126   7.901   8.899
 2438POPC   C2B34784  31.241   8.063   8.467
 2438POPC   C3B34785  31.193   8.046   8.049
 2438POPC   C4B34786  31.213   7.963   7.634
 2439POPC   NC334787  16.006  36.534   9.418
 2439POPC   PO434788  15.653  35.931   9.671
 2439POPC   GL134789  15.802  35.917   9.221
 2439POPC   GL234790  16.094  36.086   9.151
 2439POPC   C1A34791  15.793  36.038   8.740
 2439POPC   D2A34792  15.682  36.055   8.276
 2439POPC   C3A34793  15.771  36.451   8.082
 2439POPC   C4A34794  15.850  36.570   7.655
 2439POPC   C1B34795  16.296  35.923   8.751
 2439POPC   C2B34796  16.210  36.054   8.333
 2439POPC   C3B34797  16.137  36.143   7.884
 2439POPC   C4B34798  16.410  35.943   7.588
 2440POPC   NC334799  18.014  19.842   9.592
 2440POPC   PO434800  17.339  19.811   9.505
 2440POPC   GL134801  17.265  19.632   9.144
 2440POPC   GL234802  17.619  19.594   9.049
 2440POPC   C1A34803  17.240  19.821   8.762
 2440POPC   D2A34804  17.375  20.116   8.407
 2440POPC   C3A34805  17.200  20.015   7.999
 2440POPC   C4A34806  17.247  20.088   7.575
 2440POPC   C1B34807  17.715  19.782   8.619
 2440POPC   C2B34808  17.910  19.935   8.262
 2440POPC   C3B34809  17.707  20.129   7.955
 2440POPC   C4B34810  17.689  20.380   7.610
 2441POPC   NC334811  36.898  16.416   9.509
 2441POPC   PO434812  37.070  17.027   9.495
 2441POPC   GL134813  37.016  16.764   9.147
 2441POPC   GL234814  36.670  16.849   9.191
 2441POPC   C1A34815  36.840  16.537   8.785
 2441POPC   D2A34816  36.964  16.326   8.405
 2441POPC   C3A34817  36.868  16.517   8.019
 2441POPC   C4A34818  37.186  16.723   7.821
 2441POPC   C1B34819  36.790  17.048   8.785
 2441POPC   C2B34820  36.969  16.912   8.371
 2441POPC   C3B34821  36.786  17.031   7.960
 2441POPC   C4B34822  36.716  16.844   7.568
 2442POPC   NC334823  21.025  22.164   9.480
 2442POPC   PO434824  20.398  22.455   9.489
 2442POPC   GL134825  20.550  22.196   9.121
 2442POPC   GL234826  20.867  21.993   9.034
 2442POPC   C1A34827  20.492  22.145   8.697
 2442POPC   D2A34828  20.285  22.357   8.305
 2442POPC   C3A34829  20.336  22.215   7.852
 2442POPC   C4A34830  20.405  22.486   7.475
 2442POPC   C1B34831  20.988  22.051   8.620
 2442POPC   C2B34832  20.737  22.096   8.246
 2442POPC   C3B34833  20.834  22.283   7.860
 2442POPC   C4B34834  21.011  22.049   7.543
 2443POPC   NC334835  23.948  33.633   9.784
 2443POPC   PO434836  24.254  34.244   9.654
 2443POPC   GL134837  24.362  33.925   9.275
 2443POPC   GL234838  24.581  33.682   9.073
 2443POPC   C1A34839  24.316  33.997   8.799
 2443POPC   D2A34840  24.528  34.085   8.418
 2443POPC   C3A34841  24.385  33.802   8.126
 2443POPC   C4A34842  24.199  33.909   7.760
 2443POPC   C1B34843  24.596  33.569   8.639
 2443POPC   C2B34844  24.864  33.685   8.300
 2443POPC   C3B34845  24.826  33.700   7.884
 2443POPC   C4B34846  24.944  33.373   7.624
 2444POPC   NC334847  11.563  44.656   9.520
 2444POPC   PO434848  12.288  44.426   9.587
 2444POPC   GL134849  12.237  44.574   9.147
 2444POPC   GL234850  11.866  44.646   9.115
 2444POPC   C1A34851  12.179  44.827   8.749
 2444POPC   D2A34852  12.006  44.973   8.337
 2444POPC   C3A34853  12.296  44.870   7.969
 2444POPC   C4A34854  12.320  44.459   7.734
 2444POPC   C1B34855  11.759  44.482   8.705
 2444POPC   C2B34856  11.730  44.409   8.260
 2444POPC   C3B34857  11.837  44.681   7.924
 2444POPC   C4B34858  11.666   0.099   7.935
 2445POPC   NC334859   5.678   6.230   9.485
 2445POPC   PO434860   6.099   5.754   9.474
 2445POPC   GL134861   5.923   5.558   9.130
 2445POPC   GL234862   5.686   5.832   9.128
 2445POPC   C1A34863   5.878   5.604   8.718
 2445POPC   D2A34864   5.765   5.876   8.419
 2445POPC   C3A34865   5.805   5.685   8.039
 2445POPC   C4A34866   5.542   5.898   7.725
 2445POPC   C1B34867   5.930   6.115   8.854
 2445POPC   C2B34868   6.197   6.112   8.457
 2445POPC   C3B34869   5.999   6.162   8.048
 2445POPC   C4B34870   6.024   5.939   7.646
 2446POPC   NC334871  30.547   1.526   9.343
 2446POPC   PO434872  31.130   1.180   9.581
 2446POPC   GL134873  30.967   1.186   9.145
 2446POPC   GL234874  30.617   1.146   8.950
 2446POPC   C1A34875  31.044   1.093   8.708
 2446POPC   D2A34876  30.726   0.977   8.441
 2446POPC   C3A34877  30.690   1.202   8.089
 2446POPC   C4A34878  30.718   0.970   7.720
 2446POPC   C1B34879  30.449   1.389   8.576
 2446POPC   C2B34880  30.228   1.502   8.202
 2446POPC   C3B34881  30.392   1.551   7.828
 2446POPC   C4B34882  30.484   1.328   7.459
 2447POPC   NC334883  19.018   3.090   9.428
 2447POPC   PO434884  18.784   2.556   9.427
 2447POPC   GL134885  18.813   2.744   9.053
 2447POPC   GL234886  18.604   2.967   9.073
 2447POPC   C1A34887  18.992   2.792   8.664
 2447POPC   D2A34888  19.208   2.967   8.309
 2447POPC   C3A34889  19.242   2.711   7.927
 2447POPC   C4A34890  19.040   2.720   7.507
 2447POPC   C1B34891  18.577   3.109   8.687
 2447POPC   C2B34892  18.640   2.881   8.313
 2447POPC   C3B34893  18.734   2.765   7.930
 2447POPC   C4B34894  18.623   3.101   7.736
 2448POPC   NC334895  18.435  39.808   9.595
 2448POPC   PO434896  18.292  40.507   9.676
 2448POPC   GL134897  18.385  40.192   9.252
 2448POPC   GL234898  18.174  39.958   9.154
 2448POPC   C1A34899  18.553  39.949   8.818
 2448POPC   D2A34900  18.600  39.735   8.368
 2448POPC   C3A34901  18.583  39.933   7.958
 2448POPC   C4A34902  18.876  40.171   7.693
 2448POPC   C1B34903  17.986  40.003   8.774
 2448POPC   C2B34904  18.088  39.862   8.368
 2448POPC   C3B34905  18.093  40.064   7.955
 2448POPC   C4B34906  17.876  40.093   7.563
 2449POPC   NC334907   1.852  13.778   9.713
 2449POPC   PO434908   2.323  13.622   9.251
 2449POPC   GL134909   1.947  13.661   8.980
 2449POPC   GL234910   1.809  13.337   8.853
 2449POPC   C1A34911   1.849  13.744   8.519
 2449POPC   D2A34912   1.959  14.068   8.241
 2449POPC   C3A34913   2.201  13.931   7.918
 2449POPC   C4A34914   1.926  13.610   7.751
 2449POPC   C1B34915   2.246  13.443   8.630
 2449POPC   C2B34916   2.244  13.496   8.205
 2449POPC   C3B34917   2.178  13.199   7.890
 2449POPC   C4B34918   2.093  13.214   7.445
 2450POPC   NC334919  28.112  17.473   9.566
 2450POPC   PO434920  28.653  17.756   9.297
 2450POPC   GL134921  28.334  17.569   9.086
 2450POPC   GL234922  28.554  17.349   8.927
 2450POPC   C1A34923  28.158  17.555   8.666
 2450POPC   D2A34924  28.390  17.428   8.298
 2450POPC   C3A34925  28.190  17.410   7.918
 2450POPC   C4A34926  28.002  17.728   7.720
 2450POPC   C1B34927  28.678  17.682   8.656
 2450POPC   C2B34928  28.680  17.896   8.299
 2450POPC   C3B34929  28.601  17.709   7.909
 2450POPC   C4B34930  28.647  17.309   7.695
 2451POPC   NC334931  29.836   2.104   9.484
 2451POPC   PO434932  30.251   1.574   9.705
 2451POPC   GL134933  30.046   1.696   9.268
 2451POPC   GL234934  29.745   1.668   9.128
 2451POPC   C1A34935  30.085   1.934   8.830
 2451POPC   D2A34936  30.191   1.993   8.370
 2451POPC   C3A34937  29.852   1.881   8.060
 2451POPC   C4A34938  29.740   1.980   7.621
 2451POPC   C1B34939  29.606   1.745   8.686
 2451POPC   C2B34940  29.445   1.607   8.257
 2451POPC   C3B34941  29.396   1.653   7.791
 2451POPC   C4B34942  29.620   1.555   7.353
 2452POPC   NC334943   8.208   5.863   9.557
 2452POPC   PO434944   7.751   6.375   9.410
 2452POPC   GL134945   7.954   6.061   9.132
 2452POPC   GL234946   8.264   5.807   9.063
 2452POPC   C1A34947   8.137   6.151   8.713
 2452POPC   D2A34948   8.047   5.883   8.364
 2452POPC   C3A34949   8.095   6.021   7.964
 2452POPC   C4A34950   8.401   5.800   7.768
 2452POPC   C1B34951   7.881   5.669   8.794
 2452POPC   C2B34952   7.626   5.390   8.505
 2452POPC   C3B34953   7.644   5.414   8.021
 2452POPC   C4B34954   7.941   5.573   7.690
 2453POPC   NC334955  25.607  25.354   9.228
 2453POPC   PO434956  26.117  25.033   9.592
 2453POPC   GL134957  26.020  25.064   9.165
 2453POPC   GL234958  26.196  25.407   9.243
 2453POPC   C1A34959  25.868  25.048   8.717
 2453POPC   D2A34960  26.000  25.043   8.288
 2453POPC   C3A34961  25.827  25.316   7.987
 2453POPC   C4A34962  25.841  25.288   7.552
 2453POPC   C1B34963  26.187  25.433   8.816
 2453POPC   C2B34964  26.338  25.475   8.392
 2453POPC   C3B34965  26.279  25.550   7.958
 2453POPC   C4B34966  26.293  25.142   7.737
 2454POPC   NC334967  16.090  17.291   9.783
 2454POPC   PO434968  16.002  17.835   9.494
 2454POPC   GL134969  15.825  17.600   9.209
 2454POPC   GL234970  15.986  17.301   9.236
 2454POPC   C1A34971  15.723  17.637   8.785
 2454POPC   D2A34972  15.883  17.503   8.396
 2454POPC   C3A34973  15.848  17.803   8.078
 2454POPC   C4A34974  15.716  17.905   7.737
 2454POPC   C1B34975  16.201  17.507   8.861
 2454POPC   C2B34976  16.405  17.508   8.436
 2454POPC   C3B34977  16.242  17.348   8.051
 2454POPC   C4B34978  15.865  17.356   7.864
 2455POPC   NC334979  38.221  26.286   9.944
 2455POPC   PO434980  38.489  26.770   9.490
 2455POPC   GL134981  38.505  26.764   9.080
 2455POPC   GL234982  38.413  26.423   9.079
 2455POPC   C1A34983  38.707  26.826   8.687
 2455POPC   D2A34984  38.846  27.073   8.340
 2455POPC   C3A34985  38.614  26.918   7.973
 2455POPC   C4A34986  38.682  27.010   7.516
 2455POPC   C1B34987  38.300  26.516   8.679
 2455POPC   C2B34988  38.397  26.555   8.267
 2455POPC   C3B34989  38.317  26.475   7.847
 2455POPC   C4B34990  38.317  26.588   7.394
 2456POPC   NC334991   3.353  23.601   9.632
 2456POPC   PO434992   4.091  23.382   9.590
 2456POPC   GL134993   3.813  23.534   9.220
 2456POPC   GL234994   3.485  23.377   9.207
 2456POPC   C1A34995   3.631  23.703   8.799
 2456POPC   D2A34996   3.472  23.899   8.386
 2456POPC   C3A34997   3.604  23.727   7.965
 2456POPC   C4A34998   3.980  23.838   7.675
 2456POPC   C1B34999   3.288  23.324   8.819
 2456POPC   C2B35000   3.392  23.397   8.399
 2456POPC   C3B35001   3.249  23.328   7.992
 2456POPC   C4B35002   3.540  23.356   7.619
 2457POPC   NC335003  13.767  15.015   9.675
 2457POPC   PO435004  13.702  15.701   9.635
 2457POPC   GL135005  13.457  15.532   9.328
 2457POPC   GL235006  13.578  15.191   9.227
 2457POPC   C1A35007  13.437  15.548   8.885
 2457POPC   D2A35008  13.481  15.546   8.465
 2457POPC   C3A35009  13.522  15.530   8.023
 2457POPC   C4A35010  13.796  15.246   7.822
 2457POPC   C1B35011  13.802  15.210   8.802
 2457POPC   C2B35012  13.932  15.258   8.355
 2457POPC   C3B35013  14.135  14.959   8.067
 2457POPC   C4B35014  14.094  14.832   7.673
 2458POPC   NC335015  22.997  35.047   9.441
 2458POPC   PO435016  22.634  35.591   9.491
 2458POPC   GL135017  22.916  35.448   9.150
 2458POPC   GL235018  23.170  35.673   9.104
 2458POPC   C1A35019  23.059  35.305   8.722
 2458POPC   D2A35020  22.751  35.317   8.398
 2458POPC   C3A35021  22.801  35.124   7.999
 2458POPC   C4A35022  22.992  35.308   7.641
 2458POPC   C1B35023  22.848  35.737   8.742
 2458POPC   C2B35024  23.092  35.715   8.380
 2458POPC   C3B35025  23.227  35.594   7.998
 2458POPC   C4B35026  23.107  35.800   7.638
 2459POPC   NC335027  20.801  12.307   9.525
 2459POPC   PO435028  20.331  11.876   9.519
 2459POPC   GL135029  20.491  12.118   9.151
 2459POPC   GL235030  20.554  12.462   9.112
 2459POPC   C1A35031  20.771  12.065   8.765
 2459POPC   D2A35032  20.850  11.774   8.395
 2459POPC   C3A35033  20.666  11.849   8.010
 2459POPC   C4A35034  20.815  11.932   7.618
 2459POPC   C1B35035  20.783  12.588   8.762
 2459POPC   C2B35036  20.808  12.423   8.347
 2459POPC   C3B35037  20.613  12.532   7.939
 2459POPC   C4B35038  20.453  12.378   7.544
 2460POPC   NC335039  37.714  30.188   9.500
 2460POPC   PO435040  37.918  29.549   9.583
 2460POPC   GL135041  37.818  29.792   9.207
 2460POPC   GL235042  37.457  29.782   9.269
 2460POPC   C1A35043  37.986  29.902   8.783
 2460POPC   D2A35044  37.993  30.048   8.354
 2460POPC   C3A35045  37.624  30.039   8.088
 2460POPC   C4A35046  37.654  30.034   7.632
 2460POPC   C1B35047  37.466  29.865   8.820
 2460POPC   C2B35048  37.401  29.665   8.403
 2460POPC   C3B35049  37.259  29.496   8.010
 2460POPC   C4B35050  37.312  29.665   7.642
 2461POPC   NC335051  42.582  43.561   9.571
 2461POPC   PO435052  43.232  43.852   9.780
 2461POPC   GL135053  43.018  43.836   9.350
 2461POPC   GL235054  42.920  43.513   9.191
 2461POPC   C1A35055  42.923  43.952   8.911
 2461POPC   D2A35056  43.024  43.909   8.451
 2461POPC   C3A35057  42.860  44.070   8.033
 2461POPC   C4A35058  43.112  44.039   7.650
 2461POPC   C1B35059  42.688  43.518   8.782
 2461POPC   C2B35060  42.866  43.415   8.380
 2461POPC   C3B35061  42.977  43.585   7.974
 2461POPC   C4B35062  42.582  43.623   7.783
 2462POPC   NC335063  13.785  27.470   9.577
 2462POPC   PO435064  13.317  27.919   9.763
 2462POPC   GL135065  13.455  27.712   9.297
 2462POPC   GL235066  13.822  27.797   9.184
 2462POPC   C1A35067  13.482  27.730   8.824
 2462POPC   D2A35068  13.782  27.789   8.458
 2462POPC   C3A35069  13.636  27.881   8.027
 2462POPC   C4A35070  13.745  27.919   7.613
 2462POPC   C1B35071  13.897  27.441   8.882
 2462POPC   C2B35072  13.912  27.287   8.442
 2462POPC   C3B35073  13.941  27.465   8.048
 2462POPC   C4B35074  14.039  27.291   7.687
 2463POPC   NC335075  25.303  35.789   9.466
 2463POPC   PO435076  25.629  36.433   9.551
 2463POPC   GL135077  25.368  36.259   9.203
 2463POPC   GL235078  25.226  35.976   9.011
 2463POPC   C1A35079  25.445  36.365   8.760
 2463POPC   D2A35080  25.482  36.328   8.332
 2463POPC   C3A35081  25.152  36.120   8.140
 2463POPC   C4A35082  25.276  36.106   7.702
 2463POPC   C1B35083  25.422  35.702   8.745
 2463POPC   C2B35084  25.502  35.785   8.359
 2463POPC   C3B35085  25.361  35.689   7.968
 2463POPC   C4B35086  24.911  35.772   7.860
 2464POPC   NC335087   3.203   3.708   9.528
 2464POPC   PO435088   2.599   3.415   9.692
 2464POPC   GL135089   2.684   3.433   9.179
 2464POPC   GL235090   3.031   3.532   9.087
 2464POPC   C1A35091   2.697   3.608   8.708
 2464POPC   D2A35092   2.504   3.741   8.294
 2464POPC   C3A35093   2.455   3.512   7.890
 2464POPC   C4A35094   2.642   3.304   7.536
 2464POPC   C1B35095   3.175   3.783   8.744
 2464POPC   C2B35096   3.028   3.806   8.327
 2464POPC   C3B35097   2.888   3.798   7.903
 2464POPC   C4B35098   3.105   3.775   7.488
 2465POPC   NC335099  42.534  14.874   9.846
 2465POPC   PO435100  42.988  15.229   9.437
 2465POPC   GL135101  43.091  15.171   9.053
 2465POPC   GL235102  42.837  15.389   8.960
 2465POPC   C1A35103  43.303  15.106   8.660
 2465POPC   D2A35104  43.211  14.857   8.302
 2465POPC   C3A35105  43.123  15.211   8.049
 2465POPC   C4A35106  43.340  15.456   7.721
 2465POPC   C1B35107  42.807  15.048   8.653
 2465POPC   C2B35108  42.584  14.897   8.343
 2465POPC   C3B35109  42.753  14.857   7.935
 2465POPC   C4B35110  42.725  15.257   7.712
 2466POPC   NC335111  38.159  28.113   9.547
 2466POPC   PO435112  38.755  28.385   9.517
 2466POPC   GL135113  38.536  28.419   9.166
 2466POPC   GL235114  38.417  28.071   9.126
 2466POPC   C1A35115  38.399  28.378   8.743
 2466POPC   D2A35116  38.600  28.223   8.390
 2466POPC   C3A35117  38.506  28.402   7.977
 2466POPC   C4A35118  38.688  28.642   7.610
 2466POPC   C1B35119  38.107  27.979   8.787
 2466POPC   C2B35120  38.090  28.207   8.377
 2466POPC   C3B35121  38.083  28.080   7.951
 2466POPC   C4B35122  38.188  28.334   7.575
 2467POPC   NC335123  25.773   7.561   9.558
 2467POPC   PO435124  26.448   7.485   9.635
 2467POPC   GL135125  26.167   7.388   9.246
 2467POPC   GL235126  25.806   7.391   9.106
 2467POPC   C1A35127  26.209   7.385   8.788
 2467POPC   D2A35128  26.083   7.599   8.397
 2467POPC   C3A35129  26.405   7.653   8.124
 2467POPC   C4A35130  26.408   7.483   7.746
 2467POPC   C1B35131  25.694   7.529   8.720
 2467POPC   C2B35132  25.620   7.360   8.313
 2467POPC   C3B35133  25.837   7.548   7.921
 2467POPC   C4B35134  25.983   7.496   7.478
 2468POPC   NC335135  29.474  22.866   9.371
 2468POPC   PO435136  29.125  23.320   9.712
 2468POPC   GL135137  29.070  23.247   9.201
 2468POPC   GL235138  29.049  22.870   9.110
 2468POPC   C1A35139  28.943  23.168   8.750
 2468POPC   D2A35140  28.719  23.167   8.377
 2468POPC   C3A35141  28.999  23.328   8.113
 2468POPC   C4A35142  29.220  23.162   7.765
 2468POPC   C1B35143  29.070  22.651   8.736
 2468POPC   C2B35144  29.320  22.556   8.358
 2468POPC   C3B35145  29.270  22.659   7.915
 2468POPC   C4B35146  29.434  22.719   7.493
 2469POPC   NC335147   2.358  19.713   9.796
 2469POPC   PO435148   2.322  20.302   9.546
 2469POPC   GL135149   2.285  19.997   9.162
 2469POPC   GL235150   2.401  19.652   9.261
 2469POPC   C1A35151   2.215  20.004   8.658
 2469POPC   D2A35152   2.315  20.052   8.188
 2469POPC   C3A35153   1.961  20.000   7.911
 2469POPC   C4A35154   1.763  20.147   7.525
 2469POPC   C1B35155   2.402  19.557   8.800
 2469POPC   C2B35156   2.298  19.558   8.344
 2469POPC   C3B35157   2.307  19.612   7.885
 2469POPC   C4B35158   2.127  19.773   7.490
 2470POPC   NC335159  39.564  44.256   9.489
 2470POPC   PO435160  39.483  43.646   9.576
 2470POPC   GL135161  39.305  43.747   9.182
 2470POPC   GL235162  39.310  44.089   9.052
 2470POPC   C1A35163  39.136  43.657   8.776
 2470POPC   D2A35164  39.027  43.899   8.414
 2470POPC   C3A35165  39.090  43.803   8.004
 2470POPC   C4A35166  38.857  43.801   7.638
 2470POPC   C1B35167  39.558  43.988   8.685
 2470POPC   C2B35168  39.701  44.073   8.260
 2470POPC   C3B35169  39.651  43.829   7.858
 2470POPC   C4B35170  39.369  43.806   7.486
 2471POPC   NC335171  32.468  39.881   9.681
 2471POPC   PO435172  32.979  40.262   9.618
 2471POPC   GL135173  32.998  40.159   9.188
 2471POPC   GL235174  32.752  39.914   9.236
 2471POPC   C1A35175  33.162  40.025   8.772
 2471POPC   D2A35176  33.243  40.206   8.348
 2471POPC   C3A35177  33.401  40.016   7.936
 2471POPC   C4A35178  33.401  40.125   7.497
 2471POPC   C1B35179  32.642  40.055   8.825
 2471POPC   C2B35180  32.793  39.941   8.433
 2471POPC   C3B35181  32.877  40.029   8.030
 2471POPC   C4B35182  32.973  39.856   7.650
 2472POPC   NC335183   3.032  14.362   9.535
 2472POPC   PO435184   2.481  14.685   9.307
 2472POPC   GL135185   2.792  14.455   9.084
 2472POPC   GL235186   3.019  14.731   9.110
 2472POPC   C1A35187   2.717  14.238   8.690
 2472POPC   D2A35188   2.419  14.253   8.354
 2472POPC   C3A35189   2.606  14.268   7.934
 2472POPC   C4A35190   2.782  14.610   7.682
 2472POPC   C1B35191   3.127  14.549   8.697
 2472POPC   C2B35192   2.970  14.468   8.279
 2472POPC   C3B35193   3.195  14.690   7.951
 2472POPC   C4B35194   3.288  14.651   7.514
 2473POPC   NC335195  40.936  29.557   9.427
 2473POPC   PO435196  40.538  30.059   9.651
 2473POPC   GL135197  40.794  30.069   9.252
 2473POPC   GL235198  40.810  29.809   9.015
 2473POPC   C1A35199  40.991  30.261   8.889
 2473POPC   D2A35200  41.024  30.126   8.454
 2473POPC   C3A35201  40.720  30.075   8.116
 2473POPC   C4A35202  40.896  29.829   7.805
 2473POPC   C1B35203  40.567  30.008   8.717
 2473POPC   C2B35204  40.565  29.695   8.427
 2473POPC   C3B35205  40.495  29.595   8.019
 2473POPC   C4B35206  40.367  29.727   7.618
 2474POPC   NC335207  26.308  40.023   9.360
 2474POPC   PO435208  25.718  39.984   9.719
 2474POPC   GL135209  25.803  39.863   9.253
 2474POPC   GL235210  26.043  39.590   9.226
 2474POPC   C1A35211  25.963  39.903   8.790
 2474POPC   D2A35212  25.799  39.859   8.357
 2474POPC   C3A35213  25.907  40.180   8.043
 2474POPC   C4A35214  26.273  40.053   7.816
 2474POPC   C1B35215  26.204  39.453   8.821
 2474POPC   C2B35216  26.479  39.385   8.459
 2474POPC   C3B35217  26.358  39.609   8.077
 2474POPC   C4B35218  25.920  39.650   7.915
 2475POPC   NC335219  24.970  21.427   9.533
 2475POPC   PO435220  25.539  21.092   9.753
 2475POPC   GL135221  25.437  21.463   9.334
 2475POPC   GL235222  25.102  21.329   9.073
 2475POPC   C1A35223  25.448  21.595   8.858
 2475POPC   D2A35224  25.254  21.284   8.567
 2475POPC   C3A35225  25.342  21.223   8.129
 2475POPC   C4A35226  25.069  21.246   7.780
 2475POPC   C1B35227  24.944  21.680   8.815
 2475POPC   C2B35228  25.149  21.800   8.453
 2475POPC   C3B35229  24.967  21.671   8.087
 2475POPC   C4B35230  24.852  21.706   7.684
 2476POPC   NC335231   5.334  30.555   9.460
 2476POPC   PO435232   4.749  30.852   9.482
 2476POPC   GL135233   5.011  30.778   9.110
 2476POPC   GL235234   5.274  30.997   9.059
 2476POPC   C1A35235   5.192  30.563   8.721
 2476POPC   D2A35236   5.287  30.313   8.293
 2476POPC   C3A35237   5.056  30.487   7.910
 2476POPC   C4A35238   5.005  30.556   7.445
 2476POPC   C1B35239   5.479  31.002   8.673
 2476POPC   C2B35240   5.324  30.818   8.276
 2476POPC   C3B35241   5.476  30.756   7.839
 2476POPC   C4B35242   5.627  31.021   7.491
 2477POPC   NC335243  25.507  14.475   9.503
 2477POPC   PO435244  26.185  14.419   9.408
 2477POPC   GL135245  26.213  14.137   9.009
 2477POPC   GL235246  25.878  14.245   8.988
 2477POPC   C1A35247  26.120  14.138   8.546
 2477POPC   D2A35248  25.787  14.347   8.360
 2477POPC   C3A35249  25.982  14.326   7.948
 2477POPC   C4A35250  26.359  14.089   7.856
 2477POPC   C1B35251  26.171  14.577   8.771
 2477POPC   C2B35252  26.195  14.642   8.322
 2477POPC   C3B35253  26.396  14.646   7.943
 2477POPC   C4B35254  26.223  14.735   7.532
 2478POPC   NC335255   5.840  24.107   9.427
 2478POPC   PO435256   6.068  24.769   9.500
 2478POPC   GL135257   6.114  24.466   9.179
 2478POPC   GL235258   5.766  24.476   9.066
 2478POPC   C1A35259   6.092  24.234   8.775
 2478POPC   D2A35260   5.902  24.425   8.447
 2478POPC   C3A35261   6.139  24.503   8.135
 2478POPC   C4A35262   6.082  24.429   7.730
 2478POPC   C1B35263   5.462  24.420   8.727
 2478POPC   C2B35264   5.321  24.263   8.316
 2478POPC   C3B35265   5.630  24.396   8.018
 2478POPC   C4B35266   5.601  24.597   7.637
 2479POPC   NC335267  39.582  24.184   9.643
 2479POPC   PO435268  39.078  24.551   9.572
 2479POPC   GL135269  39.295  24.416   9.173
 2479POPC   GL235270  39.568  24.109   9.146
 2479POPC   C1A35271  39.261  24.724   8.807
 2479POPC   D2A35272  39.177  25.024   8.462
 2479POPC   C3A35273  39.247  24.784   8.072
 2479POPC   C4A35274  39.058  24.498   7.758
 2479POPC   C1B35275  39.549  24.304   8.743
 2479POPC   C2B35276  39.409  24.401   8.367
 2479POPC   C3B35277  39.491  24.336   7.967
 2479POPC   C4B35278  39.337  24.093   7.631
 2480POPC   NC335279  21.881  18.170   9.817
 2480POPC   PO435280  22.307  17.815   9.449
 2480POPC   GL135281  22.140  18.113   9.161
 2480POPC   GL235282  21.810  18.236   9.282
 2480POPC   C1A35283  22.188  18.283   8.720
 2480POPC   D2A35284  22.290  18.510   8.306
 2480POPC   C3A35285  22.212  18.207   7.948
 2480POPC   C4A35286  21.967  17.806   7.870
 2480POPC   C1B35287  21.683  18.381   8.856
 2480POPC   C2B35288  21.795  18.482   8.419
 2480POPC   C3B35289  21.890  18.622   7.977
 2480POPC   C4B35290  21.702  18.474   7.570
 2481POPC   NC335291   1.441  16.667   9.453
 2481POPC   PO435292   0.879  16.509   9.415
 2481POPC   GL135293   1.189  16.496   9.025
 2481POPC   GL235294   1.413  16.767   8.968
 2481POPC   C1A35295   1.376  16.469   8.561
 2481POPC   D2A35296   1.617  16.679   8.205
 2481POPC   C3A35297   1.486  16.559   7.788
 2481POPC   C4A35298   1.442  16.517   7.343
 2481POPC   C1B35299   1.566  17.000   8.650
 2481POPC   C2B35300   1.437  17.161   8.249
 2481POPC   C3B35301   1.493  17.085   7.807
 2481POPC   C4B35302   1.680  17.127   7.379
 2482POPC   NC335303  15.123  43.785   9.614
 2482POPC   PO435304  15.479  44.347   9.518
 2482POPC   GL135305  15.216  44.124   9.200
 2482POPC   GL235306  15.279  43.768   9.142
 2482POPC   C1A35307  15.156  44.088   8.740
 2482POPC   D2A35308  14.968  44.007   8.310
 2482POPC   C3A35309  15.229  44.145   7.933
 2482POPC   C4A35310  15.254  43.916   7.516
 2482POPC   C1B35311  15.191  43.552   8.776
 2482POPC   C2B35312  15.385  43.561   8.376
 2482POPC   C3B35313  15.170  43.636   8.010
 2482POPC   C4B35314  15.158  43.439   7.671
 2483POPC   NC335315   0.825  39.262   9.388
 2483POPC   PO435316   0.086  39.088   9.474
 2483POPC   GL135317   0.228  39.220   9.085
 2483POPC   GL235318   0.519  39.432   9.025
 2483POPC   C1A35319   0.099  39.477   8.723
 2483POPC   D2A35320  44.977  39.502   8.299
 2483POPC   C3A35321   0.313  39.355   8.008
 2483POPC   C4A35322   0.561  39.389   7.592
 2483POPC   C1B35323   0.510  39.135   8.694
 2483POPC   C2B35324   0.620  38.972   8.316
 2483POPC   C3B35325   0.724  39.048   7.917
 2483POPC   C4B35326   0.702  38.752   7.599
 2484POPC   NC335327  39.912   0.112   9.509
 2484POPC   PO435328  40.158   0.775   9.392
 2484POPC   GL135329  40.064   0.436   9.142
 2484POPC   GL235330  39.717   0.376   9.077
 2484POPC   C1A35331  40.121   0.223   8.771
 2484POPC   D2A35332  39.913   0.318   8.424
 2484POPC   C3A35333  39.864   0.093   8.019
 2484POPC   C4A35334  39.574   0.209   7.689
 2484POPC   C1B35335  39.758   0.691   8.780
 2484POPC   C2B35336  39.769   0.892   8.368
 2484POPC   C3B35337  39.846   0.611   8.035
 2484POPC   C4B35338  39.970   0.544   7.618
 2485POPC   NC335339  38.019  43.950   9.579
 2485POPC   PO435340  37.366  44.145   9.374
 2485POPC   GL135341  37.689  43.900   9.157
 2485POPC   GL235342  37.992  44.084   9.090
 2485POPC   C1A35343  37.884  43.605   8.878
 2485POPC   D2A35344  37.912  43.479   8.456
 2485POPC   C3A35345  37.710  43.702   8.117
 2485POPC   C4A35346  37.932  43.742   7.734
 2485POPC   C1B35347  37.878  44.045   8.650
 2485POPC   C2B35348  38.086  44.060   8.259
 2485POPC   C3B35349  37.888  44.222   7.896
 2485POPC   C4B35350  37.697  44.103   7.488
 2486POPC   NC335351  12.892  19.609   9.537
 2486POPC   PO435352  12.374  19.284   9.304
 2486POPC   GL135353  12.645  19.630   9.105
 2486POPC   GL235354  12.949  19.901   9.142
 2486POPC   C1A35355  12.640  19.844   8.742
 2486POPC   D2A35356  12.780  19.690   8.372
 2486POPC   C3A35357  12.765  19.996   8.083
 2486POPC   C4A35358  12.830  19.887   7.693
 2486POPC   C1B35359  13.167  19.830   8.754
 2486POPC   C2B35360  13.246  20.020   8.336
 2486POPC   C3B35361  13.283  20.034   7.876
 2486POPC   C4B35362  13.339  19.795   7.495
 2487POPC   NC335363  13.980  43.171   9.409
 2487POPC   PO435364  13.411  43.166   9.585
 2487POPC   GL135365  13.537  43.072   9.194
 2487POPC   GL235366  13.608  43.413   9.146
 2487POPC   C1A35367  13.779  43.030   8.802
 2487POPC   D2A35368  13.586  42.995   8.426
 2487POPC   C3A35369  13.874  42.960   8.099
 2487POPC   C4A35370  13.763  43.035   7.693
 2487POPC   C1B35371  13.700  43.577   8.746
 2487POPC   C2B35372  13.819  43.438   8.335
 2487POPC   C3B35373  13.826  43.526   7.901
 2487POPC   C4B35374  13.854  43.470   7.450
 2488POPC   NC335375  44.103  44.543   9.527
 2488POPC   PO435376  43.392  44.510   9.673
 2488POPC   GL135377  43.608  44.562   9.221
 2488POPC   GL235378  43.954  44.691   9.050
 2488POPC   C1A35379  43.530  44.695   8.797
 2488POPC   D2A35380  43.549  44.490   8.439
 2488POPC   C3A35381  43.566  44.709   8.074
 2488POPC   C4A35382  43.932  44.753   7.837
 2488POPC   C1B35383  43.974  44.389   8.723
 2488POPC   C2B35384  44.165  44.316   8.322
 2488POPC   C3B35385  44.265  44.349   7.848
 2488POPC   C4B35386  43.938  44.382   7.502
 2489POPC   NC335387  30.455   5.586   9.669
 2489POPC   PO435388  30.839   6.056   9.424
 2489POPC   GL135389  30.570   5.867   9.172
 2489POPC   GL235390  30.553   5.538   9.156
 2489POPC   C1A35391  30.661   5.882   8.748
 2489POPC   D2A35392  30.951   5.996   8.438
 2489POPC   C3A35393  30.797   5.863   8.052
 2489POPC   C4A35394  31.029   5.797   7.700
 2489POPC   C1B35395  30.482   5.383   8.741
 2489POPC   C2B35396  30.482   5.479   8.303
 2489POPC   C3B35397  30.175   5.524   7.959
 2489POPC   C4B35398  30.229   5.410   7.515
 2490POPC   NC335399   2.098   9.719   9.507
 2490POPC   PO435400   1.469   9.812   9.705
 2490POPC   GL135401   1.594   9.864   9.164
 2490POPC   GL235402   1.961   9.928   9.082
 2490POPC   C1A35403   1.695   9.676   8.736
 2490POPC   D2A35404   2.023   9.737   8.417
 2490POPC   C3A35405   1.866   9.656   8.022
 2490POPC   C4A35406   1.731   9.956   7.712
 2490POPC   C1B35407   2.290  10.048   8.780
 2490POPC   C2B35408   2.486  10.102   8.359
 2490POPC   C3B35409   2.245  10.020   7.982
 2490POPC   C4B35410   2.227   9.694   7.659
 2491POPC   NC335411  27.742  40.440   9.737
 2491POPC   PO435412  27.379  40.949   9.477
 2491POPC   GL135413  27.586  40.799   9.118
 2491POPC   GL235414  27.321  40.860   8.978
 2491POPC   C1A35415  27.613  40.579   8.674
 2491POPC   D2A35416  27.962  40.513   8.399
 2491POPC   C3A35417  27.846  40.477   7.976
 2491POPC   C4A35418  27.862  40.728   7.621
 2491POPC   C1B35419  27.489  41.077   8.626
 2491POPC   C2B35420  27.603  40.906   8.225
 2491POPC   C3B35421  27.599  41.117   7.841
 2491POPC   C4B35422  27.426  41.060   7.428
 2492POPC   NC335423  16.453  43.289   9.529
 2492POPC   PO435424  17.050  42.891   9.512
 2492POPC   GL135425  16.880  43.125   9.229
 2492POPC   GL235426  16.606  42.956   9.137
 2492POPC   C1A35427  16.932  43.170   8.790
 2492POPC   D2A35428  16.664  43.181   8.415
 2492POPC   C3A35429  16.825  43.022   8.000
 2492POPC   C4A35430  16.928  43.221   7.602
 2492POPC   C1B35431  16.615  42.744   8.742
 2492POPC   C2B35432  16.363  42.708   8.363
 2492POPC   C3B35433  16.311  43.038   8.067
 2492POPC   C4B35434  16.192  43.107   7.654
 2493POPC   NC335435  28.291   7.268   9.612
 2493POPC   PO435436  28.722   7.799   9.687
 2493POPC   GL135437  28.421   7.659   9.329
 2493POPC   GL235438  28.599   7.373   9.173
 2493POPC   C1A35439  28.189   7.502   8.926
 2493POPC   D2A35440  28.140   7.557   8.460
 2493POPC   C3A35441  27.997   7.369   8.076
 2493POPC   C4A35442  28.175   7.443   7.705
 2493POPC   C1B35443  28.712   7.377   8.725
 2493POPC   C2B35444  28.605   7.287   8.281
 2493POPC   C3B35445  28.667   7.332   7.806
 2493POPC   C4B35446  28.647   7.294   7.341
 2494POPC   NC335447  43.390  43.404   9.583
 2494POPC   PO435448  42.724  43.060   9.540
 2494POPC   GL135449  42.981  42.994   9.208
 2494POPC   GL235450  43.023  42.634   9.118
 2494POPC   C1A35451  43.087  43.163   8.782
 2494POPC   D2A35452  43.205  43.015   8.332
 2494POPC   C3A35453  42.892  43.090   7.984
 2494POPC   C4A35454  42.988  43.255   7.556
 2494POPC   C1B35455  43.146  42.649   8.699
 2494POPC   C2B35456  42.995  42.540   8.288
 2494POPC   C3B35457  43.080  42.564   7.857
 2494POPC   C4B35458  43.149  42.732   7.404
 2495POPC   NC335459  37.000  33.795   9.480
 2495POPC   PO435460  36.486  33.507   9.213
 2495POPC   GL135461  36.887  33.623   9.011
 2495POPC   GL235462  37.029  33.999   9.023
 2495POPC   C1A35463  37.062  33.717   8.608
 2495POPC   D2A35464  36.883  33.997   8.303
 2495POPC   C3A35465  36.864  33.682   7.996
 2495POPC   C4A35466  36.799  33.658   7.565
 2495POPC   C1B35467  37.258  34.177   8.655
 2495POPC   C2B35468  37.385  33.957   8.260
 2495POPC   C3B35469  37.177  34.082   7.885
 2495POPC   C4B35470  36.919  34.392   7.764
 2496POPC   NC335471  19.942  39.758   9.484
 2496POPC   PO435472  19.713  40.432   9.347
 2496POPC   GL135473  19.927  40.107   9.098
 2496POPC   GL235474  19.857  39.769   8.982
 2496POPC   C1A35475  19.972  40.165   8.654
 2496POPC   D2A35476  20.106  40.196   8.247
 2496POPC   C3A35477  19.897  40.053   7.895
 2496POPC   C4A35478  19.873  40.185   7.462
 2496POPC   C1B35479  20.146  39.686   8.658
 2496POPC   C2B35480  20.047  39.663   8.226
 2496POPC   C3B35481  20.282  39.717   7.844
 2496POPC   C4B35482  20.148  39.712   7.394
 2497POPC   NC335483  15.014   6.100   9.496
 2497POPC   PO435484  14.892   5.418   9.421
 2497POPC   GL135485  15.247   5.710   9.253
 2497POPC   GL235486  15.044   5.702   9.027
 2497POPC   C1A35487  15.393   6.003   8.858
 2497POPC   D2A35488  15.242   5.946   8.413
 2497POPC   C3A35489  15.177   5.551   8.165
 2497POPC   C4A35490  15.220   5.805   7.799
 2497POPC   C1B35491  14.864   5.896   8.760
 2497POPC   C2B35492  14.738   5.694   8.433
 2497POPC   C3B35493  14.806   5.878   8.086
 2497POPC   C4B35494  14.690   5.860   7.727
 2498POPC   NC335495  23.386  18.694   9.517
 2498POPC   PO435496  24.011  18.595   9.491
 2498POPC   GL135497  23.748  18.485   9.166
 2498POPC   GL235498  23.798  18.123   9.183
 2498POPC   C1A35499  23.577  18.566   8.748
 2498POPC   D2A35500  23.691  18.352   8.365
 2498POPC   C3A35501  23.746  18.634   8.029
 2498POPC   C4A35502  23.715  18.523   7.581
 2498POPC   C1B35503  24.098  17.918   8.912
 2498POPC   C2B35504  24.123  17.921   8.483
 2498POPC   C3B35505  23.906  17.904   8.102
 2498POPC   C4B35506  23.906  18.034   7.690
 2499POPC   NC335507  34.166  30.837   9.628
 2499POPC   PO435508  34.601  30.381   9.433
 2499POPC   GL135509  34.598  30.573   9.106
 2499POPC   GL235510  34.307  30.801   9.136
 2499POPC   C1A35511  34.837  30.562   8.752
 2499POPC   D2A35512  34.566  30.534   8.405
 2499POPC   C3A35513  34.769  30.377   8.104
 2499POPC   C4A35514  34.939  30.357   7.698
 2499POPC   C1B35515  34.490  30.926   8.759
 2499POPC   C2B35516  34.647  31.062   8.394
 2499POPC   C3B35517  34.436  30.926   8.065
 2499POPC   C4B35518  34.534  30.666   7.728
 2500POPC   NC335519  31.011   3.201   9.405
 2500POPC   PO435520  30.581   3.697   9.552
 2500POPC   GL135521  30.579   3.879   9.149
 2500POPC   GL235522  30.903   3.736   9.055
 2500POPC   C1A35523  30.680   4.010   8.701
 2500POPC   D2A35524  30.981   3.778   8.415
 2500POPC   C3A35525  30.789   3.754   8.015
 2500POPC   C4A35526  30.775   4.042   7.689
 2500POPC   C1B35527  31.033   3.384   8.767
 2500POPC   C2B35528  31.198   3.288   8.365
 2500POPC   C3B35529  31.036   3.309   7.967
 2500POPC   C4B35530  30.994   3.172   7.575
 2501POPC   NC335531  36.886  32.029   9.506
 2501POPC   PO435532  36.991  32.723   9.417
 2501POPC   GL135533  36.929  32.381   9.121
 2501POPC   GL235534  37.225  32.168   9.114
 2501POPC   C1A35535  36.656  32.108   8.853
 2501POPC   D2A35536  36.720  31.978   8.411
 2501POPC   C3A35537  36.716  31.979   7.945
 2501POPC   C4A35538  36.695  32.322   7.627
 2501POPC   C1B35539  37.149  32.147   8.669
 2501POPC   C2B35540  37.181  32.154   8.218
 2501POPC   C3B35541  37.162  32.200   7.784
 2501POPC   C4B35542  37.014  31.962   7.438
 2502POPC   NC335543  35.968  30.614   9.477
 2502POPC   PO435544  36.385  31.072   9.452
 2502POPC   GL135545  36.236  30.786   9.111
 2502POPC   GL235546  36.399  30.424   9.217
 2502POPC   C1A35547  36.015  30.814   8.749
 2502POPC   D2A35548  36.210  31.042   8.409
 2502POPC   C3A35549  36.013  30.937   8.059
 2502POPC   C4A35550  35.811  30.875   7.704
 2502POPC   C1B35551  36.282  30.317   8.801
 2502POPC   C2B35552  36.213  30.507   8.398
 2502POPC   C3B35553  36.183  30.428   7.999
 2502POPC   C4B35554  36.248  30.632   7.639
 2503POPC   NC335555  18.264  27.165   9.497
 2503POPC   PO435556  18.532  27.775   9.437
 2503POPC   GL135557  18.178  27.647   9.107
 2503POPC   GL235558  18.067  27.305   9.051
 2503POPC   C1A35559  18.191  27.560   8.638
 2503POPC   D2A35560  18.571  27.604   8.404
 2503POPC   C3A35561  18.515  27.738   7.974
 2503POPC   C4A35562  18.382  27.577   7.579
 2503POPC   C1B35563  17.896  27.102   8.709
 2503POPC   C2B35564  17.859  26.905   8.310
 2503POPC   C3B35565  17.936  27.069   7.908
 2503POPC   C4B35566  18.029  27.194   7.476
 2504POPC   NC335567  17.119  39.064   9.517
 2504POPC   PO435568  16.506  38.988   9.346
 2504POPC   GL135569  16.760  39.239   9.090
 2504POPC   GL235570  16.952  38.958   9.034
 2504POPC   C1A35571  16.748  39.227   8.621
 2504POPC   D2A35572  16.534  39.125   8.233
 2504POPC   C3A35573  16.772  39.287   7.918
 2504POPC   C4A35574  16.778  39.677   7.748
 2504POPC   C1B35575  17.188  39.008   8.674
 2504POPC   C2B35576  17.047  38.956   8.244
 2504POPC   C3B35577  17.099  38.863   7.807
 2504POPC   C4B35578  16.999  38.904   7.381
 2505POPC   NC335579  34.198  26.964   9.698
 2505POPC   PO435580  33.645  26.856   9.698
 2505POPC   GL135581  33.856  26.978   9.257
 2505POPC   GL235582  34.174  27.185   9.209
 2505POPC   C1A35583  33.771  27.065   8.769
 2505POPC   D2A35584  34.009  27.228   8.383
 2505POPC   C3A35585  33.850  27.127   7.960
 2505POPC   C4A35586  33.621  26.822   7.681
 2505POPC   C1B35587  34.254  26.957   8.812
 2505POPC   C2B35588  34.122  26.728   8.383
 2505POPC   C3B35589  34.071  26.682   7.920
 2505POPC   C4B35590  34.104  26.903   7.515
 2506POPC   NC335591  10.008  26.867   9.630
 2506POPC   PO435592   9.329  26.699   9.576
 2506POPC   GL135593   9.654  26.635   9.271
 2506POPC   GL235594   9.769  26.976   9.188
 2506POPC   C1A35595   9.789  26.603   8.835
 2506POPC   D2A35596   9.677  26.813   8.463
 2506POPC   C3A35597   9.568  26.641   8.067
 2506POPC   C4A35598   9.888  26.573   7.741
 2506POPC   C1B35599   9.960  27.103   8.799
 2506POPC   C2B35600   9.879  27.273   8.391
 2506POPC   C3B35601   9.911  27.024   8.037
 2506POPC   C4B35602   9.935  27.050   7.604
 2507POPC   NC335603  14.295  12.223   9.443
 2507POPC   PO435604  14.537  11.574   9.530
 2507POPC   GL135605  14.603  11.831   9.180
 2507POPC   GL235606  14.809  12.086   9.319
 2507POPC   C1A35607  14.412  11.898   8.771
 2507POPC   D2A35608  14.391  11.730   8.351
 2507POPC   C3A35609  14.189  11.886   7.992
 2507POPC   C4A35610  14.536  11.913   7.751
 2507POPC   C1B35611  14.729  12.261   8.907
 2507POPC   C2B35612  14.623  12.480   8.498
 2507POPC   C3B35613  14.497  12.286   8.110
 2507POPC   C4B35614  14.611  12.405   7.666
 2508POPC   NC335615  10.435   8.828   9.467
 2508POPC   PO435616  10.347   9.575   9.424
 2508POPC   GL135617  10.430   9.271   9.117
 2508POPC   GL235618  10.138   9.042   9.104
 2508POPC   C1A35619  10.449   9.078   8.705
 2508POPC   D2A35620  10.264   9.139   8.290
 2508POPC   C3A35621  10.608   8.996   8.041
 2508POPC   C4A35622  10.828   8.907   7.698
 2508POPC   C1B35623  10.224   8.629   8.840
 2508POPC   C2B35624  10.387   8.664   8.402
 2508POPC   C3B35625  10.273   8.622   7.943
 2508POPC   C4B35626  10.426   8.683   7.496
 2509POPC   NC335627  18.974  37.880   9.336
 2509POPC   PO435628  19.092  37.226   9.543
 2509POPC   GL135629  19.000  37.407   9.159
 2509POPC   GL235630  19.326  37.432   9.082
 2509POPC   C1A35631  18.792  37.547   8.769
 2509POPC   D2A35632  18.942  37.841   8.438
 2509POPC   C3A35633  18.861  37.738   8.020
 2509POPC   C4A35634  18.912  37.597   7.613
 2509POPC   C1B35635  19.318  37.535   8.658
 2509POPC   C2B35636  19.550  37.536   8.271
 2509POPC   C3B35637  19.361  37.641   7.899
 2509POPC   C4B35638  19.361  37.365   7.578
 2510POPC   NC335639  34.931  23.425   9.385
 2510POPC   PO435640  35.518  23.525   9.722
 2510POPC   GL135641  35.612  23.676   9.214
 2510POPC   GL235642  35.234  23.755   9.099
 2510POPC   C1A35643  35.547  23.628   8.723
 2510POPC   D2A35644  35.551  23.920   8.369
 2510POPC   C3A35645  35.540  23.598   8.078
 2510POPC   C4A35646  35.367  23.464   7.716
 2510POPC   C1B35647  35.168  23.959   8.721
 2510POPC   C2B35648  35.033  23.885   8.300
 2510POPC   C3B35649  35.205  23.926   7.894
 2510POPC   C4B35650  35.071  24.123   7.527
 2511POPC   NC335651  18.024  25.357   9.425
 2511POPC   PO435652  18.522  25.019   9.648
 2511POPC   GL135653  18.502  25.268   9.243
 2511POPC   GL235654  18.277  25.065   9.047
 2511POPC   C1A35655  18.317  25.538   8.865
 2511POPC   D2A35656  18.248  25.332   8.468
 2511POPC   C3A35657  18.476  25.409   8.090
 2511POPC   C4A35658  18.300  25.572   7.710
 2511POPC   C1B35659  18.655  25.158   8.754
 2511POPC   C2B35660  18.768  25.014   8.340
 2511POPC   C3B35661  18.657  24.974   7.873
 2511POPC   C4B35662  18.223  25.064   7.762
 2512POPC   NC335663   1.602  12.082   9.184
 2512POPC   PO435664   1.093  11.949   9.580
 2512POPC   GL135665   1.083  11.980   9.121
 2512POPC   GL235666   1.075  11.648   9.049
 2512POPC   C1A35667   1.104  12.097   8.647
 2512POPC   D2A35668   0.996  12.384   8.305
 2512POPC   C3A35669   1.118  12.268   7.897
 2512POPC   C4A35670   1.499  12.223   7.691
 2512POPC   C1B35671   1.202  11.593   8.633
 2512POPC   C2B35672   1.123  11.805   8.214
 2512POPC   C3B35673   1.062  11.761   7.775
 2512POPC   C4B35674   0.993  11.626   7.366
 2513POPC   NC335675  18.280  20.579   9.580
 2513POPC   PO435676  18.068  20.108   9.232
 2513POPC   GL135677  18.184  20.492   9.065
 2513POPC   GL235678  18.529  20.624   9.144
 2513POPC   C1A35679  18.177  20.725   8.683
 2513POPC   D2A35680  18.321  20.662   8.258
 2513POPC   C3A35681  18.150  20.882   7.901
 2513POPC   C4A35682  18.121  20.621   7.581
 2513POPC   C1B35683  18.627  20.461   8.753
 2513POPC   C2B35684  18.821  20.582   8.380
 2513POPC   C3B35685  18.731  20.493   7.968
 2513POPC   C4B35686  18.644  20.743   7.666
 2514POPC   NC335687  34.381  33.633   9.488
 2514POPC   PO435688  34.825  34.023   9.508
 2514POPC   GL135689  34.696  33.869   9.140
 2514POPC   GL235690  34.368  33.787   9.011
 2514POPC   C1A35691  34.758  34.055   8.754
 2514POPC   D2A35692  34.712  34.282   8.391
 2514POPC   C3A35693  34.704  34.100   7.986
 2514POPC   C4A35694  34.394  33.926   7.711
 2514POPC   C1B35695  34.631  33.557   8.749
 2514POPC   C2B35696  34.581  33.756   8.388
 2514POPC   C3B35697  34.582  33.587   8.046
 2514POPC   C4B35698  34.745  33.458   7.705
 2515POPC   NC335699   5.468  10.117   9.224
 2515POPC   PO435700   5.932  10.081   9.724
 2515POPC   GL135701   5.948  10.367   9.315
 2515POPC   GL235702   5.865  10.735   9.334
 2515POPC   C1A35703   6.151  10.558   8.903
 2515POPC   D2A35704   6.270  10.612   8.412
 2515POPC   C3A35705   5.958  10.599   8.063
 2515POPC   C4A35706   5.543  10.429   8.098
 2515POPC   C1B35707   5.699  10.882   8.910
 2515POPC   C2B35708   5.538  10.816   8.477
 2515POPC   C3B35709   5.546  10.949   8.055
 2515POPC   C4B35710   5.616  10.732   7.672
 2516POPC   NC335711   4.309   8.952   9.746
 2516POPC   PO435712   4.931   8.839   9.717
 2516POPC   GL135713   4.697   9.070   9.327
 2516POPC   GL235714   4.395   8.882   9.241
 2516POPC   C1A35715   4.526   9.205   8.871
 2516POPC   D2A35716   4.438   9.008   8.428
 2516POPC   C3A35717   4.373   9.175   7.988
 2516POPC   C4A35718   4.632   8.901   7.739
 2516POPC   C1B35719   4.201   8.806   8.833
 2516POPC   C2B35720   3.922   8.796   8.519
 2516POPC   C3B35721   3.956   8.907   8.102
 2516POPC   C4B35722   4.142   8.704   7.761
 2517POPC   NC335723  41.842  33.680   9.601
 2517POPC   PO435724  41.365  34.096   9.506
 2517POPC   GL135725  41.652  34.024   9.193
 2517POPC   GL235726  41.546  33.703   9.175
 2517POPC   C1A35727  41.732  33.994   8.744
 2517POPC   D2A35728  41.782  34.237   8.365
 2517POPC   C3A35729  41.543  34.003   8.069
 2517POPC   C4A35730  41.626  33.833   7.678
 2517POPC   C1B35731  41.459  33.556   8.778
 2517POPC   C2B35732  41.752  33.545   8.434
 2517POPC   C3B35733  41.693  33.454   8.028
 2517POPC   C4B35734  41.312  33.446   7.837
 2518POPC   NC335735  11.750   9.952   9.424
 2518POPC   PO435736  12.402   9.657   9.422
 2518POPC   GL135737  12.120   9.732   9.124
 2518POPC   GL235738  11.828   9.539   9.098
 2518POPC   C1A35739  12.147   9.714   8.695
 2518POPC   D2A35740  12.354   9.468   8.377
 2518POPC   C3A35741  12.270   9.616   7.947
 2518POPC   C4A35742  12.153   9.537   7.542
 2518POPC   C1B35743  11.670   9.533   8.682
 2518POPC   C2B35744  11.856   9.585   8.270
 2518POPC   C3B35745  11.822   9.909   7.941
 2518POPC   C4B35746  11.645   9.928   7.538
 2519POPC   NC335747  23.115  30.549   9.639
 2519POPC   PO435748  22.458  30.509   9.400
 2519POPC   GL135749  22.775  30.664   9.122
 2519POPC   GL235750  23.101  30.853   9.221
 2519POPC   C1A35751  22.758  30.690   8.669
 2519POPC   D2A35752  22.587  30.461   8.301
 2519POPC   C3A35753  22.778  30.639   7.938
 2519POPC   C4A35754  22.901  30.929   7.601
 2519POPC   C1B35755  23.247  30.774   8.786
 2519POPC   C2B35756  23.132  30.854   8.308
 2519POPC   C3B35757  23.370  30.868   7.878
 2519POPC   C4B35758  23.367  31.061   7.435
 2520POPC   NC335759  43.287  11.518   9.829
 2520POPC   PO435760  43.879  11.386   9.454
 2520POPC   GL135761  43.886  11.187   9.081
 2520POPC   GL235762  43.541  11.152   9.069
 2520POPC   C1A35763  43.816  11.365   8.685
 2520POPC   D2A35764  44.031  11.639   8.418
 2520POPC   C3A35765  43.955  11.455   8.017
 2520POPC   C4A35766  43.649  11.515   7.713
 2520POPC   C1B35767  43.625  10.858   8.736
 2520POPC   C2B35768  43.721  10.937   8.328
 2520POPC   C3B35769  43.478  11.070   7.983
 2520POPC   C4B35770  43.760  11.033   7.706
 2521POPC   NC335771  20.187   4.149   9.457
 2521POPC   PO435772  19.648   4.546   9.487
 2521POPC   GL135773  19.749   4.337   9.123
 2521POPC   GL235774  20.034   4.480   9.097
 2521POPC   C1A35775  19.597   4.323   8.697
 2521POPC   D2A35776  19.450   4.008   8.421
 2521POPC   C3A35777  19.513   4.083   7.980
 2521POPC   C4A35778  19.781   4.266   7.674
 2521POPC   C1B35779  20.110   4.410   8.689
 2521POPC   C2B35780  20.175   4.637   8.308
 2521POPC   C3B35781  20.161   4.620   7.900
 2521POPC   C4B35782  20.230   4.204   7.890
 2522POPC   NC335783  42.875  15.692   9.383
 2522POPC   PO435784  43.435  16.029   9.345
 2522POPC   GL135785  43.103  15.994   9.045
 2522POPC   GL235786  43.262  15.657   9.017
 2522POPC   C1A35787  42.878  15.831   8.706
 2522POPC   D2A35788  43.032  15.511   8.466
 2522POPC   C3A35789  43.146  15.744   8.098
 2522POPC   C4A35790  43.078  15.967   7.692
 2522POPC   C1B35791  43.418  15.809   8.634
 2522POPC   C2B35792  43.546  16.043   8.268
 2522POPC   C3B35793  43.519  16.161   7.840
 2522POPC   C4B35794  43.561  15.875   7.494
 2523POPC   NC335795   2.153   6.271   9.289
 2523POPC   PO435796   2.273   5.563   9.439
 2523POPC   GL135797   2.301   5.815   9.103
 2523POPC   GL235798   1.941   5.811   9.019
 2523POPC   C1A35799   2.259   5.889   8.659
 2523POPC   D2A35800   2.070   5.963   8.288
 2523POPC   C3A35801   2.203   5.768   7.963
 2523POPC   C4A35802   2.473   5.568   7.766
 2523POPC   C1B35803   1.674   6.013   8.676
 2523POPC   C2B35804   1.694   6.272   8.319
 2523POPC   C3B35805   1.661   6.216   7.891
 2523POPC   C4B35806   1.841   5.890   7.633
 2524POPC   NC335807  18.112  36.778   9.720
 2524POPC   PO435808  18.172  36.077   9.538
 2524POPC   GL135809  18.125  36.323   9.140
 2524POPC   GL235810  18.420  36.516   9.006
 2524POPC   C1A35811  18.013  36.055   8.767
 2524POPC   D2A35812  18.119  35.787   8.419
 2524POPC   C3A35813  18.413  35.903   8.140
 2524POPC   C4A35814  18.250  35.752   7.780
 2524POPC   C1B35815  18.449  36.322   8.602
 2524POPC   C2B35816  18.439  36.412   8.174
 2524POPC   C3B35817  18.396  36.275   7.763
 2524POPC   C4B35818  18.327  36.461   7.362
 2525POPC   NC335819  26.470   9.009   9.647
 2525POPC   PO435820  25.725   8.860   9.539
 2525POPC   GL135821  25.827   8.914   9.074
 2525POPC   GL235822  26.000   9.223   9.032
 2525POPC   C1A35823  25.632   9.120   8.674
 2525POPC   D2A35824  25.722   9.316   8.278
 2525POPC   C3A35825  25.793   9.020   7.972
 2525POPC   C4A35826  25.977   8.977   7.580
 2525POPC   C1B35827  26.136   9.050   8.625
 2525POPC   C2B35828  26.251   8.972   8.219
 2525POPC   C3B35829  26.242   9.234   7.917
 2525POPC   C4B35830  26.425   9.289   7.579
 2526POPC   NC335831   7.244   7.394   9.667
 2526POPC   PO435832   7.741   7.776   9.587
 2526POPC   GL135833   7.526   7.476   9.231
 2526POPC   GL235834   7.173   7.298   9.177
 2526POPC   C1A35835   7.352   7.636   8.828
 2526POPC   D2A35836   7.251   7.556   8.399
 2526POPC   C3A35837   7.497   7.415   8.019
 2526POPC   C4A35838   7.227   7.511   7.633
 2526POPC   C1B35839   7.216   7.138   8.761
 2526POPC   C2B35840   7.285   7.047   8.313
 2526POPC   C3B35841   7.136   7.066   7.872
 2526POPC   C4B35842   7.112   7.043   7.406
 2527POPC   NC335843  41.313  12.743   9.552
 2527POPC   PO435844  41.816  13.067   9.201
 2527POPC   GL135845  41.538  12.769   9.097
 2527POPC   GL235846  41.792  12.510   9.051
 2527POPC   C1A35847  41.261  12.862   8.758
 2527POPC   D2A35848  41.404  12.924   8.337
 2527POPC   C3A35849  41.220  12.949   7.938
 2527POPC   C4A35850  41.588  13.055   7.686
 2527POPC   C1B35851  41.719  12.631   8.650
 2527POPC   C2B35852  41.708  12.506   8.269
 2527POPC   C3B35853  41.664  12.593   7.867
 2527POPC   C4B35854  41.798  12.436   7.456
 2528POPC   NC335855  15.172  24.924   9.675
 2528POPC   PO435856  15.078  25.549   9.540
 2528POPC   GL135857  15.237  25.258   9.266
 2528POPC   GL235858  14.945  25.177   9.117
 2528POPC   C1A35859  15.385  25.275   8.827
 2528POPC   D2A35860  15.179  25.295   8.416
 2528POPC   C3A35861  14.936  25.646   8.242
 2528POPC   C4A35862  15.112  25.691   7.835
 2528POPC   C1B35863  14.896  24.962   8.705
 2528POPC   C2B35864  14.858  24.928   8.245
 2528POPC   C3B35865  15.122  25.074   7.899
 2528POPC   C4B35866  15.552  24.937   7.760
 2529POPC   NC335867  44.392  31.466   9.572
 2529POPC   PO435868  44.965  31.790   9.342
 2529POPC   GL135869  44.788  31.538   9.072
 2529POPC   GL235870  44.445  31.481   9.052
 2529POPC   C1A35871  44.683  31.702   8.657
 2529POPC   D2A35872  44.466  31.770   8.292
 2529POPC   C3A35873  44.781  31.657   8.009
 2529POPC   C4A35874  44.861  31.627   7.585
 2529POPC   C1B35875  44.607  31.210   8.700
 2529POPC   C2B35876  44.585  31.235   8.233
 2529POPC   C3B35877  44.583  31.221   7.773
 2529POPC   C4B35878  44.336  31.289   7.416
 2530POPC   NC335879  17.618  17.455   9.350
 2530POPC   PO435880  16.874  17.324   9.443
 2530POPC   GL135881  17.157  17.450   9.086
 2530POPC   GL235882  17.378  17.135   9.005
 2530POPC   C1A35883  17.411  17.537   8.702
 2530POPC   D2A35884  17.411  17.254   8.330
 2530POPC   C3A35885  17.364  17.461   7.919
 2530POPC   C4A35886  17.736  17.642   7.722
 2530POPC   C1B35887  17.791  17.168   8.734
 2530POPC   C2B35888  17.946  17.263   8.314
 2530POPC   C3B35889  17.774  17.160   7.932
 2530POPC   C4B35890  17.783  17.166   7.472
 2531POPC   NC335891   1.853  11.488   9.502
 2531POPC   PO435892   2.216  10.934   9.661
 2531POPC   GL135893   2.058  11.064   9.299
 2531POPC   GL235894   1.735  10.969   9.286
 2531POPC   C1A35895   2.035  11.231   8.894
 2531POPC   D2A35896   1.954  11.143   8.475
 2531POPC   C3A35897   1.979  11.367   8.096
 2531POPC   C4A35898   1.793  11.336   7.691
 2531POPC   C1B35899   1.648  10.902   8.853
 2531POPC   C2B35900   1.751  10.693   8.468
 2531POPC   C3B35901   1.785  10.882   8.066
 2531POPC   C4B35902   1.578  10.872   7.670
 2532POPC   NC335903   2.177  37.257   9.632
 2532POPC   PO435904   2.269  37.956   9.568
 2532POPC   GL135905   2.058  37.830   9.202
 2532POPC   GL235906   2.036  37.464   9.177
 2532POPC   C1A35907   1.996  37.806   8.745
 2532POPC   D2A35908   2.241  37.959   8.379
 2532POPC   C3A35909   2.127  37.837   7.961
 2532POPC   C4A35910   2.375  37.544   7.726
 2532POPC   C1B35911   2.130  37.298   8.762
 2532POPC   C2B35912   2.094  37.458   8.321
 2532POPC   C3B35913   1.904  37.335   7.918
 2532POPC   C4B35914   1.547  37.296   7.609
 2533POPC   NC335915  44.431   6.926   9.580
 2533POPC   PO435916   0.090   6.651   9.705
 2533POPC   GL135917  44.991   6.691   9.272
 2533POPC   GL235918  44.662   6.712   9.194
 2533POPC   C1A35919   0.032   6.711   8.848
 2533POPC   D2A35920  44.886   6.521   8.484
 2533POPC   C3A35921   0.028   6.632   8.105
 2533POPC   C4A35922  44.847   6.555   7.721
 2533POPC   C1B35923  44.530   6.519   8.846
 2533POPC   C2B35924  44.399   6.681   8.459
 2533POPC   C3B35925  44.517   6.506   8.102
 2533POPC   C4B35926  44.301   6.542   7.714
 2534POPC   NC335927   5.171   4.785   9.376
 2534POPC   PO435928   4.752   5.428   9.400
 2534POPC   GL135929   4.890   5.139   9.110
 2534POPC   GL235930   5.233   5.202   9.118
 2534POPC   C1A35931   5.066   4.960   8.717
 2534POPC   D2A35932   5.166   5.085   8.310
 2534POPC   C3A35933   4.916   4.924   8.034
 2534POPC   C4A35934   4.693   4.938   7.657
 2534POPC   C1B35935   5.440   5.429   8.869
 2534POPC   C2B35936   5.500   5.440   8.420
 2534POPC   C3B35937   5.380   5.413   7.984
 2534POPC   C4B35938   5.299   5.078   7.729
 2535POPC   NC335939   4.470  40.128   9.551
 2535POPC   PO435940   3.885  39.679   9.335
 2535POPC   GL135941   4.196  39.976   9.092
 2535POPC   GL235942   4.498  40.174   9.063
 2535POPC   C1A35943   4.488  39.830   8.712
 2535POPC   D2A35944   4.490  39.584   8.347
 2535POPC   C3A35945   4.149  39.673   8.071
 2535POPC   C4A35946   4.205  39.898   7.711
 2535POPC   C1B35947   4.596  40.314   8.644
 2535POPC   C2B35948   4.847  40.051   8.385
 2535POPC   C3B35949   4.694  39.948   8.011
 2535POPC   C4B35950   4.503  40.291   7.754
 2536POPC   NC335951   1.695  34.351   9.392
 2536POPC   PO435952   1.155  34.765   9.630
 2536POPC   GL135953   1.071  34.849   9.184
 2536POPC   GL235954   1.402  34.934   9.190
 2536POPC   C1A35955   0.931  34.753   8.765
 2536POPC   D2A35956   1.146  34.476   8.419
 2536POPC   C3A35957   1.030  34.568   7.989
 2536POPC   C4A35958   0.990  34.304   7.625
 2536POPC   C1B35959   1.437  34.751   8.741
 2536POPC   C2B35960   1.502  34.877   8.324
 2536POPC   C3B35961   1.404  34.957   7.906
 2536POPC   C4B35962   1.559  34.791   7.551
 2537POPC   NC335963  29.376   8.720   9.830
 2537POPC   PO435964  29.891   8.943   9.426
 2537POPC   GL135965  29.866   8.944   9.017
 2537POPC   GL235966  30.248   8.961   9.028
 2537POPC   C1A35967  29.571   8.828   8.662
 2537POPC   D2A35968  29.414   8.658   8.258
 2537POPC   C3A35969  29.662   8.885   7.932
 2537POPC   C4A35970  29.748   9.321   7.764
 2537POPC   C1B35971  30.197   9.009   8.596
 2537POPC   C2B35972  30.117   8.867   8.200
 2537POPC   C3B35973  30.202   9.073   7.839
 2537POPC   C4B35974  30.020   9.047   7.428
 2538POPC   NC335975   8.552   4.401   9.577
 2538POPC   PO435976   7.948   4.523   9.225
 2538POPC   GL135977   8.293   4.449   8.985
 2538POPC   GL235978   8.395   4.192   9.131
 2538POPC   C1A35979   8.292   4.319   8.572
 2538POPC   D2A35980   7.944   4.444   8.302
 2538POPC   C3A35981   8.098   4.579   7.918
 2538POPC   C4A35982   8.282   4.315   7.579
 2538POPC   C1B35983   8.544   3.915   8.828
 2538POPC   C2B35984   8.523   3.840   8.391
 2538POPC   C3B35985   8.314   4.110   8.098
 2538POPC   C4B35986   7.939   4.104   7.877
 2539POPC   NC335987   8.534  30.380   9.459
 2539POPC   PO435988   8.233  30.949   9.445
 2539POPC   GL135989   8.158  30.726   9.074
 2539POPC   GL235990   7.913  30.892   8.985
 2539POPC   C1A35991   8.279  30.531   8.682
 2539POPC   D2A35992   8.461  30.375   8.282
 2539POPC   C3A35993   8.317  30.395   7.859
 2539POPC   C4A35994   8.469  30.755   7.657
 2539POPC   C1B35995   7.745  30.636   8.730
 2539POPC   C2B35996   7.882  30.528   8.372
 2539POPC   C3B35997   8.029  30.755   8.054
 2539POPC   C4B35998   7.960  30.719   7.643
 2540POPC   NC335999  23.472  22.672   9.453
 2540POPC   PO436000  23.334  23.242   9.627
 2540POPC   GL136001  23.519  23.116   9.215
 2540POPC   GL236002  23.846  23.042   9.283
 2540POPC   C1A36003  23.525  22.852   8.809
 2540POPC   D2A36004  23.410  22.648   8.399
 2540POPC   C3A36005  23.544  22.889   8.030
 2540POPC   C4A36006  23.869  22.923   7.713
 2540POPC   C1B36007  23.883  23.229   8.857
 2540POPC   C2B36008  23.841  23.072   8.430
 2540POPC   C3B36009  23.864  23.290   8.026
 2540POPC   C4B36010  24.083  23.347   7.560
 2541POPC   NC336011  23.287  29.057   9.393
 2541POPC   PO436012  23.946  28.856   9.444
 2541POPC   GL136013  23.753  29.155   9.186
 2541POPC   GL236014  23.946  29.423   9.110
 2541POPC   C1A36015  23.536  29.267   8.774
 2541POPC   D2A36016  23.496  29.016   8.387
 2541POPC   C3A36017  23.446  29.179   7.984
 2541POPC   C4A36018  23.644  29.060   7.592
 2541POPC   C1B36019  23.935  29.596   8.692
 2541POPC   C2B36020  23.831  29.458   8.254
 2541POPC   C3B36021  23.778  29.499   7.791
 2541POPC   C4B36022  23.755  29.453   7.299
 2542POPC   NC336023   5.218   5.507   9.510
 2542POPC   PO436024   5.198   6.138   9.487
 2542POPC   GL136025   5.202   5.938   9.082
 2542POPC   GL236026   5.011   5.664   9.030
 2542POPC   C1A36027   5.310   5.867   8.651
 2542POPC   D2A36028   5.307   5.859   8.191
 2542POPC   C3A36029   5.136   6.171   7.951
 2542POPC   C4A36030   4.854   6.171   7.636
 2542POPC   C1B36031   4.968   5.456   8.658
 2542POPC   C2B36032   4.770   5.407   8.275
 2542POPC   C3B36033   4.892   5.392   7.851
 2542POPC   C4B36034   5.094   5.704   7.682
 2543POPC   NC336035  26.882  35.666   9.409
 2543POPC   PO436036  26.432  35.118   9.524
 2543POPC   GL136037  26.670  35.238   9.157
 2543POPC   GL236038  26.463  35.547   9.115
 2543POPC   C1A36039  26.877  35.459   8.787
 2543POPC   D2A36040  26.755  35.639   8.382
 2543POPC   C3A36041  27.039  35.474   8.048
 2543POPC   C4A36042  27.275  35.150   7.862
 2543POPC   C1B36043  26.393  35.377   8.702
 2543POPC   C2B36044  26.508  35.197   8.314
 2543POPC   C3B36045  26.545  35.443   7.913
 2543POPC   C4B36046  26.437  35.489   7.449
 2544POPC   NC336047   6.785  26.076   9.505
 2544POPC   PO436048   6.247  25.749   9.505
 2544POPC   GL136049   6.439  25.949   9.111
 2544POPC   GL236050   6.781  26.148   9.009
 2544POPC   C1A36051   6.557  25.834   8.672
 2544POPC   D2A36052   6.653  26.174   8.357
 2544POPC   C3A36053   7.016  26.119   8.096
 2544POPC   C4A36054   6.885  25.766   7.844
 2544POPC   C1B36055   6.401  26.347   8.805
 2544POPC   C2B36056   6.275  26.499   8.396
 2544POPC   C3B36057   6.291  26.417   7.953
 2544POPC   C4B36058   6.610  26.198   7.803
 2545POPC   NC336059   4.101  39.208   9.417
 2545POPC   PO436060   4.504  39.699   9.405
 2545POPC   GL136061   4.321  39.495   9.057
 2545POPC   GL236062   4.284  39.142   8.959
 2545POPC   C1A36063   4.068  39.536   8.705
 2545POPC   D2A36064   4.045  39.270   8.379
 2545POPC   C3A36065   4.361  39.204   8.018
 2545POPC   C4A36066   4.537  39.525   7.774
 2545POPC   C1B36067   4.586  38.876   8.773
 2545POPC   C2B36068   4.443  38.815   8.357
 2545POPC   C3B36069   4.009  38.848   8.133
 2545POPC   C4B36070   4.061  38.820   7.686
 2546POPC   NC336071  42.542  16.631   9.295
 2546POPC   PO436072  41.926  16.844   9.418
 2546POPC   GL136073  42.060  16.535   9.155
 2546POPC   GL236074  42.145  16.211   9.290
 2546POPC   C1A36075  42.225  16.603   8.757
 2546POPC   D2A36076  42.222  16.784   8.378
 2546POPC   C3A36077  42.486  16.577   8.093
 2546POPC   C4A36078  42.605  16.714   7.697
 2546POPC   C1B36079  41.959  16.161   8.848
 2546POPC   C2B36080  42.141  16.241   8.429
 2546POPC   C3B36081  41.965  16.427   8.090
 2546POPC   C4B36082  42.130  16.479   7.698
 2547POPC   NC336083  24.364  26.494   9.564
 2547POPC   PO436084  24.432  27.122   9.341
 2547POPC   GL136085  24.518  26.929   9.030
 2547POPC   GL236086  24.336  26.600   9.071
 2547POPC   C1A36087  24.753  27.043   8.664
 2547POPC   D2A36088  24.728  27.013   8.193
 2547POPC   C3A36089  24.333  27.070   7.968
 2547POPC   C4A36090  24.233  27.014   7.534
 2547POPC   C1B36091  24.553  26.565   8.696
 2547POPC   C2B36092  24.475  26.357   8.344
 2547POPC   C3B36093  24.495  26.563   7.985
 2547POPC   C4B36094  24.551  26.634   7.588
 2548POPC   NC336095  16.417  39.367   9.586
 2548POPC   PO436096  15.994  38.688   9.563
 2548POPC   GL136097  16.019  38.940   9.175
 2548POPC   GL236098  16.102  39.298   9.205
 2548POPC   C1A36099  15.880  39.040   8.760
 2548POPC   D2A36100  15.698  38.989   8.359
 2548POPC   C3A36101  15.917  39.190   8.024
 2548POPC   C4A36102  15.765  39.054   7.669
 2548POPC   C1B36103  16.294  39.312   8.815
 2548POPC   C2B36104  16.126  39.405   8.434
 2548POPC   C3B36105  16.310  39.598   8.070
 2548POPC   C4B36106  16.313  39.510   7.642
 2549POPC   NC336107  27.499  38.015   9.580
 2549POPC   PO436108  27.866  37.407   9.691
 2549POPC   GL136109  27.569  37.539   9.340
 2549POPC   GL236110  27.708  37.849   9.153
 2549POPC   C1A36111  27.471  37.501   8.889
 2549POPC   D2A36112  27.594  37.731   8.538
 2549POPC   C3A36113  27.395  37.707   8.152
 2549POPC   C4A36114  27.657  37.662   7.788
 2549POPC   C1B36115  27.384  38.064   8.881
 2549POPC   C2B36116  27.266  38.134   8.411
 2549POPC   C3B36117  27.261  38.154   7.922
 2549POPC   C4B36118  27.406  38.069   7.479
 2550POPC   NC336119  10.605  44.673   9.532
 2550POPC   PO436120  10.043   0.153   9.402
 2550POPC   GL136121  10.389  44.951   9.159
 2550POPC   GL236122  10.745   0.046   9.205
 2550POPC   C1A36123  10.509  44.592   8.859
 2550POPC   D2A36124  10.326  44.432   8.457
 2550POPC   C3A36125  10.463  44.550   8.066
 2550POPC   C4A36126  10.575  44.558   7.634
 2550POPC   C1B36127  10.923  44.877   8.804
 2550POPC   C2B36128  10.822  44.808   8.362
 2550POPC   C3B36129  10.892  44.872   7.906
 2550POPC   C4B36130  11.255  44.875   7.612
 2551POPC   NC336131   9.742   0.967   9.678
 2551POPC   PO436132   9.637   1.531   9.522
 2551POPC   GL136133   9.656   1.231   9.209
 2551POPC   GL236134   9.627   1.524   9.005
 2551POPC   C1A36135   9.650   1.083   8.758
 2551POPC   D2A36136   9.735   1.261   8.338
 2551POPC   C3A36137   9.756   0.933   8.011
 2551POPC   C4A36138  10.019   0.884   7.648
 2551POPC   C1B36139  10.014   1.474   8.759
 2551POPC   C2B36140  10.133   1.620   8.343
 2551POPC   C3B36141  10.134   1.318   8.002
 2551POPC   C4B36142   9.799   1.350   7.699
 2552POPC   NC336143   9.296   8.004   9.731
 2552POPC   PO436144   9.077   8.630   9.548
 2552POPC   GL136145   8.892   8.226   9.348
 2552POPC   GL236146   9.157   8.096   9.207
 2552POPC   C1A36147   8.772   8.049   8.902
 2552POPC   D2A36148   8.687   8.015   8.483
 2552POPC   C3A36149   8.964   8.176   8.195
 2552POPC   C4A36150   8.739   8.230   7.811
 2552POPC   C1B36151   9.235   8.207   8.744
 2552POPC   C2B36152   9.373   8.476   8.379
 2552POPC   C3B36153   9.371   8.355   7.932
 2552POPC   C4B36154   9.188   7.993   7.727
 2553POPC   NC336155  13.405  24.103   9.220
 2553POPC   PO436156  13.905  23.712   9.545
 2553POPC   GL136157  13.709  23.707   9.138
 2553POPC   GL236158  13.910  24.029   9.090
 2553POPC   C1A36159  13.467  23.694   8.731
 2553POPC   D2A36160  13.540  23.974   8.363
 2553POPC   C3A36161  13.345  23.796   8.015
 2553POPC   C4A36162  13.487  23.501   7.726
 2553POPC   C1B36163  13.967  23.823   8.695
 2553POPC   C2B36164  14.135  23.734   8.285
 2553POPC   C3B36165  13.864  23.835   7.954
 2553POPC   C4B36166  14.037  24.110   7.689
 2554POPC   NC336167  29.034   6.571   9.670
 2554POPC   PO436168  29.357   7.051   9.494
 2554POPC   GL136169  29.319   6.716   9.211
 2554POPC   GL236170  28.970   6.605   9.170
 2554POPC   C1A36171  29.356   6.753   8.771
 2554POPC   D2A36172  29.289   6.532   8.376
 2554POPC   C3A36173  29.269   6.696   7.952
 2554POPC   C4A36174  29.144   6.471   7.567
 2554POPC   C1B36175  28.902   6.943   8.903
 2554POPC   C2B36176  28.977   6.978   8.455
 2554POPC   C3B36177  28.793   6.858   8.042
 2554POPC   C4B36178  28.908   6.925   7.618
 2555POPC   NC336179  39.175  41.717   9.494
 2555POPC   PO436180  39.255  41.130   9.801
 2555POPC   GL136181  39.341  41.288   9.285
 2555POPC   GL236182  39.553  41.592   9.172
 2555POPC   C1A36183  39.204  41.364   8.844
 2555POPC   D2A36184  39.382  41.259   8.437
 2555POPC   C3A36185  39.204  41.374   8.035
 2555POPC   C4A36186  38.869  41.572   7.775
 2555POPC   C1B36187  39.664  41.623   8.726
 2555POPC   C2B36188  39.432  41.778   8.363
 2555POPC   C3B36189  39.218  41.906   7.994
 2555POPC   C4B36190  39.353  41.655   7.617
 2556POPC   NC336191   4.996  31.234   9.459
 2556POPC   PO436192   5.353  31.819   9.468
 2556POPC   GL136193   5.172  31.599   9.131
 2556POPC   GL236194   4.857  31.677   9.203
 2556POPC   C1A36195   5.097  31.359   8.742
 2556POPC   D2A36196   4.922  31.377   8.303
 2556POPC   C3A36197   5.204  31.197   7.974
 2556POPC   C4A36198   5.097  31.036   7.580
 2556POPC   C1B36199   4.687  31.625   8.824
 2556POPC   C2B36200   4.592  31.808   8.437
 2556POPC   C3B36201   4.668  31.721   8.004
 2556POPC   C4B36202   5.036  31.615   7.779
 2557POPC   NC336203   1.026  35.205   9.532
 2557POPC   PO436204   1.458  35.716   9.571
 2557POPC   GL136205   1.375  35.455   9.201
 2557POPC   GL236206   1.046  35.534   9.126
 2557POPC   C1A36207   1.223  35.198   8.812
 2557POPC   D2A36208   1.212  35.306   8.388
 2557POPC   C3A36209   0.945  35.087   8.124
 2557POPC   C4A36210   1.009  35.240   7.727
 2557POPC   C1B36211   1.184  35.693   8.741
 2557POPC   C2B36212   1.045  35.811   8.335
 2557POPC   C3B36213   1.123  35.680   7.950
 2557POPC   C4B36214   1.473  35.607   7.691
 2558POPC   NC336215  25.834  20.937   9.418
 2558POPC   PO436216  26.053  20.411   9.763
 2558POPC   GL136217  25.889  20.431   9.268
 2558POPC   GL236218  25.824  20.737   8.968
 2558POPC   C1A36219  25.904  20.267   8.831
 2558POPC   D2A36220  26.009  20.490   8.445
 2558POPC   C3A36221  25.852  20.262   8.112
 2558POPC   C4A36222  25.964  20.267   7.721
 2558POPC   C1B36223  26.122  20.946   8.668
 2558POPC   C2B36224  26.091  21.030   8.239
 2558POPC   C3B36225  26.074  20.713   7.947
 2558POPC   C4B36226  26.193  20.709   7.535
 2559POPC   NC336227   3.672  12.733   9.362
 2559POPC   PO436228   3.183  13.193   9.528
 2559POPC   GL136229   3.288  13.042   9.133
 2559POPC   GL236230   3.199  12.736   9.127
 2559POPC   C1A36231   3.437  13.046   8.677
 2559POPC   D2A36232   3.750  12.955   8.336
 2559POPC   C3A36233   3.753  13.059   7.910
 2559POPC   C4A36234   3.576  12.729   7.604
 2559POPC   C1B36235   3.274  12.503   8.795
 2559POPC   C2B36236   3.426  12.555   8.405
 2559POPC   C3B36237   3.341  12.783   8.039
 2559POPC   C4B36238   3.067  12.684   7.684
 2560POPC   NC336239  16.882  26.694   9.839
 2560POPC   PO436240  16.383  26.843   9.411
 2560POPC   GL136241  16.673  26.918   9.043
 2560POPC   GL236242  17.009  26.716   8.994
 2560POPC   C1A36243  16.928  27.197   8.791
 2560POPC   D2A36244  17.061  27.227   8.361
 2560POPC   C3A36245  16.883  26.892   8.112
 2560POPC   C4A36246  16.487  26.868   7.869
 2560POPC   C1B36247  17.195  26.421   8.710
 2560POPC   C2B36248  17.147  26.277   8.298
 2560POPC   C3B36249  17.237  26.473   7.938
 2560POPC   C4B36250  16.943  26.607   7.681
 2561POPC   NC336251  35.363  12.108   9.602
 2561POPC   PO436252  35.591  11.469   9.696
 2561POPC   GL136253  35.390  11.736   9.283
 2561POPC   GL236254  35.623  12.035   9.169
 2561POPC   C1A36255  35.352  11.790   8.812
 2561POPC   D2A36256  35.601  11.972   8.502
 2561POPC   C3A36257  35.557  12.076   8.077
 2561POPC   C4A36258  35.647  12.253   7.672
 2561POPC   C1B36259  35.463  12.340   8.830
 2561POPC   C2B36260  35.462  12.517   8.387
 2561POPC   C3B36261  35.253  12.471   7.954
 2561POPC   C4B36262  35.163  12.277   7.513
 2562POPC   NC336263  43.796   7.479   9.671
 2562POPC   PO436264  43.989   6.849   9.704
 2562POPC   GL136265  44.041   7.118   9.297
 2562POPC   GL236266  44.115   7.468   9.253
 2562POPC   C1A36267  43.860   7.237   8.864
 2562POPC   D2A36268  43.951   7.417   8.423
 2562POPC   C3A36269  43.814   7.191   8.028
 2562POPC   C4A36270  43.491   7.255   7.716
 2562POPC   C1B36271  44.323   7.452   8.829
 2562POPC   C2B36272  44.457   7.434   8.384
 2562POPC   C3B36273  44.248   7.483   7.962
 2562POPC   C4B36274  44.105   7.527   7.497
 2563POPC   NC336275  29.741  10.303   9.830
 2563POPC   PO436276  29.092  10.359   9.707
 2563POPC   GL136277  28.990  10.225   9.270
 2563POPC   GL236278  29.016  10.577   9.128
 2563POPC   C1A36279  28.958  10.200   8.804
 2563POPC   D2A36280  29.163  10.500   8.556
 2563POPC   C3A36281  29.127  10.465   8.119
 2563POPC   C4A36282  28.940  10.239   7.812
 2563POPC   C1B36283  29.027  10.928   8.811
 2563POPC   C2B36284  28.890  10.903   8.366
 2563POPC   C3B36285  28.999  10.920   7.920
 2563POPC   C4B36286  28.866  10.720   7.541
 2564POPC   NC336287  30.493  40.597   9.494
 2564POPC   PO436288  30.628  41.234   9.503
 2564POPC   GL136289  30.521  41.001   9.136
 2564POPC   GL236290  30.753  40.723   9.085
 2564POPC   C1A36291  30.591  41.033   8.698
 2564POPC   D2A36292  30.363  40.871   8.376
 2564POPC   C3A36293  30.544  40.925   7.973
 2564POPC   C4A36294  30.956  41.085   7.852
 2564POPC   C1B36295  30.907  40.598   8.693
 2564POPC   C2B36296  30.938  40.816   8.299
 2564POPC   C3B36297  30.959  40.567   7.903
 2564POPC   C4B36298  30.835  40.326   7.510
 2565POPC   NC336299   6.886   4.640   9.509
 2565POPC   PO436300   6.533   4.063   9.468
 2565POPC   GL136301   6.734   4.266   9.146
 2565POPC   GL236302   6.608   4.574   9.087
 2565POPC   C1A36303   6.852   4.110   8.738
 2565POPC   D2A36304   6.943   4.279   8.344
 2565POPC   C3A36305   6.693   4.196   7.996
 2565POPC   C4A36306   6.741   4.354   7.626
 2565POPC   C1B36307   6.970   4.627   8.814
 2565POPC   C2B36308   6.883   4.801   8.414
 2565POPC   C3B36309   6.605   4.681   8.109
 2565POPC   C4B36310   6.531   4.806   7.716
 2566POPC   NC336311  16.189  23.719   9.568
 2566POPC   PO436312  15.643  23.870   9.259
 2566POPC   GL136313  15.977  23.692   9.091
 2566POPC   GL236314  16.177  23.964   9.125
 2566POPC   C1A36315  15.951  23.558   8.679
 2566POPC   D2A36316  15.831  23.341   8.315
 2566POPC   C3A36317  16.016  23.568   7.996
 2566POPC   C4A36318  16.282  23.432   7.676
 2566POPC   C1B36319  16.026  24.072   8.734
 2566POPC   C2B36320  16.177  23.929   8.353
 2566POPC   C3B36321  16.091  24.073   7.932
 2566POPC   C4B36322  16.104  23.862   7.514
 2567POPC   NC336323  40.466  30.438   9.388
 2567POPC   PO436324  39.891  30.798   9.463
 2567POPC   GL136325  39.816  30.819   9.058
 2567POPC   GL236326  40.150  30.674   9.030
 2567POPC   C1A36327  39.845  30.777   8.612
 2567POPC   D2A36328  39.731  30.443   8.329
 2567POPC   C3A36329  39.822  30.538   7.911
 2567POPC   C4A36330  39.991  30.887   7.708
 2567POPC   C1B36331  40.323  30.634   8.614
 2567POPC   C2B36332  40.226  30.660   8.208
 2567POPC   C3B36333  40.315  30.367   7.911
 2567POPC   C4B36334  40.222  30.467   7.515
 2568POPC   NC336335  43.114  16.347   9.430
 2568POPC   PO436336  42.910  16.871   9.218
 2568POPC   GL136337  42.910  16.482   8.957
 2568POPC   GL236338  43.287  16.477   8.975
 2568POPC   C1A36339  42.655  16.312   8.576
 2568POPC   D2A36340  42.839  16.175   8.131
 2568POPC   C3A36341  43.043  16.471   7.838
 2568POPC   C4A36342  43.082  16.841   7.555
 2568POPC   C1B36343  43.405  16.682   8.595
 2568POPC   C2B36344  43.441  16.548   8.174
 2568POPC   C3B36345  43.524  16.691   7.765
 2568POPC   C4B36346  43.557  16.816   7.316
 2569POPC   NC336347  14.256  36.005   9.318
 2569POPC   PO436348  14.869  36.223   9.484
 2569POPC   GL136349  14.601  36.342   9.126
 2569POPC   GL236350  14.283  36.522   9.237
 2569POPC   C1A36351  14.522  36.165   8.707
 2569POPC   D2A36352  14.684  36.288   8.349
 2569POPC   C3A36353  14.600  36.028   8.056
 2569POPC   C4A36354  14.314  36.007   7.773
 2569POPC   C1B36355  14.147  36.459   8.812
 2569POPC   C2B36356  14.306  36.612   8.411
 2569POPC   C3B36357  14.396  36.510   7.966
 2569POPC   C4B36358  14.219  36.583   7.581
 2570POPC   NC336359  24.892  27.149   9.387
 2570POPC   PO436360  25.437  27.037   9.559
 2570POPC   GL136361  25.451  26.937   9.128
 2570POPC   GL236362  25.441  26.576   9.141
 2570POPC   C1A36363  25.369  26.899   8.691
 2570POPC   D2A36364  25.541  26.753   8.327
 2570POPC   C3A36365  25.431  26.970   8.023
 2570POPC   C4A36366  25.452  27.037   7.647
 2570POPC   C1B36367  25.008  26.656   8.937
 2570POPC   C2B36368  24.996  26.649   8.455
 2570POPC   C3B36369  25.170  26.534   8.063
 2570POPC   C4B36370  24.985  26.801   7.797
 2571POPC   NC336371   6.335  43.916   9.595
 2571POPC   PO436372   5.700  43.873   9.870
 2571POPC   GL136373   5.817  43.794   9.388
 2571POPC   GL236374   6.038  44.050   9.194
 2571POPC   C1A36375   5.833  43.694   8.901
 2571POPC   D2A36376   6.070  43.724   8.499
 2571POPC   C3A36377   5.914  43.800   8.074
 2571POPC   C4A36378   5.707  43.935   7.703
 2571POPC   C1B36379   6.029  44.178   8.738
 2571POPC   C2B36380   6.206  44.181   8.291
 2571POPC   C3B36381   6.185  44.152   7.810
 2571POPC   C4B36382   5.961  44.277   7.426
 2572POPC   NC336383   8.143  38.859   9.454
 2572POPC   PO436384   7.939  39.493   9.559
 2572POPC   GL136385   8.233  39.296   9.213
 2572POPC   GL236386   8.632  39.260   9.235
 2572POPC   C1A36387   8.227  39.029   8.795
 2572POPC   D2A36388   8.006  38.744   8.469
 2572POPC   C3A36389   8.074  38.898   8.044
 2572POPC   C4A36390   7.938  39.211   7.765
 2572POPC   C1B36391   8.511  39.464   8.837
 2572POPC   C2B36392   8.192  39.465   8.499
 2572POPC   C3B36393   8.307  39.403   8.049
 2572POPC   C4B36394   8.508  39.069   7.771
 2573POPC   NC336395  35.812  44.727   9.435
 2573POPC   PO436396  36.459  44.529   9.519
 2573POPC   GL136397  36.298  44.683   9.166
 2573POPC   GL236398  36.096  44.366   9.184
 2573POPC   C1A36399  36.077  44.910   8.845
 2573POPC   D2A36400  36.060  44.741   8.450
 2573POPC   C3A36401  35.819  44.881   8.099
 2573POPC   C4A36402  36.145  44.976   7.792
 2573POPC   C1B36403  36.028  44.304   8.758
 2573POPC   C2B36404  36.047  44.215   8.332
 2573POPC   C3B36405  36.188  44.516   8.009
 2573POPC   C4B36406  36.352  44.468   7.594
 2574POPC   NC336407  19.447  23.489   9.429
 2574POPC   PO436408  19.946  23.870   9.215
 2574POPC   GL136409  19.735  23.604   9.028
 2574POPC   GL236410  19.430  23.861   9.064
 2574POPC   C1A36411  19.900  23.594   8.620
 2574POPC   D2A36412  19.912  23.977   8.403
 2574POPC   C3A36413  19.984  23.859   8.003
 2574POPC   C4A36414  20.024  23.444   7.842
 2574POPC   C1B36415  19.387  23.639   8.674
 2574POPC   C2B36416  19.520  23.666   8.253
 2574POPC   C3B36417  19.387  23.806   7.869
 2574POPC   C4B36418  19.653  24.043   7.626
 2575POPC   NC336419  36.310  44.098   9.639
 2575POPC   PO436420  35.734  43.910   9.479
 2575POPC   GL136421  35.993  43.858   9.131
 2575POPC   GL236422  36.338  43.759   9.249
 2575POPC   C1A36423  36.100  43.678   8.727
 2575POPC   D2A36424  35.944  43.445   8.357
 2575POPC   C3A36425  35.848  43.736   8.016
 2575POPC   C4A36426  35.984  44.120   7.802
 2575POPC   C1B36427  36.442  44.027   8.917
 2575POPC   C2B36428  36.473  43.946   8.470
 2575POPC   C3B36429  36.430  44.021   8.019
 2575POPC   C4B36430  36.384  43.957   7.556
 2576POPC   NC336431  25.722  38.633   9.622
 2576POPC   PO436432  26.176  38.303   9.544
 2576POPC   GL136433  26.031  38.365   9.159
 2576POPC   GL236434  26.264  38.073   9.099
 2576POPC   C1A36435  25.894  38.572   8.755
 2576POPC   D2A36436  25.653  38.477   8.372
 2576POPC   C3A36437  25.799  38.592   7.957
 2576POPC   C4A36438  25.794  38.268   7.639
 2576POPC   C1B36439  25.989  38.058   8.762
 2576POPC   C2B36440  26.067  38.210   8.395
 2576POPC   C3B36441  26.125  38.144   7.995
 2576POPC   C4B36442  26.356  38.147   7.629
 2577POPC   NC336443  16.461   0.607   9.757
 2577POPC   PO436444  15.917   0.357   9.362
 2577POPC   GL136445  15.758   0.381   8.979
 2577POPC   GL236446  15.921   0.697   8.958
 2577POPC   C1A36447  15.713   0.298   8.541
 2577POPC   D2A36448  15.992   0.275   8.203
 2577POPC   C3A36449  15.813   0.610   7.890
 2577POPC   C4A36450  15.973   0.755   7.466
 2577POPC   C1B36451  16.181   0.572   8.613
 2577POPC   C2B36452  16.194   0.747   8.191
 2577POPC   C3B36453  16.319   0.536   7.830
 2577POPC   C4B36454  16.464   0.590   7.423
 2578POPC   NC336455  39.250  43.245   9.599
 2578POPC   PO436456  39.490  42.808   9.125
 2578POPC   GL136457  39.419  43.238   9.076
 2578POPC   GL236458  39.064  43.283   9.136
 2578POPC   C1A36459  39.459  43.270   8.630
 2578POPC   D2A36460  39.311  42.890   8.400
 2578POPC   C3A36461  39.079  42.955   8.011
 2578POPC   C4A36462  39.244  43.350   7.806
 2578POPC   C1B36463  38.940  43.148   8.743
 2578POPC   C2B36464  39.010  43.344   8.364
 2578POPC   C3B36465  38.769  43.373   8.044
 2578POPC   C4B36466  38.772  43.233   7.667
 2579POPC   NC336467  27.813  44.985   9.553
 2579POPC   PO436468  27.393  44.508   9.584
 2579POPC   GL136469  27.734  44.585   9.240
 2579POPC   GL236470  27.594  44.902   9.099
 2579POPC   C1A36471  27.937  44.650   8.822
 2579POPC   D2A36472  27.944  44.785   8.392
 2579POPC   C3A36473  27.787  44.886   7.984
 2579POPC   C4A36474  27.597  44.567   7.790
 2579POPC   C1B36475  27.526  44.965   8.638
 2579POPC   C2B36476  27.327  44.829   8.231
 2579POPC   C3B36477  27.205  44.884   7.802
 2579POPC   C4B36478  27.528   0.027   7.524
 2580POPC   NC336479  37.985  15.998   9.452
 2580POPC   PO436480  38.608  15.744   9.547
 2580POPC   GL136481  38.422  15.828   9.136
 2580POPC   GL236482  38.191  15.583   9.136
 2580POPC   C1A36483  38.272  15.904   8.682
 2580POPC   D2A36484  38.311  16.222   8.439
 2580POPC   C3A36485  38.582  16.281   8.091
 2580POPC   C4A36486  38.437  16.289   7.701
 2580POPC   C1B36487  38.413  15.443   8.752
 2580POPC   C2B36488  38.461  15.559   8.333
 2580POPC   C3B36489  38.601  15.724   7.939
 2580POPC   C4B36490  38.570  15.688   7.488
 2581POPC   NC336491  23.641  35.016   9.438
 2581POPC   PO436492  23.630  35.630   9.411
 2581POPC   GL136493  23.592  35.381   9.067
 2581POPC   GL236494  23.336  35.105   9.059
 2581POPC   C1A36495  23.499  35.618   8.687
 2581POPC   D2A36496  23.815  35.613   8.371
 2581POPC   C3A36497  23.762  35.592   7.930
 2581POPC   C4A36498  23.960  35.710   7.559
 2581POPC   C1B36499  23.558  35.122   8.639
 2581POPC   C2B36500  23.535  35.216   8.199
 2581POPC   C3B36501  23.495  35.215   7.738
 2581POPC   C4B36502  23.798  35.190   7.382
 2582POPC   NC336503  35.943  37.211   9.718
 2582POPC   PO436504  36.049  37.900   9.732
 2582POPC   GL136505  36.193  37.881   9.210
 2582POPC   GL236506  36.508  37.664   9.106
 2582POPC   C1A36507  36.104  37.745   8.772
 2582POPC   D2A36508  36.209  37.505   8.396
 2582POPC   C3A36509  35.943  37.657   8.067
 2582POPC   C4A36510  35.988  37.772   7.658
 2582POPC   C1B36511  36.597  37.782   8.733
 2582POPC   C2B36512  36.466  37.976   8.380
 2582POPC   C3B36513  36.452  37.757   7.997
 2582POPC   C4B36514  36.549  37.691   7.548
 2583POPC   NC336515  19.023  42.780   9.525
 2583POPC   PO436516  19.317  43.398   9.510
 2583POPC   GL136517  19.274  43.104   9.206
 2583POPC   GL236518  18.936  43.117   9.142
 2583POPC   C1A36519  19.443  42.960   8.828
 2583POPC   D2A36520  19.429  43.078   8.397
 2583POPC   C3A36521  19.179  42.900   8.074
 2583POPC   C4A36522  19.154  43.031   7.632
 2583POPC   C1B36523  18.730  43.305   8.805
 2583POPC   C2B36524  18.899  43.195   8.410
 2583POPC   C3B36525  18.787  43.270   7.978
 2583POPC   C4B36526  18.784  43.419   7.553
 2584POPC   NC336527   2.435  15.161   9.321
 2584POPC   PO436528   3.053  15.542   9.349
 2584POPC   GL136529   2.837  15.282   9.037
 2584POPC   GL236530   2.516  15.345   8.830
 2584POPC   C1A36531   2.826  14.977   8.702
 2584POPC   D2A36532   2.889  14.972   8.275
 2584POPC   C3A36533   2.870  15.248   7.942
 2584POPC   C4A36534   3.064  15.091   7.629
 2584POPC   C1B36535   2.292  14.983   8.694
 2584POPC   C2B36536   2.410  14.762   8.350
 2584POPC   C3B36537   2.442  14.977   7.974
 2584POPC   C4B36538   2.550  15.064   7.548
 2585POPC   NC336539  11.931  44.154   9.770
 2585POPC   PO436540  12.243  43.713   9.475
 2585POPC   GL136541  12.077  43.778   9.103
 2585POPC   GL236542  11.986  44.129   9.068
 2585POPC   C1A36543  11.944  43.686   8.718
 2585POPC   D2A36544  11.833  43.920   8.389
 2585POPC   C3A36545  11.879  43.638   8.085
 2585POPC   C4A36546  11.719  43.693   7.720
 2585POPC   C1B36547  12.205  44.188   8.651
 2585POPC   C2B36548  12.196  44.235   8.173
 2585POPC   C3B36549  11.894  44.162   7.809
 2585POPC   C4B36550  11.653  44.071   7.373
 2586POPC   NC336551  30.348  44.118   9.479
 2586POPC   PO436552  30.970  43.848   9.329
 2586POPC   GL136553  30.669  43.762   9.028
 2586POPC   GL236554  30.326  43.845   9.031
 2586POPC   C1A36555  30.595  43.803   8.587
 2586POPC   D2A36556  30.540  43.726   8.146
 2586POPC   C3A36557  30.839  44.026   7.966
 2586POPC   C4A36558  30.938  44.128   7.545
 2586POPC   C1B36559  30.471  44.249   8.848
 2586POPC   C2B36560  30.382  44.445   8.457
 2586POPC   C3B36561  30.293  44.197   8.107
 2586POPC   C4B36562  30.385  43.982   7.726
 2587POPC   NC336563  35.071   4.688   9.594
 2587POPC   PO436564  35.471   4.222   9.539
 2587POPC   GL136565  35.333   4.155   9.136
 2587POPC   GL236566  35.022   4.243   9.290
 2587POPC   C1A36567  35.442   4.253   8.689
 2587POPC   D2A36568  35.396   4.465   8.265
 2587POPC   C3A36569  35.539   4.412   7.807
 2587POPC   C4A36570  35.625   4.454   7.350
 2587POPC   C1B36571  34.976   4.394   8.867
 2587POPC   C2B36572  34.907   4.356   8.408
 2587POPC   C3B36573  35.019   4.415   7.927
 2587POPC   C4B36574  35.087   4.439   7.458
 2588POPC   NC336575  33.045   5.434   9.553
 2588POPC   PO436576  32.822   6.017   9.820
 2588POPC   GL136577  32.872   5.945   9.377
 2588POPC   GL236578  33.167   6.101   9.260
 2588POPC   C1A36579  32.774   6.009   8.929
 2588POPC   D2A36580  32.933   6.086   8.501
 2588POPC   C3A36581  32.884   5.900   8.100
 2588POPC   C4A36582  32.862   5.943   7.656
 2588POPC   C1B36583  33.290   5.913   8.829
 2588POPC   C2B36584  33.411   5.922   8.360
 2588POPC   C3B36585  33.368   5.853   7.892
 2588POPC   C4B36586  33.348   6.035   7.456
 2589POPC   NC336587  42.307  27.188   9.292
 2589POPC   PO436588  42.209  27.690   9.637
 2589POPC   GL136589  42.087  27.627   9.207
 2589POPC   GL236590  41.840  27.354   9.123
 2589POPC   C1A36591  42.248  27.681   8.797
 2589POPC   D2A36592  42.071  27.778   8.393
 2589POPC   C3A36593  42.267  27.688   7.994
 2589POPC   C4A36594  42.358  27.808   7.562
 2589POPC   C1B36595  41.908  27.347   8.668
 2589POPC   C2B36596  41.796  27.357   8.251
 2589POPC   C3B36597  42.023  27.259   7.869
 2589POPC   C4B36598  42.007  27.477   7.505
 2590POPC   NC336599   7.729   8.243   9.544
 2590POPC   PO436600   7.222   8.528   9.217
 2590POPC   GL136601   7.366   8.145   8.980
 2590POPC   GL236602   7.670   7.960   9.121
 2590POPC   C1A36603   7.207   8.058   8.549
 2590POPC   D2A36604   7.152   8.330   8.187
 2590POPC   C3A36605   7.423   8.342   7.809
 2590POPC   C4A36606   7.165   8.044   7.643
 2590POPC   C1B36607   7.847   8.046   8.762
 2590POPC   C2B36608   7.678   7.866   8.415
 2590POPC   C3B36609   7.439   7.909   8.070
 2590POPC   C4B36610   7.623   7.847   7.678
 2591POPC   NC336611  36.046  40.234   9.501
 2591POPC   PO436612  35.968  40.950   9.619
 2591POPC   GL136613  36.059  40.789   9.223
 2591POPC   GL236614  35.719  40.630   9.169
 2591POPC   C1A36615  36.250  40.885   8.811
 2591POPC   D2A36616  36.089  41.008   8.405
 2591POPC   C3A36617  36.291  40.845   8.094
 2591POPC   C4A36618  36.242  41.043   7.732
 2591POPC   C1B36619  35.980  40.427   8.855
 2591POPC   C2B36620  36.167  40.466   8.455
 2591POPC   C3B36621  35.949  40.454   8.084
 2591POPC   C4B36622  36.113  40.563   7.701
 2592POPC   NC336623  39.328  29.679   9.407
 2592POPC   PO436624  38.792  30.033   9.541
 2592POPC   GL136625  38.930  29.947   9.140
 2592POPC   GL236626  38.811  29.614   9.196
 2592POPC   C1A36627  39.291  30.039   8.822
 2592POPC   D2A36628  39.574  29.923   8.448
 2592POPC   C3A36629  39.322  29.751   8.085
 2592POPC   C4A36630  39.244  29.885   7.613
 2592POPC   C1B36631  39.005  29.584   8.788
 2592POPC   C2B36632  38.965  29.850   8.442
 2592POPC   C3B36633  38.892  30.062   8.055
 2592POPC   C4B36634  38.762  30.048   7.652
 2593POPC   NC336635  35.048   7.913   9.422
 2593POPC   PO436636  35.243   8.500   9.646
 2593POPC   GL136637  35.360   8.322   9.188
 2593POPC   GL236638  35.484   7.964   9.143
 2593POPC   C1A36639  35.182   8.126   8.754
 2593POPC   D2A36640  35.242   8.032   8.311
 2593POPC   C3A36641  35.066   8.172   7.921
 2593POPC   C4A36642  35.170   8.425   7.559
 2593POPC   C1B36643  35.638   7.821   8.714
 2593POPC   C2B36644  35.630   7.731   8.234
 2593POPC   C3B36645  35.576   8.068   7.884
 2593POPC   C4B36646  35.592   8.171   7.436
 2594POPC   NC336647  35.622   8.725   9.526
 2594POPC   PO436648  35.181   9.151   9.347
 2594POPC   GL136649  35.398   8.923   9.092
 2594POPC   GL236650  35.119   8.728   8.979
 2594POPC   C1A36651  35.450   9.131   8.721
 2594POPC   D2A36652  35.243   9.051   8.363
 2594POPC   C3A36653  35.440   9.125   8.000
 2594POPC   C4A36654  35.184   9.352   7.771
 2594POPC   C1B36655  35.369   8.604   8.640
 2594POPC   C2B36656  35.305   8.559   8.194
 2594POPC   C3B36657  35.046   8.802   7.908
 2594POPC   C4B36658  35.191   8.923   7.523
 2595POPC   NC336659  27.052  30.106   9.509
 2595POPC   PO436660  26.496  29.690   9.482
 2595POPC   GL136661  26.537  29.923   9.101
 2595POPC   GL236662  26.811  30.164   9.038
 2595POPC   C1A36663  26.468  30.012   8.672
 2595POPC   D2A36664  26.683  29.894   8.303
 2595POPC   C3A36665  26.969  30.015   8.021
 2595POPC   C4A36666  26.974  30.045   7.593
 2595POPC   C1B36667  27.025  29.998   8.659
 2595POPC   C2B36668  27.341  30.160   8.321
 2595POPC   C3B36669  27.479  30.039   7.873
 2595POPC   C4B36670  27.431  30.073   7.415
 2596POPC   NC336671  34.577  10.743   9.374
 2596POPC   PO436672  34.782  10.036   9.417
 2596POPC   GL136673  34.787  10.332   9.108
 2596POPC   GL236674  34.413  10.329   9.021
 2596POPC   C1A36675  34.803  10.515   8.716
 2596POPC   D2A36676  34.563  10.362   8.381
 2596POPC   C3A36677  34.777  10.390   8.008
 2596POPC   C4A36678  34.797  10.708   7.706
 2596POPC   C1B36679  34.171  10.122   8.635
 2596POPC   C2B36680  34.142  10.113   8.190
 2596POPC   C3B36681  34.290  10.370   7.873
 2596POPC   C4B36682  34.420  10.446   7.460
 2597POPC   NC336683  38.742  12.599   9.455
 2597POPC   PO436684  38.352  13.161   9.556
 2597POPC   GL136685  38.355  12.910   9.164
 2597POPC   GL236686  38.338  12.540   9.103
 2597POPC   C1A36687  38.519  12.858   8.760
 2597POPC   D2A36688  38.280  12.690   8.403
 2597POPC   C3A36689  38.372  12.933   8.078
 2597POPC   C4A36690  38.440  13.118   7.682
 2597POPC   C1B36691  38.570  12.373   8.714
 2597POPC   C2B36692  38.749  12.536   8.303
 2597POPC   C3B36693  38.491  12.469   7.919
 2597POPC   C4B36694  38.199  12.664   7.694
 2598POPC   NC336695   3.937  18.254   9.707
 2598POPC   PO436696   3.447  18.469   9.376
 2598POPC   GL136697   3.563  18.174   9.109
 2598POPC   GL236698   3.257  18.250   8.907
 2598POPC   C1A36699   3.693  18.161   8.703
 2598POPC   D2A36700   3.567  18.280   8.313
 2598POPC   C3A36701   3.802  18.151   7.950
 2598POPC   C4A36702   3.666  17.927   7.585
 2598POPC   C1B36703   3.514  18.638   8.712
 2598POPC   C2B36704   3.645  18.826   8.305
 2598POPC   C3B36705   3.591  18.605   7.920
 2598POPC   C4B36706   3.310  18.223   7.843
 2599POPC   NC336707   7.782   8.811   9.208
 2599POPC   PO436708   7.328   8.821   9.656
 2599POPC   GL136709   7.315   9.010   9.179
 2599POPC   GL236710   7.544   9.235   8.980
 2599POPC   C1A36711   7.398   8.821   8.704
 2599POPC   D2A36712   7.523   8.667   8.315
 2599POPC   C3A36713   7.249   8.779   7.978
 2599POPC   C4A36714   7.191   8.739   7.477
 2599POPC   C1B36715   7.770   9.142   8.569
 2599POPC   C2B36716   7.678   9.130   8.119
 2599POPC   C3B36717   7.525   9.060   7.698
 2599POPC   C4B36718   7.578   9.134   7.258
 2600POPC   NC336719  35.312  16.443   9.545
 2600POPC   PO436720  35.159  17.192   9.423
 2600POPC   GL136721  35.350  16.897   9.228
 2600POPC   GL236722  35.131  16.686   9.145
 2600POPC   C1A36723  35.642  16.825   8.941
 2600POPC   D2A36724  35.604  16.668   8.534
 2600POPC   C3A36725  35.451  16.926   8.188
 2600POPC   C4A36726  35.469  16.669   7.818
 2600POPC   C1B36727  35.157  16.864   8.736
 2600POPC   C2B36728  35.099  16.616   8.364
 2600POPC   C3B36729  35.002  16.704   7.974
 2600POPC   C4B36730  34.936  17.064   7.784
 2601POPC   NC336731  33.170  42.803   9.389
 2601POPC   PO436732  33.013  42.180   9.619
 2601POPC   GL136733  32.963  42.212   9.111
 2601POPC   GL236734  33.060  42.543   8.958
 2601POPC   C1A36735  33.156  42.134   8.688
 2601POPC   D2A36736  33.310  42.106   8.290
 2601POPC   C3A36737  33.162  42.470   8.021
 2601POPC   C4A36738  32.999  42.470   7.594
 2601POPC   C1B36739  32.690  42.362   8.704
 2601POPC   C2B36740  32.492  42.462   8.324
 2601POPC   C3B36741  32.595  42.353   7.887
 2601POPC   C4B36742  32.586  42.220   7.418
 2602POPC   NC336743   6.334  22.891   9.879
 2602POPC   PO436744   6.678  23.301   9.489
 2602POPC   GL136745   6.694  23.101   9.121
 2602POPC   GL236746   6.412  22.854   9.195
 2602POPC   C1A36747   6.831  23.194   8.703
 2602POPC   D2A36748   6.572  23.172   8.339
 2602POPC   C3A36749   6.647  23.263   7.892
 2602POPC   C4A36750   6.647  23.141   7.442
 2602POPC   C1B36751   6.498  22.817   8.741
 2602POPC   C2B36752   6.546  22.653   8.294
 2602POPC   C3B36753   6.535  22.767   7.831
 2602POPC   C4B36754   6.454  22.711   7.326
 2603POPC   NC336755  10.791  19.353   9.436
 2603POPC   PO436756  10.160  19.054   9.450
 2603POPC   GL136757  10.473  19.102   9.124
 2603POPC   GL236758  10.432  19.462   9.078
 2603POPC   C1A36759  10.788  19.069   8.750
 2603POPC   D2A36760  10.731  19.132   8.287
 2603POPC   C3A36761  10.475  18.794   8.107
 2603POPC   C4A36762  10.437  18.565   7.742
 2603POPC   C1B36763  10.350  19.298   8.664
 2603POPC   C2B36764  10.226  19.207   8.273
 2603POPC   C3B36765  10.407  19.266   7.892
 2603POPC   C4B36766  10.229  19.125   7.560
 2604POPC   NC336767  11.028  18.446   9.725
 2604POPC   PO436768  11.611  18.426   9.735
 2604POPC   GL136769  11.578  18.484   9.264
 2604POPC   GL236770  11.233  18.542   9.228
 2604POPC   C1A36771  11.547  18.423   8.788
 2604POPC   D2A36772  11.283  18.321   8.403
 2604POPC   C3A36773  11.416  18.379   7.951
 2604POPC   C4A36774  11.574  18.060   7.663
 2604POPC   C1B36775  10.937  18.534   8.858
 2604POPC   C2B36776  10.917  18.677   8.406
 2604POPC   C3B36777  10.932  18.533   7.964
 2604POPC   C4B36778  10.864  18.405   7.505
 2605POPC   NC336779  44.981  11.986   9.377
 2605POPC   PO436780  44.434  12.330   9.593
 2605POPC   GL136781  44.498  12.079   9.222
 2605POPC   GL236782  44.320  11.758   9.296
 2605POPC   C1A36783  44.712  12.130   8.805
 2605POPC   D2A36784  44.926  12.343   8.489
 2605POPC   C3A36785  44.654  12.244   8.201
 2605POPC   C4A36786  44.743  12.178   7.808
 2605POPC   C1B36787  44.334  11.775   8.837
 2605POPC   C2B36788  44.531  11.766   8.430
 2605POPC   C3B36789  44.348  11.840   8.019
 2605POPC   C4B36790  44.380  11.937   7.585
 2606POPC   NC336791  22.386   7.689   9.436
 2606POPC   PO436792  22.168   7.062   9.440
 2606POPC   GL136793  22.340   7.250   9.105
 2606POPC   GL236794  22.063   7.465   9.055
 2606POPC   C1A36795  22.278   7.168   8.644
 2606POPC   D2A36796  21.921   7.158   8.386
 2606POPC   C3A36797  21.906   7.377   7.997
 2606POPC   C4A36798  22.241   7.268   7.723
 2606POPC   C1B36799  22.401   7.638   8.773
 2606POPC   C2B36800  22.331   7.613   8.325
 2606POPC   C3B36801  22.246   7.775   7.922
 2606POPC   C4B36802  22.105   7.718   7.498
 2607POPC   NC336803  34.989   9.566   9.409
 2607POPC   PO436804  35.542  10.068   9.518
 2607POPC   GL136805  35.415   9.976   9.112
 2607POPC   GL236806  35.369   9.587   9.039
 2607POPC   C1A36807  35.533   9.929   8.676
 2607POPC   D2A36808  35.425   9.571   8.449
 2607POPC   C3A36809  35.458   9.688   8.041
 2607POPC   C4A36810  35.499  10.101   7.856
 2607POPC   C1B36811  35.059   9.822   8.775
 2607POPC   C2B36812  35.084  10.039   8.384
 2607POPC   C3B36813  35.017   9.951   7.963
 2607POPC   C4B36814  35.173   9.801   7.573
 2608POPC   NC336815  29.154  21.930   9.521
 2608POPC   PO436816  28.944  22.545   9.469
 2608POPC   GL136817  29.074  22.271   9.122
 2608POPC   GL236818  28.918  21.925   9.060
 2608POPC   C1A36819  29.258  22.181   8.730
 2608POPC   D2A36820  29.080  22.071   8.355
 2608POPC   C3A36821  29.371  22.139   8.061
 2608POPC   C4A36822  29.345  22.196   7.667
 2608POPC   C1B36823  29.308  21.715   8.884
 2608POPC   C2B36824  29.460  21.722   8.462
 2608POPC   C3B36825  29.318  21.641   8.069
 2608POPC   C4B36826  29.461  21.716   7.660
 2609POPC   NC336827  14.845  22.321   9.687
 2609POPC   PO436828  15.338  21.955   9.735
 2609POPC   GL136829  15.197  22.132   9.291
 2609POPC   GL236830  15.190  22.512   9.218
 2609POPC   C1A36831  15.113  22.177   8.812
 2609POPC   D2A36832  15.276  22.148   8.351
 2609POPC   C3A36833  14.988  22.300   7.991
 2609POPC   C4A36834  14.858  22.138   7.550
 2609POPC   C1B36835  15.470  22.588   8.817
 2609POPC   C2B36836  15.642  22.514   8.400
 2609POPC   C3B36837  15.510  22.420   7.971
 2609POPC   C4B36838  15.281  22.426   7.586
 2610POPC   NC336839  16.932  40.211   9.437
 2610POPC   PO436840  17.062  39.530   9.488
 2610POPC   GL136841  16.786  39.756   9.188
 2610POPC   GL236842  16.471  39.973   9.270
 2610POPC   C1A36843  16.634  39.715   8.768
 2610POPC   D2A36844  16.744  39.645   8.328
 2610POPC   C3A36845  16.671  40.018   8.106
 2610POPC   C4A36846  16.882  40.188   7.719
 2610POPC   C1B36847  16.437  40.217   8.861
 2610POPC   C2B36848  16.317  40.378   8.425
 2610POPC   C3B36849  16.196  40.197   8.016
 2610POPC   C4B36850  16.399  40.018   7.654
 2611POPC   NC336851   0.972   5.939   9.487
 2611POPC   PO436852   1.665   6.091   9.332
 2611POPC   GL136853   1.436   5.787   9.101
 2611POPC   GL236854   1.094   5.689   9.068
 2611POPC   C1A36855   1.468   5.547   8.749
 2611POPC   D2A36856   1.161   5.624   8.452
 2611POPC   C3A36857   1.331   5.920   8.200
 2611POPC   C4A36858   1.354   5.804   7.774
 2611POPC   C1B36859   1.103   6.028   8.778
 2611POPC   C2B36860   0.853   6.063   8.394
 2611POPC   C3B36861   0.869   5.885   7.983
 2611POPC   C4B36862   0.970   6.091   7.592
 2612POPC   NC336863  13.506  29.348   9.609
 2612POPC   PO436864  13.683  28.717   9.678
 2612POPC   GL136865  13.895  28.949   9.273
 2612POPC   GL236866  13.838  29.294   9.219
 2612POPC   C1A36867  13.879  29.079   8.782
 2612POPC   D2A36868  13.984  29.312   8.381
 2612POPC   C3A36869  13.788  29.192   8.017
 2612POPC   C4A36870  13.838  29.115   7.603
 2612POPC   C1B36871  13.460  29.319   8.879
 2612POPC   C2B36872  13.461  29.420   8.404
 2612POPC   C3B36873  13.309  29.344   7.948
 2612POPC   C4B36874  13.069  29.187   7.577
 2613POPC   NC336875  39.946  23.673   9.515
 2613POPC   PO436876  40.514  23.491   9.690
 2613POPC   GL136877  40.327  23.843   9.251
 2613POPC   GL236878  39.987  23.794   9.036
 2613POPC   C1A36879  40.411  23.868   8.785
 2613POPC   D2A36880  40.107  23.746   8.489
 2613POPC   C3A36881  40.198  23.822   8.094
 2613POPC   C4A36882  40.383  23.672   7.748
 2613POPC   C1B36883  39.653  23.794   8.710
 2613POPC   C2B36884  39.662  23.934   8.251
 2613POPC   C3B36885  39.806  23.943   7.776
 2613POPC   C4B36886  39.704  24.010   7.302
 2614POPC   NC336887  41.917  11.094   9.489
 2614POPC   PO436888  41.332  11.432   9.456
 2614POPC   GL136889  41.485  11.537   9.082
 2614POPC   GL236890  41.779  11.330   9.069
 2614POPC   C1A36891  41.469  11.445   8.663
 2614POPC   D2A36892  41.733  11.195   8.457
 2614POPC   C3A36893  41.572  11.106   8.077
 2614POPC   C4A36894  41.273  11.288   7.775
 2614POPC   C1B36895  41.944  11.613   8.784
 2614POPC   C2B36896  41.819  11.710   8.410
 2614POPC   C3B36897  41.572  11.617   8.118
 2614POPC   C4B36898  41.653  11.628   7.715
 2615POPC   NC336899  21.332  18.784   9.850
 2615POPC   PO436900  21.365  18.094   9.634
 2615POPC   GL136901  21.297  18.181   9.213
 2615POPC   GL236902  21.067  18.463   9.150
 2615POPC   C1A36903  21.417  17.958   8.832
 2615POPC   D2A36904  21.418  18.129   8.422
 2615POPC   C3A36905  21.642  18.173   8.038
 2615POPC   C4A36906  21.527  17.997   7.653
 2615POPC   C1B36907  21.151  18.476   8.697
 2615POPC   C2B36908  21.046  18.417   8.236
 2615POPC   C3B36909  21.223  18.392   7.809
 2615POPC   C4B36910  21.216  18.404   7.348
 2616POPC   NC336911  23.577  37.496   9.575
 2616POPC   PO436912  23.886  38.117   9.581
 2616POPC   GL136913  23.907  37.855   9.230
 2616POPC   GL236914  23.960  37.539   9.232
 2616POPC   C1A36915  23.743  37.841   8.814
 2616POPC   D2A36916  23.492  37.941   8.504
 2616POPC   C3A36917  23.623  38.070   8.145
 2616POPC   C4A36918  23.783  37.742   7.915
 2616POPC   C1B36919  24.025  37.429   8.801
 2616POPC   C2B36920  23.997  37.545   8.363
 2616POPC   C3B36921  24.101  37.364   7.942
 2616POPC   C4B36922  23.907  37.378   7.516
 2617POPC   NC336923  14.898   3.230   9.605
 2617POPC   PO436924  15.113   3.894   9.638
 2617POPC   GL136925  15.321   3.784   9.191
 2617POPC   GL236926  15.205   3.431   9.193
 2617POPC   C1A36927  15.231   3.678   8.770
 2617POPC   D2A36928  15.126   3.768   8.377
 2617POPC   C3A36929  15.397   3.684   8.071
 2617POPC   C4A36930  15.439   3.881   7.682
 2617POPC   C1B36931  15.321   3.189   8.818
 2617POPC   C2B36932  15.180   3.245   8.388
 2617POPC   C3B36933  15.285   3.098   7.996
 2617POPC   C4B36934  15.337   3.354   7.659
 2618POPC   NC336935  31.142  18.509   9.556
 2618POPC   PO436936  31.585  18.000   9.571
 2618POPC   GL136937  31.528  18.334   9.217
 2618POPC   GL236938  31.198  18.314   9.060
 2618POPC   C1A36939  31.659  18.518   8.779
 2618POPC   D2A36940  31.466  18.463   8.334
 2618POPC   C3A36941  31.729  18.412   7.945
 2618POPC   C4A36942  31.859  18.300   7.488
 2618POPC   C1B36943  31.427  18.087   8.694
 2618POPC   C2B36944  31.341  17.951   8.257
 2618POPC   C3B36945  31.350  18.096   7.830
 2618POPC   C4B36946  31.090  18.259   7.548
 2619POPC   NC336947  35.708  24.836   9.462
 2619POPC   PO436948  36.022  24.324   9.396
 2619POPC   GL136949  36.432  24.521   9.234
 2619POPC   GL236950  36.341  24.808   9.026
 2619POPC   C1A36951  36.535  24.388   8.816
 2619POPC   D2A36952  36.203  24.303   8.523
 2619POPC   C3A36953  36.290  24.300   8.117
 2619POPC   C4A36954  36.188  24.171   7.733
 2619POPC   C1B36955  35.926  24.627   8.814
 2619POPC   C2B36956  35.716  24.564   8.375
 2619POPC   C3B36957  35.894  24.562   7.932
 2619POPC   C4B36958  36.308  24.701   7.799
 2620POPC   NC336959   1.541  41.748   9.488
 2620POPC   PO436960   1.137  41.275   9.418
 2620POPC   GL136961   1.166  41.588   9.073
 2620POPC   GL236962   0.865  41.633   8.894
 2620POPC   C1A36963   1.288  41.616   8.606
 2620POPC   D2A36964   1.248  41.329   8.243
 2620POPC   C3A36965   1.311  41.344   7.801
 2620POPC   C4A36966   1.567  41.634   7.544
 2620POPC   C1B36967   0.863  41.312   8.563
 2620POPC   C2B36968   0.668  41.336   8.186
 2620POPC   C3B36969   0.812  41.516   7.812
 2620POPC   C4B36970   1.038  41.576   7.441
 2621POPC   NC336971  20.729  13.021   9.689
 2621POPC   PO436972  20.392  12.502   9.600
 2621POPC   GL136973  20.373  12.893   9.298
 2621POPC   GL236974  20.738  12.956   9.182
 2621POPC   C1A36975  20.402  12.916   8.810
 2621POPC   D2A36976  20.667  12.940   8.405
 2621POPC   C3A36977  20.498  13.056   8.019
 2621POPC   C4A36978  20.368  12.918   7.628
 2621POPC   C1B36979  20.894  13.172   8.798
 2621POPC   C2B36980  21.025  13.305   8.360
 2621POPC   C3B36981  20.977  13.195   7.918
 2621POPC   C4B36982  20.901  13.105   7.474
 2622POPC   NC336983  15.756  25.204   9.385
 2622POPC   PO436984  16.432  25.220   9.362
 2622POPC   GL136985  16.300  25.412   9.003
 2622POPC   GL236986  15.939  25.318   8.939
 2622POPC   C1A36987  16.308  25.215   8.608
 2622POPC   D2A36988  16.097  24.973   8.355
 2622POPC   C3A36989  16.133  25.154   7.985
 2622POPC   C4A36990  16.084  24.999   7.591
 2622POPC   C1B36991  15.838  25.444   8.535
 2622POPC   C2B36992  15.966  25.807   8.297
 2622POPC   C3B36993  16.073  25.703   7.889
 2622POPC   C4B36994  15.787  25.409   7.698
 2623POPC   NC336995  40.372  41.184   9.484
 2623POPC   PO436996  39.922  40.644   9.593
 2623POPC   GL136997  40.042  40.857   9.215
 2623POPC   GL236998  40.142  40.543   9.136
 2623POPC   C1A36999  40.055  41.056   8.784
 2623POPC   D2A37000  40.120  40.848   8.378
 2623POPC   C3A37001  39.958  40.933   7.939
 2623POPC   C4A37002  39.993  41.013   7.433
 2623POPC   C1B37003  39.884  40.564   8.799
 2623POPC   C2B37004  39.936  40.382   8.435
 2623POPC   C3B37005  40.163  40.447   8.058
 2623POPC   C4B37006  40.057  40.547   7.627
 2624POPC   NC337007   0.263  40.398   9.461
 2624POPC   PO437008   0.582  39.793   9.402
 2624POPC   GL137009   0.411  39.919   9.008
 2624POPC   GL237010   0.303  40.257   8.979
 2624POPC   C1A37011   0.487  39.869   8.543
 2624POPC   D2A37012   0.207  39.949   8.161
 2624POPC   C3A37013   0.353  39.814   7.785
 2624POPC   C4A37014   0.772  39.849   7.636
 2624POPC   C1B37015   0.733  40.246   8.826
 2624POPC   C2B37016   0.818  40.320   8.401
 2624POPC   C3B37017   0.657  40.208   8.007
 2624POPC   C4B37018   0.326  40.318   7.746
 2625POPC   NC337019  38.997  25.836   9.833
 2625POPC   PO437020  39.369  26.385   9.586
 2625POPC   GL137021  39.339  26.135   9.194
 2625POPC   GL237022  39.148  25.805   9.309
 2625POPC   C1A37023  39.458  26.148   8.733
 2625POPC   D2A37024  39.203  26.105   8.367
 2625POPC   C3A37025  39.376  26.216   7.969
 2625POPC   C4A37026  39.263  26.332   7.557
 2625POPC   C1B37027  39.299  25.701   8.904
 2625POPC   C2B37028  39.207  25.597   8.486
 2625POPC   C3B37029  39.381  25.721   8.079
 2625POPC   C4B37030  39.346  25.805   7.661
 2626POPC   NC337031  13.387   4.034   9.444
 2626POPC   PO437032  13.942   3.665   9.412
 2626POPC   GL137033  13.735   3.735   8.985
 2626POPC   GL237034  13.352   3.772   9.005
 2626POPC   C1A37035  13.862   3.566   8.542
 2626POPC   D2A37036  13.696   3.208   8.259
 2626POPC   C3A37037  13.904   3.193   7.880
 2626POPC   C4A37038  13.995   3.635   7.863
 2626POPC   C1B37039  13.395   3.424   8.688
 2626POPC   C2B37040  13.270   3.479   8.247
 2626POPC   C3B37041  13.474   3.509   7.864
 2626POPC   C4B37042  13.439   3.837   7.564
 2627POPC   NC337043  25.559   9.252   9.315
 2627POPC   PO437044  26.021   9.731   9.335
 2627POPC   GL137045  25.763   9.664   9.075
 2627POPC   GL237046  25.490   9.855   9.172
 2627POPC   C1A37047  25.934   9.571   8.669
 2627POPC   D2A37048  26.229   9.534   8.329
 2627POPC   C3A37049  26.055   9.703   7.928
 2627POPC   C4A37050  26.057   9.598   7.434
 2627POPC   C1B37051  25.709  10.065   8.790
 2627POPC   C2B37052  25.880   9.991   8.387
 2627POPC   C3B37053  25.733  10.135   8.009
 2627POPC   C4B37054  25.745   9.937   7.617
 2628POPC   NC337055  39.762  35.230   9.700
 2628POPC   PO437056  40.228  35.616   9.594
 2628POPC   GL137057  39.980  35.506   9.226
 2628POPC   GL237058  40.151  35.272   9.035
 2628POPC   C1A37059  39.961  35.693   8.780
 2628POPC   D2A37060  39.897  35.887   8.343
 2628POPC   C3A37061  39.927  35.619   7.937
 2628POPC   C4A37062  39.738  35.233   7.895
 2628POPC   C1B37063  40.081  35.072   8.686
 2628POPC   C2B37064  40.033  35.350   8.374
 2628POPC   C3B37065  40.260  35.248   8.056
 2628POPC   C4B37066  40.351  35.094   7.688
 2629POPC   NC337067  44.388  41.886   9.235
 2629POPC   PO437068  43.896  41.396   9.469
 2629POPC   GL137069  43.895  41.674   9.176
 2629POPC   GL237070  44.157  41.474   9.037
 2629POPC   C1A37071  43.656  41.711   8.803
 2629POPC   D2A37072  43.576  41.472   8.411
 2629POPC   C3A37073  43.693  41.664   8.011
 2629POPC   C4A37074  44.082  41.747   7.824
 2629POPC   C1B37075  44.020  41.351   8.665
 2629POPC   C2B37076  44.125  41.402   8.240
 2629POPC   C3B37077  44.094  41.203   7.867
 2629POPC   C4B37078  44.143  40.943   7.532
 2630POPC   NC337079  21.021   7.098   9.511
 2630POPC   PO437080  20.769   6.484   9.413
 2630POPC   GL137081  20.838   6.734   9.110
 2630POPC   GL237082  21.160   6.752   9.142
 2630POPC   C1A37083  20.629   6.719   8.704
 2630POPC   D2A37084  20.394   6.821   8.360
 2630POPC   C3A37085  20.567   6.668   8.007
 2630POPC   C4A37086  20.600   6.788   7.602
 2630POPC   C1B37087  21.148   6.603   8.698
 2630POPC   C2B37088  20.865   6.397   8.400
 2630POPC   C3B37089  20.807   6.211   8.020
 2630POPC   C4B37090  20.658   6.271   7.628
 2631POPC   NC337091  18.638   2.109   9.492
 2631POPC   PO437092  19.212   1.766   9.719
 2631POPC   GL137093  19.131   1.733   9.294
 2631POPC   GL237094  18.886   1.458   9.249
 2631POPC   C1A37095  19.232   1.999   8.918
 2631POPC   D2A37096  19.202   1.856   8.489
 2631POPC   C3A37097  19.230   2.059   8.088
 2631POPC   C4A37098  19.069   2.264   7.742
 2631POPC   C1B37099  18.847   1.686   8.865
 2631POPC   C2B37100  18.671   1.831   8.501
 2631POPC   C3B37101  18.830   1.748   8.121
 2631POPC   C4B37102  19.006   1.707   7.718
 2632POPC   NC337103  37.382  34.561   9.288
 2632POPC   PO437104  37.962  34.900   9.460
 2632POPC   GL137105  37.877  34.614   9.133
 2632POPC   GL237106  37.957  34.254   9.203
 2632POPC   C1A37107  37.658  34.472   8.738
 2632POPC   D2A37108  37.520  34.681   8.393
 2632POPC   C3A37109  37.458  34.443   8.089
 2632POPC   C4A37110  37.412  34.567   7.710
 2632POPC   C1B37111  38.137  34.354   8.792
 2632POPC   C2B37112  38.042  34.641   8.432
 2632POPC   C3B37113  37.935  34.593   8.007
 2632POPC   C4B37114  37.931  34.517   7.568
 2633POPC   NC337115  15.520   3.656   9.613
 2633POPC   PO437116  16.191   3.295   9.603
 2633POPC   GL137117  16.108   3.412   9.215
 2633POPC   GL237118  16.454   3.316   9.134
 2633POPC   C1A37119  15.732   3.534   8.951
 2633POPC   D2A37120  15.680   3.779   8.551
 2633POPC   C3A37121  15.881   3.550   8.226
 2633POPC   C4A37122  15.812   3.567   7.788
 2633POPC   C1B37123  16.269   3.416   8.717
 2633POPC   C2B37124  16.407   3.321   8.284
 2633POPC   C3B37125  16.172   3.241   7.896
 2633POPC   C4B37126  15.762   3.056   7.803
 2634POPC   NC337127  34.181  22.988   9.519
 2634POPC   PO437128  34.848  22.793   9.595
 2634POPC   GL137129  34.649  23.013   9.233
 2634POPC   GL237130  34.938  23.043   9.001
 2634POPC   C1A37131  34.477  23.142   8.820
 2634POPC   D2A37132  34.455  22.959   8.431
 2634POPC   C3A37133  34.519  23.193   8.081
 2634POPC   C4A37134  34.331  23.276   7.715
 2634POPC   C1B37135  34.844  22.715   8.676
 2634POPC   C2B37136  34.771  22.613   8.203
 2634POPC   C3B37137  34.683  22.799   7.770
 2634POPC   C4B37138  34.904  22.813   7.343
 2635POPC   NC337139   1.102  40.859   9.625
 2635POPC   PO437140   1.398  40.330   9.612
 2635POPC   GL137141   1.325  40.559   9.233
 2635POPC   GL237142   1.059  40.777   9.133
 2635POPC   C1A37143   1.503  40.673   8.813
 2635POPC   D2A37144   1.333  40.845   8.421
 2635POPC   C3A37145   1.260  40.582   8.065
 2635POPC   C4A37146   1.398  40.764   7.701
 2635POPC   C1B37147   0.972  40.681   8.736
 2635POPC   C2B37148   0.814  40.851   8.351
 2635POPC   C3B37149   0.990  40.983   7.985
 2635POPC   C4B37150   0.852  40.652   7.746
 2636POPC   NC337151  41.566  32.767   9.519
 2636POPC   PO437152  41.472  33.392   9.586
 2636POPC   GL137153  41.546  33.172   9.157
 2636POPC   GL237154  41.805  32.897   9.102
 2636POPC   C1A37155  41.286  33.060   8.769
 2636POPC   D2A37156  41.216  33.233   8.339
 2636POPC   C3A37157  41.434  32.970   8.038
 2636POPC   C4A37158  41.513  32.751   7.650
 2636POPC   C1B37159  41.734  32.806   8.675
 2636POPC   C2B37160  41.882  33.042   8.303
 2636POPC   C3B37161  41.927  33.037   7.844
 2636POPC   C4B37162  41.975  33.157   7.443
 2637POPC   NC337163  11.926   6.775   9.534
 2637POPC   PO437164  12.374   6.382   9.170
 2637POPC   GL137165  12.081   6.680   9.048
 2637POPC   GL237166  12.237   7.003   9.114
 2637POPC   C1A37167  12.064   6.678   8.616
 2637POPC   D2A37168  12.202   6.790   8.239
 2637POPC   C3A37169  12.112   6.578   7.900
 2637POPC   C4A37170  11.695   6.540   7.783
 2637POPC   C1B37171  11.977   7.167   8.771
 2637POPC   C2B37172  11.802   7.097   8.368
 2637POPC   C3B37173  11.899   7.051   7.924
 2637POPC   C4B37174  11.647   7.127   7.566
 2638POPC   NC337175  12.498   3.418   9.450
 2638POPC   PO437176  12.956   3.919   9.361
 2638POPC   GL137177  12.828   3.701   9.031
 2638POPC   GL237178  12.838   3.363   9.079
 2638POPC   C1A37179  12.986   3.718   8.617
 2638POPC   D2A37180  12.754   3.949   8.334
 2638POPC   C3A37181  12.653   3.665   8.014
 2638POPC   C4A37182  12.991   3.581   7.717
 2638POPC   C1B37183  12.632   3.369   8.686
 2638POPC   C2B37184  12.823   3.247   8.318
 2638POPC   C3B37185  12.761   3.176   7.903
 2638POPC   C4B37186  12.770   3.155   7.439
 2639POPC   NC337187  26.638  23.956   9.502
 2639POPC   PO437188  27.177  23.602   9.287
 2639POPC   GL137189  26.751  23.651   9.116
 2639POPC   GL237190  26.682  23.988   9.005
 2639POPC   C1A37191  26.588  23.523   8.741
 2639POPC   D2A37192  26.840  23.582   8.379
 2639POPC   C3A37193  26.606  23.553   8.030
 2639POPC   C4A37194  26.459  23.491   7.627
 2639POPC   C1B37195  26.652  24.015   8.584
 2639POPC   C2B37196  26.708  24.043   8.146
 2639POPC   C3B37197  26.738  23.924   7.719
 2639POPC   C4B37198  27.002  24.051   7.402
 2640POPC   NC337199   4.784  36.943   9.575
 2640POPC   PO437200   4.147  36.761   9.700
 2640POPC   GL137201   4.234  36.990   9.346
 2640POPC   GL237202   4.327  36.669   9.216
 2640POPC   C1A37203   4.196  37.109   8.907
 2640POPC   D2A37204   4.355  36.940   8.505
 2640POPC   C3A37205   4.158  37.055   8.107
 2640POPC   C4A37206   4.284  36.889   7.715
 2640POPC   C1B37207   4.468  36.549   8.840
 2640POPC   C2B37208   4.481  36.439   8.431
 2640POPC   C3B37209   4.575  36.658   8.060
 2640POPC   C4B37210   4.660  36.530   7.644
 2641POPC   NC337211  17.658  11.418   9.616
 2641POPC   PO437212  17.158  10.990   9.471
 2641POPC   GL137213  17.338  11.182   9.157
 2641POPC   GL237214  17.276  10.910   8.914
 2641POPC   C1A37215  17.368  11.453   8.818
 2641POPC   D2A37216  17.555  11.384   8.428
 2641POPC   C3A37217  17.405  11.458   8.068
 2641POPC   C4A37218  17.308  11.118   7.852
 2641POPC   C1B37219  17.706  11.044   8.822
 2641POPC   C2B37220  17.943  11.082   8.495
 2641POPC   C3B37221  17.850  11.077   8.106
 2641POPC   C4B37222  17.797  11.302   7.778
 2642POPC   NC337223  35.606   1.362   9.355
 2642POPC   PO437224  36.209   1.210   9.491
 2642POPC   GL137225  36.133   0.985   9.129
 2642POPC   GL237226  35.782   0.950   9.121
 2642POPC   C1A37227  36.161   0.937   8.689
 2642POPC   D2A37228  36.287   0.959   8.282
 2642POPC   C3A37229  36.209   1.261   7.965
 2642POPC   C4A37230  36.296   1.165   7.544
 2642POPC   C1B37231  35.707   1.193   8.742
 2642POPC   C2B37232  35.879   1.286   8.366
 2642POPC   C3B37233  35.721   1.182   7.964
 2642POPC   C4B37234  35.708   0.994   7.546
 2643POPC   NC337235  29.127   1.360   9.598
 2643POPC   PO437236  29.651   0.954   9.571
 2643POPC   GL137237  29.341   1.068   9.252
 2643POPC   GL237238  29.293   1.446   9.138
 2643POPC   C1A37239  29.165   1.043   8.867
 2643POPC   D2A37240  29.364   1.130   8.491
 2643POPC   C3A37241  29.229   0.996   8.136
 2643POPC   C4A37242  29.391   1.137   7.781
 2643POPC   C1B37243  29.140   1.545   8.755
 2643POPC   C2B37244  28.965   1.455   8.380
 2643POPC   C3B37245  28.950   1.388   7.941
 2643POPC   C4B37246  28.632   1.325   7.646
 2644POPC   NC337247  25.918  21.438   9.551
 2644POPC   PO437248  26.256  20.820   9.288
 2644POPC   GL137249  26.188  21.219   9.112
 2644POPC   GL237250  25.850  21.306   9.059
 2644POPC   C1A37251  26.292  21.440   8.735
 2644POPC   D2A37252  26.149  21.528   8.358
 2644POPC   C3A37253  26.311  21.543   7.976
 2644POPC   C4A37254  26.218  21.179   7.757
 2644POPC   C1B37255  25.780  21.311   8.636
 2644POPC   C2B37256  25.635  21.612   8.350
 2644POPC   C3B37257  25.798  21.434   7.989
 2644POPC   C4B37258  25.725  21.072   7.793
 2645POPC   NC337259  23.079  40.254   9.468
 2645POPC   PO437260  22.868  39.654   9.577
 2645POPC   GL137261  22.763  39.834   9.188
 2645POPC   GL237262  23.052  39.992   9.023
 2645POPC   C1A37263  22.646  39.841   8.758
 2645POPC   D2A37264  22.940  39.903   8.412
 2645POPC   C3A37265  22.768  39.905   8.001
 2645POPC   C4A37266  22.674  39.852   7.561
 2645POPC   C1B37267  22.874  40.311   8.745
 2645POPC   C2B37268  22.907  40.539   8.380
 2645POPC   C3B37269  23.119  40.288   8.094
 2645POPC   C4B37270  23.033  40.191   7.674
 2646POPC   NC337271  42.005  36.081   9.387
 2646POPC   PO437272  41.430  35.750   9.553
 2646POPC   GL137273  41.528  36.003   9.185
 2646POPC   GL237274  41.634  36.328   9.103
 2646POPC   C1A37275  41.749  35.940   8.778
 2646POPC   D2A37276  41.560  35.908   8.388
 2646POPC   C3A37277  41.715  36.032   7.995
 2646POPC   C4A37278  41.514  35.802   7.665
 2646POPC   C1B37279  41.854  36.458   8.750
 2646POPC   C2B37280  41.726  36.507   8.342
 2646POPC   C3B37281  41.572  36.523   7.960
 2646POPC   C4B37282  41.801  36.478   7.628
 2647POPC   NC337283  25.094  24.802   9.457
 2647POPC   PO437284  25.546  24.251   9.455
 2647POPC   GL137285  25.308  24.456   9.106
 2647POPC   GL237286  24.965  24.453   9.129
 2647POPC   C1A37287  25.181  24.238   8.704
 2647POPC   D2A37288  25.355  24.150   8.290
 2647POPC   C3A37289  25.361  24.461   7.937
 2647POPC   C4A37290  25.478  24.486   7.471
 2647POPC   C1B37291  24.983  24.706   8.770
 2647POPC   C2B37292  25.072  24.633   8.354
 2647POPC   C3B37293  24.963  24.815   7.975
 2647POPC   C4B37294  25.066  24.753   7.594
 2648POPC   NC337295  33.938   5.627   9.634
 2648POPC   PO437296  33.496   6.158   9.674
 2648POPC   GL137297  33.651   5.914   9.313
 2648POPC   GL237298  33.406   5.648   9.248
 2648POPC   C1A37299  33.798   5.801   8.896
 2648POPC   D2A37300  33.879   5.684   8.454
 2648POPC   C3A37301  34.008   5.993   8.133
 2648POPC   C4A37302  33.807   6.079   7.713
 2648POPC   C1B37303  33.451   5.409   8.858
 2648POPC   C2B37304  33.368   5.398   8.409
 2648POPC   C3B37305  33.591   5.348   8.008
 2648POPC   C4B37306  33.932   5.581   7.824
 2649POPC   NC337307  43.574  13.065   9.346
 2649POPC   PO437308  43.828  12.514   9.643
 2649POPC   GL137309  43.718  12.602   9.207
 2649POPC   GL237310  43.993  12.816   9.061
 2649POPC   C1A37311  43.706  12.466   8.777
 2649POPC   D2A37312  43.818  12.532   8.324
 2649POPC   C3A37313  43.899  12.984   8.244
 2649POPC   C4A37314  43.747  13.188   7.857
 2649POPC   C1B37315  44.268  13.078   8.759
 2649POPC   C2B37316  44.501  13.179   8.369
 2649POPC   C3B37317  44.352  13.119   7.985
 2649POPC   C4B37318  44.082  12.799   7.803
 2650POPC   NC337319  22.002  30.375   9.389
 2650POPC   PO437320  22.143  31.016   9.494
 2650POPC   GL137321  22.167  30.779   9.066
 2650POPC   GL237322  22.043  30.431   8.909
 2650POPC   C1A37323  22.263  30.787   8.616
 2650POPC   D2A37324  22.506  30.969   8.277
 2650POPC   C3A37325  22.272  31.004   7.905
 2650POPC   C4A37326  21.883  30.979   7.665
 2650POPC   C1B37327  22.045  30.328   8.489
 2650POPC   C2B37328  22.044  30.592   8.145
 2650POPC   C3B37329  22.267  30.488   7.783
 2650POPC   C4B37330  22.241  30.367   7.349
 2651POPC   NC337331   9.026  27.051   9.595
 2651POPC   PO437332   8.602  26.521   9.467
 2651POPC   GL137333   8.846  26.812   9.181
 2651POPC   GL237334   9.210  26.921   9.140
 2651POPC   C1A37335   8.950  26.782   8.741
 2651POPC   D2A37336   9.187  26.877   8.397
 2651POPC   C3A37337   9.039  26.828   8.021
 2651POPC   C4A37338   9.023  26.585   7.691
 2651POPC   C1B37339   9.406  27.126   8.803
 2651POPC   C2B37340   9.360  27.367   8.416
 2651POPC   C3B37341   9.440  27.182   8.045
 2651POPC   C4B37342   9.427  26.940   7.662
 2652POPC   NC337343  12.212  28.141   9.532
 2652POPC   PO437344  11.702  28.566   9.392
 2652POPC   GL137345  11.986  28.303   9.116
 2652POPC   GL237346  11.972  27.905   9.148
 2652POPC   C1A37347  12.298  28.147   8.815
 2652POPC   D2A37348  12.380  28.017   8.374
 2652POPC   C3A37349  12.364  28.248   7.976
 2652POPC   C4A37350  12.083  28.452   7.702
 2652POPC   C1B37351  11.803  28.006   8.739
 2652POPC   C2B37352  11.673  27.966   8.313
 2652POPC   C3B37353  11.730  28.119   7.894
 2652POPC   C4B37354  11.630  28.328   7.525
 2653POPC   NC337355  21.984  40.961   9.634
 2653POPC   PO437356  22.482  40.586   9.473
 2653POPC   GL137357  22.281  40.887   9.200
 2653POPC   GL237358  21.904  40.953   9.137
 2653POPC   C1A37359  22.217  40.799   8.764
 2653POPC   D2A37360  22.146  40.574   8.389
 2653POPC   C3A37361  22.402  40.724   8.079
 2653POPC   C4A37362  22.405  40.807   7.635
 2653POPC   C1B37363  21.827  41.138   8.732
 2653POPC   C2B37364  21.852  41.008   8.282
 2653POPC   C3B37365  21.955  40.943   7.834
 2653POPC   C4B37366  21.971  40.883   7.368
 2654POPC   NC337367  41.605   0.666   9.350
 2654POPC   PO437368  41.547   1.251   9.755
 2654POPC   GL137369  41.523   1.253   9.262
 2654POPC   GL237370  41.876   1.420   9.136
 2654POPC   C1A37371  41.369   1.235   8.839
 2654POPC   D2A37372  41.220   0.957   8.480
 2654POPC   C3A37373  41.325   1.098   8.057
 2654POPC   C4A37374  41.319   1.438   7.750
 2654POPC   C1B37375  41.876   1.127   8.786
 2654POPC   C2B37376  41.717   1.140   8.403
 2654POPC   C3B37377  41.840   1.001   8.015
 2654POPC   C4B37378  41.625   1.020   7.632
 2655POPC   NC337379  10.717  27.137   9.483
 2655POPC   PO437380  10.912  27.898   9.505
 2655POPC   GL137381  10.713  27.711   9.146
 2655POPC   GL237382  10.372  27.754   9.143
 2655POPC   C1A37383  10.661  27.901   8.742
 2655POPC   D2A37384  10.442  28.069   8.414
 2655POPC   C3A37385  10.586  27.738   8.127
 2655POPC   C4A37386  10.596  27.635   7.695
 2655POPC   C1B37387  10.291  27.503   8.722
 2655POPC   C2B37388  10.396  27.275   8.319
 2655POPC   C3B37389  10.330  27.235   7.866
 2655POPC   C4B37390  10.366  27.262   7.397
 2656POPC   NC337391  36.417  37.635   9.582
 2656POPC   PO437392  37.059  37.408   9.548
 2656POPC   GL137393  37.080  37.553   9.113
 2656POPC   GL237394  36.994  37.876   9.080
 2656POPC   C1A37395  37.059  37.593   8.644
 2656POPC   D2A37396  36.731  37.448   8.353
 2656POPC   C3A37397  36.885  37.471   7.937
 2656POPC   C4A37398  37.279  37.671   7.864
 2656POPC   C1B37399  36.959  38.113   8.684
 2656POPC   C2B37400  36.948  37.935   8.251
 2656POPC   C3B37401  36.862  38.041   7.841
 2656POPC   C4B37402  37.101  38.296   7.581
 2657POPC   NC337403  40.890  23.355   9.424
 2657POPC   PO437404  40.781  22.682   9.521
 2657POPC   GL137405  40.650  22.899   9.105
 2657POPC   GL237406  40.562  22.576   9.077
 2657POPC   C1A37407  40.824  23.105   8.689
 2657POPC   D2A37408  41.059  23.329   8.330
 2657POPC   C3A37409  40.941  23.132   7.957
 2657POPC   C4A37410  40.651  23.195   7.655
 2657POPC   C1B37411  40.773  22.593   8.692
 2657POPC   C2B37412  40.694  22.704   8.294
 2657POPC   C3B37413  40.572  22.758   7.886
 2657POPC   C4B37414  40.828  22.734   7.490
 2658POPC   NC337415  41.169  43.269   9.540
 2658POPC   PO437416  40.466  43.304   9.461
 2658POPC   GL137417  40.793  43.297   9.160
 2658POPC   GL237418  40.922  42.999   9.175
 2658POPC   C1A37419  40.928  43.296   8.738
 2658POPC   D2A37420  40.730  43.061   8.417
 2658POPC   C3A37421  40.778  43.188   8.036
 2658POPC   C4A37422  40.487  43.481   7.949
 2658POPC   C1B37423  40.950  42.769   8.781
 2658POPC   C2B37424  40.785  42.559   8.389
 2658POPC   C3B37425  40.634  42.698   8.016
 2658POPC   C4B37426  40.962  42.768   7.746
 2659POPC   NC337427  40.038  31.868   9.454
 2659POPC   PO437428  40.257  32.498   9.564
 2659POPC   GL137429  40.343  32.308   9.190
 2659POPC   GL237430  40.482  31.959   9.194
 2659POPC   C1A37431  40.149  32.425   8.820
 2659POPC   D2A37432  39.815  32.315   8.586
 2659POPC   C3A37433  39.986  32.247   8.196
 2659POPC   C4A37434  40.024  32.331   7.762
 2659POPC   C1B37435  40.255  31.933   8.807
 2659POPC   C2B37436  40.438  32.039   8.426
 2659POPC   C3B37437  40.429  32.081   8.005
 2659POPC   C4B37438  40.251  31.901   7.632
 2660POPC   NC337439   5.899  35.122   9.615
 2660POPC   PO437440   6.142  35.657   9.439
 2660POPC   GL137441   6.017  35.409   9.089
 2660POPC   GL237442   5.998  35.025   9.120
 2660POPC   C1A37443   6.025  35.528   8.652
 2660POPC   D2A37444   6.272  35.474   8.288
 2660POPC   C3A37445   6.090  35.553   7.893
 2660POPC   C4A37446   5.642  35.616   7.773
 2660POPC   C1B37447   5.864  35.032   8.665
 2660POPC   C2B37448   5.777  35.245   8.251
 2660POPC   C3B37449   5.869  35.122   7.825
 2660POPC   C4B37450   6.340  35.064   7.745
 2661POPC   NC337451  13.790  16.844   9.506
 2661POPC   PO437452  13.189  16.592   9.664
 2661POPC   GL137453  13.365  16.730   9.217
 2661POPC   GL237454  13.685  16.578   9.078
 2661POPC   C1A37455  13.332  16.762   8.762
 2661POPC   D2A37456  13.369  16.513   8.378
 2661POPC   C3A37457  13.441  16.757   8.004
 2661POPC   C4A37458  13.336  16.842   7.590
 2661POPC   C1B37459  13.765  16.992   8.866
 2661POPC   C2B37460  13.705  16.909   8.429
 2661POPC   C3B37461  13.940  16.739   8.115
 2661POPC   C4B37462  13.888  16.846   7.684
 2662POPC   NC337463  16.789  22.334   9.532
 2662POPC   PO437464  16.188  22.451   9.730
 2662POPC   GL137465  16.393  22.310   9.244
 2662POPC   GL237466  16.606  22.000   9.176
 2662POPC   C1A37467  16.477  22.248   8.770
 2662POPC   D2A37468  16.612  21.925   8.457
 2662POPC   C3A37469  16.447  21.985   8.056
 2662POPC   C4A37470  16.532  22.301   7.766
 2662POPC   C1B37471  16.926  21.952   8.859
 2662POPC   C2B37472  17.156  21.800   8.495
 2662POPC   C3B37473  17.129  22.067   8.139
 2662POPC   C4B37474  16.977  22.065   7.751
 2663POPC   NC337475   1.668   4.497   9.516
 2663POPC   PO437476   2.285   4.291   9.503
 2663POPC   GL137477   2.035   4.429   9.166
 2663POPC   GL237478   1.756   4.191   9.130
 2663POPC   C1A37479   2.053   4.559   8.737
 2663POPC   D2A37480   1.912   4.753   8.352
 2663POPC   C3A37481   2.189   4.702   7.978
 2663POPC   C4A37482   2.039   4.690   7.519
 2663POPC   C1B37483   1.855   4.065   8.728
 2663POPC   C2B37484   1.678   4.196   8.347
 2663POPC   C3B37485   1.691   4.452   7.978
 2663POPC   C4B37486   1.993   4.274   7.783
 2664POPC   NC337487  27.619  13.972   9.817
 2664POPC   PO437488  27.533  14.599   9.633
 2664POPC   GL137489  27.435  14.348   9.232
 2664POPC   GL237490  27.735  14.332   9.032
 2664POPC   C1A37491  27.244  14.287   8.798
 2664POPC   D2A37492  27.105  14.187   8.375
 2664POPC   C3A37493  27.328  14.365   8.007
 2664POPC   C4A37494  27.630  14.284   7.653
 2664POPC   C1B37495  27.744  14.127   8.608
 2664POPC   C2B37496  27.798  14.290   8.179
 2664POPC   C3B37497  28.078  14.453   7.856
 2664POPC   C4B37498  28.027  14.568   7.406
 2665POPC   NC337499  33.216  26.828   9.567
 2665POPC   PO437500  32.709  26.831   9.348
 2665POPC   GL137501  33.081  26.814   9.040
 2665POPC   GL237502  33.363  27.021   9.119
 2665POPC   C1A37503  33.364  26.751   8.641
 2665POPC   D2A37504  33.502  26.752   8.175
 2665POPC   C3A37505  33.135  26.731   7.842
 2665POPC   C4A37506  32.918  26.731   7.442
 2665POPC   C1B37507  33.289  27.249   8.736
 2665POPC   C2B37508  33.485  27.252   8.320
 2665POPC   C3B37509  33.333  27.194   7.895
 2665POPC   C4B37510  33.239  27.120   7.459
 2666POPC   NC337511   8.858  21.060   9.570
 2666POPC   PO437512   8.956  20.397   9.503
 2666POPC   GL137513   9.091  20.675   9.197
 2666POPC   GL237514   8.791  20.837   9.034
 2666POPC   C1A37515   9.184  20.621   8.756
 2666POPC   D2A37516   8.888  20.554   8.393
 2666POPC   C3A37517   9.096  20.484   8.000
 2666POPC   C4A37518   9.123  20.536   7.543
 2666POPC   C1B37519   8.690  21.052   8.618
 2666POPC   C2B37520   8.648  20.979   8.154
 2666POPC   C3B37521   8.706  20.716   7.767
 2666POPC   C4B37522   8.600  20.750   7.277
 2667POPC   NC337523  22.378  41.785   9.562
 2667POPC   PO437524  21.775  41.374   9.606
 2667POPC   GL137525  22.089  41.403   9.299
 2667POPC   GL237526  21.997  41.726   9.207
 2667POPC   C1A37527  22.298  41.309   8.888
 2667POPC   D2A37528  22.179  41.381   8.441
 2667POPC   C3A37529  22.321  41.221   8.060
 2667POPC   C4A37530  22.281  41.308   7.625
 2667POPC   C1B37531  21.903  41.663   8.789
 2667POPC   C2B37532  22.024  41.853   8.370
 2667POPC   C3B37533  22.277  41.732   7.986
 2667POPC   C4B37534  22.029  41.769   7.612
 2668POPC   NC337535  29.400  31.975   9.456
 2668POPC   PO437536  29.114  32.603   9.539
 2668POPC   GL137537  29.160  32.365   9.176
 2668POPC   GL237538  29.311  32.634   9.039
 2668POPC   C1A37539  29.151  32.274   8.724
 2668POPC   D2A37540  28.877  32.071   8.439
 2668POPC   C3A37541  29.008  32.067   8.019
 2668POPC   C4A37542  29.006  32.367   7.735
 2668POPC   C1B37543  29.423  32.689   8.623
 2668POPC   C2B37544  29.219  32.530   8.241
 2668POPC   C3B37545  29.456  32.587   7.863
 2668POPC   C4B37546  29.499  32.517   7.406
 2669POPC   NC337547  32.805  22.185   9.520
 2669POPC   PO437548  33.477  22.039   9.461
 2669POPC   GL137549  33.130  21.999   9.130
 2669POPC   GL237550  32.928  22.297   9.034
 2669POPC   C1A37551  32.857  21.831   8.760
 2669POPC   D2A37552  32.694  21.714   8.325
 2669POPC   C3A37553  32.809  22.013   8.026
 2669POPC   C4A37554  33.080  22.227   7.784
 2669POPC   C1B37555  32.630  22.448   8.766
 2669POPC   C2B37556  32.757  22.407   8.352
 2669POPC   C3B37557  32.525  22.459   8.017
 2669POPC   C4B37558  32.474  22.281   7.663
 2670POPC   NC337559   3.510  41.108   9.219
 2670POPC   PO437560   3.404  40.495   9.445
 2670POPC   GL137561   3.411  40.351   9.034
 2670POPC   GL237562   3.320  40.699   8.976
 2670POPC   C1A37563   3.623  40.445   8.648
 2670POPC   D2A37564   3.777  40.859   8.506
 2670POPC   C3A37565   3.807  40.855   8.076
 2670POPC   C4A37566   3.474  40.949   7.773
 2670POPC   C1B37567   3.269  40.849   8.565
 2670POPC   C2B37568   3.310  40.670   8.172
 2670POPC   C3B37569   3.113  40.497   7.772
 2670POPC   C4B37570   2.982  40.587   7.301
 2671POPC   NC337571   0.933  16.064   9.495
 2671POPC   PO437572   1.641  16.240   9.494
 2671POPC   GL137573   1.365  16.051   9.215
 2671POPC   GL237574   1.238  15.700   9.243
 2671POPC   C1A37575   1.211  16.038   8.805
 2671POPC   D2A37576   1.349  15.954   8.397
 2671POPC   C3A37577   1.177  16.244   8.094
 2671POPC   C4A37578   1.177  16.113   7.654
 2671POPC   C1B37579   0.942  15.630   8.877
 2671POPC   C2B37580   0.968  15.580   8.421
 2671POPC   C3B37581   0.974  15.757   7.999
 2671POPC   C4B37582   0.624  15.770   7.699
 2672POPC   NC337583  44.296   5.027   9.501
 2672POPC   PO437584  44.904   5.169   9.279
 2672POPC   GL137585  44.601   4.920   9.026
 2672POPC   GL237586  44.236   4.779   9.071
 2672POPC   C1A37587  44.446   5.151   8.649
 2672POPC   D2A37588  44.394   5.174   8.195
 2672POPC   C3A37589  44.750   5.054   7.932
 2672POPC   C4A37590   0.003   5.347   7.734
 2672POPC   C1B37591  44.305   4.668   8.658
 2672POPC   C2B37592  44.421   4.640   8.221
 2672POPC   C3B37593  44.304   4.804   7.821
 2672POPC   C4B37594  44.282   5.037   7.466
 2673POPC   NC337595  36.838   9.872   9.671
 2673POPC   PO437596  36.743   9.354   9.220
 2673POPC   GL137597  36.855   9.777   9.130
 2673POPC   GL237598  36.615   9.999   9.246
 2673POPC   C1A37599  36.892   9.845   8.687
 2673POPC   D2A37600  36.828   9.658   8.275
 2673POPC   C3A37601  37.040   9.633   7.872
 2673POPC   C4A37602  36.956   9.345   7.514
 2673POPC   C1B37603  36.483  10.050   8.885
 2673POPC   C2B37604  36.463  10.130   8.480
 2673POPC   C3B37605  36.428   9.910   8.128
 2673POPC   C4B37606  36.670   9.965   7.780
 2674POPC   NC337607  28.981   7.301   9.485
 2674POPC   PO437608  28.852   7.847   9.161
 2674POPC   GL137609  29.229   7.594   9.103
 2674POPC   GL237610  29.475   7.917   9.106
 2674POPC   C1A37611  29.238   7.318   8.758
 2674POPC   D2A37612  29.083   7.515   8.379
 2674POPC   C3A37613  29.118   7.260   8.035
 2674POPC   C4A37614  29.198   7.366   7.616
 2674POPC   C1B37615  29.522   7.736   8.719
 2674POPC   C2B37616  29.606   7.525   8.359
 2674POPC   C3B37617  29.484   7.649   7.955
 2674POPC   C4B37618  29.394   7.852   7.559
 2675POPC   NC337619  12.498  24.435   9.476
 2675POPC   PO437620  13.207  24.425   9.482
 2675POPC   GL137621  12.958  24.574   9.147
 2675POPC   GL237622  12.676  24.776   9.150
 2675POPC   C1A37623  12.971  24.731   8.730
 2675POPC   D2A37624  13.081  24.759   8.312
 2675POPC   C3A37625  13.212  24.381   8.092
 2675POPC   C4A37626  13.069  24.429   7.676
 2675POPC   C1B37627  12.542  24.482   8.812
 2675POPC   C2B37628  12.645  24.303   8.423
 2675POPC   C3B37629  12.716  24.474   8.042
 2675POPC   C4B37630  12.562  24.587   7.654
 2676POPC   NC337631  13.550   5.128   9.453
 2676POPC   PO437632  13.869   5.727   9.450
 2676POPC   GL137633  13.782   5.449   9.137
 2676POPC   GL237634  13.446   5.520   9.107
 2676POPC   C1A37635  13.760   5.102   8.825
 2676POPC   D2A37636  13.897   5.104   8.401
 2676POPC   C3A37637  13.727   5.009   8.005
 2676POPC   C4A37638  13.692   5.035   7.564
 2676POPC   C1B37639  13.443   5.460   8.668
 2676POPC   C2B37640  13.413   5.351   8.248
 2676POPC   C3B37641  13.404   5.385   7.804
 2676POPC   C4B37642  13.242   4.946   7.793
 2677POPC   NC337643  29.653   5.070   9.369
 2677POPC   PO437644  30.254   5.246   9.429
 2677POPC   GL137645  30.040   5.392   9.085
 2677POPC   GL237646  29.715   5.542   9.125
 2677POPC   C1A37647  30.026   5.110   8.761
 2677POPC   D2A37648  30.180   5.043   8.363
 2677POPC   C3A37649  29.845   4.892   8.118
 2677POPC   C4A37650  29.918   4.678   7.739
 2677POPC   C1B37651  29.550   5.327   8.775
 2677POPC   C2B37652  29.730   5.334   8.399
 2677POPC   C3B37653  29.548   5.299   8.029
 2677POPC   C4B37654  29.819   5.205   7.715
 2678POPC   NC337655   6.419  36.778   9.702
 2678POPC   PO437656   6.913  37.114   9.330
 2678POPC   GL137657   6.612  37.004   9.120
 2678POPC   GL237658   6.506  36.698   9.196
 2678POPC   C1A37659   6.780  36.805   8.748
 2678POPC   D2A37660   6.912  36.674   8.367
 2678POPC   C3A37661   6.926  36.954   8.048
 2678POPC   C4A37662   6.963  36.721   7.672
 2678POPC   C1B37663   6.279  36.780   8.812
 2678POPC   C2B37664   6.376  36.630   8.391
 2678POPC   C3B37665   6.460  36.819   7.996
 2678POPC   C4B37666   6.465  36.654   7.594
 2679POPC   NC337667  16.399  17.951   9.701
 2679POPC   PO437668  16.883  18.307   9.466
 2679POPC   GL137669  16.754  18.233   9.067
 2679POPC   GL237670  16.851  17.924   8.942
 2679POPC   C1A37671  16.868  18.426   8.686
 2679POPC   D2A37672  16.780  18.717   8.346
 2679POPC   C3A37673  16.819  18.557   7.939
 2679POPC   C4A37674  16.563  18.459   7.611
 2679POPC   C1B37675  16.616  17.957   8.621
 2679POPC   C2B37676  16.746  18.144   8.266
 2679POPC   C3B37677  16.804  18.040   7.851
 2679POPC   C4B37678  16.862  18.069   7.454
 2680POPC   NC337679  31.205  19.200   9.632
 2680POPC   PO437680  31.703  18.707   9.572
 2680POPC   GL137681  31.754  18.847   9.168
 2680POPC   GL237682  31.502  19.069   9.225
 2680POPC   C1A37683  31.711  19.049   8.752
 2680POPC   D2A37684  31.495  19.007   8.356
 2680POPC   C3A37685  31.609  19.079   7.899
 2680POPC   C4A37686  31.678  18.763   7.562
 2680POPC   C1B37687  31.256  18.809   8.906
 2680POPC   C2B37688  31.060  18.748   8.487
 2680POPC   C3B37689  31.076  18.961   8.073
 2680POPC   C4B37690  30.993  18.742   7.684
 2681POPC   NC337691  30.233  39.988   9.690
 2681POPC   PO437692  30.768  40.245   9.545
 2681POPC   GL137693  30.616  40.219   9.125
 2681POPC   GL237694  30.269  40.294   9.123
 2681POPC   C1A37695  30.691  40.083   8.679
 2681POPC   D2A37696  30.551  39.945   8.243
 2681POPC   C3A37697  30.844  39.999   7.895
 2681POPC   C4A37698  30.854  39.829   7.443
 2681POPC   C1B37699  30.416  40.507   8.739
 2681POPC   C2B37700  30.601  40.443   8.301
 2681POPC   C3B37701  30.483  40.404   7.875
 2681POPC   C4B37702  30.399  40.013   7.639
 2682POPC   NC337703  20.162  17.888   9.305
 2682POPC   PO437704  19.579  18.146   9.588
 2682POPC   GL137705  19.790  18.275   9.170
 2682POPC   GL237706  20.150  18.330   9.061
 2682POPC   C1A37707  19.680  18.480   8.748
 2682POPC   D2A37708  19.414  18.576   8.342
 2682POPC   C3A37709  19.500  18.345   7.981
 2682POPC   C4A37710  19.801  18.472   7.689
 2682POPC   C1B37711  20.156  18.352   8.624
 2682POPC   C2B37712  19.961  18.410   8.248
 2682POPC   C3B37713  20.185  18.241   7.909
 2682POPC   C4B37714  20.310  18.287   7.501
 2683POPC   NC337715  13.951  17.533   9.462
 2683POPC   PO437716  13.462  17.180   9.457
 2683POPC   GL137717  13.602  17.427   9.061
 2683POPC   GL237718  13.907  17.594   8.967
 2683POPC   C1A37719  13.615  17.392   8.573
 2683POPC   D2A37720  13.345  17.227   8.221
 2683POPC   C3A37721  13.589  17.222   7.865
 2683POPC   C4A37722  14.006  17.337   7.774
 2683POPC   C1B37723  14.026  17.736   8.582
 2683POPC   C2B37724  13.832  17.776   8.180
 2683POPC   C3B37725  14.113  17.837   7.817
 2683POPC   C4B37726  14.019  17.816   7.371
 2684POPC   NC337727  25.380  20.636   9.810
 2684POPC   PO437728  25.425  20.982   9.234
 2684POPC   GL137729  25.178  20.692   9.081
 2684POPC   GL237730  24.859  20.845   9.071
 2684POPC   C1A37731  25.291  20.752   8.654
 2684POPC   D2A37732  25.635  20.871   8.428
 2684POPC   C3A37733  25.570  20.680   8.066
 2684POPC   C4A37734  25.293  20.781   7.768
 2684POPC   C1B37735  24.814  20.581   8.716
 2684POPC   C2B37736  24.973  20.682   8.274
 2684POPC   C3B37737  24.806  20.783   7.894
 2684POPC   C4B37738  24.936  20.438   7.655
 2685POPC   NC337739  27.888  43.230   9.378
 2685POPC   PO437740  27.463  42.728   9.542
 2685POPC   GL137741  27.524  42.936   9.152
 2685POPC   GL237742  27.811  42.780   9.137
 2685POPC   C1A37743  27.714  43.107   8.735
 2685POPC   D2A37744  27.561  43.186   8.312
 2685POPC   C3A37745  27.779  43.214   7.915
 2685POPC   C4A37746  27.589  43.132   7.517
 2685POPC   C1B37747  27.639  42.595   8.775
 2685POPC   C2B37748  27.526  42.668   8.365
 2685POPC   C3B37749  27.492  42.780   7.950
 2685POPC   C4B37750  27.341  42.662   7.534
 2686POPC   NC337751  37.999  40.446   9.619
 2686POPC   PO437752  37.501  40.851   9.446
 2686POPC   GL137753  37.572  40.888   9.033
 2686POPC   GL237754  37.292  40.715   8.962
 2686POPC   C1A37755  37.840  40.797   8.676
 2686POPC   D2A37756  37.859  40.977   8.263
 2686POPC   C3A37757  37.506  40.968   8.001
 2686POPC   C4A37758  37.563  40.775   7.610
 2686POPC   C1B37759  37.459  40.434   8.695
 2686POPC   C2B37760  37.570  40.526   8.319
 2686POPC   C3B37761  37.356  40.476   7.976
 2686POPC   C4B37762  37.120  40.526   7.620
 2687POPC   NC337763  20.156  24.268   9.325
 2687POPC   PO437764  20.754  24.181   9.697
 2687POPC   GL137765  20.864  24.156   9.196
 2687POPC   GL237766  20.545  24.115   9.045
 2687POPC   C1A37767  20.829  24.351   8.719
 2687POPC   D2A37768  20.528  24.647   8.505
 2687POPC   C3A37769  20.597  24.716   8.062
 2687POPC   C4A37770  20.409  24.762   7.656
 2687POPC   C1B37771  20.319  24.193   8.653
 2687POPC   C2B37772  20.305  24.254   8.173
 2687POPC   C3B37773  20.518  24.262   7.793
 2687POPC   C4B37774  20.934  24.388   7.800
 2688POPC   NC337775   3.240  39.415   9.451
 2688POPC   PO437776   3.716  38.985   9.608
 2688POPC   GL137777   3.605  39.151   9.198
 2688POPC   GL237778   3.409  38.858   9.132
 2688POPC   C1A37779   3.518  39.421   8.815
 2688POPC   D2A37780   3.645  39.681   8.436
 2688POPC   C3A37781   3.694  39.458   8.042
 2688POPC   C4A37782   3.487  39.483   7.644
 2688POPC   C1B37783   3.630  38.859   8.764
 2688POPC   C2B37784   3.554  39.090   8.402
 2688POPC   C3B37785   3.353  39.095   8.031
 2688POPC   C4B37786   3.558  38.926   7.706
 2689POPC   NC337787  18.576  36.281   9.420
 2689POPC   PO437788  19.194  35.959   9.476
 2689POPC   GL137789  19.337  36.274   9.200
 2689POPC   GL237790  19.029  36.451   9.205
 2689POPC   C1A37791  19.164  36.184   8.785
 2689POPC   D2A37792  19.039  35.912   8.475
 2689POPC   C3A37793  19.271  36.072   8.174
 2689POPC   C4A37794  19.230  36.016   7.773
 2689POPC   C1B37795  18.870  36.605   8.780
 2689POPC   C2B37796  18.918  36.429   8.366
 2689POPC   C3B37797  18.883  36.361   7.929
 2689POPC   C4B37798  18.705  36.664   7.649
 2690POPC   NC337799   4.300  41.588   9.628
 2690POPC   PO437800   3.694  41.342   9.583
 2690POPC   GL137801   4.026  41.561   9.192
 2690POPC   GL237802   4.420  41.499   9.145
 2690POPC   C1A37803   4.187  41.670   8.720
 2690POPC   D2A37804   4.112  41.449   8.299
 2690POPC   C3A37805   4.186  41.708   7.915
 2690POPC   C4A37806   4.346  41.649   7.481
 2690POPC   C1B37807   4.601  41.397   8.722
 2690POPC   C2B37808   4.584  41.633   8.316
 2690POPC   C3B37809   4.714  41.602   7.877
 2690POPC   C4B37810   4.881  41.221   7.680
 2691POPC   NC337811  33.330  43.240   5.376
 2691POPC   PO437812  32.771  42.913   5.443
 2691POPC   GL137813  32.880  43.118   5.808
 2691POPC   GL237814  32.997  43.446   5.737
 2691POPC   C1A37815  32.979  43.047   6.240
 2691POPC   D2A37816  33.201  43.191   6.616
 2691POPC   C3A37817  33.037  43.061   7.012
 2691POPC   C4A37818  33.315  43.289   7.254
 2691POPC   C1B37819  32.837  43.540   6.126
 2691POPC   C2B37820  32.724  43.383   6.542
 2691POPC   C3B37821  32.903  43.533   6.924
 2691POPC   C4B37822  32.768  43.478   7.332
 2692POPC   NC337823  17.580  34.841   5.701
 2692POPC   PO437824  17.317  34.295   5.438
 2692POPC   GL137825  17.227  34.484   5.876
 2692POPC   GL237826  17.201  34.838   6.044
 2692POPC   C1A37827  17.441  34.355   6.274
 2692POPC   D2A37828  17.418  34.387   6.728
 2692POPC   C3A37829  17.739  34.290   7.001
 2692POPC   C4A37830  17.929  34.455   7.414
 2692POPC   C1B37831  17.473  34.866   6.420
 2692POPC   C2B37832  17.686  34.851   6.810
 2692POPC   C3B37833  17.513  34.689   7.176
 2692POPC   C4B37834  17.169  34.376   7.203
 2693POPC   NC337835  42.549  14.055   5.063
 2693POPC   PO437836  42.190  13.498   5.270
 2693POPC   GL137837  42.208  13.579   5.699
 2693POPC   GL237838  42.427  13.891   5.754
 2693POPC   C1A37839  42.437  13.475   6.082
 2693POPC   D2A37840  42.646  13.472   6.495
 2693POPC   C3A37841  42.374  13.499   6.872
 2693POPC   C4A37842  42.438  13.444   7.316
 2693POPC   C1B37843  42.117  13.895   6.131
 2693POPC   C2B37844  42.057  13.848   6.611
 2693POPC   C3B37845  42.313  14.002   6.986
 2693POPC   C4B37846  42.424  13.954   7.438
 2694POPC   NC337847  18.061  41.789   5.443
 2694POPC   PO437848  17.376  41.805   5.375
 2694POPC   GL137849  17.500  41.730   5.793
 2694POPC   GL237850  17.844  41.809   5.914
 2694POPC   C1A37851  17.435  41.774   6.232
 2694POPC   D2A37852  17.783  41.821   6.510
 2694POPC   C3A37853  17.577  41.652   6.843
 2694POPC   C4A37854  17.192  41.548   7.043
 2694POPC   C1B37855  17.764  41.401   6.124
 2694POPC   C2B37856  17.859  41.277   6.551
 2694POPC   C3B37857  17.962  41.364   7.001
 2694POPC   C4B37858  17.644  41.504   7.323
 2695POPC   NC337859   7.272  40.599   5.160
 2695POPC   PO437860   7.582  41.136   5.291
 2695POPC   GL137861   7.587  40.765   5.607
 2695POPC   GL237862   7.265  40.668   5.691
 2695POPC   C1A37863   7.711  40.738   6.080
 2695POPC   D2A37864   7.581  40.969   6.466
 2695POPC   C3A37865   7.627  40.870   6.908
 2695POPC   C4A37866   7.835  40.483   7.065
 2695POPC   C1B37867   7.224  40.543   6.127
 2695POPC   C2B37868   7.479  40.460   6.501
 2695POPC   C3B37869   7.340  40.422   6.921
 2695POPC   C4B37870   7.347  40.661   7.302
 2696POPC   NC337871  44.509  39.242   5.418
 2696POPC   PO437872  43.863  39.460   5.336
 2696POPC   GL137873  43.861  39.257   5.778
 2696POPC   GL237874  43.598  38.985   5.768
 2696POPC   C1A37875  43.959  39.385   6.244
 2696POPC   D2A37876  43.842  39.593   6.659
 2696POPC   C3A37877  44.170  39.517   6.984
 2696POPC   C4A37878  44.165  39.156   7.237
 2696POPC   C1B37879  43.564  39.059   6.201
 2696POPC   C2B37880  43.708  39.054   6.612
 2696POPC   C3B37881  43.702  39.179   7.043
 2696POPC   C4B37882  43.741  39.057   7.505
 2697POPC   NC337883  16.246  10.369   5.374
 2697POPC   PO437884  16.985  10.613   5.378
 2697POPC   GL137885  16.892  10.549   5.835
 2697POPC   GL237886  16.668  10.837   5.875
 2697POPC   C1A37887  16.763  10.414   6.297
 2697POPC   D2A37888  16.596  10.246   6.721
 2697POPC   C3A37889  16.636  10.552   7.087
 2697POPC   C4A37890  16.687  10.680   7.544
 2697POPC   C1B37891  17.005  10.916   6.184
 2697POPC   C2B37892  17.132  10.955   6.601
 2697POPC   C3B37893  17.124  10.776   6.994
 2697POPC   C4B37894  17.137  10.915   7.428
 2698POPC   NC337895  39.654  34.932   5.412
 2698POPC   PO437896  40.173  34.493   5.335
 2698POPC   GL137897  40.020  34.706   5.742
 2698POPC   GL237898  39.645  34.595   5.798
 2698POPC   C1A37899  40.187  34.724   6.195
 2698POPC   D2A37900  40.278  34.810   6.653
 2698POPC   C3A37901  40.050  34.590   7.012
 2698POPC   C4A37902  39.839  34.190   7.161
 2698POPC   C1B37903  39.642  34.695   6.241
 2698POPC   C2B37904  39.651  34.758   6.701
 2698POPC   C3B37905  39.748  35.048   7.052
 2698POPC   C4B37906  39.890  34.974   7.460
 2699POPC   NC337907  21.742  38.159   5.147
 2699POPC   PO437908  21.212  38.374   5.468
 2699POPC   GL137909  21.329  38.284   5.842
 2699POPC   GL237910  21.664  38.316   5.745
 2699POPC   C1A37911  21.271  38.563   6.202
 2699POPC   D2A37912  21.068  38.459   6.553
 2699POPC   C3A37913  21.342  38.457   6.871
 2699POPC   C4A37914  21.241  38.692   7.165
 2699POPC   C1B37915  21.726  38.347   6.181
 2699POPC   C2B37916  21.742  38.235   6.604
 2699POPC   C3B37917  21.845  38.283   6.995
 2699POPC   C4B37918  21.655  38.465   7.322
 2700POPC   NC337919   9.143  11.503   5.420
 2700POPC   PO437920   8.647  11.047   5.496
 2700POPC   GL137921   9.047  11.126   5.799
 2700POPC   GL237922   9.126  11.486   5.941
 2700POPC   C1A37923   9.230  11.101   6.247
 2700POPC   D2A37924   9.178  11.365   6.634
 2700POPC   C3A37925   9.236  11.203   7.053
 2700POPC   C4A37926   9.064  11.247   7.483
 2700POPC   C1B37927   8.786  11.375   6.285
 2700POPC   C2B37928   8.688  11.326   6.760
 2700POPC   C3B37929   8.885  11.585   7.114
 2700POPC   C4B37930   8.950  11.737   7.551
 2701POPC   NC337931  22.574   3.418   5.508
 2701POPC   PO437932  23.160   3.716   5.517
 2701POPC   GL137933  23.073   3.741   5.963
 2701POPC   GL237934  22.714   3.720   5.988
 2701POPC   C1A37935  23.017   3.496   6.353
 2701POPC   D2A37936  22.759   3.240   6.644
 2701POPC   C3A37937  22.750   3.416   7.064
 2701POPC   C4A37938  22.972   3.808   7.196
 2701POPC   C1B37939  22.551   3.697   6.424
 2701POPC   C2B37940  22.576   3.849   6.855
 2701POPC   C3B37941  22.467   3.825   7.294
 2701POPC   C4B37942  22.378   3.621   7.685
 2702POPC   NC337943  10.566  35.873   5.272
 2702POPC   PO437944  10.781  36.499   5.236
 2702POPC   GL137945  10.720  36.288   5.678
 2702POPC   GL237946  10.591  35.959   5.781
 2702POPC   C1A37947  10.529  36.347   6.121
 2702POPC   D2A37948  10.670  36.318   6.574
 2702POPC   C3A37949  10.441  36.171   6.955
 2702POPC   C4A37950  10.518  36.064   7.386
 2702POPC   C1B37951  10.588  35.834   6.232
 2702POPC   C2B37952  10.567  35.754   6.674
 2702POPC   C3B37953  10.522  35.640   7.108
 2702POPC   C4B37954  10.136  35.729   7.367
 2703POPC   NC337955  16.774   4.222   5.214
 2703POPC   PO437956  16.777   3.509   5.335
 2703POPC   GL137957  16.921   3.372   5.757
 2703POPC   GL237958  16.666   3.130   5.829
 2703POPC   C1A37959  17.101   3.485   6.158
 2703POPC   D2A37960  17.146   3.594   6.590
 2703POPC   C3A37961  16.812   3.688   6.911
 2703POPC   C4A37962  16.444   3.551   7.134
 2703POPC   C1B37963  16.629   3.266   6.252
 2703POPC   C2B37964  16.455   3.287   6.683
 2703POPC   C3B37965  16.482   3.040   7.076
 2703POPC   C4B37966  16.496   3.203   7.506
 2704POPC   NC337967  30.857  43.447   5.405
 2704POPC   PO437968  30.320  43.057   5.346
 2704POPC   GL137969  30.574  43.055   5.759
 2704POPC   GL237970  30.930  43.097   5.860
 2704POPC   C1A37971  30.532  43.073   6.217
 2704POPC   D2A37972  30.568  42.923   6.630
 2704POPC   C3A37973  30.634  43.243   6.951
 2704POPC   C4A37974  30.514  43.228   7.370
 2704POPC   C1B37975  31.019  42.931   6.295
 2704POPC   C2B37976  31.043  43.006   6.757
 2704POPC   C3B37977  30.975  42.935   7.182
 2704POPC   C4B37978  30.993  43.235   7.496
 2705POPC   NC337979  14.276   0.812   5.636
 2705POPC   PO437980  14.235   0.115   5.387
 2705POPC   GL137981  14.386   0.299   5.786
 2705POPC   GL237982  14.073   0.351   5.868
 2705POPC   C1A37983  14.645   0.291   6.203
 2705POPC   D2A37984  14.771   0.547   6.556
 2705POPC   C3A37985  14.748   0.417   6.981
 2705POPC   C4A37986  14.444   0.689   7.174
 2705POPC   C1B37987  14.196   0.477   6.289
 2705POPC   C2B37988  14.334   0.267   6.684
 2705POPC   C3B37989  14.285   0.189   7.139
 2705POPC   C4B37990  14.251  44.831   7.407
 2706POPC   NC337991   9.806  41.911   5.491
 2706POPC   PO437992   9.706  42.540   5.417
 2706POPC   GL137993   9.484  42.412   5.780
 2706POPC   GL237994   9.489  42.061   5.882
 2706POPC   C1A37995   9.587  42.448   6.209
 2706POPC   D2A37996   9.732  42.684   6.577
 2706POPC   C3A37997   9.685  42.537   7.005
 2706POPC   C4A37998   9.731  42.361   7.414
 2706POPC   C1B37999   9.829  42.017   6.250
 2706POPC   C2B38000   9.734  41.910   6.693
 2706POPC   C3B38001   9.929  42.018   7.093
 2706POPC   C4B38002  10.104  42.018   7.536
 2707POPC   NC338003  13.142   4.013   5.465
 2707POPC   PO438004  12.399   3.911   5.515
 2707POPC   GL138005  12.683   4.142   5.847
 2707POPC   GL238006  13.052   4.159   5.942
 2707POPC   C1A38007  12.681   4.326   6.254
 2707POPC   D2A38008  12.899   4.169   6.600
 2707POPC   C3A38009  12.721   4.418   6.885
 2707POPC   C4A38010  12.662   4.349   7.289
 2707POPC   C1B38011  13.150   4.501   6.235
 2707POPC   C2B38012  13.131   4.659   6.663
 2707POPC   C3B38013  13.192   4.411   7.042
 2707POPC   C4B38014  13.135   4.225   7.444
 2708POPC   NC338015  25.003  10.286   4.960
 2708POPC   PO438016  24.947   9.739   5.333
 2708POPC   GL138017  25.209   9.672   5.744
 2708POPC   GL238018  25.359   9.987   5.910
 2708POPC   C1A38019  25.341   9.543   6.183
 2708POPC   D2A38020  25.296   9.780   6.566
 2708POPC   C3A38021  25.305   9.564   6.922
 2708POPC   C4A38022  25.528   9.603   7.270
 2708POPC   C1B38023  24.979   9.936   6.199
 2708POPC   C2B38024  24.822   9.953   6.671
 2708POPC   C3B38025  25.073   9.993   7.067
 2708POPC   C4B38026  25.537  10.085   7.136
 2709POPC   NC338027   3.529  22.622   5.268
 2709POPC   PO438028   3.694  22.012   5.244
 2709POPC   GL138029   3.610  22.234   5.645
 2709POPC   GL238030   3.318  22.065   5.803
 2709POPC   C1A38031   3.787  22.349   6.078
 2709POPC   D2A38032   3.809  22.155   6.520
 2709POPC   C3A38033   3.579  22.305   6.884
 2709POPC   C4A38034   3.777  22.273   7.249
 2709POPC   C1B38035   3.455  21.984   6.198
 2709POPC   C2B38036   3.287  22.013   6.583
 2709POPC   C3B38037   3.236  21.828   6.957
 2709POPC   C4B38038   3.332  22.049   7.325
 2710POPC   NC338039  35.268  28.579   5.459
 2710POPC   PO438040  35.013  29.187   5.397
 2710POPC   GL138041  35.267  29.167   5.762
 2710POPC   GL238042  35.092  28.872   5.857
 2710POPC   C1A38043  35.544  29.308   6.131
 2710POPC   D2A38044  35.535  29.576   6.530
 2710POPC   C3A38045  35.429  29.344   6.943
 2710POPC   C4A38046  35.017  29.153   7.062
 2710POPC   C1B38047  35.458  28.725   6.085
 2710POPC   C2B38048  35.581  28.805   6.516
 2710POPC   C3B38049  35.390  28.796   6.916
 2710POPC   C4B38050  35.496  28.867   7.320
 2711POPC   NC338051   8.434  38.321   5.359
 2711POPC   PO438052   7.821  38.502   5.108
 2711POPC   GL138053   8.011  38.485   5.587
 2711POPC   GL238054   8.334  38.658   5.726
 2711POPC   C1A38055   8.031  38.451   6.080
 2711POPC   D2A38056   8.197  38.578   6.495
 2711POPC   C3A38057   7.991  38.390   6.827
 2711POPC   C4A38058   7.985  38.435   7.273
 2711POPC   C1B38059   8.412  38.920   6.131
 2711POPC   C2B38060   8.633  38.851   6.520
 2711POPC   C3B38061   8.515  38.744   6.952
 2711POPC   C4B38062   8.697  38.723   7.369
 2712POPC   NC338063  25.632  22.982   5.570
 2712POPC   PO438064  25.009  22.717   5.353
 2712POPC   GL138065  25.136  22.877   5.780
 2712POPC   GL238066  25.454  22.757   5.979
 2712POPC   C1A38067  25.067  23.030   6.213
 2712POPC   D2A38068  25.294  22.873   6.575
 2712POPC   C3A38069  25.188  23.042   6.968
 2712POPC   C4A38070  24.879  22.813   7.185
 2712POPC   C1B38071  25.644  23.090   6.259
 2712POPC   C2B38072  25.748  23.075   6.700
 2712POPC   C3B38073  25.590  22.754   7.006
 2712POPC   C4B38074  25.273  22.489   7.134
 2713POPC   NC338075  31.227  42.677   5.314
 2713POPC   PO438076  30.655  42.371   5.602
 2713POPC   GL138077  30.832  42.576   5.945
 2713POPC   GL238078  31.185  42.649   5.844
 2713POPC   C1A38079  30.668  42.490   6.368
 2713POPC   D2A38080  30.552  42.111   6.622
 2713POPC   C3A38081  30.475  42.114   7.067
 2713POPC   C4A38082  30.429  42.369   7.440
 2713POPC   C1B38083  31.229  42.466   6.263
 2713POPC   C2B38084  31.098  42.538   6.624
 2713POPC   C3B38085  30.799  42.499   6.903
 2713POPC   C4B38086  30.952  42.430   7.292
 2714POPC   NC338087  16.979  11.010   5.147
 2714POPC   PO438088  16.515  11.474   5.184
 2714POPC   GL138089  16.468  11.346   5.672
 2714POPC   GL238090  16.474  11.626   5.911
 2714POPC   C1A38091  16.537  11.226   6.183
 2714POPC   D2A38092  16.700  11.324   6.607
 2714POPC   C3A38093  16.686  11.054   6.925
 2714POPC   C4A38094  16.426  11.025   7.255
 2714POPC   C1B38095  16.624  11.768   6.341
 2714POPC   C2B38096  16.643  11.787   6.819
 2714POPC   C3B38097  16.718  11.527   7.208
 2714POPC   C4B38098  16.737  11.677   7.631
 2715POPC   NC338099  32.668  41.666   5.390
 2715POPC   PO438100  32.010  41.395   5.467
 2715POPC   GL138101  32.278  41.613   5.786
 2715POPC   GL238102  32.508  41.374   5.932
 2715POPC   C1A38103  32.195  41.643   6.246
 2715POPC   D2A38104  32.309  41.726   6.665
 2715POPC   C3A38105  32.188  41.536   7.043
 2715POPC   C4A38106  32.256  41.777   7.417
 2715POPC   C1B38107  32.629  41.343   6.391
 2715POPC   C2B38108  32.635  41.296   6.831
 2715POPC   C3B38109  32.582  41.306   7.266
 2715POPC   C4B38110  32.448  41.367   7.694
 2716POPC   NC338111  18.256  25.727   5.318
 2716POPC   PO438112  18.487  26.368   5.513
 2716POPC   GL138113  18.339  26.215   5.913
 2716POPC   GL238114  18.263  25.880   5.811
 2716POPC   C1A38115  18.192  26.045   6.332
 2716POPC   D2A38116  18.021  26.112   6.756
 2716POPC   C3A38117  18.287  26.064   7.119
 2716POPC   C4A38118  18.578  25.773   7.337
 2716POPC   C1B38119  17.842  25.864   6.001
 2716POPC   C2B38120  17.758  25.778   6.434
 2716POPC   C3B38121  17.992  25.582   6.763
 2716POPC   C4B38122  18.056  25.609   7.213
 2717POPC   NC338123  23.523  35.639   5.404
 2717POPC   PO438124  23.819  35.109   5.168
 2717POPC   GL138125  23.630  35.197   5.653
 2717POPC   GL238126  23.702  35.499   5.839
 2717POPC   C1A38127  23.457  35.180   6.124
 2717POPC   D2A38128  23.389  35.034   6.584
 2717POPC   C3A38129  23.547  35.351   6.936
 2717POPC   C4A38130  23.490  35.581   7.382
 2717POPC   C1B38131  23.923  35.421   6.193
 2717POPC   C2B38132  23.894  35.151   6.536
 2717POPC   C3B38133  24.058  35.200   6.924
 2717POPC   C4B38134  24.239  35.429   7.238
 2718POPC   NC338135  20.172   7.226   5.504
 2718POPC   PO438136  20.679   7.726   5.228
 2718POPC   GL138137  20.747   7.651   5.680
 2718POPC   GL238138  20.609   7.342   5.734
 2718POPC   C1A38139  20.773   7.585   6.157
 2718POPC   D2A38140  20.605   7.461   6.568
 2718POPC   C3A38141  20.830   7.538   6.962
 2718POPC   C4A38142  20.735   7.616   7.404
 2718POPC   C1B38143  20.384   7.195   6.149
 2718POPC   C2B38144  20.200   7.143   6.601
 2718POPC   C3B38145  20.371   7.295   7.026
 2718POPC   C4B38146  20.388   7.243   7.489
 2719POPC   NC338147  35.474  22.634   5.381
 2719POPC   PO438148  35.136  23.208   5.554
 2719POPC   GL138149  35.397  22.925   5.827
 2719POPC   GL238150  35.647  22.634   5.864
 2719POPC   C1A38151  35.573  22.994   6.234
 2719POPC   D2A38152  35.649  22.910   6.671
 2719POPC   C3A38153  35.277  22.980   6.937
 2719POPC   C4A38154  35.280  23.203   7.296
 2719POPC   C1B38155  35.869  22.558   6.257
 2719POPC   C2B38156  35.656  22.393   6.611
 2719POPC   C3B38157  35.530  22.537   7.010
 2719POPC   C4B38158  35.443  22.720   7.397
 2720POPC   NC338159   1.032   8.934   5.376
 2720POPC   PO438160   1.699   8.952   5.506
 2720POPC   GL138161   1.485   9.153   5.858
 2720POPC   GL238162   1.115   9.171   5.815
 2720POPC   C1A38163   1.361   9.007   6.271
 2720POPC   D2A38164   0.996   8.758   6.485
 2720POPC   C3A38165   1.108   8.589   6.890
 2720POPC   C4A38166   1.399   8.775   7.182
 2720POPC   C1B38167   0.881   9.175   6.170
 2720POPC   C2B38168   1.053   9.289   6.548
 2720POPC   C3B38169   1.094   9.107   6.916
 2720POPC   C4B38170   0.936   9.034   7.322
 2721POPC   NC338171  12.431  37.476   5.399
 2721POPC   PO438172  11.933  37.973   5.498
 2721POPC   GL138173  12.117  37.866   5.829
 2721POPC   GL238174  12.393  38.063   5.859
 2721POPC   C1A38175  12.139  37.760   6.251
 2721POPC   D2A38176  11.866  37.793   6.589
 2721POPC   C3A38177  12.024  37.937   6.960
 2721POPC   C4A38178  12.013  37.626   7.273
 2721POPC   C1B38179  12.285  38.244   6.246
 2721POPC   C2B38180  12.417  38.002   6.609
 2721POPC   C3B38181  12.545  37.987   7.025
 2721POPC   C4B38182  12.321  38.007   7.404
 2722POPC   NC338183  41.089  33.882   5.546
 2722POPC   PO438184  40.428  33.539   5.495
 2722POPC   GL138185  40.746  33.571   5.796
 2722POPC   GL238186  41.060  33.390   5.722
 2722POPC   C1A38187  40.682  33.772   6.186
 2722POPC   D2A38188  40.429  33.725   6.541
 2722POPC   C3A38189  40.651  33.896   6.861
 2722POPC   C4A38190  40.750  33.794   7.255
 2722POPC   C1B38191  41.169  33.597   6.138
 2722POPC   C2B38192  41.026  33.722   6.559
 2722POPC   C3B38193  41.160  33.612   6.963
 2722POPC   C4B38194  41.240  33.665   7.387
 2723POPC   NC338195  29.760  17.302   5.458
 2723POPC   PO438196  30.316  17.742   5.445
 2723POPC   GL138197  30.048  17.762   5.795
 2723POPC   GL238198  29.788  17.951   5.679
 2723POPC   C1A38199  29.993  17.551   6.193
 2723POPC   D2A38200  30.212  17.573   6.582
 2723POPC   C3A38201  30.109  17.672   7.016
 2723POPC   C4A38202  29.886  17.506   7.380
 2723POPC   C1B38203  29.740  17.999   6.158
 2723POPC   C2B38204  29.795  17.893   6.645
 2723POPC   C3B38205  29.695  17.949   7.128
 2723POPC   C4B38206  29.591  17.845   7.617
 2724POPC   NC338207  29.952  40.971   5.448
 2724POPC   PO438208  30.347  41.437   5.784
 2724POPC   GL138209  30.075  41.086   5.938
 2724POPC   GL238210  29.970  40.717   5.878
 2724POPC   C1A38211  30.022  40.938   6.338
 2724POPC   D2A38212  30.146  41.101   6.731
 2724POPC   C3A38213  30.142  40.784   7.044
 2724POPC   C4A38214  30.198  40.824   7.507
 2724POPC   C1B38215  29.605  40.679   6.169
 2724POPC   C2B38216  29.381  40.567   6.561
 2724POPC   C3B38217  29.515  40.594   6.972
 2724POPC   C4B38218  29.771  40.600   7.320
 2725POPC   NC338219  43.363  12.612   5.528
 2725POPC   PO438220  42.912  13.116   5.464
 2725POPC   GL138221  42.987  12.796   5.812
 2725POPC   GL238222  42.695  12.611   5.888
 2725POPC   C1A38223  43.043  12.642   6.255
 2725POPC   D2A38224  43.257  12.822   6.604
 2725POPC   C3A38225  43.090  12.759   6.980
 2725POPC   C4A38226  43.356  12.769   7.313
 2725POPC   C1B38227  42.675  13.014   6.138
 2725POPC   C2B38228  42.764  12.987   6.572
 2725POPC   C3B38229  42.724  13.132   6.994
 2725POPC   C4B38230  42.835  12.959   7.403
 2726POPC   NC338231  29.641   0.986   5.263
 2726POPC   PO438232  30.221   1.257   5.520
 2726POPC   GL138233  30.030   1.352   5.889
 2726POPC   GL238234  29.750   1.154   5.796
 2726POPC   C1A38235  29.918   1.284   6.309
 2726POPC   D2A38236  29.828   1.532   6.656
 2726POPC   C3A38237  29.829   1.260   6.941
 2726POPC   C4A38238  30.008   1.206   7.311
 2726POPC   C1B38239  29.590   0.907   6.155
 2726POPC   C2B38240  29.710   0.772   6.566
 2726POPC   C3B38241  29.470   0.839   6.919
 2726POPC   C4B38242  29.523   1.060   7.296
 2727POPC   NC338243  13.283   0.883   5.543
 2727POPC   PO438244  13.921   0.831   5.346
 2727POPC   GL138245  13.742   1.079   5.727
 2727POPC   GL238246  13.449   1.345   5.686
 2727POPC   C1A38247  13.692   1.046   6.199
 2727POPC   D2A38248  13.814   1.138   6.650
 2727POPC   C3A38249  13.555   0.977   7.018
 2727POPC   C4A38250  13.673   0.771   7.387
 2727POPC   C1B38251  13.307   1.411   6.120
 2727POPC   C2B38252  13.401   1.452   6.577
 2727POPC   C3B38253  13.613   1.486   7.010
 2727POPC   C4B38254  13.561   1.287   7.444
 2728POPC   NC338255  22.647  39.360   5.545
 2728POPC   PO438256  23.013  38.815   5.365
 2728POPC   GL138257  23.125  39.084   5.724
 2728POPC   GL238258  23.130  39.440   5.756
 2728POPC   C1A38259  23.177  39.043   6.163
 2728POPC   D2A38260  23.296  39.257   6.550
 2728POPC   C3A38261  23.063  39.173   6.922
 2728POPC   C4A38262  23.015  38.933   7.282
 2728POPC   C1B38263  22.889  39.512   6.171
 2728POPC   C2B38264  22.894  39.585   6.622
 2728POPC   C3B38265  22.742  39.615   7.025
 2728POPC   C4B38266  22.579  39.211   7.092
 2729POPC   NC338267  12.573  14.986   5.678
 2729POPC   PO438268  12.105  15.449   5.341
 2729POPC   GL138269  12.202  15.331   5.753
 2729POPC   GL238270  11.874  15.303   5.887
 2729POPC   C1A38271  12.293  15.412   6.215
 2729POPC   D2A38272  12.097  15.454   6.621
 2729POPC   C3A38273  12.217  15.513   7.043
 2729POPC   C4A38274  12.057  15.284   7.398
 2729POPC   C1B38275  11.836  15.142   6.325
 2729POPC   C2B38276  11.791  15.094   6.817
 2729POPC   C3B38277  11.746  14.874   7.235
 2729POPC   C4B38278  11.686  14.488   7.481
 2730POPC   NC338279  17.228  32.022   5.505
 2730POPC   PO438280  17.933  32.093   5.452
 2730POPC   GL138281  17.838  32.327   5.821
 2730POPC   GL238282  17.542  32.531   5.830
 2730POPC   C1A38283  17.722  32.291   6.239
 2730POPC   D2A38284  17.821  32.175   6.610
 2730POPC   C3A38285  17.638  32.385   6.901
 2730POPC   C4A38286  17.796  32.246   7.232
 2730POPC   C1B38287  17.244  32.442   6.184
 2730POPC   C2B38288  17.188  32.275   6.637
 2730POPC   C3B38289  17.155  32.547   7.008
 2730POPC   C4B38290  17.281  32.333   7.339
 2731POPC   NC338291  43.873  38.963   5.337
 2731POPC   PO438292  43.787  38.309   5.308
 2731POPC   GL138293  43.787  38.505   5.682
 2731POPC   GL238294  43.789  38.154   5.788
 2731POPC   C1A38295  43.898  38.662   6.100
 2731POPC   D2A38296  43.922  38.484   6.522
 2731POPC   C3A38297  44.007  38.739   6.879
 2731POPC   C4A38298  43.987  38.596   7.259
 2731POPC   C1B38299  44.028  38.132   6.145
 2731POPC   C2B38300  44.022  37.957   6.559
 2731POPC   C3B38301  44.015  38.169   6.940
 2731POPC   C4B38302  44.280  38.162   7.283
 2732POPC   NC338303  34.305   0.676   5.523
 2732POPC   PO438304  34.622   1.222   5.220
 2732POPC   GL138305  34.483   1.164   5.640
 2732POPC   GL238306  34.682   1.393   5.771
 2732POPC   C1A38307  34.492   1.030   6.095
 2732POPC   D2A38308  34.695   1.189   6.469
 2732POPC   C3A38309  34.563   1.130   6.879
 2732POPC   C4A38310  34.304   1.079   7.220
 2732POPC   C1B38311  34.923   1.488   6.133
 2732POPC   C2B38312  35.086   1.511   6.540
 2732POPC   C3B38313  34.861   1.560   6.906
 2732POPC   C4B38314  34.697   1.395   7.311
 2733POPC   NC338315  28.554  15.924   5.577
 2733POPC   PO438316  28.009  16.338   5.468
 2733POPC   GL138317  27.957  16.105   5.880
 2733POPC   GL238318  28.235  15.964   5.956
 2733POPC   C1A38319  27.941  16.037   6.376
 2733POPC   D2A38320  28.071  16.246   6.812
 2733POPC   C3A38321  28.072  16.143   7.260
 2733POPC   C4A38322  28.416  16.002   7.581
 2733POPC   C1B38323  28.347  15.711   6.285
 2733POPC   C2B38324  28.236  15.746   6.718
 2733POPC   C3B38325  28.461  15.863   7.087
 2733POPC   C4B38326  28.690  15.607   7.401
 2734POPC   NC338327  11.811   1.748   5.609
 2734POPC   PO438328  11.841   2.420   5.482
 2734POPC   GL138329  11.846   2.196   5.874
 2734POPC   GL238330  12.175   2.030   5.830
 2734POPC   C1A38331  11.892   2.080   6.318
 2734POPC   D2A38332  11.650   2.011   6.707
 2734POPC   C3A38333  11.938   1.936   7.033
 2734POPC   C4A38334  12.313   2.049   7.247
 2734POPC   C1B38335  12.380   1.905   6.198
 2734POPC   C2B38336  12.267   1.893   6.639
 2734POPC   C3B38337  12.561   1.756   6.925
 2734POPC   C4B38338  12.723   1.694   7.328
 2735POPC   NC338339  12.153  44.405   5.223
 2735POPC   PO438340  11.708  44.900   5.339
 2735POPC   GL138341  11.941  44.640   5.665
 2735POPC   GL238342  12.304  44.731   5.678
 2735POPC   C1A38343  11.809  44.467   6.092
 2735POPC   D2A38344  11.899  44.559   6.547
 2735POPC   C3A38345  11.812  44.367   6.966
 2735POPC   C4A38346  11.913  44.529   7.415
 2735POPC   C1B38347  12.232  44.761   6.149
 2735POPC   C2B38348  12.388  44.686   6.583
 2735POPC   C3B38349  12.204  44.700   6.997
 2735POPC   C4B38350  12.286  44.895   7.412
 2736POPC   NC338351  10.874   1.687   5.537
 2736POPC   PO438352  10.176   1.566   5.423
 2736POPC   GL138353  10.452   1.418   5.780
 2736POPC   GL238354  10.777   1.216   5.736
 2736POPC   C1A38355  10.380   1.307   6.228
 2736POPC   D2A38356  10.313   1.130   6.665
 2736POPC   C3A38357  10.306   1.387   7.037
 2736POPC   C4A38358  10.278   1.300   7.494
 2736POPC   C1B38359  10.881   1.425   6.151
 2736POPC   C2B38360  10.809   1.257   6.565
 2736POPC   C3B38361  10.740   1.067   6.981
 2736POPC   C4B38362  10.758   1.183   7.411
 2737POPC   NC338363   9.308   5.933   5.118
 2737POPC   PO438364   9.803   5.540   5.199
 2737POPC   GL138365   9.816   5.680   5.676
 2737POPC   GL238366   9.486   5.838   5.754
 2737POPC   C1A38367   9.828   5.895   6.116
 2737POPC   D2A38368  10.017   6.073   6.481
 2737POPC   C3A38369   9.837   6.243   6.840
 2737POPC   C4A38370   9.457   6.187   7.099
 2737POPC   C1B38371   9.299   5.818   6.191
 2737POPC   C2B38372   9.531   5.910   6.573
 2737POPC   C3B38373   9.803   5.740   6.887
 2737POPC   C4B38374   9.680   5.774   7.299
 2738POPC   NC338375  14.666  26.132   5.439
 2738POPC   PO438376  15.324  26.388   5.360
 2738POPC   GL138377  15.343  26.279   5.816
 2738POPC   GL238378  14.994  26.185   5.823
 2738POPC   C1A38379  15.390  26.283   6.296
 2738POPC   D2A38380  15.649  26.139   6.652
 2738POPC   C3A38381  15.417  25.955   6.981
 2738POPC   C4A38382  15.135  26.233   7.124
 2738POPC   C1B38383  14.975  25.987   6.218
 2738POPC   C2B38384  15.041  26.038   6.641
 2738POPC   C3B38385  14.897  25.797   6.973
 2738POPC   C4B38386  15.072  25.760   7.338
 2739POPC   NC338387  17.267  32.896   5.341
 2739POPC   PO438388  18.023  32.904   5.338
 2739POPC   GL138389  17.669  33.004   5.696
 2739POPC   GL238390  17.284  33.111   5.782
 2739POPC   C1A38391  17.537  32.918   6.174
 2739POPC   D2A38392  17.355  32.741   6.578
 2739POPC   C3A38393  17.537  32.876   6.995
 2739POPC   C4A38394  17.637  32.701   7.395
 2739POPC   C1B38395  17.251  33.341   6.178
 2739POPC   C2B38396  17.415  33.231   6.599
 2739POPC   C3B38397  17.171  33.207   6.965
 2739POPC   C4B38398  17.146  33.506   7.263
 2740POPC   NC338399  33.019  33.328   5.311
 2740POPC   PO438400  33.186  32.652   5.392
 2740POPC   GL138401  33.260  33.014   5.684
 2740POPC   GL238402  32.935  33.028   5.767
 2740POPC   C1A38403  33.276  32.942   6.169
 2740POPC   D2A38404  33.184  32.743   6.584
 2740POPC   C3A38405  33.301  32.946   6.947
 2740POPC   C4A38406  33.122  32.931   7.325
 2740POPC   C1B38407  32.661  33.099   6.117
 2740POPC   C2B38408  32.622  32.963   6.532
 2740POPC   C3B38409  32.766  33.018   6.938
 2740POPC   C4B38410  32.689  33.215   7.342
 2741POPC   NC338411   4.390  36.464   5.436
 2741POPC   PO438412   3.957  35.944   5.366
 2741POPC   GL138413   4.257  36.013   5.690
 2741POPC   GL238414   4.100  36.295   5.836
 2741POPC   C1A38415   4.377  35.949   6.156
 2741POPC   D2A38416   4.473  35.743   6.576
 2741POPC   C3A38417   4.502  35.935   7.000
 2741POPC   C4A38418   4.187  35.952   7.348
 2741POPC   C1B38419   4.229  36.447   6.218
 2741POPC   C2B38420   4.362  36.261   6.603
 2741POPC   C3B38421   4.068  36.220   6.929
 2741POPC   C4B38422   3.977  36.590   7.162
 2742POPC   NC338423  35.311   3.828   5.332
 2742POPC   PO438424  35.369   4.554   5.269
 2742POPC   GL138425  35.285   4.383   5.672
 2742POPC   GL238426  35.381   4.057   5.804
 2742POPC   C1A38427  35.190   4.440   6.119
 2742POPC   D2A38428  35.122   4.161   6.481
 2742POPC   C3A38429  35.240   4.238   6.907
 2742POPC   C4A38430  35.031   3.980   7.148
 2742POPC   C1B38431  35.581   4.114   6.218
 2742POPC   C2B38432  35.686   4.198   6.668
 2742POPC   C3B38433  35.710   4.018   7.092
 2742POPC   C4B38434  35.884   4.000   7.543
 2743POPC   NC338435  38.923  18.861   5.242
 2743POPC   PO438436  38.414  19.254   5.433
 2743POPC   GL138437  38.520  19.125   5.823
 2743POPC   GL238438  38.666  18.800   5.840
 2743POPC   C1A38439  38.737  19.224   6.182
 2743POPC   D2A38440  38.569  19.354   6.548
 2743POPC   C3A38441  38.756  19.168   6.853
 2743POPC   C4A38442  38.563  19.185   7.216
 2743POPC   C1B38443  38.418  18.748   6.255
 2743POPC   C2B38444  38.400  18.781   6.746
 2743POPC   C3B38445  38.495  18.669   7.204
 2743POPC   C4B38446  38.415  18.521   7.647
 2744POPC   NC338447  32.679  38.916   5.469
 2744POPC   PO438448  32.946  39.380   5.449
 2744POPC   GL138449  32.886  39.361   5.868
 2744POPC   GL238450  32.529  39.304   5.833
 2744POPC   C1A38451  33.068  39.599   6.246
 2744POPC   D2A38452  33.228  39.682   6.684
 2744POPC   C3A38453  33.162  39.363   7.036
 2744POPC   C4A38454  32.986  39.361   7.473
 2744POPC   C1B38455  32.585  39.439   6.273
 2744POPC   C2B38456  32.786  39.412   6.672
 2744POPC   C3B38457  32.670  39.525   7.103
 2744POPC   C4B38458  32.529  39.618   7.526
 2745POPC   NC338459  24.615   5.316   5.439
 2745POPC   PO438460  24.718   6.007   5.574
 2745POPC   GL138461  24.617   5.958   5.974
 2745POPC   GL238462  24.358   5.757   5.872
 2745POPC   C1A38463  24.332   6.089   6.325
 2745POPC   D2A38464  24.294   6.185   6.783
 2745POPC   C3A38465  24.637   5.984   7.013
 2745POPC   C4A38466  24.658   5.809   7.409
 2745POPC   C1B38467  24.177   5.593   6.255
 2745POPC   C2B38468  24.024   5.704   6.667
 2745POPC   C3B38469  24.182   5.714   7.116
 2745POPC   C4B38470  24.285   5.479   7.518
 2746POPC   NC338471  23.824  15.377   5.418
 2746POPC   PO438472  23.226  14.984   5.270
 2746POPC   GL138473  23.462  14.957   5.731
 2746POPC   GL238474  23.827  15.026   5.807
 2746POPC   C1A38475  23.449  15.167   6.185
 2746POPC   D2A38476  23.309  15.118   6.644
 2746POPC   C3A38477  23.507  15.250   7.040
 2746POPC   C4A38478  23.537  15.075   7.479
 2746POPC   C1B38479  23.945  15.134   6.258
 2746POPC   C2B38480  24.172  15.234   6.654
 2746POPC   C3B38481  24.229  15.483   7.028
 2746POPC   C4B38482  23.963  15.289   7.315
 2747POPC   NC338483   7.502  23.085   5.086
 2747POPC   PO438484   7.358  23.724   5.177
 2747POPC   GL138485   7.379  23.690   5.694
 2747POPC   GL238486   7.592  23.404   5.755
 2747POPC   C1A38487   7.385  23.617   6.210
 2747POPC   D2A38488   7.426  23.785   6.685
 2747POPC   C3A38489   7.188  23.767   7.126
 2747POPC   C4A38490   7.254  23.879   7.575
 2747POPC   C1B38491   7.752  23.254   6.166
 2747POPC   C2B38492   7.576  23.292   6.592
 2747POPC   C3B38493   7.516  23.387   7.036
 2747POPC   C4B38494   7.526  23.472   7.467
 2748POPC   NC338495   0.026  12.770   5.427
 2748POPC   PO438496  44.636  13.300   5.302
 2748POPC   GL138497  44.704  13.169   5.739
 2748POPC   GL238498  44.714  12.810   5.836
 2748POPC   C1A38499  44.478  13.124   6.151
 2748POPC   D2A38500  44.408  12.821   6.458
 2748POPC   C3A38501  44.621  13.021   6.786
 2748POPC   C4A38502  44.585  13.263   7.153
 2748POPC   C1B38503  44.902  12.850   6.258
 2748POPC   C2B38504  44.980  12.656   6.677
 2748POPC   C3B38505  44.801  12.668   7.121
 2748POPC   C4B38506  44.893  12.584   7.543
 2749POPC   NC338507  44.900   6.383   5.395
 2749POPC   PO438508  44.482   6.695   5.082
 2749POPC   GL138509  44.431   6.460   5.606
 2749POPC   GL238510  44.613   6.203   5.872
 2749POPC   C1A38511  44.399   6.590   6.117
 2749POPC   D2A38512  44.606   6.834   6.505
 2749POPC   C3A38513  44.536   6.753   6.972
 2749POPC   C4A38514  44.578   6.834   7.421
 2749POPC   C1B38515  44.630   6.172   6.377
 2749POPC   C2B38516  44.794   6.338   6.820
 2749POPC   C3B38517  44.657   6.335   7.301
 2749POPC   C4B38518  44.566   6.120   7.756
 2750POPC   NC338519  42.442  13.135   5.440
 2750POPC   PO438520  42.097  12.537   5.500
 2750POPC   GL138521  42.194  12.751   5.884
 2750POPC   GL238522  41.997  13.084   5.822
 2750POPC   C1A38523  42.415  12.632   6.329
 2750POPC   D2A38524  42.611  12.538   6.748
 2750POPC   C3A38525  42.415  12.747   7.136
 2750POPC   C4A38526  42.121  12.833   7.513
 2750POPC   C1B38527  42.153  13.076   6.273
 2750POPC   C2B38528  42.252  13.006   6.719
 2750POPC   C3B38529  42.049  13.160   7.128
 2750POPC   C4B38530  42.017  13.328   7.591
 2751POPC   NC338531  13.214  15.576   5.591
 2751POPC   PO438532  13.647  15.099   5.319
 2751POPC   GL138533  13.714  15.070   5.769
 2751POPC   GL238534  13.565  15.351   5.881
 2751POPC   C1A38535  13.748  15.031   6.224
 2751POPC   D2A38536  13.542  15.119   6.633
 2751POPC   C3A38537  13.690  15.281   7.020
 2751POPC   C4A38538  13.722  15.002   7.373
 2751POPC   C1B38539  13.440  15.479   6.290
 2751POPC   C2B38540  13.367  15.594   6.743
 2751POPC   C3B38541  13.276  15.554   7.184
 2751POPC   C4B38542  13.377  15.341   7.549
 2752POPC   NC338543  23.335  13.023   5.530
 2752POPC   PO438544  22.654  12.766   5.466
 2752POPC   GL138545  22.876  12.966   5.800
 2752POPC   GL238546  23.166  12.771   5.940
 2752POPC   C1A38547  22.728  12.989   6.226
 2752POPC   D2A38548  22.457  12.914   6.593
 2752POPC   C3A38549  22.744  13.025   6.922
 2752POPC   C4A38550  22.973  12.940   7.294
 2752POPC   C1B38551  23.203  12.830   6.375
 2752POPC   C2B38552  23.271  13.075   6.755
 2752POPC   C3B38553  23.481  13.013   7.152
 2752POPC   C4B38554  23.350  13.031   7.613
 2753POPC   NC338555  23.428  39.813   5.495
 2753POPC   PO438556  22.797  39.788   5.477
 2753POPC   GL138557  22.750  39.913   5.856
 2753POPC   GL238558  23.101  39.922   5.918
 2753POPC   C1A38559  22.677  40.050   6.269
 2753POPC   D2A38560  23.042  40.015   6.433
 2753POPC   C3A38561  23.018  40.041   6.843
 2753POPC   C4A38562  22.831  40.176   7.190
 2753POPC   C1B38563  23.375  39.658   6.169
 2753POPC   C2B38564  23.445  39.744   6.583
 2753POPC   C3B38565  23.290  39.634   6.973
 2753POPC   C4B38566  23.143  39.810   7.351
 2754POPC   NC338567  13.813   0.309   5.276
 2754POPC   PO438568  13.210   0.334   5.517
 2754POPC   GL138569  13.320   0.484   5.860
 2754POPC   GL238570  13.645   0.574   5.737
 2754POPC   C1A38571  13.230   0.745   6.205
 2754POPC   D2A38572  13.455   0.756   6.582
 2754POPC   C3A38573  13.414   0.452   6.901
 2754POPC   C4A38574  13.282   0.423   7.291
 2754POPC   C1B38575  13.700   0.522   6.191
 2754POPC   C2B38576  13.812   0.328   6.591
 2754POPC   C3B38577  13.906   0.491   6.998
 2754POPC   C4B38578  13.754   0.242   7.313
 2755POPC   NC338579  34.709   2.350   5.323
 2755POPC   PO438580  34.511   3.001   5.153
 2755POPC   GL138581  34.416   2.742   5.591
 2755POPC   GL238582  34.715   2.644   5.745
 2755POPC   C1A38583  34.308   2.887   6.082
 2755POPC   D2A38584  34.356   3.182   6.438
 2755POPC   C3A38585  34.657   3.033   6.755
 2755POPC   C4A38586  34.671   2.903   7.180
 2755POPC   C1B38587  34.815   2.772   6.138
 2755POPC   C2B38588  34.675   2.570   6.490
 2755POPC   C3B38589  34.770   2.495   6.895
 2755POPC   C4B38590  34.519   2.397   7.212
 2756POPC   NC338591  41.730  16.495   5.519
 2756POPC   PO438592  41.323  16.982   5.425
 2756POPC   GL138593  41.406  16.803   5.811
 2756POPC   GL238594  41.295  17.106   5.934
 2756POPC   C1A38595  41.673  16.731   6.183
 2756POPC   D2A38596  41.678  16.899   6.579
 2756POPC   C3A38597  41.586  16.807   6.997
 2756POPC   C4A38598  41.814  16.656   7.332
 2756POPC   C1B38599  41.087  17.086   6.307
 2756POPC   C2B38600  41.215  17.084   6.702
 2756POPC   C3B38601  41.120  16.990   7.085
 2756POPC   C4B38602  41.318  16.875   7.466
 2757POPC   NC338603  24.434  19.696   5.557
 2757POPC   PO438604  25.037  19.888   5.448
 2757POPC   GL138605  24.843  19.735   5.850
 2757POPC   GL238606  24.597  20.020   5.937
 2757POPC   C1A38607  24.602  19.652   6.271
 2757POPC   D2A38608  24.498  19.790   6.711
 2757POPC   C3A38609  24.806  19.890   7.030
 2757POPC   C4A38610  24.779  20.311   7.194
 2757POPC   C1B38611  24.200  20.019   6.225
 2757POPC   C2B38612  23.944  20.289   6.538
 2757POPC   C3B38613  23.954  20.162   6.983
 2757POPC   C4B38614  24.346  20.007   7.207
 2758POPC   NC338615  35.156  41.627   5.225
 2758POPC   PO438616  35.776  41.371   5.427
 2758POPC   GL138617  35.481  41.385   5.795
 2758POPC   GL238618  35.104  41.404   5.761
 2758POPC   C1A38619  35.529  41.569   6.210
 2758POPC   D2A38620  35.331  41.541   6.588
 2758POPC   C3A38621  35.595  41.609   6.885
 2758POPC   C4A38622  35.706  41.574   7.276
 2758POPC   C1B38623  35.037  41.627   6.152
 2758POPC   C2B38624  35.222  41.992   6.364
 2758POPC   C3B38625  35.257  42.024   6.818
 2758POPC   C4B38626  35.152  41.746   7.172
 2759POPC   NC338627  34.430   1.658   5.335
 2759POPC   PO438628  34.240   2.337   5.305
 2759POPC   GL138629  34.457   2.203   5.731
 2759POPC   GL238630  34.521   1.865   5.813
 2759POPC   C1A38631  34.736   2.223   6.099
 2759POPC   D2A38632  34.778   1.904   6.414
 2759POPC   C3A38633  34.627   2.013   6.807
 2759POPC   C4A38634  34.637   1.901   7.210
 2759POPC   C1B38635  34.415   1.581   6.184
 2759POPC   C2B38636  34.395   1.560   6.638
 2759POPC   C3B38637  34.278   1.573   7.060
 2759POPC   C4B38638  34.249   1.563   7.528
 2760POPC   NC338639  41.580  42.783   5.502
 2760POPC   PO438640  41.637  43.479   5.415
 2760POPC   GL138641  41.486  43.251   5.741
 2760POPC   GL238642  41.825  43.140   5.794
 2760POPC   C1A38643  41.481  43.341   6.169
 2760POPC   D2A38644  41.361  43.444   6.575
 2760POPC   C3A38645  41.670  43.306   6.854
 2760POPC   C4A38646  41.511  43.290   7.250
 2760POPC   C1B38647  41.800  42.882   6.181
 2760POPC   C2B38648  41.574  42.830   6.588
 2760POPC   C3B38649  41.517  42.816   7.032
 2760POPC   C4B38650  41.857  42.902   7.299
 2761POPC   NC338651  10.677   2.555   5.217
 2761POPC   PO438652  10.099   2.828   5.298
 2761POPC   GL138653  10.279   2.737   5.692
 2761POPC   GL238654  10.624   2.831   5.702
 2761POPC   C1A38655  10.245   2.874   6.127
 2761POPC   D2A38656  10.411   2.791   6.537
 2761POPC   C3A38657  10.276   2.809   6.945
 2761POPC   C4A38658  10.449   2.471   7.173
 2761POPC   C1B38659  10.757   2.776   6.165
 2761POPC   C2B38660  10.963   2.688   6.571
 2761POPC   C3B38661  10.937   2.639   7.034
 2761POPC   C4B38662  10.930   2.930   7.388
 2762POPC   NC338663   5.515   7.238   5.113
 2762POPC   PO438664   5.937   7.555   5.564
 2762POPC   GL138665   5.935   7.572   5.946
 2762POPC   GL238666   5.903   7.208   5.993
 2762POPC   C1A38667   5.690   7.572   6.275
 2762POPC   D2A38668   5.686   7.221   6.537
 2762POPC   C3A38669   5.808   7.416   6.913
 2762POPC   C4A38670   5.756   7.297   7.322
 2762POPC   C1B38671   6.228   7.115   6.290
 2762POPC   C2B38672   6.396   7.000   6.708
 2762POPC   C3B38673   6.181   7.097   7.104
 2762POPC   C4B38674   6.207   7.274   7.537
 2763POPC   NC338675  16.268   3.372   5.361
 2763POPC   PO438676  15.744   3.777   5.326
 2763POPC   GL138677  15.962   3.661   5.750
 2763POPC   GL238678  16.258   3.445   5.868
 2763POPC   C1A38679  16.045   3.738   6.215
 2763POPC   D2A38680  15.970   3.527   6.609
 2763POPC   C3A38681  15.969   3.746   7.003
 2763POPC   C4A38682  15.896   3.923   7.426
 2763POPC   C1B38683  16.093   3.189   6.220
 2763POPC   C2B38684  16.019   3.008   6.618
 2763POPC   C3B38685  16.011   3.202   7.003
 2763POPC   C4B38686  16.010   3.389   7.375
 2764POPC   NC338687  18.292  42.541   5.737
 2764POPC   PO438688  18.320  42.095   5.217
 2764POPC   GL138689  18.357  41.965   5.811
 2764POPC   GL238690  18.653  42.000   6.026
 2764POPC   C1A38691  18.187  42.137   6.251
 2764POPC   D2A38692  18.374  42.257   6.636
 2764POPC   C3A38693  18.178  42.304   7.046
 2764POPC   C4A38694  17.842  42.589   7.127
 2764POPC   C1B38695  18.696  42.423   6.251
 2764POPC   C2B38696  18.847  42.524   6.651
 2764POPC   C3B38697  18.704  42.299   7.005
 2764POPC   C4B38698  18.554  42.437   7.379
 2765POPC   NC338699  27.836  26.331   5.372
 2765POPC   PO438700  27.361  25.893   5.221
 2765POPC   GL138701  27.523  25.878   5.662
 2765POPC   GL238702  27.407  26.198   5.803
 2765POPC   C1A38703  27.546  25.846   6.138
 2765POPC   D2A38704  27.349  25.850   6.579
 2765POPC   C3A38705  27.487  25.839   7.015
 2765POPC   C4A38706  27.760  25.965   7.370
 2765POPC   C1B38707  27.137  26.172   6.211
 2765POPC   C2B38708  27.104  26.286   6.676
 2765POPC   C3B38709  27.318  26.324   7.084
 2765POPC   C4B38710  27.508  26.386   7.484
 2766POPC   NC338711  24.313   6.261   5.563
 2766POPC   PO438712  23.918   6.802   5.321
 2766POPC   GL138713  24.084   6.739   5.743
 2766POPC   GL238714  24.456   6.662   5.864
 2766POPC   C1A38715  24.068   6.899   6.160
 2766POPC   D2A38716  24.339   6.884   6.546
 2766POPC   C3A38717  24.185   6.756   6.975
 2766POPC   C4A38718  24.314   6.666   7.401
 2766POPC   C1B38719  24.734   6.411   6.170
 2766POPC   C2B38720  24.784   6.288   6.612
 2766POPC   C3B38721  24.667   6.494   7.020
 2766POPC   C4B38722  24.793   6.851   7.248
 2767POPC   NC338723  17.384  40.370   5.473
 2767POPC   PO438724  17.781  39.904   5.540
 2767POPC   GL138725  17.691  40.195   5.850
 2767POPC   GL238726  17.400  39.992   5.939
 2767POPC   C1A38727  17.596  40.358   6.247
 2767POPC   D2A38728  17.281  40.202   6.487
 2767POPC   C3A38729  17.548  40.029   6.783
 2767POPC   C4A38730  17.549  40.008   7.199
 2767POPC   C1B38731  17.585  39.785   6.323
 2767POPC   C2B38732  17.605  39.536   6.732
 2767POPC   C3B38733  17.324  39.583   7.091
 2767POPC   C4B38734  17.126  39.849   7.421
 2768POPC   NC338735  36.586  32.017   5.358
 2768POPC   PO438736  36.961  32.489   5.469
 2768POPC   GL138737  36.839  32.396   5.890
 2768POPC   GL238738  36.794  32.057   5.821
 2768POPC   C1A38739  37.008  32.214   6.280
 2768POPC   D2A38740  37.371  32.196   6.569
 2768POPC   C3A38741  37.189  32.106   6.957
 2768POPC   C4A38742  36.913  32.416   7.181
 2768POPC   C1B38743  36.493  32.069   6.163
 2768POPC   C2B38744  36.610  31.985   6.594
 2768POPC   C3B38745  36.695  31.941   7.028
 2768POPC   C4B38746  36.511  31.888   7.418
 2769POPC   NC338747  41.649  26.871   5.499
 2769POPC   PO438748  41.142  26.462   5.458
 2769POPC   GL138749  41.236  26.686   5.827
 2769POPC   GL238750  41.548  26.537   5.898
 2769POPC   C1A38751  41.267  26.894   6.224
 2769POPC   D2A38752  41.132  26.907   6.653
 2769POPC   C3A38753  41.432  27.029   6.960
 2769POPC   C4A38754  41.763  27.132   7.214
 2769POPC   C1B38755  41.470  26.424   6.325
 2769POPC   C2B38756  41.494  26.526   6.757
 2769POPC   C3B38757  41.715  26.605   7.163
 2769POPC   C4B38758  41.852  26.352   7.534
 2770POPC   NC338759  34.780  20.335   5.129
 2770POPC   PO438760  34.459  20.861   5.381
 2770POPC   GL138761  34.521  20.703   5.759
 2770POPC   GL238762  34.541  20.383   5.657
 2770POPC   C1A38763  34.584  20.768   6.189
 2770POPC   D2A38764  34.449  20.719   6.616
 2770POPC   C3A38765  34.709  20.877   6.957
 2770POPC   C4A38766  34.461  20.893   7.291
 2770POPC   C1B38767  34.655  20.288   6.100
 2770POPC   C2B38768  34.604  20.204   6.564
 2770POPC   C3B38769  34.610  20.372   7.016
 2770POPC   C4B38770  34.629  20.411   7.497
 2771POPC   NC338771  37.646   1.500   5.020
 2771POPC   PO438772  37.950   1.131   5.513
 2771POPC   GL138773  37.844   1.132   5.911
 2771POPC   GL238774  37.698   0.831   5.917
 2771POPC   C1A38775  37.829   1.362   6.278
 2771POPC   D2A38776  37.656   1.411   6.677
 2771POPC   C3A38777  37.919   1.426   7.024
 2771POPC   C4A38778  37.622   1.218   7.268
 2771POPC   C1B38779  37.618   0.919   6.386
 2771POPC   C2B38780  37.609   0.911   6.848
 2771POPC   C3B38781  37.642   0.707   7.256
 2771POPC   C4B38782  37.712   0.911   7.653
 2772POPC   NC338783  23.108  21.950   5.708
 2772POPC   PO438784  22.654  22.318   5.257
 2772POPC   GL138785  22.742  22.371   5.733
 2772POPC   GL238786  23.080  22.454   5.794
 2772POPC   C1A38787  22.680  22.155   6.171
 2772POPC   D2A38788  22.584  22.020   6.610
 2772POPC   C3A38789  22.933  22.005   6.893
 2772POPC   C4A38790  22.830  22.064   7.297
 2772POPC   C1B38791  23.162  22.363   6.249
 2772POPC   C2B38792  23.215  22.387   6.697
 2772POPC   C3B38793  23.238  22.343   7.161
 2772POPC   C4B38794  23.252  22.335   7.600
 2773POPC   NC338795  43.490  44.736   5.526
 2773POPC   PO438796  43.011  44.144   5.438
 2773POPC   GL138797  43.163  44.390   5.770
 2773POPC   GL238798  42.981  44.712   5.687
 2773POPC   C1A38799  43.225  44.345   6.214
 2773POPC   D2A38800  42.983  44.486   6.577
 2773POPC   C3A38801  43.085  44.540   6.979
 2773POPC   C4A38802  43.397  44.586   7.225
 2773POPC   C1B38803  42.895  44.721   6.135
 2773POPC   C2B38804  42.859  44.989   6.505
 2773POPC   C3B38805  42.968   0.022   6.922
 2773POPC   C4B38806  43.042  44.959   7.341
 2774POPC   NC338807   7.249   9.811   5.353
 2774POPC   PO438808   7.868   9.562   5.246
 2774POPC   GL138809   7.795   9.568   5.687
 2774POPC   GL238810   7.479   9.412   5.645
 2774POPC   C1A38811   7.662   9.616   6.141
 2774POPC   D2A38812   7.518   9.769   6.580
 2774POPC   C3A38813   7.680   9.545   6.941
 2774POPC   C4A38814   7.732   9.596   7.390
 2774POPC   C1B38815   7.172   9.496   5.980
 2774POPC   C2B38816   7.108   9.473   6.433
 2774POPC   C3B38817   6.994   9.745   6.776
 2774POPC   C4B38818   7.236   9.693   7.133
 2775POPC   NC338819  39.397  26.108   5.607
 2775POPC   PO438820  39.952  26.130   5.295
 2775POPC   GL138821  40.039  26.228   5.733
 2775POPC   GL238822  39.757  26.413   5.848
 2775POPC   C1A38823  40.089  25.929   6.098
 2775POPC   D2A38824  40.142  25.762   6.526
 2775POPC   C3A38825  39.970  25.998   6.881
 2775POPC   C4A38826  40.214  25.874   7.226
 2775POPC   C1B38827  39.997  26.424   6.241
 2775POPC   C2B38828  40.031  26.565   6.677
 2775POPC   C3B38829  40.022  26.482   7.128
 2775POPC   C4B38830  39.678  26.242   7.285
 2776POPC   NC338831  28.489   3.153   5.299
 2776POPC   PO438832  28.194   3.704   5.423
 2776POPC   GL138833  28.140   3.822   5.870
 2776POPC   GL238834  28.473   3.944   5.979
 2776POPC   C1A38835  28.124   3.656   6.310
 2776POPC   D2A38836  28.330   3.397   6.642
 2776POPC   C3A38837  28.263   3.615   7.021
 2776POPC   C4A38838  28.027   3.686   7.401
 2776POPC   C1B38839  28.631   3.609   6.269
 2776POPC   C2B38840  28.787   3.598   6.737
 2776POPC   C3B38841  28.679   3.350   7.122
 2776POPC   C4B38842  28.368   3.310   7.452
 2777POPC   NC338843  22.254  36.823   5.560
 2777POPC   PO438844  22.240  37.575   5.486
 2777POPC   GL138845  22.243  37.253   5.800
 2777POPC   GL238846  21.879  37.129   5.778
 2777POPC   C1A38847  22.146  37.135   6.230
 2777POPC   D2A38848  21.828  37.127   6.544
 2777POPC   C3A38849  21.904  37.247   6.951
 2777POPC   C4A38850  22.106  37.075   7.278
 2777POPC   C1B38851  21.740  36.822   6.114
 2777POPC   C2B38852  21.969  36.602   6.443
 2777POPC   C3B38853  22.085  36.755   6.852
 2777POPC   C4B38854  22.185  36.581   7.242
 2778POPC   NC338855  38.552   9.588   5.580
 2778POPC   PO438856  38.055  10.005   5.475
 2778POPC   GL138857  38.302   9.921   5.911
 2778POPC   GL238858  38.484   9.597   6.075
 2778POPC   C1A38859  38.133   9.801   6.339
 2778POPC   D2A38860  38.133   9.449   6.641
 2778POPC   C3A38861  38.273   9.684   6.983
 2778POPC   C4A38862  38.630   9.715   7.278
 2778POPC   C1B38863  38.596   9.613   6.537
 2778POPC   C2B38864  38.739   9.937   6.831
 2778POPC   C3B38865  38.914  10.125   7.198
 2778POPC   C4B38866  38.984   9.928   7.623
 2779POPC   NC338867   9.123   6.808   5.019
 2779POPC   PO438868   8.859   6.549   5.573
 2779POPC   GL138869   8.865   6.507   5.956
 2779POPC   GL238870   8.888   6.841   5.983
 2779POPC   C1A38871   9.066   6.541   6.349
 2779POPC   D2A38872   9.148   6.268   6.653
 2779POPC   C3A38873   8.969   6.332   7.049
 2779POPC   C4A38874   9.208   6.626   7.285
 2779POPC   C1B38875   9.003   7.080   6.262
 2779POPC   C2B38876   8.760   6.909   6.552
 2779POPC   C3B38877   8.968   6.817   6.873
 2779POPC   C4B38878   9.084   7.157   7.111
 2780POPC   NC338879  14.215  42.638   5.330
 2780POPC   PO438880  14.757  42.285   5.439
 2780POPC   GL138881  14.548  42.560   5.798
 2780POPC   GL238882  14.176  42.626   5.856
 2780POPC   C1A38883  14.478  42.500   6.270
 2780POPC   D2A38884  14.245  42.330   6.636
 2780POPC   C3A38885  14.539  42.348   6.959
 2780POPC   C4A38886  14.883  42.571   6.810
 2780POPC   C1B38887  14.021  42.729   6.290
 2780POPC   C2B38888  13.874  42.662   6.743
 2780POPC   C3B38889  14.090  42.512   7.144
 2780POPC   C4B38890  14.152  42.656   7.589
 2781POPC   NC338891  16.867   7.188   5.418
 2781POPC   PO438892  16.395   7.735   5.395
 2781POPC   GL138893  16.634   7.532   5.742
 2781POPC   GL238894  16.500   7.187   5.772
 2781POPC   C1A38895  16.915   7.599   6.109
 2781POPC   D2A38896  16.745   7.557   6.517
 2781POPC   C3A38897  16.904   7.585   6.930
 2781POPC   C4A38898  16.698   7.754   7.296
 2781POPC   C1B38899  16.750   7.096   6.135
 2781POPC   C2B38900  16.906   7.049   6.540
 2781POPC   C3B38901  16.763   7.030   6.946
 2781POPC   C4B38902  16.750   7.253   7.295
 2782POPC   NC338903  35.826  27.275   5.359
 2782POPC   PO438904  35.997  26.501   5.451
 2782POPC   GL138905  36.108  26.903   5.737
 2782POPC   GL238906  36.464  26.996   5.808
 2782POPC   C1A38907  36.135  27.087   6.188
 2782POPC   D2A38908  36.284  27.128   6.645
 2782POPC   C3A38909  36.054  26.912   6.950
 2782POPC   C4A38910  35.832  26.524   7.043
 2782POPC   C1B38911  36.417  26.666   6.149
 2782POPC   C2B38912  36.228  26.570   6.565
 2782POPC   C3B38913  36.382  26.519   6.968
 2782POPC   C4B38914  36.488  26.788   7.251
 2783POPC   NC338915  19.851  20.018   5.474
 2783POPC   PO438916  19.535  19.354   5.459
 2783POPC   GL138917  19.859  19.547   5.702
 2783POPC   GL238918  19.627  19.750   5.863
 2783POPC   C1A38919  20.039  19.614   6.113
 2783POPC   D2A38920  19.858  19.510   6.485
 2783POPC   C3A38921  19.934  19.752   6.833
 2783POPC   C4A38922  19.999  19.713   7.258
 2783POPC   C1B38923  19.541  19.920   6.260
 2783POPC   C2B38924  19.576  20.120   6.677
 2783POPC   C3B38925  19.773  20.184   7.079
 2783POPC   C4B38926  19.622  19.980   7.458
 2784POPC   NC338927  21.020  32.969   5.483
 2784POPC   PO438928  20.364  32.835   5.574
 2784POPC   GL138929  20.555  33.103   5.849
 2784POPC   GL238930  20.489  33.474   5.828
 2784POPC   C1A38931  20.429  33.023   6.247
 2784POPC   D2A38932  20.648  32.997   6.592
 2784POPC   C3A38933  20.542  32.814   6.940
 2784POPC   C4A38934  20.575  33.005   7.289
 2784POPC   C1B38935  20.712  33.460   6.237
 2784POPC   C2B38936  21.014  33.367   6.550
 2784POPC   C3B38937  20.976  33.166   6.966
 2784POPC   C4B38938  20.988  33.260   7.427
 2785POPC   NC338939  35.149  25.549   5.308
 2785POPC   PO438940  35.576  25.012   5.377
 2785POPC   GL138941  35.494  25.167   5.761
 2785POPC   GL238942  35.163  25.211   5.684
 2785POPC   C1A38943  35.637  25.242   6.185
 2785POPC   D2A38944  35.773  25.327   6.603
 2785POPC   C3A38945  35.512  25.406   6.987
 2785POPC   C4A38946  35.580  25.403   7.458
 2785POPC   C1B38947  35.110  25.206   6.128
 2785POPC   C2B38948  35.243  25.080   6.541
 2785POPC   C3B38949  35.027  25.263   6.863
 2785POPC   C4B38950  34.973  25.433   7.255
 2786POPC   NC338951  17.061   6.408   5.387
 2786POPC   PO438952  16.529   6.819   5.368
 2786POPC   GL138953  16.777   6.747   5.751
 2786POPC   GL238954  17.113   6.666   5.844
 2786POPC   C1A38955  16.735   6.531   6.164
 2786POPC   D2A38956  16.417   6.402   6.460
 2786POPC   C3A38957  16.586   6.562   6.829
 2786POPC   C4A38958  16.711   6.345   7.155
 2786POPC   C1B38959  17.199   6.716   6.290
 2786POPC   C2B38960  17.147   6.643   6.757
 2786POPC   C3B38961  17.096   6.745   7.213
 2786POPC   C4B38962  17.040   6.993   7.610
 2787POPC   NC338963  34.216   2.694   5.019
 2787POPC   PO438964  33.683   2.827   5.395
 2787POPC   GL138965  33.883   2.795   5.805
 2787POPC   GL238966  34.024   2.456   5.792
 2787POPC   C1A38967  33.828   2.943   6.275
 2787POPC   D2A38968  33.928   3.087   6.723
 2787POPC   C3A38969  33.761   2.892   7.117
 2787POPC   C4A38970  33.844   3.014   7.558
 2787POPC   C1B38971  34.258   2.412   6.174
 2787POPC   C2B38972  34.189   2.662   6.554
 2787POPC   C3B38973  34.233   2.749   6.982
 2787POPC   C4B38974  34.072   2.563   7.374
 2788POPC   NC338975  33.709   2.347   5.405
 2788POPC   PO438976  33.664   1.646   5.262
 2788POPC   GL138977  33.684   1.891   5.643
 2788POPC   GL238978  34.028   1.956   5.587
 2788POPC   C1A38979  33.598   1.831   6.124
 2788POPC   D2A38980  33.859   1.615   6.492
 2788POPC   C3A38981  33.819   1.790   6.940
 2788POPC   C4A38982  33.695   2.198   7.165
 2788POPC   C1B38983  34.081   1.954   6.040
 2788POPC   C2B38984  34.232   2.014   6.477
 2788POPC   C3B38985  34.159   2.207   6.894
 2788POPC   C4B38986  34.152   2.019   7.307
 2789POPC   NC338987   3.164  15.806   5.406
 2789POPC   PO438988   3.673  16.248   5.313
 2789POPC   GL138989   3.534  16.025   5.695
 2789POPC   GL238990   3.194  16.166   5.773
 2789POPC   C1A38991   3.628  15.835   6.100
 2789POPC   D2A38992   3.794  15.987   6.489
 2789POPC   C3A38993   3.721  16.014   6.933
 2789POPC   C4A38994   3.883  15.962   7.372
 2789POPC   C1B38995   3.415  16.279   6.154
 2789POPC   C2B38996   3.471  16.376   6.586
 2789POPC   C3B38997   3.305  16.364   6.992
 2789POPC   C4B38998   3.460  16.224   7.376
 2790POPC   NC338999  23.490  38.832   5.441
 2790POPC   PO439000  23.751  39.496   5.410
 2790POPC   GL139001  23.643  39.234   5.732
 2790POPC   GL239002  23.962  39.102   5.704
 2790POPC   C1A39003  23.665  39.220   6.174
 2790POPC   D2A39004  23.810  39.373   6.564
 2790POPC   C3A39005  23.627  39.209   6.981
 2790POPC   C4A39006  23.353  39.306   7.354
 2790POPC   C1B39007  24.180  39.193   6.085
 2790POPC   C2B39008  24.289  39.197   6.526
 2790POPC   C3B39009  24.168  39.310   6.940
 2790POPC   C4B39010  24.063  39.132   7.320
 2791POPC   NC339011  19.139  19.511   5.273
 2791POPC   PO439012  19.301  20.174   5.192
 2791POPC   GL139013  19.211  19.904   5.609
 2791POPC   GL239014  19.169  19.529   5.772
 2791POPC   C1A39015  19.033  19.925   6.051
 2791POPC   D2A39016  18.873  19.764   6.443
 2791POPC   C3A39017  18.994  19.942   6.821
 2791POPC   C4A39018  18.854  19.965   7.252
 2791POPC   C1B39019  19.266  19.482   6.203
 2791POPC   C2B39020  19.354  19.619   6.623
 2791POPC   C3B39021  19.452  19.742   7.021
 2791POPC   C4B39022  19.246  19.644   7.365
 2792POPC   NC339023  16.103  29.639   5.419
 2792POPC   PO439024  16.075  30.260   5.527
 2792POPC   GL139025  15.977  29.907   5.818
 2792POPC   GL239026  16.289  29.675   5.883
 2792POPC   C1A39027  15.727  29.808   6.154
 2792POPC   D2A39028  15.808  30.187   6.391
 2792POPC   C3A39029  15.835  30.208   6.829
 2792POPC   C4A39030  15.774  30.452   7.205
 2792POPC   C1B39031  16.243  29.865   6.265
 2792POPC   C2B39032  16.368  29.728   6.658
 2792POPC   C3B39033  16.260  29.812   7.054
 2792POPC   C4B39034  15.881  29.927   7.237
 2793POPC   NC339035  23.642   5.541   5.385
 2793POPC   PO439036  24.162   5.263   5.438
 2793POPC   GL139037  23.903   5.519   5.823
 2793POPC   GL239038  23.510   5.490   5.863
 2793POPC   C1A39039  23.774   5.898   6.138
 2793POPC   D2A39040  23.591   6.131   6.528
 2793POPC   C3A39041  23.813   6.072   6.932
 2793POPC   C4A39042  23.811   5.977   7.349
 2793POPC   C1B39043  23.411   5.343   6.270
 2793POPC   C2B39044  23.584   5.348   6.684
 2793POPC   C3B39045  23.676   5.566   7.062
 2793POPC   C4B39046  23.732   5.502   7.524
 2794POPC   NC339047  16.957   4.764   5.059
 2794POPC   PO439048  16.424   4.504   5.412
 2794POPC   GL139049  16.700   4.341   5.755
 2794POPC   GL239050  17.028   4.150   5.714
 2794POPC   C1A39051  16.702   4.427   6.209
 2794POPC   D2A39052  16.915   4.645   6.525
 2794POPC   C3A39053  16.780   4.583   6.957
 2794POPC   C4A39054  16.878   4.205   7.173
 2794POPC   C1B39055  17.062   4.032   6.165
 2794POPC   C2B39056  16.914   4.110   6.610
 2794POPC   C3B39057  16.502   4.138   6.824
 2794POPC   C4B39058  16.362   4.043   7.231
 2795POPC   NC339059   3.096   4.151   5.364
 2795POPC   PO439060   2.457   4.267   5.168
 2795POPC   GL139061   2.696   4.308   5.684
 2795POPC   GL239062   3.015   4.190   5.865
 2795POPC   C1A39063   2.663   4.367   6.196
 2795POPC   D2A39064   2.415   4.233   6.594
 2795POPC   C3A39065   2.559   4.450   6.998
 2795POPC   C4A39066   2.971   4.544   7.230
 2795POPC   C1B39067   3.055   4.070   6.307
 2795POPC   C2B39068   2.929   4.253   6.692
 2795POPC   C3B39069   2.899   4.059   7.089
 2795POPC   C4B39070   3.320   4.136   7.194
 2796POPC   NC339071  14.027   2.184   5.287
 2796POPC   PO439072  14.343   1.601   5.255
 2796POPC   GL139073  14.345   1.775   5.703
 2796POPC   GL239074  14.498   2.106   5.780
 2796POPC   C1A39075  14.234   1.870   6.145
 2796POPC   D2A39076  14.480   2.066   6.480
 2796POPC   C3A39077  14.509   1.840   6.882
 2796POPC   C4A39078  14.177   1.862   7.159
 2796POPC   C1B39079  14.687   2.411   6.086
 2796POPC   C2B39080  14.698   2.546   6.473
 2796POPC   C3B39081  14.733   2.314   6.852
 2796POPC   C4B39082  14.589   2.202   7.261
 2797POPC   NC339083  12.518  30.158   5.109
 2797POPC   PO439084  12.837  29.597   5.433
 2797POPC   GL139085  12.938  29.761   5.843
 2797POPC   GL239086  12.948  30.123   5.860
 2797POPC   C1A39087  13.173  29.700   6.202
 2797POPC   D2A39088  12.995  29.654   6.613
 2797POPC   C3A39089  13.076  29.775   7.031
 2797POPC   C4A39090  12.838  29.613   7.382
 2797POPC   C1B39091  12.816  30.054   6.304
 2797POPC   C2B39092  12.821  30.134   6.755
 2797POPC   C3B39093  12.601  30.000   7.140
 2797POPC   C4B39094  12.511  30.125   7.577
 2798POPC   NC339095  18.526  17.072   5.440
 2798POPC   PO439096  18.129  16.522   5.391
 2798POPC   GL139097  18.349  16.681   5.754
 2798POPC   GL239098  18.135  16.980   5.809
 2798POPC   C1A39099  18.439  16.479   6.188
 2798POPC   D2A39100  18.313  16.253   6.602
 2798POPC   C3A39101  18.378  16.510   6.962
 2798POPC   C4A39102  18.094  16.837   7.122
 2798POPC   C1B39103  18.437  17.015   6.146
 2798POPC   C2B39104  18.600  17.131   6.564
 2798POPC   C3B39105  18.702  16.993   6.997
 2798POPC   C4B39106  18.582  16.767   7.375
 2799POPC   NC339107  14.055  44.388   5.580
 2799POPC   PO439108  13.724  44.860   5.209
 2799POPC   GL139109  13.878  44.880   5.698
 2799POPC   GL239110  13.745  44.593   5.921
 2799POPC   C1A39111  13.747   0.013   6.163
 2799POPC   D2A39112  13.605  44.739   6.534
 2799POPC   C3A39113  13.796  44.865   6.943
 2799POPC   C4A39114  13.741  44.747   7.385
 2799POPC   C1B39115  13.459  44.347   6.180
 2799POPC   C2B39116  13.223  44.296   6.517
 2799POPC   C3B39117  13.333  44.448   6.895
 2799POPC   C4B39118  13.588  44.285   7.202
 2800POPC   NC339119   1.278  37.441   5.335
 2800POPC   PO439120   0.960  38.061   5.414
 2800POPC   GL139121   1.250  37.764   5.733
 2800POPC   GL239122   1.350  37.357   5.811
 2800POPC   C1A39123   1.311  37.666   6.190
 2800POPC   D2A39124   1.380  37.771   6.618
 2800POPC   C3A39125   1.093  37.688   6.946
 2800POPC   C4A39126   1.333  37.620   7.295
 2800POPC   C1B39127   1.209  37.136   6.140
 2800POPC   C2B39128   1.147  37.300   6.531
 2800POPC   C3B39129   1.323  37.235   6.899
 2800POPC   C4B39130   1.089  37.180   7.241
 2801POPC   NC339131  20.595  40.279   5.437
 2801POPC   PO439132  20.315  39.680   5.614
 2801POPC   GL139133  20.526  39.896   5.948
 2801POPC   GL239134  20.820  40.106   5.877
 2801POPC   C1A39135  20.680  39.919   6.371
 2801POPC   D2A39136  20.757  39.610   6.674
 2801POPC   C3A39137  20.543  39.737   7.035
 2801POPC   C4A39138  20.790  39.969   7.347
 2801POPC   C1B39139  20.585  40.374   6.146
 2801POPC   C2B39140  20.477  40.460   6.531
 2801POPC   C3B39141  20.635  40.233   6.848
 2801POPC   C4B39142  20.653  40.438   7.210
 2802POPC   NC339143   1.581  33.004   5.344
 2802POPC   PO439144   0.889  33.185   5.363
 2802POPC   GL139145   1.217  33.156   5.725
 2802POPC   GL239146   1.295  33.503   5.855
 2802POPC   C1A39147   1.212  32.857   6.117
 2802POPC   D2A39148   1.357  32.584   6.476
 2802POPC   C3A39149   1.285  32.709   6.912
 2802POPC   C4A39150   1.173  33.042   7.159
 2802POPC   C1B39151   1.358  33.327   6.226
 2802POPC   C2B39152   1.349  33.143   6.620
 2802POPC   C3B39153   1.221  33.465   6.883
 2802POPC   C4B39154   0.851  33.498   7.145
 2803POPC   NC339155  27.409  14.604   5.322
 2803POPC   PO439156  28.048  14.601   5.388
 2803POPC   GL139157  27.729  14.550   5.751
 2803POPC   GL239158  27.421  14.749   5.815
 2803POPC   C1A39159  27.712  14.593   6.219
 2803POPC   D2A39160  27.791  14.382   6.618
 2803POPC   C3A39161  27.635  14.342   7.045
 2803POPC   C4A39162  27.327  14.046   7.225
 2803POPC   C1B39163  27.213  14.679   6.217
 2803POPC   C2B39164  27.372  14.739   6.640
 2803POPC   C3B39165  27.280  14.678   7.060
 2803POPC   C4B39166  27.536  14.718   7.414
 2804POPC   NC339167   8.380  30.245   5.442
 2804POPC   PO439168   7.990  30.724   5.338
 2804POPC   GL139169   8.009  30.579   5.781
 2804POPC   GL239170   8.347  30.563   5.848
 2804POPC   C1A39171   8.010  30.360   6.201
 2804POPC   D2A39172   7.929  30.606   6.592
 2804POPC   C3A39173   8.241  30.642   6.891
 2804POPC   C4A39174   8.233  30.457   7.302
 2804POPC   C1B39175   8.322  30.761   6.272
 2804POPC   C2B39176   8.435  31.101   6.547
 2804POPC   C3B39177   8.587  31.082   6.941
 2804POPC   C4B39178   8.676  30.729   7.173
 2805POPC   NC339179  19.998  11.590   5.463
 2805POPC   PO439180  19.609  12.143   5.414
 2805POPC   GL139181  19.684  11.892   5.773
 2805POPC   GL239182  19.542  11.554   5.695
 2805POPC   C1A39183  19.930  12.020   6.133
 2805POPC   D2A39184  19.874  12.046   6.554
 2805POPC   C3A39185  19.920  12.365   6.837
 2805POPC   C4A39186  19.982  12.169   7.230
 2805POPC   C1B39187  19.444  11.581   6.140
 2805POPC   C2B39188  19.378  11.906   6.471
 2805POPC   C3B39189  19.487  12.081   6.891
 2805POPC   C4B39190  19.615  11.757   7.144
 2806POPC   NC339191  10.741   9.889   5.241
 2806POPC   PO439192  10.396   9.391   5.008
 2806POPC   GL139193  10.340   9.583   5.485
 2806POPC   GL239194  10.685   9.639   5.727
 2806POPC   C1A39195  10.215   9.601   5.956
 2806POPC   D2A39196  10.372   9.793   6.368
 2806POPC   C3A39197  10.329   9.693   6.819
 2806POPC   C4A39198  10.368   9.548   7.268
 2806POPC   C1B39199  10.796   9.974   6.113
 2806POPC   C2B39200  10.764  10.119   6.556
 2806POPC   C3B39201  10.784   9.884   6.954
 2806POPC   C4B39202  10.787   9.847   7.399
 2807POPC   NC339203  32.412  18.404   5.557
 2807POPC   PO439204  31.787  18.468   5.530
 2807POPC   GL139205  32.043  18.226   5.872
 2807POPC   GL239206  32.305  17.950   5.810
 2807POPC   C1A39207  32.361  18.295   6.218
 2807POPC   D2A39208  32.346  18.499   6.603
 2807POPC   C3A39209  32.152  18.343   6.977
 2807POPC   C4A39210  32.359  18.321   7.378
 2807POPC   C1B39211  32.141  17.835   6.240
 2807POPC   C2B39212  32.220  17.939   6.681
 2807POPC   C3B39213  32.288  17.871   7.139
 2807POPC   C4B39214  32.164  17.889   7.585
 2808POPC   NC339215  35.299  17.036   5.541
 2808POPC   PO439216  35.792  16.451   5.545
 2808POPC   GL139217  35.680  16.615   5.984
 2808POPC   GL239218  35.614  16.984   5.929
 2808POPC   C1A39219  35.453  16.511   6.406
 2808POPC   D2A39220  35.087  16.752   6.597
 2808POPC   C3A39221  35.150  16.948   6.983
 2808POPC   C4A39222  35.179  16.776   7.407
 2808POPC   C1B39223  35.388  17.006   6.273
 2808POPC   C2B39224  35.548  17.087   6.655
 2808POPC   C3B39225  35.656  17.043   7.051
 2808POPC   C4B39226  35.688  16.848   7.397
 2809POPC   NC339227  14.910  18.314   5.354
 2809POPC   PO439228  15.555  18.456   5.454
 2809POPC   GL139229  15.240  18.406   5.769
 2809POPC   GL239230  15.006  18.651   5.776
 2809POPC   C1A39231  15.154  18.244   6.181
 2809POPC   D2A39232  14.945  18.179   6.572
 2809POPC   C3A39233  15.179  18.156   6.925
 2809POPC   C4A39234  15.179  18.366   7.304
 2809POPC   C1B39235  14.774  18.596   6.180
 2809POPC   C2B39236  14.772  18.658   6.633
 2809POPC   C3B39237  14.736  18.410   7.027
 2809POPC   C4B39238  14.463  18.560   7.375
 2810POPC   NC339239  26.765  41.798   5.227
 2810POPC   PO439240  27.011  41.168   5.332
 2810POPC   GL139241  26.852  41.488   5.659
 2810POPC   GL239242  27.082  41.792   5.649
 2810POPC   C1A39243  26.542  41.441   6.056
 2810POPC   D2A39244  26.229  41.259   6.404
 2810POPC   C3A39245  26.309  41.405   6.837
 2810POPC   C4A39246  26.651  41.544   7.103
 2810POPC   C1B39247  26.984  41.778   6.104
 2810POPC   C2B39248  26.889  41.842   6.568
 2810POPC   C3B39249  27.050  41.837   7.019
 2810POPC   C4B39250  26.808  41.913   7.430
 2811POPC   NC339251  33.959  42.555   5.366
 2811POPC   PO439252  33.857  41.867   5.453
 2811POPC   GL139253  33.785  42.175   5.808
 2811POPC   GL239254  34.081  42.411   5.848
 2811POPC   C1A39255  33.570  42.123   6.229
 2811POPC   D2A39256  33.449  42.371   6.575
 2811POPC   C3A39257  33.525  42.203   6.964
 2811POPC   C4A39258  33.737  42.530   7.175
 2811POPC   C1B39259  33.881  42.528   6.240
 2811POPC   C2B39260  33.940  42.345   6.675
 2811POPC   C3B39261  34.033  42.146   7.066
 2811POPC   C4B39262  34.371  42.227   7.292
 2812POPC   NC339263  36.821  12.892   5.287
 2812POPC   PO439264  36.404  12.356   5.461
 2812POPC   GL139265  36.830  12.529   5.692
 2812POPC   GL239266  36.856  12.914   5.836
 2812POPC   C1A39267  37.160  12.591   6.067
 2812POPC   D2A39268  36.918  12.767   6.456
 2812POPC   C3A39269  36.963  12.745   6.905
 2812POPC   C4A39270  36.869  12.642   7.349
 2812POPC   C1B39271  37.197  13.092   6.194
 2812POPC   C2B39272  37.233  13.136   6.700
 2812POPC   C3B39273  36.896  13.208   7.080
 2812POPC   C4B39274  36.454  13.305   7.203
 2813POPC   NC339275  27.489  24.779   5.534
 2813POPC   PO439276  27.493  24.157   5.450
 2813POPC   GL139277  27.520  24.195   5.882
 2813POPC   GL239278  27.536  24.547   5.982
 2813POPC   C1A39279  27.363  24.182   6.302
 2813POPC   D2A39280  27.472  24.476   6.605
 2813POPC   C3A39281  27.687  24.411   6.964
 2813POPC   C4A39282  27.446  24.158   7.202
 2813POPC   C1B39283  27.866  24.534   6.287
 2813POPC   C2B39284  28.093  24.328   6.636
 2813POPC   C3B39285  28.182  24.405   7.069
 2813POPC   C4B39286  27.981  24.808   7.207
 2814POPC   NC339287   0.983  10.860   5.524
 2814POPC   PO439288   1.336  10.383   5.164
 2814POPC   GL139289   1.400  10.502   5.598
 2814POPC   GL239290   1.084  10.361   5.713
 2814POPC   C1A39291   1.388  10.586   6.073
 2814POPC   D2A39292   1.258  10.414   6.485
 2814POPC   C3A39293   1.425  10.606   6.867
 2814POPC   C4A39294   1.321  10.718   7.277
 2814POPC   C1B39295   0.867  10.303   6.128
 2814POPC   C2B39296   0.741  10.183   6.565
 2814POPC   C3B39297   0.938  10.387   6.915
 2814POPC   C4B39298   0.819  10.699   7.224
 2815POPC   NC339299  19.997  42.074   5.184
 2815POPC   PO439300  19.607  42.585   5.423
 2815POPC   GL139301  19.768  42.432   5.807
 2815POPC   GL239302  19.955  42.138   5.716
 2815POPC   C1A39303  19.969  42.479   6.232
 2815POPC   D2A39304  20.082  42.348   6.658
 2815POPC   C3A39305  19.735  42.310   6.951
 2815POPC   C4A39306  19.472  42.495   7.289
 2815POPC   C1B39307  20.130  42.028   6.095
 2815POPC   C2B39308  19.970  41.847   6.493
 2815POPC   C3B39309  20.083  41.868   6.927
 2815POPC   C4B39310  19.948  41.998   7.330
 2816POPC   NC339311   5.811   8.026   5.654
 2816POPC   PO439312   5.653   8.438   5.190
 2816POPC   GL139313   6.076   8.482   5.636
 2816POPC   GL239314   6.245   8.181   5.806
 2816POPC   C1A39315   6.153   8.532   6.145
 2816POPC   D2A39316   6.189   8.350   6.603
 2816POPC   C3A39317   5.825   8.460   6.895
 2816POPC   C4A39318   5.729   8.275   7.314
 2816POPC   C1B39319   6.099   8.005   6.223
 2816POPC   C2B39320   5.779   8.014   6.546
 2816POPC   C3B39321   5.878   7.933   6.949
 2816POPC   C4B39322   5.695   7.779   7.316
 2817POPC   NC339323  20.062  33.210   5.641
 2817POPC   PO439324  19.375  32.980   5.559
 2817POPC   GL139325  19.644  33.079   5.895
 2817POPC   GL239326  19.877  32.776   5.831
 2817POPC   C1A39327  19.912  33.074   6.291
 2817POPC   D2A39328  20.108  32.885   6.655
 2817POPC   C3A39329  20.084  33.087   7.037
 2817POPC   C4A39330  19.726  33.279   7.215
 2817POPC   C1B39331  19.625  32.661   6.181
 2817POPC   C2B39332  19.734  32.542   6.552
 2817POPC   C3B39333  19.704  32.660   6.942
 2817POPC   C4B39334  19.709  32.760   7.354
 2818POPC   NC339335  27.182  23.186   5.555
 2818POPC   PO439336  27.003  22.704   5.124
 2818POPC   GL139337  26.722  22.713   5.576
 2818POPC   GL239338  26.894  22.884   5.866
 2818POPC   C1A39339  26.501  22.635   6.057
 2818POPC   D2A39340  26.645  22.632   6.526
 2818POPC   C3A39341  26.626  23.012   6.804
 2818POPC   C4A39342  26.603  23.245   7.186
 2818POPC   C1B39343  27.054  22.595   6.213
 2818POPC   C2B39344  27.152  22.670   6.659
 2818POPC   C3B39345  26.910  22.642   7.031
 2818POPC   C4B39346  26.811  22.849   7.404
 2819POPC   NC339347  25.093  32.014   5.630
 2819POPC   PO439348  25.645  32.435   5.492
 2819POPC   GL139349  25.357  32.471   5.853
 2819POPC   GL239350  25.580  32.223   5.987
 2819POPC   C1A39351  24.998  32.463   6.184
 2819POPC   D2A39352  24.857  32.208   6.569
 2819POPC   C3A39353  24.996  32.166   6.985
 2819POPC   C4A39354  25.130  32.586   7.095
 2819POPC   C1B39355  25.484  32.417   6.356
 2819POPC   C2B39356  25.429  32.315   6.758
 2819POPC   C3B39357  25.466  32.202   7.179
 2819POPC   C4B39358  25.237  31.992   7.522
 2820POPC   NC339359   3.825  39.562   5.440
 2820POPC   PO439360   3.663  38.908   5.266
 2820POPC   GL139361   3.699  39.047   5.729
 2820POPC   GL239362   3.512  39.338   5.828
 2820POPC   C1A39363   3.512  39.006   6.183
 2820POPC   D2A39364   3.442  39.264   6.554
 2820POPC   C3A39365   3.378  39.044   6.920
 2820POPC   C4A39366   3.625  39.149   7.268
 2820POPC   C1B39367   3.618  39.578   6.214
 2820POPC   C2B39368   3.851  39.637   6.579
 2820POPC   C3B39369   3.707  39.587   6.984
 2820POPC   C4B39370   3.848  39.739   7.366
 2821POPC   NC339371  39.449  24.607   5.426
 2821POPC   PO439372  38.882  24.162   5.403
 2821POPC   GL139373  38.886  24.283   5.796
 2821POPC   GL239374  38.997  24.599   5.793
 2821POPC   C1A39375  38.749  24.421   6.216
 2821POPC   D2A39376  38.951  24.520   6.609
 2821POPC   C3A39377  38.794  24.354   6.986
 2821POPC   C4A39378  38.867  24.164   7.413
 2821POPC   C1B39379  39.247  24.395   6.123
 2821POPC   C2B39380  39.310  24.133   6.500
 2821POPC   C3B39381  39.335  24.131   6.946
 2821POPC   C4B39382  39.260  24.440   7.263
 2822POPC   NC339383   2.233   4.636   5.325
 2822POPC   PO439384   1.886   4.091   5.492
 2822POPC   GL139385   2.101   4.373   5.769
 2822POPC   GL239386   2.275   4.161   5.985
 2822POPC   C1A39387   1.973   4.499   6.194
 2822POPC   D2A39388   1.886   4.319   6.609
 2822POPC   C3A39389   2.014   4.353   7.046
 2822POPC   C4A39390   1.699   4.319   7.373
 2822POPC   C1B39391   2.050   3.937   6.317
 2822POPC   C2B39392   2.244   3.738   6.674
 2822POPC   C3B39393   2.338   3.947   7.047
 2822POPC   C4B39394   2.047   3.951   7.407
 2823POPC   NC339395   5.015   9.573   5.543
 2823POPC   PO439396   5.409  10.061   5.436
 2823POPC   GL139397   5.369   9.841   5.829
 2823POPC   GL239398   5.004   9.949   5.888
 2823POPC   C1A39399   5.289   9.678   6.255
 2823POPC   D2A39400   5.000   9.581   6.565
 2823POPC   C3A39401   5.034   9.758   6.955
 2823POPC   C4A39402   4.976   9.506   7.299
 2823POPC   C1B39403   4.797  10.270   6.161
 2823POPC   C2B39404   4.881  10.148   6.591
 2823POPC   C3B39405   4.692  10.200   6.969
 2823POPC   C4B39406   4.643   9.890   7.263
 2824POPC   NC339407   4.920  24.570   5.360
 2824POPC   PO439408   5.633  24.475   5.278
 2824POPC   GL139409   5.328  24.501   5.687
 2824POPC   GL239410   5.024  24.346   5.806
 2824POPC   C1A39411   5.296  24.497   6.189
 2824POPC   D2A39412   5.038  24.611   6.554
 2824POPC   C3A39413   5.106  24.709   6.996
 2824POPC   C4A39414   5.304  24.420   7.264
 2824POPC   C1B39415   4.789  24.364   6.173
 2824POPC   C2B39416   4.799  24.173   6.580
 2824POPC   C3B39417   4.724  24.373   6.984
 2824POPC   C4B39418   4.851  24.195   7.404
 2825POPC   NC339419  25.639  25.240   5.353
 2825POPC   PO439420  25.003  25.159   5.195
 2825POPC   GL139421  25.206  25.314   5.590
 2825POPC   GL239422  25.121  25.005   5.744
 2825POPC   C1A39423  25.314  25.351   6.090
 2825POPC   D2A39424  25.456  25.152   6.514
 2825POPC   C3A39425  25.364  25.253   6.917
 2825POPC   C4A39426  25.574  25.510   7.193
 2825POPC   C1B39427  24.939  24.996   6.164
 2825POPC   C2B39428  24.957  25.257   6.508
 2825POPC   C3B39429  24.831  25.183   6.880
 2825POPC   C4B39430  25.013  24.999   7.158
 2826POPC   NC339431  36.677  20.796   5.084
 2826POPC   PO439432  36.151  20.369   5.245
 2826POPC   GL139433  36.098  20.447   5.672
 2826POPC   GL239434  36.264  20.132   5.739
 2826POPC   C1A39435  36.247  20.605   6.060
 2826POPC   D2A39436  35.998  20.720   6.421
 2826POPC   C3A39437  36.201  20.819   6.778
 2826POPC   C4A39438  36.099  20.713   7.173
 2826POPC   C1B39439  35.997  20.175   6.109
 2826POPC   C2B39440  35.840  20.171   6.509
 2826POPC   C3B39441  35.884  20.310   6.914
 2826POPC   C4B39442  35.848  20.146   7.328
 2827POPC   NC339443  27.737  17.384   5.211
 2827POPC   PO439444  28.377  17.260   5.343
 2827POPC   GL139445  28.310  17.550   5.691
 2827POPC   GL239446  28.149  17.299   5.905
 2827POPC   C1A39447  28.374  17.681   6.138
 2827POPC   D2A39448  28.601  17.652   6.528
 2827POPC   C3A39449  28.401  17.548   6.933
 2827POPC   C4A39450  28.319  17.526   7.390
 2827POPC   C1B39451  27.961  17.437   6.302
 2827POPC   C2B39452  28.040  17.272   6.710
 2827POPC   C3B39453  28.008  17.109   7.110
 2827POPC   C4B39454  27.818  17.317   7.432
 2828POPC   NC339455  12.430  24.139   5.233
 2828POPC   PO439456  13.086  23.756   5.221
 2828POPC   GL139457  12.989  23.700   5.707
 2828POPC   GL239458  12.694  23.951   5.839
 2828POPC   C1A39459  12.841  23.574   6.137
 2828POPC   D2A39460  12.897  23.706   6.571
 2828POPC   C3A39461  12.863  23.485   6.974
 2828POPC   C4A39462  12.683  23.772   7.275
 2828POPC   C1B39463  13.064  24.066   6.136
 2828POPC   C2B39464  13.246  24.091   6.592
 2828POPC   C3B39465  13.135  23.928   7.039
 2828POPC   C4B39466  13.110  23.912   7.534
 2829POPC   NC339467  35.866  10.312   5.285
 2829POPC   PO439468  36.253  10.903   5.357
 2829POPC   GL139469  36.080  10.748   5.755
 2829POPC   GL239470  36.089  10.376   5.795
 2829POPC   C1A39471  35.850  10.739   6.161
 2829POPC   D2A39472  35.886  10.523   6.566
 2829POPC   C3A39473  36.009  10.701   6.950
 2829POPC   C4A39474  36.368  10.517   7.183
 2829POPC   C1B39475  35.839  10.203   6.169
 2829POPC   C2B39476  35.782  10.019   6.623
 2829POPC   C3B39477  35.926  10.200   7.040
 2829POPC   C4B39478  35.869  10.198   7.510
 2830POPC   NC339479  14.524  14.052   5.391
 2830POPC   PO439480  14.113  13.435   5.401
 2830POPC   GL139481  14.374  13.663   5.681
 2830POPC   GL239482  14.181  13.927   5.859
 2830POPC   C1A39483  14.727  13.665   5.999
 2830POPC   D2A39484  14.829  13.662   6.455
 2830POPC   C3A39485  14.476  13.736   6.751
 2830POPC   C4A39486  14.543  13.705   7.196
 2830POPC   C1B39487  14.245  13.518   6.143
 2830POPC   C2B39488  14.319  13.281   6.521
 2830POPC   C3B39489  14.148  13.371   6.935
 2830POPC   C4B39490  14.338  13.261   7.294
 2831POPC   NC339491  30.660   8.600   5.408
 2831POPC   PO439492  31.071   9.193   5.399
 2831POPC   GL139493  30.849   8.965   5.730
 2831POPC   GL239494  30.893   8.622   5.841
 2831POPC   C1A39495  30.662   8.992   6.140
 2831POPC   D2A39496  30.561   8.998   6.593
 2831POPC   C3A39497  30.693   9.211   7.018
 2831POPC   C4A39498  30.465   9.300   7.439
 2831POPC   C1B39499  30.816   8.451   6.236
 2831POPC   C2B39500  30.630   8.477   6.633
 2831POPC   C3B39501  30.604   8.700   7.010
 2831POPC   C4B39502  30.884   8.574   7.294
 2832POPC   NC339503   8.467   3.559   5.136
 2832POPC   PO439504   7.893   3.360   5.456
 2832POPC   GL139505   8.110   3.562   5.831
 2832POPC   GL239506   8.421   3.662   5.663
 2832POPC   C1A39507   8.163   3.447   6.288
 2832POPC   D2A39508   7.988   3.540   6.722
 2832POPC   C3A39509   8.166   3.479   7.144
 2832POPC   C4A39510   8.077   3.341   7.598
 2832POPC   C1B39511   8.546   3.751   6.093
 2832POPC   C2B39512   8.437   3.823   6.532
 2832POPC   C3B39513   8.432   3.931   6.948
 2832POPC   C4B39514   8.551   3.832   7.342
 2833POPC   NC339515   0.856  13.286   5.636
 2833POPC   PO439516   0.444  13.757   5.339
 2833POPC   GL139517   0.675  13.771   5.708
 2833POPC   GL239518   0.427  13.517   5.825
 2833POPC   C1A39519   0.562  13.869   6.154
 2833POPC   D2A39520   0.215  13.702   6.447
 2833POPC   C3A39521   0.210  13.881   6.878
 2833POPC   C4A39522   0.486  13.780   7.197
 2833POPC   C1B39523   0.378  13.240   6.185
 2833POPC   C2B39524   0.233  13.128   6.590
 2833POPC   C3B39525   0.380  13.349   6.928
 2833POPC   C4B39526   0.455  13.282   7.353
 2834POPC   NC339527  41.592   1.456   5.373
 2834POPC   PO439528  41.688   2.204   5.407
 2834POPC   GL139529  41.780   2.103   5.817
 2834POPC   GL239530  41.604   1.797   5.782
 2834POPC   C1A39531  41.623   2.113   6.247
 2834POPC   D2A39532  41.552   2.328   6.670
 2834POPC   C3A39533  41.521   2.072   7.036
 2834POPC   C4A39534  41.675   2.045   7.493
 2834POPC   C1B39535  41.404   1.630   6.169
 2834POPC   C2B39536  41.268   1.457   6.554
 2834POPC   C3B39537  41.410   1.564   6.980
 2834POPC   C4B39538  41.275   1.751   7.345
 2835POPC   NC339539  15.484  11.842   5.450
 2835POPC   PO439540  15.148  11.235   5.589
 2835POPC   GL139541  15.223  11.558   5.870
 2835POPC   GL239542  14.911  11.637   6.024
 2835POPC   C1A39543  15.463  11.462   6.240
 2835POPC   D2A39544  15.691  11.308   6.619
 2835POPC   C3A39545  15.419  11.401   6.965
 2835POPC   C4A39546  15.043  11.661   7.076
 2835POPC   C1B39547  14.960  11.282   6.236
 2835POPC   C2B39548  15.164  11.198   6.565
 2835POPC   C3B39549  14.950  11.206   6.872
 2835POPC   C4B39550  15.018  11.049   7.212
 2836POPC   NC339551  13.479  17.926   5.604
 2836POPC   PO439552  13.878  17.473   5.248
 2836POPC   GL139553  13.770  17.326   5.681
 2836POPC   GL239554  13.837  17.615   5.869
 2836POPC   C1A39555  13.479  17.351   6.103
 2836POPC   D2A39556  13.573  17.472   6.574
 2836POPC   C3A39557  13.410  17.385   7.003
 2836POPC   C4A39558  13.665  17.446   7.405
 2836POPC   C1B39559  13.660  17.837   6.231
 2836POPC   C2B39560  13.685  18.033   6.630
 2836POPC   C3B39561  13.662  17.826   6.995
 2836POPC   C4B39562  13.344  17.815   7.303
 2837POPC   NC339563  36.961  17.354   5.440
 2837POPC   PO439564  36.910  17.980   5.397
 2837POPC   GL139565  36.870  17.703   5.790
 2837POPC   GL239566  36.562  17.513   5.828
 2837POPC   C1A39567  36.922  17.406   6.169
 2837POPC   D2A39568  37.281  17.365   6.442
 2837POPC   C3A39569  37.132  17.471   6.852
 2837POPC   C4A39570  37.075  17.563   7.277
 2837POPC   C1B39571  36.372  17.419   6.231
 2837POPC   C2B39572  36.481  17.338   6.675
 2837POPC   C3B39573  36.619  17.480   7.074
 2837POPC   C4B39574  36.618  17.352   7.524
 2838POPC   NC339575  39.502  39.920   5.528
 2838POPC   PO439576  38.950  40.206   5.474
 2838POPC   GL139577  39.146  40.089   5.854
 2838POPC   GL239578  39.458  40.273   5.905
 2838POPC   C1A39579  39.370  39.874   6.217
 2838POPC   D2A39580  39.545  39.919   6.633
 2838POPC   C3A39581  39.332  39.952   7.047
 2838POPC   C4A39582  39.159  39.925   7.465
 2838POPC   C1B39583  39.166  40.350   6.279
 2838POPC   C2B39584  39.115  40.524   6.682
 2838POPC   C3B39585  39.272  40.468   7.121
 2838POPC   C4B39586  39.178  40.432   7.553
 2839POPC   NC339587  29.776  30.680   5.409
 2839POPC   PO439588  30.130  31.162   5.695
 2839POPC   GL139589  29.890  30.837   5.930
 2839POPC   GL239590  29.769  30.498   5.886
 2839POPC   C1A39591  29.845  30.740   6.378
 2839POPC   D2A39592  30.104  30.793   6.764
 2839POPC   C3A39593  29.869  30.851   7.110
 2839POPC   C4A39594  29.585  31.158   7.098
 2839POPC   C1B39595  29.978  30.271   6.221
 2839POPC   C2B39596  29.971  30.314   6.674
 2839POPC   C3B39597  30.087  30.385   7.114
 2839POPC   C4B39598  29.809  30.415   7.466
 2840POPC   NC339599  10.060  10.032   5.377
 2840POPC   PO439600   9.635   9.555   5.432
 2840POPC   GL139601   9.703   9.618   5.823
 2840POPC   GL239602   9.518   9.302   5.907
 2840POPC   C1A39603   9.868   9.917   6.172
 2840POPC   D2A39604  10.002  10.100   6.582
 2840POPC   C3A39605   9.909   9.921   6.989
 2840POPC   C4A39606   9.536   9.838   7.213
 2840POPC   C1B39607   9.840   9.347   6.219
 2840POPC   C2B39608   9.890   9.574   6.575
 2840POPC   C3B39609   9.896   9.423   6.980
 2840POPC   C4B39610   9.905   9.353   7.378
 2841POPC   NC339611  33.286  18.377   5.563
 2841POPC   PO439612  32.699  18.062   5.476
 2841POPC   GL139613  32.836  18.212   5.848
 2841POPC   GL239614  32.867  18.585   5.792
 2841POPC   C1A39615  33.112  18.051   6.172
 2841POPC   D2A39616  33.323  18.241   6.538
 2841POPC   C3A39617  33.185  18.312   6.949
 2841POPC   C4A39618  33.146  17.987   7.251
 2841POPC   C1B39619  33.068  18.563   6.212
 2841POPC   C2B39620  32.818  18.327   6.540
 2841POPC   C3B39621  32.675  18.194   6.963
 2841POPC   C4B39622  32.856  18.411   7.332
 2842POPC   NC339623  13.643  22.712   5.542
 2842POPC   PO439624  13.419  23.228   5.095
 2842POPC   GL139625  13.335  23.204   5.611
 2842POPC   GL239626  13.317  22.887   5.876
 2842POPC   C1A39627  13.436  23.321   6.089
 2842POPC   D2A39628  13.474  23.103   6.500
 2842POPC   C3A39629  13.589  23.190   6.937
 2842POPC   C4A39630  13.342  23.451   7.225
 2842POPC   C1B39631  13.637  22.729   6.195
 2842POPC   C2B39632  13.665  22.655   6.640
 2842POPC   C3B39633  13.411  22.689   6.990
 2842POPC   C4B39634  13.133  22.986   7.153
 2843POPC   NC339635  29.951  37.585   5.391
 2843POPC   PO439636  29.535  37.149   5.501
 2843POPC   GL139637  29.683  37.513   5.819
 2843POPC   GL239638  29.474  37.584   6.087
 2843POPC   C1A39639  29.918  37.698   6.242
 2843POPC   D2A39640  29.664  37.605   6.636
 2843POPC   C3A39641  29.576  37.873   6.997
 2843POPC   C4A39642  29.926  38.014   7.274
 2843POPC   C1B39643  29.674  37.225   6.298
 2843POPC   C2B39644  29.861  37.153   6.737
 2843POPC   C3B39645  29.852  37.450   7.097
 2843POPC   C4B39646  29.637  37.638   7.459
 2844POPC   NC339647   1.095  36.572   4.876
 2844POPC   PO439648   1.142  37.005   5.308
 2844POPC   GL139649   1.143  36.813   5.719
 2844POPC   GL239650   1.490  36.850   5.769
 2844POPC   C1A39651   1.202  36.603   6.142
 2844POPC   D2A39652   0.992  36.638   6.545
 2844POPC   C3A39653   1.123  36.733   6.968
 2844POPC   C4A39654   0.981  36.499   7.341
 2844POPC   C1B39655   1.657  36.838   6.164
 2844POPC   C2B39656   1.458  36.881   6.529
 2844POPC   C3B39657   1.638  36.769   6.893
 2844POPC   C4B39658   1.549  36.937   7.248
 2845POPC   NC339659  27.953  19.179   5.474
 2845POPC   PO439660  27.416  18.786   5.442
 2845POPC   GL139661  27.496  18.749   5.853
 2845POPC   GL239662  27.822  18.807   5.810
 2845POPC   C1A39663  27.411  18.926   6.253
 2845POPC   D2A39664  27.454  19.074   6.658
 2845POPC   C3A39665  27.645  18.838   6.993
 2845POPC   C4A39666  27.523  18.909   7.409
 2845POPC   C1B39667  27.870  19.121   6.127
 2845POPC   C2B39668  27.974  19.039   6.551
 2845POPC   C3B39669  27.885  19.279   6.906
 2845POPC   C4B39670  28.003  19.116   7.292
 2846POPC   NC339671  38.319  30.272   5.338
 2846POPC   PO439672  38.481  29.690   5.175
 2846POPC   GL139673  38.291  29.815   5.602
 2846POPC   GL239674  38.547  29.727   5.825
 2846POPC   C1A39675  38.221  30.018   6.057
 2846POPC   D2A39676  38.580  30.063   6.376
 2846POPC   C3A39677  38.451  29.969   6.808
 2846POPC   C4A39678  38.486  29.927   7.247
 2846POPC   C1B39679  38.744  29.603   6.210
 2846POPC   C2B39680  38.542  29.473   6.598
 2846POPC   C3B39681  38.605  29.497   7.019
 2846POPC   C4B39682  38.915  29.627   7.299
 2847POPC   NC339683  17.851  11.518   5.013
 2847POPC   PO439684  17.352  11.209   5.338
 2847POPC   GL139685  17.277  11.242   5.780
 2847POPC   GL239686  16.939  11.290   5.843
 2847POPC   C1A39687  17.463  11.181   6.201
 2847POPC   D2A39688  17.754  11.324   6.521
 2847POPC   C3A39689  17.626  11.190   6.918
 2847POPC   C4A39690  17.582  11.154   7.349
 2847POPC   C1B39691  17.026  11.450   6.251
 2847POPC   C2B39692  17.228  11.442   6.659
 2847POPC   C3B39693  17.145  11.289   7.062
 2847POPC   C4B39694  17.164  11.444   7.485
 2848POPC   NC339695  13.173  37.916   5.413
 2848POPC   PO439696  12.882  37.328   5.398
 2848POPC   GL139697  12.778  37.675   5.747
 2848POPC   GL239698  12.501  37.545   5.920
 2848POPC   C1A39699  12.756  37.919   6.193
 2848POPC   D2A39700  12.947  37.975   6.648
 2848POPC   C3A39701  12.983  37.685   7.016
 2848POPC   C4A39702  13.255  37.747   7.368
 2848POPC   C1B39703  12.438  37.363   6.329
 2848POPC   C2B39704  12.317  37.518   6.743
 2848POPC   C3B39705  12.493  37.484   7.156
 2848POPC   C4B39706  12.431  37.548   7.578
 2849POPC   NC339707  21.328  20.153   5.395
 2849POPC   PO439708  21.181  19.421   5.357
 2849POPC   GL139709  21.397  19.622   5.766
 2849POPC   GL239710  21.353  19.974   5.855
 2849POPC   C1A39711  21.627  19.730   6.175
 2849POPC   D2A39712  21.734  19.871   6.565
 2849POPC   C3A39713  21.524  19.683   6.872
 2849POPC   C4A39714  21.646  19.592   7.280
 2849POPC   C1B39715  21.045  19.897   6.185
 2849POPC   C2B39716  20.866  20.080   6.572
 2849POPC   C3B39717  20.879  19.903   6.986
 2849POPC   C4B39718  21.250  19.912   7.227
 2850POPC   NC339719  44.466  14.121   5.386
 2850POPC   PO439720   0.039  14.369   5.476
 2850POPC   GL139721  44.845  14.561   5.819
 2850POPC   GL239722  44.495  14.478   5.776
 2850POPC   C1A39723  44.744  14.388   6.229
 2850POPC   D2A39724  44.909  14.124   6.528
 2850POPC   C3A39725  44.909  14.359   6.898
 2850POPC   C4A39726  44.762  14.461   7.313
 2850POPC   C1B39727  44.241  14.463   6.119
 2850POPC   C2B39728  44.305  14.528   6.535
 2850POPC   C3B39729  44.379  14.445   6.943
 2850POPC   C4B39730  44.238  14.123   7.172
 2851POPC   NC339731  15.915  31.151   5.018
 2851POPC   PO439732  15.973  31.720   5.310
 2851POPC   GL139733  15.973  31.419   5.715
 2851POPC   GL239734  15.833  31.699   5.866
 2851POPC   C1A39735  16.092  31.356   6.159
 2851POPC   D2A39736  16.129  31.145   6.589
 2851POPC   C3A39737  16.000  31.304   6.971
 2851POPC   C4A39738  16.054  31.389   7.370
 2851POPC   C1B39739  15.628  31.630   6.269
 2851POPC   C2B39740  15.638  31.516   6.699
 2851POPC   C3B39741  15.681  31.695   7.139
 2851POPC   C4B39742  15.372  31.866   7.444
 2852POPC   NC339743  11.608  28.757   5.467
 2852POPC   PO439744  10.928  28.785   5.424
 2852POPC   GL139745  11.203  28.546   5.758
 2852POPC   GL239746  11.506  28.637   5.953
 2852POPC   C1A39747  11.197  28.240   6.114
 2852POPC   D2A39748  11.044  28.190   6.541
 2852POPC   C3A39749  11.298  28.272   6.889
 2852POPC   C4A39750  11.177  28.335   7.324
 2852POPC   C1B39751  11.320  28.658   6.373
 2852POPC   C2B39752  11.542  28.692   6.740
 2852POPC   C3B39753  11.512  28.686   7.161
 2852POPC   C4B39754  11.795  28.809   7.497
 2853POPC   NC339755  15.238  17.591   5.524
 2853POPC   PO439756  15.064  16.929   5.490
 2853POPC   GL139757  15.123  17.185   5.860
 2853POPC   GL239758  15.462  17.301   5.911
 2853POPC   C1A39759  15.188  17.140   6.311
 2853POPC   D2A39760  15.388  17.411   6.603
 2853POPC   C3A39761  15.119  17.579   6.908
 2853POPC   C4A39762  15.324  17.365   7.231
 2853POPC   C1B39763  15.333  17.665   6.164
 2853POPC   C2B39764  15.417  17.927   6.519
 2853POPC   C3B39765  15.619  17.879   6.901
 2853POPC   C4B39766  15.452  17.871   7.285
 2854POPC   NC339767  39.568  13.369   5.486
 2854POPC   PO439768  40.046  13.830   5.395
 2854POPC   GL139769  39.929  13.680   5.781
 2854POPC   GL239770  40.242  13.472   5.805
 2854POPC   C1A39771  39.859  13.640   6.232
 2854POPC   D2A39772  40.134  13.572   6.562
 2854POPC   C3A39773  39.980  13.634   6.942
 2854POPC   C4A39774  39.632  13.631   7.182
 2854POPC   C1B39775  40.404  13.322   6.202
 2854POPC   C2B39776  40.564  13.306   6.647
 2854POPC   C3B39777  40.262  13.204   6.983
 2854POPC   C4B39778  40.014  13.328   7.355
 2855POPC   NC339779  38.391   1.403   5.569
 2855POPC   PO439780  38.540   0.730   5.349
 2855POPC   GL139781  38.651   0.980   5.723
 2855POPC   GL239782  38.340   0.989   5.867
 2855POPC   C1A39783  38.667   1.229   6.152
 2855POPC   D2A39784  38.870   1.090   6.522
 2855POPC   C3A39785  38.804   1.336   6.875
 2855POPC   C4A39786  38.441   1.278   7.132
 2855POPC   C1B39787  38.140   0.916   6.247
 2855POPC   C2B39788  38.056   1.091   6.647
 2855POPC   C3B39789  38.075   0.937   7.047
 2855POPC   C4B39790  38.139   0.753   7.414
 2856POPC   NC339791  18.779  26.024   5.685
 2856POPC   PO439792  19.421  26.259   5.516
 2856POPC   GL139793  19.169  26.330   5.849
 2856POPC   GL239794  19.232  26.000   5.942
 2856POPC   C1A39795  19.059  26.337   6.289
 2856POPC   D2A39796  18.999  26.197   6.702
 2856POPC   C3A39797  18.817  26.180   7.121
 2856POPC   C4A39798  18.969  26.344   7.515
 2856POPC   C1B39799  19.505  25.638   6.095
 2856POPC   C2B39800  19.649  25.578   6.550
 2856POPC   C3B39801  19.491  25.622   7.009
 2856POPC   C4B39802  19.125  25.740   7.328
 2857POPC   NC339803  18.560  29.140   5.349
 2857POPC   PO439804  17.910  29.069   5.188
 2857POPC   GL139805  18.113  29.318   5.643
 2857POPC   GL239806  18.444  29.214   5.849
 2857POPC   C1A39807  18.068  29.331   6.144
 2857POPC   D2A39808  18.321  29.492   6.523
 2857POPC   C3A39809  18.343  29.325   6.949
 2857POPC   C4A39810  17.998  29.064   7.143
 2857POPC   C1B39811  18.413  28.931   6.213
 2857POPC   C2B39812  18.292  28.960   6.601
 2857POPC   C3B39813  18.420  28.815   6.971
 2857POPC   C4B39814  18.647  28.841   7.319
 2858POPC   NC339815  16.118   6.561   5.298
 2858POPC   PO439816  15.502   6.282   5.498
 2858POPC   GL139817  15.855   6.564   5.787
 2858POPC   GL239818  16.114   6.828   5.718
 2858POPC   C1A39819  15.776   6.846   6.180
 2858POPC   D2A39820  15.592   6.818   6.637
 2858POPC   C3A39821  15.718   6.698   7.093
 2858POPC   C4A39822  15.717   6.526   7.536
 2858POPC   C1B39823  16.272   6.741   6.106
 2858POPC   C2B39824  16.124   6.807   6.536
 2858POPC   C3B39825  16.195   6.851   6.967
 2858POPC   C4B39826  16.212   6.486   7.240
 2859POPC   NC339827  44.124   3.239   5.229
 2859POPC   PO439828  43.576   3.358   5.586
 2859POPC   GL139829  43.779   3.558   5.874
 2859POPC   GL239830  44.114   3.541   5.703
 2859POPC   C1A39831  43.490   3.608   6.223
 2859POPC   D2A39832  43.535   3.484   6.595
 2859POPC   C3A39833  43.460   3.543   6.989
 2859POPC   C4A39834  43.668   3.546   7.351
 2859POPC   C1B39835  44.206   3.485   6.139
 2859POPC   C2B39836  44.048   3.407   6.540
 2859POPC   C3B39837  43.962   3.417   6.949
 2859POPC   C4B39838  44.157   3.302   7.316
 2860POPC   NC339839   5.636   9.682   5.271
 2860POPC   PO439840   6.183   9.967   5.473
 2860POPC   GL139841   5.913   9.914   5.838
 2860POPC   GL239842   5.885   9.600   5.722
 2860POPC   C1A39843   5.768   9.932   6.290
 2860POPC   D2A39844   5.899   9.727   6.694
 2860POPC   C3A39845   5.956   9.941   7.095
 2860POPC   C4A39846   5.567   9.961   7.311
 2860POPC   C1B39847   5.670   9.414   6.034
 2860POPC   C2B39848   5.624   9.327   6.476
 2860POPC   C3B39849   5.473   9.460   6.876
 2860POPC   C4B39850   5.754   9.465   7.234
 2861POPC   NC339851  35.061   1.322   5.418
 2861POPC   PO439852  35.719   1.473   5.553
 2861POPC   GL139853  35.462   1.110   5.799
 2861POPC   GL239854  35.057   1.067   5.848
 2861POPC   C1A39855  35.341   1.182   6.235
 2861POPC   D2A39856  35.527   1.171   6.630
 2861POPC   C3A39857  35.412   1.492   6.922
 2861POPC   C4A39858  35.446   1.309   7.278
 2861POPC   C1B39859  34.952   0.817   6.218
 2861POPC   C2B39860  35.079   0.888   6.651
 2861POPC   C3B39861  35.043   1.099   7.043
 2861POPC   C4B39862  34.807   0.906   7.394
 2862POPC   NC339863  15.660   5.774   5.477
 2862POPC   PO439864  16.296   6.068   5.274
 2862POPC   GL139865  16.095   5.932   5.722
 2862POPC   GL239866  15.754   6.077   5.893
 2862POPC   C1A39867  16.005   5.754   6.159
 2862POPC   D2A39868  15.832   5.891   6.556
 2862POPC   C3A39869  16.040   5.699   6.905
 2862POPC   C4A39870  15.895   5.661   7.311
 2862POPC   C1B39871  15.910   6.337   6.270
 2862POPC   C2B39872  15.944   6.380   6.734
 2862POPC   C3B39873  15.867   6.149   7.111
 2862POPC   C4B39874  15.995   6.110   7.570
 2863POPC   NC339875   6.883  42.217   5.386
 2863POPC   PO439876   6.276  42.218   5.516
 2863POPC   GL139877   6.630  42.197   5.825
 2863POPC   GL239878   6.914  42.460   5.839
 2863POPC   C1A39879   6.867  42.063   6.163
 2863POPC   D2A39880   6.664  42.098   6.576
 2863POPC   C3A39881   6.916  42.110   6.945
 2863POPC   C4A39882   6.738  42.100   7.368
 2863POPC   C1B39883   6.751  42.545   6.272
 2863POPC   C2B39884   6.840  42.577   6.721
 2863POPC   C3B39885   6.751  42.547   7.154
 2863POPC   C4B39886   6.644  42.730   7.561
 2864POPC   NC339887  29.785  20.333   5.525
 2864POPC   PO439888  30.185  20.767   5.254
 2864POPC   GL139889  30.136  20.661   5.722
 2864POPC   GL239890  29.790  20.784   5.786
 2864POPC   C1A39891  29.998  20.505   6.181
 2864POPC   D2A39892  29.708  20.416   6.579
 2864POPC   C3A39893  29.963  20.340   6.979
 2864POPC   C4A39894  30.168  20.619   7.307
 2864POPC   C1B39895  29.617  20.853   6.209
 2864POPC   C2B39896  29.753  20.954   6.640
 2864POPC   C3B39897  29.728  20.806   7.085
 2864POPC   C4B39898  29.738  20.791   7.551
 2865POPC   NC339899   4.547  10.919   5.177
 2865POPC   PO439900   4.381  11.616   5.164
 2865POPC   GL139901   4.223  11.513   5.705
 2865POPC   GL239902   4.122  11.225   5.879
 2865POPC   C1A39903   4.472  11.442   6.148
 2865POPC   D2A39904   4.338  11.464   6.557
 2865POPC   C3A39905   4.503  11.211   6.893
 2865POPC   C4A39906   4.534  11.416   7.301
 2865POPC   C1B39907   4.150  11.030   6.306
 2865POPC   C2B39908   4.018  11.093   6.753
 2865POPC   C3B39909   4.111  11.152   7.222
 2865POPC   C4B39910   4.269  10.998   7.669
 2866POPC   NC339911  25.785  37.914   5.400
 2866POPC   PO439912  26.072  37.345   5.428
 2866POPC   GL139913  25.926  37.605   5.834
 2866POPC   GL239914  26.018  37.931   5.856
 2866POPC   C1A39915  25.975  37.773   6.322
 2866POPC   D2A39916  26.285  37.932   6.641
 2866POPC   C3A39917  26.281  37.634   6.955
 2866POPC   C4A39918  25.910  37.535   7.151
 2866POPC   C1B39919  25.808  38.215   6.098
 2866POPC   C2B39920  25.793  38.271   6.514
 2866POPC   C3B39921  25.807  37.976   6.848
 2866POPC   C4B39922  26.050  38.033   7.214
 2867POPC   NC339923  35.223   9.743   5.102
 2867POPC   PO439924  34.946   9.729   5.708
 2867POPC   GL139925  35.222   9.597   5.987
 2867POPC   GL239926  35.526   9.549   5.743
 2867POPC   C1A39927  35.281   9.729   6.402
 2867POPC   D2A39928  35.149   9.562   6.774
 2867POPC   C3A39929  35.120   9.864   7.061
 2867POPC   C4A39930  35.442  10.090   7.263
 2867POPC   C1B39931  35.666   9.474   6.188
 2867POPC   C2B39932  35.712   9.451   6.661
 2867POPC   C3B39933  35.574   9.599   7.096
 2867POPC   C4B39934  35.674   9.711   7.556
 2868POPC   NC339935  16.598   0.116   5.606
 2868POPC   PO439936  16.818  44.459   5.429
 2868POPC   GL139937  16.902  44.428   5.865
 2868POPC   GL239938  16.920  44.761   5.907
 2868POPC   C1A39939  16.743  44.556   6.332
 2868POPC   D2A39940  16.527  44.912   6.597
 2868POPC   C3A39941  16.558  44.842   7.045
 2868POPC   C4A39942  16.817  44.502   7.167
 2868POPC   C1B39943  16.957   0.030   6.309
 2868POPC   C2B39944  16.974   0.131   6.743
 2868POPC   C3B39945  17.106  44.913   7.120
 2868POPC   C4B39946  16.876  44.867   7.518
 2869POPC   NC339947   8.768  23.733   5.475
 2869POPC   PO439948   8.914  22.965   5.361
 2869POPC   GL139949   8.828  23.067   5.773
 2869POPC   GL239950   9.076  23.290   5.773
 2869POPC   C1A39951   8.746  22.986   6.207
 2869POPC   D2A39952   8.610  23.005   6.634
 2869POPC   C3A39953   8.962  22.942   6.922
 2869POPC   C4A39954   8.976  22.712   7.309
 2869POPC   C1B39955   9.258  23.138   6.158
 2869POPC   C2B39956   9.410  23.061   6.580
 2869POPC   C3B39957   9.334  23.314   6.959
 2869POPC   C4B39958   9.209  23.174   7.354
 2870POPC   NC339959   1.972  40.270   5.566
 2870POPC   PO439960   1.586  39.740   5.426
 2870POPC   GL139961   1.744  39.861   5.840
 2870POPC   GL239962   1.784  40.163   6.041
 2870POPC   C1A39963   2.030  39.735   6.180
 2870POPC   D2A39964   2.151  39.868   6.590
 2870POPC   C3A39965   1.843  39.869   6.935
 2870POPC   C4A39966   1.941  39.893   7.382
 2870POPC   C1B39967   2.163  40.284   6.285
 2870POPC   C2B39968   2.296  40.342   6.735
 2870POPC   C3B39969   2.040  40.327   7.114
 2870POPC   C4B39970   2.039  40.348   7.590
 2871POPC   NC339971  22.440   8.863   5.372
 2871POPC   PO439972  21.776   9.003   5.155
 2871POPC   GL139973  21.939   8.857   5.619
 2871POPC   GL239974  22.290   8.841   5.845
 2871POPC   C1A39975  21.832   8.780   6.081
 2871POPC   D2A39976  21.979   8.913   6.500
 2871POPC   C3A39977  21.819   8.731   6.910
 2871POPC   C4A39978  21.777   8.976   7.308
 2871POPC   C1B39979  22.467   8.534   6.161
 2871POPC   C2B39980  22.303   8.533   6.581
 2871POPC   C3B39981  22.335   8.655   6.997
 2871POPC   C4B39982  22.603   8.480   7.269
 2872POPC   NC339983  19.837  24.999   5.000
 2872POPC   PO439984  19.721  24.464   5.391
 2872POPC   GL139985  19.842  24.371   5.802
 2872POPC   GL239986  19.556  24.124   5.763
 2872POPC   C1A39987  20.112  24.565   6.130
 2872POPC   D2A39988  19.929  24.559   6.531
 2872POPC   C3A39989  20.113  24.564   6.917
 2872POPC   C4A39990  20.058  24.784   7.295
 2872POPC   C1B39991  19.420  24.156   6.177
 2872POPC   C2B39992  19.509  24.271   6.608
 2872POPC   C3B39993  19.574  24.572   6.915
 2872POPC   C4B39994  19.696  24.409   7.288
 2873POPC   NC339995  16.798  15.621   5.630
 2873POPC   PO439996  16.676  15.208   5.064
 2873POPC   GL139997  16.822  15.129   5.584
 2873POPC   GL239998  16.558  15.281   5.901
 2873POPC   C1A39999  16.991  15.067   6.041
 2873POPC   D2A40000  17.079  15.149   6.495
 2873POPC   C3A40001  16.733  15.178   6.798
 2873POPC   C4A40002  16.513  14.949   7.146
 2873POPC   C1B40003  16.583  15.436   6.343
 2873POPC   C2B40004  16.304  15.514   6.739
 2873POPC   C3B40005  16.513  15.469   7.134
 2873POPC   C4B40006  16.974  15.532   7.148
 2874POPC   NC340007  38.797  17.984   5.500
 2874POPC   PO440008  39.498  18.044   5.542
 2874POPC   GL140009  39.139  18.301   5.746
 2874POPC   GL240010  39.036  18.015   5.948
 2874POPC   C1A40011  38.980  18.518   6.140
 2874POPC   D2A40012  39.212  18.505   6.583
 2874POPC   C3A40013  38.980  18.526   6.987
 2874POPC   C4A40014  39.039  18.163   7.215
 2874POPC   C1B40015  39.390  18.211   6.186
 2874POPC   C2B40016  39.624  18.185   6.555
 2874POPC   C3B40017  39.532  18.168   6.972
 2874POPC   C4B40018  39.485  18.574   7.100
 2875POPC   NC340019   7.181  43.653   5.240
 2875POPC   PO440020   7.682  44.041   5.444
 2875POPC   GL140021   7.610  43.794   5.793
 2875POPC   GL240022   7.260  43.720   5.766
 2875POPC   C1A40023   7.672  43.978   6.174
 2875POPC   D2A40024   7.454  44.118   6.539
 2875POPC   C3A40025   7.690  43.932   6.866
 2875POPC   C4A40026   7.666  43.998   7.291
 2875POPC   C1B40027   7.257  43.694   6.223
 2875POPC   C2B40028   7.312  43.640   6.661
 2875POPC   C3B40029   7.222  43.869   7.046
 2875POPC   C4B40030   7.338  43.630   7.415
 2876POPC   NC340031  33.336   6.221   5.267
 2876POPC   PO440032  32.922   6.820   5.246
 2876POPC   GL140033  33.027   6.704   5.681
 2876POPC   GL240034  33.190   6.976   5.881
 2876POPC   C1A40035  32.863   6.608   6.108
 2876POPC   D2A40036  33.009   6.899   6.444
 2876POPC   C3A40037  33.151   6.782   6.855
 2876POPC   C4A40038  33.003   6.827   7.273
 2876POPC   C1B40039  33.362   6.634   6.152
 2876POPC   C2B40040  33.476   6.459   6.565
 2876POPC   C3B40041  33.342   6.335   6.993
 2876POPC   C4B40042  33.387   6.540   7.426
 2877POPC   NC340043  26.733  12.213   5.470
 2877POPC   PO440044  27.322  11.854   5.447
 2877POPC   GL140045  27.014  11.876   5.792
 2877POPC   GL240046  26.638  11.835   5.816
 2877POPC   C1A40047  27.105  11.809   6.225
 2877POPC   D2A40048  26.921  11.823   6.645
 2877POPC   C3A40049  27.091  12.078   7.067
 2877POPC   C4A40050  27.282  12.174   7.514
 2877POPC   C1B40051  26.616  12.031   6.212
 2877POPC   C2B40052  26.586  12.205   6.638
 2877POPC   C3B40053  26.607  11.962   7.025
 2877POPC   C4B40054  26.503  11.959   7.420
 2878POPC   NC340055  36.121  16.114   5.569
 2878POPC   PO440056  36.471  15.635   5.294
 2878POPC   GL140057  36.292  15.636   5.808
 2878POPC   GL240058  36.045  15.912   6.003
 2878POPC   C1A40059  36.106  15.507   6.254
 2878POPC   D2A40060  35.953  15.477   6.676
 2878POPC   C3A40061  36.041  15.842   6.911
 2878POPC   C4A40062  35.834  15.927   7.268
 2878POPC   C1B40063  35.929  16.251   6.294
 2878POPC   C2B40064  35.884  16.467   6.698
 2878POPC   C3B40065  35.577  16.483   7.044
 2878POPC   C4B40066  35.553  16.312   7.470
 2879POPC   NC340067   6.834  34.987   5.400
 2879POPC   PO440068   6.388  35.465   5.362
 2879POPC   GL140069   6.508  35.294   5.774
 2879POPC   GL240070   6.865  35.371   5.765
 2879POPC   C1A40071   6.319  35.413   6.209
 2879POPC   D2A40072   6.432  35.684   6.581
 2879POPC   C3A40073   6.486  35.467   6.966
 2879POPC   C4A40074   6.463  35.110   7.226
 2879POPC   C1B40075   6.793  35.235   6.223
 2879POPC   C2B40076   6.793  35.085   6.672
 2879POPC   C3B40077   6.971  35.290   7.036
 2879POPC   C4B40078   6.886  35.668   7.256
 2880POPC   NC340079  15.963  14.796   5.470
 2880POPC   PO440080  15.848  14.161   5.252
 2880POPC   GL140081  15.832  14.315   5.707
 2880POPC   GL240082  16.132  14.498   5.876
 2880POPC   C1A40083  15.721  14.327   6.172
 2880POPC   D2A40084  15.959  14.307   6.584
 2880POPC   C3A40085  15.740  14.309   6.982
 2880POPC   C4A40086  15.440  14.551   7.191
 2880POPC   C1B40087  16.334  14.568   6.306
 2880POPC   C2B40088  16.330  14.628   6.779
 2880POPC   C3B40089  16.115  14.611   7.202
 2880POPC   C4B40090  15.896  14.767   7.597
 2881POPC   NC340091  10.997  25.242   5.369
 2881POPC   PO440092  11.648  24.945   5.448
 2881POPC   GL140093  11.423  25.186   5.805
 2881POPC   GL240094  11.083  25.342   5.879
 2881POPC   C1A40095  11.375  25.124   6.247
 2881POPC   D2A40096  11.633  25.198   6.612
 2881POPC   C3A40097  11.429  25.203   7.011
 2881POPC   C4A40098  11.463  24.816   7.244
 2881POPC   C1B40099  10.857  25.581   6.221
 2881POPC   C2B40100  10.893  25.544   6.695
 2881POPC   C3B40101  10.943  25.320   7.107
 2881POPC   C4B40102  10.773  25.486   7.503
 2882POPC   NC340103  30.046  42.745   5.125
 2882POPC   PO440104  29.542  43.236   5.062
 2882POPC   GL140105  29.880  43.163   5.586
 2882POPC   GL240106  29.624  43.256   5.826
 2882POPC   C1A40107  30.051  43.137   6.047
 2882POPC   D2A40108  30.050  42.907   6.453
 2882POPC   C3A40109  30.146  43.151   6.822
 2882POPC   C4A40110  30.019  43.181   7.235
 2882POPC   C1B40111  29.569  42.963   6.172
 2882POPC   C2B40112  29.565  43.064   6.604
 2882POPC   C3B40113  29.759  42.842   6.937
 2882POPC   C4B40114  29.577  42.909   7.327
 2883POPC   NC340115  40.695  27.149   5.391
 2883POPC   PO440116  40.310  26.618   5.464
 2883POPC   GL140117  40.569  26.824   5.782
 2883POPC   GL240118  40.457  27.161   5.848
 2883POPC   C1A40119  40.761  26.752   6.189
 2883POPC   D2A40120  40.532  26.645   6.561
 2883POPC   C3A40121  40.753  26.672   6.937
 2883POPC   C4A40122  41.151  26.638   7.121
 2883POPC   C1B40123  40.628  27.249   6.227
 2883POPC   C2B40124  40.682  27.137   6.634
 2883POPC   C3B40125  40.689  27.193   7.053
 2883POPC   C4B40126  40.845  27.146   7.469
 2884POPC   NC340127  33.197  23.929   5.511
 2884POPC   PO440128  32.597  23.738   5.508
 2884POPC   GL140129  32.940  23.542   5.806
 2884POPC   GL240130  33.319  23.464   5.707
 2884POPC   C1A40131  33.045  23.593   6.270
 2884POPC   D2A40132  33.195  23.684   6.708
 2884POPC   C3A40133  32.965  23.581   7.092
 2884POPC   C4A40134  32.738  23.937   7.322
 2884POPC   C1B40135  33.307  23.215   6.063
 2884POPC   C2B40136  33.440  23.281   6.485
 2884POPC   C3B40137  33.586  23.417   6.892
 2884POPC   C4B40138  33.420  23.416   7.315
 2885POPC   NC340139  25.748   7.535   5.456
 2885POPC   PO440140  26.398   7.652   5.549
 2885POPC   GL140141  26.063   7.518   5.855
 2885POPC   GL240142  25.923   7.169   5.847
 2885POPC   C1A40143  25.803   7.579   6.209
 2885POPC   D2A40144  26.012   7.693   6.574
 2885POPC   C3A40145  26.153   7.575   6.982
 2885POPC   C4A40146  26.419   7.753   7.308
 2885POPC   C1B40147  25.962   7.109   6.304
 2885POPC   C2B40148  26.276   7.213   6.605
 2885POPC   C3B40149  26.375   7.023   6.987
 2885POPC   C4B40150  26.384   7.220   7.312
 2886POPC   NC340151  16.201  13.147   5.457
 2886POPC   PO440152  15.565  12.966   5.344
 2886POPC   GL140153  15.662  13.022   5.770
 2886POPC   GL240154  15.676  12.691   5.845
 2886POPC   C1A40155  15.902  13.073   6.190
 2886POPC   D2A40156  16.137  12.828   6.547
 2886POPC   C3A40157  16.152  12.958   6.951
 2886POPC   C4A40158  15.729  12.973   7.127
 2886POPC   C1B40159  15.952  12.564   6.145
 2886POPC   C2B40160  15.913  12.371   6.556
 2886POPC   C3B40161  15.890  12.516   6.984
 2886POPC   C4B40162  15.698  12.559   7.428
 2887POPC   NC340163   6.255  26.715   5.477
 2887POPC   PO440164   5.693  27.080   5.421
 2887POPC   GL140165   5.831  26.876   5.779
 2887POPC   GL240166   6.082  27.074   5.836
 2887POPC   C1A40167   5.762  26.837   6.225
 2887POPC   D2A40168   5.585  26.542   6.523
 2887POPC   C3A40169   5.561  26.776   6.876
 2887POPC   C4A40170   5.806  26.901   7.219
 2887POPC   C1B40171   6.299  27.081   6.200
 2887POPC   C2B40172   6.188  26.937   6.608
 2887POPC   C3B40173   6.257  27.045   7.038
 2887POPC   C4B40174   6.182  27.107   7.508
 2888POPC   NC340175  34.026   8.487   5.383
 2888POPC   PO440176  33.380   8.472   5.459
 2888POPC   GL140177  33.691   8.322   5.782
 2888POPC   GL240178  33.849   8.007   5.735
 2888POPC   C1A40179  33.716   8.220   6.226
 2888POPC   D2A40180  33.497   8.089   6.597
 2888POPC   C3A40181  33.585   8.307   6.994
 2888POPC   C4A40182  33.791   8.681   7.148
 2888POPC   C1B40183  34.055   7.857   6.121
 2888POPC   C2B40184  33.923   7.802   6.570
 2888POPC   C3B40185  33.870   7.860   7.021
 2888POPC   C4B40186  34.068   7.670   7.384
 2889POPC   NC340187  28.990  44.310   5.465
 2889POPC   PO440188  28.955  44.952   5.285
 2889POPC   GL140189  29.021  44.778   5.759
 2889POPC   GL240190  28.957  44.449   5.940
 2889POPC   C1A40191  29.064  44.839   6.243
 2889POPC   D2A40192  29.245  44.691   6.628
 2889POPC   C3A40193  29.125  44.947   6.949
 2889POPC   C4A40194  28.952  44.714   7.300
 2889POPC   C1B40195  29.332  44.403   6.207
 2889POPC   C2B40196  29.568  44.293   6.598
 2889POPC   C3B40197  29.431  44.351   7.050
 2889POPC   C4B40198  29.585  44.346   7.499
 2890POPC   NC340199  21.314  27.111   5.355
 2890POPC   PO440200  21.500  27.735   5.399
 2890POPC   GL140201  21.339  27.497   5.750
 2890POPC   GL240202  21.688  27.404   5.793
 2890POPC   C1A40203  21.169  27.597   6.179
 2890POPC   D2A40204  21.342  27.784   6.569
 2890POPC   C3A40205  21.212  27.617   6.965
 2890POPC   C4A40206  21.160  27.845   7.344
 2890POPC   C1B40207  21.674  27.673   6.164
 2890POPC   C2B40208  21.872  27.670   6.578
 2890POPC   C3B40209  21.698  27.762   6.964
 2890POPC   C4B40210  21.653  27.630   7.380
 2891POPC   NC340211  36.760   0.984   5.224
 2891POPC   PO440212  37.213   1.502   5.215
 2891POPC   GL140213  36.893   1.435   5.602
 2891POPC   GL240214  36.721   1.090   5.704
 2891POPC   C1A40215  36.910   1.353   6.082
 2891POPC   D2A40216  37.224   1.388   6.423
 2891POPC   C3A40217  37.193   1.236   6.858
 2891POPC   C4A40218  36.904   1.289   7.184
 2891POPC   C1B40219  36.814   0.836   6.067
 2891POPC   C2B40220  36.905   0.931   6.482
 2891POPC   C3B40221  36.706   0.911   6.866
 2891POPC   C4B40222  36.613   0.879   7.291
 2892POPC   NC340223  13.124  15.074   5.174
 2892POPC   PO440224  12.773  15.408   5.694
 2892POPC   GL140225  13.039  15.304   5.973
 2892POPC   GL240226  13.176  15.033   5.735
 2892POPC   C1A40227  12.983  15.291   6.423
 2892POPC   D2A40228  12.617  15.352   6.669
 2892POPC   C3A40229  12.743  15.506   7.059
 2892POPC   C4A40230  12.879  15.292   7.427
 2892POPC   C1B40231  13.258  14.931   6.193
 2892POPC   C2B40232  13.165  14.793   6.645
 2892POPC   C3B40233  13.209  15.038   7.076
 2892POPC   C4B40234  13.213  14.874   7.532
 2893POPC   NC340235   6.624  10.136   5.418
 2893POPC   PO440236   6.257  10.583   5.523
 2893POPC   GL140237   6.401  10.333   5.835
 2893POPC   GL240238   6.772  10.419   5.822
 2893POPC   C1A40239   6.543  10.123   6.190
 2893POPC   D2A40240   6.771  10.237   6.605
 2893POPC   C3A40241   6.611  10.318   7.030
 2893POPC   C4A40242   6.376  10.289   7.425
 2893POPC   C1B40243   6.679  10.600   6.233
 2893POPC   C2B40244   6.801  10.815   6.586
 2893POPC   C3B40245   6.957  10.691   6.970
 2893POPC   C4B40246   6.978  10.611   7.430
 2894POPC   NC340247  14.374   6.892   5.437
 2894POPC   PO440248  14.277   6.230   5.421
 2894POPC   GL140249  14.405   6.464   5.741
 2894POPC   GL240250  14.075   6.596   5.823
 2894POPC   C1A40251  14.497   6.658   6.125
 2894POPC   D2A40252  14.474   6.511   6.544
 2894POPC   C3A40253  14.540   6.744   6.943
 2894POPC   C4A40254  14.208   6.889   7.223
 2894POPC   C1B40255  14.085   6.265   6.139
 2894POPC   C2B40256  13.995   6.137   6.566
 2894POPC   C3B40257  14.126   6.387   6.907
 2894POPC   C4B40258  14.323   6.370   7.278
 2895POPC   NC340259  25.479  21.896   5.420
 2895POPC   PO440260  25.606  22.538   5.418
 2895POPC   GL140261  25.240  22.381   5.690
 2895POPC   GL240262  25.161  22.044   5.819
 2895POPC   C1A40263  25.087  22.431   6.147
 2895POPC   D2A40264  25.278  22.332   6.578
 2895POPC   C3A40265  25.100  22.055   6.932
 2895POPC   C4A40266  25.147  22.049   7.417
 2895POPC   C1B40267  25.349  21.858   6.228
 2895POPC   C2B40268  25.409  21.722   6.693
 2895POPC   C3B40269  25.494  21.738   7.180
 2895POPC   C4B40270  25.481  21.519   7.605
 2896POPC   NC340271  26.933  26.008   5.092
 2896POPC   PO440272  26.401  26.116   5.392
 2896POPC   GL140273  26.637  25.913   5.803
 2896POPC   GL240274  27.016  25.852   5.786
 2896POPC   C1A40275  26.567  25.963   6.284
 2896POPC   D2A40276  26.610  26.154   6.718
 2896POPC   C3A40277  26.422  26.052   7.131
 2896POPC   C4A40278  26.579  26.333   7.518
 2896POPC   C1B40279  27.008  25.679   6.222
 2896POPC   C2B40280  26.874  25.714   6.657
 2896POPC   C3B40281  26.952  25.952   7.056
 2896POPC   C4B40282  27.204  25.976   7.456
 2897POPC   NC340283  23.121  18.427   5.225
 2897POPC   PO440284  23.703  18.725   5.418
 2897POPC   GL140285  23.588  18.539   5.815
 2897POPC   GL240286  23.686  18.181   5.836
 2897POPC   C1A40287  23.418  18.430   6.233
 2897POPC   D2A40288  23.629  18.220   6.564
 2897POPC   C3A40289  23.950  18.393   6.814
 2897POPC   C4A40290  23.918  18.222   7.221
 2897POPC   C1B40291  23.514  17.908   6.175
 2897POPC   C2B40292  23.473  17.745   6.610
 2897POPC   C3B40293  23.517  17.942   6.998
 2897POPC   C4B40294  23.476  18.082   7.420
 2898POPC   NC340295  24.963  39.740   5.605
 2898POPC   PO440296  25.343  40.243   5.298
 2898POPC   GL140297  25.354  40.081   5.705
 2898POPC   GL240298  25.486  39.723   5.805
 2898POPC   C1A40299  25.275  40.105   6.139
 2898POPC   D2A40300  25.332  39.950   6.529
 2898POPC   C3A40301  25.397  40.116   6.926
 2898POPC   C4A40302  25.144  40.113   7.244
 2898POPC   C1B40303  25.648  39.616   6.252
 2898POPC   C2B40304  25.674  39.637   6.726
 2898POPC   C3B40305  25.568  39.677   7.181
 2898POPC   C4B40306  25.551  39.963   7.499
 2899POPC   NC340307  19.971   7.913   5.490
 2899POPC   PO440308  19.673   8.479   5.462
 2899POPC   GL140309  19.659   8.170   5.801
 2899POPC   GL240310  19.511   7.841   5.735
 2899POPC   C1A40311  19.752   8.121   6.252
 2899POPC   D2A40312  19.963   8.334   6.593
 2899POPC   C3A40313  19.925   8.081   6.953
 2899POPC   C4A40314  19.709   8.151   7.331
 2899POPC   C1B40315  19.525   7.664   6.185
 2899POPC   C2B40316  19.644   7.711   6.649
 2899POPC   C3B40317  19.617   7.703   7.119
 2899POPC   C4B40318  19.638   7.693   7.589
 2900POPC   NC340319  18.449   4.912   5.427
 2900POPC   PO440320  17.915   5.352   5.456
 2900POPC   GL140321  18.118   5.086   5.767
 2900POPC   GL240322  18.394   5.258   5.808
 2900POPC   C1A40323  18.167   4.983   6.191
 2900POPC   D2A40324  18.243   5.239   6.527
 2900POPC   C3A40325  18.252   5.038   6.900
 2900POPC   C4A40326  18.350   4.815   7.271
 2900POPC   C1B40327  18.611   5.332   6.170
 2900POPC   C2B40328  18.703   5.588   6.500
 2900POPC   C3B40329  18.616   5.407   6.885
 2900POPC   C4B40330  18.414   5.345   7.251
 2901POPC   NC340331  16.593  24.926   5.479
 2901POPC   PO440332  16.977  25.458   5.202
 2901POPC   GL140333  17.037  25.307   5.659
 2901POPC   GL240334  16.852  25.038   5.894
 2901POPC   C1A40335  17.068  25.403   6.130
 2901POPC   D2A40336  16.907  25.514   6.556
 2901POPC   C3A40337  16.803  25.198   6.847
 2901POPC   C4A40338  16.733  25.216   7.287
 2901POPC   C1B40339  16.600  25.221   6.289
 2901POPC   C2B40340  16.361  25.383   6.667
 2901POPC   C3B40341  16.441  25.576   7.085
 2901POPC   C4B40342  16.384  25.446   7.572
 2902POPC   NC340343  30.947   2.716   5.390
 2902POPC   PO440344  30.401   2.647   5.648
 2902POPC   GL140345  30.775   2.705   5.880
 2902POPC   GL240346  30.955   3.039   5.820
 2902POPC   C1A40347  30.730   2.581   6.306
 2902POPC   D2A40348  30.763   2.362   6.674
 2902POPC   C3A40349  30.563   2.520   7.068
 2902POPC   C4A40350  30.643   2.332   7.465
 2902POPC   C1B40351  30.795   3.076   6.267
 2902POPC   C2B40352  30.782   2.886   6.718
 2902POPC   C3B40353  30.896   2.893   7.157
 2902POPC   C4B40354  30.616   2.851   7.532
 2903POPC   NC340355  35.958  34.577   5.290
 2903POPC   PO440356  36.622  34.718   5.518
 2903POPC   GL140357  36.240  34.602   5.786
 2903POPC   GL240358  35.851  34.512   5.768
 2903POPC   C1A40359  36.391  34.565   6.207
 2903POPC   D2A40360  36.465  34.814   6.553
 2903POPC   C3A40361  36.386  34.580   6.907
 2903POPC   C4A40362  36.235  34.611   7.307
 2903POPC   C1B40363  35.874  34.442   6.182
 2903POPC   C2B40364  36.000  34.574   6.573
 2903POPC   C3B40365  35.947  34.827   6.933
 2903POPC   C4B40366  35.693  34.692   7.273
 2904POPC   NC340367  39.372  28.123   5.519
 2904POPC   PO440368  39.158  28.750   5.435
 2904POPC   GL140369  39.352  28.559   5.818
 2904POPC   GL240370  39.691  28.429   5.823
 2904POPC   C1A40371  39.286  28.271   6.159
 2904POPC   D2A40372  39.061  28.218   6.515
 2904POPC   C3A40373  39.238  28.050   6.871
 2904POPC   C4A40374  39.154  28.101   7.288
 2904POPC   C1B40375  39.649  28.615   6.263
 2904POPC   C2B40376  39.445  28.575   6.679
 2904POPC   C3B40377  39.524  28.436   7.099
 2904POPC   C4B40378  39.635  28.183   7.457
 2905POPC   NC340379   8.182  19.857   5.479
 2905POPC   PO440380   8.690  19.399   5.451
 2905POPC   GL140381   8.553  19.706   5.807
 2905POPC   GL240382   8.582  20.068   5.787
 2905POPC   C1A40383   8.233  19.859   6.131
 2905POPC   D2A40384   7.994  19.844   6.506
 2905POPC   C3A40385   8.141  19.879   6.937
 2905POPC   C4A40386   7.793  20.001   7.168
 2905POPC   C1B40387   8.690  20.022   6.247
 2905POPC   C2B40388   8.612  19.894   6.695
 2905POPC   C3B40389   8.635  19.833   7.168
 2905POPC   C4B40390   8.628  19.813   7.653
 2906POPC   NC340391   7.175  26.090   5.646
 2906POPC   PO440392   6.631  25.743   5.295
 2906POPC   GL140393   6.464  25.868   5.750
 2906POPC   GL240394   6.409  26.252   5.760
 2906POPC   C1A40395   6.588  25.768   6.218
 2906POPC   D2A40396   6.873  25.713   6.615
 2906POPC   C3A40397   6.637  25.716   7.009
 2906POPC   C4A40398   6.540  25.842   7.446
 2906POPC   C1B40399   6.613  26.280   6.184
 2906POPC   C2B40400   6.540  26.107   6.598
 2906POPC   C3B40401   6.425  26.173   7.009
 2906POPC   C4B40402   6.688  26.303   7.324
 2907POPC   NC340403  12.130  10.227   5.335
 2907POPC   PO440404  12.034   9.624   5.032
 2907POPC   GL140405  11.999   9.737   5.520
 2907POPC   GL240406  12.285   9.925   5.725
 2907POPC   C1A40407  11.880   9.725   5.991
 2907POPC   D2A40408  11.677   9.617   6.402
 2907POPC   C3A40409  11.969   9.541   6.745
 2907POPC   C4A40410  11.922   9.732   7.140
 2907POPC   C1B40411  12.458  10.021   6.169
 2907POPC   C2B40412  12.306  10.108   6.615
 2907POPC   C3B40413  12.350   9.985   7.059
 2907POPC   C4B40414  12.158  10.046   7.495
 2908POPC   NC340415  25.533  10.988   5.051
 2908POPC   PO440416  25.438  11.530   5.311
 2908POPC   GL140417  25.444  11.397   5.756
 2908POPC   GL240418  25.155  11.488   5.903
 2908POPC   C1A40419  25.504  11.100   6.121
 2908POPC   D2A40420  25.333  10.839   6.478
 2908POPC   C3A40421  25.346  11.034   6.911
 2908POPC   C4A40422  25.034  11.208   7.202
 2908POPC   C1B40423  25.301  11.575   6.332
 2908POPC   C2B40424  25.100  11.479   6.722
 2908POPC   C3B40425  24.993  11.708   7.080
 2908POPC   C4B40426  24.904  11.627   7.496
 2909POPC   NC340427  20.682   9.227   5.393
 2909POPC   PO440428  20.868   8.558   5.221
 2909POPC   GL140429  20.785   8.787   5.649
 2909POPC   GL240430  20.478   8.897   5.743
 2909POPC   C1A40431  20.827   8.842   6.124
 2909POPC   D2A40432  20.761   9.114   6.503
 2909POPC   C3A40433  20.608   8.850   6.850
 2909POPC   C4A40434  20.656   8.664   7.251
 2909POPC   C1B40435  20.433   9.176   6.065
 2909POPC   C2B40436  20.276   9.247   6.470
 2909POPC   C3B40437  20.302   9.301   6.913
 2909POPC   C4B40438  20.576   9.171   7.266
 2910POPC   NC340439  13.085  44.335   5.346
 2910POPC   PO440440  12.755  43.823   5.208
 2910POPC   GL140441  12.859  43.993   5.645
 2910POPC   GL240442  13.083  43.733   5.666
 2910POPC   C1A40443  12.932  44.144   6.098
 2910POPC   D2A40444  12.697  44.261   6.506
 2910POPC   C3A40445  12.864  44.223   6.926
 2910POPC   C4A40446  12.674  43.958   7.250
 2910POPC   C1B40447  12.939  43.615   6.085
 2910POPC   C2B40448  13.018  43.814   6.496
 2910POPC   C3B40449  12.988  43.700   6.921
 2910POPC   C4B40450  12.994  43.503   7.310
 2911POPC   NC340451  22.979  20.980   5.421
 2911POPC   PO440452  22.622  20.323   5.369
 2911POPC   GL140453  22.853  20.317   5.798
 2911POPC   GL240454  23.081  20.633   5.846
 2911POPC   C1A40455  22.866  20.383   6.266
 2911POPC   D2A40456  22.952  20.415   6.687
 2911POPC   C3A40457  22.774  20.417   7.083
 2911POPC   C4A40458  22.734  20.773   7.292
 2911POPC   C1B40459  23.341  20.831   6.204
 2911POPC   C2B40460  23.423  20.671   6.643
 2911POPC   C3B40461  23.191  20.744   7.034
 2911POPC   C4B40462  23.188  21.060   7.344
 2912POPC   NC340463  40.484  40.105   5.580
 2912POPC   PO440464  40.926  39.841   5.251
 2912POPC   GL140465  40.899  39.839   5.729
 2912POPC   GL240466  40.599  39.712   5.890
 2912POPC   C1A40467  40.826  40.075   6.162
 2912POPC   D2A40468  41.042  40.203   6.542
 2912POPC   C3A40469  40.888  40.015   6.911
 2912POPC   C4A40470  40.624  40.199   7.197
 2912POPC   C1B40471  40.406  39.755   6.277
 2912POPC   C2B40472  40.422  40.003   6.642
 2912POPC   C3B40473  40.327  39.816   7.031
 2912POPC   C4B40474  40.381  39.829   7.480
 2913POPC   NC340475  35.529  26.452   5.510
 2913POPC   PO440476  35.380  27.104   5.304
 2913POPC   GL140477  35.396  27.043   5.745
 2913POPC   GL240478  35.193  27.272   5.918
 2913POPC   C1A40479  35.445  26.816   6.154
 2913POPC   D2A40480  35.164  26.657   6.505
 2913POPC   C3A40481  35.153  26.781   6.949
 2913POPC   C4A40482  35.368  26.601   7.324
 2913POPC   C1B40483  35.264  27.221   6.387
 2913POPC   C2B40484  35.545  26.965   6.677
 2913POPC   C3B40485  35.587  27.004   7.123
 2913POPC   C4B40486  35.583  27.034   7.551
 2914POPC   NC340487   5.507  44.045   5.261
 2914POPC   PO440488   4.975  44.125   5.347
 2914POPC   GL140489   5.207  44.007   5.763
 2914POPC   GL240490   5.145  43.675   5.928
 2914POPC   C1A40491   5.152  44.056   6.256
 2914POPC   D2A40492   5.060  43.859   6.693
 2914POPC   C3A40493   5.333  43.854   7.070
 2914POPC   C4A40494   5.474  44.185   7.323
 2914POPC   C1B40495   5.331  43.557   6.345
 2914POPC   C2B40496   5.302  43.418   6.794
 2914POPC   C3B40497   4.995  43.483   7.143
 2914POPC   C4B40498   4.772  43.777   7.415
 2915POPC   NC340499  20.388  17.656   5.675
 2915POPC   PO440500  20.973  17.501   5.524
 2915POPC   GL140501  20.740  17.339   5.926
 2915POPC   GL240502  20.456  17.498   6.139
 2915POPC   C1A40503  20.741  17.114   6.329
 2915POPC   D2A40504  20.749  17.011   6.738
 2915POPC   C3A40505  20.728  17.379   6.935
 2915POPC   C4A40506  20.811  17.661   7.242
 2915POPC   C1B40507  20.795  17.724   6.331
 2915POPC   C2B40508  20.796  17.875   6.757
 2915POPC   C3B40509  20.466  18.010   7.048
 2915POPC   C4B40510  20.345  17.794   7.427
 2916POPC   NC340511  20.961  13.868   5.470
 2916POPC   PO440512  20.360  13.656   5.346
 2916POPC   GL140513  20.576  13.659   5.737
 2916POPC   GL240514  20.745  13.372   5.602
 2916POPC   C1A40515  20.533  13.864   6.163
 2916POPC   D2A40516  20.298  13.786   6.559
 2916POPC   C3A40517  20.568  13.654   6.877
 2916POPC   C4A40518  20.710  13.747   7.286
 2916POPC   C1B40519  20.848  13.294   6.035
 2916POPC   C2B40520  20.903  13.218   6.503
 2916POPC   C3B40521  20.812  13.191   6.962
 2916POPC   C4B40522  20.429  13.228   7.208
 2917POPC   NC340523  42.029   0.877   5.495
 2917POPC   PO440524  41.317   1.052   5.437
 2917POPC   GL140525  41.350   1.294   5.792
 2917POPC   GL240526  41.691   1.296   5.847
 2917POPC   C1A40527  41.294   1.119   6.163
 2917POPC   D2A40528  41.396   0.918   6.499
 2917POPC   C3A40529  41.268   1.059   6.873
 2917POPC   C4A40530  41.552   1.114   7.150
 2917POPC   C1B40531  41.799   1.185   6.260
 2917POPC   C2B40532  41.756   1.293   6.695
 2917POPC   C3B40533  42.029   1.249   7.043
 2917POPC   C4B40534  41.966   0.841   7.226
 2918POPC   NC340535  15.396   8.073   5.608
 2918POPC   PO440536  14.942   8.586   5.478
 2918POPC   GL140537  15.178   8.469   5.870
 2918POPC   GL240538  15.547   8.465   5.912
 2918POPC   C1A40539  15.214   8.354   6.317
 2918POPC   D2A40540  15.475   8.263   6.688
 2918POPC   C3A40541  15.226   8.411   7.023
 2918POPC   C4A40542  15.129   8.281   7.415
 2918POPC   C1B40543  15.695   8.140   6.224
 2918POPC   C2B40544  15.636   7.788   6.554
 2918POPC   C3B40545  15.410   7.710   7.002
 2918POPC   C4B40546  15.403   7.854   7.467
 2919POPC   NC340547  27.920  35.642   5.117
 2919POPC   PO440548  27.330  35.467   5.261
 2919POPC   GL140549  27.304  35.506   5.754
 2919POPC   GL240550  27.348  35.174   5.841
 2919POPC   C1A40551  27.438  35.679   6.210
 2919POPC   D2A40552  27.564  35.848   6.633
 2919POPC   C3A40553  27.432  35.766   7.046
 2919POPC   C4A40554  27.683  35.685   7.368
 2919POPC   C1B40555  27.181  35.252   6.262
 2919POPC   C2B40556  27.408  35.359   6.654
 2919POPC   C3B40557  27.615  35.282   7.048
 2919POPC   C4B40558  27.350  35.239   7.364
 2920POPC   NC340559  37.149  32.036   5.414
 2920POPC   PO440560  37.740  32.261   5.264
 2920POPC   GL140561  37.600  32.092   5.706
 2920POPC   GL240562  37.302  32.196   5.868
 2920POPC   C1A40563  37.603  31.957   6.185
 2920POPC   D2A40564  37.901  32.076   6.530
 2920POPC   C3A40565  37.852  31.896   6.933
 2920POPC   C4A40566  37.911  32.063   7.331
 2920POPC   C1B40567  37.602  32.465   6.125
 2920POPC   C2B40568  37.724  32.603   6.556
 2920POPC   C3B40569  37.677  32.380   6.965
 2920POPC   C4B40570  37.432  32.299   7.362
 2921POPC   NC340571  15.199  38.928   5.662
 2921POPC   PO440572  14.868  38.362   5.488
 2921POPC   GL140573  15.272  38.346   5.776
 2921POPC   GL240574  15.477  38.604   5.957
 2921POPC   C1A40575  15.370  38.149   6.201
 2921POPC   D2A40576  15.192  37.937   6.598
 2921POPC   C3A40577  15.260  38.066   7.051
 2921POPC   C4A40578  15.070  38.426   7.274
 2921POPC   C1B40579  15.152  38.619   6.291
 2921POPC   C2B40580  15.175  38.465   6.723
 2921POPC   C3B40581  15.490  38.561   7.046
 2921POPC   C4B40582  15.409  38.728   7.506
 2922POPC   NC340583  36.572  20.483   5.467
 2922POPC   PO440584  37.133  20.794   5.148
 2922POPC   GL140585  36.960  20.787   5.649
 2922POPC   GL240586  36.925  20.464   5.822
 2922POPC   C1A40587  37.003  20.811   6.173
 2922POPC   D2A40588  37.174  20.597   6.598
 2922POPC   C3A40589  36.930  20.479   6.987
 2922POPC   C4A40590  36.621  20.685   7.266
 2922POPC   C1B40591  36.652  20.309   6.139
 2922POPC   C2B40592  36.363  20.363   6.505
 2922POPC   C3B40593  36.400  20.346   6.945
 2922POPC   C4B40594  36.633  20.130   7.253
 2923POPC   NC340595  11.245  22.061   5.480
 2923POPC   PO440596  11.691  22.498   5.632
 2923POPC   GL140597  11.323  22.343   5.890
 2923POPC   GL240598  10.969  22.420   5.742
 2923POPC   C1A40599  11.133  22.055   6.160
 2923POPC   D2A40600  11.336  21.853   6.500
 2923POPC   C3A40601  11.385  22.036   6.909
 2923POPC   C4A40602  11.489  22.167   7.329
 2923POPC   C1B40603  10.930  22.545   6.172
 2923POPC   C2B40604  11.144  22.405   6.567
 2923POPC   C3B40605  11.292  22.527   6.971
 2923POPC   C4B40606  11.048  22.400   7.315
 2924POPC   NC340607  24.436  23.944   5.040
 2924POPC   PO440608  24.531  23.531   5.559
 2924POPC   GL140609  24.156  23.628   5.826
 2924POPC   GL240610  24.024  23.309   5.844
 2924POPC   C1A40611  24.107  23.793   6.256
 2924POPC   D2A40612  24.453  23.960   6.509
 2924POPC   C3A40613  24.562  23.758   6.884
 2924POPC   C4A40614  24.668  23.620   7.282
 2924POPC   C1B40615  24.156  23.279   6.242
 2924POPC   C2B40616  24.355  23.331   6.631
 2924POPC   C3B40617  24.208  23.401   7.051
 2924POPC   C4B40618  24.205  23.782   7.326
 2925POPC   NC340619  32.296  34.728   5.396
 2925POPC   PO440620  32.740  34.434   5.302
 2925POPC   GL140621  32.555  34.492   5.775
 2925POPC   GL240622  32.169  34.489   5.837
 2925POPC   C1A40623  32.445  34.569   6.261
 2925POPC   D2A40624  32.133  34.517   6.650
 2925POPC   C3A40625  32.269  34.472   7.102
 2925POPC   C4A40626  32.508  34.321   7.478
 2925POPC   C1B40627  31.959  34.755   6.192
 2925POPC   C2B40628  31.835  34.935   6.636
 2925POPC   C3B40629  31.983  34.919   7.087
 2925POPC   C4B40630  31.762  34.845   7.497
 2926POPC   NC340631  25.779  29.050   5.536
 2926POPC   PO440632  26.431  29.041   5.552
 2926POPC   GL140633  26.153  29.206   5.838
 2926POPC   GL240634  26.264  29.520   5.900
 2926POPC   C1A40635  25.897  29.298   6.217
 2926POPC   D2A40636  25.750  29.210   6.638
 2926POPC   C3A40637  25.919  29.058   7.032
 2926POPC   C4A40638  25.895  29.232   7.454
 2926POPC   C1B40639  26.420  29.270   6.243
 2926POPC   C2B40640  26.260  29.168   6.631
 2926POPC   C3B40641  26.326  29.372   6.995
 2926POPC   C4B40642  26.448  29.191   7.341
 2927POPC   NC340643  37.884  15.705   5.178
 2927POPC   PO440644  37.340  16.120   5.386
 2927POPC   GL140645  37.606  16.053   5.753
 2927POPC   GL240646  37.947  16.019   5.624
 2927POPC   C1A40647  37.509  15.823   6.141
 2927POPC   D2A40648  37.399  15.606   6.532
 2927POPC   C3A40649  37.408  15.812   6.933
 2927POPC   C4A40650  37.650  15.776   7.287
 2927POPC   C1B40651  38.035  15.813   6.021
 2927POPC   C2B40652  37.900  15.757   6.470
 2927POPC   C3B40653  37.907  15.955   6.866
 2927POPC   C4B40654  37.908  16.199   7.244
 2928POPC   NC340655  32.471  23.244   5.464
 2928POPC   PO440656  32.017  22.648   5.491
 2928POPC   GL140657  32.293  22.739   5.821
 2928POPC   GL240658  32.264  23.071   5.932
 2928POPC   C1A40659  32.504  22.740   6.232
 2928POPC   D2A40660  32.462  22.958   6.612
 2928POPC   C3A40661  32.341  22.646   6.892
 2928POPC   C4A40662  32.480  22.626   7.283
 2928POPC   C1B40663  32.014  22.931   6.327
 2928POPC   C2B40664  31.970  22.964   6.794
 2928POPC   C3B40665  32.262  23.088   7.141
 2928POPC   C4B40666  32.146  23.297   7.526
 2929POPC   NC340667  29.233  21.605   5.182
 2929POPC   PO440668  28.744  21.232   5.328
 2929POPC   GL140669  29.039  21.509   5.655
 2929POPC   GL240670  28.865  21.659   5.953
 2929POPC   C1A40671  29.369  21.530   6.004
 2929POPC   D2A40672  29.399  21.282   6.403
 2929POPC   C3A40673  29.198  21.334   6.813
 2929POPC   C4A40674  29.319  21.496   7.222
 2929POPC   C1B40675  28.963  21.222   6.103
 2929POPC   C2B40676  28.805  21.053   6.482
 2929POPC   C3B40677  28.682  21.168   6.881
 2929POPC   C4B40678  28.868  21.253   7.245
 2930POPC   NC340679   6.912  23.803   5.284
 2930POPC   PO440680   6.601  23.213   5.409
 2930POPC   GL140681   6.586  23.523   5.750
 2930POPC   GL240682   6.491  23.890   5.667
 2930POPC   C1A40683   6.541  23.465   6.228
 2930POPC   D2A40684   6.332  23.541   6.658
 2930POPC   C3A40685   6.635  23.517   7.006
 2930POPC   C4A40686   7.010  23.284   7.114
 2930POPC   C1B40687   6.782  23.902   6.016
 2930POPC   C2B40688   6.885  23.949   6.446
 2930POPC   C3B40689   6.643  24.025   6.784
 2930POPC   C4B40690   6.722  24.003   7.194
 2931POPC   NC340691  17.620   7.160   5.375
 2931POPC   PO440692  17.153   7.597   5.439
 2931POPC   GL140693  17.289   7.293   5.753
 2931POPC   GL240694  17.667   7.369   5.852
 2931POPC   C1A40695  17.305   7.211   6.184
 2931POPC   D2A40696  17.250   7.432   6.550
 2931POPC   C3A40697  17.265   7.185   6.920
 2931POPC   C4A40698  17.269   7.384   7.311
 2931POPC   C1B40699  17.811   7.463   6.292
 2931POPC   C2B40700  17.732   7.393   6.725
 2931POPC   C3B40701  17.761   7.194   7.108
 2931POPC   C4B40702  17.905   7.470   7.443
 2932POPC   NC340703  38.076  34.106   5.423
 2932POPC   PO440704  38.666  33.838   5.437
 2932POPC   GL140705  38.364  33.853   5.781
 2932POPC   GL240706  38.311  33.527   5.881
 2932POPC   C1A40707  38.317  34.007   6.210
 2932POPC   D2A40708  38.527  33.988   6.625
 2932POPC   C3A40709  38.338  34.116   7.013
 2932POPC   C4A40710  38.495  34.016   7.423
 2932POPC   C1B40711  38.205  33.454   6.265
 2932POPC   C2B40712  38.088  33.700   6.604
 2932POPC   C3B40713  38.127  33.641   7.022
 2932POPC   C4B40714  38.174  33.557   7.412
 2933POPC   NC340715   3.601   8.564   5.146
 2933POPC   PO440716   3.573   8.065   5.559
 2933POPC   GL140717   3.412   8.287   5.925
 2933POPC   GL240718   3.165   7.977   5.923
 2933POPC   C1A40719   3.657   8.534   6.298
 2933POPC   D2A40720   3.644   8.707   6.754
 2933POPC   C3A40721   3.550   8.422   7.142
 2933POPC   C4A40722   3.632   7.969   7.251
 2933POPC   C1B40723   3.296   8.004   6.334
 2933POPC   C2B40724   3.505   8.172   6.675
 2933POPC   C3B40725   3.233   8.042   6.966
 2933POPC   C4B40726   3.110   7.924   7.339
 2934POPC   NC340727  18.434  18.634   5.534
 2934POPC   PO440728  18.032  18.080   5.461
 2934POPC   GL140729  18.137  18.289   5.819
 2934POPC   GL240730  18.509  18.225   5.872
 2934POPC   C1A40731  18.175  18.467   6.216
 2934POPC   D2A40732  18.434  18.477   6.540
 2934POPC   C3A40733  18.255  18.408   6.933
 2934POPC   C4A40734  18.497  18.620   7.221
 2934POPC   C1B40735  18.472  18.029   6.292
 2934POPC   C2B40736  18.541  18.016   6.763
 2934POPC   C3B40737  18.527  18.092   7.247
 2934POPC   C4B40738  18.539  17.969   7.702
 2935POPC   NC340739  25.317   6.634   5.508
 2935POPC   PO440740  24.748   6.938   5.522
 2935POPC   GL140741  25.099   7.016   5.810
 2935POPC   GL240742  25.046   6.742   5.951
 2935POPC   C1A40743  25.521   6.909   6.108
 2935POPC   D2A40744  25.523   7.008   6.605
 2935POPC   C3A40745  25.704   6.895   7.048
 2935POPC   C4A40746  25.649   6.928   7.544
 2935POPC   C1B40747  25.293   6.474   6.203
 2935POPC   C2B40748  25.259   6.510   6.596
 2935POPC   C3B40749  25.196   6.739   6.934
 2935POPC   C4B40750  25.251   6.639   7.344
 2936POPC   NC340751  37.349  30.346   5.568
 2936POPC   PO440752  37.958  30.541   5.435
 2936POPC   GL140753  37.745  30.625   5.804
 2936POPC   GL240754  37.478  30.846   5.707
 2936POPC   C1A40755  37.901  30.518   6.238
 2936POPC   D2A40756  38.045  30.443   6.676
 2936POPC   C3A40757  38.038  30.836   6.944
 2936POPC   C4A40758  37.811  31.031   7.280
 2936POPC   C1B40759  37.474  30.823   6.189
 2936POPC   C2B40760  37.591  30.727   6.638
 2936POPC   C3B40761  37.440  30.742   7.079
 2936POPC   C4B40762  37.369  30.929   7.514
 2937POPC   NC340763  44.630  10.248   5.425
 2937POPC   PO440764  44.773  10.797   5.186
 2937POPC   GL140765  44.738  10.700   5.659
 2937POPC   GL240766  44.946  10.947   5.801
 2937POPC   C1A40767  44.620  10.616   6.128
 2937POPC   D2A40768  44.778  10.602   6.587
 2937POPC   C3A40769  44.516  10.432   6.906
 2937POPC   C4A40770  44.358  10.454   7.287
 2937POPC   C1B40771   0.028  10.897   6.218
 2937POPC   C2B40772  44.960  11.079   6.593
 2937POPC   C3B40773   0.005  10.965   7.004
 2937POPC   C4B40774  44.856  10.621   7.284
 2938POPC   NC340775  42.185  31.495   5.131
 2938POPC   PO440776  42.610  31.354   5.644
 2938POPC   GL140777  42.322  31.353   5.907
 2938POPC   GL240778  42.118  31.620   5.884
 2938POPC   C1A40779  42.301  31.236   6.301
 2938POPC   D2A40780  42.586  31.360   6.608
 2938POPC   C3A40781  42.346  31.214   6.934
 2938POPC   C4A40782  42.382  31.386   7.326
 2938POPC   C1B40783  42.236  31.764   6.256
 2938POPC   C2B40784  42.137  31.613   6.632
 2938POPC   C3B40785  42.306  31.734   6.977
 2938POPC   C4B40786  42.162  31.920   7.292
 2939POPC   NC340787  42.763  30.068   5.595
 2939POPC   PO440788  42.884  30.716   5.345
 2939POPC   GL140789  43.138  30.629   5.711
 2939POPC   GL240790  42.978  30.396   5.920
 2939POPC   C1A40791  43.178  30.834   6.100
 2939POPC   D2A40792  43.173  30.759   6.541
 2939POPC   C3A40793  43.194  30.792   6.995
 2939POPC   C4A40794  43.151  31.116   7.300
 2939POPC   C1B40795  42.800  30.463   6.326
 2939POPC   C2B40796  42.872  30.376   6.779
 2939POPC   C3B40797  42.733  30.393   7.203
 2939POPC   C4B40798  42.784  30.204   7.638
 2940POPC   NC340799  28.045  39.568   5.253
 2940POPC   PO440800  28.104  38.931   5.390
 2940POPC   GL140801  28.253  39.026   5.800
 2940POPC   GL240802  28.202  39.366   5.714
 2940POPC   C1A40803  28.243  38.982   6.258
 2940POPC   D2A40804  28.012  39.301   6.502
 2940POPC   C3A40805  28.115  39.283   6.930
 2940POPC   C4A40806  28.333  38.980   7.206
 2940POPC   C1B40807  28.327  39.446   6.112
 2940POPC   C2B40808  28.437  39.551   6.532
 2940POPC   C3B40809  28.502  39.607   6.942
 2940POPC   C4B40810  28.526  39.447   7.314
 2941POPC   NC340811  15.039  44.372   5.401
 2941POPC   PO440812  15.590  44.719   5.364
 2941POPC   GL140813  15.394  44.854   5.779
 2941POPC   GL240814  15.061  44.733   5.771
 2941POPC   C1A40815  15.333  44.686   6.235
 2941POPC   D2A40816  15.058  44.576   6.608
 2941POPC   C3A40817  15.221  44.521   7.032
 2941POPC   C4A40818  15.594  44.708   7.171
 2941POPC   C1B40819  14.780  44.675   6.123
 2941POPC   C2B40820  14.621  44.849   6.504
 2941POPC   C3B40821  14.790  44.912   6.930
 2941POPC   C4B40822  15.180   0.030   7.083
 2942POPC   NC340823  26.760  38.140   5.355
 2942POPC   PO440824  27.139  38.688   5.489
 2942POPC   GL140825  26.975  38.332   5.809
 2942POPC   GL240826  26.626  38.180   5.843
 2942POPC   C1A40827  26.881  38.271   6.283
 2942POPC   D2A40828  26.800  38.343   6.739
 2942POPC   C3A40829  26.974  38.558   7.140
 2942POPC   C4A40830  27.123  38.559   7.599
 2942POPC   C1B40831  26.342  38.190   6.201
 2942POPC   C2B40832  26.327  38.452   6.582
 2942POPC   C3B40833  26.462  38.633   6.990
 2942POPC   C4B40834  26.528  38.223   7.156
 2943POPC   NC340835  24.738  41.571   5.547
 2943POPC   PO440836  24.208  41.280   5.212
 2943POPC   GL140837  24.200  41.381   5.656
 2943POPC   GL240838  24.452  41.208   5.817
 2943POPC   C1A40839  24.100  41.389   6.143
 2943POPC   D2A40840  24.338  41.344   6.557
 2943POPC   C3A40841  24.287  41.576   6.981
 2943POPC   C4A40842  24.545  41.768   7.341
 2943POPC   C1B40843  24.708  41.357   6.178
 2943POPC   C2B40844  24.860  41.269   6.587
 2943POPC   C3B40845  24.670  41.240   6.986
 2943POPC   C4B40846  24.725  41.287   7.415
 2944POPC   NC340847   7.418  18.445   5.014
 2944POPC   PO440848   7.715  18.356   5.374
 2944POPC   GL140849   7.395  18.402   5.739
 2944POPC   GL240850   7.181  18.111   5.844
 2944POPC   C1A40851   7.307  18.486   6.208
 2944POPC   D2A40852   7.533  18.482   6.622
 2944POPC   C3A40853   7.368  18.512   7.058
 2944POPC   C4A40854   7.358  18.657   7.512
 2944POPC   C1B40855   7.137  18.006   6.298
 2944POPC   C2B40856   7.186  18.120   6.748
 2944POPC   C3B40857   7.403  17.988   7.138
 2944POPC   C4B40858   7.390  17.955   7.613
 2945POPC   NC340859  30.525  40.207   5.446
 2945POPC   PO440860  30.871  39.783   5.434
 2945POPC   GL140861  30.776  39.980   5.841
 2945POPC   GL240862  30.852  40.343   5.827
 2945POPC   C1A40863  30.551  40.147   6.208
 2945POPC   D2A40864  30.536  40.380   6.612
 2945POPC   C3A40865  30.626  40.214   7.028
 2945POPC   C4A40866  30.376  40.406   7.325
 2945POPC   C1B40867  31.068  40.196   6.230
 2945POPC   C2B40868  31.033  40.226   6.695
 2945POPC   C3B40869  31.154  40.135   7.144
 2945POPC   C4B40870  31.281  40.120   7.604
 2946POPC   NC340871  19.037  40.357   5.439
 2946POPC   PO440872  19.223  40.987   5.409
 2946POPC   GL140873  19.371  40.851   5.806
 2946POPC   GL240874  19.148  40.558   5.909
 2946POPC   C1A40875  19.414  41.022   6.221
 2946POPC   D2A40876  19.220  40.756   6.539
 2946POPC   C3A40877  19.325  40.917   6.899
 2946POPC   C4A40878  19.470  41.008   7.279
 2946POPC   C1B40879  18.892  40.435   6.287
 2946POPC   C2B40880  18.673  40.706   6.606
 2946POPC   C3B40881  18.830  40.812   7.024
 2946POPC   C4B40882  19.098  40.640   7.375
 2947POPC   NC340883  43.813  41.661   5.406
 2947POPC   PO440884  44.096  41.099   5.229
 2947POPC   GL140885  44.185  41.354   5.666
 2947POPC   GL240886  43.864  41.443   5.863
 2947POPC   C1A40887  44.284  41.518   6.134
 2947POPC   D2A40888  44.299  41.411   6.599
 2947POPC   C3A40889  44.106  41.522   7.030
 2947POPC   C4A40890  44.321  41.448   7.438
 2947POPC   C1B40891  43.777  41.495   6.329
 2947POPC   C2B40892  43.558  41.586   6.735
 2947POPC   C3B40893  43.512  41.424   7.158
 2947POPC   C4B40894  43.812  41.441   7.500
 2948POPC   NC340895  14.207  26.059   5.207
 2948POPC   PO440896  14.635  25.750   5.692
 2948POPC   GL140897  14.260  25.916   5.738
 2948POPC   GL240898  14.206  26.255   5.752
 2948POPC   C1A40899  14.139  25.966   6.157
 2948POPC   D2A40900  14.021  26.032   6.571
 2948POPC   C3A40901  14.295  25.827   6.886
 2948POPC   C4A40902  14.256  25.947   7.299
 2948POPC   C1B40903  14.546  26.280   6.101
 2948POPC   C2B40904  14.548  26.054   6.505
 2948POPC   C3B40905  14.628  26.222   6.938
 2948POPC   C4B40906  14.710  26.136   7.367
 2949POPC   NC340907  13.381   7.006   5.398
 2949POPC   PO440908  13.532   7.714   5.258
 2949POPC   GL140909  13.443   7.608   5.703
 2949POPC   GL240910  13.685   7.350   5.740
 2949POPC   C1A40911  13.442   7.500   6.171
 2949POPC   D2A40912  13.631   7.331   6.571
 2949POPC   C3A40913  13.450   7.459   6.904
 2949POPC   C4A40914  13.536   7.449   7.303
 2949POPC   C1B40915  13.888   7.247   6.138
 2949POPC   C2B40916  14.085   7.522   6.476
 2949POPC   C3B40917  13.972   7.584   6.916
 2949POPC   C4B40918  14.074   7.417   7.334
 2950POPC   NC340919  19.387   0.588   5.394
 2950POPC   PO440920  18.776   0.317   5.599
 2950POPC   GL140921  18.828   0.625   5.926
 2950POPC   GL240922  19.190   0.634   5.865
 2950POPC   C1A40923  18.975   0.616   6.364
 2950POPC   D2A40924  19.104   0.300   6.645
 2950POPC   C3A40925  19.264   0.400   7.043
 2950POPC   C4A40926  18.987   0.510   7.330
 2950POPC   C1B40927  19.477   0.755   6.220
 2950POPC   C2B40928  19.513   0.662   6.652
 2950POPC   C3B40929  19.652   0.731   7.073
 2950POPC   C4B40930  19.466   0.638   7.466
 2951POPC   NC340931   1.760   9.399   5.502
 2951POPC   PO440932   1.927   9.943   5.131
 2951POPC   GL140933   1.935   9.863   5.640
 2951POPC   GL240934   2.240   9.699   5.770
 2951POPC   C1A40935   1.724   9.710   6.090
 2951POPC   D2A40936   1.540   9.486   6.521
 2951POPC   C3A40937   1.632   9.651   6.948
 2951POPC   C4A40938   1.803   9.585   7.365
 2951POPC   C1B40939   2.196   9.584   6.198
 2951POPC   C2B40940   2.009   9.722   6.571
 2951POPC   C3B40941   2.143   9.699   6.996
 2951POPC   C4B40942   2.037  10.033   7.287
 2952POPC   NC340943  12.142  26.263   5.180
 2952POPC   PO440944  11.615  25.793   5.333
 2952POPC   GL140945  11.908  25.917   5.627
 2952POPC   GL240946  11.847  26.286   5.641
 2952POPC   C1A40947  12.060  25.883   6.052
 2952POPC   D2A40948  12.062  26.101   6.442
 2952POPC   C3A40949  12.226  25.916   6.828
 2952POPC   C4A40950  12.134  26.038   7.267
 2952POPC   C1B40951  11.608  26.145   6.006
 2952POPC   C2B40952  11.549  26.111   6.450
 2952POPC   C3B40953  11.735  26.047   6.863
 2952POPC   C4B40954  11.625  25.999   7.297
 2953POPC   NC340955  15.412  16.627   5.390
 2953POPC   PO440956  14.883  16.394   5.095
 2953POPC   GL140957  15.015  16.405   5.636
 2953POPC   GL240958  15.259  16.676   5.876
 2953POPC   C1A40959  15.002  16.315   6.100
 2953POPC   D2A40960  15.260  16.572   6.398
 2953POPC   C3A40961  15.149  16.488   6.834
 2953POPC   C4A40962  15.239  16.706   7.219
 2953POPC   C1B40963  14.851  16.799   6.095
 2953POPC   C2B40964  14.811  16.765   6.523
 2953POPC   C3B40965  15.099  16.986   6.800
 2953POPC   C4B40966  14.901  17.117   7.125
 2954POPC   NC340967  26.191   9.856   5.467
 2954POPC   PO440968  26.906   9.648   5.355
 2954POPC   GL140969  26.842   9.713   5.767
 2954POPC   GL240970  26.536   9.597   5.813
 2954POPC   C1A40971  26.829   9.800   6.199
 2954POPC   D2A40972  27.048   9.801   6.592
 2954POPC   C3A40973  26.806   9.962   6.951
 2954POPC   C4A40974  26.559  10.263   7.209
 2954POPC   C1B40975  26.644   9.298   6.163
 2954POPC   C2B40976  26.914   9.325   6.501
 2954POPC   C3B40977  26.925   9.403   6.930
 2954POPC   C4B40978  26.716   9.586   7.292
 2955POPC   NC340979  23.713  21.166   5.572
 2955POPC   PO440980  23.459  21.812   5.422
 2955POPC   GL140981  23.425  21.548   5.811
 2955POPC   GL240982  23.259  21.191   5.816
 2955POPC   C1A40983  23.704  21.551   6.184
 2955POPC   D2A40984  24.050  21.393   6.453
 2955POPC   C3A40985  23.939  21.429   6.879
 2955POPC   C4A40986  23.846  21.713   7.220
 2955POPC   C1B40987  23.212  21.338   6.244
 2955POPC   C2B40988  23.442  21.206   6.602
 2955POPC   C3B40989  23.562  21.102   7.007
 2955POPC   C4B40990  23.637  21.300   7.429
 2956POPC   NC340991   9.559  23.977   5.474
 2956POPC   PO440992   9.827  23.415   5.380
 2956POPC   GL140993   9.841  23.589   5.815
 2956POPC   GL240994   9.509  23.536   5.917
 2956POPC   C1A40995   9.835  23.689   6.301
 2956POPC   D2A40996   9.764  23.457   6.710
 2956POPC   C3A40997   9.910  23.696   7.084
 2956POPC   C4A40998  10.173  23.885   7.408
 2956POPC   C1B40999   9.321  23.741   6.312
 2956POPC   C2B41000   9.444  23.849   6.762
 2956POPC   C3B41001   9.438  23.811   7.225
 2956POPC   C4B41002   9.318  23.614   7.656
 2957POPC   NC341003  27.639   0.215   5.241
 2957POPC   PO441004  27.758  44.580   5.369
 2957POPC   GL141005  27.801  44.489   5.792
 2957POPC   GL241006  27.461  44.402   5.834
 2957POPC   C1A41007  27.731  44.476   6.253
 2957POPC   D2A41008  27.659  44.247   6.624
 2957POPC   C3A41009  27.782  44.501   6.937
 2957POPC   C4A41010  27.768  44.575   7.332
 2957POPC   C1B41011  27.216  44.459   6.216
 2957POPC   C2B41012  27.131  44.255   6.606
 2957POPC   C3B41013  27.298  44.338   7.009
 2957POPC   C4B41014  27.241  44.622   7.363
 2958POPC   NC341015  12.378   3.455   5.424
 2958POPC   PO441016  13.094   3.540   5.550
 2958POPC   GL141017  13.104   3.427   5.980
 2958POPC   GL241018  12.829   3.667   5.986
 2958POPC   C1A41019  13.033   3.198   6.366
 2958POPC   D2A41020  12.732   3.226   6.676
 2958POPC   C3A41021  12.762   3.678   6.794
 2958POPC   C4A41022  13.059   3.883   7.086
 2958POPC   C1B41023  12.543   3.437   6.241
 2958POPC   C2B41024  12.293   3.497   6.622
 2958POPC   C3B41025  12.434   3.386   7.053
 2958POPC   C4B41026  12.657   3.665   7.353
 2959POPC   NC341027  11.679  15.265   5.327
 2959POPC   PO441028  11.138  15.186   5.275
 2959POPC   GL141029  11.351  15.132   5.706
 2959POPC   GL241030  11.372  15.420   5.923
 2959POPC   C1A41031  11.396  14.943   6.115
 2959POPC   D2A41032  11.362  15.162   6.499
 2959POPC   C3A41033  11.288  15.020   6.892
 2959POPC   C4A41034  11.243  14.959   7.279
 2959POPC   C1B41035  11.244  15.620   6.323
 2959POPC   C2B41036  11.077  15.525   6.753
 2959POPC   C3B41037  11.165  15.458   7.176
 2959POPC   C4B41038  11.273  15.714   7.548
 2960POPC   NC341039  38.364  37.696   5.390
 2960POPC   PO441040  37.706  37.562   5.296
 2960POPC   GL141041  38.002  37.622   5.741
 2960POPC   GL241042  38.353  37.803   5.883
 2960POPC   C1A41043  38.131  37.458   6.183
 2960POPC   D2A41044  38.282  37.671   6.578
 2960POPC   C3A41045  38.301  37.520   7.000
 2960POPC   C4A41046  38.226  37.443   7.445
 2960POPC   C1B41047  38.662  37.645   6.239
 2960POPC   C2B41048  38.809  37.678   6.665
 2960POPC   C3B41049  38.576  37.963   6.917
 2960POPC   C4B41050  38.406  37.918   7.312
 2961POPC   NC341051  36.704  27.413   5.626
 2961POPC   PO441052  36.997  27.976   5.475
 2961POPC   GL141053  36.956  27.760   5.886
 2961POPC   GL241054  37.033  27.381   5.997
 2961POPC   C1A41055  36.725  27.732   6.256
 2961POPC   D2A41056  36.913  27.930   6.627
 2961POPC   C3A41057  36.771  27.839   7.044
 2961POPC   C4A41058  36.639  27.480   7.252
 2961POPC   C1B41059  37.190  27.539   6.369
 2961POPC   C2B41060  37.320  27.525   6.777
 2961POPC   C3B41061  37.141  27.476   7.173
 2961POPC   C4B41062  37.043  27.363   7.626
 2962POPC   NC341063  42.487  15.219   5.417
 2962POPC   PO441064  41.810  15.117   5.350
 2962POPC   GL141065  42.090  15.108   5.738
 2962POPC   GL241066  42.387  14.901   5.784
 2962POPC   C1A41067  42.339  15.293   6.092
 2962POPC   D2A41068  42.538  15.120   6.452
 2962POPC   C3A41069  42.353  15.262   6.844
 2962POPC   C4A41070  42.485  15.300   7.251
 2962POPC   C1B41071  42.721  14.775   6.094
 2962POPC   C2B41072  42.803  14.686   6.533
 2962POPC   C3B41073  42.742  14.925   6.938
 2962POPC   C4B41074  42.696  14.861   7.411
 2963POPC   NC341075  16.993  30.114   5.456
 2963POPC   PO441076  16.567  29.660   5.430
 2963POPC   GL141077  16.792  29.768   5.783
 2963POPC   GL241078  16.908  29.444   5.872
 2963POPC   C1A41079  16.721  30.099   6.108
 2963POPC   D2A41080  16.909  30.158   6.513
 2963POPC   C3A41081  16.714  30.093   6.909
 2963POPC   C4A41082  17.014  30.037   7.204
 2963POPC   C1B41083  16.694  29.609   6.263
 2963POPC   C2B41084  16.872  29.656   6.680
 2963POPC   C3B41085  16.730  29.591   7.107
 2963POPC   C4B41086  16.491  29.499   7.466
 2964POPC   NC341087  17.270  31.028   5.612
 2964POPC   PO441088  17.740  30.649   5.322
 2964POPC   GL141089  17.501  30.485   5.708
 2964POPC   GL241090  17.609  30.710   5.954
 2964POPC   C1A41091  17.272  30.298   6.078
 2964POPC   D2A41092  17.270  30.528   6.458
 2964POPC   C3A41093  17.371  30.388   6.883
 2964POPC   C4A41094  17.759  30.504   7.105
 2964POPC   C1B41095  17.639  31.043   6.256
 2964POPC   C2B41096  17.739  31.233   6.634
 2964POPC   C3B41097  17.548  30.943   6.918
 2964POPC   C4B41098  17.354  30.795   7.267
 2965POPC   NC341099  17.803  14.508   4.893
 2965POPC   PO441100  17.363  14.482   5.423
 2965POPC   GL141101  17.449  14.434   5.844
 2965POPC   GL241102  17.776  14.591   5.845
 2965POPC   C1A41103  17.464  14.317   6.280
 2965POPC   D2A41104  17.202  14.422   6.614
 2965POPC   C3A41105  17.377  14.475   6.996
 2965POPC   C4A41106  17.228  14.601   7.364
 2965POPC   C1B41107  17.883  14.621   6.280
 2965POPC   C2B41108  17.804  14.482   6.690
 2965POPC   C3B41109  17.906  14.360   7.105
 2965POPC   C4B41110  17.928  14.582   7.502
 2966POPC   NC341111  40.375  11.237   5.381
 2966POPC   PO441112  39.809  11.308   5.684
 2966POPC   GL141113  40.180  11.292   5.871
 2966POPC   GL241114  40.224  11.607   6.053
 2966POPC   C1A41115  40.141  11.149   6.276
 2966POPC   D2A41116  39.856  11.150   6.626
 2966POPC   C3A41117  40.113  11.191   6.973
 2966POPC   C4A41118  40.147  11.128   7.389
 2966POPC   C1B41119  39.931  11.642   6.367
 2966POPC   C2B41120  39.998  11.655   6.793
 2966POPC   C3B41121  39.890  11.584   7.192
 2966POPC   C4B41122  39.937  11.624   7.609
 2967POPC   NC341123  19.530  35.783   5.128
 2967POPC   PO441124  19.846  36.402   5.343
 2967POPC   GL141125  19.992  36.313   5.840
 2967POPC   GL241126  20.076  35.970   5.969
 2967POPC   C1A41127  19.731  36.309   6.233
 2967POPC   D2A41128  19.503  36.498   6.565
 2967POPC   C3A41129  19.781  36.343   6.905
 2967POPC   C4A41130  19.665  36.326   7.376
 2967POPC   C1B41131  20.075  35.982   6.421
 2967POPC   C2B41132  19.813  35.786   6.714
 2967POPC   C3B41133  19.744  35.903   7.132
 2967POPC   C4B41134  20.069  36.026   7.471
 2968POPC   NC341135  15.776   4.238   5.281
 2968POPC   PO441136  15.734   4.829   5.587
 2968POPC   GL141137  15.942   4.470   5.747
 2968POPC   GL241138  15.767   4.144   5.780
 2968POPC   C1A41139  16.005   4.325   6.194
 2968POPC   D2A41140  15.879   4.075   6.574
 2968POPC   C3A41141  15.899   4.252   6.967
 2968POPC   C4A41142  16.038   4.410   7.315
 2968POPC   C1B41143  15.592   3.953   6.162
 2968POPC   C2B41144  15.507   3.725   6.535
 2968POPC   C3B41145  15.477   3.929   6.904
 2968POPC   C4B41146  15.472   4.179   7.268
 2969POPC   NC341147  32.432   7.657   5.455
 2969POPC   PO441148  32.155   7.051   5.361
 2969POPC   GL141149  32.284   7.255   5.750
 2969POPC   GL241150  32.036   7.487   5.857
 2969POPC   C1A41151  32.456   7.522   6.125
 2969POPC   D2A41152  32.220   7.568   6.509
 2969POPC   C3A41153  32.418   7.482   6.887
 2969POPC   C4A41154  32.295   7.188   7.182
 2969POPC   C1B41155  32.017   7.874   6.146
 2969POPC   C2B41156  31.971   8.024   6.564
 2969POPC   C3B41157  31.997   7.807   6.920
 2969POPC   C4B41158  32.080   7.629   7.266
 2970POPC   NC341159   9.121  19.531   5.365
 2970POPC   PO441160   9.173  20.215   5.223
 2970POPC   GL141161   9.092  20.155   5.648
 2970POPC   GL241162   9.047  19.834   5.765
 2970POPC   C1A41163   9.127  20.250   6.093
 2970POPC   D2A41164   9.035  20.249   6.549
 2970POPC   C3A41165   9.097  19.910   6.845
 2970POPC   C4A41166   9.127  20.131   7.205
 2970POPC   C1B41167   9.111  19.723   6.205
 2970POPC   C2B41168   8.938  19.501   6.560
 2970POPC   C3B41169   8.947  19.440   7.014
 2970POPC   C4B41170   9.079  19.662   7.372
 2971POPC   NC341171  32.506   0.439   5.241
 2971POPC   PO441172  32.047   0.016   5.387
 2971POPC   GL141173  32.305   0.332   5.716
 2971POPC   GL241174  32.254   0.206   6.000
 2971POPC   C1A41175  32.143   0.686   6.075
 2971POPC   D2A41176  31.883   0.759   6.463
 2971POPC   C3A41177  32.059   0.836   6.856
 2971POPC   C4A41178  32.295   0.646   7.178
 2971POPC   C1B41179  32.282   0.230   6.417
 2971POPC   C2B41180  32.156   0.296   6.822
 2971POPC   C3B41181  32.348   0.151   7.202
 2971POPC   C4B41182  32.424  44.905   7.582
 2972POPC   NC341183   5.494   4.833   5.315
 2972POPC   PO441184   4.916   5.298   5.318
 2972POPC   GL141185   5.114   5.146   5.707
 2972POPC   GL241186   5.242   4.814   5.753
 2972POPC   C1A41187   5.179   5.201   6.177
 2972POPC   D2A41188   5.407   5.212   6.601
 2972POPC   C3A41189   5.274   5.110   7.020
 2972POPC   C4A41190   5.015   5.278   7.347
 2972POPC   C1B41191   5.300   4.698   6.194
 2972POPC   C2B41192   5.113   4.743   6.607
 2972POPC   C3B41193   5.272   4.569   6.990
 2972POPC   C4B41194   5.333   4.732   7.379
 2973POPC   NC341195  20.218  43.568   5.480
 2973POPC   PO441196  20.606  42.999   5.465
 2973POPC   GL141197  20.771  42.917   5.854
 2973POPC   GL241198  20.818  43.289   5.904
 2973POPC   C1A41199  20.674  42.982   6.289
 2973POPC   D2A41200  20.813  43.278   6.579
 2973POPC   C3A41201  20.686  43.027   6.899
 2973POPC   C4A41202  20.636  42.936   7.302
 2973POPC   C1B41203  20.486  43.453   6.200
 2973POPC   C2B41204  20.293  43.358   6.622
 2973POPC   C3B41205  20.462  43.461   7.038
 2973POPC   C4B41206  20.819  43.420   7.305
 2974POPC   NC341207   0.157  41.042   5.471
 2974POPC   PO441208   0.755  40.756   5.466
 2974POPC   GL141209   0.664  40.643   5.869
 2974POPC   GL241210   0.349  40.791   5.866
 2974POPC   C1A41211   0.481  40.574   6.288
 2974POPC   D2A41212   0.239  40.827   6.596
 2974POPC   C3A41213   0.373  40.652   6.991
 2974POPC   C4A41214   0.619  40.772   7.324
 2974POPC   C1B41215   0.581  41.075   6.174
 2974POPC   C2B41216   0.526  41.267   6.583
 2974POPC   C3B41217   0.421  41.162   6.977
 2974POPC   C4B41218   0.615  41.315   7.324
 2975POPC   NC341219  10.053  30.024   5.365
 2975POPC   PO441220   9.483  29.744   5.472
 2975POPC   GL141221   9.629  29.896   5.872
 2975POPC   GL241222   9.815  30.202   5.830
 2975POPC   C1A41223   9.749  29.724   6.268
 2975POPC   D2A41224   9.671  29.979   6.619
 2975POPC   C3A41225   9.387  29.800   6.862
 2975POPC   C4A41226   9.290  29.816   7.258
 2975POPC   C1B41227  10.021  30.169   6.250
 2975POPC   C2B41228  10.162  29.902   6.583
 2975POPC   C3B41229  10.037  29.720   6.936
 2975POPC   C4B41230   9.817  29.867   7.288
 2976POPC   NC341231  44.811  32.405   5.082
 2976POPC   PO441232   0.473  32.281   5.269
 2976POPC   GL141233   0.474  32.221   5.718
 2976POPC   GL241234   0.268  32.438   5.904
 2976POPC   C1A41235   0.667  32.138   6.127
 2976POPC   D2A41236   0.583  32.015   6.555
 2976POPC   C3A41237   0.352  32.120   6.933
 2976POPC   C4A41238   0.581  32.155   7.336
 2976POPC   C1B41239   0.261  32.389   6.358
 2976POPC   C2B41240   0.394  32.623   6.709
 2976POPC   C3B41241   0.435  32.597   7.175
 2976POPC   C4B41242   0.294  32.480   7.622
 2977POPC   NC341243  21.994   7.948   5.505
 2977POPC   PO441244  22.521   8.421   5.480
 2977POPC   GL141245  22.173   8.338   5.784
 2977POPC   GL241246  22.271   7.993   5.934
 2977POPC   C1A41247  21.993   8.309   6.210
 2977POPC   D2A41248  22.167   8.048   6.525
 2977POPC   C3A41249  22.045   8.211   6.920
 2977POPC   C4A41250  22.204   8.184   7.315
 2977POPC   C1B41251  21.859   7.815   6.138
 2977POPC   C2B41252  21.679   7.899   6.538
 2977POPC   C3B41253  21.751   7.783   6.952
 2977POPC   C4B41254  21.731   8.019   7.320
 2978POPC   NC341255  21.720  42.615   5.449
 2978POPC   PO441256  21.153  42.195   5.369
 2978POPC   GL141257  21.377  42.328   5.725
 2978POPC   GL241258  21.116  42.500   5.847
 2978POPC   C1A41259  21.403  42.229   6.188
 2978POPC   D2A41260  21.201  42.311   6.624
 2978POPC   C3A41261  21.332  42.207   7.051
 2978POPC   C4A41262  21.236  42.205   7.498
 2978POPC   C1B41263  20.995  42.587   6.243
 2978POPC   C2B41264  21.064  42.810   6.629
 2978POPC   C3B41265  21.054  42.688   7.055
 2978POPC   C4B41266  20.840  42.342   7.209
 2979POPC   NC341267  34.751  24.118   5.212
 2979POPC   PO441268  34.310  23.580   5.377
 2979POPC   GL141269  34.564  23.611   5.753
 2979POPC   GL241270  34.663  23.963   5.749
 2979POPC   C1A41271  34.695  23.365   6.144
 2979POPC   D2A41272  34.463  23.421   6.512
 2979POPC   C3A41273  34.561  23.642   6.881
 2979POPC   C4A41274  34.372  23.487   7.260
 2979POPC   C1B41275  34.606  23.860   6.202
 2979POPC   C2B41276  34.897  23.821   6.544
 2979POPC   C3B41277  34.946  24.001   6.981
 2979POPC   C4B41278  34.623  23.928   7.310
 2980POPC   NC341279  16.764   8.868   5.521
 2980POPC   PO441280  17.146   9.443   5.689
 2980POPC   GL141281  17.083   9.067   5.959
 2980POPC   GL241282  17.020   8.696   5.947
 2980POPC   C1A41283  16.933   8.941   6.378
 2980POPC   D2A41284  16.608   9.018   6.681
 2980POPC   C3A41285  16.782   9.202   7.036
 2980POPC   C4A41286  16.554   9.210   7.403
 2980POPC   C1B41287  16.639   8.534   6.222
 2980POPC   C2B41288  16.281   8.645   6.532
 2980POPC   C3B41289  16.269   8.735   6.993
 2980POPC   C4B41290  16.664   8.730   7.193
 2981POPC   NC341291  38.862  25.427   5.369
 2981POPC   PO441292  39.092  24.867   5.340
 2981POPC   GL141293  39.002  25.101   5.725
 2981POPC   GL241294  39.322  24.995   5.897
 2981POPC   C1A41295  38.981  25.307   6.132
 2981POPC   D2A41296  39.229  25.375   6.487
 2981POPC   C3A41297  39.070  25.480   6.900
 2981POPC   C4A41298  39.228  25.449   7.327
 2981POPC   C1B41299  39.186  24.872   6.328
 2981POPC   C2B41300  39.111  24.970   6.792
 2981POPC   C3B41301  39.238  24.946   7.214
 2981POPC   C4B41302  39.451  24.786   7.598
 2982POPC   NC341303  38.696  34.864   5.509
 2982POPC   PO441304  38.548  35.521   5.487
 2982POPC   GL141305  38.352  35.315   5.813
 2982POPC   GL241306  37.982  35.385   5.762
 2982POPC   C1A41307  38.574  35.096   6.156
 2982POPC   D2A41308  38.808  35.187   6.529
 2982POPC   C3A41309  38.746  35.003   6.928
 2982POPC   C4A41310  38.663  35.212   7.306
 2982POPC   C1B41311  38.021  35.117   6.154
 2982POPC   C2B41312  38.262  35.019   6.554
 2982POPC   C3B41313  38.194  35.165   6.983
 2982POPC   C4B41314  38.165  34.964   7.395
 2983POPC   NC341315  41.629  37.191   5.608
 2983POPC   PO441316  41.811  36.620   5.386
 2983POPC   GL141317  41.713  36.727   5.847
 2983POPC   GL241318  41.386  36.910   5.935
 2983POPC   C1A41319  41.540  36.596   6.279
 2983POPC   D2A41320  41.305  36.865   6.564
 2983POPC   C3A41321  41.397  36.704   6.950
 2983POPC   C4A41322  41.330  36.815   7.343
 2983POPC   C1B41323  41.594  37.179   6.256
 2983POPC   C2B41324  41.703  37.171   6.680
 2983POPC   C3B41325  41.467  37.222   7.044
 2983POPC   C4B41326  41.613  37.428   7.408
 2984POPC   NC341327  23.653  36.528   5.447
 2984POPC   PO441328  24.209  36.224   5.309
 2984POPC   GL141329  23.945  36.183   5.692
 2984POPC   GL241330  24.021  35.886   5.847
 2984POPC   C1A41331  23.681  36.253   6.070
 2984POPC   D2A41332  23.495  36.004   6.404
 2984POPC   C3A41333  23.569  36.092   6.829
 2984POPC   C4A41334  23.375  36.062   7.228
 2984POPC   C1B41335  24.000  35.934   6.304
 2984POPC   C2B41336  23.825  35.666   6.634
 2984POPC   C3B41337  23.851  35.734   7.068
 2984POPC   C4B41338  23.878  36.126   7.282
 2985POPC   NC341339  25.395  35.112   5.536
 2985POPC   PO441340  24.940  35.540   5.379
 2985POPC   GL141341  25.121  35.488   5.797
 2985POPC   GL241342  24.974  35.800   5.956
 2985POPC   C1A41343  25.218  35.160   6.169
 2985POPC   D2A41344  25.110  35.011   6.591
 2985POPC   C3A41345  25.318  35.041   6.973
 2985POPC   C4A41346  25.002  35.139   7.264
 2985POPC   C1B41347  25.294  35.647   6.247
 2985POPC   C2B41348  25.405  35.449   6.635
 2985POPC   C3B41349  25.173  35.569   7.030
 2985POPC   C4B41350  25.180  35.559   7.498
 2986POPC   NC341351  40.336  44.175   5.509
 2986POPC   PO441352  39.734  44.536   5.450
 2986POPC   GL141353  39.911  44.370   5.829
 2986POPC   GL241354  40.215  44.571   5.813
 2986POPC   C1A41355  39.857  44.260   6.287
 2986POPC   D2A41356  39.719  44.063   6.685
 2986POPC   C3A41357  40.003  44.199   6.994
 2986POPC   C4A41358  40.001  44.644   7.152
 2986POPC   C1B41359  40.101  44.704   6.228
 2986POPC   C2B41360  40.013  44.854   6.648
 2986POPC   C3B41361  40.351  44.975   6.940
 2986POPC   C4B41362  40.425  44.891   7.344
 2987POPC   NC341363   6.058  27.401   5.426
 2987POPC   PO441364   5.544  27.799   5.268
 2987POPC   GL141365   5.745  27.753   5.673
 2987POPC   GL241366   5.659  27.421   5.798
 2987POPC   C1A41367   5.847  27.857   6.111
 2987POPC   D2A41368   6.041  27.759   6.497
 2987POPC   C3A41369   5.881  27.837   6.868
 2987POPC   C4A41370   5.951  27.785   7.288
 2987POPC   C1B41371   5.867  27.358   6.202
 2987POPC   C2B41372   5.784  27.224   6.624
 2987POPC   C3B41373   5.855  27.361   7.033
 2987POPC   C4B41374   5.712  27.331   7.468
 2988POPC   NC341375   2.653  10.878   5.144
 2988POPC   PO441376   2.954  10.278   5.389
 2988POPC   GL141377   2.795  10.509   5.741
 2988POPC   GL241378   2.890  10.855   5.643
 2988POPC   C1A41379   2.754  10.387   6.196
 2988POPC   D2A41380   2.950  10.083   6.497
 2988POPC   C3A41381   2.994  10.208   6.927
 2988POPC   C4A41382   2.808  10.450   7.273
 2988POPC   C1B41383   2.875  10.884   6.116
 2988POPC   C2B41384   2.651  10.774   6.507
 2988POPC   C3B41385   2.790  10.866   6.942
 2988POPC   C4B41386   2.992  10.926   7.349
 2989POPC   NC341387  27.447  23.079   4.922
 2989POPC   PO441388  27.747  23.241   5.522
 2989POPC   GL141389  27.596  23.197   5.946
 2989POPC   GL241390  27.410  22.888   5.934
 2989POPC   C1A41391  27.564  23.186   6.403
 2989POPC   D2A41392  27.549  23.153   6.853
 2989POPC   C3A41393  27.868  22.973   7.157
 2989POPC   C4A41394  27.925  23.095   7.610
 2989POPC   C1B41395  27.570  22.677   6.309
 2989POPC   C2B41396  27.690  22.680   6.731
 2989POPC   C3B41397  27.435  22.702   7.102
 2989POPC   C4B41398  27.210  22.520   7.454
 2990POPC   NC341399  37.141  23.943   5.418
 2990POPC   PO441400  36.663  23.477   5.445
 2990POPC   GL141401  36.796  23.758   5.776
 2990POPC   GL241402  37.148  23.654   5.825
 2990POPC   C1A41403  36.852  23.949   6.195
 2990POPC   D2A41404  36.952  24.064   6.630
 2990POPC   C3A41405  36.990  23.747   6.978
 2990POPC   C4A41406  36.741  23.421   7.189
 2990POPC   C1B41407  37.111  23.483   6.227
 2990POPC   C2B41408  37.294  23.527   6.619
 2990POPC   C3B41409  37.243  23.311   6.988
 2990POPC   C4B41410  37.247  23.465   7.394
 2991POPC   NC341411  18.764  31.683   5.475
 2991POPC   PO441412  19.264  31.267   5.437
 2991POPC   GL141413  19.004  31.349   5.775
 2991POPC   GL241414  19.138  31.696   5.835
 2991POPC   C1A41415  18.931  31.410   6.211
 2991POPC   D2A41416  19.202  31.293   6.537
 2991POPC   C3A41417  19.068  31.479   6.918
 2991POPC   C4A41418  19.127  31.557   7.334
 2991POPC   C1B41419  19.127  31.880   6.247
 2991POPC   C2B41420  19.163  32.120   6.631
 2991POPC   C3B41421  19.204  31.972   7.041
 2991POPC   C4B41422  19.422  31.964   7.438
 2992POPC   NC341423  14.141  29.955   5.322
 2992POPC   PO441424  14.667  29.657   5.485
 2992POPC   GL141425  14.515  29.642   5.910
 2992POPC   GL241426  14.340  29.923   5.855
 2992POPC   C1A41427  14.178  29.615   6.228
 2992POPC   D2A41428  14.033  29.754   6.665
 2992POPC   C3A41429  14.300  29.657   7.037
 2992POPC   C4A41430  14.296  29.743   7.480
 2992POPC   C1B41431  14.480  30.035   6.304
 2992POPC   C2B41432  14.556  30.041   6.792
 2992POPC   C3B41433  14.372  30.187   7.205
 2992POPC   C4B41434  14.069  30.187   7.601
 2993POPC   NC341435  21.589  13.168   5.212
 2993POPC   PO441436  21.369  13.801   5.284
 2993POPC   GL141437  21.207  13.544   5.748
 2993POPC   GL241438  21.201  13.875   5.945
 2993POPC   C1A41439  21.286  13.475   6.220
 2993POPC   D2A41440  21.087  13.761   6.538
 2993POPC   C3A41441  21.101  13.621   6.950
 2993POPC   C4A41442  21.287  13.332   7.215
 2993POPC   C1B41443  21.506  13.956   6.317
 2993POPC   C2B41444  21.596  14.003   6.763
 2993POPC   C3B41445  21.573  13.754   7.135
 2993POPC   C4B41446  21.546  13.861   7.583
 2994POPC   NC341447   1.541   6.156   5.060
 2994POPC   PO441448   1.086   6.529   5.410
 2994POPC   GL141449   1.258   6.706   5.773
 2994POPC   GL241450   1.607   6.744   5.800
 2994POPC   C1A41451   1.052   6.698   6.156
 2994POPC   D2A41452   1.103   6.456   6.507
 2994POPC   C3A41453   1.035   6.654   6.876
 2994POPC   C4A41454   1.105   6.480   7.256
 2994POPC   C1B41455   1.557   6.582   6.240
 2994POPC   C2B41456   1.531   6.755   6.673
 2994POPC   C3B41457   1.431   6.872   7.117
 2994POPC   C4B41458   1.140   6.995   7.420
 2995POPC   NC341459  14.329  22.470   5.560
 2995POPC   PO441460  14.491  21.844   5.120
 2995POPC   GL141461  14.353  21.950   5.581
 2995POPC   GL241462  14.041  21.948   5.766
 2995POPC   C1A41463  14.460  22.064   6.049
 2995POPC   D2A41464  14.362  21.957   6.498
 2995POPC   C3A41465  14.564  22.270   6.772
 2995POPC   C4A41466  14.517  22.374   7.224
 2995POPC   C1B41467  13.990  22.301   6.099
 2995POPC   C2B41468  14.095  22.413   6.542
 2995POPC   C3B41469  14.083  22.258   6.963
 2995POPC   C4B41470  14.374  21.894   7.094
 2996POPC   NC341471  29.677  41.714   5.277
 2996POPC   PO441472  30.307  41.444   5.256
 2996POPC   GL141473  30.019  41.744   5.620
 2996POPC   GL241474  29.783  41.440   5.717
 2996POPC   C1A41475  29.830  41.800   6.088
 2996POPC   D2A41476  29.684  41.585   6.512
 2996POPC   C3A41477  29.921  41.552   6.938
 2996POPC   C4A41478  30.150  41.265   7.240
 2996POPC   C1B41479  29.613  41.222   6.147
 2996POPC   C2B41480  29.599  41.030   6.591
 2996POPC   C3B41481  29.711  41.068   7.015
 2996POPC   C4B41482  29.513  41.371   7.212
 2997POPC   NC341483  28.712  17.599   5.280
 2997POPC   PO441484  29.349  17.498   5.372
 2997POPC   GL141485  29.063  17.739   5.652
 2997POPC   GL241486  29.323  17.869   5.860
 2997POPC   C1A41487  28.879  17.846   6.091
 2997POPC   D2A41488  29.078  17.881   6.508
 2997POPC   C3A41489  28.860  17.840   6.931
 2997POPC   C4A41490  28.807  17.508   7.244
 2997POPC   C1B41491  29.456  17.583   6.213
 2997POPC   C2B41492  29.687  17.399   6.584
 2997POPC   C3B41493  29.563  17.431   7.011
 2997POPC   C4B41494  29.266  17.719   7.222
 2998POPC   NC341495   9.520   5.306   5.493
 2998POPC   PO441496   9.153   4.781   5.183
 2998POPC   GL141497   9.109   4.937   5.679
 2998POPC   GL241498   9.020   5.283   5.797
 2998POPC   C1A41499   8.873   4.781   6.103
 2998POPC   D2A41500   8.707   4.959   6.512
 2998POPC   C3A41501   9.051   5.044   6.832
 2998POPC   C4A41502   9.044   5.192   7.244
 2998POPC   C1B41503   9.130   5.195   6.248
 2998POPC   C2B41504   9.387   5.423   6.543
 2998POPC   C3B41505   9.419   5.424   6.982
 2998POPC   C4B41506   9.493   5.310   7.412
 2999POPC   NC341507  39.165  37.612   5.419
 2999POPC   PO441508  38.631  37.400   5.639
 2999POPC   GL141509  39.023  37.570   5.907
 2999POPC   GL241510  39.287  37.852   5.892
 2999POPC   C1A41511  39.226  37.598   6.340
 2999POPC   D2A41512  39.501  37.479   6.705
 2999POPC   C3A41513  39.347  37.660   7.101
 2999POPC   C4A41514  38.895  37.703   7.223
 2999POPC   C1B41515  39.547  37.993   6.239
 2999POPC   C2B41516  39.536  38.005   6.696
 2999POPC   C3B41517  39.757  37.993   7.099
 2999POPC   C4B41518  39.689  37.757   7.509
 3000POPC   NC341519   0.245  44.750   5.524
 3000POPC   PO441520  44.716  44.516   5.574
 3000POPC   GL141521  44.547  44.718   5.954
 3000POPC   GL241522  44.214  44.882   5.964
 3000POPC   C1A41523  44.656  44.612   6.362
 3000POPC   D2A41524  44.912  44.385   6.640
 3000POPC   C3A41525  44.765  44.446   7.043
 3000POPC   C4A41526  44.374  44.344   7.260
 3000POPC   C1B41527  44.144  44.625   6.350
 3000POPC   C2B41528  44.323  44.538   6.773
 3000POPC   C3B41529  44.414  44.827   7.112
 3000POPC   C4B41530  44.380  44.789   7.570
 3001POPC   NC341531   9.897  27.906   5.462
 3001POPC   PO441532   9.620  27.307   5.682
 3001POPC   GL141533   9.930  27.551   5.867
 3001POPC   GL241534   9.793  27.862   6.005
 3001POPC   C1A41535  10.162  27.513   6.243
 3001POPC   D2A41536  10.037  27.321   6.649
 3001POPC   C3A41537  10.011  27.513   7.054
 3001POPC   C4A41538   9.782  27.866   7.169
 3001POPC   C1B41539   9.651  27.566   6.360
 3001POPC   C2B41540   9.553  27.466   6.822
 3001POPC   C3B41541   9.563  27.297   7.258
 3001POPC   C4B41542   9.406  27.489   7.647
 3002POPC   NC341543  35.498  12.908   5.221
 3002POPC   PO441544  34.850  12.993   5.477
 3002POPC   GL141545  35.196  12.872   5.758
 3002POPC   GL241546  35.560  12.832   5.716
 3002POPC   C1A41547  35.364  13.050   6.168
 3002POPC   D2A41548  35.333  13.223   6.613
 3002POPC   C3A41549  35.405  12.930   6.956
 3002POPC   C4A41550  35.123  12.682   7.206
 3002POPC   C1B41551  35.627  12.601   6.095
 3002POPC   C2B41552  35.643  12.480   6.521
 3002POPC   C3B41553  35.420  12.367   6.872
 3002POPC   C4B41554  35.609  12.517   7.236
 3003POPC   NC341555   1.437  16.313   4.962
 3003POPC   PO441556   1.523  16.622   5.505
 3003POPC   GL141557   1.394  16.676   5.873
 3003POPC   GL241558   1.231  16.391   5.956
 3003POPC   C1A41559   1.268  16.866   6.237
 3003POPC   D2A41560   1.158  16.734   6.636
 3003POPC   C3A41561   1.372  16.879   6.999
 3003POPC   C4A41562   1.193  16.964   7.415
 3003POPC   C1B41563   1.469  16.403   6.360
 3003POPC   C2B41564   1.477  16.380   6.817
 3003POPC   C3B41565   1.055  16.429   7.046
 3003POPC   C4B41566   0.933  16.530   7.490
 3004POPC   NC341567  42.711  24.710   5.483
 3004POPC   PO441568  43.229  24.236   5.526
 3004POPC   GL141569  43.125  24.554   5.787
 3004POPC   GL241570  42.874  24.382   5.878
 3004POPC   C1A41571  43.154  24.565   6.239
 3004POPC   D2A41572  42.927  24.669   6.589
 3004POPC   C3A41573  42.970  24.328   6.863
 3004POPC   C4A41574  43.243  24.527   7.136
 3004POPC   C1B41575  42.660  24.683   6.140
 3004POPC   C2B41576  42.465  24.905   6.489
 3004POPC   C3B41577  42.599  24.958   6.916
 3004POPC   C4B41578  42.741  24.652   7.195
 3005POPC   NC341579  38.687  22.839   5.407
 3005POPC   PO441580  38.047  22.788   5.389
 3005POPC   GL141581  38.341  22.825   5.800
 3005POPC   GL241582  38.670  23.074   5.854
 3005POPC   C1A41583  38.343  22.996   6.239
 3005POPC   D2A41584  38.150  23.290   6.540
 3005POPC   C3A41585  38.147  23.039   6.941
 3005POPC   C4A41586  38.453  22.706   7.078
 3005POPC   C1B41587  38.825  23.186   6.294
 3005POPC   C2B41588  38.617  23.056   6.698
 3005POPC   C3B41589  38.677  23.173   7.147
 3005POPC   C4B41590  38.939  23.332   7.511
 3006POPC   NC341591  17.785  17.695   5.382
 3006POPC   PO441592  17.273  17.434   5.364
 3006POPC   GL141593  17.424  17.613   5.783
 3006POPC   GL241594  17.771  17.518   5.860
 3006POPC   C1A41595  17.447  17.687   6.259
 3006POPC   D2A41596  17.475  17.531   6.727
 3006POPC   C3A41597  17.094  17.555   7.060
 3006POPC   C4A41598  17.033  17.605   7.552
 3006POPC   C1B41599  18.020  17.347   6.192
 3006POPC   C2B41600  18.003  17.196   6.635
 3006POPC   C3B41601  17.931  17.401   7.032
 3006POPC   C4B41602  17.572  17.591   7.246
 3007POPC   NC341603  13.937  41.245   5.477
 3007POPC   PO441604  13.458  41.731   5.229
 3007POPC   GL141605  13.616  41.695   5.718
 3007POPC   GL241606  13.294  41.654   5.938
 3007POPC   C1A41607  13.706  41.800   6.173
 3007POPC   D2A41608  13.407  41.765   6.552
 3007POPC   C3A41609  13.563  41.685   6.971
 3007POPC   C4A41610  13.523  41.705   7.427
 3007POPC   C1B41611  13.513  41.338   6.246
 3007POPC   C2B41612  13.487  41.239   6.649
 3007POPC   C3B41613  13.704  41.186   6.991
 3007POPC   C4B41614  13.403  41.229   7.230
 3008POPC   NC341615  34.685  18.158   5.005
 3008POPC   PO441616  35.059  18.368   5.542
 3008POPC   GL141617  35.016  18.320   5.926
 3008POPC   GL241618  35.377  18.423   5.973
 3008POPC   C1A41619  35.037  18.405   6.347
 3008POPC   D2A41620  35.395  18.430   6.586
 3008POPC   C3A41621  35.242  18.406   7.006
 3008POPC   C4A41622  35.420  18.599   7.384
 3008POPC   C1B41623  35.777  18.294   6.136
 3008POPC   C2B41624  35.944  18.225   6.542
 3008POPC   C3B41625  35.749  18.278   6.935
 3008POPC   C4B41626  35.550  18.109   7.282
 3009POPC   NC341627  20.484  39.312   5.382
 3009POPC   PO441628  21.150  39.266   5.252
 3009POPC   GL141629  20.846  39.203   5.730
 3009POPC   GL241630  20.491  39.070   5.847
 3009POPC   C1A41631  20.687  39.334   6.219
 3009POPC   D2A41632  20.403  39.237   6.619
 3009POPC   C3A41633  20.651  39.224   7.023
 3009POPC   C4A41634  20.637  39.463   7.452
 3009POPC   C1B41635  20.330  38.851   6.246
 3009POPC   C2B41636  20.296  38.668   6.689
 3009POPC   C3B41637  20.261  38.708   7.155
 3009POPC   C4B41638  20.534  38.947   7.432
 3010POPC   NC341639  33.991  19.800   5.263
 3010POPC   PO441640  33.644  20.337   5.479
 3010POPC   GL141641  33.815  20.026   5.831
 3010POPC   GL241642  33.847  19.661   5.766
 3010POPC   C1A41643  33.805  19.804   6.270
 3010POPC   D2A41644  33.993  19.876   6.691
 3010POPC   C3A41645  33.701  19.776   7.062
 3010POPC   C4A41646  33.655  19.947   7.492
 3010POPC   C1B41647  34.113  19.441   6.101
 3010POPC   C2B41648  34.000  19.361   6.546
 3010POPC   C3B41649  34.115  19.468   6.985
 3010POPC   C4B41650  34.019  19.592   7.443
 3011POPC   NC341651  24.447  11.985   5.378
 3011POPC   PO441652  25.107  12.208   5.320
 3011POPC   GL141653  24.775  12.218   5.728
 3011POPC   GL241654  24.401  12.112   5.862
 3011POPC   C1A41655  24.705  12.347   6.185
 3011POPC   D2A41656  24.456  12.482   6.540
 3011POPC   C3A41657  24.424  12.298   6.979
 3011POPC   C4A41658  24.667  12.035   7.278
 3011POPC   C1B41659  24.129  12.234   6.203
 3011POPC   C2B41660  24.199  12.010   6.599
 3011POPC   C3B41661  24.134  11.891   7.043
 3011POPC   C4B41662  24.227  12.043   7.484
 3012POPC   NC341663  32.837  44.864   5.554
 3012POPC   PO441664  32.941   0.507   5.358
 3012POPC   GL141665  33.058   0.322   5.754
 3012POPC   GL241666  32.769   0.188   5.944
 3012POPC   C1A41667  33.152   0.531   6.145
 3012POPC   D2A41668  33.050   0.662   6.564
 3012POPC   C3A41669  32.958   0.348   6.856
 3012POPC   C4A41670  33.237   0.252   7.166
 3012POPC   C1B41671  32.633   0.555   6.200
 3012POPC   C2B41672  32.521   0.652   6.636
 3012POPC   C3B41673  32.733   0.791   6.996
 3012POPC   C4B41674  32.798   0.505   7.337
 3013POPC   NC341675  22.280  20.000   5.447
 3013POPC   PO441676  21.726  19.705   5.386
 3013POPC   GL141677  21.896  19.913   5.778
 3013POPC   GL241678  22.180  19.700   5.956
 3013POPC   C1A41679  22.025  20.083   6.212
 3013POPC   D2A41680  22.249  19.821   6.541
 3013POPC   C3A41681  22.056  19.711   6.951
 3013POPC   C4A41682  22.061  19.857   7.383
 3013POPC   C1B41683  22.454  19.425   6.225
 3013POPC   C2B41684  22.368  19.343   6.676
 3013POPC   C3B41685  22.540  19.560   7.029
 3013POPC   C4B41686  22.431  19.539   7.483
 3014POPC   NC341687  37.068  23.232   5.429
 3014POPC   PO441688  36.651  22.702   5.450
 3014POPC   GL141689  36.639  22.963   5.845
 3014POPC   GL241690  36.831  23.246   5.868
 3014POPC   C1A41691  36.683  23.092   6.308
 3014POPC   D2A41692  36.826  23.282   6.675
 3014POPC   C3A41693  36.823  22.946   6.964
 3014POPC   C4A41694  36.471  22.708   7.174
 3014POPC   C1B41695  37.135  22.959   6.098
 3014POPC   C2B41696  37.236  22.948   6.542
 3014POPC   C3B41697  37.360  22.814   6.960
 3014POPC   C4B41698  37.148  22.951   7.350
 3015POPC   NC341699  17.784  22.794   5.471
 3015POPC   PO441700  17.122  22.927   5.488
 3015POPC   GL141701  17.392  22.788   5.814
 3015POPC   GL241702  17.618  23.073   5.904
 3015POPC   C1A41703  17.333  22.720   6.236
 3015POPC   D2A41704  17.477  22.994   6.553
 3015POPC   C3A41705  17.226  22.955   6.903
 3015POPC   C4A41706  17.312  22.742   7.268
 3015POPC   C1B41707  17.838  22.795   6.202
 3015POPC   C2B41708  17.832  22.623   6.631
 3015POPC   C3B41709  17.731  22.857   6.996
 3015POPC   C4B41710  17.538  23.227   7.245
 3016POPC   NC341711  29.109  43.003   4.923
 3016POPC   PO441712  29.483  42.918   5.493
 3016POPC   GL141713  29.173  43.028   5.824
 3016POPC   GL241714  29.124  43.430   5.874
 3016POPC   C1A41715  29.024  43.077   6.227
 3016POPC   D2A41716  29.050  42.874   6.571
 3016POPC   C3A41717  29.041  43.088   6.949
 3016POPC   C4A41718  29.065  42.862   7.358
 3016POPC   C1B41719  29.385  43.425   6.253
 3016POPC   C2B41720  29.407  43.580   6.666
 3016POPC   C3B41721  29.477  43.343   7.028
 3016POPC   C4B41722  29.264  43.333   7.370
 3017POPC   NC341723  40.845  32.394   5.331
 3017POPC   PO441724  41.339  31.893   5.337
 3017POPC   GL141725  41.046  32.047   5.657
 3017POPC   GL241726  41.207  32.377   5.704
 3017POPC   C1A41727  40.769  32.212   6.026
 3017POPC   D2A41728  40.604  32.067   6.442
 3017POPC   C3A41729  40.544  32.316   6.814
 3017POPC   C4A41730  40.650  32.311   7.253
 3017POPC   C1B41731  41.273  32.134   6.104
 3017POPC   C2B41732  41.053  32.324   6.459
 3017POPC   C3B41733  41.054  32.351   6.916
 3017POPC   C4B41734  41.082  32.014   7.239
 3018POPC   NC341735  14.047  37.429   5.411
 3018POPC   PO441736  14.748  37.375   5.386
 3018POPC   GL141737  14.629  37.545   5.755
 3018POPC   GL241738  14.370  37.765   5.683
 3018POPC   C1A41739  14.481  37.548   6.150
 3018POPC   D2A41740  14.286  37.463   6.497
 3018POPC   C3A41741  14.427  37.470   6.901
 3018POPC   C4A41742  14.189  37.295   7.230
 3018POPC   C1B41743  14.288  38.005   6.099
 3018POPC   C2B41744  14.132  37.970   6.509
 3018POPC   C3B41745  14.301  37.961   6.902
 3018POPC   C4B41746  14.232  37.792   7.283
 3019POPC   NC341747  27.609  16.439   5.664
 3019POPC   PO441748  27.817  17.066   5.582
 3019POPC   GL141749  27.717  16.884   5.964
 3019POPC   GL241750  27.777  16.520   6.122
 3019POPC   C1A41751  27.891  16.918   6.374
 3019POPC   D2A41752  27.694  16.850   6.768
 3019POPC   C3A41753  27.759  16.592   7.114
 3019POPC   C4A41754  27.784  16.786   7.513
 3019POPC   C1B41755  27.405  16.729   6.337
 3019POPC   C2B41756  27.194  16.905   6.716
 3019POPC   C3B41757  27.356  16.919   7.155
 3019POPC   C4B41758  27.303  16.647   7.518
 3020POPC   NC341759  40.375  14.653   5.396
 3020POPC   PO441760  40.715  14.154   5.396
 3020POPC   GL141761  40.730  14.239   5.833
 3020POPC   GL241762  40.535  14.550   5.890
 3020POPC   C1A41763  40.899  14.052   6.223
 3020POPC   D2A41764  41.077  13.943   6.647
 3020POPC   C3A41765  40.874  14.123   7.019
 3020POPC   C4A41766  40.907  14.575   7.135
 3020POPC   C1B41767  40.419  14.328   6.282
 3020POPC   C2B41768  40.236  14.352   6.722
 3020POPC   C3B41769  40.404  14.546   7.121
 3020POPC   C4B41770  40.521  14.762   7.550
 3021POPC   NC341771  42.760  39.099   5.177
 3021POPC   PO441772  42.147  39.099   5.424
 3021POPC   GL141773  42.270  39.176   5.802
 3021POPC   GL241774  42.619  39.117   5.680
 3021POPC   C1A41775  42.233  39.436   6.172
 3021POPC   D2A41776  42.201  39.617   6.582
 3021POPC   C3A41777  42.209  39.380   6.930
 3021POPC   C4A41778  42.178  39.029   7.167
 3021POPC   C1B41779  42.680  39.162   6.127
 3021POPC   C2B41780  42.544  39.225   6.540
 3021POPC   C3B41781  42.718  39.210   6.953
 3021POPC   C4B41782  42.704  38.913   7.249
 3022POPC   NC341783  30.895   0.123   5.648
 3022POPC   PO441784  31.003  44.548   5.265
 3022POPC   GL141785  30.954  44.519   5.727
 3022POPC   GL241786  30.635  44.683   5.806
 3022POPC   C1A41787  30.976  44.644   6.193
 3022POPC   D2A41788  30.735  44.824   6.558
 3022POPC   C3A41789  30.837  44.677   6.953
 3022POPC   C4A41790  30.734  44.701   7.375
 3022POPC   C1B41791  30.403  44.890   6.167
 3022POPC   C2B41792  30.223  44.919   6.602
 3022POPC   C3B41793  30.399  44.965   7.057
 3022POPC   C4B41794  30.304  44.964   7.555
 3023POPC   NC341795  10.262  23.265   5.454
 3023POPC   PO441796  10.761  22.836   5.491
 3023POPC   GL141797  10.499  22.937   5.794
 3023POPC   GL241798  10.665  23.232   5.870
 3023POPC   C1A41799  10.407  22.779   6.190
 3023POPC   D2A41800  10.475  22.979   6.567
 3023POPC   C3A41801  10.364  22.768   6.929
 3023POPC   C4A41802  10.561  22.988   7.248
 3023POPC   C1B41803  10.298  23.307   6.147
 3023POPC   C2B41804  10.248  23.432   6.581
 3023POPC   C3B41805  10.191  23.267   7.014
 3023POPC   C4B41806  10.215  23.327   7.483
 3024POPC   NC341807  12.008  18.000   5.291
 3024POPC   PO441808  12.440  18.482   5.582
 3024POPC   GL141809  12.346  18.184   5.914
 3024POPC   GL241810  11.988  18.138   5.874
 3024POPC   C1A41811  12.281  18.174   6.361
 3024POPC   D2A41812  12.113  18.012   6.751
 3024POPC   C3A41813  12.278  18.286   7.023
 3024POPC   C4A41814  12.158  18.699   7.140
 3024POPC   C1B41815  11.927  18.493   6.176
 3024POPC   C2B41816  11.958  18.525   6.651
 3024POPC   C3B41817  11.736  18.346   7.034
 3024POPC   C4B41818  11.353  18.391   7.355
 3025POPC   NC341819   8.077  32.895   5.326
 3025POPC   PO441820   8.033  33.585   5.201
 3025POPC   GL141821   8.050  33.325   5.614
 3025POPC   GL241822   8.349  33.219   5.716
 3025POPC   C1A41823   7.967  33.131   6.075
 3025POPC   D2A41824   8.187  32.904   6.457
 3025POPC   C3A41825   8.125  32.915   6.913
 3025POPC   C4A41826   7.874  33.110   7.226
 3025POPC   C1B41827   8.500  33.056   6.088
 3025POPC   C2B41828   8.618  33.204   6.507
 3025POPC   C3B41829   8.605  33.257   6.956
 3025POPC   C4B41830   8.382  33.106   7.318
 3026POPC   NC341831  24.098  29.275   5.185
 3026POPC   PO441832  23.567  29.038   5.169
 3026POPC   GL141833  23.559  29.156   5.632
 3026POPC   GL241834  23.205  29.295   5.709
 3026POPC   C1A41835  23.794  29.351   6.035
 3026POPC   D2A41836  23.705  29.517   6.479
 3026POPC   C3A41837  23.968  29.339   6.850
 3026POPC   C4A41838  24.001  29.002   7.233
 3026POPC   C1B41839  23.337  29.128   6.095
 3026POPC   C2B41840  23.277  29.202   6.510
 3026POPC   C3B41841  23.460  29.293   6.885
 3026POPC   C4B41842  23.298  29.220   7.273
 3027POPC   NC341843  30.058  21.132   5.491
 3027POPC   PO441844  29.681  21.629   5.309
 3027POPC   GL141845  29.886  21.549   5.724
 3027POPC   GL241846  30.127  21.801   5.814
 3027POPC   C1A41847  29.847  21.333   6.134
 3027POPC   D2A41848  29.846  21.501   6.559
 3027POPC   C3A41849  29.766  21.339   6.983
 3027POPC   C4A41850  30.088  21.136   7.210
 3027POPC   C1B41851  30.228  21.663   6.239
 3027POPC   C2B41852  30.330  21.703   6.678
 3027POPC   C3B41853  30.216  21.629   7.108
 3027POPC   C4B41854  29.927  21.790   7.439
 3028POPC   NC341855  19.700  39.642   5.217
 3028POPC   PO441856  20.142  40.157   5.383
 3028POPC   GL141857  20.143  40.223   5.864
 3028POPC   GL241858  19.793  40.099   6.045
 3028POPC   C1A41859  20.180  40.101   6.328
 3028POPC   D2A41860  19.756  40.056   6.554
 3028POPC   C3A41861  19.787  40.029   6.975
 3028POPC   C4A41862  20.207  40.131   7.087
 3028POPC   C1B41863  19.573  39.704   6.230
 3028POPC   C2B41864  19.407  39.674   6.671
 3028POPC   C3B41865  19.488  39.636   7.134
 3028POPC   C4B41866  19.613  39.783   7.573
 3029POPC   NC341867  13.482  26.327   5.441
 3029POPC   PO441868  13.510  26.982   5.332
 3029POPC   GL141869  13.569  26.764   5.721
 3029POPC   GL241870  13.257  26.595   5.802
 3029POPC   C1A41871  13.701  26.829   6.150
 3029POPC   D2A41872  14.049  26.952   6.426
 3029POPC   C3A41873  13.952  26.807   6.823
 3029POPC   C4A41874  13.621  26.978   7.045
 3029POPC   C1B41875  13.297  26.516   6.241
 3029POPC   C2B41876  13.475  26.651   6.628
 3029POPC   C3B41877  13.327  26.581   7.041
 3029POPC   C4B41878  13.210  26.760   7.413
 3030POPC   NC341879  42.769  23.852   5.133
 3030POPC   PO441880  42.237  23.975   5.551
 3030POPC   GL141881  42.266  23.708   5.892
 3030POPC   GL241882  41.941  23.607   6.008
 3030POPC   C1A41883  42.370  23.763   6.321
 3030POPC   D2A41884  42.200  23.986   6.641
 3030POPC   C3A41885  42.155  23.836   7.056
 3030POPC   C4A41886  42.250  24.004   7.471
 3030POPC   C1B41887  42.160  23.281   6.252
 3030POPC   C2B41888  42.445  23.330   6.610
 3030POPC   C3B41889  42.344  23.348   7.034
 3030POPC   C4B41890  42.136  23.483   7.460
 3031POPC   NC341891  11.725   6.699   5.249
 3031POPC   PO441892  12.293   6.318   5.291
 3031POPC   GL141893  12.048   6.449   5.661
 3031POPC   GL241894  12.200   6.740   5.786
 3031POPC   C1A41895  12.002   6.460   6.155
 3031POPC   D2A41896  11.954   6.766   6.514
 3031POPC   C3A41897  11.940   6.583   6.945
 3031POPC   C4A41898  12.049   6.570   7.379
 3031POPC   C1B41899  12.341   6.975   6.128
 3031POPC   C2B41900  12.354   7.121   6.538
 3031POPC   C3B41901  12.260   6.980   6.940
 3031POPC   C4B41902  12.120   7.089   7.345
 3032POPC   NC341903  40.581  38.415   5.349
 3032POPC   PO441904  41.193  38.211   5.510
 3032POPC   GL141905  40.997  38.456   5.839
 3032POPC   GL241906  40.628  38.525   5.842
 3032POPC   C1A41907  40.910  38.521   6.293
 3032POPC   D2A41908  40.695  38.371   6.654
 3032POPC   C3A41909  40.871  38.479   7.056
 3032POPC   C4A41910  40.990  38.171   7.348
 3032POPC   C1B41911  40.387  38.454   6.222
 3032POPC   C2B41912  40.239  38.616   6.609
 3032POPC   C3B41913  40.437  38.783   6.948
 3032POPC   C4B41914  40.531  38.705   7.391
 3033POPC   NC341915  28.984  33.927   5.378
 3033POPC   PO441916  29.490  34.270   5.568
 3033POPC   GL141917  29.175  34.061   5.868
 3033POPC   GL241918  28.995  33.711   5.849
 3033POPC   C1A41919  29.265  33.881   6.281
 3033POPC   D2A41920  29.373  33.531   6.585
 3033POPC   C3A41921  29.368  33.704   6.995
 3033POPC   C4A41922  29.223  34.076   7.199
 3033POPC   C1B41923  28.958  33.474   6.242
 3033POPC   C2B41924  28.886  33.635   6.672
 3033POPC   C3B41925  28.835  33.755   7.101
 3033POPC   C4B41926  28.911  33.604   7.502
 3034POPC   NC341927   4.686   7.725   5.388
 3034POPC   PO441928   4.046   7.817   5.309
 3034POPC   GL141929   4.296   7.631   5.722
 3034POPC   GL241930   4.154   7.277   5.717
 3034POPC   C1A41931   4.570   7.574   6.167
 3034POPC   D2A41932   4.351   7.729   6.592
 3034POPC   C3A41933   4.526   7.649   7.003
 3034POPC   C4A41934   4.445   7.555   7.445
 3034POPC   C1B41935   4.110   7.354   6.154
 3034POPC   C2B41936   4.355   7.227   6.517
 3034POPC   C3B41937   4.231   7.133   6.904
 3034POPC   C4B41938   4.035   7.466   7.153
 3035POPC   NC341939   2.782   5.112   5.308
 3035POPC   PO441940   2.506   4.764   5.677
 3035POPC   GL141941   2.883   4.785   5.905
 3035POPC   GL241942   2.996   5.122   5.804
 3035POPC   C1A41943   2.968   4.765   6.361
 3035POPC   D2A41944   3.046   4.797   6.799
 3035POPC   C3A41945   2.700   4.954   7.074
 3035POPC   C4A41946   2.551   4.760   7.479
 3035POPC   C1B41947   2.902   5.295   6.226
 3035POPC   C2B41948   2.871   5.267   6.671
 3035POPC   C3B41949   3.011   5.518   6.994
 3035POPC   C4B41950   3.269   5.543   7.309
 3036POPC   NC341951  26.354  18.051   5.451
 3036POPC   PO441952  25.885  18.492   5.290
 3036POPC   GL141953  26.003  18.424   5.708
 3036POPC   GL241954  25.784  18.651   5.863
 3036POPC   C1A41955  26.248  18.421   6.112
 3036POPC   D2A41956  26.159  18.221   6.534
 3036POPC   C3A41957  26.344  18.329   6.912
 3036POPC   C4A41958  26.589  18.059   7.062
 3036POPC   C1B41959  25.757  18.395   6.250
 3036POPC   C2B41960  25.702  18.379   6.703
 3036POPC   C3B41961  25.859  18.297   7.091
 3036POPC   C4B41962  26.115  18.580   7.293
 3037POPC   NC341963  25.128   5.789   5.574
 3037POPC   PO441964  25.556   6.261   5.387
 3037POPC   GL141965  25.451   6.161   5.796
 3037POPC   GL241966  25.096   6.246   5.807
 3037POPC   C1A41967  25.625   5.870   6.114
 3037POPC   D2A41968  25.694   5.581   6.474
 3037POPC   C3A41969  25.497   5.626   6.906
 3037POPC   C4A41970  25.087   5.732   7.134
 3037POPC   C1B41971  25.101   6.006   6.214
 3037POPC   C2B41972  25.231   6.001   6.661
 3037POPC   C3B41973  25.128   6.233   7.032
 3037POPC   C4B41974  24.924   6.243   7.416
 3038POPC   NC341975   5.698  22.083   5.448
 3038POPC   PO441976   5.622  22.710   5.429
 3038POPC   GL141977   5.705  22.437   5.828
 3038POPC   GL241978   5.916  22.105   5.914
 3038POPC   C1A41979   5.615  22.287   6.257
 3038POPC   D2A41980   5.858  22.160   6.580
 3038POPC   C3A41981   5.700  22.211   6.987
 3038POPC   C4A41982   5.897  22.128   7.373
 3038POPC   C1B41983   6.176  21.824   6.178
 3038POPC   C2B41984   6.092  21.679   6.574
 3038POPC   C3B41985   6.211  21.962   6.900
 3038POPC   C4B41986   6.251  21.743   7.250
 3039POPC   NC341987  24.300   8.629   5.441
 3039POPC   PO441988  24.393   9.297   5.327
 3039POPC   GL141989  24.439   9.283   5.774
 3039POPC   GL241990  24.704   8.997   5.813
 3039POPC   C1A41991  24.307   9.267   6.236
 3039POPC   D2A41992  24.522   9.138   6.642
 3039POPC   C3A41993  24.320   9.080   7.043
 3039POPC   C4A41994  24.299   8.649   7.282
 3039POPC   C1B41995  24.816   8.668   6.146
 3039POPC   C2B41996  24.966   8.741   6.588
 3039POPC   C3B41997  24.714   8.758   6.976
 3039POPC   C4B41998  24.736   9.056   7.347
 3040POPC   NC341999  44.174   2.194   5.250
 3040POPC   PO442000  43.774   1.695   5.424
 3040POPC   GL142001  43.652   1.879   5.839
 3040POPC   GL242002  43.819   2.196   5.938
 3040POPC   C1A42003  43.640   1.825   6.285
 3040POPC   D2A42004  43.892   2.058   6.532
 3040POPC   C3A42005  43.793   2.185   6.931
 3040POPC   C4A42006  43.720   1.870   7.142
 3040POPC   C1B42007  44.124   1.891   6.102
 3040POPC   C2B42008  44.336   1.857   6.531
 3040POPC   C3B42009  44.218   1.877   6.970
 3040POPC   C4B42010  44.336   1.775   7.398
 3041POPC   NC342011  32.468  43.967   5.372
 3041POPC   PO442012  32.132  43.489   5.660
 3041POPC   GL142013  32.419  43.687   5.850
 3041POPC   GL242014  32.233  43.991   5.856
 3041POPC   C1A42015  32.376  43.678   6.285
 3041POPC   D2A42016  32.276  43.917   6.632
 3041POPC   C3A42017  32.489  43.809   7.025
 3041POPC   C4A42018  32.488  43.878   7.494
 3041POPC   C1B42019  31.968  44.203   6.195
 3041POPC   C2B42020  31.980  44.342   6.653
 3041POPC   C3B42021  32.179  44.199   7.067
 3041POPC   C4B42022  32.038  44.094   7.500
 3042POPC   NC342023  23.430  11.852   5.461
 3042POPC   PO442024  23.493  12.559   5.597
 3042POPC   GL142025  23.707  12.229   5.814
 3042POPC   GL242026  23.926  11.957   5.687
 3042POPC   C1A42027  23.534  12.025   6.156
 3042POPC   D2A42028  23.542  12.210   6.550
 3042POPC   C3A42029  23.894  12.363   6.829
 3042POPC   C4A42030  23.844  12.306   7.277
 3042POPC   C1B42031  23.953  11.751   6.122
 3042POPC   C2B42032  23.775  11.725   6.566
 3042POPC   C3B42033  23.636  11.922   6.964
 3042POPC   C4B42034  23.745  11.831   7.428
 3043POPC   NC342035  11.449  27.786   5.565
 3043POPC   PO442036  11.141  27.188   5.372
 3043POPC   GL142037  11.136  27.404   5.750
 3043POPC   GL242038  11.481  27.354   5.860
 3043POPC   C1A42039  11.157  27.591   6.160
 3043POPC   D2A42040  11.229  27.474   6.561
 3043POPC   C3A42041  10.958  27.719   6.791
 3043POPC   C4A42042  11.154  27.865   7.141
 3043POPC   C1B42043  11.683  27.455   6.261
 3043POPC   C2B42044  11.693  27.701   6.658
 3043POPC   C3B42045  11.536  27.527   7.045
 3043POPC   C4B42046  11.586  27.348   7.458
 3044POPC   NC342047   1.664  34.805   5.128
 3044POPC   PO442048   2.199  34.529   5.346
 3044POPC   GL142049   2.241  34.625   5.798
 3044POPC   GL242050   2.220  34.294   5.985
 3044POPC   C1A42051   2.036  34.763   6.197
 3044POPC   D2A42052   1.627  34.606   6.406
 3044POPC   C3A42053   1.627  34.495   6.846
 3044POPC   C4A42054   1.910  34.410   7.187
 3044POPC   C1B42055   2.083  34.317   6.429
 3044POPC   C2B42056   2.123  34.657   6.722
 3044POPC   C3B42057   2.325  34.726   7.107
 3044POPC   C4B42058   2.371  34.377   7.459
 3045POPC   NC342059  21.638  33.940   5.464
 3045POPC   PO442060  21.180  33.379   5.296
 3045POPC   GL142061  21.233  33.681   5.645
 3045POPC   GL242062  21.533  33.524   5.739
 3045POPC   C1A42063  21.150  33.726   6.133
 3045POPC   D2A42064  21.062  33.915   6.566
 3045POPC   C3A42065  21.088  33.701   6.963
 3045POPC   C4A42066  21.352  33.854   7.290
 3045POPC   C1B42067  21.646  33.632   6.136
 3045POPC   C2B42068  21.479  33.584   6.538
 3045POPC   C3B42069  21.650  33.706   6.903
 3045POPC   C4B42070  21.828  33.663   7.289
 3046POPC   NC342071  26.589  43.681   5.305
 3046POPC   PO442072  27.244  43.723   5.339
 3046POPC   GL142073  27.092  43.718   5.824
 3046POPC   GL242074  27.061  44.073   5.888
 3046POPC   C1A42075  26.984  43.792   6.307
 3046POPC   D2A42076  26.764  43.905   6.685
 3046POPC   C3A42077  26.828  43.745   7.102
 3046POPC   C4A42078  26.781  43.760   7.562
 3046POPC   C1B42079  26.754  44.239   6.220
 3046POPC   C2B42080  26.635  44.413   6.630
 3046POPC   C3B42081  26.695  44.286   7.057
 3046POPC   C4B42082  26.970  44.179   7.363
 3047POPC   NC342083  22.627  22.765   5.384
 3047POPC   PO442084  22.026  22.845   5.322
 3047POPC   GL142085  22.291  22.978   5.713
 3047POPC   GL242086  22.054  23.214   5.851
 3047POPC   C1A42087  22.380  23.009   6.163
 3047POPC   D2A42088  22.090  23.103   6.494
 3047POPC   C3A42089  22.364  22.986   6.863
 3047POPC   C4A42090  22.390  23.111   7.287
 3047POPC   C1B42091  21.900  22.812   6.027
 3047POPC   C2B42092  21.712  22.542   6.351
 3047POPC   C3B42093  21.744  22.551   6.823
 3047POPC   C4B42094  21.920  22.890   7.129
 3048POPC   NC342095  30.275  42.662   5.617
 3048POPC   PO442096  29.899  42.309   5.174
 3048POPC   GL142097  29.834  42.248   5.649
 3048POPC   GL242098  30.145  42.205   5.869
 3048POPC   C1A42099  29.642  42.298   6.089
 3048POPC   D2A42100  29.490  42.082   6.487
 3048POPC   C3A42101  29.636  42.240   6.915
 3048POPC   C4A42102  29.964  42.059   7.204
 3048POPC   C1B42103  30.135  42.374   6.325
 3048POPC   C2B42104  30.270  42.525   6.759
 3048POPC   C3B42105  30.408  42.781   7.116
 3048POPC   C4B42106  30.215  42.825   7.525
 3049POPC   NC342107  27.646   7.075   5.390
 3049POPC   PO442108  27.946   6.407   5.460
 3049POPC   GL142109  27.710   6.581   5.802
 3049POPC   GL242110  27.363   6.743   5.785
 3049POPC   C1A42111  27.522   6.422   6.187
 3049POPC   D2A42112  27.281   6.595   6.533
 3049POPC   C3A42113  27.400   6.389   6.909
 3049POPC   C4A42114  27.753   6.352   7.171
 3049POPC   C1B42115  27.635   6.923   6.157
 3049POPC   C2B42116  27.814   6.893   6.584
 3049POPC   C3B42117  27.619   6.845   6.992
 3049POPC   C4B42118  27.482   6.794   7.424
 3050POPC   NC342119  20.925  17.023   5.555
 3050POPC   PO442120  21.006  16.541   5.048
 3050POPC   GL142121  20.706  16.558   5.546
 3050POPC   GL242122  20.456  16.756   5.699
 3050POPC   C1A42123  20.725  16.640   6.086
 3050POPC   D2A42124  20.428  16.685   6.482
 3050POPC   C3A42125  20.576  16.558   6.905
 3050POPC   C4A42126  21.021  16.606   6.980
 3050POPC   C1B42127  20.311  17.027   6.117
 3050POPC   C2B42128  20.266  17.195   6.564
 3050POPC   C3B42129  20.311  17.058   7.005
 3050POPC   C4B42130  20.346  17.144   7.443
 3051POPC   NC342131  24.889  18.943   5.396
 3051POPC   PO442132  25.514  19.028   5.270
 3051POPC   GL142133  25.348  18.937   5.675
 3051POPC   GL242134  25.131  19.240   5.745
 3051POPC   C1A42135  25.423  19.041   6.108
 3051POPC   D2A42136  25.372  19.178   6.545
 3051POPC   C3A42137  25.589  18.938   6.863
 3051POPC   C4A42138  25.423  19.013   7.263
 3051POPC   C1B42139  24.950  18.865   6.023
 3051POPC   C2B42140  24.885  18.709   6.440
 3051POPC   C3B42141  24.959  18.944   6.829
 3051POPC   C4B42142  24.918  19.096   7.247
 3052POPC   NC342143  26.404  37.584   5.630
 3052POPC   PO442144  26.991  37.718   5.296
 3052POPC   GL142145  26.903  37.760   5.723
 3052POPC   GL242146  26.975  37.411   5.732
 3052POPC   C1A42147  26.711  37.783   6.163
 3052POPC   D2A42148  26.657  37.563   6.561
 3052POPC   C3A42149  26.756  37.849   6.880
 3052POPC   C4A42150  27.142  38.074   7.026
 3052POPC   C1B42151  26.878  37.276   6.156
 3052POPC   C2B42152  26.943  37.098   6.593
 3052POPC   C3B42153  26.839  37.294   7.000
 3052POPC   C4B42154  27.032  37.624   7.224
 3053POPC   NC342155   1.814  38.490   5.399
 3053POPC   PO442156   2.310  38.101   5.623
 3053POPC   GL142157   1.986  38.189   5.911
 3053POPC   GL242158   1.614  38.197   5.805
 3053POPC   C1A42159   2.124  38.383   6.293
 3053POPC   D2A42160   2.169  38.769   6.493
 3053POPC   C3A42161   1.969  38.670   6.860
 3053POPC   C4A42162   2.017  38.297   7.126
 3053POPC   C1B42163   1.601  38.397   6.218
 3053POPC   C2B42164   1.612  38.256   6.663
 3053POPC   C3B42165   1.511  38.486   7.046
 3053POPC   C4B42166   1.536  38.655   7.471
 3054POPC   NC342167  12.664  40.642   5.390
 3054POPC   PO442168  13.279  40.381   5.250
 3054POPC   GL142169  13.094  40.579   5.665
 3054POPC   GL242170  13.029  40.962   5.634
 3054POPC   C1A42171  12.966  40.650   6.121
 3054POPC   D2A42172  13.006  40.601   6.592
 3054POPC   C3A42173  13.227  40.831   6.927
 3054POPC   C4A42174  13.063  40.681   7.291
 3054POPC   C1B42175  12.824  41.134   6.008
 3054POPC   C2B42176  12.782  41.029   6.446
 3054POPC   C3B42177  12.732  40.972   6.886
 3054POPC   C4B42178  12.907  41.165   7.232
 3055POPC   NC342179   5.318  17.483   5.530
 3055POPC   PO442180   4.731  17.251   5.507
 3055POPC   GL142181   4.916  17.559   5.843
 3055POPC   GL242182   5.178  17.334   5.987
 3055POPC   C1A42183   5.062  17.710   6.303
 3055POPC   D2A42184   5.232  17.758   6.732
 3055POPC   C3A42185   5.102  17.690   7.164
 3055POPC   C4A42186   5.079  17.347   7.467
 3055POPC   C1B42187   4.792  17.265   6.234
 3055POPC   C2B42188   4.673  17.429   6.633
 3055POPC   C3B42189   4.771  17.276   7.057
 3055POPC   C4B42190   4.574  17.099   7.455
 3056POPC   NC342191   7.160  22.160   5.248
 3056POPC   PO442192   7.864  22.029   5.450
 3056POPC   GL142193   7.470  22.136   5.708
 3056POPC   GL242194   7.386  22.463   5.639
 3056POPC   C1A42195   7.210  22.111   6.131
 3056POPC   D2A42196   7.404  22.111   6.546
 3056POPC   C3A42197   7.279  21.920   6.896
 3056POPC   C4A42198   7.481  22.007   7.289
 3056POPC   C1B42199   7.315  22.603   6.086
 3056POPC   C2B42200   7.232  22.585   6.540
 3056POPC   C3B42201   7.365  22.440   6.984
 3056POPC   C4B42202   7.317  22.488   7.464
 3057POPC   NC342203  18.052   8.899   5.383
 3057POPC   PO442204  18.756   8.858   5.338
 3057POPC   GL142205  18.473   8.810   5.737
 3057POPC   GL242206  18.186   9.034   5.875
 3057POPC   C1A42207  18.533   8.791   6.203
 3057POPC   D2A42208  18.355   8.703   6.637
 3057POPC   C3A42209  18.543   8.985   6.966
 3057POPC   C4A42210  18.386   9.198   7.365
 3057POPC   C1B42211  17.843   9.234   6.187
 3057POPC   C2B42212  17.848   9.330   6.655
 3057POPC   C3B42213  17.953   9.157   7.072
 3057POPC   C4B42214  17.900   9.262   7.531
 3058POPC   NC342215   3.848  23.165   5.644
 3058POPC   PO442216   3.321  23.029   5.241
 3058POPC   GL142217   3.525  22.806   5.752
 3058POPC   GL242218   3.348  22.568   5.925
 3058POPC   C1A42219   3.639  22.908   6.253
 3058POPC   D2A42220   3.663  23.179   6.690
 3058POPC   C3A42221   3.708  23.079   7.138
 3058POPC   C4A42222   3.570  22.723   7.307
 3058POPC   C1B42223   3.124  22.805   6.218
 3058POPC   C2B42224   3.195  23.069   6.526
 3058POPC   C3B42225   3.256  22.925   6.930
 3058POPC   C4B42226   3.215  23.118   7.303
 3059POPC   NC342227  22.428   2.540   5.052
 3059POPC   PO442228  22.492   2.979   5.404
 3059POPC   GL142229  22.392   2.837   5.848
 3059POPC   GL242230  22.098   3.000   5.996
 3059POPC   C1A42231  22.353   2.656   6.287
 3059POPC   D2A42232  22.501   2.795   6.714
 3059POPC   C3A42233  22.214   2.857   7.085
 3059POPC   C4A42234  21.829   2.665   7.279
 3059POPC   C1B42235  22.190   3.120   6.442
 3059POPC   C2B42236  22.290   3.402   6.773
 3059POPC   C3B42237  22.254   3.373   7.206
 3059POPC   C4B42238  22.498   3.132   7.481
 3060POPC   NC342239  38.215  30.831   5.689
 3060POPC   PO442240  38.649  30.282   5.642
 3060POPC   GL142241  38.596  30.575   5.913
 3060POPC   GL242242  38.752  30.861   5.762
 3060POPC   C1A42243  38.455  30.560   6.338
 3060POPC   D2A42244  38.650  30.449   6.742
 3060POPC   C3A42245  38.355  30.456   7.085
 3060POPC   C4A42246  38.229  30.766   7.443
 3060POPC   C1B42247  38.718  30.995   6.199
 3060POPC   C2B42248  38.473  31.000   6.596
 3060POPC   C3B42249  38.599  30.916   6.995
 3060POPC   C4B42250  38.789  31.186   7.296
 3061POPC   NC342251  21.800  32.446   5.454
 3061POPC   PO442252  21.593  31.836   5.332
 3061POPC   GL142253  21.546  31.982   5.730
 3061POPC   GL242254  21.233  31.896   5.847
 3061POPC   C1A42255  21.572  32.166   6.146
 3061POPC   D2A42256  21.375  32.424   6.463
 3061POPC   C3A42257  21.431  32.366   6.907
 3061POPC   C4A42258  21.611  32.059   7.179
 3061POPC   C1B42259  21.103  31.963   6.225
 3061POPC   C2B42260  21.314  31.930   6.596
 3061POPC   C3B42261  21.103  31.933   6.975
 3061POPC   C4B42262  21.021  32.238   7.202
 3062POPC   NC342263  41.681  43.939   5.368
 3062POPC   PO442264  41.065  44.087   5.261
 3062POPC   GL142265  41.275  44.022   5.751
 3062POPC   GL242266  41.518  43.761   5.838
 3062POPC   C1A42267  41.276  43.860   6.263
 3062POPC   D2A42268  41.404  44.067   6.631
 3062POPC   C3A42269  41.450  43.781   6.969
 3062POPC   C4A42270  41.138  43.638   7.242
 3062POPC   C1B42271  41.690  44.114   6.136
 3062POPC   C2B42272  41.868  44.267   6.569
 3062POPC   C3B42273  41.747  44.215   7.039
 3062POPC   C4B42274  41.654  43.925   7.424
 3063POPC   NC342275   7.674   2.873   5.404
 3063POPC   PO442276   7.096   3.107   5.436
 3063POPC   GL142277   7.325   3.020   5.809
 3063POPC   GL242278   7.354   2.663   5.845
 3063POPC   C1A42279   7.212   2.914   6.251
 3063POPC   D2A42280   7.163   2.657   6.624
 3063POPC   C3A42281   7.400   2.848   6.960
 3063POPC   C4A42282   7.346   3.052   7.340
 3063POPC   C1B42283   7.578   2.547   6.244
 3063POPC   C2B42284   7.481   2.250   6.609
 3063POPC   C3B42285   7.370   2.334   7.034
 3063POPC   C4B42286   7.779   2.515   7.133
 3064POPC   NC342287  22.645   5.025   5.425
 3064POPC   PO442288  23.210   5.390   5.367
 3064POPC   GL142289  23.027   5.243   5.778
 3064POPC   GL242290  22.724   5.391   5.775
 3064POPC   C1A42291  22.974   5.082   6.235
 3064POPC   D2A42292  23.056   5.281   6.660
 3064POPC   C3A42293  22.893   5.095   7.056
 3064POPC   C4A42294  23.025   4.707   7.284
 3064POPC   C1B42295  22.836   5.558   6.188
 3064POPC   C2B42296  22.744   5.719   6.607
 3064POPC   C3B42297  22.920   5.622   7.008
 3064POPC   C4B42298  22.673   5.495   7.310
 3065POPC   NC342299  13.642   3.401   5.447
 3065POPC   PO442300  13.971   4.017   5.603
 3065POPC   GL142301  13.787   3.757   5.901
 3065POPC   GL242302  13.432   3.790   5.854
 3065POPC   C1A42303  13.620   3.536   6.275
 3065POPC   D2A42304  13.698   3.395   6.695
 3065POPC   C3A42305  13.588   3.647   7.069
 3065POPC   C4A42306  13.751   3.457   7.444
 3065POPC   C1B42307  13.213   3.840   6.272
 3065POPC   C2B42308  13.263   3.685   6.654
 3065POPC   C3B42309  13.158   3.365   6.947
 3065POPC   C4B42310  13.258   3.319   7.380
 3066POPC   NC342311  16.676  18.816   5.519
 3066POPC   PO442312  17.171  19.348   5.457
 3066POPC   GL142313  16.984  19.119   5.791
 3066POPC   GL242314  16.578  19.127   5.898
 3066POPC   C1A42315  16.957  19.008   6.193
 3066POPC   D2A42316  16.636  19.114   6.465
 3066POPC   C3A42317  16.679  19.422   6.767
 3066POPC   C4A42318  16.763  19.222   7.146
 3066POPC   C1B42319  16.345  18.824   6.124
 3066POPC   C2B42320  16.229  18.824   6.533
 3066POPC   C3B42321  16.339  19.027   6.915
 3066POPC   C4B42322  16.462  18.841   7.302
 3067POPC   NC342323  22.350  13.191   5.478
 3067POPC   PO442324  21.853  12.783   5.282
 3067POPC   GL142325  22.004  12.818   5.793
 3067POPC   GL242326  22.358  12.810   5.884
 3067POPC   C1A42327  22.026  12.783   6.288
 3067POPC   D2A42328  21.781  12.894   6.667
 3067POPC   C3A42329  22.017  12.774   6.980
 3067POPC   C4A42330  22.108  12.475   7.307
 3067POPC   C1B42331  22.257  13.200   6.139
 3067POPC   C2B42332  22.097  13.287   6.561
 3067POPC   C3B42333  22.265  13.226   6.967
 3067POPC   C4B42334  22.386  12.940   7.276
 3068POPC   NC342335  43.452  33.404   5.477
 3068POPC   PO442336  43.104  34.037   5.541
 3068POPC   GL142337  43.382  33.868   5.807
 3068POPC   GL242338  43.332  34.168   5.974
 3068POPC   C1A42339  43.285  33.567   6.118
 3068POPC   D2A42340  43.060  33.518   6.496
 3068POPC   C3A42341  43.249  33.757   6.814
 3068POPC   C4A42342  43.194  33.797   7.234
 3068POPC   C1B42343  43.008  34.014   6.262
 3068POPC   C2B42344  42.940  34.160   6.686
 3068POPC   C3B42345  42.900  34.186   7.139
 3068POPC   C4B42346  43.176  34.314   7.521
 3069POPC   NC342347  17.105   1.297   5.659
 3069POPC   PO442348  16.605   1.154   5.150
 3069POPC   GL142349  16.575   1.063   5.628
 3069POPC   GL242350  16.633   1.374   5.808
 3069POPC   C1A42351  16.356   1.048   6.070
 3069POPC   D2A42352  16.617   1.003   6.453
 3069POPC   C3A42353  16.408   0.916   6.844
 3069POPC   C4A42354  16.472   1.037   7.242
 3069POPC   C1B42355  16.864   1.465   6.222
 3069POPC   C2B42356  17.034   1.273   6.575
 3069POPC   C3B42357  16.804   1.256   6.906
 3069POPC   C4B42358  16.959   1.204   7.259
 3070POPC   NC342359  23.304  33.172   5.258
 3070POPC   PO442360  22.612  33.137   5.194
 3070POPC   GL142361  22.735  33.143   5.701
 3070POPC   GL242362  23.084  33.036   5.731
 3070POPC   C1A42363  22.819  32.924   6.162
 3070POPC   D2A42364  22.835  32.766   6.617
 3070POPC   C3A42365  22.778  32.977   7.029
 3070POPC   C4A42366  22.581  32.626   7.282
 3070POPC   C1B42367  23.340  32.948   6.101
 3070POPC   C2B42368  23.354  32.816   6.498
 3070POPC   C3B42369  23.261  32.964   6.836
 3070POPC   C4B42370  23.308  33.022   7.213
 3071POPC   NC342371  18.186   4.046   5.002
 3071POPC   PO442372  18.074   4.564   5.429
 3071POPC   GL142373  18.086   4.379   5.824
 3071POPC   GL242374  17.870   4.640   5.920
 3071POPC   C1A42375  18.297   4.421   6.230
 3071POPC   D2A42376  18.305   4.644   6.602
 3071POPC   C3A42377  18.414   4.396   6.975
 3071POPC   C4A42378  18.150   4.062   7.185
 3071POPC   C1B42379  17.708   4.778   6.300
 3071POPC   C2B42380  17.719   4.619   6.679
 3071POPC   C3B42381  17.961   4.630   7.000
 3071POPC   C4B42382  17.915   4.467   7.384
 3072POPC   NC342383  30.580  44.233   5.319
 3072POPC   PO442384  31.110  43.839   5.348
 3072POPC   GL142385  30.869  43.956   5.809
 3072POPC   GL242386  30.553  44.169   5.834
 3072POPC   C1A42387  30.631  43.861   6.279
 3072POPC   D2A42388  30.374  43.603   6.648
 3072POPC   C3A42389  30.428  43.704   7.097
 3072POPC   C4A42390  30.860  43.672   7.187
 3072POPC   C1B42391  30.522  44.380   6.247
 3072POPC   C2B42392  30.782  44.289   6.610
 3072POPC   C3B42393  30.774  44.171   7.042
 3072POPC   C4B42394  30.440  44.251   7.303
 3073POPC   NC342395  32.166   8.507   5.381
 3073POPC   PO442396  31.978   7.831   5.495
 3073POPC   GL142397  32.250   8.106   5.733
 3073POPC   GL242398  32.052   8.372   5.846
 3073POPC   C1A42399  32.524   8.284   6.078
 3073POPC   D2A42400  32.741   8.271   6.480
 3073POPC   C3A42401  32.490   7.981   6.751
 3073POPC   C4A42402  32.455   7.945   7.232
 3073POPC   C1B42403  32.023   8.399   6.238
 3073POPC   C2B42404  32.271   8.432   6.587
 3073POPC   C3B42405  32.149   8.300   6.980
 3073POPC   C4B42406  31.897   8.140   7.295
 3074POPC   NC342407  36.172  12.152   5.111
 3074POPC   PO442408  35.761  12.044   5.549
 3074POPC   GL142409  36.034  12.076   5.870
 3074POPC   GL242410  36.397  12.092   5.932
 3074POPC   C1A42411  36.032  12.281   6.245
 3074POPC   D2A42412  36.239  12.146   6.615
 3074POPC   C3A42413  35.989  12.245   6.972
 3074POPC   C4A42414  36.026  12.057   7.350
 3074POPC   C1B42415  36.633  11.791   6.220
 3074POPC   C2B42416  36.702  11.919   6.642
 3074POPC   C3B42417  36.520  11.922   7.072
 3074POPC   C4B42418  36.499  11.983   7.556
 3075POPC   NC342419  15.370  10.823   5.536
 3075POPC   PO442420  16.000  10.779   5.331
 3075POPC   GL142421  15.817  10.453   5.669
 3075POPC   GL242422  15.457  10.389   5.808
 3075POPC   C1A42423  15.888  10.422   6.135
 3075POPC   D2A42424  16.170  10.472   6.519
 3075POPC   C3A42425  16.080  10.506   6.979
 3075POPC   C4A42426  16.220  10.513   7.427
 3075POPC   C1B42427  15.401  10.297   6.252
 3075POPC   C2B42428  15.655  10.283   6.622
 3075POPC   C3B42429  15.561  10.337   7.035
 3075POPC   C4B42430  15.719  10.591   7.344
 3076POPC   NC342431  44.511  40.965   5.077
 3076POPC   PO442432   0.021  40.585   5.382
 3076POPC   GL142433  44.850  40.720   5.756
 3076POPC   GL242434  44.623  40.968   5.836
 3076POPC   C1A42435  44.935  40.687   6.194
 3076POPC   D2A42436  44.720  40.455   6.518
 3076POPC   C3A42437  44.830  40.586   6.921
 3076POPC   C4A42438  44.950  40.983   7.043
 3076POPC   C1B42439  44.570  41.072   6.249
 3076POPC   C2B42440  44.605  40.993   6.670
 3076POPC   C3B42441  44.342  41.025   7.035
 3076POPC   C4B42442  44.152  40.608   7.137
 3077POPC   NC342443  25.122  38.956   5.416
 3077POPC   PO442444  25.572  38.370   5.356
 3077POPC   GL142445  25.344  38.584   5.759
 3077POPC   GL242446  25.015  38.518   5.822
 3077POPC   C1A42447  25.281  38.350   6.208
 3077POPC   D2A42448  25.297  38.147   6.620
 3077POPC   C3A42449  25.188  38.375   6.995
 3077POPC   C4A42450  25.588  38.297   7.185
 3077POPC   C1B42451  24.998  38.806   6.165
 3077POPC   C2B42452  25.035  38.982   6.591
 3077POPC   C3B42453  25.032  38.880   7.040
 3077POPC   C4B42454  25.216  38.715   7.446
 3078POPC   NC342455  33.122   8.101   5.367
 3078POPC   PO442456  32.638   8.580   5.450
 3078POPC   GL142457  32.966   8.344   5.790
 3078POPC   GL242458  33.181   7.963   5.834
 3078POPC   C1A42459  33.204   8.323   6.188
 3078POPC   D2A42460  33.260   8.528   6.577
 3078POPC   C3A42461  33.073   8.282   6.921
 3078POPC   C4A42462  32.660   8.370   7.032
 3078POPC   C1B42463  32.902   7.879   6.160
 3078POPC   C2B42464  33.019   7.871   6.589
 3078POPC   C3B42465  32.868   7.743   6.989
 3078POPC   C4B42466  32.959   7.962   7.349
 3079POPC   NC342467   2.757  38.215   5.586
 3079POPC   PO442468   2.898  38.796   5.209
 3079POPC   GL142469   2.853  38.734   5.690
 3079POPC   GL242470   3.107  38.514   5.827
 3079POPC   C1A42471   2.612  38.581   6.107
 3079POPC   D2A42472   2.684  38.668   6.558
 3079POPC   C3A42473   2.470  38.482   6.895
 3079POPC   C4A42474   2.537  38.270   7.281
 3079POPC   C1B42475   3.092  38.724   6.211
 3079POPC   C2B42476   3.209  38.629   6.629
 3079POPC   C3B42477   2.999  38.617   7.014
 3079POPC   C4B42478   3.145  38.828   7.384
 3080POPC   NC342479  38.943  26.913   5.179
 3080POPC   PO442480  39.222  26.534   5.677
 3080POPC   GL142481  39.351  26.657   6.046
 3080POPC   GL242482  39.033  26.753   6.136
 3080POPC   C1A42483  39.535  26.623   6.437
 3080POPC   D2A42484  39.260  26.737   6.729
 3080POPC   C3A42485  39.334  26.619   7.141
 3080POPC   C4A42486  39.160  26.820   7.488
 3080POPC   C1B42487  39.247  27.108   6.308
 3080POPC   C2B42488  39.161  27.281   6.677
 3080POPC   C3B42489  39.279  27.134   7.045
 3080POPC   C4B42490  39.528  27.128   7.399
 3081POPC   NC342491  36.200  42.753   5.599
 3081POPC   PO442492  35.887  43.310   5.429
 3081POPC   GL142493  35.912  43.123   5.825
 3081POPC   GL242494  36.263  43.207   5.835
 3081POPC   C1A42495  36.040  43.019   6.262
 3081POPC   D2A42496  36.053  43.218   6.664
 3081POPC   C3A42497  36.053  43.030   7.033
 3081POPC   C4A42498  36.331  42.965   7.360
 3081POPC   C1B42499  36.456  43.377   6.194
 3081POPC   C2B42500  36.464  43.520   6.602
 3081POPC   C3B42501  36.430  43.384   7.015
 3081POPC   C4B42502  36.338  43.468   7.455
 3082POPC   NC342503   0.435  33.305   5.470
 3082POPC   PO442504  44.969  32.832   5.267
 3082POPC   GL142505   0.128  32.913   5.725
 3082POPC   GL242506   0.479  32.877   5.726
 3082POPC   C1A42507   0.258  32.893   6.195
 3082POPC   D2A42508   0.170  33.160   6.563
 3082POPC   C3A42509   0.154  32.972   7.007
 3082POPC   C4A42510   0.174  32.967   7.496
 3082POPC   C1B42511   0.782  33.109   6.008
 3082POPC   C2B42512   0.873  33.081   6.447
 3082POPC   C3B42513   0.785  32.920   6.857
 3082POPC   C4B42514   0.624  33.063   7.234
 3083POPC   NC342515  24.323  27.763   5.533
 3083POPC   PO442516  24.755  27.321   5.611
 3083POPC   GL142517  24.571  27.509   5.964
 3083POPC   GL242518  24.557  27.865   6.017
 3083POPC   C1A42519  24.652  27.520   6.417
 3083POPC   D2A42520  24.423  27.595   6.800
 3083POPC   C3A42521  24.367  27.380   7.209
 3083POPC   C4A42522  24.369  27.496   7.671
 3083POPC   C1B42523  24.287  28.173   6.195
 3083POPC   C2B42524  24.130  28.104   6.614
 3083POPC   C3B42525  24.483  28.092   6.849
 3083POPC   C4B42526  24.559  27.845   7.226
 3084POPC   NC342527   0.921   3.532   5.274
 3084POPC   PO442528   0.325   3.843   5.487
 3084POPC   GL142529   0.529   3.624   5.805
 3084POPC   GL242530   0.861   3.706   5.767
 3084POPC   C1A42531   0.384   3.436   6.184
 3084POPC   D2A42532   0.114   3.312   6.542
 3084POPC   C3A42533   0.343   3.420   6.911
 3084POPC   C4A42534   0.482   3.333   7.303
 3084POPC   C1B42535   0.805   3.844   6.253
 3084POPC   C2B42536   0.832   3.901   6.723
 3084POPC   C3B42537   0.734   3.785   7.162
 3084POPC   C4B42538   0.584   3.696   7.623
 3085POPC   NC342539  27.182   8.451   5.462
 3085POPC   PO442540  26.722   8.090   5.141
 3085POPC   GL142541  26.832   8.122   5.666
 3085POPC   GL242542  26.972   8.415   5.913
 3085POPC   C1A42543  26.716   8.005   6.108
 3085POPC   D2A42544  26.572   8.196   6.512
 3085POPC   C3A42545  26.683   7.974   6.904
 3085POPC   C4A42546  26.828   8.065   7.302
 3085POPC   C1B42547  27.203   8.225   6.239
 3085POPC   C2B42548  27.109   8.060   6.638
 3085POPC   C3B42549  27.135   8.336   6.996
 3085POPC   C4B42550  26.925   8.581   7.326
 3086POPC   NC342551  27.135  30.056   5.380
 3086POPC   PO442552  26.434  30.031   5.408
 3086POPC   GL142553  26.752  30.087   5.714
 3086POPC   GL242554  26.704  29.792   5.825
 3086POPC   C1A42555  27.040  30.070   6.102
 3086POPC   D2A42556  26.982  29.869   6.529
 3086POPC   C3A42557  27.126  29.923   6.961
 3086POPC   C4A42558  27.253  29.642   7.245
 3086POPC   C1B42559  26.520  29.810   6.240
 3086POPC   C2B42560  26.500  30.006   6.625
 3086POPC   C3B42561  26.626  29.816   6.974
 3086POPC   C4B42562  26.541  29.969   7.339
 3087POPC   NC342563  19.459   6.858   5.486
 3087POPC   PO442564  19.416   6.197   5.577
 3087POPC   GL142565  19.082   6.401   5.835
 3087POPC   GL242566  18.986   6.742   5.845
 3087POPC   C1A42567  19.132   6.549   6.284
 3087POPC   D2A42568  19.162   6.905   6.603
 3087POPC   C3A42569  19.214   6.688   7.014
 3087POPC   C4A42570  19.511   6.351   7.130
 3087POPC   C1B42571  18.761   7.026   6.118
 3087POPC   C2B42572  18.709   7.197   6.511
 3087POPC   C3B42573  18.613   7.018   6.896
 3087POPC   C4B42574  18.915   7.046   7.203
 3088POPC   NC342575   4.146  10.018   5.345
 3088POPC   PO442576   4.568   9.514   5.584
 3088POPC   GL142577   4.505   9.805   5.863
 3088POPC   GL242578   4.153   9.838   5.812
 3088POPC   C1A42579   4.633   9.803   6.296
 3088POPC   D2A42580   4.537   9.765   6.744
 3088POPC   C3A42581   4.152   9.558   6.842
 3088POPC   C4A42582   4.079   9.365   7.234
 3088POPC   C1B42583   4.162   9.989   6.198
 3088POPC   C2B42584   4.366  10.199   6.534
 3088POPC   C3B42585   4.174  10.132   6.906
 3088POPC   C4B42586   4.159   9.865   7.238
 3089POPC   NC342587  32.873  19.182   5.136
 3089POPC   PO442588  32.229  19.257   5.435
 3089POPC   GL142589  32.150  19.031   5.857
 3089POPC   GL242590  32.260  18.712   5.913
 3089POPC   C1A42591  32.166  18.937   6.353
 3089POPC   D2A42592  32.012  18.834   6.760
 3089POPC   C3A42593  32.240  19.090   6.945
 3089POPC   C4A42594  32.228  19.343   7.271
 3089POPC   C1B42595  32.615  18.766   6.207
 3089POPC   C2B42596  32.718  18.878   6.649
 3089POPC   C3B42597  32.535  18.697   7.042
 3089POPC   C4B42598  32.109  18.745   7.279
 3090POPC   NC342599  26.985  31.382   5.497
 3090POPC   PO442600  26.469  31.879   5.386
 3090POPC   GL142601  26.680  31.655   5.778
 3090POPC   GL242602  26.630  31.329   5.962
 3090POPC   C1A42603  26.858  31.690   6.212
 3090POPC   D2A42604  26.816  31.444   6.567
 3090POPC   C3A42605  26.864  31.639   6.950
 3090POPC   C4A42606  26.666  31.440   7.305
 3090POPC   C1B42607  27.064  31.215   6.164
 3090POPC   C2B42608  27.243  31.194   6.608
 3090POPC   C3B42609  27.089  31.208   7.033
 3090POPC   C4B42610  27.112  31.074   7.453
 3091POPC   NC342611  33.850  24.550   5.250
 3091POPC   PO442612  33.420  24.319   5.593
 3091POPC   GL142613  33.880  24.361   5.742
 3091POPC   GL242614  33.912  24.668   5.886
 3091POPC   C1A42615  34.118  24.270   6.164
 3091POPC   D2A42616  33.923  24.263   6.602
 3091POPC   C3A42617  33.994  24.315   7.044
 3091POPC   C4A42618  33.615  24.352   7.313
 3091POPC   C1B42619  33.891  24.719   6.348
 3091POPC   C2B42620  33.911  24.773   6.808
 3091POPC   C3B42621  33.885  24.794   7.280
 3091POPC   C4B42622  34.017  24.700   7.746
 3092POPC   NC342623  39.200  23.220   5.154
 3092POPC   PO442624  39.068  22.564   5.351
 3092POPC   GL142625  39.095  22.796   5.716
 3092POPC   GL242626  39.270  23.106   5.678
 3092POPC   C1A42627  38.971  22.739   6.123
 3092POPC   D2A42628  39.117  22.822   6.541
 3092POPC   C3A42629  38.951  22.771   6.938
 3092POPC   C4A42630  39.039  22.875   7.324
 3092POPC   C1B42631  39.425  23.031   6.127
 3092POPC   C2B42632  39.467  23.184   6.577
 3092POPC   C3B42633  39.433  23.000   7.000
 3092POPC   C4B42634  39.413  23.230   7.382
 3093POPC   NC342635  34.918   8.312   5.487
 3093POPC   PO442636  34.286   8.086   5.418
 3093POPC   GL142637  34.271   8.317   5.811
 3093POPC   GL242638  34.603   8.444   5.881
 3093POPC   C1A42639  34.230   8.360   6.252
 3093POPC   D2A42640  34.423   8.281   6.635
 3093POPC   C3A42641  34.130   8.279   6.930
 3093POPC   C4A42642  34.232   8.160   7.337
 3093POPC   C1B42643  34.787   8.429   6.312
 3093POPC   C2B42644  34.939   8.236   6.718
 3093POPC   C3B42645  34.736   8.185   7.117
 3093POPC   C4B42646  34.695   8.186   7.560
 3094POPC   NC342647   5.521   2.050   4.923
 3094POPC   PO442648   5.976   2.138   5.382
 3094POPC   GL142649   5.976   2.099   5.818
 3094POPC   GL242650   6.243   1.848   5.798
 3094POPC   C1A42651   5.757   2.225   6.204
 3094POPC   D2A42652   5.706   1.920   6.530
 3094POPC   C3A42653   5.964   1.916   6.891
 3094POPC   C4A42654   5.881   2.123   7.253
 3094POPC   C1B42655   6.264   1.682   6.208
 3094POPC   C2B42656   6.087   1.524   6.557
 3094POPC   C3B42657   6.211   1.455   6.953
 3094POPC   C4B42658   5.959   1.536   7.309
 3095POPC   NC342659  35.243  34.858   5.418
 3095POPC   PO442660  35.574  34.336   5.351
 3095POPC   GL142661  35.358  34.277   5.708
 3095POPC   GL242662  35.285  34.590   5.855
 3095POPC   C1A42663  35.311  34.172   6.146
 3095POPC   D2A42664  35.452  34.416   6.482
 3095POPC   C3A42665  35.415  34.267   6.905
 3095POPC   C4A42666  35.162  34.327   7.259
 3095POPC   C1B42667  35.572  34.855   6.077
 3095POPC   C2B42668  35.654  34.953   6.500
 3095POPC   C3B42669  35.462  34.771   6.846
 3095POPC   C4B42670  35.201  34.907   7.185
 3096POPC   NC342671  13.214  19.344   5.571
 3096POPC   PO442672  13.836  19.046   5.476
 3096POPC   GL142673  13.559  18.983   5.783
 3096POPC   GL242674  13.264  18.790   5.675
 3096POPC   C1A42675  13.578  19.205   6.179
 3096POPC   D2A42676  13.733  19.318   6.575
 3096POPC   C3A42677  13.636  19.102   6.960
 3096POPC   C4A42678  13.739  19.102   7.387
 3096POPC   C1B42679  13.283  18.745   6.125
 3096POPC   C2B42680  13.498  18.815   6.508
 3096POPC   C3B42681  13.277  18.768   6.872
 3096POPC   C4B42682  13.426  18.714   7.283
 3097POPC   NC342683  13.089   1.736   5.427
 3097POPC   PO442684  13.568   2.231   5.315
 3097POPC   GL142685  13.393   2.123   5.725
 3097POPC   GL242686  13.733   2.132   5.910
 3097POPC   C1A42687  13.316   2.012   6.174
 3097POPC   D2A42688  13.586   1.936   6.520
 3097POPC   C3A42689  13.444   1.976   6.927
 3097POPC   C4A42690  13.690   1.988   7.302
 3097POPC   C1B42691  13.674   2.396   6.295
 3097POPC   C2B42692  13.713   2.413   6.751
 3097POPC   C3B42693  13.770   2.597   7.165
 3097POPC   C4B42694  13.610   2.457   7.575
 3098POPC   NC342695  44.664  31.489   5.410
 3098POPC   PO442696   0.289  31.364   5.401
 3098POPC   GL142697   0.034  31.411   5.818
 3098POPC   GL242698  44.892  31.717   5.813
 3098POPC   C1A42699  44.934  31.475   6.297
 3098POPC   D2A42700  44.533  31.368   6.521
 3098POPC   C3A42701  44.474  31.448   6.957
 3098POPC   C4A42702  44.801  31.247   7.242
 3098POPC   C1B42703  44.563  31.768   6.138
 3098POPC   C2B42704  44.431  31.859   6.548
 3098POPC   C3B42705  44.263  31.961   6.937
 3098POPC   C4B42706  44.293  31.807   7.356
 3099POPC   NC342707  15.347   5.009   5.751
 3099POPC   PO442708  15.839   5.335   5.441
 3099POPC   GL142709  15.914   5.196   5.887
 3099POPC   GL242710  15.813   4.858   6.072
 3099POPC   C1A42711  15.887   5.286   6.311
 3099POPC   D2A42712  15.714   5.385   6.665
 3099POPC   C3A42713  15.897   5.197   7.001
 3099POPC   C4A42714  15.682   5.187   7.369
 3099POPC   C1B42715  16.258   4.860   6.192
 3099POPC   C2B42716  16.437   4.817   6.608
 3099POPC   C3B42717  16.327   4.865   7.056
 3099POPC   C4B42718  16.074   4.877   7.441
 3100POPC   NC342719  17.002  29.375   5.355
 3100POPC   PO442720  16.498  28.994   5.193
 3100POPC   GL142721  16.519  28.995   5.689
 3100POPC   GL242722  16.866  28.894   5.772
 3100POPC   C1A42723  16.618  29.123   6.139
 3100POPC   D2A42724  17.000  29.223   6.405
 3100POPC   C3A42725  16.978  29.184   6.870
 3100POPC   C4A42726  16.651  29.042   7.124
 3100POPC   C1B42727  16.905  28.711   6.220
 3100POPC   C2B42728  16.758  28.794   6.609
 3100POPC   C3B42729  16.916  28.640   6.958
 3100POPC   C4B42730  17.174  28.807   7.206
 3101POPC   NC342731  19.841   6.158   5.419
 3101POPC   PO442732  19.927   6.840   5.339
 3101POPC   GL142733  19.879   6.578   5.726
 3101POPC   GL242734  20.214   6.382   5.760
 3101POPC   C1A42735  19.661   6.586   6.162
 3101POPC   D2A42736  19.522   6.519   6.616
 3101POPC   C3A42737  19.701   6.812   6.898
 3101POPC   C4A42738  20.106   6.879   7.125
 3101POPC   C1B42739  20.187   6.662   6.137
 3101POPC   C2B42740  20.035   6.605   6.564
 3101POPC   C3B42741  20.008   6.403   6.983
 3101POPC   C4B42742  20.313   6.442   7.314
 3102POPC   NC342743  13.440   4.701   5.492
 3102POPC   PO442744  13.534   4.085   5.219
 3102POPC   GL142745  13.538   4.259   5.697
 3102POPC   GL242746  13.817   4.508   5.814
 3102POPC   C1A42747  13.569   4.206   6.153
 3102POPC   D2A42748  13.415   4.206   6.587
 3102POPC   C3A42749  13.672   4.282   6.937
 3102POPC   C4A42750  13.748   4.205   7.364
 3102POPC   C1B42751  14.054   4.607   6.244
 3102POPC   C2B42752  14.075   4.508   6.719
 3102POPC   C3B42753  13.903   4.703   7.142
 3102POPC   C4B42754  13.943   4.604   7.629
 3103POPC   NC342755  41.238   2.386   5.465
 3103POPC   PO442756  41.763   2.897   5.623
 3103POPC   GL142757  41.548   2.592   5.812
 3103POPC   GL242758  41.210   2.782   5.801
 3103POPC   C1A42759  41.441   2.573   6.229
 3103POPC   D2A42760  41.582   2.885   6.538
 3103POPC   C3A42761  41.606   2.778   6.981
 3103POPC   C4A42762  41.514   2.494   7.295
 3103POPC   C1B42763  41.146   2.970   6.227
 3103POPC   C2B42764  41.119   2.703   6.619
 3103POPC   C3B42765  41.104   2.661   7.054
 3103POPC   C4B42766  41.110   2.768   7.493
 3104POPC   NC342767   6.098  31.412   5.327
 3104POPC   PO442768   6.236  32.044   5.521
 3104POPC   GL142769   6.041  31.789   5.849
 3104POPC   GL242770   5.714  31.730   5.719
 3104POPC   C1A42771   5.896  31.539   6.245
 3104POPC   D2A42772   6.040  31.303   6.641
 3104POPC   C3A42773   5.917  31.352   7.109
 3104POPC   C4A42774   6.070  31.274   7.533
 3104POPC   C1B42775   5.572  31.309   5.903
 3104POPC   C2B42776   5.504  31.192   6.346
 3104POPC   C3B42777   5.574  31.096   6.794
 3104POPC   C4B42778   5.361  31.320   7.135
 3105POPC   NC342779  25.055  40.626   5.464
 3105POPC   PO442780  25.189  41.167   5.055
 3105POPC   GL142781  25.359  41.017   5.563
 3105POPC   GL242782  25.510  40.699   5.735
 3105POPC   C1A42783  25.206  40.945   6.065
 3105POPC   D2A42784  25.358  41.026   6.462
 3105POPC   C3A42785  25.211  40.995   6.849
 3105POPC   C4A42786  25.413  40.776   7.175
 3105POPC   C1B42787  25.508  40.556   6.203
 3105POPC   C2B42788  25.347  40.523   6.625
 3105POPC   C3B42789  25.030  40.515   6.957
 3105POPC   C4B42790  24.917  40.849   7.236
 3106POPC   NC342791  34.735  44.855   5.143
 3106POPC   PO442792  34.365  44.324   5.411
 3106POPC   GL142793  34.503  44.625   5.751
 3106POPC   GL242794  34.884  44.700   5.711
 3106POPC   C1A42795  34.425  44.587   6.215
 3106POPC   D2A42796  34.382  44.584   6.668
 3106POPC   C3A42797  34.546  44.503   7.081
 3106POPC   C4A42798  34.456  44.802   7.386
 3106POPC   C1B42799  34.868  44.365   6.039
 3106POPC   C2B42800  34.807  44.349   6.489
 3106POPC   C3B42801  34.876  44.726   6.758
 3106POPC   C4B42802  34.942  44.835   7.197
 3107POPC   NC342803  11.874   3.889   5.437
 3107POPC   PO442804  12.036   3.288   5.154
 3107POPC   GL142805  11.927   3.356   5.643
 3107POPC   GL242806  11.605   3.213   5.786
 3107POPC   C1A42807  12.019   3.476   6.105
 3107POPC   D2A42808  11.923   3.827   6.419
 3107POPC   C3A42809  11.933   3.788   6.884
 3107POPC   C4A42810  12.098   3.649   7.294
 3107POPC   C1B42811  11.696   3.087   6.230
 3107POPC   C2B42812  11.809   3.321   6.602
 3107POPC   C3B42813  11.896   3.269   7.037
 3107POPC   C4B42814  11.798   3.264   7.491
 3108POPC   NC342815  20.808  33.628   5.146
 3108POPC   PO442816  20.306  33.829   5.478
 3108POPC   GL142817  20.513  34.095   5.782
 3108POPC   GL242818  20.311  33.974   6.072
 3108POPC   C1A42819  20.780  34.096   6.171
 3108POPC   D2A42820  20.543  33.870   6.529
 3108POPC   C3A42821  20.644  33.980   6.962
 3108POPC   C4A42822  20.988  34.195   7.191
 3108POPC   C1B42823  20.202  33.551   6.248
 3108POPC   C2B42824  20.266  33.366   6.597
 3108POPC   C3B42825  20.581  33.450   6.836
 3108POPC   C4B42826  20.603  33.517   7.232
 3109POPC   NC342827  22.793   8.055   5.392
 3109POPC   PO442828  23.412   8.344   5.430
 3109POPC   GL142829  23.066   8.433   5.714
 3109POPC   GL242830  23.063   8.086   5.835
 3109POPC   C1A42831  23.008   8.450   6.185
 3109POPC   D2A42832  22.771   8.335   6.578
 3109POPC   C3A42833  23.016   8.353   6.972
 3109POPC   C4A42834  23.036   8.260   7.407
 3109POPC   C1B42835  22.744   7.991   6.184
 3109POPC   C2B42836  22.636   7.845   6.630
 3109POPC   C3B42837  22.657   7.994   7.088
 3109POPC   C4B42838  22.605   8.034   7.572
 3110POPC   NC342839  12.855  10.218   5.564
 3110POPC   PO442840  12.890   9.525   5.540
 3110POPC   GL142841  13.094   9.689   5.916
 3110POPC   GL242842  13.260  10.016   5.811
 3110POPC   C1A42843  12.841   9.692   6.315
 3110POPC   D2A42844  12.486   9.613   6.637
 3110POPC   C3A42845  12.507   9.502   7.114
 3110POPC   C4A42846  12.619   9.741   7.520
 3110POPC   C1B42847  13.097  10.129   6.241
 3110POPC   C2B42848  12.828  10.090   6.640
 3110POPC   C3B42849  12.864   9.874   7.046
 3110POPC   C4B42850  13.063  10.002   7.447
 3111POPC   NC342851  37.194  34.248   5.197
 3111POPC   PO442852  36.891  33.757   5.461
 3111POPC   GL142853  36.918  33.896   5.859
 3111POPC   GL242854  37.215  34.086   5.718
 3111POPC   C1A42855  36.661  33.809   6.238
 3111POPC   D2A42856  36.391  33.721   6.617
 3111POPC   C3A42857  36.698  33.784   6.980
 3111POPC   C4A42858  37.002  33.477   7.142
 3111POPC   C1B42859  37.328  33.947   6.144
 3111POPC   C2B42860  37.077  33.829   6.555
 3111POPC   C3B42861  37.225  33.954   6.972
 3111POPC   C4B42862  37.112  33.992   7.393
 3112POPC   NC342863  14.592  12.282   5.344
 3112POPC   PO442864  14.269  11.708   5.547
 3112POPC   GL142865  14.576  11.943   5.791
 3112POPC   GL242866  14.339  12.148   5.894
 3112POPC   C1A42867  14.699  12.016   6.272
 3112POPC   D2A42868  14.398  12.269   6.516
 3112POPC   C3A42869  14.475  12.415   6.937
 3112POPC   C4A42870  14.214  12.313   7.319
 3112POPC   C1B42871  14.281  11.774   6.193
 3112POPC   C2B42872  14.112  11.846   6.583
 3112POPC   C3B42873  14.312  11.923   6.941
 3112POPC   C4B42874  14.243  11.807   7.359
 3113POPC   NC342875  15.879  18.125   5.515
 3113POPC   PO442876  16.231  18.668   5.454
 3113POPC   GL142877  16.267  18.378   5.795
 3113POPC   GL242878  16.291  17.980   5.785
 3113POPC   C1A42879  16.142  18.323   6.207
 3113POPC   D2A42880  15.913  18.087   6.485
 3113POPC   C3A42881  16.002  18.240   6.868
 3113POPC   C4A42882  15.632  18.363   7.091
 3113POPC   C1B42883  16.237  17.780   6.208
 3113POPC   C2B42884  16.351  17.880   6.655
 3113POPC   C3B42885  16.153  17.738   7.040
 3113POPC   C4B42886  15.938  17.994   7.309
 3114POPC   NC342887  43.310  15.614   5.324
 3114POPC   PO442888  43.077  16.246   5.098
 3114POPC   GL142889  42.918  15.935   5.521
 3114POPC   GL242890  43.148  15.835   5.778
 3114POPC   C1A42891  42.709  15.681   5.961
 3114POPC   D2A42892  42.738  15.582   6.447
 3114POPC   C3A42893  42.797  15.714   6.907
 3114POPC   C4A42894  43.144  15.823   7.201
 3114POPC   C1B42895  42.904  16.125   6.097
 3114POPC   C2B42896  42.851  16.089   6.560
 3114POPC   C3B42897  43.050  16.244   6.937
 3114POPC   C4B42898  43.270  16.342   7.375
 3115POPC   NC342899  20.960   3.913   5.489
 3115POPC   PO442900  20.414   3.434   5.401
 3115POPC   GL142901  20.483   3.451   5.832
 3115POPC   GL242902  20.516   3.812   5.898
 3115POPC   C1A42903  20.617   3.470   6.276
 3115POPC   D2A42904  20.489   3.658   6.663
 3115POPC   C3A42905  20.592   3.481   7.054
 3115POPC   C4A42906  20.772   3.561   7.442
 3115POPC   C1B42907  20.440   4.045   6.312
 3115POPC   C2B42908  20.290   4.116   6.733
 3115POPC   C3B42909  20.501   3.994   7.114
 3115POPC   C4B42910  20.355   3.856   7.544
 3116POPC   NC342911  13.955  16.192   5.515
 3116POPC   PO442912  13.389  16.009   5.643
 3116POPC   GL142913  13.568  15.865   5.974
 3116POPC   GL242914  13.870  15.759   5.795
 3116POPC   C1A42915  13.544  15.962   6.427
 3116POPC   D2A42916  13.437  16.196   6.814
 3116POPC   C3A42917  13.449  16.036   7.241
 3116POPC   C4A42918  13.344  15.844   7.643
 3116POPC   C1B42919  14.016  15.880   6.204
 3116POPC   C2B42920  13.921  15.612   6.558
 3116POPC   C3B42921  13.809  15.791   6.935
 3116POPC   C4B42922  13.944  16.128   7.176
 3117POPC   NC342923  18.709  30.118   5.492
 3117POPC   PO442924  18.052  29.816   5.466
 3117POPC   GL142925  18.235  29.774   5.843
 3117POPC   GL242926  18.562  29.662   5.671
 3117POPC   C1A42927  18.050  29.835   6.252
 3117POPC   D2A42928  18.221  29.988   6.623
 3117POPC   C3A42929  18.209  29.810   7.040
 3117POPC   C4A42930  17.979  29.887   7.430
 3117POPC   C1B42931  18.657  29.604   6.119
 3117POPC   C2B42932  18.752  29.785   6.526
 3117POPC   C3B42933  18.658  30.019   6.883
 3117POPC   C4B42934  18.689  29.834   7.244
 3118POPC   NC342935   8.956  21.402   5.344
 3118POPC   PO442936   8.550  20.874   5.489
 3118POPC   GL142937   8.788  21.055   5.857
 3118POPC   GL242938   8.803  21.393   5.815
 3118POPC   C1A42939   9.192  21.225   6.101
 3118POPC   D2A42940   9.291  21.517   6.442
 3118POPC   C3A42941   9.068  21.508   6.841
 3118POPC   C4A42942   9.197  21.769   7.202
 3118POPC   C1B42943   8.876  21.661   6.132
 3118POPC   C2B42944   8.597  21.698   6.442
 3118POPC   C3B42945   8.536  21.410   6.761
 3118POPC   C4B42946   8.654  21.396   7.180
 3119POPC   NC342947  43.516   2.909   5.488
 3119POPC   PO442948  44.151   2.711   5.302
 3119POPC   GL142949  44.052   2.731   5.726
 3119POPC   GL242950  43.937   3.058   5.760
 3119POPC   C1A42951  43.845   2.675   6.132
 3119POPC   D2A42952  43.756   2.522   6.544
 3119POPC   C3A42953  43.892   2.686   6.931
 3119POPC   C4A42954  44.232   2.621   7.222
 3119POPC   C1B42955  43.780   3.168   6.186
 3119POPC   C2B42956  43.655   3.009   6.567
 3119POPC   C3B42957  43.467   3.022   6.957
 3119POPC   C4B42958  43.731   3.046   7.239
 3120POPC   NC342959   8.758   2.203   5.501
 3120POPC   PO442960   9.240   1.709   5.716
 3120POPC   GL142961   9.033   1.996   5.866
 3120POPC   GL242962   8.772   1.750   5.914
 3120POPC   C1A42963   9.038   2.326   6.157
 3120POPC   D2A42964   8.871   2.362   6.566
 3120POPC   C3A42965   9.095   2.282   6.944
 3120POPC   C4A42966   8.974   2.364   7.345
 3120POPC   C1B42967   8.854   1.885   6.342
 3120POPC   C2B42968   9.074   1.821   6.743
 3120POPC   C3B42969   9.107   1.795   7.216
 3120POPC   C4B42970   8.953   1.607   7.628
 3121POPC   NC342971  24.159  18.858   5.390
 3121POPC   PO442972  24.646  19.318   5.425
 3121POPC   GL142973  24.623  19.220   5.844
 3121POPC   GL242974  24.330  19.325   5.926
 3121POPC   C1A42975  24.639  19.138   6.305
 3121POPC   D2A42976  24.469  18.874   6.653
 3121POPC   C3A42977  24.466  19.072   7.010
 3121POPC   C4A42978  24.526  19.483   7.149
 3121POPC   C1B42979  24.150  19.059   6.272
 3121POPC   C2B42980  23.976  18.951   6.672
 3121POPC   C3B42981  23.970  19.140   7.059
 3121POPC   C4B42982  24.179  19.200   7.422
 3122POPC   NC342983  18.055  20.354   5.413
 3122POPC   PO442984  18.023  19.731   5.389
 3122POPC   GL142985  18.164  19.897   5.772
 3122POPC   GL242986  17.870  20.074   5.859
 3122POPC   C1A42987  18.445  19.746   6.128
 3122POPC   D2A42988  18.434  19.522   6.545
 3122POPC   C3A42989  18.534  19.700   6.955
 3122POPC   C4A42990  18.374  19.849   7.384
 3122POPC   C1B42991  17.948  19.815   6.243
 3122POPC   C2B42992  17.983  19.744   6.703
 3122POPC   C3B42993  17.914  19.742   7.155
 3122POPC   C4B42994  17.731  19.897   7.495
 3123POPC   NC342995   3.284   9.923   5.494
 3123POPC   PO442996   3.872   9.633   5.353
 3123POPC   GL142997   3.666   9.629   5.770
 3123POPC   GL242998   3.659   9.980   5.849
 3123POPC   C1A42999   3.759   9.633   6.231
 3123POPC   D2A43000   3.857   9.902   6.593
 3123POPC   C3A43001   3.693   9.931   7.025
 3123POPC   C4A43002   3.715   9.683   7.430
 3123POPC   C1B43003   3.345   9.913   6.181
 3123POPC   C2B43004   3.352   9.778   6.616
 3123POPC   C3B43005   3.367   9.552   7.001
 3123POPC   C4B43006   3.199   9.697   7.383
 3124POPC   NC343007   6.230  41.753   5.495
 3124POPC   PO443008   6.854  41.742   5.379
 3124POPC   GL143009   6.653  41.676   5.791
 3124POPC   GL243010   6.416  41.376   5.810
 3124POPC   C1A43011   6.422  41.804   6.186
 3124POPC   D2A43012   6.438  41.594   6.608
 3124POPC   C3A43013   6.511  41.789   7.002
 3124POPC   C4A43014   6.328  41.819   7.413
 3124POPC   C1B43015   6.654  41.339   6.201
 3124POPC   C2B43016   6.785  41.224   6.634
 3124POPC   C3B43017   6.660  41.279   7.102
 3124POPC   C4B43018   6.798  41.584   7.407
 3125POPC   NC343019   7.726  31.870   5.330
 3125POPC   PO443020   7.610  31.215   5.345
 3125POPC   GL143021   7.565  31.428   5.718
 3125POPC   GL243022   7.261  31.567   5.833
 3125POPC   C1A43023   7.670  31.494   6.152
 3125POPC   D2A43024   7.562  31.416   6.573
 3125POPC   C3A43025   7.764  31.567   6.933
 3125POPC   C4A43026   7.629  31.645   7.325
 3125POPC   C1B43027   7.187  31.683   6.259
 3125POPC   C2B43028   7.084  31.510   6.645
 3125POPC   C3B43029   7.233  31.595   7.017
 3125POPC   C4B43030   7.128  31.836   7.370
 3126POPC   NC343031  20.783  12.051   5.349
 3126POPC   PO443032  20.312  12.584   5.418
 3126POPC   GL143033  20.420  12.327   5.771
 3126POPC   GL243034  20.199  12.039   5.676
 3126POPC   C1A43035  20.687  12.242   6.146
 3126POPC   D2A43036  20.769  11.885   6.443
 3126POPC   C3A43037  20.789  11.985   6.880
 3126POPC   C4A43038  20.853  12.261   7.229
 3126POPC   C1B43039  20.393  11.801   6.027
 3126POPC   C2B43040  20.274  11.727   6.460
 3126POPC   C3B43041  20.270  11.914   6.870
 3126POPC   C4B43042  20.447  11.945   7.278
 3127POPC   NC343043   7.983  41.302   5.122
 3127POPC   PO443044   8.076  40.713   5.499
 3127POPC   GL143045   8.254  40.692   5.874
 3127POPC   GL243046   8.291  41.052   5.950
 3127POPC   C1A43047   8.235  40.678   6.284
 3127POPC   D2A43048   7.985  40.679   6.595
 3127POPC   C3A43049   8.296  40.664   6.889
 3127POPC   C4A43050   8.310  40.515   7.279
 3127POPC   C1B43051   8.068  41.171   6.349
 3127POPC   C2B43052   8.098  41.130   6.805
 3127POPC   C3B43053   8.046  40.956   7.233
 3127POPC   C4B43054   8.230  40.896   7.657
 3128POPC   NC343055   5.756  28.891   5.421
 3128POPC   PO443056   6.024  29.515   5.412
 3128POPC   GL143057   5.872  29.265   5.758
 3128POPC   GL243058   6.109  28.998   5.849
 3128POPC   C1A43059   5.820  29.274   6.212
 3128POPC   D2A43060   6.027  29.122   6.584
 3128POPC   C3A43061   6.023  29.351   6.971
 3128POPC   C4A43062   5.867  29.426   7.379
 3128POPC   C1B43063   5.983  28.761   6.216
 3128POPC   C2B43064   5.787  28.670   6.606
 3128POPC   C3B43065   5.866  28.821   7.060
 3128POPC   C4B43066   6.132  28.996   7.406
 3129POPC   NC343067  38.273  41.306   5.270
 3129POPC   PO443068  38.480  40.734   5.272
 3129POPC   GL143069  38.482  40.691   5.754
 3129POPC   GL243070  38.335  40.376   5.876
 3129POPC   C1A43071  38.340  40.772   6.210
 3129POPC   D2A43072  37.980  40.831   6.508
 3129POPC   C3A43073  38.136  41.069   6.852
 3129POPC   C4A43074  38.420  40.956   7.185
 3129POPC   C1B43075  38.675  40.369   6.135
 3129POPC   C2B43076  38.622  40.353   6.570
 3129POPC   C3B43077  38.340  40.554   6.854
 3129POPC   C4B43078  38.360  40.439   7.288
 3130POPC   NC343079  27.225  27.914   5.297
 3130POPC   PO443080  27.742  27.678   5.256
 3130POPC   GL143081  27.587  27.676   5.694
 3130POPC   GL243082  27.241  27.548   5.643
 3130POPC   C1A43083  27.746  27.590   6.179
 3130POPC   D2A43084  27.827  27.349   6.597
 3130POPC   C3A43085  27.741  27.524   7.026
 3130POPC   C4A43086  27.716  27.937   7.258
 3130POPC   C1B43087  27.252  27.630   6.099
 3130POPC   C2B43088  27.361  27.580   6.545
 3130POPC   C3B43089  27.229  27.657   6.953
 3130POPC   C4B43090  27.220  27.898   7.305
 3131POPC   NC343091  33.923  28.760   5.427
 3131POPC   PO443092  34.169  28.222   5.386
 3131POPC   GL143093  34.122  28.429   5.811
 3131POPC   GL243094  34.261  28.772   5.820
 3131POPC   C1A43095  34.026  28.394   6.300
 3131POPC   D2A43096  34.119  28.276   6.765
 3131POPC   C3A43097  33.897  28.220   7.195
 3131POPC   C4A43098  34.113  28.213   7.611
 3131POPC   C1B43099  34.099  28.899   6.236
 3131POPC   C2B43100  34.240  28.812   6.684
 3131POPC   C3B43101  34.087  28.690   7.105
 3131POPC   C4B43102  33.627  28.664   7.217
 3132POPC   NC343103  33.365   0.638   5.464
 3132POPC   PO443104  33.087   1.314   5.387
 3132POPC   GL143105  33.173   1.300   5.815
 3132POPC   GL243106  33.508   1.444   5.799
 3132POPC   C1A43107  33.079   1.055   6.211
 3132POPC   D2A43108  32.811   1.105   6.594
 3132POPC   C3A43109  32.973   1.241   6.994
 3132POPC   C4A43110  33.008   0.988   7.381
 3132POPC   C1B43111  33.508   1.322   6.222
 3132POPC   C2B43112  33.269   1.378   6.577
 3132POPC   C3B43113  33.463   1.360   6.944
 3132POPC   C4B43114  33.348   1.392   7.363
 3133POPC   NC343115  33.261   7.157   5.325
 3133POPC   PO443116  32.889   7.712   5.424
 3133POPC   GL143117  32.943   7.445   5.761
 3133POPC   GL243118  32.788   7.166   5.625
 3133POPC   C1A43119  33.068   7.384   6.202
 3133POPC   D2A43120  32.958   7.380   6.625
 3133POPC   C3A43121  33.199   7.284   6.996
 3133POPC   C4A43122  33.212   7.505   7.401
 3133POPC   C1B43123  32.673   7.071   6.047
 3133POPC   C2B43124  32.529   7.122   6.483
 3133POPC   C3B43125  32.712   7.058   6.906
 3133POPC   C4B43126  32.768   7.319   7.255
 3134POPC   NC343127  10.570  29.020   5.289
 3134POPC   PO443128  10.332  29.649   5.462
 3134POPC   GL143129  10.429  29.297   5.779
 3134POPC   GL243130  10.780  29.134   5.764
 3134POPC   C1A43131  10.580  29.163   6.217
 3134POPC   D2A43132  10.407  29.027   6.568
 3134POPC   C3A43133  10.623  29.010   6.902
 3134POPC   C4A43134  10.532  29.100   7.289
 3134POPC   C1B43135  10.864  28.763   6.080
 3134POPC   C2B43136  10.801  28.676   6.507
 3134POPC   C3B43137  11.026  28.692   6.880
 3134POPC   C4B43138  10.843  28.701   7.270
 3135POPC   NC343139  28.462   6.518   5.458
 3135POPC   PO443140  28.145   7.111   5.478
 3135POPC   GL143141  28.445   6.926   5.778
 3135POPC   GL243142  28.219   6.664   5.881
 3135POPC   C1A43143  28.624   6.782   6.189
 3135POPC   D2A43144  28.603   6.665   6.649
 3135POPC   C3A43145  28.649   6.838   7.093
 3135POPC   C4A43146  28.618   6.533   7.448
 3135POPC   C1B43147  28.032   6.527   6.267
 3135POPC   C2B43148  28.179   6.315   6.645
 3135POPC   C3B43149  28.255   6.501   7.047
 3135POPC   C4B43150  28.000   6.773   7.321
 3136POPC   NC343151   0.286   4.299   5.557
 3136POPC   PO443152   0.869   4.652   5.577
 3136POPC   GL143153   0.619   4.500   5.908
 3136POPC   GL243154   0.603   4.143   5.908
 3136POPC   C1A43155   0.314   4.455   6.240
 3136POPC   D2A43156   0.511   4.317   6.632
 3136POPC   C3A43157   0.376   4.503   7.042
 3136POPC   C4A43158   0.443   4.503   7.543
 3136POPC   C1B43159   0.305   3.950   6.163
 3136POPC   C2B43160   0.344   3.788   6.555
 3136POPC   C3B43161   0.326   3.966   6.933
 3136POPC   C4B43162   0.342   4.069   7.337
 3137POPC   NC343163   2.427   6.313   5.360
 3137POPC   PO443164   1.859   5.903   5.308
 3137POPC   GL143165   1.933   6.098   5.729
 3137POPC   GL243166   2.182   5.913   5.880
 3137POPC   C1A43167   1.877   6.106   6.233
 3137POPC   D2A43168   1.841   5.813   6.644
 3137POPC   C3A43169   1.945   5.940   7.108
 3137POPC   C4A43170   2.325   5.986   7.434
 3137POPC   C1B43171   2.011   5.603   6.177
 3137POPC   C2B43172   2.070   5.347   6.549
 3137POPC   C3B43173   2.150   5.488   6.958
 3137POPC   C4B43174   2.100   5.529   7.403
 3138POPC   NC343175  37.315  14.038   5.687
 3138POPC   PO443176  37.819  14.328   5.455
 3138POPC   GL143177  37.720  14.366   5.859
 3138POPC   GL243178  37.403  14.544   5.829
 3138POPC   C1A43179  37.906  14.322   6.257
 3138POPC   D2A43180  37.849  14.119   6.663
 3138POPC   C3A43181  37.822  14.337   7.050
 3138POPC   C4A43182  37.432  14.341   7.218
 3138POPC   C1B43183  37.522  14.688   6.245
 3138POPC   C2B43184  37.492  14.497   6.656
 3138POPC   C3B43185  37.249  14.702   6.953
 3138POPC   C4B43186  37.369  14.847   7.311
 3139POPC   NC343187  38.629  17.183   5.594
 3139POPC   PO443188  38.377  17.771   5.430
 3139POPC   GL143189  38.211  17.671   5.847
 3139POPC   GL243190  38.150  17.301   5.822
 3139POPC   C1A43191  38.349  17.742   6.306
 3139POPC   D2A43192  38.751  17.817   6.586
 3139POPC   C3A43193  38.745  17.743   7.055
 3139POPC   C4A43194  38.345  17.711   7.308
 3139POPC   C1B43195  38.373  17.221   6.194
 3139POPC   C2B43196  38.285  17.276   6.601
 3139POPC   C3B43197  38.485  17.318   6.972
 3139POPC   C4B43198  38.546  17.240   7.394
 3140POPC   NC343199  33.138  34.293   5.078
 3140POPC   PO443200  33.330  33.633   5.196
 3140POPC   GL143201  33.210  33.729   5.619
 3140POPC   GL243202  32.907  33.553   5.747
 3140POPC   C1A43203  33.212  33.887   6.058
 3140POPC   D2A43204  33.116  33.740   6.512
 3140POPC   C3A43205  33.104  33.912   6.941
 3140POPC   C4A43206  33.076  33.841   7.390
 3140POPC   C1B43207  33.076  33.394   6.123
 3140POPC   C2B43208  33.060  33.240   6.576
 3140POPC   C3B43209  33.070  33.402   7.065
 3140POPC   C4B43210  33.128  33.363   7.577
 3141POPC   NC343211  40.356   9.410   5.559
 3141POPC   PO443212  40.511   8.877   5.480
 3141POPC   GL143213  40.692   9.078   5.855
 3141POPC   GL243214  40.805   9.425   5.837
 3141POPC   C1A43215  40.663   9.225   6.298
 3141POPC   D2A43216  40.917   9.232   6.673
 3141POPC   C3A43217  40.744   9.028   7.048
 3141POPC   C4A43218  40.491   8.779   7.353
 3141POPC   C1B43219  41.143   9.234   6.137
 3141POPC   C2B43220  41.398   9.335   6.520
 3141POPC   C3B43221  41.352   9.120   6.946
 3141POPC   C4B43222  41.139   8.850   7.313
 3142POPC   NC343223  27.477  32.795   5.239
 3142POPC   PO443224  27.757  33.448   5.240
 3142POPC   GL143225  27.686  33.174   5.626
 3142POPC   GL243226  27.674  32.806   5.750
 3142POPC   C1A43227  27.822  33.185   6.061
 3142POPC   D2A43228  27.764  33.222   6.482
 3142POPC   C3A43229  28.039  33.163   6.814
 3142POPC   C4A43230  27.808  33.147   7.200
 3142POPC   C1B43231  27.642  32.743   6.244
 3142POPC   C2B43232  27.679  32.769   6.729
 3142POPC   C3B43233  27.563  32.719   7.193
 3142POPC   C4B43234  27.314  32.965   7.541
 3143POPC   NC343235  14.362  24.144   5.466
 3143POPC   PO443236  14.662  24.760   5.280
 3143POPC   GL143237  14.535  24.591   5.683
 3143POPC   GL243238  14.170  24.529   5.783
 3143POPC   C1A43239  14.630  24.388   6.074
 3143POPC   D2A43240  14.512  24.557   6.457
 3143POPC   C3A43241  14.699  24.371   6.818
 3143POPC   C4A43242  14.728  24.529   7.212
 3143POPC   C1B43243  14.122  24.279   6.198
 3143POPC   C2B43244  14.240  24.166   6.640
 3143POPC   C3B43245  14.231  24.371   7.062
 3143POPC   C4B43246  13.850  24.380   7.324
 3144POPC   NC343247  26.293  11.496   5.454
 3144POPC   PO443248  25.712  11.073   5.463
 3144POPC   GL143249  25.942  11.281   5.793
 3144POPC   GL243250  26.233  11.087   5.759
 3144POPC   C1A43251  25.770  11.556   6.129
 3144POPC   D2A43252  25.768  11.707   6.560
 3144POPC   C3A43253  26.009  11.490   6.876
 3144POPC   C4A43254  25.877  11.440   7.283
 3144POPC   C1B43255  26.426  11.083   6.147
 3144POPC   C2B43256  26.296  11.209   6.544
 3144POPC   C3B43257  26.345  11.095   6.974
 3144POPC   C4B43258  26.263  11.138   7.384
 3145POPC   NC343259  42.514  12.354   5.498
 3145POPC   PO443260  42.200  11.759   5.423
 3145POPC   GL143261  42.327  11.998   5.793
 3145POPC   GL243262  42.688  11.963   5.787
 3145POPC   C1A43263  42.130  12.273   6.110
 3145POPC   D2A43264  42.222  12.166   6.519
 3145POPC   C3A43265  42.201  12.303   6.918
 3145POPC   C4A43266  42.164  11.979   7.175
 3145POPC   C1B43267  42.640  12.172   6.195
 3145POPC   C2B43268  42.683  11.994   6.634
 3145POPC   C3B43269  42.652  12.112   7.077
 3145POPC   C4B43270  42.824  12.452   7.302
 3146POPC   NC343271   4.555   9.080   5.426
 3146POPC   PO443272   3.928   8.792   5.374
 3146POPC   GL143273   4.099   8.984   5.740
 3146POPC   GL243274   4.108   9.335   5.767
 3146POPC   C1A43275   4.233   8.962   6.166
 3146POPC   D2A43276   4.108   8.776   6.546
 3146POPC   C3A43277   4.202   8.985   6.899
 3146POPC   C4A43278   4.303   8.922   7.332
 3146POPC   C1B43279   4.257   9.466   6.191
 3146POPC   C2B43280   4.479   9.280   6.557
 3146POPC   C3B43281   4.582   9.316   7.016
 3146POPC   C4B43282   4.533   9.333   7.480
 3147POPC   NC343283  28.124  34.298   5.457
 3147POPC   PO443284  27.961  34.987   5.449
 3147POPC   GL143285  28.083  34.714   5.784
 3147POPC   GL243286  28.424  34.621   5.749
 3147POPC   C1A43287  28.035  34.699   6.218
 3147POPC   D2A43288  28.110  34.321   6.458
 3147POPC   C3A43289  28.043  34.471   6.836
 3147POPC   C4A43290  28.108  34.480   7.233
 3147POPC   C1B43291  28.508  34.518   6.179
 3147POPC   C2B43292  28.425  34.715   6.584
 3147POPC   C3B43293  28.542  34.553   7.002
 3147POPC   C4B43294  28.547  34.174   7.292
 3148POPC   NC343295  31.646   8.122   5.635
 3148POPC   PO443296  30.992   8.205   5.510
 3148POPC   GL143297  31.209   8.003   5.855
 3148POPC   GL243298  31.298   8.346   5.945
 3148POPC   C1A43299  31.486   8.021   6.270
 3148POPC   D2A43300  31.507   8.224   6.688
 3148POPC   C3A43301  31.506   7.975   7.015
 3148POPC   C4A43302  31.184   7.737   7.191
 3148POPC   C1B43303  31.535   8.538   6.286
 3148POPC   C2B43304  31.811   8.623   6.657
 3148POPC   C3B43305  31.723   8.576   7.084
 3148POPC   C4B43306  31.388   8.348   7.334
 3149POPC   NC343307  29.286   4.980   5.343
 3149POPC   PO443308  28.772   5.309   5.671
 3149POPC   GL143309  29.098   5.107   5.890
 3149POPC   GL243310  29.343   5.384   5.809
 3149POPC   C1A43311  29.064   5.002   6.358
 3149POPC   D2A43312  29.354   4.866   6.697
 3149POPC   C3A43313  29.153   4.846   7.108
 3149POPC   C4A43314  28.731   4.689   7.191
 3149POPC   C1B43315  29.184   5.483   6.252
 3149POPC   C2B43316  29.241   5.379   6.714
 3149POPC   C3B43317  29.221   5.344   7.167
 3149POPC   C4B43318  29.357   5.408   7.581
 3150POPC   NC343319  36.974  41.320   5.389
 3150POPC   PO443320  37.064  41.951   5.696
 3150POPC   GL143321  36.935  41.566   5.852
 3150POPC   GL243322  37.193  41.284   5.851
 3150POPC   C1A43323  36.784  41.643   6.269
 3150POPC   D2A43324  36.559  41.567   6.635
 3150POPC   C3A43325  36.765  41.604   6.998
 3150POPC   C4A43326  36.653  41.756   7.344
 3150POPC   C1B43327  37.300  41.544   6.219
 3150POPC   C2B43328  37.170  41.559   6.645
 3150POPC   C3B43329  37.274  41.468   7.057
 3150POPC   C4B43330  37.066  41.470   7.422
 3151POPC   NC343331   8.322  26.955   5.534
 3151POPC   PO443332   8.419  26.289   5.471
 3151POPC   GL143333   8.251  26.522   5.881
 3151POPC   GL243334   8.144  26.872   5.982
 3151POPC   C1A43335   8.245  26.541   6.358
 3151POPC   D2A43336   8.199  26.826   6.719
 3151POPC   C3A43337   8.277  26.707   7.127
 3151POPC   C4A43338   8.228  26.540   7.560
 3151POPC   C1B43339   8.092  27.150   6.327
 3151POPC   C2B43340   8.133  27.386   6.699
 3151POPC   C3B43341   8.263  27.237   7.132
 3151POPC   C4B43342   8.094  27.006   7.501
 3152POPC   NC343343  38.066  43.254   5.453
 3152POPC   PO443344  37.434  43.161   5.213
 3152POPC   GL143345  37.551  43.149   5.643
 3152POPC   GL243346  37.277  43.225   5.858
 3152POPC   C1A43347  37.760  43.212   6.039
 3152POPC   D2A43348  37.727  43.361   6.462
 3152POPC   C3A43349  37.608  43.065   6.775
 3152POPC   C4A43350  37.621  43.162   7.197
 3152POPC   C1B43351  37.296  43.126   6.308
 3152POPC   C2B43352  37.137  42.865   6.649
 3152POPC   C3B43353  37.232  42.852   7.076
 3152POPC   C4B43354  37.243  43.005   7.498
 3153POPC   NC343355  12.298  43.784   5.070
 3153POPC   PO443356  11.848  44.162   5.457
 3153POPC   GL143357  12.259  44.194   5.676
 3153POPC   GL243358  12.361  43.845   5.657
 3153POPC   C1A43359  12.367  44.263   6.105
 3153POPC   D2A43360  12.156  44.107   6.494
 3153POPC   C3A43361  12.306  44.182   6.923
 3153POPC   C4A43362  12.180  44.085   7.373
 3153POPC   C1B43363  12.016  43.811   6.011
 3153POPC   C2B43364  11.837  43.667   6.437
 3153POPC   C3B43365  11.998  43.726   6.864
 3153POPC   C4B43366  11.899  43.595   7.269
 3154POPC   NC343367   5.455  32.075   5.353
 3154POPC   PO443368   4.824  32.355   5.437
 3154POPC   GL143369   4.881  32.069   5.770
 3154POPC   GL243370   5.207  32.170   5.786
 3154POPC   C1A43371   4.978  32.011   6.207
 3154POPC   D2A43372   4.975  32.249   6.537
 3154POPC   C3A43373   4.944  32.078   6.900
 3154POPC   C4A43374   4.797  32.251   7.280
 3154POPC   C1B43375   5.377  32.336   6.153
 3154POPC   C2B43376   5.340  32.593   6.478
 3154POPC   C3B43377   5.471  32.468   6.860
 3154POPC   C4B43378   5.298  32.277   7.182
 3155POPC   NC343379   7.047  34.373   5.824
 3155POPC   PO443380   6.683  34.512   5.292
 3155POPC   GL143381   6.525  34.690   5.700
 3155POPC   GL243382   6.510  34.397   5.926
 3155POPC   C1A43383   6.440  34.867   6.138
 3155POPC   D2A43384   6.342  34.609   6.512
 3155POPC   C3A43385   6.491  34.643   6.942
 3155POPC   C4A43386   6.888  34.803   7.127
 3155POPC   C1B43387   6.647  34.113   6.288
 3155POPC   C2B43388   6.723  34.229   6.714
 3155POPC   C3B43389   6.900  34.293   7.133
 3155POPC   C4B43390   6.711  34.203   7.539
 3156POPC   NC343391  13.042  11.018   5.573
 3156POPC   PO443392  12.652  11.445   5.215
 3156POPC   GL143393  12.771  11.427   5.749
 3156POPC   GL243394  13.079  11.410   5.905
 3156POPC   C1A43395  12.722  11.535   6.250
 3156POPC   D2A43396  12.493  11.521   6.698
 3156POPC   C3A43397  12.717  11.254   6.990
 3156POPC   C4A43398  12.986  11.543   7.195
 3156POPC   C1B43399  12.854  11.048   6.176
 3156POPC   C2B43400  12.930  10.922   6.593
 3156POPC   C3B43401  13.150  10.953   6.986
 3156POPC   C4B43402  13.086  11.103   7.417
 3157POPC   NC343403  36.648  11.952   5.521
 3157POPC   PO443404  37.323  11.979   5.484
 3157POPC   GL143405  37.066  12.077   5.824
 3157POPC   GL243406  37.011  11.736   5.874
 3157POPC   C1A43407  36.849  12.236   6.200
 3157POPC   D2A43408  37.089  12.306   6.576
 3157POPC   C3A43409  36.868  12.267   6.959
 3157POPC   C4A43410  36.953  12.145   7.340
 3157POPC   C1B43411  37.188  11.861   6.294
 3157POPC   C2B43412  37.319  11.710   6.678
 3157POPC   C3B43413  37.021  11.718   7.005
 3157POPC   C4B43414  36.840  11.657   7.398
 3158POPC   NC343415  35.238  31.658   5.080
 3158POPC   PO443416  35.505  31.150   5.454
 3158POPC   GL143417  35.443  31.473   5.774
 3158POPC   GL243418  35.160  31.646   5.681
 3158POPC   C1A43419  35.583  31.632   6.188
 3158POPC   D2A43420  35.678  31.572   6.628
 3158POPC   C3A43421  35.328  31.414   6.916
 3158POPC   C4A43422  35.318  31.530   7.367
 3158POPC   C1B43423  35.077  31.420   6.126
 3158POPC   C2B43424  34.809  31.420   6.509
 3158POPC   C3B43425  34.820  31.565   6.942
 3158POPC   C4B43426  34.914  31.238   7.220
 3159POPC   NC343427  41.213  40.254   5.471
 3159POPC   PO443428  41.808  39.941   5.660
 3159POPC   GL143429  41.423  39.767   5.824
 3159POPC   GL243430  41.297  40.092   5.951
 3159POPC   C1A43431  41.426  39.687   6.270
 3159POPC   D2A43432  41.766  39.893   6.520
 3159POPC   C3A43433  41.796  39.707   6.915
 3159POPC   C4A43434  41.616  39.854   7.286
 3159POPC   C1B43435  41.308  40.481   6.210
 3159POPC   C2B43436  41.460  40.534   6.651
 3159POPC   C3B43437  41.419  40.160   6.914
 3159POPC   C4B43438  41.198  40.150   7.312
 3160POPC   NC343439  27.662  31.818   5.687
 3160POPC   PO443440  27.449  31.354   5.312
 3160POPC   GL143441  27.405  31.385   5.805
 3160POPC   GL243442  27.308  31.689   6.024
 3160POPC   C1A43443  27.579  31.287   6.230
 3160POPC   D2A43444  27.683  31.467   6.637
 3160POPC   C3A43445  27.422  31.578   6.957
 3160POPC   C4A43446  27.541  31.289   7.270
 3160POPC   C1B43447  27.628  31.850   6.305
 3160POPC   C2B43448  27.994  31.862   6.521
 3160POPC   C3B43449  27.849  31.859   6.932
 3160POPC   C4B43450  27.984  31.585   7.195
 3161POPC   NC343451  34.086  34.066   5.302
 3161POPC   PO443452  34.669  34.328   5.380
 3161POPC   GL143453  34.857  34.271   5.809
 3161POPC   GL243454  34.932  33.934   5.886
 3161POPC   C1A43455  34.881  34.401   6.285
 3161POPC   D2A43456  35.008  34.633   6.695
 3161POPC   C3A43457  34.763  34.653   7.097
 3161POPC   C4A43458  34.346  34.709   7.298
 3161POPC   C1B43459  34.900  33.880   6.344
 3161POPC   C2B43460  34.950  34.125   6.727
 3161POPC   C3B43461  34.717  34.142   7.119
 3161POPC   C4B43462  34.701  34.376   7.530
 3162POPC   NC343463  24.171  40.159   5.499
 3162POPC   PO443464  24.844  40.167   5.447
 3162POPC   GL143465  24.560  39.977   5.790
 3162POPC   GL243466  24.235  39.738   5.756
 3162POPC   C1A43467  24.766  39.986   6.200
 3162POPC   D2A43468  24.909  40.236   6.534
 3162POPC   C3A43469  24.770  40.045   6.904
 3162POPC   C4A43470  24.646  39.975   7.325
 3162POPC   C1B43471  24.370  39.667   6.178
 3162POPC   C2B43472  24.236  39.685   6.586
 3162POPC   C3B43473  24.280  39.846   6.970
 3162POPC   C4B43474  24.156  39.656   7.336
 3163POPC   NC343475  35.733  20.572   5.319
 3163POPC   PO443476  35.202  20.205   5.284
 3163POPC   GL143477  35.325  20.521   5.673
 3163POPC   GL243478  35.552  20.857   5.701
 3163POPC   C1A43479  35.180  20.705   6.102
 3163POPC   D2A43480  34.965  20.722   6.531
 3163POPC   C3A43481  35.169  20.621   6.932
 3163POPC   C4A43482  35.126  20.424   7.362
 3163POPC   C1B43483  35.692  20.595   6.036
 3163POPC   C2B43484  35.517  20.552   6.472
 3163POPC   C3B43485  35.657  20.777   6.853
 3163POPC   C4B43486  35.596  20.596   7.252
 3164POPC   NC343487  39.155  30.818   5.414
 3164POPC   PO443488  39.085  30.235   5.281
 3164POPC   GL143489  39.110  30.461   5.750
 3164POPC   GL243490  39.256  30.780   5.906
 3164POPC   C1A43491  38.970  30.498   6.236
 3164POPC   D2A43492  39.029  30.786   6.602
 3164POPC   C3A43493  39.019  30.656   7.071
 3164POPC   C4A43494  38.723  30.574   7.410
 3164POPC   C1B43495  39.487  30.882   6.266
 3164POPC   C2B43496  39.661  30.856   6.682
 3164POPC   C3B43497  39.486  30.836   7.099
 3164POPC   C4B43498  39.552  30.687   7.512
 3165POPC   NC343499  37.448   8.276   5.457
 3165POPC   PO443500  36.984   7.931   5.601
 3165POPC   GL143501  37.300   8.111   5.918
 3165POPC   GL243502  37.428   8.470   5.927
 3165POPC   C1A43503  37.532   8.150   6.302
 3165POPC   D2A43504  37.345   8.331   6.658
 3165POPC   C3A43505  37.502   8.329   7.105
 3165POPC   C4A43506  37.506   8.584   7.490
 3165POPC   C1B43507  37.586   8.682   6.319
 3165POPC   C2B43508  37.755   8.639   6.744
 3165POPC   C3B43509  37.967   8.583   7.150
 3165POPC   C4B43510  37.948   8.306   7.520
 3166POPC   NC343511   0.832  13.568   5.187
 3166POPC   PO443512   1.333  13.350   5.556
 3166POPC   GL143513   1.180  13.693   5.845
 3166POPC   GL243514   1.449  13.945   5.921
 3166POPC   C1A43515   1.032  13.717   6.297
 3166POPC   D2A43516   0.697  13.682   6.654
 3166POPC   C3A43517   0.893  13.517   7.037
 3166POPC   C4A43518   1.255  13.701   7.196
 3166POPC   C1B43519   1.558  13.627   6.221
 3166POPC   C2B43520   1.389  13.570   6.649
 3166POPC   C3B43521   1.580  13.368   6.981
 3166POPC   C4B43522   1.616  13.364   7.400
 3167POPC   NC343523  15.370  26.847   5.255
 3167POPC   PO443524  16.019  26.641   5.403
 3167POPC   GL143525  15.937  26.668   5.811
 3167POPC   GL243526  15.608  26.710   5.688
 3167POPC   C1A43527  16.071  26.889   6.188
 3167POPC   D2A43528  16.284  26.894   6.589
 3167POPC   C3A43529  16.052  26.983   6.958
 3167POPC   C4A43530  16.160  27.012   7.396
 3167POPC   C1B43531  15.499  26.740   6.099
 3167POPC   C2B43532  15.688  26.683   6.524
 3167POPC   C3B43533  15.622  26.570   6.963
 3167POPC   C4B43534  15.704  26.823   7.313
 3168POPC   NC343535  28.377  31.541   5.378
 3168POPC   PO443536  28.992  31.793   5.238
 3168POPC   GL143537  28.756  31.785   5.726
 3168POPC   GL243538  28.394  31.671   5.858
 3168POPC   C1A43539  28.747  31.562   6.184
 3168POPC   D2A43540  28.410  31.533   6.487
 3168POPC   C3A43541  28.434  31.401   6.909
 3168POPC   C4A43542  28.473  31.633   7.268
 3168POPC   C1B43543  28.075  31.420   6.116
 3168POPC   C2B43544  28.057  31.164   6.519
 3168POPC   C3B43545  27.949  31.149   6.962
 3168POPC   C4B43546  28.213  31.170   7.358
 3169POPC   NC343547  18.342   9.809   5.085
 3169POPC   PO443548  18.082   9.403   5.545
 3169POPC   GL143549  18.360   9.653   5.758
 3169POPC   GL243550  18.488   9.429   6.014
 3169POPC   C1A43551  18.455   9.938   6.090
 3169POPC   D2A43552  18.566  10.162   6.448
 3169POPC   C3A43553  18.426   9.989   6.852
 3169POPC   C4A43554  18.217  10.041   7.259
 3169POPC   C1B43555  18.307   9.231   6.401
 3169POPC   C2B43556  18.334   9.433   6.809
 3169POPC   C3B43557  18.655   9.572   7.085
 3169POPC   C4B43558  18.536   9.682   7.470
 3170POPC   NC343559  29.348   2.601   5.319
 3170POPC   PO443560  28.814   2.891   5.495
 3170POPC   GL143561  28.983   2.737   5.885
 3170POPC   GL243562  29.288   2.541   5.850
 3170POPC   C1A43563  29.182   2.763   6.319
 3170POPC   D2A43564  29.444   2.583   6.676
 3170POPC   C3A43565  29.382   2.863   7.032
 3170POPC   C4A43566  28.954   2.930   7.164
 3170POPC   C1B43567  28.936   2.325   6.147
 3170POPC   C2B43568  28.826   2.222   6.556
 3170POPC   C3B43569  28.968   2.513   6.869
 3170POPC   C4B43570  29.259   2.397   7.187
 3171POPC   NC343571   7.463  30.371   5.346
 3171POPC   PO443572   7.443  29.739   5.202
 3171POPC   GL143573   7.559  29.826   5.670
 3171POPC   GL243574   7.625  29.503   5.693
 3171POPC   C1A43575   7.490  30.043   6.127
 3171POPC   D2A43576   7.095  30.053   6.442
 3171POPC   C3A43577   7.142  30.123   6.915
 3171POPC   C4A43578   7.485  30.166   7.235
 3171POPC   C1B43579   7.680  29.565   6.118
 3171POPC   C2B43580   7.466  29.666   6.489
 3171POPC   C3B43581   7.559  29.838   6.865
 3171POPC   C4B43582   7.497  29.659   7.298
 3172POPC   NC343583   1.924  34.195   5.564
 3172POPC   PO443584   1.626  33.541   5.417
 3172POPC   GL143585   1.804  33.649   5.810
 3172POPC   GL243586   1.755  33.297   5.856
 3172POPC   C1A43587   2.018  33.858   6.208
 3172POPC   D2A43588   2.150  33.728   6.604
 3172POPC   C3A43589   2.075  34.035   6.868
 3172POPC   C4A43590   2.169  33.959   7.246
 3172POPC   C1B43591   1.866  33.392   6.258
 3172POPC   C2B43592   1.661  33.547   6.609
 3172POPC   C3B43593   1.809  33.600   7.004
 3172POPC   C4B43594   2.189  33.467   7.123
 3173POPC   NC343595  28.624   7.263   5.415
 3173POPC   PO443596  28.110   7.639   5.161
 3173POPC   GL143597  28.280   7.585   5.606
 3173POPC   GL243598  28.201   7.827   5.764
 3173POPC   C1A43599  28.440   7.381   6.038
 3173POPC   D2A43600  28.633   7.241   6.445
 3173POPC   C3A43601  28.369   7.179   6.823
 3173POPC   C4A43602  28.161   7.233   7.237
 3173POPC   C1B43603  28.466   7.886   6.099
 3173POPC   C2B43604  28.406   7.735   6.525
 3173POPC   C3B43605  28.484   7.661   6.951
 3173POPC   C4B43606  28.356   7.713   7.332
 3174POPC   NC343607  35.376  16.135   5.505
 3174POPC   PO443608  35.859  15.658   5.542
 3174POPC   GL143609  35.567  15.726   5.895
 3174POPC   GL243610  35.533  16.102   5.989
 3174POPC   C1A43611  35.618  15.741   6.362
 3174POPC   D2A43612  35.566  16.058   6.702
 3174POPC   C3A43613  35.364  15.974   7.105
 3174POPC   C4A43614  35.385  15.793   7.507
 3174POPC   C1B43615  35.106  16.308   6.081
 3174POPC   C2B43616  34.966  16.234   6.478
 3174POPC   C3B43617  35.097  16.314   6.856
 3174POPC   C4B43618  35.003  16.307   7.269
 3175POPC   NC343619   8.863  44.822   5.302
 3175POPC   PO443620   9.206  44.308   5.426
 3175POPC   GL143621   8.955  44.547   5.740
 3175POPC   GL243622   9.071  44.919   5.778
 3175POPC   C1A43623   8.928  44.651   6.192
 3175POPC   D2A43624   9.131  44.798   6.590
 3175POPC   C3A43625   8.908  44.766   6.997
 3175POPC   C4A43626   8.806  44.403   7.239
 3175POPC   C1B43627   9.332   0.062   6.149
 3175POPC   C2B43628   9.612  44.975   6.523
 3175POPC   C3B43629   9.543  44.815   6.951
 3175POPC   C4B43630   9.295   0.002   7.267
 3176POPC   NC343631   6.069   2.731   5.410
 3176POPC   PO443632   5.404   2.784   5.278
 3176POPC   GL143633   5.652   2.834   5.688
 3176POPC   GL243634   5.571   2.476   5.769
 3176POPC   C1A43635   5.976   2.737   6.056
 3176POPC   D2A43636   6.206   2.562   6.418
 3176POPC   C3A43637   6.137   2.805   6.791
 3176POPC   C4A43638   6.033   2.753   7.229
 3176POPC   C1B43639   5.479   2.734   6.156
 3176POPC   C2B43640   5.693   2.695   6.529
 3176POPC   C3B43641   5.748   2.454   6.893
 3176POPC   C4B43642   5.567   2.561   7.312
 3177POPC   NC343643   8.905  34.092   5.422
 3177POPC   PO443644   9.026  33.523   5.297
 3177POPC   GL143645   8.817  33.625   5.759
 3177POPC   GL243646   8.709  33.954   5.869
 3177POPC   C1A43647   8.895  33.671   6.272
 3177POPC   D2A43648   9.025  33.449   6.663
 3177POPC   C3A43649   8.928  33.644   7.055
 3177POPC   C4A43650   9.009  34.045   7.223
 3177POPC   C1B43651   8.485  33.951   6.277
 3177POPC   C2B43652   8.525  33.698   6.686
 3177POPC   C3B43653   8.511  33.916   7.096
 3177POPC   C4B43654   8.585  34.207   7.469
 3178POPC   NC343655  13.162  41.486   5.476
 3178POPC   PO443656  12.613  41.141   5.279
 3178POPC   GL143657  12.658  41.455   5.622
 3178POPC   GL243658  12.354  41.528   5.761
 3178POPC   C1A43659  12.763  41.641   6.053
 3178POPC   D2A43660  13.034  41.467   6.379
 3178POPC   C3A43661  13.057  41.452   6.840
 3178POPC   C4A43662  13.050  41.675   7.236
 3178POPC   C1B43663  12.357  41.354   6.212
 3178POPC   C2B43664  12.558  41.433   6.658
 3178POPC   C3B43665  12.568  41.535   7.130
 3178POPC   C4B43666  12.680  41.472   7.583
 3179POPC   NC343667   0.524  37.995   5.274
 3179POPC   PO443668   0.173  37.493   5.171
 3179POPC   GL143669   0.335  37.649   5.641
 3179POPC   GL243670   0.719  37.635   5.598
 3179POPC   C1A43671   0.329  37.682   6.164
 3179POPC   D2A43672   0.137  37.525   6.595
 3179POPC   C3A43673   0.141  37.735   7.010
 3179POPC   C4A43674   0.212  38.022   7.363
 3179POPC   C1B43675   0.834  37.730   6.015
 3179POPC   C2B43676   0.861  37.737   6.452
 3179POPC   C3B43677   0.595  37.801   6.781
 3179POPC   C4B43678   0.644  37.761   7.226
 3180POPC   NC343679  16.632  27.572   5.334
 3180POPC   PO443680  16.809  28.113   5.400
 3180POPC   GL143681  16.779  27.826   5.791
 3180POPC   GL243682  16.528  27.533   5.835
 3180POPC   C1A43683  16.833  27.643   6.223
 3180POPC   D2A43684  16.945  27.800   6.619
 3180POPC   C3A43685  16.672  27.656   6.963
 3180POPC   C4A43686  16.469  27.900   7.287
 3180POPC   C1B43687  16.491  27.252   6.196
 3180POPC   C2B43688  16.563  27.318   6.595
 3180POPC   C3B43689  16.544  27.159   7.021
 3180POPC   C4B43690  16.572  27.290   7.466
 3181POPC   NC343691  35.925  25.306   5.384
 3181POPC   PO443692  36.574  25.071   5.420
 3181POPC   GL143693  36.368  25.109   5.849
 3181POPC   GL243694  36.005  25.121   5.841
 3181POPC   C1A43695  36.192  25.301   6.274
 3181POPC   D2A43696  36.206  25.645   6.597
 3181POPC   C3A43697  35.999  25.578   6.984
 3181POPC   C4A43698  35.936  25.170   7.171
 3181POPC   C1B43699  36.080  24.800   6.150
 3181POPC   C2B43700  36.166  24.665   6.569
 3181POPC   C3B43701  36.321  24.909   6.900
 3181POPC   C4B43702  36.344  24.919   7.332
 3182POPC   NC343703  22.994  19.980   5.408
 3182POPC   PO443704  22.351  19.540   5.510
 3182POPC   GL143705  22.638  19.828   5.758
 3182POPC   GL243706  22.984  19.760   5.843
 3182POPC   C1A43707  22.618  19.930   6.185
 3182POPC   D2A43708  22.772  19.719   6.554
 3182POPC   C3A43709  22.888  19.945   6.920
 3182POPC   C4A43710  22.612  19.980   7.297
 3182POPC   C1B43711  23.139  19.884   6.195
 3182POPC   C2B43712  23.289  19.643   6.509
 3182POPC   C3B43713  23.124  19.472   6.888
 3182POPC   C4B43714  23.161  19.672   7.258
 3183POPC   NC343715  20.025  28.992   5.277
 3183POPC   PO443716  19.703  29.588   5.359
 3183POPC   GL143717  19.799  29.234   5.661
 3183POPC   GL243718  20.166  29.159   5.755
 3183POPC   C1A43719  19.829  29.223   6.135
 3183POPC   D2A43720  19.681  29.237   6.561
 3183POPC   C3A43721  19.829  28.952   6.878
 3183POPC   C4A43722  19.734  28.785   7.275
 3183POPC   C1B43723  20.313  29.357   6.177
 3183POPC   C2B43724  20.200  29.282   6.598
 3183POPC   C3B43725  20.058  29.384   7.004
 3183POPC   C4B43726  20.169  29.076   7.279
 3184POPC   NC343727  27.326  20.011   5.260
 3184POPC   PO443728  27.885  19.659   5.058
 3184POPC   GL143729  27.708  19.629   5.553
 3184POPC   GL243730  27.509  19.288   5.687
 3184POPC   C1A43731  27.726  19.770   6.033
 3184POPC   D2A43732  27.853  19.992   6.454
 3184POPC   C3A43733  27.698  19.792   6.819
 3184POPC   C4A43734  27.551  19.932   7.206
 3184POPC   C1B43735  27.356  19.416   6.085
 3184POPC   C2B43736  27.374  19.573   6.496
 3184POPC   C3B43737  27.314  19.459   6.947
 3184POPC   C4B43738  27.542  19.396   7.286
 3185POPC   NC343739  10.366  19.957   5.365
 3185POPC   PO443740  10.953  20.073   5.354
 3185POPC   GL143741  10.741  19.854   5.747
 3185POPC   GL243742  10.957  19.562   5.863
 3185POPC   C1A43743  10.470  19.969   6.160
 3185POPC   D2A43744  10.198  20.099   6.565
 3185POPC   C3A43745  10.311  19.996   7.022
 3185POPC   C4A43746  10.704  20.077   7.228
 3185POPC   C1B43747  10.907  19.763   6.273
 3185POPC   C2B43748  10.682  19.865   6.656
 3185POPC   C3B43749  10.712  19.628   7.034
 3185POPC   C4B43750  10.929  19.677   7.422
 3186POPC   NC343751  31.396  11.775   5.470
 3186POPC   PO443752  31.360  11.218   5.443
 3186POPC   GL143753  31.358  11.288   5.889
 3186POPC   GL243754  31.541  11.589   5.959
 3186POPC   C1A43755  31.255  11.303   6.343
 3186POPC   D2A43756  31.245  11.475   6.766
 3186POPC   C3A43757  31.429  11.192   7.054
 3186POPC   C4A43758  31.447  10.869   7.390
 3186POPC   C1B43759  31.572  11.707   6.415
 3186POPC   C2B43760  31.724  11.594   6.849
 3186POPC   C3B43761  31.523  11.673   7.262
 3186POPC   C4B43762  31.620  11.645   7.720
 3187POPC   NC343763  29.474  22.200   5.347
 3187POPC   PO443764  28.894  21.914   5.338
 3187POPC   GL143765  29.083  22.054   5.717
 3187POPC   GL243766  29.080  22.383   5.742
 3187POPC   C1A43767  29.250  22.003   6.160
 3187POPC   D2A43768  29.396  21.781   6.545
 3187POPC   C3A43769  29.116  21.871   6.888
 3187POPC   C4A43770  29.022  21.931   7.348
 3187POPC   C1B43771  29.134  22.489   6.194
 3187POPC   C2B43772  28.992  22.321   6.616
 3187POPC   C3B43773  29.208  22.368   7.025
 3187POPC   C4B43774  29.008  22.445   7.420
 3188POPC   NC343775  27.408  34.990   5.365
 3188POPC   PO443776  27.299  34.282   5.274
 3188POPC   GL143777  27.623  34.343   5.639
 3188POPC   GL243778  27.568  34.692   5.771
 3188POPC   C1A43779  27.709  34.327   6.106
 3188POPC   D2A43780  27.639  34.518   6.522
 3188POPC   C3A43781  27.534  34.375   6.923
 3188POPC   C4A43782  27.626  34.357   7.382
 3188POPC   C1B43783  27.543  34.881   6.193
 3188POPC   C2B43784  27.257  34.855   6.580
 3188POPC   C3B43785  27.344  34.845   7.011
 3188POPC   C4B43786  27.729  34.792   7.129
 3189POPC   NC343787  10.754  40.214   5.523
 3189POPC   PO443788  10.248  39.788   5.648
 3189POPC   GL143789  10.379  40.115   5.872
 3189POPC   GL243790  10.070  40.290   5.810
 3189POPC   C1A43791  10.602  40.093   6.256
 3189POPC   D2A43792  10.683  39.815   6.595
 3189POPC   C3A43793  10.703  40.069   6.949
 3189POPC   C4A43794  10.735  39.869   7.340
 3189POPC   C1B43795  10.017  40.148   6.249
 3189POPC   C2B43796  10.208  40.012   6.637
 3189POPC   C3B43797  10.234  39.920   7.090
 3189POPC   C4B43798  10.375  40.187   7.454
 3190POPC   NC343799  13.928  11.362   5.516
 3190POPC   PO443800  13.422  10.856   5.370
 3190POPC   GL143801  13.496  11.098   5.773
 3190POPC   GL243802  13.588  11.404   5.918
 3190POPC   C1A43803  13.373  11.109   6.245
 3190POPC   D2A43804  13.549  11.297   6.600
 3190POPC   C3A43805  13.720  11.081   6.932
 3190POPC   C4A43806  13.570  11.125   7.319
 3190POPC   C1B43807  13.515  11.719   6.248
 3190POPC   C2B43808  13.613  11.789   6.695
 3190POPC   C3B43809  13.521  11.584   7.087
 3190POPC   C4B43810  13.814  11.565   7.456
 3191POPC   NC343811  16.427  37.628   5.518
 3191POPC   PO443812  16.949  37.940   5.525
 3191POPC   GL143813  16.748  37.787   5.904
 3191POPC   GL243814  16.383  37.873   5.964
 3191POPC   C1A43815  16.708  37.905   6.353
 3191POPC   D2A43816  16.566  37.876   6.771
 3191POPC   C3A43817  16.920  38.012   7.049
 3191POPC   C4A43818  17.213  37.994   7.412
 3191POPC   C1B43819  16.496  37.453   6.202
 3191POPC   C2B43820  16.288  37.246   6.581
 3191POPC   C3B43821  16.395  37.281   7.009
 3191POPC   C4B43822  16.683  37.575   7.158
 3192POPC   NC343823  25.890  12.634   5.412
 3192POPC   PO443824  26.417  12.973   5.474
 3192POPC   GL143825  26.080  12.981   5.774
 3192POPC   GL243826  25.953  12.671   5.905
 3192POPC   C1A43827  26.151  13.027   6.207
 3192POPC   D2A43828  26.044  13.175   6.580
 3192POPC   C3A43829  26.152  12.946   6.898
 3192POPC   C4A43830  26.154  12.892   7.328
 3192POPC   C1B43831  25.945  12.535   6.289
 3192POPC   C2B43832  26.156  12.479   6.663
 3192POPC   C3B43833  25.991  12.483   7.060
 3192POPC   C4B43834  25.648  12.695   7.293
 3193POPC   NC343835  18.485  10.752   4.961
 3193POPC   PO443836  18.494  10.155   5.355
 3193POPC   GL143837  18.397  10.314   5.766
 3193POPC   GL243838  18.701  10.440   5.829
 3193POPC   C1A43839  18.181  10.404   6.164
 3193POPC   D2A43840  18.041  10.285   6.587
 3193POPC   C3A43841  18.232  10.483   6.952
 3193POPC   C4A43842  18.027  10.629   7.321
 3193POPC   C1B43843  18.615  10.688   6.209
 3193POPC   C2B43844  18.645  10.617   6.648
 3193POPC   C3B43845  18.608  10.859   6.989
 3193POPC   C4B43846  18.498  10.774   7.378
 3194POPC   NC343847  21.720  11.702   5.377
 3194POPC   PO443848  21.235  12.199   5.382
 3194POPC   GL143849  21.548  12.132   5.700
 3194POPC   GL243850  21.797  12.369   5.640
 3194POPC   C1A43851  21.516  12.070   6.146
 3194POPC   D2A43852  21.304  11.825   6.461
 3194POPC   C3A43853  21.302  12.028   6.867
 3194POPC   C4A43854  21.182  11.869   7.246
 3194POPC   C1B43855  21.658  12.553   6.042
 3194POPC   C2B43856  21.606  12.450   6.476
 3194POPC   C3B43857  21.660  12.415   6.908
 3194POPC   C4B43858  21.626  12.193   7.271
 3195POPC   NC343859  38.365   8.670   5.520
 3195POPC   PO443860  38.246   9.258   5.527
 3195POPC   GL143861  38.451   9.121   5.876
 3195POPC   GL243862  38.233   8.864   5.986
 3195POPC   C1A43863  38.458   9.144   6.339
 3195POPC   D2A43864  38.156   8.923   6.601
 3195POPC   C3A43865  38.320   8.970   6.992
 3195POPC   C4A43866  38.618   9.311   6.968
 3195POPC   C1B43867  37.974   9.204   6.189
 3195POPC   C2B43868  37.699   9.176   6.571
 3195POPC   C3B43869  37.809   9.071   7.016
 3195POPC   C4B43870  37.861   8.964   7.472
 3196POPC   NC343871  25.946  32.793   5.538
 3196POPC   PO443872  26.188  33.407   5.438
 3196POPC   GL143873  26.102  33.189   5.833
 3196POPC   GL243874  26.380  32.954   5.823
 3196POPC   C1A43875  25.802  32.950   6.146
 3196POPC   D2A43876  25.692  32.826   6.580
 3196POPC   C3A43877  25.860  33.060   6.943
 3196POPC   C4A43878  25.979  33.060   7.389
 3196POPC   C1B43879  26.300  32.920   6.266
 3196POPC   C2B43880  26.208  32.773   6.686
 3196POPC   C3B43881  26.303  32.788   7.129
 3196POPC   C4B43882  26.295  32.687   7.577
 3197POPC   NC343883  19.909   1.441   5.385
 3197POPC   PO443884  19.467   1.036   5.542
 3197POPC   GL143885  19.640   1.378   5.814
 3197POPC   GL243886  20.026   1.376   5.906
 3197POPC   C1A43887  19.560   1.337   6.225
 3197POPC   D2A43888  19.725   1.135   6.594
 3197POPC   C3A43889  19.524   1.220   6.977
 3197POPC   C4A43890  19.627   1.108   7.413
 3197POPC   C1B43891  20.094   1.435   6.374
 3197POPC   C2B43892  20.151   1.328   6.814
 3197POPC   C3B43893  20.083   1.054   7.171
 3197POPC   C4B43894  20.068   1.220   7.621
 3198POPC   NC343895   6.281   4.975   5.347
 3198POPC   PO443896   5.697   5.338   5.342
 3198POPC   GL143897   5.818   5.053   5.649
 3198POPC   GL243898   6.098   5.239   5.747
 3198POPC   C1A43899   5.723   5.027   6.086
 3198POPC   D2A43900   5.889   5.110   6.499
 3198POPC   C3A43901   5.735   4.893   6.872
 3198POPC   C4A43902   5.736   5.045   7.290
 3198POPC   C1B43903   6.074   5.465   6.135
 3198POPC   C2B43904   5.967   5.634   6.547
 3198POPC   C3B43905   5.791   5.477   6.933
 3198POPC   C4B43906   5.981   5.523   7.335
 3199POPC   NC343907  28.757  32.976   5.313
 3199POPC   PO443908  29.199  33.487   5.428
 3199POPC   GL143909  29.107  33.175   5.812
 3199POPC   GL243910  28.781  32.971   5.835
 3199POPC   C1A43911  29.122  32.898   6.216
 3199POPC   D2A43912  29.293  32.648   6.597
 3199POPC   C3A43913  29.235  32.808   7.015
 3199POPC   C4A43914  29.107  33.252   7.129
 3199POPC   C1B43915  28.646  33.075   6.287
 3199POPC   C2B43916  28.875  33.002   6.684
 3199POPC   C3B43917  28.745  32.865   7.113
 3199POPC   C4B43918  28.732  33.138   7.470
 3200POPC   NC343919  38.047  28.507   5.239
 3200POPC   PO443920  37.431  28.224   5.148
 3200POPC   GL143921  37.540  28.284   5.600
 3200POPC   GL243922  37.371  28.081   5.790
 3200POPC   C1A43923  37.672  28.371   6.077
 3200POPC   D2A43924  37.608  28.608   6.474
 3200POPC   C3A43925  37.627  28.369   6.855
 3200POPC   C4A43926  37.798  28.399   7.251
 3200POPC   C1B43927  37.247  28.032   6.196
 3200POPC   C2B43928  37.432  27.989   6.578
 3200POPC   C3B43929  37.270  28.006   6.992
 3200POPC   C4B43930  37.399  28.040   7.402
 3201POPC   NC343931  35.589  43.662   5.439
 3201POPC   PO443932  34.909  43.514   5.480
 3201POPC   GL143933  35.071  43.785   5.841
 3201POPC   GL243934  35.448  43.871   5.876
 3201POPC   C1A43935  35.162  43.968   6.279
 3201POPC   D2A43936  35.571  43.912   6.480
 3201POPC   C3A43937  35.628  44.003   6.907
 3201POPC   C4A43938  35.409  43.949   7.262
 3201POPC   C1B43939  35.521  43.515   6.145
 3201POPC   C2B43940  35.584  43.416   6.594
 3201POPC   C3B43941  35.492  43.498   7.050
 3201POPC   C4B43942  35.447  43.515   7.553
 3202POPC   NC343943  40.166  16.142   5.591
 3202POPC   PO443944  39.760  16.711   5.406
 3202POPC   GL143945  39.807  16.669   5.849
 3202POPC   GL243946  39.632  16.322   5.866
 3202POPC   C1A43947  39.980  16.906   6.246
 3202POPC   D2A43948  40.243  16.967   6.665
 3202POPC   C3A43949  39.989  17.046   7.035
 3202POPC   C4A43950  39.802  16.926   7.411
 3202POPC   C1B43951  39.888  16.328   6.242
 3202POPC   C2B43952  39.967  16.547   6.621
 3202POPC   C3B43953  40.154  16.528   7.022
 3202POPC   C4B43954  39.956  16.444   7.416
 3203POPC   NC343955  28.972  41.022   5.303
 3203POPC   PO443956  29.509  40.934   5.575
 3203POPC   GL143957  29.192  40.838   5.853
 3203POPC   GL243958  28.840  40.970   5.828
 3203POPC   C1A43959  29.180  40.939   6.283
 3203POPC   D2A43960  28.964  40.900   6.652
 3203POPC   C3A43961  29.202  41.006   6.986
 3203POPC   C4A43962  29.346  40.878   7.377
 3203POPC   C1B43963  28.854  40.581   6.145
 3203POPC   C2B43964  28.888  40.413   6.594
 3203POPC   C3B43965  29.013  40.528   7.045
 3203POPC   C4B43966  29.182  40.408   7.477
 3204POPC   NC343967  20.125  35.080   5.518
 3204POPC   PO443968  19.649  34.582   5.466
 3204POPC   GL143969  19.850  34.740   5.861
 3204POPC   GL243970  19.658  35.066   5.919
 3204POPC   C1A43971  19.923  34.516   6.287
 3204POPC   D2A43972  19.628  34.312   6.607
 3204POPC   C3A43973  19.633  34.448   7.052
 3204POPC   C4A43974  19.985  34.355   7.328
 3204POPC   C1B43975  19.550  34.853   6.326
 3204POPC   C2B43976  19.796  34.788   6.716
 3204POPC   C3B43977  20.034  34.842   7.088
 3204POPC   C4B43978  20.450  34.865   7.219
 3205POPC   NC343979  34.238  25.410   4.918
 3205POPC   PO443980  34.740  25.317   5.303
 3205POPC   GL143981  34.670  25.167   5.778
 3205POPC   GL243982  34.820  24.837   5.900
 3205POPC   C1A43983  34.604  25.193   6.240
 3205POPC   D2A43984  34.317  25.091   6.595
 3205POPC   C3A43985  34.518  25.243   6.988
 3205POPC   C4A43986  34.472  25.552   7.338
 3205POPC   C1B43987  34.905  24.762   6.281
 3205POPC   C2B43988  34.771  24.866   6.617
 3205POPC   C3B43989  34.888  24.766   6.943
 3205POPC   C4B43990  34.809  24.955   7.296
 3206POPC   NC343991  25.745   5.740   5.372
 3206POPC   PO443992  26.156   6.201   5.331
 3206POPC   GL143993  26.099   5.958   5.713
 3206POPC   GL243994  26.164   5.588   5.692
 3206POPC   C1A43995  26.290   6.032   6.109
 3206POPC   D2A43996  26.216   6.249   6.494
 3206POPC   C3A43997  26.373   6.133   6.889
 3206POPC   C4A43998  26.006   6.109   7.138
 3206POPC   C1B43999  26.120   5.541   6.142
 3206POPC   C2B44000  26.202   5.729   6.548
 3206POPC   C3B44001  26.194   5.649   6.982
 3206POPC   C4B44002  25.891   5.415   7.186
 3207POPC   NC344003  26.115  13.339   5.394
 3207POPC   PO444004  25.656  13.828   5.253
 3207POPC   GL144005  25.945  13.775   5.673
 3207POPC   GL244006  26.187  13.502   5.856
 3207POPC   C1A44007  25.968  13.849   6.142
 3207POPC   D2A44008  25.956  13.676   6.570
 3207POPC   C3A44009  26.049  13.925   6.954
 3207POPC   C4A44010  25.784  13.794   7.278
 3207POPC   C1B44011  26.445  13.642   6.223
 3207POPC   C2B44012  26.460  13.714   6.685
 3207POPC   C3B44013  26.225  13.448   7.010
 3207POPC   C4B44014  26.043  13.385   7.424
 3208POPC   NC344015  25.023   7.376   5.437
 3208POPC   PO444016  25.617   7.035   5.446
 3208POPC   GL144017  25.450   7.372   5.837
 3208POPC   GL244018  25.099   7.570   5.893
 3208POPC   C1A44019  25.246   7.287   6.263
 3208POPC   D2A44020  24.988   7.497   6.551
 3208POPC   C3A44021  25.002   7.243   6.917
 3208POPC   C4A44022  25.288   7.132   7.246
 3208POPC   C1B44023  25.329   7.776   6.222
 3208POPC   C2B44024  25.474   7.600   6.626
 3208POPC   C3B44025  25.297   7.647   7.055
 3208POPC   C4B44026  25.492   7.541   7.460
 3209POPC   NC344027  31.653  21.967   5.486
 3209POPC   PO444028  31.222  22.467   5.271
 3209POPC   GL144029  31.314  22.317   5.733
 3209POPC   GL244030  31.671  22.347   5.855
 3209POPC   C1A44031  31.237  22.241   6.200
 3209POPC   D2A44032  31.392  22.281   6.650
 3209POPC   C3A44033  31.183  21.968   6.920
 3209POPC   C4A44034  30.966  21.975   7.327
 3209POPC   C1B44035  31.718  22.072   6.271
 3209POPC   C2B44036  31.710  21.878   6.714
 3209POPC   C3B44037  31.665  21.964   7.173
 3209POPC   C4B44038  31.380  22.269   7.279
 3210POPC   NC344039  41.118  44.550   5.452
 3210POPC   PO444040  40.496  44.579   5.238
 3210POPC   GL144041  40.670  44.757   5.635
 3210POPC   GL244042  40.724  44.416   5.778
 3210POPC   C1A44043  40.829  44.832   6.077
 3210POPC   D2A44044  41.064  44.759   6.475
 3210POPC   C3A44045  40.796  44.690   6.865
 3210POPC   C4A44046  40.928  44.648   7.290
 3210POPC   C1B44047  40.535  44.407   6.217
 3210POPC   C2B44048  40.366  44.435   6.668
 3210POPC   C3B44049  40.462  44.415   7.134
 3210POPC   C4B44050  40.541  44.477   7.591
 3211POPC   NC344051   9.175  33.106   5.233
 3211POPC   PO444052   8.539  33.005   5.305
 3211POPC   GL144053   8.855  33.126   5.650
 3211POPC   GL244054   9.185  32.934   5.738
 3211POPC   C1A44055   8.978  33.215   6.099
 3211POPC   D2A44056   9.146  32.946   6.425
 3211POPC   C3A44057   9.066  32.977   6.853
 3211POPC   C4A44058   9.260  33.269   7.138
 3211POPC   C1B44059   8.880  32.713   6.049
 3211POPC   C2B44060   8.688  32.704   6.513
 3211POPC   C3B44061   8.628  32.751   6.996
 3211POPC   C4B44062   8.886  32.975   7.328
 3212POPC   NC344063   5.165   8.225   5.284
 3212POPC   PO444064   5.611   8.442   5.759
 3212POPC   GL144065   5.257   8.154   5.809
 3212POPC   GL244066   5.401   7.786   5.859
 3212POPC   C1A44067   4.943   8.356   6.125
 3212POPC   D2A44068   5.091   8.579   6.508
 3212POPC   C3A44069   4.993   8.394   6.916
 3212POPC   C4A44070   5.259   8.418   7.259
 3212POPC   C1B44071   5.058   7.864   6.178
 3212POPC   C2B44072   5.161   8.059   6.569
 3212POPC   C3B44073   5.368   8.006   6.971
 3212POPC   C4B44074   5.209   7.863   7.383
 3213POPC   NC344075  17.361  26.173   5.335
 3213POPC   PO444076  17.780  25.678   5.361
 3213POPC   GL144077  17.400  25.772   5.702
 3213POPC   GL244078  17.256  26.146   5.813
 3213POPC   C1A44079  17.319  25.830   6.182
 3213POPC   D2A44080  17.226  25.887   6.610
 3213POPC   C3A44081  17.538  25.839   6.907
 3213POPC   C4A44082  17.736  26.070   7.193
 3213POPC   C1B44083  17.547  26.295   6.133
 3213POPC   C2B44084  17.559  26.262   6.581
 3213POPC   C3B44085  17.317  26.306   6.988
 3213POPC   C4B44086  17.347  26.418   7.428
 3214POPC   NC344087  37.627  10.268   5.606
 3214POPC   PO444088  37.360   9.615   5.455
 3214POPC   GL144089  37.475   9.827   5.823
 3214POPC   GL244090  37.805   9.820   5.912
 3214POPC   C1A44091  37.437  10.081   6.208
 3214POPC   D2A44092  37.228  10.037   6.604
 3214POPC   C3A44093  37.362   9.923   7.044
 3214POPC   C4A44094  37.379   9.668   7.482
 3214POPC   C1B44095  37.664   9.632   6.312
 3214POPC   C2B44096  37.708   9.682   6.769
 3214POPC   C3B44097  37.819   9.541   7.178
 3214POPC   C4B44098  38.207   9.316   7.340
 3215POPC   NC344099  15.939  44.400   5.376
 3215POPC   PO444100  16.172   0.021   5.445
 3215POPC   GL144101  15.905  44.821   5.760
 3215POPC   GL244102  15.734  44.469   5.827
 3215POPC   C1A44103  15.830  44.837   6.183
 3215POPC   D2A44104  16.074  44.662   6.512
 3215POPC   C3A44105  16.072  44.932   6.870
 3215POPC   C4A44106  16.056  44.844   7.304
 3215POPC   C1B44107  15.707  44.343   6.256
 3215POPC   C2B44108  15.632  44.490   6.684
 3215POPC   C3B44109  15.982  44.438   6.985
 3215POPC   C4B44110  15.983  44.372   7.437
 3216POPC   NC344111  30.797   7.786   5.459
 3216POPC   PO444112  30.570   7.180   5.407
 3216POPC   GL144113  30.569   7.429   5.752
 3216POPC   GL244114  30.911   7.342   5.913
 3216POPC   C1A44115  30.525   7.620   6.139
 3216POPC   D2A44116  30.750   7.468   6.475
 3216POPC   C3A44117  30.535   7.458   6.872
 3216POPC   C4A44118  30.728   7.518   7.292
 3216POPC   C1B44119  30.960   7.002   6.286
 3216POPC   C2B44120  31.026   6.903   6.747
 3216POPC   C3B44121  30.776   7.028   7.127
 3216POPC   C4B44122  30.768   7.091   7.585
 3217POPC   NC344123  24.750  23.126   5.458
 3217POPC   PO444124  24.365  22.532   5.530
 3217POPC   GL144125  24.277  22.845   5.853
 3217POPC   GL244126  24.518  23.147   5.901
 3217POPC   C1A44127  24.426  22.830   6.275
 3217POPC   D2A44128  24.692  22.889   6.619
 3217POPC   C3A44129  24.394  22.857   6.953
 3217POPC   C4A44130  24.138  22.812   7.321
 3217POPC   C1B44131  24.677  23.437   6.212
 3217POPC   C2B44132  24.867  23.407   6.602
 3217POPC   C3B44133  24.731  23.253   6.970
 3217POPC   C4B44134  24.522  23.144   7.352
 3218POPC   NC344135  41.445  10.549   5.400
 3218POPC   PO444136  41.564  11.053   5.733
 3218POPC   GL144137  41.672  10.650   5.861
 3218POPC   GL244138  41.600  10.299   5.838
 3218POPC   C1A44139  41.782  10.573   6.239
 3218POPC   D2A44140  41.759  10.875   6.498
 3218POPC   C3A44141  41.753  10.706   6.880
 3218POPC   C4A44142  41.640  10.773   7.280
 3218POPC   C1B44143  41.838  10.084   6.189
 3218POPC   C2B44144  41.825  10.217   6.645
 3218POPC   C3B44145  41.471  10.230   6.976
 3218POPC   C4B44146  41.364  10.358   7.408
 3219POPC   NC344147  34.849  42.558   5.028
 3219POPC   PO444148  35.349  42.113   5.179
 3219POPC   GL144149  35.525  42.176   5.628
 3219POPC   GL244150  35.387  41.903   5.829
 3219POPC   C1A44151  35.395  42.393   6.047
 3219POPC   D2A44152  35.309  42.495   6.481
 3219POPC   C3A44153  35.516  42.488   6.867
 3219POPC   C4A44154  35.224  42.437   7.168
 3219POPC   C1B44155  35.712  42.026   6.166
 3219POPC   C2B44156  35.725  42.095   6.623
 3219POPC   C3B44157  35.750  42.072   7.104
 3219POPC   C4B44158  35.919  42.196   7.557
 3220POPC   NC344159  43.162  38.261   5.367
 3220POPC   PO444160  42.652  38.654   5.140
 3220POPC   GL144161  42.845  38.638   5.593
 3220POPC   GL244162  43.208  38.638   5.695
 3220POPC   C1A44163  42.863  38.468   6.062
 3220POPC   D2A44164  42.658  38.679   6.452
 3220POPC   C3A44165  42.880  38.603   6.872
 3220POPC   C4A44166  43.124  38.327   7.173
 3220POPC   C1B44167  43.412  38.472   6.065
 3220POPC   C2B44168  43.419  38.605   6.504
 3220POPC   C3B44169  43.562  38.484   6.925
 3220POPC   C4B44170  43.481  38.645   7.352
 3221POPC   NC344171  31.098  19.676   5.382
 3221POPC   PO444172  30.585  20.074   5.410
 3221POPC   GL144173  30.651  19.712   5.720
 3221POPC   GL244174  30.964  19.545   5.856
 3221POPC   C1A44175  30.470  19.713   6.149
 3221POPC   D2A44176  30.385  19.860   6.560
 3221POPC   C3A44177  30.512  19.604   6.886
 3221POPC   C4A44178  30.384  19.659   7.330
 3221POPC   C1B44179  30.951  19.884   6.102
 3221POPC   C2B44180  30.892  19.768   6.501
 3221POPC   C3B44181  31.000  19.769   6.900
 3221POPC   C4B44182  30.885  19.502   7.222
 3222POPC   NC344183   9.647  17.484   5.528
 3222POPC   PO444184   9.208  17.152   5.658
 3222POPC   GL144185   9.356  17.478   5.966
 3222POPC   GL244186   9.631  17.727   5.954
 3222POPC   C1A44187   9.513  17.475   6.379
 3222POPC   D2A44188   9.824  17.354   6.653
 3222POPC   C3A44189   9.655  17.481   7.045
 3222POPC   C4A44190   9.244  17.669   7.134
 3222POPC   C1B44191   9.853  17.898   6.316
 3222POPC   C2B44192  10.006  17.880   6.745
 3222POPC   C3B44193   9.925  17.892   7.186
 3222POPC   C4B44194  10.084  17.897   7.622
 3223POPC   NC344195  21.902  37.909   5.605
 3223POPC   PO444196  21.441  37.661   5.289
 3223POPC   GL144197  21.534  37.547   5.727
 3223POPC   GL244198  21.538  37.837   5.955
 3223POPC   C1A44199  21.567  37.342   6.153
 3223POPC   D2A44200  21.316  37.121   6.491
 3223POPC   C3A44201  21.386  37.309   6.898
 3223POPC   C4A44202  21.594  37.564   7.209
 3223POPC   C1B44203  21.339  38.058   6.306
 3223POPC   C2B44204  21.264  37.988   6.724
 3223POPC   C3B44205  21.438  38.028   7.135
 3223POPC   C4B44206  21.771  37.991   7.477
 3224POPC   NC344207  13.615  10.044   5.341
 3224POPC   PO444208  13.641   9.433   4.962
 3224POPC   GL144209  13.655   9.430   5.523
 3224POPC   GL244210  13.697   9.743   5.733
 3224POPC   C1A44211  13.525   9.384   6.051
 3224POPC   D2A44212  13.632   9.309   6.542
 3224POPC   C3A44213  13.697   9.616   6.884
 3224POPC   C4A44214  13.346   9.700   7.144
 3224POPC   C1B44215  13.600   9.870   6.163
 3224POPC   C2B44216  13.332   9.733   6.488
 3224POPC   C3B44217  13.401  10.036   6.764
 3224POPC   C4B44218  13.635  10.103   7.144
 3225POPC   NC344219   8.910   1.569   5.448
 3225POPC   PO444220   8.644   0.944   5.474
 3225POPC   GL144221   8.765   1.208   5.804
 3225POPC   GL244222   9.101   1.233   5.858
 3225POPC   C1A44223   8.738   1.089   6.227
 3225POPC   D2A44224   9.033   0.986   6.540
 3225POPC   C3A44225   8.908   1.000   6.958
 3225POPC   C4A44226   9.016   1.161   7.369
 3225POPC   C1B44227   9.110   1.430   6.260
 3225POPC   C2B44228   9.416   1.492   6.540
 3225POPC   C3B44229   9.271   1.377   6.936
 3225POPC   C4B44230   9.454   1.379   7.310
 3226POPC   NC344231   7.161  31.324   5.346
 3226POPC   PO444232   6.543  31.471   5.233
 3226POPC   GL144233   6.480  31.527   5.671
 3226POPC   GL244234   6.794  31.374   5.722
 3226POPC   C1A44235   6.394  31.466   6.115
 3226POPC   D2A44236   6.595  31.529   6.530
 3226POPC   C3A44237   6.494  31.370   6.938
 3226POPC   C4A44238   6.436  31.568   7.346
 3226POPC   C1B44239   6.888  31.293   6.152
 3226POPC   C2B44240   6.934  31.044   6.517
 3226POPC   C3B44241   6.974  31.103   6.956
 3226POPC   C4B44242   6.899  31.350   7.322
 3227POPC   NC344243   6.795   3.460   5.471
 3227POPC   PO444244   6.147   3.892   5.534
 3227POPC   GL144245   6.269   3.743   5.931
 3227POPC   GL244246   6.573   3.573   5.923
 3227POPC   C1A44247   6.389   3.876   6.321
 3227POPC   D2A44248   6.713   3.622   6.509
 3227POPC   C3A44249   6.727   3.675   6.957
 3227POPC   C4A44250   6.347   3.639   7.193
 3227POPC   C1B44251   6.776   3.247   6.147
 3227POPC   C2B44252   6.859   3.105   6.562
 3227POPC   C3B44253   6.955   3.168   6.981
 3227POPC   C4B44254   7.127   3.506   7.230
 3228POPC   NC344255  17.748   4.907   5.462
 3228POPC   PO444256  17.238   5.178   5.256
 3228POPC   GL144257  17.316   5.237   5.754
 3228POPC   GL244258  17.632   5.130   5.899
 3228POPC   C1A44259  17.270   5.126   6.246
 3228POPC   D2A44260  17.311   4.918   6.659
 3228POPC   C3A44261  17.300   5.144   7.060
 3228POPC   C4A44262  17.413   5.037   7.517
 3228POPC   C1B44263  17.770   5.311   6.296
 3228POPC   C2B44264  17.769   5.139   6.732
 3228POPC   C3B44265  17.828   5.105   7.190
 3228POPC   C4B44266  17.995   5.369   7.527
 3229POPC   NC344267   1.259   4.466   5.393
 3229POPC   PO444268   1.285   3.837   5.208
 3229POPC   GL144269   1.393   4.023   5.630
 3229POPC   GL244270   1.095   4.182   5.788
 3229POPC   C1A44271   1.536   4.198   6.074
 3229POPC   D2A44272   1.429   4.041   6.502
 3229POPC   C3A44273   1.475   4.262   6.898
 3229POPC   C4A44274   1.286   4.524   7.172
 3229POPC   C1B44275   1.030   4.324   6.220
 3229POPC   C2B44276   1.025   4.377   6.674
 3229POPC   C3B44277   0.839   4.324   7.079
 3229POPC   C4B44278   0.910   4.639   7.464
 3230POPC   NC344279  15.052  39.777   5.541
 3230POPC   PO444280  15.499  40.017   5.109
 3230POPC   GL144281  15.451  40.101   5.582
 3230POPC   GL244282  15.518  39.815   5.811
 3230POPC   C1A44283  15.307  40.205   6.040
 3230POPC   D2A44284  15.141  40.305   6.475
 3230POPC   C3A44285  15.330  40.282   6.907
 3230POPC   C4A44286  14.992  40.476   7.154
 3230POPC   C1B44287  15.312  39.728   6.238
 3230POPC   C2B44288  15.228  39.833   6.665
 3230POPC   C3B44289  14.909  40.000   6.966
 3230POPC   C4B44290  15.053  40.051   7.400
 3231POPC   NC344291   9.300  36.486   5.543
 3231POPC   PO444292   8.851  36.040   5.408
 3231POPC   GL144293   8.893  36.193   5.798
 3231POPC   GL244294   8.539  36.191   5.810
 3231POPC   C1A44295   9.085  36.173   6.217
 3231POPC   D2A44296   8.863  36.243   6.601
 3231POPC   C3A44297   9.098  36.367   6.960
 3231POPC   C4A44298   8.993  36.163   7.330
 3231POPC   C1B44299   8.588  36.016   6.203
 3231POPC   C2B44300   8.438  35.947   6.619
 3231POPC   C3B44301   8.644  35.966   7.003
 3231POPC   C4B44302   8.772  35.698   7.325
 3232POPC   NC344303  36.641  34.267   5.638
 3232POPC   PO444304  37.299  34.569   5.506
 3232POPC   GL144305  37.015  34.557   5.856
 3232POPC   GL244306  37.266  34.464   6.047
 3232POPC   C1A44307  36.899  34.737   6.286
 3232POPC   D2A44308  36.898  34.645   6.780
 3232POPC   C3A44309  36.695  34.822   7.202
 3232POPC   C4A44310  36.474  34.946   7.617
 3232POPC   C1B44311  36.954  34.246   6.281
 3232POPC   C2B44312  37.293  34.292   6.575
 3232POPC   C3B44313  37.366  34.493   6.936
 3232POPC   C4B44314  37.093  34.486   7.268
 3233POPC   NC344315  15.112  29.761   5.466
 3233POPC   PO444316  15.261  30.446   5.406
 3233POPC   GL144317  15.401  30.222   5.769
 3233POPC   GL244318  15.033  30.128   5.823
 3233POPC   C1A44319  15.329  30.164   6.221
 3233POPC   D2A44320  14.982  30.104   6.502
 3233POPC   C3A44321  15.082  29.985   6.898
 3233POPC   C4A44322  15.394  30.122   7.166
 3233POPC   C1B44323  14.951  29.783   6.121
 3233POPC   C2B44324  14.739  29.642   6.496
 3233POPC   C3B44325  14.782  29.559   6.919
 3233POPC   C4B44326  14.746  29.839   7.265
 3234POPC   NC344327   3.954  15.840   5.238
 3234POPC   PO444328   4.579  15.856   5.471
 3234POPC   GL144329   4.203  15.916   5.748
 3234POPC   GL244330   3.934  15.655   5.706
 3234POPC   C1A44331   4.207  16.032   6.205
 3234POPC   D2A44332   4.280  16.020   6.666
 3234POPC   C3A44333   4.199  16.227   7.066
 3234POPC   C4A44334   4.279  16.256   7.538
 3234POPC   C1B44335   4.044  15.550   6.113
 3234POPC   C2B44336   4.093  15.575   6.535
 3234POPC   C3B44337   4.120  15.645   6.978
 3234POPC   C4B44338   4.373  15.798   7.296
 3235POPC   NC344339  25.193  14.078   5.416
 3235POPC   PO444340  25.171  14.770   5.241
 3235POPC   GL144341  25.155  14.548   5.651
 3235POPC   GL244342  24.856  14.701   5.784
 3235POPC   C1A44343  25.324  14.504   6.106
 3235POPC   D2A44344  25.383  14.737   6.526
 3235POPC   C3A44345  25.505  14.680   6.943
 3235POPC   C4A44346  25.296  14.529   7.320
 3235POPC   C1B44347  24.941  14.822   6.224
 3235POPC   C2B44348  24.895  14.542   6.616
 3235POPC   C3B44349  24.883  14.228   6.975
 3235POPC   C4B44350  24.798  14.324   7.409
 3236POPC   NC344351  20.832  42.570   5.422
 3236POPC   PO444352  20.203  42.419   5.385
 3236POPC   GL144353  20.449  42.331   5.778
 3236POPC   GL244354  20.766  42.139   5.726
 3236POPC   C1A44355  20.485  42.479   6.224
 3236POPC   D2A44356  20.648  42.518   6.670
 3236POPC   C3A44357  20.385  42.527   7.049
 3236POPC   C4A44358  20.447  42.518   7.507
 3236POPC   C1B44359  20.644  41.951   6.114
 3236POPC   C2B44360  20.459  42.042   6.494
 3236POPC   C3B44361  20.573  42.033   6.896
 3236POPC   C4B44362  20.455  42.014   7.306
 3237POPC   NC344363  15.769   8.829   5.434
 3237POPC   PO444364  16.333   9.119   5.574
 3237POPC   GL144365  15.927   9.170   5.815
 3237POPC   GL244366  15.898   8.831   5.935
 3237POPC   C1A44367  15.754   9.200   6.253
 3237POPC   D2A44368  16.015   9.083   6.628
 3237POPC   C3A44369  15.865   9.084   7.072
 3237POPC   C4A44370  16.065   9.233   7.453
 3237POPC   C1B44371  15.787   8.645   6.342
 3237POPC   C2B44372  15.817   8.639   6.763
 3237POPC   C3B44373  15.678   8.614   7.149
 3237POPC   C4B44374  15.813   8.795   7.531
 3238POPC   NC344375  38.180  11.098   5.541
 3238POPC   PO444376  38.821  11.249   5.544
 3238POPC   GL144377  38.530  11.353   5.855
 3238POPC   GL244378  38.415  11.691   5.789
 3238POPC   C1A44379  38.360  11.359   6.273
 3238POPC   D2A44380  38.194  11.288   6.689
 3238POPC   C3A44381  38.383  11.074   7.021
 3238POPC   C4A44382  38.242  11.072   7.472
 3238POPC   C1B44383  38.719  11.727   6.164
 3238POPC   C2B44384  38.785  11.629   6.607
 3238POPC   C3B44385  38.584  11.653   6.979
 3238POPC   C4B44386  38.510  11.459   7.322
 3239POPC   NC344387  26.436  23.573   5.491
 3239POPC   PO444388  25.803  23.876   5.542
 3239POPC   GL144389  26.137  23.808   5.835
 3239POPC   GL244390  26.157  24.095   6.025
 3239POPC   C1A44391  26.277  23.627   6.241
 3239POPC   D2A44392  26.421  23.822   6.629
 3239POPC   C3A44393  26.182  23.816   6.990
 3239POPC   C4A44394  26.148  23.481   7.242
 3239POPC   C1B44395  25.803  23.835   6.235
 3239POPC   C2B44396  25.852  23.615   6.629
 3239POPC   C3B44397  25.698  23.684   7.053
 3239POPC   C4B44398  25.828  23.793   7.496
 3240POPC   NC344399  38.572  42.639   5.679
 3240POPC   PO444400  38.488  43.270   5.262
 3240POPC   GL144401  38.406  43.218   5.803
 3240POPC   GL244402  38.242  42.951   5.938
 3240POPC   C1A44403  38.669  43.192   6.188
 3240POPC   D2A44404  38.651  43.281   6.602
 3240POPC   C3A44405  38.603  42.911   6.846
 3240POPC   C4A44406  38.720  43.095   7.188
 3240POPC   C1B44407  38.183  43.123   6.319
 3240POPC   C2B44408  38.091  42.923   6.684
 3240POPC   C3B44409  38.116  43.022   7.105
 3240POPC   C4B44410  38.075  43.372   7.381
 3241POPC   NC344411  33.492   6.114   5.774
 3241POPC   PO444412  33.846   6.515   5.313
 3241POPC   GL144413  33.731   6.601   5.775
 3241POPC   GL244414  33.709   6.966   5.892
 3241POPC   C1A44415  33.872   6.605   6.224
 3241POPC   D2A44416  33.973   6.796   6.622
 3241POPC   C3A44417  33.942   6.535   6.986
 3241POPC   C4A44418  33.768   6.247   7.238
 3241POPC   C1B44419  33.494   7.103   6.297
 3241POPC   C2B44420  33.613   7.120   6.727
 3241POPC   C3B44421  33.615   6.915   7.114
 3241POPC   C4B44422  33.436   7.057   7.484
 3242POPC   NC344423  28.434  30.550   5.469
 3242POPC   PO444424  28.072  31.158   5.410
 3242POPC   GL144425  28.144  30.881   5.768
 3242POPC   GL244426  28.177  30.532   5.923
 3242POPC   C1A44427  28.351  30.969   6.158
 3242POPC   D2A44428  28.556  30.976   6.571
 3242POPC   C3A44429  28.373  30.886   6.959
 3242POPC   C4A44430  28.394  30.691   7.354
 3242POPC   C1B44431  28.509  30.493   6.279
 3242POPC   C2B44432  28.523  30.448   6.754
 3242POPC   C3B44433  28.495  30.227   7.177
 3242POPC   C4B44434  28.720  30.131   7.589
 3243POPC   NC344435  37.282  26.015   5.185
 3243POPC   PO444436  37.878  25.844   5.312
 3243POPC   GL144437  37.821  26.006   5.696
 3243POPC   GL244438  37.834  26.367   5.751
 3243POPC   C1A44439  37.798  25.979   6.115
 3243POPC   D2A44440  37.640  26.146   6.478
 3243POPC   C3A44441  37.641  25.892   6.825
 3243POPC   C4A44442  37.639  25.951   7.250
 3243POPC   C1B44443  37.553  26.524   6.106
 3243POPC   C2B44444  37.294  26.529   6.519
 3243POPC   C3B44445  37.503  26.400   6.911
 3243POPC   C4B44446  37.616  26.454   7.336
 3244POPC   NC344447   9.118  35.634   5.356
 3244POPC   PO444448   8.560  35.426   5.207
 3244POPC   GL144449   8.662  35.370   5.664
 3244POPC   GL244450   8.690  35.699   5.763
 3244POPC   C1A44451   8.729  35.265   6.144
 3244POPC   D2A44452   9.123  35.282   6.450
 3244POPC   C3A44453   9.118  35.330   6.929
 3244POPC   C4A44454   8.824  35.183   7.254
 3244POPC   C1B44455   8.984  35.693   6.111
 3244POPC   C2B44456   8.928  35.740   6.574
 3244POPC   C3B44457   9.152  35.836   6.968
 3244POPC   C4B44458   9.274  35.734   7.407
 3245POPC   NC344459  14.598  43.508   5.246
 3245POPC   PO444460  14.091  43.958   5.437
 3245POPC   GL144461  14.362  44.024   5.815
 3245POPC   GL244462  14.677  44.259   5.785
 3245POPC   C1A44463  14.402  44.039   6.273
 3245POPC   D2A44464  14.177  43.991   6.651
 3245POPC   C3A44465  14.435  43.871   6.972
 3245POPC   C4A44466  14.470  44.044   7.363
 3245POPC   C1B44467  14.861  43.944   6.073
 3245POPC   C2B44468  14.901  43.843   6.542
 3245POPC   C3B44469  14.834  43.550   6.907
 3245POPC   C4B44470  14.836  43.686   7.345
 3246POPC   NC344471  34.387  40.704   5.229
 3246POPC   PO444472  34.906  41.217   5.226
 3246POPC   GL144473  34.679  40.951   5.566
 3246POPC   GL244474  34.895  40.929   5.772
 3246POPC   C1A44475  34.493  40.785   6.030
 3246POPC   D2A44476  34.539  40.834   6.538
 3246POPC   C3A44477  34.595  40.638   6.992
 3246POPC   C4A44478  34.494  40.782   7.426
 3246POPC   C1B44479  34.966  40.871   6.214
 3246POPC   C2B44480  34.950  41.201   6.502
 3246POPC   C3B44481  34.994  41.279   6.925
 3246POPC   C4B44482  34.942  40.953   7.205
 3247POPC   NC344483   5.674  19.607   5.184
 3247POPC   PO444484   5.971  20.179   5.367
 3247POPC   GL144485   5.888  19.877   5.734
 3247POPC   GL244486   5.580  19.680   5.725
 3247POPC   C1A44487   5.920  19.755   6.192
 3247POPC   D2A44488   5.673  19.912   6.570
 3247POPC   C3A44489   5.756  19.807   7.033
 3247POPC   C4A44490   5.682  19.961   7.489
 3247POPC   C1B44491   5.468  19.518   6.164
 3247POPC   C2B44492   5.684  19.408   6.566
 3247POPC   C3B44493   5.702  19.293   6.980
 3247POPC   C4B44494   5.630  19.459   7.386
 3248POPC   NC344495  37.080  43.409   5.406
 3248POPC   PO444496  36.643  42.850   5.577
 3248POPC   GL144497  36.777  43.138   5.853
 3248POPC   GL244498  36.735  43.490   5.776
 3248POPC   C1A44499  36.798  43.007   6.269
 3248POPC   D2A44500  36.534  43.007   6.618
 3248POPC   C3A44501  36.751  42.996   6.998
 3248POPC   C4A44502  36.786  43.226   7.377
 3248POPC   C1B44503  36.966  43.493   6.178
 3248POPC   C2B44504  36.945  43.368   6.609
 3248POPC   C3B44505  37.208  43.357   6.934
 3248POPC   C4B44506  37.216  43.474   7.338
 3249POPC   NC344507   3.169   5.885   5.486
 3249POPC   PO444508   2.536   5.888   5.512
 3249POPC   GL144509   2.740   5.994   5.829
 3249POPC   GL244510   2.886   5.641   5.842
 3249POPC   C1A44511   2.925   5.982   6.208
 3249POPC   D2A44512   2.898   5.780   6.566
 3249POPC   C3A44513   2.978   6.030   6.921
 3249POPC   C4A44514   2.878   5.973   7.302
 3249POPC   C1B44515   2.531   5.657   6.165
 3249POPC   C2B44516   2.352   5.796   6.554
 3249POPC   C3B44517   2.497   5.855   6.966
 3249POPC   C4B44518   2.590   5.534   7.270
 3250POPC   NC344519  13.202  28.360   5.192
 3250POPC   PO444520  12.566  28.042   5.411
 3250POPC   GL144521  12.734  28.180   5.838
 3250POPC   GL244522  13.055  28.297   5.783
 3250POPC   C1A44523  12.966  28.006   6.219
 3250POPC   D2A44524  13.154  28.154   6.620
 3250POPC   C3A44525  13.060  28.011   7.029
 3250POPC   C4A44526  12.846  28.125   7.419
 3250POPC   C1B44527  12.937  28.504   6.201
 3250POPC   C2B44528  12.750  28.457   6.628
 3250POPC   C3B44529  12.936  28.495   7.048
 3250POPC   C4B44530  13.078  28.666   7.435
 3251POPC   NC344531  16.337  31.440   5.398
 3251POPC   PO444532  16.831  31.785   5.439
 3251POPC   GL144533  16.683  31.477   5.826
 3251POPC   GL244534  16.451  31.144   5.811
 3251POPC   C1A44535  16.818  31.510   6.296
 3251POPC   D2A44536  16.989  31.782   6.653
 3251POPC   C3A44537  16.976  31.593   7.099
 3251POPC   C4A44538  16.832  31.484   7.539
 3251POPC   C1B44539  16.535  31.078   6.267
 3251POPC   C2B44540  16.637  31.221   6.717
 3251POPC   C3B44541  16.483  31.138   7.177
 3251POPC   C4B44542  16.475  31.152   7.681
 3252POPC   NC344543  42.343   0.252   5.155
 3252POPC   PO444544  42.532   0.778   5.479
 3252POPC   GL144545  42.321   0.483   5.685
 3252POPC   GL244546  42.546   0.219   5.637
 3252POPC   C1A44547  42.192   0.382   6.088
 3252POPC   D2A44548  42.221   0.473   6.525
 3252POPC   C3A44549  42.013   0.403   6.908
 3252POPC   C4A44550  42.103   0.326   7.292
 3252POPC   C1B44551  42.491  44.977   5.992
 3252POPC   C2B44552  42.366  44.988   6.416
 3252POPC   C3B44553  42.479   0.170   6.826
 3252POPC   C4B44554  42.545   0.077   7.243
 3253POPC   NC344555  15.791  28.080   5.520
 3253POPC   PO444556  16.206  28.564   5.568
 3253POPC   GL144557  16.055  28.358   5.948
 3253POPC   GL244558  15.936  28.002   5.988
 3253POPC   C1A44559  16.094  28.283   6.390
 3253POPC   D2A44560  15.808  28.361   6.702
 3253POPC   C3A44561  15.899  28.600   7.035
 3253POPC   C4A44562  15.778  28.574   7.423
 3253POPC   C1B44563  16.361  27.939   6.105
 3253POPC   C2B44564  16.435  27.837   6.520
 3253POPC   C3B44565  16.231  28.070   6.856
 3253POPC   C4B44566  16.021  28.145   7.241
 3254POPC   NC344567   6.372  43.639   4.991
 3254POPC   PO444568   5.964  44.114   5.200
 3254POPC   GL144569   5.867  44.017   5.651
 3254POPC   GL244570   6.121  44.089   5.908
 3254POPC   C1A44571   5.636  43.908   6.059
 3254POPC   D2A44572   5.571  43.972   6.519
 3254POPC   C3A44573   5.746  43.704   6.804
 3254POPC   C4A44574   5.815  43.786   7.234
 3254POPC   C1B44575   6.064  44.106   6.383
 3254POPC   C2B44576   6.213  43.942   6.783
 3254POPC   C3B44577   6.305  43.937   7.215
 3254POPC   C4B44578   6.171  43.699   7.599
 3255POPC   NC344579  42.304  38.662   5.438
 3255POPC   PO444580  42.722  38.118   5.524
 3255POPC   GL144581  42.441  38.340   5.804
 3255POPC   GL244582  42.442  38.702   5.923
 3255POPC   C1A44583  42.367  38.301   6.225
 3255POPC   D2A44584  42.330  37.939   6.457
 3255POPC   C3A44585  42.022  38.070   6.748
 3255POPC   C4A44586  42.213  38.157   7.167
 3255POPC   C1B44587  42.228  38.915   6.249
 3255POPC   C2B44588  42.209  38.880   6.684
 3255POPC   C3B44589  42.377  38.605   7.006
 3255POPC   C4B44590  42.199  38.581   7.465
 3256POPC   NC344591   5.647   3.969   5.487
 3256POPC   PO444592   5.946   4.626   5.352
 3256POPC   GL144593   5.743   4.485   5.747
 3256POPC   GL244594   6.021   4.252   5.874
 3256POPC   C1A44595   5.607   4.255   6.155
 3256POPC   D2A44596   5.844   4.091   6.514
 3256POPC   C3A44597   5.655   4.213   6.894
 3256POPC   C4A44598   5.749   4.477   7.229
 3256POPC   C1B44599   5.989   4.583   6.223
 3256POPC   C2B44600   6.164   4.677   6.631
 3256POPC   C3B44601   6.153   4.311   6.902
 3256POPC   C4B44602   6.059   4.052   7.237
 3257POPC   NC344603  33.168  21.021   5.241
 3257POPC   PO444604  32.799  21.569   5.146
 3257POPC   GL144605  32.847  21.454   5.643
 3257POPC   GL244606  32.857  21.771   5.831
 3257POPC   C1A44607  32.987  21.305   6.118
 3257POPC   D2A44608  33.033  21.089   6.562
 3257POPC   C3A44609  33.154  21.300   6.950
 3257POPC   C4A44610  33.068  21.451   7.354
 3257POPC   C1B44611  33.055  21.795   6.251
 3257POPC   C2B44612  33.137  21.764   6.704
 3257POPC   C3B44613  32.861  21.815   7.061
 3257POPC   C4B44614  32.851  21.868   7.525
 3258POPC   NC344615  21.318   5.887   5.390
 3258POPC   PO444616  21.862   6.248   5.530
 3258POPC   GL144617  21.555   5.982   5.843
 3258POPC   GL244618  21.163   5.875   5.858
 3258POPC   C1A44619  21.397   6.029   6.273
 3258POPC   D2A44620  21.184   5.896   6.596
 3258POPC   C3A44621  21.369   5.986   6.980
 3258POPC   C4A44622  21.295   5.752   7.339
 3258POPC   C1B44623  20.921   6.139   6.135
 3258POPC   C2B44624  21.059   6.407   6.453
 3258POPC   C3B44625  20.950   6.279   6.842
 3258POPC   C4B44626  20.975   6.144   7.270
 3259POPC   NC344627  43.508  39.614   5.584
 3259POPC   PO444628  43.147  39.069   5.417
 3259POPC   GL144629  43.110  39.129   5.820
 3259POPC   GL244630  43.028  39.469   5.817
 3259POPC   C1A44631  43.099  38.888   6.181
 3259POPC   D2A44632  43.017  39.020   6.573
 3259POPC   C3A44633  43.277  38.928   6.903
 3259POPC   C4A44634  43.258  39.091   7.293
 3259POPC   C1B44635  43.165  39.407   6.248
 3259POPC   C2B44636  43.329  39.415   6.672
 3259POPC   C3B44637  43.151  39.530   7.062
 3259POPC   C4B44638  43.288  39.598   7.505
 3260POPC   NC344639  27.877  36.845   5.214
 3260POPC   PO444640  27.227  36.999   5.380
 3260POPC   GL144641  27.244  36.944   5.825
 3260POPC   GL244642  27.419  37.229   5.911
 3260POPC   C1A44643  27.400  36.710   6.241
 3260POPC   D2A44644  27.418  36.806   6.716
 3260POPC   C3A44645  27.705  36.895   7.078
 3260POPC   C4A44646  27.859  36.697   7.465
 3260POPC   C1B44647  27.403  37.202   6.373
 3260POPC   C2B44648  27.757  37.260   6.675
 3260POPC   C3B44649  27.911  37.353   7.112
 3260POPC   C4B44650  27.839  37.204   7.591
 3261POPC   NC344651   5.859  24.907   5.327
 3261POPC   PO444652   5.660  25.530   5.408
 3261POPC   GL144653   6.017  25.405   5.699
 3261POPC   GL244654   6.136  25.084   5.740
 3261POPC   C1A44655   5.967  25.472   6.138
 3261POPC   D2A44656   5.640  25.418   6.428
 3261POPC   C3A44657   5.779  25.493   6.842
 3261POPC   C4A44658   5.622  25.439   7.230
 3261POPC   C1B44659   6.104  24.928   6.155
 3261POPC   C2B44660   6.050  25.112   6.531
 3261POPC   C3B44661   5.928  24.996   6.919
 3261POPC   C4B44662   5.991  25.123   7.352
 3262POPC   NC344663  25.606  27.135   5.380
 3262POPC   PO444664  26.288  27.036   5.480
 3262POPC   GL144665  26.154  26.907   5.864
 3262POPC   GL244666  25.855  26.779   5.777
 3262POPC   C1A44667  26.238  26.913   6.288
 3262POPC   D2A44668  26.022  27.021   6.639
 3262POPC   C3A44669  26.302  27.058   6.966
 3262POPC   C4A44670  26.393  26.811   7.325
 3262POPC   C1B44671  25.713  26.830   6.225
 3262POPC   C2B44672  25.541  26.840   6.667
 3262POPC   C3B44673  25.790  26.686   7.040
 3262POPC   C4B44674  25.870  26.812   7.483
 3263POPC   NC344675   8.595  40.540   5.522
 3263POPC   PO444676   9.021  40.985   5.317
 3263POPC   GL144677   9.145  40.910   5.768
 3263POPC   GL244678   8.794  40.897   5.835
 3263POPC   C1A44679   9.107  40.766   6.244
 3263POPC   D2A44680   9.218  40.707   6.679
 3263POPC   C3A44681   8.906  40.656   6.985
 3263POPC   C4A44682   8.865  40.552   7.417
 3263POPC   C1B44683   8.726  41.132   6.190
 3263POPC   C2B44684   8.542  41.002   6.541
 3263POPC   C3B44685   8.663  41.108   6.909
 3263POPC   C4B44686   8.562  40.933   7.247
 3264POPC   NC344687  41.076  20.357   4.906
 3264POPC   PO444688  41.336  20.671   5.472
 3264POPC   GL144689  41.258  20.620   5.939
 3264POPC   GL244690  41.330  20.932   6.102
 3264POPC   C1A44691  41.113  20.393   6.287
 3264POPC   D2A44692  41.086  20.233   6.716
 3264POPC   C3A44693  41.348  20.524   6.948
 3264POPC   C4A44694  41.341  20.871   7.242
 3264POPC   C1B44695  41.496  20.692   6.476
 3264POPC   C2B44696  41.827  20.557   6.782
 3264POPC   C3B44697  41.821  20.653   7.233
 3264POPC   C4B44698  42.127  20.781   7.529
 3265POPC   NC344699  38.208  21.517   5.400
 3265POPC   PO444700  38.586  21.068   5.627
 3265POPC   GL144701  38.425  21.387   5.878
 3265POPC   GL244702  38.531  21.706   5.775
 3265POPC   C1A44703  38.321  21.399   6.317
 3265POPC   D2A44704  38.480  21.224   6.720
 3265POPC   C3A44705  38.348  21.400   7.112
 3265POPC   C4A44706  38.105  21.151   7.410
 3265POPC   C1B44707  38.569  21.833   6.180
 3265POPC   C2B44708  38.613  21.725   6.602
 3265POPC   C3B44709  38.881  21.766   6.958
 3265POPC   C4B44710  38.816  21.513   7.317
 3266POPC   NC344711  17.040  13.550   5.313
 3266POPC   PO444712  16.626  13.985   5.352
 3266POPC   GL144713  16.756  13.736   5.730
 3266POPC   GL244714  16.905  13.376   5.786
 3266POPC   C1A44715  16.744  13.729   6.175
 3266POPC   D2A44716  16.498  13.782   6.538
 3266POPC   C3A44717  16.805  13.795   6.879
 3266POPC   C4A44718  16.946  13.581   7.230
 3266POPC   C1B44719  16.663  13.245   6.131
 3266POPC   C2B44720  16.779  13.368   6.548
 3266POPC   C3B44721  16.516  13.370   6.912
 3266POPC   C4B44722  16.515  13.153   7.273
 3267POPC   NC344723   9.885  12.339   5.303
 3267POPC   PO444724   9.504  11.782   5.409
 3267POPC   GL144725   9.703  12.024   5.731
 3267POPC   GL244726   9.368  11.989   5.930
 3267POPC   C1A44727   9.799  11.985   6.188
 3267POPC   D2A44728   9.541  12.077   6.539
 3267POPC   C3A44729   9.661  12.110   6.989
 3267POPC   C4A44730  10.019  12.404   7.144
 3267POPC   C1B44731   9.095  11.875   6.321
 3267POPC   C2B44732   9.155  11.864   6.778
 3267POPC   C3B44733   9.146  12.066   7.168
 3267POPC   C4B44734   9.380  12.005   7.554
 3268POPC   NC344735  31.812   1.404   5.417
 3268POPC   PO444736  31.086   1.246   5.421
 3268POPC   GL144737  31.267   1.428   5.825
 3268POPC   GL244738  31.623   1.501   5.872
 3268POPC   C1A44739  31.400   1.227   6.222
 3268POPC   D2A44740  31.652   1.212   6.577
 3268POPC   C3A44741  31.560   0.979   6.892
 3268POPC   C4A44742  31.626   1.007   7.284
 3268POPC   C1B44743  31.764   1.682   6.252
 3268POPC   C2B44744  31.732   1.698   6.681
 3268POPC   C3B44745  31.891   1.413   6.992
 3268POPC   C4B44746  31.795   1.443   7.454
 3269POPC   NC344747  44.518  36.559   5.519
 3269POPC   PO444748  44.926  37.055   5.463
 3269POPC   GL144749  44.743  37.192   5.820
 3269POPC   GL244750  44.401  37.083   5.719
 3269POPC   C1A44751  44.904  37.190   6.260
 3269POPC   D2A44752   0.153  37.016   6.641
 3269POPC   C3A44753  44.949  36.741   6.953
 3269POPC   C4A44754  44.624  36.908   7.235
 3269POPC   C1B44755  44.480  36.859   6.117
 3269POPC   C2B44756  44.649  36.819   6.536
 3269POPC   C3B44757  44.454  36.579   6.851
 3269POPC   C4B44758  44.527  36.398   7.241
 3270POPC   NC344759  19.475  25.814   5.376
 3270POPC   PO444760  20.064  26.062   5.360
 3270POPC   GL144761  20.103  26.108   5.787
 3270POPC   GL244762  19.760  26.007   5.828
 3270POPC   C1A44763  20.054  26.311   6.178
 3270POPC   D2A44764  20.036  25.997   6.522
 3270POPC   C3A44765  19.989  26.151   6.920
 3270POPC   C4A44766  20.174  26.063   7.287
 3270POPC   C1B44767  19.602  26.100   6.260
 3270POPC   C2B44768  19.510  26.091   6.682
 3270POPC   C3B44769  19.342  26.122   7.077
 3270POPC   C4B44770  19.671  26.020   7.301
 3271POPC   NC344771  36.632  18.327   5.248
 3271POPC   PO444772  37.167  18.739   5.414
 3271POPC   GL144773  36.855  18.664   5.746
 3271POPC   GL244774  36.759  18.297   5.769
 3271POPC   C1A44775  36.933  18.528   6.176
 3271POPC   D2A44776  37.094  18.278   6.507
 3271POPC   C3A44777  36.861  18.460   6.828
 3271POPC   C4A44778  36.691  18.340   7.218
 3271POPC   C1B44779  36.778  18.019   6.160
 3271POPC   C2B44780  36.863  17.787   6.540
 3271POPC   C3B44781  36.869  17.927   6.971
 3271POPC   C4B44782  36.678  17.865   7.410
 3272POPC   NC344783  17.768  21.308   5.504
 3272POPC   PO444784  17.212  21.532   5.384
 3272POPC   GL144785  17.408  21.527   5.800
 3272POPC   GL244786  17.600  21.778   5.914
 3272POPC   C1A44787  17.557  21.301   6.168
 3272POPC   D2A44788  17.413  21.379   6.605
 3272POPC   C3A44789  17.175  21.385   6.988
 3272POPC   C4A44790  17.300  21.176   7.352
 3272POPC   C1B44791  17.664  21.773   6.347
 3272POPC   C2B44792  17.916  21.513   6.628
 3272POPC   C3B44793  17.717  21.380   7.032
 3272POPC   C4B44794  17.510  21.769   7.095
 3273POPC   NC344795  43.775  11.421   5.119
 3273POPC   PO444796  43.075  11.410   5.308
 3273POPC   GL144797  42.975  11.442   5.749
 3273POPC   GL244798  43.122  11.723   5.907
 3273POPC   C1A44799  42.950  11.312   6.182
 3273POPC   D2A44800  43.036  11.010   6.517
 3273POPC   C3A44801  42.983  11.258   6.880
 3273POPC   C4A44802  42.899  11.328   7.322
 3273POPC   C1B44803  43.419  11.646   6.221
 3273POPC   C2B44804  43.295  11.645   6.657
 3273POPC   C3B44805  43.348  11.557   7.088
 3273POPC   C4B44806  43.537  11.844   7.322
 3274POPC   NC344807   6.087   6.568   4.994
 3274POPC   PO444808   5.711   6.912   5.459
 3274POPC   GL144809   5.831   6.721   5.819
 3274POPC   GL244810   6.183   6.792   5.830
 3274POPC   C1A44811   5.796   6.780   6.264
 3274POPC   D2A44812   5.625   6.664   6.652
 3274POPC   C3A44813   5.629   6.927   6.985
 3274POPC   C4A44814   5.818   6.807   7.346
 3274POPC   C1B44815   6.165   6.451   6.156
 3274POPC   C2B44816   6.150   6.541   6.592
 3274POPC   C3B44817   6.146   6.586   7.012
 3274POPC   C4B44818   6.001   6.343   7.345
 3275POPC   NC344819  40.986  41.983   5.594
 3275POPC   PO444820  41.088  41.358   5.263
 3275POPC   GL144821  40.999  41.425   5.720
 3275POPC   GL244822  40.703  41.591   5.788
 3275POPC   C1A44823  41.004  41.454   6.194
 3275POPC   D2A44824  40.746  41.492   6.586
 3275POPC   C3A44825  40.896  41.468   7.014
 3275POPC   C4A44826  41.118  41.800   7.210
 3275POPC   C1B44827  40.561  41.780   6.175
 3275POPC   C2B44828  40.341  41.825   6.567
 3275POPC   C3B44829  40.369  41.904   7.009
 3275POPC   C4B44830  40.298  42.066   7.415
 3276POPC   NC344831   4.695  26.602   5.446
 3276POPC   PO444832   4.080  26.707   5.449
 3276POPC   GL144833   4.374  26.767   5.827
 3276POPC   GL244834   4.247  27.065   5.979
 3276POPC   C1A44835   4.736  26.963   6.098
 3276POPC   D2A44836   4.765  27.162   6.560
 3276POPC   C3A44837   4.667  27.061   7.040
 3276POPC   C4A44838   4.430  27.209   7.448
 3276POPC   C1B44839   4.352  26.821   6.402
 3276POPC   C2B44840   4.439  26.649   6.852
 3276POPC   C3B44841   4.317  26.716   7.312
 3276POPC   C4B44842   4.114  26.457   7.634
 3277POPC   NC344843  38.095  13.953   5.329
 3277POPC   PO444844  37.483  13.671   5.451
 3277POPC   GL144845  37.779  13.812   5.743
 3277POPC   GL244846  38.009  13.533   5.623
 3277POPC   C1A44847  37.694  13.856   6.210
 3277POPC   D2A44848  37.595  13.641   6.619
 3277POPC   C3A44849  37.613  13.832   7.046
 3277POPC   C4A44850  37.529  13.558   7.419
 3277POPC   C1B44851  38.059  13.517   6.054
 3277POPC   C2B44852  38.159  13.788   6.402
 3277POPC   C3B44853  38.082  13.695   6.816
 3277POPC   C4B44854  38.020  13.347   7.023
 3278POPC   NC344855  16.120   9.533   5.477
 3278POPC   PO444856  15.593  10.018   5.480
 3278POPC   GL144857  15.764   9.932   5.846
 3278POPC   GL244858  16.117   9.971   5.812
 3278POPC   C1A44859  15.844   9.938   6.277
 3278POPC   D2A44860  16.174   9.950   6.575
 3278POPC   C3A44861  15.970   9.997   6.966
 3278POPC   C4A44862  15.810  10.046   7.375
 3278POPC   C1B44863  16.224   9.630   6.128
 3278POPC   C2B44864  16.365   9.459   6.535
 3278POPC   C3B44865  16.290   9.366   6.975
 3278POPC   C4B44866  16.233   9.687   7.278
 3279POPC   NC344867  26.758  32.349   5.419
 3279POPC   PO444868  27.220  31.809   5.536
 3279POPC   GL144869  26.963  32.082   5.831
 3279POPC   GL244870  26.572  32.144   5.840
 3279POPC   C1A44871  26.891  32.184   6.267
 3279POPC   D2A44872  27.078  31.990   6.610
 3279POPC   C3A44873  26.839  32.144   6.944
 3279POPC   C4A44874  26.753  31.966   7.353
 3279POPC   C1B44875  26.476  32.442   6.158
 3279POPC   C2B44876  26.456  32.353   6.583
 3279POPC   C3B44877  26.343  32.299   7.011
 3279POPC   C4B44878  26.646  32.450   7.307
 3280POPC   NC344879  27.218  40.744   5.441
 3280POPC   PO444880  26.540  40.591   5.488
 3280POPC   GL144881  26.833  40.677   5.807
 3280POPC   GL244882  26.851  41.016   5.844
 3280POPC   C1A44883  26.847  40.691   6.277
 3280POPC   D2A44884  26.746  40.944   6.668
 3280POPC   C3A44885  26.753  40.704   7.039
 3280POPC   C4A44886  27.076  40.648   7.335
 3280POPC   C1B44887  26.442  40.914   6.075
 3280POPC   C2B44888  26.327  40.726   6.490
 3280POPC   C3B44889  26.243  40.902   6.893
 3280POPC   C4B44890  26.448  41.089   7.232
 3281POPC   NC344891  16.254  20.230   5.600
 3281POPC   PO444892  15.830  20.761   5.511
 3281POPC   GL144893  15.852  20.493   5.858
 3281POPC   GL244894  16.142  20.618   5.919
 3281POPC   C1A44895  15.936  20.416   6.308
 3281POPC   D2A44896  15.662  20.512   6.640
 3281POPC   C3A44897  15.872  20.561   6.993
 3281POPC   C4A44898  15.902  20.915   7.224
 3281POPC   C1B44899  16.213  20.888   6.252
 3281POPC   C2B44900  16.481  20.907   6.596
 3281POPC   C3B44901  16.349  20.769   6.985
 3281POPC   C4B44902  16.334  20.313   7.111
 3282POPC   NC344903  32.475   5.738   5.103
 3282POPC   PO444904  32.061   5.481   5.555
 3282POPC   GL144905  32.067   5.602   5.936
 3282POPC   GL244906  32.119   5.965   5.827
 3282POPC   C1A44907  32.295   5.462   6.288
 3282POPC   D2A44908  32.357   5.725   6.668
 3282POPC   C3A44909  32.337   5.672   7.103
 3282POPC   C4A44910  32.054   5.727   7.481
 3282POPC   C1B44911  32.342   5.981   6.212
 3282POPC   C2B44912  32.414   6.231   6.566
 3282POPC   C3B44913  32.256   6.253   7.007
 3282POPC   C4B44914  32.434   6.074   7.403
 3283POPC   NC344915  41.641  34.691   5.309
 3283POPC   PO444916  41.370  34.235   5.610
 3283POPC   GL144917  41.373  34.622   5.841
 3283POPC   GL244918  41.433  34.967   5.697
 3283POPC   C1A44919  41.494  34.574   6.265
 3283POPC   D2A44920  41.485  34.300   6.641
 3283POPC   C3A44921  41.584  34.525   7.006
 3283POPC   C4A44922  41.568  34.983   7.070
 3283POPC   C1B44923  41.326  35.051   6.141
 3283POPC   C2B44924  41.313  34.909   6.597
 3283POPC   C3B44925  41.114  34.664   6.923
 3283POPC   C4B44926  41.267  34.694   7.368
 3284POPC   NC344927  41.639  12.541   5.466
 3284POPC   PO444928  41.495  13.197   5.468
 3284POPC   GL144929  41.460  12.882   5.817
 3284POPC   GL244930  41.296  12.526   5.847
 3284POPC   C1A44931  41.733  12.746   6.160
 3284POPC   D2A44932  41.944  12.589   6.535
 3284POPC   C3A44933  41.769  12.551   6.953
 3284POPC   C4A44934  41.599  12.843   7.232
 3284POPC   C1B44935  41.229  12.666   6.283
 3284POPC   C2B44936  41.326  12.652   6.741
 3284POPC   C3B44937  41.119  12.635   7.141
 3284POPC   C4B44938  41.265  12.589   7.568
 3285POPC   NC344939  19.302  43.174   5.397
 3285POPC   PO444940  18.682  42.953   5.324
 3285POPC   GL144941  18.869  43.079   5.701
 3285POPC   GL244942  18.702  42.802   5.853
 3285POPC   C1A44943  19.145  43.231   6.041
 3285POPC   D2A44944  19.000  43.425   6.397
 3285POPC   C3A44945  19.109  43.319   6.793
 3285POPC   C4A44946  19.219  43.277   7.195
 3285POPC   C1B44947  18.694  43.035   6.229
 3285POPC   C2B44948  18.651  43.032   6.673
 3285POPC   C3B44949  18.765  43.066   7.098
 3285POPC   C4B44950  18.674  42.911   7.532
 3286POPC   NC344951  24.737  26.908   5.406
 3286POPC   PO444952  24.556  26.350   5.742
 3286POPC   GL144953  24.519  26.726   5.958
 3286POPC   GL244954  24.335  27.016   5.797
 3286POPC   C1A44955  24.473  26.692   6.412
 3286POPC   D2A44956  24.142  26.861   6.664
 3286POPC   C3A44957  24.245  26.772   7.047
 3286POPC   C4A44958  24.593  26.909   7.173
 3286POPC   C1B44959  24.327  27.154   6.268
 3286POPC   C2B44960  24.603  27.117   6.704
 3286POPC   C3B44961  24.850  27.330   7.082
 3286POPC   C4B44962  24.743  27.199   7.553
 3287POPC   NC344963  39.497  20.009   5.464
 3287POPC   PO444964  40.048  19.664   5.342
 3287POPC   GL144965  39.874  19.717   5.743
 3287POPC   GL244966  39.690  19.461   5.879
 3287POPC   C1A44967  40.091  19.809   6.116
 3287POPC   D2A44968  40.103  19.994   6.495
 3287POPC   C3A44969  40.267  19.843   6.880
 3287POPC   C4A44970  40.056  19.739   7.251
 3287POPC   C1B44971  39.655  19.654   6.269
 3287POPC   C2B44972  39.872  19.545   6.617
 3287POPC   C3B44973  39.680  19.538   6.996
 3287POPC   C4B44974  39.518  19.855   7.255
 3288POPC   NC344975  23.071  15.745   5.660
 3288POPC   PO444976  22.528  15.928   5.440
 3288POPC   GL144977  22.614  15.822   5.858
 3288POPC   GL244978  22.800  16.129   5.932
 3288POPC   C1A44979  22.796  15.803   6.297
 3288POPC   D2A44980  23.078  15.510   6.394
 3288POPC   C3A44981  23.240  15.612   6.775
 3288POPC   C4A44982  23.122  15.554   7.193
 3288POPC   C1B44983  23.156  16.166   6.216
 3288POPC   C2B44984  23.039  16.141   6.620
 3288POPC   C3B44985  22.823  16.205   6.974
 3288POPC   C4B44986  22.867  15.973   7.291
 3289POPC   NC344987  42.603  41.048   5.187
 3289POPC   PO444988  41.965  40.805   5.340
 3289POPC   GL144989  42.186  40.788   5.702
 3289POPC   GL244990  42.553  40.842   5.681
 3289POPC   C1A44991  42.124  40.616   6.120
 3289POPC   D2A44992  42.152  40.382   6.508
 3289POPC   C3A44993  42.022  40.602   6.873
 3289POPC   C4A44994  42.281  40.691   7.224
 3289POPC   C1B44995  42.667  40.764   6.140
 3289POPC   C2B44996  42.811  40.917   6.603
 3289POPC   C3B44997  42.717  40.936   7.070
 3289POPC   C4B44998  42.698  40.772   7.526
 3290POPC   NC344999  43.651  40.591   5.425
 3290POPC   PO445000  42.962  40.741   5.304
 3290POPC   GL145001  43.079  40.747   5.744
 3290POPC   GL245002  42.911  40.458   5.769
 3290POPC   C1A45003  43.165  40.935   6.173
 3290POPC   D2A45004  43.419  41.130   6.499
 3290POPC   C3A45005  43.292  41.011   6.913
 3290POPC   C4A45006  43.167  40.942   7.339
 3290POPC   C1B45007  43.172  40.423   6.146
 3290POPC   C2B45008  43.257  40.471   6.585
 3290POPC   C3B45009  43.050  40.540   6.981
 3290POPC   C4B45010  43.071  40.462   7.423
 3291POPC   NC345011  16.471  36.121   5.313
 3291POPC   PO445012  17.025  36.603   5.209
 3291POPC   GL145013  16.936  36.596   5.690
 3291POPC   GL245014  16.819  36.234   5.810
 3291POPC   C1A45015  16.925  36.587   6.164
 3291POPC   D2A45016  16.887  36.222   6.452
 3291POPC   C3A45017  16.969  36.188   6.879
 3291POPC   C4A45018  17.060  35.974   7.254
 3291POPC   C1B45019  16.501  36.265   6.126
 3291POPC   C2B45020  16.377  36.140   6.551
 3291POPC   C3B45021  16.441  36.338   6.914
 3291POPC   C4B45022  16.655  36.320   7.267
 3292POPC   NC345023  40.882  28.645   5.228
 3292POPC   PO445024  40.855  27.974   5.444
 3292POPC   GL145025  41.030  28.265   5.746
 3292POPC   GL245026  41.080  28.649   5.723
 3292POPC   C1A45027  40.923  28.319   6.177
 3292POPC   D2A45028  40.773  28.077   6.538
 3292POPC   C3A45029  40.848  28.258   6.937
 3292POPC   C4A45030  40.556  28.504   7.160
 3292POPC   C1B45031  41.117  28.869   6.159
 3292POPC   C2B45032  41.341  28.869   6.578
 3292POPC   C3B45033  41.181  28.836   7.016
 3292POPC   C4B45034  41.067  28.552   7.331
 3293POPC   NC345035  10.749  37.608   5.505
 3293POPC   PO445036  10.276  38.073   5.430
 3293POPC   GL145037  10.455  37.896   5.800
 3293POPC   GL245038  10.820  37.912   5.923
 3293POPC   C1A45039  10.393  37.744   6.180
 3293POPC   D2A45040  10.558  37.477   6.460
 3293POPC   C3A45041  10.518  37.670   6.840
 3293POPC   C4A45042  10.291  37.607   7.188
 3293POPC   C1B45043  10.784  37.978   6.399
 3293POPC   C2B45044  10.859  38.073   6.825
 3293POPC   C3B45045  10.909  37.795   7.176
 3293POPC   C4B45046  10.903  37.731   7.625
 3294POPC   NC345047   8.827  22.490   5.288
 3294POPC   PO445048   8.784  21.844   5.420
 3294POPC   GL145049   8.723  22.219   5.751
 3294POPC   GL245050   8.905  22.557   5.797
 3294POPC   C1A45051   8.816  22.178   6.195
 3294POPC   D2A45052   9.002  21.973   6.584
 3294POPC   C3A45053   8.710  21.874   6.931
 3294POPC   C4A45054   8.730  21.914   7.380
 3294POPC   C1B45055   9.104  22.611   6.224
 3294POPC   C2B45056   9.005  22.493   6.661
 3294POPC   C3B45057   9.030  22.258   7.061
 3294POPC   C4B45058   9.299  22.336   7.425
 3295POPC   NC345059  20.329   5.674   5.056
 3295POPC   PO445060  19.731   5.696   5.313
 3295POPC   GL145061  19.706   5.744   5.768
 3295POPC   GL245062  20.012   5.887   5.837
 3295POPC   C1A45063  19.566   5.780   6.233
 3295POPC   D2A45064  19.621   6.022   6.647
 3295POPC   C3A45065  19.512   5.841   7.044
 3295POPC   C4A45066  19.633   5.931   7.464
 3295POPC   C1B45067  19.947   6.152   6.206
 3295POPC   C2B45068  20.137   6.081   6.603
 3295POPC   C3B45069  20.019   5.898   7.018
 3295POPC   C4B45070  20.153   5.971   7.437
 3296POPC   NC345071   6.182  23.220   5.640
 3296POPC   PO445072   5.824  23.673   5.248
 3296POPC   GL145073   5.980  23.830   5.700
 3296POPC   GL245074   6.122  23.615   5.955
 3296POPC   C1A45075   5.783  23.948   6.131
 3296POPC   D2A45076   5.823  23.678   6.506
 3296POPC   C3A45077   5.692  23.833   6.936
 3296POPC   C4A45078   5.740  23.639   7.362
 3296POPC   C1B45079   6.295  23.914   6.257
 3296POPC   C2B45080   6.149  24.036   6.670
 3296POPC   C3B45081   6.199  23.917   7.121
 3296POPC   C4B45082   6.245  23.985   7.575
 3297POPC   NC345083   0.300  36.318   5.238
 3297POPC   PO445084   0.880  35.907   5.384
 3297POPC   GL145085   0.518  35.929   5.624
 3297POPC   GL245086   0.433  35.616   5.810
 3297POPC   C1A45087   0.410  36.196   5.984
 3297POPC   D2A45088   0.320  36.175   6.440
 3297POPC   C3A45089   0.586  36.302   6.808
 3297POPC   C4A45090   0.402  36.345   7.237
 3297POPC   C1B45091   0.488  35.724   6.229
 3297POPC   C2B45092   0.644  35.796   6.651
 3297POPC   C3B45093   0.508  35.840   7.080
 3297POPC   C4B45094   0.550  35.594   7.465
 3298POPC   NC345095  42.793  33.705   5.484
 3298POPC   PO445096  42.310  34.150   5.531
 3298POPC   GL145097  42.372  33.737   5.775
 3298POPC   GL245098  42.050  33.587   5.832
 3298POPC   C1A45099  42.627  33.607   6.151
 3298POPC   D2A45100  42.605  33.799   6.571
 3298POPC   C3A45101  42.755  33.651   6.984
 3298POPC   C4A45102  42.500  33.619   7.391
 3298POPC   C1B45103  42.140  33.774   6.242
 3298POPC   C2B45104  42.107  33.696   6.669
 3298POPC   C3B45105  42.299  33.890   7.013
 3298POPC   C4B45106  42.050  33.970   7.380
 3299POPC   NC345107  31.783   7.322   5.434
 3299POPC   PO445108  31.181   7.534   5.368
 3299POPC   GL145109  31.410   7.491   5.773
 3299POPC   GL245110  31.611   7.179   5.903
 3299POPC   C1A45111  31.266   7.565   6.191
 3299POPC   D2A45112  31.283   7.303   6.528
 3299POPC   C3A45113  31.057   7.385   6.876
 3299POPC   C4A45114  31.235   7.193   7.243
 3299POPC   C1B45115  31.753   7.430   6.265
 3299POPC   C2B45116  31.619   7.667   6.600
 3299POPC   C3B45117  31.565   7.479   6.958
 3299POPC   C4B45118  31.784   7.238   7.193
 3300POPC   NC345119  33.182   2.867   5.384
 3300POPC   PO445120  32.499   2.714   5.327
 3300POPC   GL145121  32.720   2.906   5.747
 3300POPC   GL245122  33.085   3.044   5.856
 3300POPC   C1A45123  32.799   2.707   6.175
 3300POPC   D2A45124  32.985   2.534   6.587
 3300POPC   C3A45125  32.820   2.671   6.988
 3300POPC   C4A45126  32.626   2.605   7.382
 3300POPC   C1B45127  33.226   2.943   6.326
 3300POPC   C2B45128  33.341   2.863   6.778
 3300POPC   C3B45129  33.266   2.891   7.245
 3300POPC   C4B45130  33.342   3.009   7.686
 3301POPC   NC345131  39.406  31.744   5.380
 3301POPC   PO445132  38.899  31.215   5.386
 3301POPC   GL145133  39.054  31.282   5.793
 3301POPC   GL245134  39.187  31.634   5.845
 3301POPC   C1A45135  39.137  31.291   6.235
 3301POPC   D2A45136  38.894  31.298   6.604
 3301POPC   C3A45137  39.148  31.167   6.920
 3301POPC   C4A45138  39.285  31.269   7.309
 3301POPC   C1B45139  39.334  31.773   6.267
 3301POPC   C2B45140  39.369  31.606   6.692
 3301POPC   C3B45141  39.449  31.700   7.139
 3301POPC   C4B45142  39.317  31.696   7.601
 3302POPC   NC345143  10.000   3.289   5.276
 3302POPC   PO445144   9.706   3.792   5.512
 3302POPC   GL145145   9.738   3.462   5.775
 3302POPC   GL245146   9.585   3.693   6.013
 3302POPC   C1A45147  10.010   3.334   6.121
 3302POPC   D2A45148  10.210   3.408   6.528
 3302POPC   C3A45149  10.069   3.298   6.949
 3302POPC   C4A45150   9.804   3.404   7.297
 3302POPC   C1B45151   9.531   3.362   6.318
 3302POPC   C2B45152   9.592   3.382   6.763
 3302POPC   C3B45153   9.414   3.688   7.088
 3302POPC   C4B45154   9.350   3.572   7.535
 3303POPC   NC345155  21.956  31.657   5.540
 3303POPC   PO445156  22.557  31.343   5.544
 3303POPC   GL145157  22.411  31.654   5.835
 3303POPC   GL245158  22.072  31.574   5.993
 3303POPC   C1A45159  22.452  31.593   6.288
 3303POPC   D2A45160  22.423  31.304   6.612
 3303POPC   C3A45161  22.307  31.472   6.971
 3303POPC   C4A45162  22.172  31.228   7.318
 3303POPC   C1B45163  21.981  31.317   6.292
 3303POPC   C2B45164  21.941  31.524   6.624
 3303POPC   C3B45165  21.835  31.276   6.951
 3303POPC   C4B45166  21.868  31.612   7.261
 3304POPC   NC345167  24.425   9.767   5.300
 3304POPC   PO445168  23.994  10.158   5.643
 3304POPC   GL145169  24.311   9.851   5.797
 3304POPC   GL245170  24.676   9.752   5.754
 3304POPC   C1A45171  24.478   9.791   6.210
 3304POPC   D2A45172  24.405   9.647   6.581
 3304POPC   C3A45173  24.276  10.017   6.796
 3304POPC   C4A45174  24.514   9.945   7.125
 3304POPC   C1B45175  24.835   9.449   6.068
 3304POPC   C2B45176  24.908   9.449   6.517
 3304POPC   C3B45177  24.753   9.508   6.950
 3304POPC   C4B45178  24.974   9.541   7.340
 3305POPC   NC345179  35.874  26.088   5.262
 3305POPC   PO445180  36.296  25.566   5.261
 3305POPC   GL145181  36.218  25.599   5.720
 3305POPC   GL245182  36.070  25.942   5.768
 3305POPC   C1A45183  36.352  25.779   6.134
 3305POPC   D2A45184  36.095  26.109   6.369
 3305POPC   C3A45185  36.150  26.097   6.822
 3305POPC   C4A45186  36.160  26.156   7.272
 3305POPC   C1B45187  35.851  25.707   6.167
 3305POPC   C2B45188  35.719  25.852   6.623
 3305POPC   C3B45189  35.714  26.000   7.071
 3305POPC   C4B45190  35.732  25.891   7.524
 3306POPC   NC345191  38.165  27.036   5.530
 3306POPC   PO445192  38.550  26.593   5.238
 3306POPC   GL145193  38.597  26.653   5.737
 3306POPC   GL245194  38.243  26.700   5.874
 3306POPC   C1A45195  38.574  26.555   6.213
 3306POPC   D2A45196  38.297  26.735   6.534
 3306POPC   C3A45197  38.451  26.575   6.903
 3306POPC   C4A45198  38.820  26.746   7.113
 3306POPC   C1B45199  38.438  27.042   6.125
 3306POPC   C2B45200  38.713  27.216   6.429
 3306POPC   C3B45201  38.683  27.196   6.876
 3306POPC   C4B45202  38.323  27.036   7.140
 3307POPC   NC345203  24.851  28.754   5.309
 3307POPC   PO445204  25.330  29.176   5.504
 3307POPC   GL145205  25.231  29.014   5.843
 3307POPC   GL245206  24.914  28.815   5.804
 3307POPC   C1A45207  25.363  29.166   6.257
 3307POPC   D2A45208  25.256  29.299   6.667
 3307POPC   C3A45209  25.375  28.964   6.921
 3307POPC   C4A45210  25.522  28.894   7.309
 3307POPC   C1B45211  24.874  29.007   6.191
 3307POPC   C2B45212  25.001  28.841   6.572
 3307POPC   C3B45213  24.884  29.011   6.962
 3307POPC   C4B45214  25.022  29.064   7.383
 3308POPC   NC345215  37.104  13.797   5.209
 3308POPC   PO445216  36.599  13.294   5.174
 3308POPC   GL145217  36.820  13.497   5.583
 3308POPC   GL245218  36.698  13.828   5.694
 3308POPC   C1A45219  37.006  13.548   6.056
 3308POPC   D2A45220  36.887  13.501   6.554
 3308POPC   C3A45221  37.163  13.614   6.953
 3308POPC   C4A45222  37.163  13.926   7.314
 3308POPC   C1B45223  36.576  13.783   6.143
 3308POPC   C2B45224  36.724  13.994   6.521
 3308POPC   C3B45225  36.785  13.944   6.951
 3308POPC   C4B45226  36.680  13.745   7.275
 3309POPC   NC345227  10.008   6.642   5.205
 3309POPC   PO445228   9.317   6.414   5.208
 3309POPC   GL145229   9.539   6.645   5.563
 3309POPC   GL245230   9.830   6.451   5.666
 3309POPC   C1A45231   9.526   6.684   6.042
 3309POPC   D2A45232   9.580   6.415   6.422
 3309POPC   C3A45233   9.471   6.638   6.825
 3309POPC   C4A45234   9.559   7.001   7.119
 3309POPC   C1B45235  10.058   6.668   6.017
 3309POPC   C2B45236  10.064   6.578   6.457
 3309POPC   C3B45237   9.996   6.752   6.877
 3309POPC   C4B45238   9.795   6.554   7.224
 3310POPC   NC345239  43.498   1.421   5.176
 3310POPC   PO445240  43.160   1.058   5.670
 3310POPC   GL145241  43.003   1.395   5.903
 3310POPC   GL245242  42.673   1.461   5.937
 3310POPC   C1A45243  43.127   1.505   6.296
 3310POPC   D2A45244  43.478   1.379   6.531
 3310POPC   C3A45245  43.461   1.468   6.954
 3310POPC   C4A45246  43.248   1.183   7.156
 3310POPC   C1B45247  42.755   1.076   6.213
 3310POPC   C2B45248  43.030   1.005   6.552
 3310POPC   C3B45249  42.845   0.987   6.937
 3310POPC   C4B45250  42.867   0.891   7.355
 3311POPC   NC345251  41.956   9.957   5.514
 3311POPC   PO445252  41.279  10.129   5.478
 3311POPC   GL145253  41.520   9.805   5.733
 3311POPC   GL245254  41.276   9.633   5.853
 3311POPC   C1A45255  41.682   9.602   6.156
 3311POPC   D2A45256  41.940   9.711   6.544
 3311POPC   C3A45257  41.811   9.799   6.966
 3311POPC   C4A45258  41.672   9.478   7.264
 3311POPC   C1B45259  41.333   9.998   6.165
 3311POPC   C2B45260  41.438   9.873   6.569
 3311POPC   C3B45261  41.315   9.666   6.940
 3311POPC   C4B45262  41.200   9.877   7.315
 3312POPC   NC345263  33.586  32.516   5.177
 3312POPC   PO445264  33.809  33.080   5.483
 3312POPC   GL145265  34.001  33.071   5.814
 3312POPC   GL245266  34.177  33.356   5.777
 3312POPC   C1A45267  33.806  33.124   6.179
 3312POPC   D2A45268  33.631  32.988   6.542
 3312POPC   C3A45269  33.808  33.070   6.923
 3312POPC   C4A45270  33.654  32.941   7.339
 3312POPC   C1B45271  34.310  33.210   6.197
 3312POPC   C2B45272  34.382  33.069   6.599
 3312POPC   C3B45273  34.327  33.343   6.937
 3312POPC   C4B45274  34.065  33.301   7.268
 3313POPC   NC345275  19.289  15.581   5.347
 3313POPC   PO445276  18.830  15.068   5.354
 3313POPC   GL145277  18.985  15.269   5.691
 3313POPC   GL245278  19.358  15.221   5.694
 3313POPC   C1A45279  18.951  15.154   6.122
 3313POPC   D2A45280  18.793  15.314   6.529
 3313POPC   C3A45281  18.923  15.197   6.927
 3313POPC   C4A45282  18.767  14.886   7.218
 3313POPC   C1B45283  19.455  15.273   6.119
 3313POPC   C2B45284  19.305  15.199   6.519
 3313POPC   C3B45285  19.431  15.063   6.895
 3313POPC   C4B45286  19.263  15.140   7.306
 3314POPC   NC345287  43.880  10.557   5.411
 3314POPC   PO445288  44.272  10.217   5.714
 3314POPC   GL145289  43.811  10.310   5.882
 3314POPC   GL245290  43.558  10.616   5.807
 3314POPC   C1A45291  43.721  10.285   6.328
 3314POPC   D2A45292  44.085  10.326   6.614
 3314POPC   C3A45293  43.949  10.460   6.999
 3314POPC   C4A45294  43.666  10.330   7.364
 3314POPC   C1B45295  43.803  10.784   6.150
 3314POPC   C2B45296  43.812  10.783   6.590
 3314POPC   C3B45297  43.975  10.960   6.958
 3314POPC   C4B45298  43.739  10.813   7.276
 3315POPC   NC345299  41.844  34.125   5.491
 3315POPC   PO445300  41.423  33.601   5.406
 3315POPC   GL145301  41.548  33.499   5.788
 3315POPC   GL245302  41.567  33.831   5.875
 3315POPC   C1A45303  41.706  33.478   6.222
 3315POPC   D2A45304  41.561  33.708   6.565
 3315POPC   C3A45305  41.681  33.499   6.900
 3315POPC   C4A45306  41.770  33.573   7.277
 3315POPC   C1B45307  41.719  34.075   6.217
 3315POPC   C2B45308  41.999  34.180   6.570
 3315POPC   C3B45309  41.847  34.079   6.934
 3315POPC   C4B45310  41.532  34.014   7.172
 3316POPC   NC345311  39.109  39.076   5.166
 3316POPC   PO445312  39.665  39.506   5.360
 3316POPC   GL145313  39.513  39.251   5.722
 3316POPC   GL245314  39.249  38.962   5.691
 3316POPC   C1A45315  39.215  39.373   6.067
 3316POPC   D2A45316  39.092  39.526   6.473
 3316POPC   C3A45317  39.311  39.490   6.833
 3316POPC   C4A45318  39.191  39.442   7.251
 3316POPC   C1B45319  39.438  38.922   6.131
 3316POPC   C2B45320  39.353  38.991   6.570
 3316POPC   C3B45321  39.341  39.018   7.000
 3316POPC   C4B45322  39.129  38.817   7.251
 3317POPC   NC345323  32.912  31.474   5.225
 3317POPC   PO445324  32.267  31.300   5.405
 3317POPC   GL145325  32.163  31.376   5.834
 3317POPC   GL245326  32.457  31.501   5.859
 3317POPC   C1A45327  32.067  31.375   6.308
 3317POPC   D2A45328  32.271  31.399   6.728
 3317POPC   C3A45329  32.134  31.359   7.186
 3317POPC   C4A45330  32.019  31.193   7.624
 3317POPC   C1B45331  32.554  31.585   6.271
 3317POPC   C2B45332  32.750  31.500   6.615
 3317POPC   C3B45333  32.641  31.622   7.016
 3317POPC   C4B45334  32.605  31.417   7.405
 3318POPC   NC345335  38.140  19.807   5.252
 3318POPC   PO445336  38.812  19.824   5.308
 3318POPC   GL145337  38.525  19.921   5.634
 3318POPC   GL245338  38.316  19.652   5.723
 3318POPC   C1A45339  38.467  19.969   6.094
 3318POPC   D2A45340  38.457  19.865   6.530
 3318POPC   C3A45341  38.473  20.140   6.891
 3318POPC   C4A45342  38.407  19.947   7.287
 3318POPC   C1B45343  38.285  19.492   6.136
 3318POPC   C2B45344  38.062  19.502   6.529
 3318POPC   C3B45345  38.232  19.517   6.969
 3318POPC   C4B45346  38.224  19.493   7.459
 3319POPC   NC345347  27.249   4.354   5.656
 3319POPC   PO445348  26.687   4.093   5.292
 3319POPC   GL145349  26.703   4.270   5.743
 3319POPC   GL245350  26.831   4.578   5.839
 3319POPC   C1A45351  26.834   4.233   6.213
 3319POPC   D2A45352  26.619   4.274   6.607
 3319POPC   C3A45353  26.726   4.074   6.977
 3319POPC   C4A45354  26.913   4.231   7.352
 3319POPC   C1B45355  26.968   4.744   6.238
 3319POPC   C2B45356  27.159   4.552   6.577
 3319POPC   C3B45357  26.937   4.533   6.931
 3319POPC   C4B45358  26.879   4.779   7.266
 3320POPC   NC345359  43.695  33.375   4.904
 3320POPC   PO445360  43.714  32.998   5.507
 3320POPC   GL145361  43.948  33.064   5.858
 3320POPC   GL245362  44.219  33.318   5.765
 3320POPC   C1A45363  43.646  32.991   6.206
 3320POPC   D2A45364  43.472  33.085   6.602
 3320POPC   C3A45365  43.715  32.887   6.914
 3320POPC   C4A45366  43.758  33.010   7.334
 3320POPC   C1B45367  44.282  33.313   6.212
 3320POPC   C2B45368  43.988  33.204   6.527
 3320POPC   C3B45369  43.918  33.344   6.954
 3320POPC   C4B45370  44.243  33.233   7.266
 3321POPC   NC345371  15.482  41.684   5.424
 3321POPC   PO445372  14.963  41.423   5.652
 3321POPC   GL145373  15.233  41.653   5.913
 3321POPC   GL245374  15.569  41.523   5.899
 3321POPC   C1A45375  15.107  41.744   6.345
 3321POPC   D2A45376  14.884  41.575   6.671
 3321POPC   C3A45377  15.003  41.685   7.097
 3321POPC   C4A45378  14.959  41.409   7.470
 3321POPC   C1B45379  15.546  41.486   6.350
 3321POPC   C2B45380  15.453  41.643   6.770
 3321POPC   C3B45381  15.485  41.825   7.194
 3321POPC   C4B45382  15.392  41.607   7.603
 3322POPC   NC345383  26.529  35.188   5.461
 3322POPC   PO445384  26.041  34.953   5.069
 3322POPC   GL145385  26.014  35.026   5.556
 3322POPC   GL245386  26.075  35.406   5.629
 3322POPC   C1A45387  25.933  35.114   6.033
 3322POPC   D2A45388  25.853  35.031   6.507
 3322POPC   C3A45389  26.035  35.200   6.903
 3322POPC   C4A45390  26.010  35.236   7.343
 3322POPC   C1B45391  26.246  35.554   6.041
 3322POPC   C2B45392  26.226  35.495   6.504
 3322POPC   C3B45393  26.310  35.649   6.944
 3322POPC   C4B45394  26.056  35.797   7.289
 3323POPC   NC345395   2.579   3.192   5.428
 3323POPC   PO445396   2.840   3.818   5.546
 3323POPC   GL145397   2.879   3.592   5.870
 3323POPC   GL245398   2.533   3.524   5.860
 3323POPC   C1A45399   3.044   3.556   6.273
 3323POPC   D2A45400   3.133   3.328   6.641
 3323POPC   C3A45401   3.219   3.522   7.022
 3323POPC   C4A45402   3.117   3.282   7.382
 3323POPC   C1B45403   2.581   3.818   6.245
 3323POPC   C2B45404   2.774   3.754   6.672
 3323POPC   C3B45405   2.709   3.573   7.091
 3323POPC   C4B45406   2.599   3.807   7.466
 3324POPC   NC345407  40.367  24.746   5.280
 3324POPC   PO445408  39.857  24.352   5.519
 3324POPC   GL145409  39.845  24.385   5.972
 3324POPC   GL245410  39.693  24.147   6.150
 3324POPC   C1A45411  40.133  24.466   6.330
 3324POPC   D2A45412  40.361  24.617   6.689
 3324POPC   C3A45413  40.222  24.385   7.037
 3324POPC   C4A45414  40.251  24.586   7.412
 3324POPC   C1B45415  39.627  24.542   6.420
 3324POPC   C2B45416  39.505  24.634   6.837
 3324POPC   C3B45417  39.755  24.575   7.207
 3324POPC   C4B45418  39.827  24.426   7.617
 3325POPC   NC345419   0.452  40.371   5.445
 3325POPC   PO445420   0.111  39.715   5.521
 3325POPC   GL145421   0.373  39.924   5.803
 3325POPC   GL245422   0.145  39.794   6.046
 3325POPC   C1A45423   0.620  39.930   6.190
 3325POPC   D2A45424   0.463  39.870   6.616
 3325POPC   C3A45425   0.722  39.964   6.960
 3325POPC   C4A45426   0.645  40.248   7.343
 3325POPC   C1B45427   0.140  40.197   6.216
 3325POPC   C2B45428   0.201  40.317   6.641
 3325POPC   C3B45429   0.217  40.125   7.036
 3325POPC   C4B45430   0.389  39.752   7.265
 3326POPC   NC345431  43.363  24.632   5.328
 3326POPC   PO445432  43.995  24.389   5.357
 3326POPC   GL145433  43.968  24.432   5.793
 3326POPC   GL245434  43.640  24.556   5.797
 3326POPC   C1A45435  44.065  24.542   6.237
 3326POPC   D2A45436  43.930  24.796   6.620
 3326POPC   C3A45437  43.763  24.566   6.997
 3326POPC   C4A45438  43.930  24.267   7.216
 3326POPC   C1B45439  43.604  24.779   6.206
 3326POPC   C2B45440  43.430  24.726   6.644
 3326POPC   C3B45441  43.479  24.980   7.017
 3326POPC   C4B45442  43.537  24.824   7.444
 3327POPC   NC345443  44.572  26.836   5.365
 3327POPC   PO445444  44.671  26.401   5.450
 3327POPC   GL145445  44.692  26.638   5.853
 3327POPC   GL245446  44.989  26.829   5.799
 3327POPC   C1A45447  44.700  26.930   6.254
 3327POPC   D2A45448  44.630  26.966   6.732
 3327POPC   C3A45449  44.735  26.613   7.003
 3327POPC   C4A45450  44.944  26.423   7.381
 3327POPC   C1B45451   0.201  27.019   6.191
 3327POPC   C2B45452   0.053  27.226   6.588
 3327POPC   C3B45453   0.067  27.066   7.031
 3327POPC   C4B45454  44.832  26.931   7.383
 3328POPC   NC345455  42.980  35.741   5.343
 3328POPC   PO445456  43.273  36.368   5.435
 3328POPC   GL145457  43.188  36.062   5.711
 3328POPC   GL245458  42.848  36.104   5.703
 3328POPC   C1A45459  43.203  36.009   6.153
 3328POPC   D2A45460  43.437  35.968   6.537
 3328POPC   C3A45461  43.263  36.084   6.945
 3328POPC   C4A45462  43.115  36.442   7.205
 3328POPC   C1B45463  42.752  35.799   6.045
 3328POPC   C2B45464  42.692  35.879   6.478
 3328POPC   C3B45465  42.746  36.105   6.859
 3328POPC   C4B45466  42.867  35.962   7.260
 3329POPC   NC345467  41.097  22.003   5.416
 3329POPC   PO445468  40.498  21.743   5.237
 3329POPC   GL145469  40.594  21.902   5.706
 3329POPC   GL245470  40.746  22.207   5.741
 3329POPC   C1A45471  40.875  21.908   6.129
 3329POPC   D2A45472  40.960  22.161   6.549
 3329POPC   C3A45473  40.802  21.990   6.957
 3329POPC   C4A45474  40.486  22.004   7.251
 3329POPC   C1B45475  40.554  22.303   6.182
 3329POPC   C2B45476  40.507  22.349   6.667
 3329POPC   C3B45477  40.613  22.481   7.108
 3329POPC   C4B45478  40.420  22.398   7.558
 3330POPC   NC345479  40.419  27.794   5.477
 3330POPC   PO445480  41.047  27.457   5.358
 3330POPC   GL145481  40.838  27.507   5.750
 3330POPC   GL245482  40.973  27.163   5.848
 3330POPC   C1A45483  40.754  27.744   6.140
 3330POPC   D2A45484  40.522  27.637   6.554
 3330POPC   C3A45485  40.738  27.739   6.951
 3330POPC   C4A45486  40.692  27.618   7.358
 3330POPC   C1B45487  41.126  27.404   6.199
 3330POPC   C2B45488  41.059  27.497   6.641
 3330POPC   C3B45489  41.120  27.416   7.114
 3330POPC   C4B45490  41.142  27.564   7.550
 3331POPC   NC345491  37.467  14.822   5.393
 3331POPC   PO445492  37.939  15.319   5.410
 3331POPC   GL145493  37.632  15.201   5.730
 3331POPC   GL245494  37.781  14.898   5.826
 3331POPC   C1A45495  37.606  15.229   6.194
 3331POPC   D2A45496  37.922  15.223   6.534
 3331POPC   C3A45497  37.774  15.427   6.875
 3331POPC   C4A45498  37.431  15.331   7.113
 3331POPC   C1B45499  38.037  14.851   6.205
 3331POPC   C2B45500  37.957  14.683   6.615
 3331POPC   C3B45501  37.738  14.873   6.938
 3331POPC   C4B45502  37.877  15.101   7.274
 3332POPC   NC345503  18.913   1.457   5.352
 3332POPC   PO445504  18.978   0.795   5.082
 3332POPC   GL145505  18.976   1.046   5.635
 3332POPC   GL245506  19.119   1.389   5.795
 3332POPC   C1A45507  19.083   1.046   6.128
 3332POPC   D2A45508  19.218   1.145   6.545
 3332POPC   C3A45509  19.113   0.874   6.878
 3332POPC   C4A45510  19.141   1.008   7.286
 3332POPC   C1B45511  18.920   1.518   6.210
 3332POPC   C2B45512  18.860   1.515   6.662
 3332POPC   C3B45513  18.947   1.475   7.101
 3332POPC   C4B45514  19.318   1.515   7.343
 3333POPC   NC345515  33.911  36.527   5.361
 3333POPC   PO445516  34.070  37.098   5.315
 3333POPC   GL145517  34.045  36.876   5.712
 3333POPC   GL245518  33.687  36.811   5.787
 3333POPC   C1A45519  34.053  36.781   6.165
 3333POPC   D2A45520  33.864  36.583   6.545
 3333POPC   C3A45521  33.987  36.739   6.958
 3333POPC   C4A45522  34.004  37.146   7.104
 3333POPC   C1B45523  33.577  36.940   6.247
 3333POPC   C2B45524  33.634  37.034   6.716
 3333POPC   C3B45525  33.493  36.958   7.152
 3333POPC   C4B45526  33.347  37.032   7.580
 3334POPC   NC345527  26.623   6.209   5.466
 3334POPC   PO445528  26.662   5.528   5.474
 3334POPC   GL145529  26.864   5.644   5.829
 3334POPC   GL245530  26.833   6.000   5.893
 3334POPC   C1A45531  26.664   5.657   6.224
 3334POPC   D2A45532  26.662   5.949   6.504
 3334POPC   C3A45533  26.700   5.715   6.867
 3334POPC   C4A45534  26.731   5.765   7.289
 3334POPC   C1B45535  27.069   6.179   6.239
 3334POPC   C2B45536  27.147   6.018   6.646
 3334POPC   C3B45537  26.992   6.119   7.050
 3334POPC   C4B45538  27.301   6.138   7.359
 3335POPC   NC345539   2.596  17.197   5.446
 3335POPC   PO445540   2.962  17.790   5.347
 3335POPC   GL145541   2.879  17.604   5.803
 3335POPC   GL245542   2.889  17.245   5.897
 3335POPC   C1A45543   2.809  17.593   6.294
 3335POPC   D2A45544   2.908  17.443   6.747
 3335POPC   C3A45545   2.796  17.707   7.117
 3335POPC   C4A45546   2.388  17.928   7.164
 3335POPC   C1B45547   2.582  17.128   6.232
 3335POPC   C2B45548   2.491  17.061   6.706
 3335POPC   C3B45549   2.570  17.252   7.138
 3335POPC   C4B45550   2.470  17.544   7.504
 3336POPC   NC345551  29.135   3.171   5.682
 3336POPC   PO445552  29.185   3.758   5.309
 3336POPC   GL145553  29.315   3.755   5.724
 3336POPC   GL245554  29.009   3.631   5.893
 3336POPC   C1A45555  29.468   3.613   6.124
 3336POPC   D2A45556  29.498   3.349   6.502
 3336POPC   C3A45557  29.618   3.611   6.820
 3336POPC   C4A45558  29.517   3.636   7.231
 3336POPC   C1B45559  29.038   3.328   6.283
 3336POPC   C2B45560  28.986   3.116   6.664
 3336POPC   C3B45561  29.192   3.338   6.970
 3336POPC   C4B45562  29.241   3.250   7.418
 3337POPC   NC345563  17.060  16.325   5.499
 3337POPC   PO445564  16.560  16.830   5.414
 3337POPC   GL145565  16.693  16.943   5.813
 3337POPC   GL245566  17.067  16.869   5.778
 3337POPC   C1A45567  16.642  16.834   6.243
 3337POPC   D2A45568  16.595  17.023   6.648
 3337POPC   C3A45569  16.588  16.736   6.987
 3337POPC   C4A45570  16.469  16.753   7.410
 3337POPC   C1B45571  17.180  16.741   6.206
 3337POPC   C2B45572  16.961  16.655   6.593
 3337POPC   C3B45573  17.031  16.470   6.987
 3337POPC   C4B45574  17.254  16.697   7.289
 3338POPC   NC345575  11.544  41.565   5.349
 3338POPC   PO445576  10.921  41.324   5.561
 3338POPC   GL145577  11.166  41.634   5.743
 3338POPC   GL245578  11.396  41.382   5.799
 3338POPC   C1A45579  11.322  41.777   6.135
 3338POPC   D2A45580  11.529  41.804   6.539
 3338POPC   C3A45581  11.320  41.843   6.941
 3338POPC   C4A45582  11.509  41.973   7.321
 3338POPC   C1B45583  11.236  41.269   6.200
 3338POPC   C2B45584  11.473  41.261   6.593
 3338POPC   C3B45585  11.596  41.430   6.956
 3338POPC   C4B45586  11.329  41.460   7.306
 3339POPC   NC345587  38.088  32.365   5.522
 3339POPC   PO445588  38.699  32.051   5.451
 3339POPC   GL145589  38.419  32.051   5.780
 3339POPC   GL245590  38.652  32.246   5.949
 3339POPC   C1A45591  38.323  31.982   6.226
 3339POPC   D2A45592  38.502  32.193   6.596
 3339POPC   C3A45593  38.236  32.236   6.959
 3339POPC   C4A45594  38.086  32.595   7.195
 3339POPC   C1B45595  38.528  32.590   6.202
 3339POPC   C2B45596  38.750  32.660   6.571
 3339POPC   C3B45597  38.811  32.485   6.961
 3339POPC   C4B45598  38.705  32.080   7.099
 3340POPC   NC345599  32.471   6.722   5.283
 3340POPC   PO445600  32.185   6.098   5.325
 3340POPC   GL145601  32.198   6.467   5.676
 3340POPC   GL245602  31.973   6.793   5.767
 3340POPC   C1A45603  32.092   6.436   6.131
 3340POPC   D2A45604  32.010   6.576   6.554
 3340POPC   C3A45605  32.401   6.694   6.755
 3340POPC   C4A45606  32.529   6.673   7.183
 3340POPC   C1B45607  32.069   7.016   6.198
 3340POPC   C2B45608  32.037   7.080   6.689
 3340POPC   C3B45609  32.028   6.792   7.081
 3340POPC   C4B45610  31.992   6.943   7.547
 3341POPC   NC345611  36.920  15.875   5.380
 3341POPC   PO445612  36.513  16.413   5.529
 3341POPC   GL145613  36.773  16.297   5.860
 3341POPC   GL245614  36.678  15.973   5.818
 3341POPC   C1A45615  37.022  16.113   6.188
 3341POPC   D2A45616  36.989  15.974   6.631
 3341POPC   C3A45617  37.011  16.168   7.081
 3341POPC   C4A45618  36.915  16.245   7.556
 3341POPC   C1B45619  36.530  15.885   6.214
 3341POPC   C2B45620  36.495  15.781   6.635
 3341POPC   C3B45621  36.557  15.922   7.045
 3341POPC   C4B45622  36.406  16.028   7.424
 3342POPC   NC345623  33.904  44.144   5.328
 3342POPC   PO445624  33.476  43.597   5.630
 3342POPC   GL145625  33.691  43.878   5.844
 3342POPC   GL245626  33.799  43.579   6.028
 3342POPC   C1A45627  33.746  44.002   6.264
 3342POPC   D2A45628  33.843  43.820   6.621
 3342POPC   C3A45629  33.809  44.048   6.981
 3342POPC   C4A45630  34.056  44.345   7.218
 3342POPC   C1B45631  33.594  43.412   6.346
 3342POPC   C2B45632  33.737  43.329   6.731
 3342POPC   C3B45633  33.831  43.528   7.087
 3342POPC   C4B45634  33.771  43.497   7.529
 3343POPC   NC345635   7.129  21.106   5.286
 3343POPC   PO445636   7.367  20.531   5.230
 3343POPC   GL145637   7.284  20.540   5.699
 3343POPC   GL245638   7.367  20.866   5.740
 3343POPC   C1A45639   7.481  20.486   6.131
 3343POPC   D2A45640   7.450  20.671   6.548
 3343POPC   C3A45641   7.576  20.589   6.987
 3343POPC   C4A45642   7.335  20.620   7.356
 3343POPC   C1B45643   7.124  20.849   6.135
 3343POPC   C2B45644   6.957  20.815   6.542
 3343POPC   C3B45645   7.144  20.908   6.940
 3343POPC   C4B45646   6.907  20.904   7.309
 3344POPC   NC345647   0.335  37.079   5.268
 3344POPC   PO445648   0.700  36.528   5.114
 3344POPC   GL145649   0.598  36.630   5.582
 3344POPC   GL245650   0.329  36.863   5.750
 3344POPC   C1A45651   0.704  36.657   6.038
 3344POPC   D2A45652   0.479  36.666   6.435
 3344POPC   C3A45653   0.615  36.839   6.842
 3344POPC   C4A45654   0.556  36.878   7.285
 3344POPC   C1B45655   0.425  37.125   6.155
 3344POPC   C2B45656   0.606  37.293   6.563
 3344POPC   C3B45657   0.457  37.320   7.005
 3344POPC   C4B45658   0.076  37.160   7.217
 3345POPC   NC345659  25.999  38.612   5.297
 3345POPC   PO445660  26.307  38.017   5.465
 3345POPC   GL145661  26.175  38.417   5.752
 3345POPC   GL245662  25.847  38.593   5.773
 3345POPC   C1A45663  26.162  38.688   6.159
 3345POPC   D2A45664  25.951  38.787   6.582
 3345POPC   C3A45665  25.970  38.514   6.946
 3345POPC   C4A45666  26.136  38.513   7.364
 3345POPC   C1B45667  25.643  38.700   6.179
 3345POPC   C2B45668  25.434  38.648   6.596
 3345POPC   C3B45669  25.530  38.768   7.012
 3345POPC   C4B45670  25.728  38.784   7.416
 3346POPC   NC345671  20.838  26.500   5.517
 3346POPC   PO445672  20.883  27.176   5.507
 3346POPC   GL145673  20.661  26.912   5.787
 3346POPC   GL245674  20.320  26.949   5.776
 3346POPC   C1A45675  20.578  26.692   6.172
 3346POPC   D2A45676  20.833  26.595   6.518
 3346POPC   C3A45677  20.641  26.811   6.849
 3346POPC   C4A45678  20.692  26.741   7.255
 3346POPC   C1B45679  20.325  27.183   6.126
 3346POPC   C2B45680  20.354  27.126   6.541
 3346POPC   C3B45681  20.319  27.312   6.925
 3346POPC   C4B45682  20.473  27.196   7.315
 3347POPC   NC345683  25.458   4.835   5.552
 3347POPC   PO445684  25.079   5.382   5.389
 3347POPC   GL145685  25.307   5.277   5.807
 3347POPC   GL245686  25.637   5.374   5.984
 3347POPC   C1A45687  25.231   5.211   6.271
 3347POPC   D2A45688  25.476   5.148   6.667
 3347POPC   C3A45689  25.232   5.189   7.043
 3347POPC   C4A45690  25.107   5.075   7.461
 3347POPC   C1B45691  25.665   4.964   6.199
 3347POPC   C2B45692  25.678   4.683   6.601
 3347POPC   C3B45693  25.528   4.732   7.019
 3347POPC   C4B45694  25.604   5.028   7.352
 3348POPC   NC345695  11.214  11.309   5.360
 3348POPC   PO445696  11.888  11.289   5.349
 3348POPC   GL145697  11.688  11.099   5.744
 3348POPC   GL245698  11.369  11.240   5.829
 3348POPC   C1A45699  11.551  10.948   6.200
 3348POPC   D2A45700  11.442  11.254   6.512
 3348POPC   C3A45701  11.392  11.223   6.917
 3348POPC   C4A45702  11.652  11.247   7.274
 3348POPC   C1B45703  11.164  11.452   6.145
 3348POPC   C2B45704  10.952  11.431   6.531
 3348POPC   C3B45705  10.974  11.533   6.941
 3348POPC   C4B45706  11.189  11.489   7.290
 3349POPC   NC345707   3.369  34.934   5.286
 3349POPC   PO445708   3.818  34.468   5.438
 3349POPC   GL145709   3.426  34.525   5.709
 3349POPC   GL245710   3.323  34.884   5.818
 3349POPC   C1A45711   3.254  34.470   6.157
 3349POPC   D2A45712   3.478  34.612   6.561
 3349POPC   C3A45713   3.316  34.513   6.982
 3349POPC   C4A45714   3.538  34.574   7.366
 3349POPC   C1B45715   3.238  34.976   6.267
 3349POPC   C2B45716   3.163  34.984   6.735
 3349POPC   C3B45717   3.336  35.003   7.183
 3349POPC   C4B45718   3.565  34.990   7.631
 3350POPC   NC345719  17.014  22.488   5.634
 3350POPC   PO445720  16.580  22.791   5.138
 3350POPC   GL145721  16.625  22.878   5.624
 3350POPC   GL245722  16.596  22.600   5.862
 3350POPC   C1A45723  16.802  23.043   6.050
 3350POPC   D2A45724  16.898  22.914   6.479
 3350POPC   C3A45725  16.749  23.164   6.842
 3350POPC   C4A45726  16.838  22.998   7.256
 3350POPC   C1B45727  16.441  22.724   6.240
 3350POPC   C2B45728  16.371  22.917   6.588
 3350POPC   C3B45729  16.446  22.791   6.983
 3350POPC   C4B45730  16.432  22.630   7.396
 3351POPC   NC345731   5.686  38.669   5.248
 3351POPC   PO445732   5.904  39.351   5.289
 3351POPC   GL145733   6.153  39.143   5.655
 3351POPC   GL245734   6.159  39.496   5.766
 3351POPC   C1A45735   6.182  39.127   6.122
 3351POPC   D2A45736   5.938  39.182   6.504
 3351POPC   C3A45737   5.965  38.926   6.852
 3351POPC   C4A45738   5.607  38.975   7.093
 3351POPC   C1B45739   6.025  39.604   6.223
 3351POPC   C2B45740   5.865  39.759   6.606
 3351POPC   C3B45741   5.630  39.551   6.938
 3351POPC   C4B45742   5.707  39.404   7.344
 3352POPC   NC345743   9.644  26.363   5.509
 3352POPC   PO445744   9.896  25.716   5.325
 3352POPC   GL145745   9.796  25.941   5.733
 3352POPC   GL245746  10.070  26.013   5.822
 3352POPC   C1A45747   9.721  25.870   6.203
 3352POPC   D2A45748   9.949  25.886   6.606
 3352POPC   C3A45749   9.703  26.012   6.956
 3352POPC   C4A45750   9.522  25.967   7.359
 3352POPC   C1B45751   9.973  26.317   6.151
 3352POPC   C2B45752   9.751  26.371   6.554
 3352POPC   C3B45753   9.940  26.471   6.937
 3352POPC   C4B45754   9.949  26.288   7.316
 3353POPC   NC345755  23.437  42.218   5.272
 3353POPC   PO445756  23.758  42.691   5.345
 3353POPC   GL145757  23.587  42.361   5.739
 3353POPC   GL245758  23.294  42.074   5.773
 3353POPC   C1A45759  23.626  42.221   6.214
 3353POPC   D2A45760  23.639  42.306   6.702
 3353POPC   C3A45761  23.907  42.449   7.075
 3353POPC   C4A45762  24.133  42.718   7.393
 3353POPC   C1B45763  23.179  41.935   6.241
 3353POPC   C2B45764  23.224  41.999   6.730
 3353POPC   C3B45765  23.419  42.162   7.157
 3353POPC   C4B45766  23.382  42.278   7.642
 3354POPC   NC345767   7.936  41.195   5.612
 3354POPC   PO445768   8.428  41.629   5.305
 3354POPC   GL145769   8.221  41.782   5.741
 3354POPC   GL245770   8.046  41.520   5.956
 3354POPC   C1A45771   8.060  41.943   6.178
 3354POPC   D2A45772   8.104  41.670   6.559
 3354POPC   C3A45773   7.962  41.853   6.942
 3354POPC   C4A45774   8.081  41.859   7.375
 3354POPC   C1B45775   8.459  41.580   6.164
 3354POPC   C2B45776   8.604  41.517   6.588
 3354POPC   C3B45777   8.364  41.506   7.000
 3354POPC   C4B45778   8.374  41.348   7.444
 3355POPC   NC345779  43.532  34.242   5.475
 3355POPC   PO445780  43.064  34.614   5.065
 3355POPC   GL145781  43.072  34.587   5.550
 3355POPC   GL245782  43.358  34.652   5.728
 3355POPC   C1A45783  42.959  34.521   6.029
 3355POPC   D2A45784  42.807  34.666   6.454
 3355POPC   C3A45785  43.005  34.642   6.876
 3355POPC   C4A45786  42.842  34.658   7.317
 3355POPC   C1B45787  43.501  34.605   6.147
 3355POPC   C2B45788  43.455  34.690   6.569
 3355POPC   C3B45789  43.445  34.948   6.922
 3355POPC   C4B45790  43.370  34.699   7.240
 3356POPC   NC345791  33.587  11.316   5.602
 3356POPC   PO445792  34.165  11.359   5.546
 3356POPC   GL145793  34.081  11.107   5.920
 3356POPC   GL245794  33.727  10.991   5.939
 3356POPC   C1A45795  33.959  11.167   6.353
 3356POPC   D2A45796  34.028  11.001   6.744
 3356POPC   C3A45797  33.874  11.300   7.062
 3356POPC   C4A45798  34.074  11.326   7.488
 3356POPC   C1B45799  33.616  10.795   6.325
 3356POPC   C2B45800  33.500  10.896   6.746
 3356POPC   C3B45801  33.484  10.958   7.180
 3356POPC   C4B45802  33.606  10.831   7.595
 3357POPC   NC345803  17.705  43.302   5.460
 3357POPC   PO445804  17.202  42.789   5.390
 3357POPC   GL145805  17.368  43.052   5.757
 3357POPC   GL245806  17.719  43.060   5.910
 3357POPC   C1A45807  17.230  43.298   6.111
 3357POPC   D2A45808  17.381  43.211   6.519
 3357POPC   C3A45809  17.252  43.289   6.940
 3357POPC   C4A45810  17.376  43.134   7.355
 3357POPC   C1B45811  17.815  42.937   6.363
 3357POPC   C2B45812  17.765  43.036   6.816
 3357POPC   C3B45813  17.887  43.074   7.232
 3357POPC   C4B45814  17.832  43.121   7.665
 3358POPC   NC345815  18.771  44.212   5.385
 3358POPC   PO445816  19.037  43.560   5.416
 3358POPC   GL145817  19.025  43.886   5.771
 3358POPC   GL245818  18.750  44.112   5.872
 3358POPC   C1A45819  19.142  43.873   6.209
 3358POPC   D2A45820  19.366  43.725   6.593
 3358POPC   C3A45821  19.154  43.796   6.988
 3358POPC   C4A45822  19.275  44.130   7.223
 3358POPC   C1B45823  18.862  44.276   6.273
 3358POPC   C2B45824  18.856  44.011   6.630
 3358POPC   C3B45825  18.633  44.050   6.979
 3358POPC   C4B45826  18.639  44.333   7.278
 3359POPC   NC345827  21.681  18.447   5.449
 3359POPC   PO445828  21.022  18.221   5.445
 3359POPC   GL145829  21.177  18.331   5.844
 3359POPC   GL245830  21.529  18.303   5.901
 3359POPC   C1A45831  21.193  18.066   6.212
 3359POPC   D2A45832  21.108  18.243   6.569
 3359POPC   C3A45833  21.258  18.086   6.942
 3359POPC   C4A45834  21.609  18.148   7.181
 3359POPC   C1B45835  21.708  18.091   6.235
 3359POPC   C2B45836  21.702  18.104   6.669
 3359POPC   C3B45837  22.054  18.076   6.979
 3359POPC   C4B45838  22.042  18.114   7.462
 3360POPC   NC345839  16.124  22.629   5.199
 3360POPC   PO445840  15.683  23.047   5.498
 3360POPC   GL145841  15.820  22.746   5.808
 3360POPC   GL245842  16.149  22.881   5.846
 3360POPC   C1A45843  15.907  22.599   6.245
 3360POPC   D2A45844  15.874  22.810   6.662
 3360POPC   C3A45845  15.982  22.715   7.120
 3360POPC   C4A45846  16.085  22.965   7.552
 3360POPC   C1B45847  16.315  23.222   6.126
 3360POPC   C2B45848  16.208  23.407   6.524
 3360POPC   C3B45849  16.098  23.232   6.910
 3360POPC   C4B45850  16.381  23.218   7.238
 3361POPC   NC345851   7.290  39.464   5.373
 3361POPC   PO445852   7.347  40.213   5.408
 3361POPC   GL145853   7.486  40.180   5.825
 3361POPC   GL245854   7.632  39.855   5.739
 3361POPC   C1A45855   7.271  40.037   6.218
 3361POPC   D2A45856   7.264  39.695   6.560
 3361POPC   C3A45857   7.098  39.924   6.895
 3361POPC   C4A45858   7.109  40.150   7.286
 3361POPC   C1B45859   7.642  39.708   6.171
 3361POPC   C2B45860   7.669  39.981   6.568
 3361POPC   C3B45861   7.605  39.934   7.003
 3361POPC   C4B45862   7.349  39.635   7.245
 3362POPC   NC345863   3.977  13.987   5.338
 3362POPC   PO445864   4.358  13.445   5.329
 3362POPC   GL145865   4.089  13.453   5.708
 3362POPC   GL245866   3.827  13.180   5.668
 3362POPC   C1A45867   4.146  13.555   6.207
 3362POPC   D2A45868   4.175  13.564   6.711
 3362POPC   C3A45869   4.451  13.830   7.026
 3362POPC   C4A45870   4.599  14.183   7.320
 3362POPC   C1B45871   4.029  13.077   6.042
 3362POPC   C2B45872   3.989  13.117   6.482
 3362POPC   C3B45873   4.047  13.110   6.919
 3362POPC   C4B45874   4.228  13.407   7.217
 3363POPC   NC345875  44.366   4.152   5.361
 3363POPC   PO445876  44.888   4.550   5.472
 3363POPC   GL145877  44.629   4.394   5.808
 3363POPC   GL245878  44.768   4.073   5.747
 3363POPC   C1A45879  44.721   4.276   6.255
 3363POPC   D2A45880   0.016   4.192   6.579
 3363POPC   C3A45881  44.899   4.265   7.026
 3363POPC   C4A45882  44.991   4.564   7.354
 3363POPC   C1B45883  44.447   3.909   6.016
 3363POPC   C2B45884  44.367   3.875   6.470
 3363POPC   C3B45885  44.313   3.851   6.916
 3363POPC   C4B45886  44.465   4.088   7.273
 3364POPC   NC345887  19.320  16.468   5.377
 3364POPC   PO445888  18.891  15.874   5.396
 3364POPC   GL145889  18.996  16.044   5.789
 3364POPC   GL245890  19.165  15.727   5.846
 3364POPC   C1A45891  18.867  16.124   6.237
 3364POPC   D2A45892  18.700  15.900   6.629
 3364POPC   C3A45893  18.885  16.047   7.042
 3364POPC   C4A45894  18.733  16.265   7.460
 3364POPC   C1B45895  19.098  15.641   6.288
 3364POPC   C2B45896  19.140  15.657   6.750
 3364POPC   C3B45897  19.178  15.618   7.195
 3364POPC   C4B45898  19.228  15.567   7.655
 3365POPC   NC345899  41.949  41.987   5.353
 3365POPC   PO445900  41.295  42.386   5.449
 3365POPC   GL145901  41.205  42.453   5.855
 3365POPC   GL245902  41.291  42.115   5.986
 3365POPC   C1A45903  41.288  42.507   6.298
 3365POPC   D2A45904  41.424  42.179   6.573
 3365POPC   C3A45905  41.242  42.260   6.972
 3365POPC   C4A45906  41.191  42.542   7.321
 3365POPC   C1B45907  41.712  42.325   6.061
 3365POPC   C2B45908  41.904  42.425   6.467
 3365POPC   C3B45909  41.777  42.391   6.890
 3365POPC   C4B45910  42.002  42.426   7.243
 3366POPC   NC345911  12.394   2.539   5.423
 3366POPC   PO445912  12.928   2.164   5.433
 3366POPC   GL145913  12.747   1.970   5.777
 3366POPC   GL245914  12.613   2.310   5.841
 3366POPC   C1A45915  12.886   1.731   6.156
 3366POPC   D2A45916  13.007   1.840   6.579
 3366POPC   C3A45917  13.040   1.550   6.922
 3366POPC   C4A45918  13.230   1.667   7.298
 3366POPC   C1B45919  12.856   2.251   6.187
 3366POPC   C2B45920  12.649   2.216   6.536
 3366POPC   C3B45921  12.645   2.290   6.930
 3366POPC   C4B45922  12.961   2.055   7.060
 3367POPC   NC345923  38.073  18.135   5.447
 3367POPC   PO445924  38.683  18.491   5.411
 3367POPC   GL145925  38.495  18.299   5.770
 3367POPC   GL245926  38.220  18.518   5.808
 3367POPC   C1A45927  38.616  18.170   6.185
 3367POPC   D2A45928  38.697  18.406   6.550
 3367POPC   C3A45929  38.585  18.212   6.906
 3367POPC   C4A45930  38.542  18.165   7.309
 3367POPC   C1B45931  38.135  18.290   6.178
 3367POPC   C2B45932  38.177  18.291   6.617
 3367POPC   C3B45933  38.087  18.091   7.026
 3367POPC   C4B45934  38.059  18.268   7.433
 3368POPC   NC345935   5.732  18.115   5.372
 3368POPC   PO445936   5.708  17.471   5.308
 3368POPC   GL145937   5.736  17.579   5.797
 3368POPC   GL245938   6.076  17.650   5.892
 3368POPC   C1A45939   5.564  17.585   6.249
 3368POPC   D2A45940   5.709  17.493   6.692
 3368POPC   C3A45941   5.463  17.351   7.069
 3368POPC   C4A45942   5.588  17.199   7.495
 3368POPC   C1B45943   5.914  17.958   6.195
 3368POPC   C2B45944   5.663  18.006   6.602
 3368POPC   C3B45945   5.635  17.847   7.056
 3368POPC   C4B45946   5.918  17.519   7.233
 3369POPC   NC345947  22.067  14.787   5.496
 3369POPC   PO445948  22.406  15.345   5.285
 3369POPC   GL145949  22.243  15.435   5.725
 3369POPC   GL245950  21.873  15.447   5.740
 3369POPC   C1A45951  22.194  15.119   6.067
 3369POPC   D2A45952  22.392  14.907   6.398
 3369POPC   C3A45953  22.357  15.080   6.821
 3369POPC   C4A45954  22.234  15.372   7.135
 3369POPC   C1B45955  21.734  15.263   6.163
 3369POPC   C2B45956  21.925  15.297   6.562
 3369POPC   C3B45957  21.763  15.209   6.971
 3369POPC   C4B45958  21.722  15.428   7.370
 3370POPC   NC345959  35.308  39.318   5.364
 3370POPC   PO445960  35.875  39.185   5.060
 3370POPC   GL145961  35.780  39.243   5.571
 3370POPC   GL245962  35.520  39.039   5.768
 3370POPC   C1A45963  35.695  39.437   6.045
 3370POPC   D2A45964  35.408  39.432   6.441
 3370POPC   C3A45965  35.531  39.353   6.896
 3370POPC   C4A45966  35.325  39.378   7.327
 3370POPC   C1B45967  35.211  39.040   6.158
 3370POPC   C2B45968  35.038  39.083   6.613
 3370POPC   C3B45969  34.985  39.044   7.085
 3370POPC   C4B45970  35.160  38.882   7.479
 3371POPC   NC345971  37.587  39.950   5.180
 3371POPC   PO445972  38.023  40.297   5.482
 3371POPC   GL145973  37.832  40.128   5.806
 3371POPC   GL245974  37.522  40.061   5.711
 3371POPC   C1A45975  37.874  39.863   6.194
 3371POPC   D2A45976  38.018  39.723   6.634
 3371POPC   C3A45977  37.784  39.699   7.012
 3371POPC   C4A45978  37.761  39.931   7.397
 3371POPC   C1B45979  37.443  40.120   6.151
 3371POPC   C2B45980  37.542  39.952   6.574
 3371POPC   C3B45981  37.472  40.116   6.965
 3371POPC   C4B45982  37.484  40.396   7.293
 3372POPC   NC345983  42.972  26.365   5.276
 3372POPC   PO445984  43.452  26.023   5.392
 3372POPC   GL145985  43.220  25.907   5.797
 3372POPC   GL245986  42.852  25.869   5.857
 3372POPC   C1A45987  43.294  25.981   6.280
 3372POPC   D2A45988  43.087  26.182   6.686
 3372POPC   C3A45989  43.275  26.162   7.127
 3372POPC   C4A45990  43.112  26.122   7.548
 3372POPC   C1B45991  42.799  26.027   6.279
 3372POPC   C2B45992  42.618  25.962   6.679
 3372POPC   C3B45993  42.770  26.034   7.102
 3372POPC   C4B45994  42.670  26.314   7.442
 3373POPC   NC345995  12.475  18.986   5.141
 3373POPC   PO445996  11.876  18.946   5.466
 3373POPC   GL145997  11.869  19.017   5.900
 3373POPC   GL245998  12.027  19.323   5.951
 3373POPC   C1A45999  12.133  18.953   6.276
 3373POPC   D2A46000  12.231  19.330   6.505
 3373POPC   C3A46001  12.075  19.304   6.922
 3373POPC   C4A46002  12.307  19.169   7.286
 3373POPC   C1B46003  11.760  19.284   6.338
 3373POPC   C2B46004  11.566  19.362   6.737
 3373POPC   C3B46005  11.586  19.277   7.168
 3373POPC   C4B46006  11.845  19.013   7.411
 3374POPC   NC346007  25.411  13.426   5.231
 3374POPC   PO446008  24.864  13.800   5.261
 3374POPC   GL146009  25.159  13.602   5.647
 3374POPC   GL246010  25.541  13.435   5.711
 3374POPC   C1A46011  25.228  13.468   6.113
 3374POPC   D2A46012  25.258  13.696   6.522
 3374POPC   C3A46013  25.130  13.697   6.967
 3374POPC   C4A46014  25.283  14.017   7.250
 3374POPC   C1B46015  25.743  13.363   6.130
 3374POPC   C2B46016  25.559  13.272   6.564
 3374POPC   C3B46017  25.716  13.233   7.005
 3374POPC   C4B46018  25.444  13.398   7.323
 3375POPC   NC346019  40.435   0.053   5.249
 3375POPC   PO446020  41.117   0.072   5.426
 3375POPC   GL146021  40.879   0.277   5.756
 3375POPC   GL246022  40.568   0.493   5.707
 3375POPC   C1A46023  40.781   0.352   6.181
 3375POPC   D2A46024  40.692   0.122   6.538
 3375POPC   C3A46025  41.001   0.136   6.842
 3375POPC   C4A46026  40.817   0.168   7.222
 3375POPC   C1B46027  40.367   0.647   6.108
 3375POPC   C2B46028  40.526   0.717   6.529
 3375POPC   C3B46029  40.581   0.501   6.919
 3375POPC   C4B46030  40.411   0.440   7.345
 3376POPC   NC346031  41.695  30.644   5.320
 3376POPC   PO446032  41.254  31.124   5.533
 3376POPC   GL146033  41.527  30.783   5.786
 3376POPC   GL246034  41.693  30.461   5.812
 3376POPC   C1A46035  41.834  30.895   6.190
 3376POPC   D2A46036  41.900  31.148   6.625
 3376POPC   C3A46037  41.854  31.000   7.035
 3376POPC   C4A46038  41.489  30.846   7.234
 3376POPC   C1B46039  41.433  30.556   6.215
 3376POPC   C2B46040  41.582  30.709   6.600
 3376POPC   C3B46041  41.737  30.497   6.922
 3376POPC   C4B46042  41.905  30.534   7.303
 3377POPC   NC346043  10.332   4.724   5.551
 3377POPC   PO446044  10.616   5.390   5.456
 3377POPC   GL146045  10.517   5.164   5.788
 3377POPC   GL246046  10.756   4.905   5.770
 3377POPC   C1A46047  10.396   5.276   6.210
 3377POPC   D2A46048  10.334   5.079   6.615
 3377POPC   C3A46049  10.570   5.053   7.034
 3377POPC   C4A46050  10.345   5.037   7.481
 3377POPC   C1B46051  10.731   4.905   6.202
 3377POPC   C2B46052  10.916   5.091   6.546
 3377POPC   C3B46053  11.004   4.791   6.810
 3377POPC   C4B46054  10.820   4.495   7.104
 3378POPC   NC346055  43.143  14.820   5.312
 3378POPC   PO446056  42.895  15.429   5.394
 3378POPC   GL146057  42.897  15.103   5.713
 3378POPC   GL246058  43.175  14.853   5.827
 3378POPC   C1A46059  42.973  15.238   6.124
 3378POPC   D2A46060  43.046  15.124   6.526
 3378POPC   C3A46061  43.129  15.333   6.878
 3378POPC   C4A46062  42.985  15.355   7.300
 3378POPC   C1B46063  43.251  14.707   6.274
 3378POPC   C2B46064  43.301  14.758   6.752
 3378POPC   C3B46065  43.200  14.913   7.163
 3378POPC   C4B46066  43.166  14.980   7.600
 3379POPC   NC346067  25.260  41.584   5.265
 3379POPC   PO446068  24.885  41.135   5.559
 3379POPC   GL146069  25.115  41.379   5.842
 3379POPC   GL246070  25.270  41.657   5.796
 3379POPC   C1A46071  25.219  41.470   6.268
 3379POPC   D2A46072  25.202  41.727   6.633
 3379POPC   C3A46073  25.108  41.492   6.997
 3379POPC   C4A46074  25.246  41.235   7.316
 3379POPC   C1B46075  25.587  41.782   6.122
 3379POPC   C2B46076  25.708  41.942   6.542
 3379POPC   C3B46077  25.543  41.969   6.923
 3379POPC   C4B46078  25.529  41.650   7.227
 3380POPC   NC346079   6.177  20.580   5.261
 3380POPC   PO446080   5.555  20.846   5.371
 3380POPC   GL146081   5.906  20.789   5.667
 3380POPC   GL246082   5.910  20.453   5.780
 3380POPC   C1A46083   6.068  20.781   6.123
 3380POPC   D2A46084   5.846  20.770   6.514
 3380POPC   C3A46085   6.077  20.737   6.893
 3380POPC   C4A46086   5.984  20.799   7.307
 3380POPC   C1B46087   5.881  20.261   6.180
 3380POPC   C2B46088   6.050  20.292   6.592
 3380POPC   C3B46089   5.914  20.282   7.027
 3380POPC   C4B46090   6.061  20.307   7.433
 3381POPC   NC346091   4.344   2.660   5.377
 3381POPC   PO446092   3.891   3.055   5.459
 3381POPC   GL146093   4.289   3.054   5.724
 3381POPC   GL246094   4.331   2.726   5.873
 3381POPC   C1A46095   4.518   3.149   6.142
 3381POPC   D2A46096   4.699   2.871   6.496
 3381POPC   C3A46097   4.615   2.879   6.957
 3381POPC   C4A46098   4.341   2.727   7.284
 3381POPC   C1B46099   4.175   2.807   6.283
 3381POPC   C2B46100   4.223   2.658   6.707
 3381POPC   C3B46101   3.918   2.762   7.025
 3381POPC   C4B46102   3.830   2.587   7.447
 3382POPC   NC346103  38.906  14.001   5.081
 3382POPC   PO446104  39.368  13.786   5.629
 3382POPC   GL146105  39.254  13.452   5.880
 3382POPC   GL246106  38.906  13.456   5.818
 3382POPC   C1A46107  39.419  13.345   6.277
 3382POPC   D2A46108  39.508  13.561   6.668
 3382POPC   C3A46109  39.185  13.544   7.010
 3382POPC   C4A46110  39.185  13.583   7.458
 3382POPC   C1B46111  39.013  13.710   6.241
 3382POPC   C2B46112  39.152  13.966   6.604
 3382POPC   C3B46113  38.952  13.979   7.009
 3382POPC   C4B46114  38.776  13.861   7.390
 3383POPC   NC346115   7.837  40.299   5.427
 3383POPC   PO446116   8.497  40.134   5.330
 3383POPC   GL146117   8.416  40.070   5.778
 3383POPC   GL246118   8.063  40.170   5.859
 3383POPC   C1A46119   8.452  40.213   6.214
 3383POPC   D2A46120   8.634  40.456   6.560
 3383POPC   C3A46121   8.586  40.227   6.953
 3383POPC   C4A46122   8.544  40.069   7.375
 3383POPC   C1B46123   7.918  40.285   6.256
 3383POPC   C2B46124   8.134  40.197   6.679
 3383POPC   C3B46125   8.104  40.038   7.117
 3383POPC   C4B46126   8.067  40.195   7.555
 3384POPC   NC346127   3.598  40.291   5.523
 3384POPC   PO446128   3.312  39.652   5.517
 3384POPC   GL146129   3.265  39.800   5.901
 3384POPC   GL246130   3.597  39.923   5.869
 3384POPC   C1A46131   3.180  39.822   6.332
 3384POPC   D2A46132   3.413  39.934   6.699
 3384POPC   C3A46133   3.246  40.195   7.043
 3384POPC   C4A46134   3.376  40.018   7.449
 3384POPC   C1B46135   3.602  40.157   6.248
 3384POPC   C2B46136   3.852  40.176   6.621
 3384POPC   C3B46137   3.748  40.133   7.069
 3384POPC   C4B46138   3.923  40.253   7.466
 3385POPC   NC346139  32.067  42.544   5.272
 3385POPC   PO446140  32.594  42.135   5.298
 3385POPC   GL146141  32.364  42.140   5.725
 3385POPC   GL246142  32.080  42.419   5.768
 3385POPC   C1A46143  32.256  42.163   6.184
 3385POPC   D2A46144  32.489  42.197   6.558
 3385POPC   C3A46145  32.323  42.202   6.963
 3385POPC   C4A46146  32.016  42.386   7.228
 3385POPC   C1B46147  32.476  42.607   5.923
 3385POPC   C2B46148  32.610  42.675   6.367
 3385POPC   C3B46149  32.547  42.666   6.831
 3385POPC   C4B46150  32.717  42.724   7.250
 3386POPC   NC346151  16.014  41.996   5.077
 3386POPC   PO446152  15.569  42.568   5.084
 3386POPC   GL146153  15.872  42.326   5.491
 3386POPC   GL246154  16.134  42.196   5.635
 3386POPC   C1A46155  15.772  42.154   5.975
 3386POPC   D2A46156  15.544  42.025   6.377
 3386POPC   C3A46157  15.747  42.087   6.804
 3386POPC   C4A46158  15.655  42.323   7.219
 3386POPC   C1B46159  16.285  42.202   6.087
 3386POPC   C2B46160  16.198  42.249   6.544
 3386POPC   C3B46161  16.434  42.269   6.951
 3386POPC   C4B46162  16.361  42.366   7.407
 3387POPC   NC346163   9.679   4.890   5.092
 3387POPC   PO446164   9.981   5.116   5.632
 3387POPC   GL146165   9.627   5.046   5.919
 3387POPC   GL246166   9.511   5.384   5.998
 3387POPC   C1A46167   9.600   4.995   6.361
 3387POPC   D2A46168   9.798   5.180   6.726
 3387POPC   C3A46169   9.577   4.947   7.051
 3387POPC   C4A46170   9.754   4.579   7.159
 3387POPC   C1B46171   9.880   5.407   6.251
 3387POPC   C2B46172  10.154   5.592   6.538
 3387POPC   C3B46173  10.243   5.467   6.938
 3387POPC   C4B46174   9.960   5.295   7.198
 3388POPC   NC346175  18.095  30.950   5.353
 3388POPC   PO446176  18.557  30.568   5.546
 3388POPC   GL146177  18.255  30.759   5.843
 3388POPC   GL246178  18.041  30.484   5.786
 3388POPC   C1A46179  18.046  30.727   6.285
 3388POPC   D2A46180  18.027  30.796   6.760
 3388POPC   C3A46181  18.418  30.847   7.008
 3388POPC   C4A46182  18.708  31.172   7.146
 3388POPC   C1B46183  18.295  30.299   6.150
 3388POPC   C2B46184  18.406  30.463   6.581
 3388POPC   C3B46185  18.264  30.352   6.997
 3388POPC   C4B46186  18.571  30.331   7.327
 3389POPC   NC346187  11.197  35.312   5.567
 3389POPC   PO446188  11.528  34.930   5.761
 3389POPC   GL146189  11.385  35.272   6.038
 3389POPC   GL246190  11.476  35.594   5.921
 3389POPC   C1A46191  11.131  35.506   6.344
 3389POPC   D2A46192  11.001  35.509   6.815
 3389POPC   C3A46193  11.303  35.248   7.048
 3389POPC   C4A46194  11.269  35.014   7.462
 3389POPC   C1B46195  11.650  35.574   6.352
 3389POPC   C2B46196  11.457  35.712   6.726
 3389POPC   C3B46197  11.352  35.751   7.142
 3389POPC   C4B46198  11.498  35.470   7.487
 3390POPC   NC346199  24.813  15.512   5.410
 3390POPC   PO446200  24.252  15.123   5.373
 3390POPC   GL146201  24.265  15.316   5.790
 3390POPC   GL246202  24.349  15.656   5.695
 3390POPC   C1A46203  24.436  15.168   6.218
 3390POPC   D2A46204  24.615  14.970   6.573
 3390POPC   C3A46205  24.608  15.154   6.936
 3390POPC   C4A46206  24.431  15.055   7.319
 3390POPC   C1B46207  24.529  15.649   6.111
 3390POPC   C2B46208  24.556  15.573   6.580
 3390POPC   C3B46209  24.908  15.576   6.902
 3390POPC   C4B46210  24.859  15.376   7.320
 3391POPC   NC346211  16.991   1.436   5.055
 3391POPC   PO446212  17.509   1.165   5.482
 3391POPC   GL146213  17.611   1.226   5.890
 3391POPC   GL246214  17.628   0.882   6.001
 3391POPC   C1A46215  17.477   1.252   6.319
 3391POPC   D2A46216  17.556   0.920   6.625
 3391POPC   C3A46217  17.328   0.925   7.009
 3391POPC   C4A46218  17.390   1.036   7.443
 3391POPC   C1B46219  17.954   1.071   6.285
 3391POPC   C2B46220  17.902   1.325   6.679
 3391POPC   C3B46221  17.679   1.307   7.074
 3391POPC   C4B46222  17.789   1.351   7.519
 3392POPC   NC346223  37.645  36.501   5.565
 3392POPC   PO446224  38.037  36.048   5.309
 3392POPC   GL146225  37.871  36.089   5.784
 3392POPC   GL246226  37.510  36.162   5.904
 3392POPC   C1A46227  37.895  36.271   6.208
 3392POPC   D2A46228  37.647  36.321   6.597
 3392POPC   C3A46229  37.904  36.205   6.919
 3392POPC   C4A46230  37.819  36.268   7.318
 3392POPC   C1B46231  37.505  35.928   6.293
 3392POPC   C2B46232  37.660  35.799   6.670
 3392POPC   C3B46233  37.412  35.994   6.983
 3392POPC   C4B46234  37.354  36.037   7.405
 3393POPC   NC346235  18.350  24.474   5.291
 3393POPC   PO446236  18.602  25.032   5.489
 3393POPC   GL146237  18.355  24.829   5.823
 3393POPC   GL246238  18.075  24.593   5.708
 3393POPC   C1A46239  18.324  24.786   6.306
 3393POPC   D2A46240  18.501  24.499   6.642
 3393POPC   C3A46241  18.289  24.544   7.054
 3393POPC   C4A46242  18.416  24.717   7.448
 3393POPC   C1B46243  18.016  24.437   6.108
 3393POPC   C2B46244  17.960  24.490   6.563
 3393POPC   C3B46245  17.993  24.151   6.869
 3393POPC   C4B46246  18.095  24.110   7.278
 3394POPC   NC346247  23.520   6.528   5.279
 3394POPC   PO446248  23.038   6.908   5.561
 3394POPC   GL146249  23.121   6.458   5.689
 3394POPC   GL246250  22.872   6.476   5.913
 3394POPC   C1A46251  23.273   6.315   6.142
 3394POPC   D2A46252  23.316   6.625   6.507
 3394POPC   C3A46253  23.131   6.553   6.952
 3394POPC   C4A46254  23.340   6.333   7.304
 3394POPC   C1B46255  22.643   6.617   6.248
 3394POPC   C2B46256  22.576   6.388   6.607
 3394POPC   C3B46257  22.413   6.402   6.980
 3394POPC   C4B46258  22.539   6.696   7.238
 3395POPC   NC346259  18.010  31.806   5.813
 3395POPC   PO446260  17.569  31.370   5.702
 3395POPC   GL146261  17.505  31.762   5.914
 3395POPC   GL246262  17.729  31.620   6.197
 3395POPC   C1A46263  17.344  31.946   6.286
 3395POPC   D2A46264  17.511  31.774   6.667
 3395POPC   C3A46265  17.411  31.931   7.055
 3395POPC   C4A46266  17.628  31.835   7.444
 3395POPC   C1B46267  17.328  31.441   6.311
 3395POPC   C2B46268  17.229  31.335   6.701
 3395POPC   C3B46269  17.460  31.422   7.052
 3395POPC   C4B46270  17.291  31.310   7.410
 3396POPC   NC346271  14.215   5.983   5.052
 3396POPC   PO446272  13.603   5.886   5.384
 3396POPC   GL146273  13.615   5.966   5.839
 3396POPC   GL246274  13.333   6.203   5.806
 3396POPC   C1A46275  13.552   5.723   6.227
 3396POPC   D2A46276  13.761   5.669   6.614
 3396POPC   C3A46277  13.688   5.807   7.006
 3396POPC   C4A46278  13.896   6.079   7.253
 3396POPC   C1B46279  13.254   6.122   6.211
 3396POPC   C2B46280  13.476   6.113   6.589
 3396POPC   C3B46281  13.288   6.101   6.989
 3396POPC   C4B46282  13.405   6.242   7.374
 3397POPC   NC346283   3.659  37.965   5.317
 3397POPC   PO446284   3.515  37.348   5.289
 3397POPC   GL146285   3.505  37.565   5.682
 3397POPC   GL246286   3.178  37.483   5.753
 3397POPC   C1A46287   3.639  37.687   6.131
 3397POPC   D2A46288   3.462  37.701   6.556
 3397POPC   C3A46289   3.649  37.828   6.964
 3397POPC   C4A46290   3.746  37.568   7.295
 3397POPC   C1B46291   3.103  37.580   6.183
 3397POPC   C2B46292   2.947  37.641   6.595
 3397POPC   C3B46293   3.151  37.748   6.970
 3397POPC   C4B46294   3.214  37.618   7.366
 3398POPC   NC346295  32.246   4.612   5.117
 3398POPC   PO446296  32.493   5.270   5.350
 3398POPC   GL146297  32.293   5.089   5.782
 3398POPC   GL246298  32.000   4.835   5.822
 3398POPC   C1A46299  32.355   4.888   6.206
 3398POPC   D2A46300  32.223   5.082   6.620
 3398POPC   C3A46301  32.375   4.811   6.922
 3398POPC   C4A46302  32.405   4.965   7.333
 3398POPC   C1B46303  31.890   5.067   6.207
 3398POPC   C2B46304  31.701   5.037   6.601
 3398POPC   C3B46305  31.860   4.944   6.995
 3398POPC   C4B46306  32.031   5.291   7.237
 3399POPC   NC346307  23.604   7.926   5.582
 3399POPC   PO446308  24.110   8.231   5.181
 3399POPC   GL146309  23.890   8.362   5.641
 3399POPC   GL246310  23.554   8.424   5.895
 3399POPC   C1A46311  23.995   8.342   6.102
 3399POPC   D2A46312  24.108   8.224   6.536
 3399POPC   C3A46313  23.849   8.256   6.899
 3399POPC   C4A46314  24.059   8.182   7.263
 3399POPC   C1B46315  23.400   8.111   6.225
 3399POPC   C2B46316  23.158   7.981   6.618
 3399POPC   C3B46317  23.335   7.948   7.058
 3399POPC   C4B46318  23.554   8.193   7.403
 3400POPC   NC346319   9.566   0.138   5.427
 3400POPC   PO446320   9.963   0.660   5.511
 3400POPC   GL146321   9.705   0.463   5.817
 3400POPC   GL246322   9.772   0.111   5.893
 3400POPC   C1A46323   9.734   0.530   6.246
 3400POPC   D2A46324   9.971   0.785   6.512
 3400POPC   C3A46325   9.856   0.699   6.925
 3400POPC   C4A46326   9.626   0.352   7.088
 3400POPC   C1B46327  10.042   0.123   6.242
 3400POPC   C2B46328  10.011   0.266   6.672
 3400POPC   C3B46329  10.034  44.981   7.014
 3400POPC   C4B46330   9.810  44.983   7.391
 3401POPC   NC346331  42.864  40.226   5.281
 3401POPC   PO446332  43.495  40.020   5.344
 3401POPC   GL146333  43.198  40.032   5.705
 3401POPC   GL246334  42.823  39.939   5.731
 3401POPC   C1A46335  43.141  39.914   6.125
 3401POPC   D2A46336  43.280  39.917   6.514
 3401POPC   C3A46337  42.995  40.058   6.808
 3401POPC   C4A46338  43.136  40.027   7.194
 3401POPC   C1B46339  42.688  39.692   6.143
 3401POPC   C2B46340  42.835  39.625   6.584
 3401POPC   C3B46341  42.645  39.714   7.001
 3401POPC   C4B46342  42.806  39.722   7.413
 3402POPC   NC346343  28.497   9.385   5.545
 3402POPC   PO446344  28.442   8.703   5.352
 3402POPC   GL146345  28.302   8.812   5.784
 3402POPC   GL246346  27.998   8.949   5.887
 3402POPC   C1A46347  28.174   8.710   6.270
 3402POPC   D2A46348  28.347   8.621   6.633
 3402POPC   C3A46349  28.183   8.822   6.976
 3402POPC   C4A46350  28.483   8.671   7.247
 3402POPC   C1B46351  28.382   9.137   6.135
 3402POPC   C2B46352  28.474   9.125   6.542
 3402POPC   C3B46353  28.658   9.021   6.910
 3402POPC   C4B46354  28.503   9.154   7.311
 3403POPC   NC346355  23.682   8.378   5.067
 3403POPC   PO446356  23.816   8.848   5.473
 3403POPC   GL146357  23.748   8.911   5.895
 3403POPC   GL246358  23.713   9.256   5.905
 3403POPC   C1A46359  23.987   8.822   6.291
 3403POPC   D2A46360  24.208   8.718   6.679
 3403POPC   C3A46361  23.903   8.778   6.977
 3403POPC   C4A46362  23.776   8.663   7.346
 3403POPC   C1B46363  23.751   9.264   6.333
 3403POPC   C2B46364  23.973   9.212   6.689
 3403POPC   C3B46365  23.760   9.258   7.097
 3403POPC   C4B46366  23.665   9.129   7.514
 3404POPC   NC346367  35.678  13.783   5.482
 3404POPC   PO446368  35.373  13.338   5.081
 3404POPC   GL146369  35.397  13.344   5.608
 3404POPC   GL246370  35.123  13.403   5.825
 3404POPC   C1A46371  35.639  13.473   6.048
 3404POPC   D2A46372  35.672  13.870   6.373
 3404POPC   C3A46373  35.772  13.824   6.833
 3404POPC   C4A46374  35.573  13.526   7.141
 3404POPC   C1B46375  35.205  13.594   6.269
 3404POPC   C2B46376  35.281  13.727   6.720
 3404POPC   C3B46377  35.073  13.672   7.123
 3404POPC   C4B46378  34.927  13.480   7.480
 3405POPC   NC346379  30.641   9.379   5.447
 3405POPC   PO446380  30.491   9.988   5.476
 3405POPC   GL146381  30.607   9.688   5.859
 3405POPC   GL246382  30.921   9.469   5.875
 3405POPC   C1A46383  30.569   9.481   6.297
 3405POPC   D2A46384  30.383   9.498   6.726
 3405POPC   C3A46385  30.553   9.696   7.119
 3405POPC   C4A46386  30.389   9.807   7.534
 3405POPC   C1B46387  30.974   9.779   6.239
 3405POPC   C2B46388  30.840   9.760   6.687
 3405POPC   C3B46389  31.071   9.751   7.093
 3405POPC   C4B46390  31.274   9.897   7.501
 3406POPC   NC346391  42.705   3.732   5.380
 3406POPC   PO446392  43.369   3.667   5.152
 3406POPC   GL146393  43.084   3.465   5.563
 3406POPC   GL246394  43.096   3.112   5.714
 3406POPC   C1A46395  43.011   3.541   6.036
 3406POPC   D2A46396  42.924   3.619   6.499
 3406POPC   C3A46397  43.120   3.889   6.814
 3406POPC   C4A46398  43.402   4.024   7.133
 3406POPC   C1B46399  43.261   3.114   6.171
 3406POPC   C2B46400  43.135   3.173   6.607
 3406POPC   C3B46401  43.027   3.302   7.056
 3406POPC   C4B46402  43.262   3.222   7.436
 3407POPC   NC346403  26.343  31.454   5.256
 3407POPC   PO446404  25.670  31.464   5.187
 3407POPC   GL146405  25.858  31.451   5.630
 3407POPC   GL246406  26.166  31.617   5.760
 3407POPC   C1A46407  25.792  31.292   6.065
 3407POPC   D2A46408  25.873  31.315   6.515
 3407POPC   C3A46409  25.586  31.344   6.875
 3407POPC   C4A46410  25.849  31.493   7.213
 3407POPC   C1B46411  26.358  31.731   6.181
 3407POPC   C2B46412  26.527  31.859   6.599
 3407POPC   C3B46413  26.382  31.789   7.031
 3407POPC   C4B46414  26.255  31.692   7.455
 3408POPC   NC346415  36.397  29.923   5.123
 3408POPC   PO446416  37.055  30.025   5.386
 3408POPC   GL146417  36.889  30.159   5.774
 3408POPC   GL246418  36.566  30.054   5.681
 3408POPC   C1A46419  36.952  30.090   6.241
 3408POPC   D2A46420  37.097  29.944   6.659
 3408POPC   C3A46421  36.923  30.108   7.078
 3408POPC   C4A46422  37.013  30.088   7.550
 3408POPC   C1B46423  36.435  29.902   6.084
 3408POPC   C2B46424  36.562  29.835   6.495
 3408POPC   C3B46425  36.652  29.704   6.897
 3408POPC   C4B46426  36.493  29.844   7.289
 3409POPC   NC346427  15.155   6.315   5.196
 3409POPC   PO446428  15.207   5.660   5.408
 3409POPC   GL146429  15.297   5.805   5.826
 3409POPC   GL246430  14.977   5.893   5.875
 3409POPC   C1A46431  15.481   5.631   6.203
 3409POPC   D2A46432  15.314   5.680   6.610
 3409POPC   C3A46433  15.524   5.780   6.977
 3409POPC   C4A46434  15.366   5.573   7.336
 3409POPC   C1B46435  14.946   5.783   6.261
 3409POPC   C2B46436  14.973   6.041   6.565
 3409POPC   C3B46437  15.056   5.967   6.961
 3409POPC   C4B46438  15.002   5.939   7.355
 3410POPC   NC346439  35.350  11.844   5.589
 3410POPC   PO446440  35.575  12.425   5.237
 3410POPC   GL146441  35.352  12.357   5.720
 3410POPC   GL246442  35.512  12.120   5.965
 3410POPC   C1A46443  35.210  12.348   6.261
 3410POPC   D2A46444  35.195  11.957   6.565
 3410POPC   C3A46445  35.071  11.979   7.034
 3410POPC   C4A46446  35.050  11.730   7.427
 3410POPC   C1B46447  35.704  11.865   6.221
 3410POPC   C2B46448  35.756  11.980   6.586
 3410POPC   C3B46449  35.579  11.852   6.899
 3410POPC   C4B46450  35.523  12.021   7.243
 3411POPC   NC346451  27.757   7.750   5.462
 3411POPC   PO446452  27.319   7.261   5.657
 3411POPC   GL146453  27.533   7.527   5.898
 3411POPC   GL246454  27.852   7.390   5.817
 3411POPC   C1A46455  27.528   7.393   6.316
 3411POPC   D2A46456  27.356   7.122   6.613
 3411POPC   C3A46457  27.472   7.331   6.990
 3411POPC   C4A46458  27.332   7.312   7.397
 3411POPC   C1B46459  27.999   7.606   6.177
 3411POPC   C2B46460  27.979   7.433   6.561
 3411POPC   C3B46461  27.968   7.571   6.931
 3411POPC   C4B46462  27.807   7.607   7.304
 3412POPC   NC346463  18.783  38.160   5.388
 3412POPC   PO446464  18.154  38.349   5.312
 3412POPC   GL146465  18.212  38.349   5.753
 3412POPC   GL246466  18.560  38.353   5.811
 3412POPC   C1A46467  18.111  38.395   6.212
 3412POPC   D2A46468  18.182  38.136   6.598
 3412POPC   C3A46469  18.027  38.325   6.951
 3412POPC   C4A46470  18.112  38.388   7.394
 3412POPC   C1B46471  18.557  38.666   6.139
 3412POPC   C2B46472  18.626  38.660   6.597
 3412POPC   C3B46473  18.574  38.366   6.945
 3412POPC   C4B46474  18.656  38.349   7.374
 3413POPC   NC346475  13.491  27.449   5.244
 3413POPC   PO446476  14.088  27.402   5.125
 3413POPC   GL146477  14.020  27.540   5.594
 3413POPC   GL246478  13.695  27.680   5.671
 3413POPC   C1A46479  13.998  27.587   6.089
 3413POPC   D2A46480  13.771  27.404   6.470
 3413POPC   C3A46481  13.964  27.334   6.893
 3413POPC   C4A46482  13.753  27.390   7.283
 3413POPC   C1B46483  13.501  27.765   6.104
 3413POPC   C2B46484  13.600  27.888   6.536
 3413POPC   C3B46485  13.516  27.640   6.899
 3413POPC   C4B46486  13.387  27.734   7.291
 3414POPC   NC346487  34.038  21.498   5.369
 3414POPC   PO446488  33.367  21.287   5.571
 3414POPC   GL146489  33.759  21.365   5.783
 3414POPC   GL246490  33.856  21.734   5.805
 3414POPC   C1A46491  33.833  21.353   6.220
 3414POPC   D2A46492  33.514  21.362   6.562
 3414POPC   C3A46493  33.663  21.212   6.979
 3414POPC   C4A46494  33.595  21.393   7.372
 3414POPC   C1B46495  33.851  21.865   6.239
 3414POPC   C2B46496  33.919  21.673   6.644
 3414POPC   C3B46497  33.830  21.751   7.078
 3414POPC   C4B46498  34.092  21.605   7.434
 3415POPC   NC346499  30.968   1.724   5.516
 3415POPC   PO446500  31.659   1.842   5.470
 3415POPC   GL146501  31.650   2.007   5.876
 3415POPC   GL246502  31.302   1.959   5.867
 3415POPC   C1A46503  31.549   2.209   6.245
 3415POPC   D2A46504  31.205   2.172   6.520
 3415POPC   C3A46505  31.361   1.978   6.905
 3415POPC   C4A46506  31.737   1.883   7.173
 3415POPC   C1B46507  31.257   1.732   6.251
 3415POPC   C2B46508  31.229   1.501   6.655
 3415POPC   C3B46509  31.396   1.469   7.083
 3415POPC   C4B46510  31.356   1.695   7.488
 3416POPC   NC346511  24.434  32.809   5.407
 3416POPC   PO446512  24.517  33.494   5.342
 3416POPC   GL146513  24.543  33.240   5.798
 3416POPC   GL246514  24.419  32.900   5.888
 3416POPC   C1A46515  24.311  33.242   6.236
 3416POPC   D2A46516  24.481  33.245   6.653
 3416POPC   C3A46517  24.236  33.186   7.042
 3416POPC   C4A46518  24.491  33.229   7.396
 3416POPC   C1B46519  24.265  32.695   6.212
 3416POPC   C2B46520  24.193  32.837   6.588
 3416POPC   C3B46521  24.231  32.683   6.944
 3416POPC   C4B46522  24.324  32.754   7.374
 3417POPC   NC346523  19.193  12.256   5.555
 3417POPC   PO446524  18.555  12.089   5.512
 3417POPC   GL146525  18.822  12.031   5.834
 3417POPC   GL246526  19.067  11.784   5.717
 3417POPC   C1A46527  18.989  12.162   6.226
 3417POPC   D2A46528  18.833  12.027   6.620
 3417POPC   C3A46529  19.003  12.248   6.961
 3417POPC   C4A46530  19.233  12.309   7.313
 3417POPC   C1B46531  18.944  11.629   6.104
 3417POPC   C2B46532  19.038  11.539   6.510
 3417POPC   C3B46533  19.115  11.727   6.910
 3417POPC   C4B46534  18.749  11.794   7.168
 3418POPC   NC346535  35.885  40.259   5.454
 3418POPC   PO446536  36.442  39.983   5.159
 3418POPC   GL146537  36.274  39.951   5.641
 3418POPC   GL246538  36.122  40.260   5.901
 3418POPC   C1A46539  36.087  39.784   6.042
 3418POPC   D2A46540  36.235  39.802   6.469
 3418POPC   C3A46541  36.109  40.030   6.866
 3418POPC   C4A46542  36.072  39.813   7.288
 3418POPC   C1B46543  36.472  40.160   6.153
 3418POPC   C2B46544  36.628  40.143   6.583
 3418POPC   C3B46545  36.564  40.332   6.980
 3418POPC   C4B46546  36.224  40.301   7.288
 3419POPC   NC346547  19.876  35.968   5.509
 3419POPC   PO446548  19.861  35.440   5.092
 3419POPC   GL146549  19.820  35.476   5.612
 3419POPC   GL246550  19.567  35.697   5.792
 3419POPC   C1A46551  19.950  35.476   6.087
 3419POPC   D2A46552  19.897  35.225   6.476
 3419POPC   C3A46553  19.897  35.325   6.936
 3419POPC   C4A46554  19.991  35.531   7.329
 3419POPC   C1B46555  19.570  35.791   6.240
 3419POPC   C2B46556  19.390  35.530   6.572
 3419POPC   C3B46557  19.426  35.142   6.748
 3419POPC   C4B46558  19.500  34.942   7.128
 3420POPC   NC346559  22.884   4.063   5.593
 3420POPC   PO446560  22.637   4.571   5.369
 3420POPC   GL146561  22.770   4.557   5.807
 3420POPC   GL246562  22.657   4.863   5.903
 3420POPC   C1A46563  22.820   4.286   6.198
 3420POPC   D2A46564  22.941   4.007   6.526
 3420POPC   C3A46565  22.947   4.245   6.915
 3420POPC   C4A46566  22.732   4.269   7.281
 3420POPC   C1B46567  22.601   4.746   6.319
 3420POPC   C2B46568  22.813   4.741   6.701
 3420POPC   C3B46569  22.564   4.686   7.078
 3420POPC   C4B46570  22.581   4.652   7.582
 3421POPC   NC346571  27.156  10.054   5.334
 3421POPC   PO446572  27.737   9.720   5.117
 3421POPC   GL146573  27.692   9.652   5.598
 3421POPC   GL246574  27.340   9.633   5.734
 3421POPC   C1A46575  27.733   9.764   6.080
 3421POPC   D2A46576  27.656   9.636   6.546
 3421POPC   C3A46577  27.745   9.866   6.956
 3421POPC   C4A46578  27.837   9.782   7.387
 3421POPC   C1B46579  27.296   9.470   6.187
 3421POPC   C2B46580  27.403   9.198   6.577
 3421POPC   C3B46581  27.459   9.394   6.985
 3421POPC   C4B46582  27.244   9.677   7.233
 3422POPC   NC346583  34.473  33.148   5.391
 3422POPC   PO446584  35.001  33.502   5.618
 3422POPC   GL146585  34.735  33.234   5.874
 3422POPC   GL246586  34.509  32.936   5.839
 3422POPC   C1A46587  34.820  33.285   6.326
 3422POPC   D2A46588  34.914  33.071   6.709
 3422POPC   C3A46589  34.817  33.244   7.109
 3422POPC   C4A46590  34.535  33.116   7.419
 3422POPC   C1B46591  34.661  32.800   6.236
 3422POPC   C2B46592  34.689  32.580   6.627
 3422POPC   C3B46593  34.708  32.737   7.048
 3422POPC   C4B46594  34.271  32.869   7.073
 3423POPC   NC346595  28.006   4.124   5.474
 3423POPC   PO446596  28.616   4.428   5.569
 3423POPC   GL146597  28.546   4.450   5.946
 3423POPC   GL246598  28.200   4.421   5.896
 3423POPC   C1A46599  28.567   4.341   6.334
 3423POPC   D2A46600  28.491   3.992   6.547
 3423POPC   C3A46601  28.550   4.046   6.951
 3423POPC   C4A46602  28.873   4.208   7.188
 3423POPC   C1B46603  28.069   4.175   6.231
 3423POPC   C2B46604  28.008   4.074   6.636
 3423POPC   C3B46605  28.011   4.073   7.060
 3423POPC   C4B46606  28.240   4.368   7.251
 3424POPC   NC346607  40.908  18.313   5.492
 3424POPC   PO446608  41.078  18.921   5.514
 3424POPC   GL146609  40.868  18.604   5.903
 3424POPC   GL246610  40.668  18.239   5.919
 3424POPC   C1A46611  40.967  18.329   6.294
 3424POPC   D2A46612  40.826  18.291   6.691
 3424POPC   C3A46613  41.174  18.212   6.927
 3424POPC   C4A46614  41.090  18.224   7.356
 3424POPC   C1B46615  40.366  18.145   6.271
 3424POPC   C2B46616  40.250  18.299   6.674
 3424POPC   C3B46617  40.428  18.305   7.100
 3424POPC   C4B46618  40.453  18.614   7.430
 3425POPC   NC346619  14.182  40.266   5.481
 3425POPC   PO446620  14.865  40.160   5.375
 3425POPC   GL146621  14.569  39.980   5.693
 3425POPC   GL246622  14.593  39.632   5.753
 3425POPC   C1A46623  14.379  40.037   6.126
 3425POPC   D2A46624  14.608  40.187   6.528
 3425POPC   C3A46625  14.410  40.165   6.942
 3425POPC   C4A46626  14.165  39.862   7.222
 3425POPC   C1B46627  14.806  39.774   6.152
 3425POPC   C2B46628  14.749  39.671   6.573
 3425POPC   C3B46629  14.541  39.640   6.935
 3425POPC   C4B46630  14.641  39.674   7.339
 3426POPC   NC346631  39.804  32.457   5.500
 3426POPC   PO446632  40.422  32.274   5.457
 3426POPC   GL146633  40.111  32.129   5.753
 3426POPC   GL246634  40.125  32.421   5.916
 3426POPC   C1A46635  40.158  31.964   6.163
 3426POPC   D2A46636  40.113  32.234   6.508
 3426POPC   C3A46637  40.126  32.026   6.890
 3426POPC   C4A46638  40.134  32.241   7.272
 3426POPC   C1B46639  39.896  32.614   6.211
 3426POPC   C2B46640  39.720  32.599   6.586
 3426POPC   C3B46641  39.860  32.589   6.983
 3426POPC   C4B46642  39.732  32.540   7.408
 3427POPC   NC346643  25.392  22.854   5.149
 3427POPC   PO446644  26.050  22.926   5.353
 3427POPC   GL146645  26.124  22.904   5.786
 3427POPC   GL246646  25.950  22.601   5.800
 3427POPC   C1A46647  26.201  23.073   6.230
 3427POPC   D2A46648  26.194  22.823   6.625
 3427POPC   C3A46649  26.131  22.997   7.038
 3427POPC   C4A46650  25.745  23.183   7.204
 3427POPC   C1B46651  25.937  22.646   6.212
 3427POPC   C2B46652  25.768  22.554   6.585
 3427POPC   C3B46653  26.011  22.494   6.979
 3427POPC   C4B46654  25.901  22.689   7.406
 3428POPC   NC346655   8.719  10.600   5.487
 3428POPC   PO446656   9.290  10.292   5.370
 3428POPC   GL146657   9.089  10.298   5.754
 3428POPC   GL246658   9.351  10.552   5.848
 3428POPC   C1A46659   8.894  10.471   6.143
 3428POPC   D2A46660   8.754  10.318   6.551
 3428POPC   C3A46661   8.862  10.576   6.956
 3428POPC   C4A46662   9.252  10.718   7.219
 3428POPC   C1B46663   9.356  10.243   6.210
 3428POPC   C2B46664   9.243  10.350   6.646
 3428POPC   C3B46665   9.202  10.218   7.102
 3428POPC   C4B46666   9.320  10.321   7.547
 3429POPC   NC346667   5.388  12.359   5.182
 3429POPC   PO446668   5.034  12.841   5.436
 3429POPC   GL146669   4.773  12.677   5.759
 3429POPC   GL246670   4.666  13.012   5.860
 3429POPC   C1A46671   4.897  12.690   6.213
 3429POPC   D2A46672   4.919  12.893   6.633
 3429POPC   C3A46673   5.029  12.703   7.035
 3429POPC   C4A46674   5.327  12.760   7.405
 3429POPC   C1B46675   4.498  13.170   6.249
 3429POPC   C2B46676   4.486  13.142   6.688
 3429POPC   C3B46677   4.747  13.156   7.075
 3429POPC   C4B46678   4.849  12.894   7.467
 3430POPC   NC346679  35.146  19.787   5.516
 3430POPC   PO446680  35.775  19.544   5.215
 3430POPC   GL146681  35.628  19.748   5.658
 3430POPC   GL246682  35.687  20.120   5.693
 3430POPC   C1A46683  35.439  19.674   6.122
 3430POPC   D2A46684  35.426  19.863   6.559
 3430POPC   C3A46685  35.436  19.546   6.902
 3430POPC   C4A46686  35.334  19.523   7.343
 3430POPC   C1B46687  35.400  20.182   6.076
 3430POPC   C2B46688  35.100  20.243   6.418
 3430POPC   C3B46689  35.080  20.134   6.856
 3430POPC   C4B46690  35.379  20.003   7.184
 3431POPC   NC346691  20.022  42.820   5.477
 3431POPC   PO446692  19.718  43.428   5.428
 3431POPC   GL146693  19.770  43.198   5.826
 3431POPC   GL246694  19.533  42.927   5.813
 3431POPC   C1A46695  20.027  43.121   6.226
 3431POPC   D2A46696  20.242  42.841   6.551
 3431POPC   C3A46697  20.176  42.996   6.972
 3431POPC   C4A46698  20.006  43.341   7.219
 3431POPC   C1B46699  19.602  42.810   6.251
 3431POPC   C2B46700  19.734  42.804   6.709
 3431POPC   C3B46701  19.714  42.907   7.179
 3431POPC   C4B46702  19.644  42.792   7.672
 3432POPC   NC346703  34.500   9.189   5.253
 3432POPC   PO446704  35.009   8.773   5.498
 3432POPC   GL146705  34.776   8.953   5.808
 3432POPC   GL246706  34.471   8.912   5.685
 3432POPC   C1A46707  34.754   9.170   6.198
 3432POPC   D2A46708  34.922   9.138   6.624
 3432POPC   C3A46709  34.684   9.187   7.054
 3432POPC   C4A46710  34.758   9.172   7.518
 3432POPC   C1B46711  34.366   8.843   6.116
 3432POPC   C2B46712  34.528   8.823   6.526
 3432POPC   C3B46713  34.662   8.675   6.910
 3432POPC   C4B46714  34.312   8.662   7.195
 3433POPC   NC346715  30.453   2.183   5.660
 3433POPC   PO446716  31.065   2.249   5.505
 3433POPC   GL146717  30.855   2.188   5.970
 3433POPC   GL246718  30.790   1.834   6.013
 3433POPC   C1A46719  30.456   2.151   6.300
 3433POPC   D2A46720  30.281   2.243   6.735
 3433POPC   C3A46721  30.598   2.000   7.000
 3433POPC   C4A46722  30.587   1.832   7.446
 3433POPC   C1B46723  30.795   1.812   6.489
 3433POPC   C2B46724  30.751   1.533   6.861
 3433POPC   C3B46725  30.923   1.486   7.276
 3433POPC   C4B46726  30.919   1.542   7.747
 3434POPC   NC346727   5.462  33.730   5.532
 3434POPC   PO446728   6.149  33.900   5.321
 3434POPC   GL146729   5.894  33.864   5.732
 3434POPC   GL246730   5.875  33.503   5.713
 3434POPC   C1A46731   5.840  33.761   6.192
 3434POPC   D2A46732   6.156  33.718   6.518
 3434POPC   C3A46733   6.148  33.657   6.966
 3434POPC   C4A46734   5.967  33.955   7.238
 3434POPC   C1B46735   5.613  33.336   6.041
 3434POPC   C2B46736   5.455  33.456   6.450
 3434POPC   C3B46737   5.635  33.389   6.867
 3434POPC   C4B46738   5.713  33.531   7.276
 3435POPC   NC346739   2.245  12.237   5.485
 3435POPC   PO446740   1.919  11.729   5.214
 3435POPC   GL146741   1.855  12.047   5.695
 3435POPC   GL246742   2.135  12.031   5.940
 3435POPC   C1A46743   1.740  12.295   6.089
 3435POPC   D2A46744   1.999  12.140   6.444
 3435POPC   C3A46745   1.872  12.237   6.852
 3435POPC   C4A46746   1.664  12.104   7.217
 3435POPC   C1B46747   2.452  11.877   6.215
 3435POPC   C2B46748   2.600  11.799   6.613
 3435POPC   C3B46749   2.278  11.919   6.860
 3435POPC   C4B46750   2.187  12.056   7.235
 3436POPC   NC346751  22.489  34.406   5.544
 3436POPC   PO446752  21.742  34.392   5.430
 3436POPC   GL146753  21.804  34.608   5.834
 3436POPC   GL246754  22.166  34.691   5.889
 3436POPC   C1A46755  21.814  34.869   6.239
 3436POPC   D2A46756  21.762  35.006   6.693
 3436POPC   C3A46757  21.882  34.648   6.959
 3436POPC   C4A46758  22.250  34.443   7.150
 3436POPC   C1B46759  22.371  34.708   6.303
 3436POPC   C2B46760  22.460  34.418   6.661
 3436POPC   C3B46761  22.742  34.395   6.996
 3436POPC   C4B46762  22.667  34.703   7.290
 3437POPC   NC346763  18.350  13.651   5.328
 3437POPC   PO446764  17.831  13.719   5.728
 3437POPC   GL146765  18.202  13.604   5.926
 3437POPC   GL246766  18.422  13.862   5.783
 3437POPC   C1A46767  18.193  13.517   6.390
 3437POPC   D2A46768  17.943  13.259   6.699
 3437POPC   C3A46769  17.925  13.408   7.152
 3437POPC   C4A46770  17.839  13.294   7.587
 3437POPC   C1B46771  18.570  13.863   6.216
 3437POPC   C2B46772  18.643  13.646   6.607
 3437POPC   C3B46773  18.415  13.578   6.990
 3437POPC   C4B46774  18.198  13.912   7.211
 3438POPC   NC346775   0.432  34.301   5.384
 3438POPC   PO446776   0.319  33.709   5.634
 3438POPC   GL146777   0.591  33.858   5.869
 3438POPC   GL246778   0.799  33.571   5.797
 3438POPC   C1A46779   0.610  34.007   6.327
 3438POPC   D2A46780   0.280  33.889   6.647
 3438POPC   C3A46781   0.462  33.882   7.060
 3438POPC   C4A46782   0.680  34.104   7.287
 3438POPC   C1B46783   0.589  33.505   6.236
 3438POPC   C2B46784   0.601  33.475   6.680
 3438POPC   C3B46785   0.258  33.451   6.962
 3438POPC   C4B46786   0.337  33.460   7.367
 3439POPC   NC346787  38.940  21.880   5.536
 3439POPC   PO446788  38.252  21.996   5.460
 3439POPC   GL146789  38.350  22.232   5.830
 3439POPC   GL246790  38.673  22.418   5.740
 3439POPC   C1A46791  38.188  22.206   6.278
 3439POPC   D2A46792  38.227  22.265   6.745
 3439POPC   C3A46793  38.390  21.936   7.004
 3439POPC   C4A46794  38.553  21.954   7.430
 3439POPC   C1B46795  38.702  22.325   6.194
 3439POPC   C2B46796  38.721  22.433   6.620
 3439POPC   C3B46797  38.763  22.278   7.040
 3439POPC   C4B46798  38.734  22.432   7.455
 3440POPC   NC346799  26.547  14.812   5.275
 3440POPC   PO446800  27.082  14.421   5.576
 3440POPC   GL146801  26.797  14.401   5.903
 3440POPC   GL246802  26.523  14.621   5.777
 3440POPC   C1A46803  26.836  14.390   6.382
 3440POPC   D2A46804  27.142  14.301   6.725
 3440POPC   C3A46805  26.895  14.331   7.093
 3440POPC   C4A46806  26.510  14.123   7.093
 3440POPC   C1B46807  26.703  14.833   6.124
 3440POPC   C2B46808  26.596  14.899   6.493
 3440POPC   C3B46809  26.832  14.755   6.815
 3440POPC   C4B46810  26.630  14.786   7.193
 3441POPC   NC346811  21.503  37.196   5.269
 3441POPC   PO446812  21.812  36.672   5.470
 3441POPC   GL146813  21.423  36.733   5.694
 3441POPC   GL246814  21.371  37.058   5.787
 3441POPC   C1A46815  21.238  36.651   6.111
 3441POPC   D2A46816  21.448  36.459   6.476
 3441POPC   C3A46817  21.559  36.757   6.793
 3441POPC   C4A46818  21.689  36.808   7.217
 3441POPC   C1B46819  21.040  37.169   6.049
 3441POPC   C2B46820  20.809  37.175   6.425
 3441POPC   C3B46821  20.885  37.135   6.862
 3441POPC   C4B46822  21.174  36.887   7.121
 3442POPC   NC346823  32.635  19.511   5.507
 3442POPC   PO446824  33.117  18.907   5.440
 3442POPC   GL146825  32.943  19.152   5.751
 3442POPC   GL246826  32.628  19.034   5.704
 3442POPC   C1A46827  33.052  19.168   6.190
 3442POPC   D2A46828  33.288  19.032   6.553
 3442POPC   C3A46829  33.134  19.155   6.966
 3442POPC   C4A46830  33.071  18.887   7.329
 3442POPC   C1B46831  32.545  19.258   6.106
 3442POPC   C2B46832  32.709  19.460   6.457
 3442POPC   C3B46833  32.647  19.364   6.862
 3442POPC   C4B46834  32.681  19.161   7.223
 3443POPC   NC346835  15.724   0.178   5.421
 3443POPC   PO446836  16.215   0.691   5.424
 3443POPC   GL146837  15.970   0.740   5.803
 3443POPC   GL246838  15.840   0.384   5.883
 3443POPC   C1A46839  15.835   0.772   6.252
 3443POPC   D2A46840  15.651   0.757   6.666
 3443POPC   C3A46841  15.982   0.626   6.938
 3443POPC   C4A46842  16.086   0.327   7.222
 3443POPC   C1B46843  15.550   0.273   6.234
 3443POPC   C2B46844  15.568   0.001   6.607
 3443POPC   C3B46845  15.653   0.198   6.986
 3443POPC   C4B46846  15.584   0.165   7.413
 3444POPC   NC346847   3.268  31.264   5.384
 3444POPC   PO446848   2.701  31.397   5.440
 3444POPC   GL146849   2.837  31.531   5.804
 3444POPC   GL246850   3.166  31.597   5.768
 3444POPC   C1A46851   2.709  31.737   6.163
 3444POPC   D2A46852   2.894  31.675   6.532
 3444POPC   C3A46853   2.621  31.651   6.853
 3444POPC   C4A46854   2.720  31.762   7.232
 3444POPC   C1B46855   3.149  31.371   6.185
 3444POPC   C2B46856   3.191  31.261   6.632
 3444POPC   C3B46857   3.019  31.361   7.033
 3444POPC   C4B46858   3.145  31.162   7.442
 3445POPC   NC346859  18.764  41.078   5.489
 3445POPC   PO446860  19.161  41.731   5.523
 3445POPC   GL146861  19.145  41.559   5.919
 3445POPC   GL246862  19.054  41.237   5.871
 3445POPC   C1A46863  19.055  41.626   6.349
 3445POPC   D2A46864  18.948  41.954   6.658
 3445POPC   C3A46865  19.030  41.784   7.074
 3445POPC   C4A46866  19.353  41.494   7.291
 3445POPC   C1B46867  18.917  40.962   6.184
 3445POPC   C2B46868  18.891  41.168   6.601
 3445POPC   C3B46869  18.975  41.288   7.019
 3445POPC   C4B46870  18.979  41.134   7.448
 3446POPC   NC346871   9.846  37.983   5.293
 3446POPC   PO446872   9.462  37.497   5.356
 3446POPC   GL146873   9.581  37.684   5.746
 3446POPC   GL246874   9.956  37.765   5.781
 3446POPC   C1A46875   9.621  37.543   6.170
 3446POPC   D2A46876   9.449  37.415   6.583
 3446POPC   C3A46877   9.506  37.631   6.945
 3446POPC   C4A46878   9.787  37.498   7.196
 3446POPC   C1B46879   9.945  37.969   6.192
 3446POPC   C2B46880  10.111  37.916   6.614
 3446POPC   C3B46881   9.926  37.970   7.034
 3446POPC   C4B46882   9.968  37.903   7.484
 3447POPC   NC346883  14.272  17.343   5.447
 3447POPC   PO446884  14.773  17.866   5.461
 3447POPC   GL146885  14.533  17.641   5.814
 3447POPC   GL246886  14.274  17.369   5.952
 3447POPC   C1A46887  14.731  17.417   6.172
 3447POPC   D2A46888  14.740  17.260   6.591
 3447POPC   C3A46889  14.516  17.413   6.934
 3447POPC   C4A46890  14.435  17.545   7.323
 3447POPC   C1B46891  14.215  17.751   6.248
 3447POPC   C2B46892  14.141  17.787   6.725
 3447POPC   C3B46893  13.990  17.436   6.992
 3447POPC   C4B46894  14.099  17.143   7.304
 3448POPC   NC346895  12.216  28.391   5.351
 3448POPC   PO446896  11.606  28.296   5.530
 3448POPC   GL146897  11.943  28.396   5.810
 3448POPC   GL246898  12.224  28.170   5.849
 3448POPC   C1A46899  11.949  28.359   6.275
 3448POPC   D2A46900  11.781  28.228   6.690
 3448POPC   C3A46901  11.948  28.429   7.086
 3448POPC   C4A46902  12.247  28.743   7.249
 3448POPC   C1B46903  12.443  28.184   6.262
 3448POPC   C2B46904  12.293  28.242   6.685
 3448POPC   C3B46905  12.452  28.305   7.091
 3448POPC   C4B46906  12.314  28.085   7.455
 3449POPC   NC346907   2.809  33.826   5.339
 3449POPC   PO446908   2.244  33.860   5.627
 3449POPC   GL146909   2.566  33.637   5.837
 3449POPC   GL246910   2.917  33.455   5.777
 3449POPC   C1A46911   2.524  33.682   6.257
 3449POPC   D2A46912   2.675  33.510   6.619
 3449POPC   C3A46913   2.566  33.767   6.952
 3449POPC   C4A46914   2.655  33.940   7.362
 3449POPC   C1B46915   3.008  33.530   6.213
 3449POPC   C2B46916   3.000  33.916   6.487
 3449POPC   C3B46917   3.035  34.031   6.931
 3449POPC   C4B46918   3.120  33.768   7.299
 3450POPC   NC346919   4.903  34.138   5.466
 3450POPC   PO446920   5.096  33.552   5.748
 3450POPC   GL146921   5.330  33.796   6.024
 3450POPC   GL246922   5.132  34.057   5.939
 3450POPC   C1A46923   5.160  33.896   6.428
 3450POPC   D2A46924   4.998  33.567   6.705
 3450POPC   C3A46925   5.219  33.660   7.064
 3450POPC   C4A46926   5.472  33.972   7.163
 3450POPC   C1B46927   4.738  34.100   6.144
 3450POPC   C2B46928   4.553  34.072   6.562
 3450POPC   C3B46929   4.863  34.034   6.879
 3450POPC   C4B46930   5.005  34.084   7.278
 3451POPC   NC346931   8.089  24.353   5.422
 3451POPC   PO446932   8.639  24.680   5.126
 3451POPC   GL146933   8.475  24.786   5.597
 3451POPC   GL246934   8.335  24.496   5.834
 3451POPC   C1A46935   8.403  24.920   6.081
 3451POPC   D2A46936   8.348  24.651   6.481
 3451POPC   C3A46937   8.045  24.533   6.819
 3451POPC   C4A46938   8.112  24.646   7.219
 3451POPC   C1B46939   8.392  24.218   6.210
 3451POPC   C2B46940   8.332  24.143   6.651
 3451POPC   C3B46941   8.397  24.227   7.111
 3451POPC   C4B46942   8.153  24.248   7.532
 3452POPC   NC346943  36.116   6.259   5.466
 3452POPC   PO446944  36.286   6.814   5.082
 3452POPC   GL146945  36.231   6.763   5.604
 3452POPC   GL246946  36.361   6.530   5.888
 3452POPC   C1A46947  36.148   6.925   6.092
 3452POPC   D2A46948  36.233   7.058   6.557
 3452POPC   C3A46949  36.213   6.787   6.943
 3452POPC   C4A46950  35.879   6.533   7.138
 3452POPC   C1B46951  36.387   6.538   6.383
 3452POPC   C2B46952  36.343   6.315   6.813
 3452POPC   C3B46953  36.287   6.269   7.277
 3452POPC   C4B46954  36.302   6.490   7.706
 3453POPC   NC346955  18.815  30.956   5.458
 3453POPC   PO446956  19.131  30.342   5.450
 3453POPC   GL146957  19.015  30.572   5.790
 3453POPC   GL246958  19.237  30.848   5.742
 3453POPC   C1A46959  18.798  30.496   6.197
 3453POPC   D2A46960  18.937  30.324   6.594
 3453POPC   C3A46961  18.834  30.547   6.966
 3453POPC   C4A46962  19.018  30.590   7.396
 3453POPC   C1B46963  19.079  30.933   6.155
 3453POPC   C2B46964  18.873  30.896   6.582
 3453POPC   C3B46965  19.147  30.956   6.963
 3453POPC   C4B46966  19.209  31.066   7.391
 3454POPC   NC346967  40.259  24.521   5.710
 3454POPC   PO446968  40.818  24.693   5.278
 3454POPC   GL146969  40.794  24.476   5.762
 3454POPC   GL246970  40.840  24.109   5.792
 3454POPC   C1A46971  41.061  24.381   6.180
 3454POPC   D2A46972  41.244  24.326   6.628
 3454POPC   C3A46973  41.117  24.639   6.957
 3454POPC   C4A46974  40.674  24.729   7.161
 3454POPC   C1B46975  40.571  24.212   6.177
 3454POPC   C2B46976  40.449  24.115   6.600
 3454POPC   C3B46977  40.714  24.280   6.916
 3454POPC   C4B46978  40.616  24.233   7.344
 3455POPC   NC346979  21.895   9.415   5.405
 3455POPC   PO446980  22.442   9.692   5.095
 3455POPC   GL146981  22.361   9.741   5.568
 3455POPC   GL246982  22.024   9.740   5.808
 3455POPC   C1A46983  22.457   9.830   6.030
 3455POPC   D2A46984  22.113   9.762   6.375
 3455POPC   C3A46985  22.209   9.797   6.823
 3455POPC   C4A46986  22.567   9.710   7.120
 3455POPC   C1B46987  21.762  10.015   6.114
 3455POPC   C2B46988  21.826  10.215   6.556
 3455POPC   C3B46989  21.790  10.058   7.008
 3455POPC   C4B46990  21.951   9.705   7.282
 3456POPC   NC346991  15.075  15.033   5.261
 3456POPC   PO446992  14.913  15.554   5.160
 3456POPC   GL146993  15.207  15.384   5.607
 3456POPC   GL246994  15.163  15.036   5.764
 3456POPC   C1A46995  15.167  15.429   6.117
 3456POPC   D2A46996  14.939  15.557   6.550
 3456POPC   C3A46997  15.102  15.480   6.986
 3456POPC   C4A46998  15.415  15.367   7.322
 3456POPC   C1B46999  15.141  14.878   6.192
 3456POPC   C2B47000  15.191  15.074   6.611
 3456POPC   C3B47001  15.194  14.978   7.053
 3456POPC   C4B47002  14.891  14.818   7.345
 3457POPC   NC347003  22.148  10.033   5.133
 3457POPC   PO447004  22.092  10.599   5.376
 3457POPC   GL147005  22.205  10.252   5.678
 3457POPC   GL247006  22.576  10.205   5.641
 3457POPC   C1A47007  22.158  10.334   6.148
 3457POPC   D2A47008  22.293  10.566   6.541
 3457POPC   C3A47009  22.090  10.482   6.935
 3457POPC   C4A47010  22.158  10.618   7.339
 3457POPC   C1B47011  22.670  10.311   6.084
 3457POPC   C2B47012  22.503  10.100   6.465
 3457POPC   C3B47013  22.515  10.205   6.887
 3457POPC   C4B47014  22.265  10.105   7.255
 3458POPC   NC347015   7.905   9.080   5.545
 3458POPC   PO447016   7.292   8.897   5.372
 3458POPC   GL147017   7.445   8.925   5.794
 3458POPC   GL247018   7.728   8.693   5.837
 3458POPC   C1A47019   7.184   9.015   6.175
 3458POPC   D2A47020   7.126   8.880   6.595
 3458POPC   C3A47021   7.223   9.202   6.870
 3458POPC   C4A47022   7.056   9.183   7.240
 3458POPC   C1B47023   7.774   8.513   6.224
 3458POPC   C2B47024   7.510   8.517   6.594
 3458POPC   C3B47025   7.443   8.685   7.022
 3458POPC   C4B47026   7.672   8.654   7.425
 3459POPC   NC347027  23.400  14.545   5.235
 3459POPC   PO447028  24.016  14.328   5.312
 3459POPC   GL147029  23.804  14.182   5.703
 3459POPC   GL247030  23.684  14.505   5.746
 3459POPC   C1A47031  23.612  14.185   6.152
 3459POPC   D2A47032  23.866  14.320   6.551
 3459POPC   C3A47033  23.858  14.310   7.007
 3459POPC   C4A47034  24.019  13.963   7.234
 3459POPC   C1B47035  23.783  14.662   6.168
 3459POPC   C2B47036  23.723  14.826   6.607
 3459POPC   C3B47037  23.696  14.790   7.039
 3459POPC   C4B47038  23.555  14.544   7.381
 3460POPC   NC347039  29.483  24.000   5.531
 3460POPC   PO447040  29.164  23.542   5.360
 3460POPC   GL147041  29.105  23.740   5.755
 3460POPC   GL247042  28.754  23.775   5.733
 3460POPC   C1A47043  29.294  23.846   6.191
 3460POPC   D2A47044  29.204  24.017   6.613
 3460POPC   C3A47045  29.369  23.862   6.997
 3460POPC   C4A47046  29.519  23.412   6.990
 3460POPC   C1B47047  28.846  23.604   6.164
 3460POPC   C2B47048  29.020  23.534   6.566
 3460POPC   C3B47049  28.920  23.631   6.998
 3460POPC   C4B47050  28.978  23.893   7.359
 3461POPC   NC347051  36.350  23.113   5.433
 3461POPC   PO447052  35.930  22.614   5.425
 3461POPC   GL147053  36.136  22.803   5.779
 3461POPC   GL247054  35.918  23.076   5.827
 3461POPC   C1A47055  36.356  22.710   6.174
 3461POPC   D2A47056  36.374  22.772   6.628
 3461POPC   C3A47057  36.048  22.613   6.876
 3461POPC   C4A47058  35.941  22.517   7.299
 3461POPC   C1B47059  36.197  23.188   6.150
 3461POPC   C2B47060  36.289  23.285   6.572
 3461POPC   C3B47061  36.353  23.151   6.970
 3461POPC   C4B47062  35.983  23.039   7.184
 3462POPC   NC347063  10.918   6.201   5.568
 3462POPC   PO447064  11.196   6.784   5.256
 3462POPC   GL147065  11.455   6.877   5.652
 3462POPC   GL247066  11.151   6.819   5.793
 3462POPC   C1A47067  11.560   6.757   6.119
 3462POPC   D2A47068  11.353   6.912   6.530
 3462POPC   C3A47069  11.589   6.935   6.902
 3462POPC   C4A47070  11.564   6.669   7.290
 3462POPC   C1B47071  11.031   6.730   6.179
 3462POPC   C2B47072  10.963   6.521   6.557
 3462POPC   C3B47073  11.190   6.553   6.924
 3462POPC   C4B47074  11.066   6.491   7.329
 3463POPC   NC347075  42.467   5.781   5.184
 3463POPC   PO447076  41.951   6.195   5.407
 3463POPC   GL147077  42.213   5.914   5.674
 3463POPC   GL247078  42.561   5.868   5.703
 3463POPC   C1A47079  42.232   5.835   6.144
 3463POPC   D2A47080  42.400   5.902   6.592
 3463POPC   C3A47081  42.301   5.689   7.013
 3463POPC   C4A47082  42.123   5.894   7.373
 3463POPC   C1B47083  42.762   5.900   6.141
 3463POPC   C2B47084  42.920   5.863   6.591
 3463POPC   C3B47085  42.790   5.863   7.035
 3463POPC   C4B47086  42.608   5.805   7.431
 3464POPC   NC347087  25.207  34.519   5.072
 3464POPC   PO447088  24.984  34.844   5.597
 3464POPC   GL147089  25.275  34.679   5.830
 3464POPC   GL247090  25.253  34.336   5.756
 3464POPC   C1A47091  25.260  34.649   6.259
 3464POPC   D2A47092  25.493  34.666   6.612
 3464POPC   C3A47093  25.382  34.467   6.982
 3464POPC   C4A47094  25.395  34.685   7.373
 3464POPC   C1B47095  25.105  34.185   6.193
 3464POPC   C2B47096  25.032  34.266   6.635
 3464POPC   C3B47097  24.906  34.165   7.065
 3464POPC   C4B47098  25.055  34.337   7.460
 3465POPC   NC347099  35.629  14.581   5.432
 3465POPC   PO447100  35.313  14.011   5.615
 3465POPC   GL147101  35.342  14.393   5.834
 3465POPC   GL247102  35.684  14.461   5.916
 3465POPC   C1A47103  35.347  14.264   6.257
 3465POPC   D2A47104  35.373  14.344   6.651
 3465POPC   C3A47105  35.141  14.168   6.946
 3465POPC   C4A47106  35.409  14.024   7.219
 3465POPC   C1B47107  35.772  14.717   6.286
 3465POPC   C2B47108  35.649  14.762   6.726
 3465POPC   C3B47109  35.498  14.543   7.115
 3465POPC   C4B47110  35.699  14.765   7.439
 3466POPC   NC347111   3.917  37.239   5.531
 3466POPC   PO447112   4.358  36.837   5.161
 3466POPC   GL147113   4.421  36.936   5.665
 3466POPC   GL247114   4.138  37.007   5.928
 3466POPC   C1A47115   4.587  36.825   6.081
 3466POPC   D2A47116   4.295  36.906   6.431
 3466POPC   C3A47117   4.388  36.751   6.832
 3466POPC   C4A47118   4.432  36.925   7.242
 3466POPC   C1B47119   3.973  37.296   6.272
 3466POPC   C2B47120   3.830  37.172   6.679
 3466POPC   C3B47121   3.896  37.089   7.159
 3466POPC   C4B47122   3.955  37.260   7.643
 3467POPC   NC347123  37.829  24.122   5.367
 3467POPC   PO447124  37.426  23.541   5.379
 3467POPC   GL147125  37.766  23.657   5.628
 3467POPC   GL247126  37.591  23.927   5.762
 3467POPC   C1A47127  37.959  23.708   6.065
 3467POPC   D2A47128  37.725  23.769   6.449
 3467POPC   C3A47129  37.867  23.653   6.857
 3467POPC   C4A47130  37.675  23.691   7.255
 3467POPC   C1B47131  37.360  24.063   6.103
 3467POPC   C2B47132  37.437  24.208   6.501
 3467POPC   C3B47133  37.456  23.994   6.866
 3467POPC   C4B47134  37.405  24.127   7.264
 3468POPC   NC347135  12.775   3.233   5.648
 3468POPC   PO447136  12.728   2.751   5.159
 3468POPC   GL147137  12.846   2.726   5.621
 3468POPC   GL247138  13.095   2.542   5.777
 3468POPC   C1A47139  12.753   2.779   6.096
 3468POPC   D2A47140  12.630   2.728   6.516
 3468POPC   C3A47141  12.885   2.762   6.884
 3468POPC   C4A47142  12.658   2.687   7.270
 3468POPC   C1B47143  13.216   2.606   6.228
 3468POPC   C2B47144  13.190   2.348   6.617
 3468POPC   C3B47145  13.282   2.462   7.050
 3468POPC   C4B47146  13.178   2.765   7.364
 3469POPC   NC347147  22.697  10.700   5.499
 3469POPC   PO447148  23.050  10.170   5.433
 3469POPC   GL147149  23.152  10.362   5.827
 3469POPC   GL247150  23.116  10.721   5.781
 3469POPC   C1A47151  23.168  10.431   6.262
 3469POPC   D2A47152  22.942  10.300   6.592
 3469POPC   C3A47153  22.956  10.484   6.951
 3469POPC   C4A47154  23.155  10.557   7.318
 3469POPC   C1B47155  22.874  10.831   6.153
 3469POPC   C2B47156  22.743  10.840   6.594
 3469POPC   C3B47157  22.535  10.754   6.984
 3469POPC   C4B47158  22.668  10.679   7.397
 3470POPC   NC347159  25.008  30.364   5.689
 3470POPC   PO447160  25.206  30.935   5.313
 3470POPC   GL147161  25.267  30.849   5.748
 3470POPC   GL247162  24.937  30.809   5.937
 3470POPC   C1A47163  25.295  31.084   6.143
 3470POPC   D2A47164  25.463  31.005   6.514
 3470POPC   C3A47165  25.315  30.796   6.873
 3470POPC   C4A47166  25.548  30.647   7.230
 3470POPC   C1B47167  25.274  30.587   6.222
 3470POPC   C2B47168  25.528  30.371   6.504
 3470POPC   C3B47169  25.404  30.285   6.900
 3470POPC   C4B47170  25.031  30.314   7.095
 3471POPC   NC347171  35.201  43.333   5.112
 3471POPC   PO447172  35.080  42.720   5.418
 3471POPC   GL147173  35.419  42.945   5.641
 3471POPC   GL247174  35.334  43.298   5.699
 3471POPC   C1A47175  35.492  42.981   6.101
 3471POPC   D2A47176  35.236  43.009   6.482
 3471POPC   C3A47177  35.491  42.999   6.856
 3471POPC   C4A47178  35.631  42.839   7.240
 3471POPC   C1B47179  35.067  43.319   6.087
 3471POPC   C2B47180  35.097  43.507   6.475
 3471POPC   C3B47181  35.054  43.329   6.853
 3471POPC   C4B47182  35.230  43.136   7.280
 3472POPC   NC347183  20.140  28.123   5.434
 3472POPC   PO447184  19.733  28.635   5.300
 3472POPC   GL147185  19.770  28.448   5.689
 3472POPC   GL247186  19.841  28.759   5.852
 3472POPC   C1A47187  19.603  28.407   6.122
 3472POPC   D2A47188  19.716  28.628   6.495
 3472POPC   C3A47189  19.530  28.504   6.901
 3472POPC   C4A47190  19.508  28.340   7.329
 3472POPC   C1B47191  20.161  28.817   6.174
 3472POPC   C2B47192  20.221  28.738   6.615
 3472POPC   C3B47193  20.087  28.506   6.991
 3472POPC   C4B47194  20.186  28.583   7.423
 3473POPC   NC347195  22.577  11.642   5.645
 3473POPC   PO447196  22.073  11.438   5.176
 3473POPC   GL147197  22.065  11.409   5.682
 3473POPC   GL247198  22.170  11.691   5.923
 3473POPC   C1A47199  21.950  11.277   6.159
 3473POPC   D2A47200  21.790  11.219   6.625
 3473POPC   C3A47201  22.104  11.026   6.943
 3473POPC   C4A47202  22.368  11.100   7.347
 3473POPC   C1B47203  22.387  11.518   6.266
 3473POPC   C2B47204  22.243  11.472   6.683
 3473POPC   C3B47205  22.212  11.529   7.120
 3473POPC   C4B47206  22.469  11.599   7.495
 3474POPC   NC347207   5.618   8.823   5.470
 3474POPC   PO447208   5.011   9.146   5.379
 3474POPC   GL147209   5.061   9.154   5.823
 3474POPC   GL247210   4.879   9.429   6.022
 3474POPC   C1A47211   5.282   9.023   6.188
 3474POPC   D2A47212   5.131   9.087   6.601
 3474POPC   C3A47213   5.252   8.861   6.958
 3474POPC   C4A47214   5.346   9.147   7.280
 3474POPC   C1B47215   4.751   9.013   6.205
 3474POPC   C2B47216   4.625   8.772   6.571
 3474POPC   C3B47217   4.640   8.744   6.995
 3474POPC   C4B47218   4.868   8.987   7.294
 3475POPC   NC347219  28.784  36.144   5.090
 3475POPC   PO447220  28.302  35.686   5.354
 3475POPC   GL147221  28.100  35.689   5.817
 3475POPC   GL247222  27.743  35.824   5.832
 3475POPC   C1A47223  28.159  35.696   6.320
 3475POPC   D2A47224  28.399  35.743   6.780
 3475POPC   C3A47225  28.469  36.166   7.032
 3475POPC   C4A47226  28.290  36.322   7.469
 3475POPC   C1B47227  27.804  36.065   6.244
 3475POPC   C2B47228  28.019  36.066   6.686
 3475POPC   C3B47229  28.018  35.985   7.148
 3475POPC   C4B47230  27.773  36.183   7.500
 3476POPC   NC347231  14.749  28.473   5.528
 3476POPC   PO447232  15.436  28.387   5.543
 3476POPC   GL147233  15.170  28.217   5.843
 3476POPC   GL247234  15.411  27.975   5.874
 3476POPC   C1A47235  15.114  28.425   6.249
 3476POPC   D2A47236  14.927  28.595   6.592
 3476POPC   C3A47237  14.970  28.387   6.942
 3476POPC   C4A47238  14.963  28.384   7.348
 3476POPC   C1B47239  15.541  28.151   6.282
 3476POPC   C2B47240  15.345  28.153   6.693
 3476POPC   C3B47241  15.467  28.246   7.126
 3476POPC   C4B47242  15.442  28.213   7.565
 3477POPC   NC347243  41.996  10.953   5.589
 3477POPC   PO447244  41.492  11.329   5.273
 3477POPC   GL147245  41.574  11.545   5.748
 3477POPC   GL247246  41.917  11.382   5.877
 3477POPC   C1A47247  41.476  11.539   6.195
 3477POPC   D2A47248  41.398  11.244   6.546
 3477POPC   C3A47249  41.605  11.192   6.922
 3477POPC   C4A47250  41.567  11.299   7.340
 3477POPC   C1B47251  41.970  11.334   6.345
 3477POPC   C2B47252  42.099  11.119   6.752
 3477POPC   C3B47253  42.024  11.089   7.227
 3477POPC   C4B47254  41.903  11.168   7.700
 3478POPC   NC347255  43.265  42.955   5.459
 3478POPC   PO447256  42.606  43.231   5.386
 3478POPC   GL147257  42.832  43.016   5.716
 3478POPC   GL247258  43.144  43.166   5.901
 3478POPC   C1A47259  42.771  42.875   6.121
 3478POPC   D2A47260  42.965  43.085   6.460
 3478POPC   C3A47261  42.990  42.818   6.787
 3478POPC   C4A47262  42.816  43.004   7.147
 3478POPC   C1B47263  43.413  43.207   6.260
 3478POPC   C2B47264  43.478  43.047   6.672
 3478POPC   C3B47265  43.332  43.083   7.063
 3478POPC   C4B47266  43.493  43.198   7.419
 3479POPC   NC347267   9.676  41.459   5.104
 3479POPC   PO447268   9.927  41.258   5.641
 3479POPC   GL147269   9.724  41.299   5.985
 3479POPC   GL247270   9.767  41.642   5.936
 3479POPC   C1A47271   9.912  41.423   6.366
 3479POPC   D2A47272  10.179  41.625   6.611
 3479POPC   C3A47273   9.955  41.490   6.962
 3479POPC   C4A47274   9.891  41.578   7.378
 3479POPC   C1B47275   9.482  41.662   6.285
 3479POPC   C2B47276   9.501  41.440   6.683
 3479POPC   C3B47277   9.450  41.624   7.066
 3479POPC   C4B47278   9.423  42.053   7.109
 3480POPC   NC347279   4.816  20.824   5.600
 3480POPC   PO447280   4.142  20.853   5.409
 3480POPC   GL147281   4.345  20.600   5.738
 3480POPC   GL247282   4.157  20.312   5.864
 3480POPC   C1A47283   4.443  20.554   6.191
 3480POPC   D2A47284   4.562  20.501   6.598
 3480POPC   C3A47285   4.287  20.758   6.802
 3480POPC   C4A47286   4.263  20.826   7.194
 3480POPC   C1B47287   4.119  20.089   6.252
 3480POPC   C2B47288   4.233  20.074   6.696
 3480POPC   C3B47289   4.340  20.342   7.063
 3480POPC   C4B47290   4.207  20.422   7.517
 3481POPC   NC347291  24.174  24.461   5.490
 3481POPC   PO447292  24.758  24.264   5.161
 3481POPC   GL147293  24.655  24.344   5.609
 3481POPC   GL247294  24.754  24.640   5.820
 3481POPC   C1A47295  24.508  24.223   6.041
 3481POPC   D2A47296  24.409  24.496   6.401
 3481POPC   C3A47297  24.299  24.343   6.809
 3481POPC   C4A47298  24.466  24.253   7.216
 3481POPC   C1B47299  24.916  24.469   6.245
 3481POPC   C2B47300  24.839  24.350   6.664
 3481POPC   C3B47301  24.684  24.664   6.899
 3481POPC   C4B47302  24.593  24.783   7.280
 3482POPC   NC347303  15.978  19.445   5.411
 3482POPC   PO447304  15.825  20.131   5.492
 3482POPC   GL147305  16.002  19.850   5.827
 3482POPC   GL247306  16.206  19.549   5.853
 3482POPC   C1A47307  16.049  19.855   6.258
 3482POPC   D2A47308  15.850  20.026   6.617
 3482POPC   C3A47309  15.996  19.878   6.973
 3482POPC   C4A47310  15.922  20.119   7.286
 3482POPC   C1B47311  16.240  19.356   6.256
 3482POPC   C2B47312  16.162  19.467   6.679
 3482POPC   C3B47313  16.322  19.514   7.113
 3482POPC   C4B47314  16.332  19.812   7.422
 3483POPC   NC347315  40.827  31.013   5.653
 3483POPC   PO447316  40.398  30.615   5.436
 3483POPC   GL147317  40.648  30.585   5.824
 3483POPC   GL247318  41.032  30.598   5.871
 3483POPC   C1A47319  40.527  30.792   6.213
 3483POPC   D2A47320  40.689  30.697   6.602
 3483POPC   C3A47321  40.604  30.756   6.986
 3483POPC   C4A47322  40.694  30.616   7.391
 3483POPC   C1B47323  41.031  30.858   6.272
 3483POPC   C2B47324  41.131  30.866   6.742
 3483POPC   C3B47325  41.091  30.574   7.087
 3483POPC   C4B47326  41.098  30.287   7.453
 3484POPC   NC347327  14.904   9.052   5.330
 3484POPC   PO447328  15.614   9.282   5.416
 3484POPC   GL147329  15.406   8.964   5.766
 3484POPC   GL247330  15.010   8.949   5.832
 3484POPC   C1A47331  15.346   8.841   6.198
 3484POPC   D2A47332  15.347   8.754   6.638
 3484POPC   C3A47333  15.163   8.949   7.003
 3484POPC   C4A47334  15.289   9.296   7.290
 3484POPC   C1B47335  14.825   8.711   6.178
 3484POPC   C2B47336  14.841   8.671   6.633
 3484POPC   C3B47337  14.722   8.564   7.061
 3484POPC   C4B47338  14.780   8.625   7.514
 3485POPC   NC347339  17.735  23.687   5.336
 3485POPC   PO447340  17.096  23.682   5.346
 3485POPC   GL147341  17.388  23.748   5.733
 3485POPC   GL247342  17.665  23.598   5.881
 3485POPC   C1A47343  17.337  23.912   6.203
 3485POPC   D2A47344  17.112  23.872   6.642
 3485POPC   C3A47345  17.314  23.941   7.073
 3485POPC   C4A47346  17.593  24.210   7.346
 3485POPC   C1B47347  17.596  23.437   6.315
 3485POPC   C2B47348  17.600  23.471   6.779
 3485POPC   C3B47349  17.778  23.711   7.141
 3485POPC   C4B47350  17.705  23.762   7.584
 3486POPC   NC347351  16.903  12.569   5.453
 3486POPC   PO447352  16.660  13.239   5.374
 3486POPC   GL147353  16.585  12.916   5.708
 3486POPC   GL247354  16.884  12.843   5.889
 3486POPC   C1A47355  16.414  12.810   6.126
 3486POPC   D2A47356  16.697  12.871   6.520
 3486POPC   C3A47357  16.662  12.746   6.939
 3486POPC   C4A47358  16.405  12.615   7.242
 3486POPC   C1B47359  17.104  13.044   6.234
 3486POPC   C2B47360  17.199  13.068   6.625
 3486POPC   C3B47361  16.981  13.148   6.971
 3486POPC   C4B47362  17.006  13.002   7.347
 3487POPC   NC347363  23.845  30.734   5.393
 3487POPC   PO447364  23.667  30.222   5.159
 3487POPC   GL147365  23.750  30.333   5.688
 3487POPC   GL247366  23.607  30.675   5.826
 3487POPC   C1A47367  23.840  30.425   6.186
 3487POPC   D2A47368  23.650  30.576   6.608
 3487POPC   C3A47369  23.716  30.344   7.023
 3487POPC   C4A47370  24.059  30.387   7.377
 3487POPC   C1B47371  23.380  30.778   6.190
 3487POPC   C2B47372  23.211  30.937   6.566
 3487POPC   C3B47373  23.354  30.845   6.941
 3487POPC   C4B47374  23.741  30.829   7.163
 3488POPC   NC347375  37.056  28.419   5.338
 3488POPC   PO447376  36.386  28.547   5.272
 3488POPC   GL147377  36.696  28.596   5.699
 3488POPC   GL247378  36.907  28.317   5.831
 3488POPC   C1A47379  36.903  28.693   6.164
 3488POPC   D2A47380  37.132  28.422   6.525
 3488POPC   C3A47381  37.141  28.549   6.972
 3488POPC   C4A47382  36.865  28.762   7.318
 3488POPC   C1B47383  36.740  28.228   6.233
 3488POPC   C2B47384  36.639  28.383   6.642
 3488POPC   C3B47385  36.656  28.373   7.058
 3488POPC   C4B47386  36.943  28.237   7.324
 3489POPC   NC347387   6.562  33.678   5.292
 3489POPC   PO447388   7.078  33.918   5.691
 3489POPC   GL147389   6.690  33.722   5.836
 3489POPC   GL247390   6.363  33.904   5.900
 3489POPC   C1A47391   6.563  33.576   6.245
 3489POPC   D2A47392   6.558  33.449   6.672
 3489POPC   C3A47393   6.705  33.758   6.929
 3489POPC   C4A47394   6.932  33.811   7.309
 3489POPC   C1B47395   6.141  34.172   6.258
 3489POPC   C2B47396   6.168  34.189   6.749
 3489POPC   C3B47397   6.421  34.122   7.124
 3489POPC   C4B47398   6.419  33.780   7.426
 3490POPC   NC347399  19.306  23.460   5.239
 3490POPC   PO447400  18.880  23.924   5.417
 3490POPC   GL147401  19.191  23.746   5.687
 3490POPC   GL247402  19.106  23.398   5.710
 3490POPC   C1A47403  19.224  23.674   6.127
 3490POPC   D2A47404  19.339  23.806   6.553
 3490POPC   C3A47405  19.261  23.598   6.927
 3490POPC   C4A47406  19.306  23.687   7.348
 3490POPC   C1B47407  18.890  23.308   6.107
 3490POPC   C2B47408  18.942  23.486   6.515
 3490POPC   C3B47409  18.752  23.643   6.862
 3490POPC   C4B47410  18.822  23.401   7.213
 3491POPC   NC347411  13.147  29.950   5.423
 3491POPC   PO447412  13.765  29.687   5.348
 3491POPC   GL147413  13.821  29.864   5.767
 3491POPC   GL247414  13.461  29.935   5.846
 3491POPC   C1A47415  13.774  29.955   6.250
 3491POPC   D2A47416  13.469  29.861   6.586
 3491POPC   C3A47417  13.582  29.849   6.997
 3491POPC   C4A47418  13.925  29.944   7.183
 3491POPC   C1B47419  13.312  30.196   6.213
 3491POPC   C2B47420  13.387  30.363   6.640
 3491POPC   C3B47421  13.568  30.346   7.076
 3491POPC   C4B47422  13.550  30.099   7.477
 3492POPC   NC347423  12.761  18.142   5.594
 3492POPC   PO447424  13.340  18.306   5.383
 3492POPC   GL147425  13.179  18.281   5.862
 3492POPC   GL247426  12.879  18.516   5.909
 3492POPC   C1A47427  13.139  17.977   6.283
 3492POPC   D2A47428  13.215  17.821   6.716
 3492POPC   C3A47429  12.956  17.964   7.030
 3492POPC   C4A47430  12.695  18.150   7.282
 3492POPC   C1B47431  12.776  18.355   6.331
 3492POPC   C2B47432  12.807  18.392   6.803
 3492POPC   C3B47433  12.956  18.549   7.197
 3492POPC   C4B47434  12.625  18.747   7.380
 3493POPC   NC347435  35.035  42.261   5.502
 3493POPC   PO447436  34.420  42.446   5.166
 3493POPC   GL147437  34.523  42.252   5.570
 3493POPC   GL247438  34.665  42.573   5.752
 3493POPC   C1A47439  34.500  42.170   6.017
 3493POPC   D2A47440  34.387  42.485   6.357
 3493POPC   C3A47441  34.417  42.451   6.823
 3493POPC   C4A47442  34.618  42.648   7.190
 3493POPC   C1B47443  34.897  42.427   6.154
 3493POPC   C2B47444  34.769  42.179   6.534
 3493POPC   C3B47445  34.800  42.157   7.004
 3493POPC   C4B47446  34.872  42.253   7.466
 3494POPC   NC347447  17.484  38.681   5.516
 3494POPC   PO447448  17.675  38.051   5.604
 3494POPC   GL147449  17.675  38.372   5.918
 3494POPC   GL247450  17.863  38.704   5.875
 3494POPC   C1A47451  17.381  38.319   6.273
 3494POPC   D2A47452  17.271  38.050   6.618
 3494POPC   C3A47453  17.363  38.259   6.999
 3494POPC   C4A47454  17.273  38.494   7.350
 3494POPC   C1B47455  17.660  38.753   6.277
 3494POPC   C2B47456  17.639  38.538   6.690
 3494POPC   C3B47457  17.725  38.673   7.160
 3494POPC   C4B47458  17.581  38.802   7.603
 3495POPC   NC347459  17.499   0.443   5.320
 3495POPC   PO447460  17.039   0.197   5.701
 3495POPC   GL147461  17.331   0.450   5.908
 3495POPC   GL247462  17.667   0.392   5.833
 3495POPC   C1A47463  17.454   0.511   6.329
 3495POPC   D2A47464  17.471   0.268   6.699
 3495POPC   C3A47465  17.259   0.409   7.072
 3495POPC   C4A47466  17.199   0.257   7.501
 3495POPC   C1B47467  17.947   0.504   6.180
 3495POPC   C2B47468  17.996   0.483   6.642
 3495POPC   C3B47469  17.731   0.568   7.012
 3495POPC   C4B47470  17.614   0.527   7.481
 3496POPC   NC347471  26.919  20.556   5.382
 3496POPC   PO447472  26.419  20.124   5.447
 3496POPC   GL147473  26.612  20.410   5.779
 3496POPC   GL247474  27.008  20.407   5.852
 3496POPC   C1A47475  26.659  20.563   6.229
 3496POPC   D2A47476  26.605  20.270   6.560
 3496POPC   C3A47477  26.810  20.255   6.949
 3496POPC   C4A47478  26.903  20.398   7.384
 3496POPC   C1B47479  27.194  20.566   6.216
 3496POPC   C2B47480  27.100  20.539   6.637
 3496POPC   C3B47481  26.954  20.765   7.008
 3496POPC   C4B47482  27.219  21.019   7.224
 3497POPC   NC347483   1.317  35.717   5.345
 3497POPC   PO447484   1.353  35.063   5.353
 3497POPC   GL147485   1.156  35.276   5.743
 3497POPC   GL247486   0.979  35.609   5.799
 3497POPC   C1A47487   1.346  35.380   6.172
 3497POPC   D2A47488   1.560  35.171   6.552
 3497POPC   C3A47489   1.522  35.370   6.970
 3497POPC   C4A47490   1.356  35.239   7.362
 3497POPC   C1B47491   1.001  35.751   6.230
 3497POPC   C2B47492   1.119  35.567   6.628
 3497POPC   C3B47493   0.939  35.523   7.036
 3497POPC   C4B47494   1.043  35.651   7.435
 3498POPC   NC347495  35.143  27.474   5.442
 3498POPC   PO447496  35.738  27.801   5.306
 3498POPC   GL147497  35.451  27.792   5.664
 3498POPC   GL247498  35.584  27.528   5.732
 3498POPC   C1A47499  35.304  27.707   6.132
 3498POPC   D2A47500  35.430  27.672   6.570
 3498POPC   C3A47501  35.307  27.383   6.880
 3498POPC   C4A47502  35.140  27.573   7.218
 3498POPC   C1B47503  35.687  27.327   6.083
 3498POPC   C2B47504  35.811  27.346   6.488
 3498POPC   C3B47505  35.833  27.386   6.900
 3498POPC   C4B47506  35.643  27.497   7.281
 3499POPC   NC347507  13.925  21.564   5.438
 3499POPC   PO447508  13.385  21.168   5.319
 3499POPC   GL147509  13.573  21.170   5.820
 3499POPC   GL247510  13.836  21.427   5.928
 3499POPC   C1A47511  13.695  21.071   6.285
 3499POPC   D2A47512  13.695  21.379   6.656
 3499POPC   C3A47513  13.731  21.257   7.065
 3499POPC   C4A47514  13.388  21.091   7.307
 3499POPC   C1B47515  13.478  21.525   6.215
 3499POPC   C2B47516  13.348  21.768   6.542
 3499POPC   C3B47517  13.424  21.725   6.961
 3499POPC   C4B47518  13.485  21.588   7.362
 3500POPC   NC347519  40.871  12.087   5.331
 3500POPC   PO447520  40.392  11.675   5.597
 3500POPC   GL147521  40.708  11.806   5.914
 3500POPC   GL247522  41.009  12.022   5.827
 3500POPC   C1A47523  40.897  11.728   6.325
 3500POPC   D2A47524  40.949  11.952   6.731
 3500POPC   C3A47525  40.798  11.804   7.122
 3500POPC   C4A47526  40.749  11.823   7.562
 3500POPC   C1B47527  40.910  12.262   6.198
 3500POPC   C2B47528  40.858  12.448   6.615
 3500POPC   C3B47529  40.690  12.324   7.034
 3500POPC   C4B47530  40.612  12.332   7.492
 3501POPC   NC347531  10.533  36.848   5.066
 3501POPC   PO447532  10.346  37.380   5.423
 3501POPC   GL147533  10.333  37.353   5.847
 3501POPC   GL247534  10.664  37.391   5.947
 3501POPC   C1A47535  10.362  37.021   6.176
 3501POPC   D2A47536  10.340  37.037   6.634
 3501POPC   C3A47537  10.478  36.717   6.916
 3501POPC   C4A47538  10.368  36.546   7.319
 3501POPC   C1B47539  10.864  37.102   6.217
 3501POPC   C2B47540  10.862  37.106   6.657
 3501POPC   C3B47541  10.658  37.206   7.034
 3501POPC   C4B47542  10.744  36.879   7.339
 3502POPC   NC347543  12.437  11.829   5.076
 3502POPC   PO447544  11.968  12.314   5.350
 3502POPC   GL147545  12.064  12.059   5.689
 3502POPC   GL247546  12.277  12.314   5.844
 3502POPC   C1A47547  12.017  11.877   6.108
 3502POPC   D2A47548  12.102  12.049   6.504
 3502POPC   C3A47549  12.157  11.905   6.897
 3502POPC   C4A47550  11.885  12.109   7.165
 3502POPC   C1B47551  12.275  12.460   6.271
 3502POPC   C2B47552  12.422  12.457   6.713
 3502POPC   C3B47553  12.379  12.497   7.168
 3502POPC   C4B47554  12.155  12.494   7.572
 3503POPC   NC347555   3.196  14.195   5.295
 3503POPC   PO447556   3.814  14.442   5.403
 3503POPC   GL147557   3.538  14.482   5.794
 3503POPC   GL247558   3.342  14.178   5.784
 3503POPC   C1A47559   3.502  14.495   6.274
 3503POPC   D2A47560   3.175  14.531   6.604
 3503POPC   C3A47561   3.375  14.605   7.005
 3503POPC   C4A47562   3.786  14.738   7.207
 3503POPC   C1B47563   3.458  13.999   6.172
 3503POPC   C2B47564   3.303  14.026   6.588
 3503POPC   C3B47565   3.504  14.088   6.972
 3503POPC   C4B47566   3.593  14.290   7.353
 3504POPC   NC347567  25.063  43.246   5.464
 3504POPC   PO447568  25.566  42.823   5.421
 3504POPC   GL147569  25.590  42.932   5.859
 3504POPC   GL247570  25.280  43.080   5.906
 3504POPC   C1A47571  25.571  43.093   6.334
 3504POPC   D2A47572  25.353  42.892   6.714
 3504POPC   C3A47573  25.426  43.006   7.154
 3504POPC   C4A47574  25.522  43.116   7.577
 3504POPC   C1B47575  25.053  43.025   6.290
 3504POPC   C2B47576  24.898  43.142   6.711
 3504POPC   C3B47577  24.936  42.878   7.075
 3504POPC   C4B47578  24.923  42.454   7.205
 3505POPC   NC347579  13.517   8.173   5.353
 3505POPC   PO447580  13.597   8.840   5.368
 3505POPC   GL147581  13.682   8.492   5.743
 3505POPC   GL247582  13.592   8.118   5.839
 3505POPC   C1A47583  13.648   8.453   6.206
 3505POPC   D2A47584  13.835   8.397   6.605
 3505POPC   C3A47585  13.688   8.434   7.072
 3505POPC   C4A47586  13.899   8.399   7.475
 3505POPC   C1B47587  13.427   8.006   6.240
 3505POPC   C2B47588  13.640   7.866   6.592
 3505POPC   C3B47589  13.580   7.938   7.002
 3505POPC   C4B47590  13.829   7.882   7.319
 3506POPC   NC347591   6.680  35.813   5.482
 3506POPC   PO447592   6.403  36.396   5.620
 3506POPC   GL147593   6.408  36.099   5.945
 3506POPC   GL247594   6.325  35.772   5.854
 3506POPC   C1A47595   6.549  36.158   6.387
 3506POPC   D2A47596   6.946  36.350   6.554
 3506POPC   C3A47597   6.910  36.515   6.980
 3506POPC   C4A47598   6.824  36.311   7.376
 3506POPC   C1B47599   6.741  35.737   6.137
 3506POPC   C2B47600   6.924  35.837   6.568
 3506POPC   C3B47601   6.704  36.034   6.904
 3506POPC   C4B47602   6.414  35.911   7.196
 3507POPC   NC347603  39.582  44.023   5.446
 3507POPC   PO447604  40.199  43.776   5.300
 3507POPC   GL147605  40.157  43.740   5.759
 3507POPC   GL247606  39.805  43.641   5.812
 3507POPC   C1A47607  40.291  43.955   6.146
 3507POPC   D2A47608  40.200  43.910   6.572
 3507POPC   C3A47609  40.502  43.955   6.879
 3507POPC   C4A47610  40.385  43.919   7.297
 3507POPC   C1B47611  39.819  43.767   6.236
 3507POPC   C2B47612  39.811  43.552   6.630
 3507POPC   C3B47613  39.652  43.637   7.046
 3507POPC   C4B47614  39.868  43.835   7.362
 3508POPC   NC347615  11.974  21.899   5.383
 3508POPC   PO447616  12.436  21.383   5.547
 3508POPC   GL147617  12.052  21.413   5.762
 3508POPC   GL247618  11.792  21.177   5.715
 3508POPC   C1A47619  12.077  21.337   6.201
 3508POPC   D2A47620  12.361  21.191   6.494
 3508POPC   C3A47621  12.173  21.278   6.881
 3508POPC   C4A47622  12.419  21.249   7.262
 3508POPC   C1B47623  11.599  21.195   6.133
 3508POPC   C2B47624  11.665  21.410   6.540
 3508POPC   C3B47625  11.649  21.239   6.958
 3508POPC   C4B47626  11.876  21.307   7.306
 3509POPC   NC347627  23.609  27.841   5.272
 3509POPC   PO447628  24.032  27.314   5.442
 3509POPC   GL147629  24.044  27.450   5.875
 3509POPC   GL247630  24.030  27.813   5.938
 3509POPC   C1A47631  23.703  27.510   6.198
 3509POPC   D2A47632  23.613  27.704   6.593
 3509POPC   C3A47633  23.530  27.368   6.897
 3509POPC   C4A47634  23.535  27.531   7.304
 3509POPC   C1B47635  24.171  27.655   6.333
 3509POPC   C2B47636  24.001  27.369   6.654
 3509POPC   C3B47637  23.955  27.634   7.033
 3509POPC   C4B47638  23.978  27.746   7.502
 3510POPC   NC347639  12.734  17.282   5.426
 3510POPC   PO447640  13.044  17.794   5.698
 3510POPC   GL147641  12.970  17.441   5.949
 3510POPC   GL247642  12.609  17.396   5.953
 3510POPC   C1A47643  13.045  17.435   6.402
 3510POPC   D2A47644  12.804  17.474   6.785
 3510POPC   C3A47645  12.948  17.501   7.215
 3510POPC   C4A47646  13.184  17.351   7.561
 3510POPC   C1B47647  12.644  17.783   6.229
 3510POPC   C2B47648  12.625  17.935   6.655
 3510POPC   C3B47649  12.480  17.751   7.075
 3510POPC   C4B47650  12.412  17.816   7.525
 3511POPC   NC347651  44.604  43.649   5.483
 3511POPC   PO447652  44.348  43.015   5.510
 3511POPC   GL147653  44.192  43.034   5.889
 3511POPC   GL247654  44.272  43.392   5.906
 3511POPC   C1A47655  44.263  42.798   6.259
 3511POPC   D2A47656  44.549  42.579   6.539
 3511POPC   C3A47657  44.726  42.674   6.973
 3511POPC   C4A47658  44.675  42.634   7.447
 3511POPC   C1B47659  44.520  43.234   6.281
 3511POPC   C2B47660  44.800  43.061   6.643
 3511POPC   C3B47661   0.155  42.947   6.951
 3511POPC   C4B47662   0.162  42.613   7.267
 3512POPC   NC347663   7.805   8.270   5.488
 3512POPC   PO447664   7.222   7.903   5.462
 3512POPC   GL147665   7.380   8.153   5.762
 3512POPC   GL247666   7.343   8.451   5.605
 3512POPC   C1A47667   7.512   8.090   6.182
 3512POPC   D2A47668   7.727   8.044   6.570
 3512POPC   C3A47669   7.502   7.936   6.942
 3512POPC   C4A47670   7.492   8.198   7.296
 3512POPC   C1B47671   7.289   8.535   6.076
 3512POPC   C2B47672   7.043   8.415   6.401
 3512POPC   C3B47673   7.071   8.378   6.834
 3512POPC   C4B47674   6.980   8.324   7.268
 3513POPC   NC347675  27.750  13.870   5.277
 3513POPC   PO447676  27.191  13.527   5.430
 3513POPC   GL147677  27.270  13.749   5.837
 3513POPC   GL247678  27.400  14.102   5.810
 3513POPC   C1A47679  27.434  13.606   6.262
 3513POPC   D2A47680  27.546  13.368   6.659
 3513POPC   C3A47681  27.575  13.455   7.118
 3513POPC   C4A47682  27.625  13.613   7.545
 3513POPC   C1B47683  27.406  14.137   6.297
 3513POPC   C2B47684  27.515  13.919   6.740
 3513POPC   C3B47685  27.826  13.888   7.131
 3513POPC   C4B47686  28.025  13.979   7.550
 3514POPC   NC347687   4.802  40.540   5.303
 3514POPC   PO447688   5.300  41.009   5.404
 3514POPC   GL147689   5.174  40.664   5.713
 3514POPC   GL247690   5.499  40.573   5.903
 3514POPC   C1A47691   4.877  40.508   6.041
 3514POPC   D2A47692   4.835  40.307   6.466
 3514POPC   C3A47693   4.675  40.398   6.910
 3514POPC   C4A47694   4.803  40.384   7.341
 3514POPC   C1B47695   5.265  40.736   6.273
 3514POPC   C2B47696   5.079  40.694   6.714
 3514POPC   C3B47697   5.214  40.645   7.173
 3514POPC   C4B47698   5.265  40.794   7.616
 3515POPC   NC347699  13.973  12.151   5.459
 3515POPC   PO447700  13.503  11.624   5.488
 3515POPC   GL147701  13.590  11.945   5.770
 3515POPC   GL247702  13.896  11.799   5.869
 3515POPC   C1A47703  13.430  12.253   6.085
 3515POPC   D2A47704  13.325  12.145   6.497
 3515POPC   C3A47705  13.470  12.341   6.859
 3515POPC   C4A47706  13.472  12.274   7.294
 3515POPC   C1B47707  13.903  12.108   6.173
 3515POPC   C2B47708  13.803  12.396   6.462
 3515POPC   C3B47709  13.972  12.345   6.864
 3515POPC   C4B47710  13.840  11.986   7.114
 3516POPC   NC347711  28.302  14.961   5.475
 3516POPC   PO447712  28.269  15.573   5.467
 3516POPC   GL147713  28.205  15.381   5.902
 3516POPC   GL247714  27.970  15.091   6.001
 3516POPC   C1A47715  28.410  15.170   6.290
 3516POPC   D2A47716  28.351  15.069   6.749
 3516POPC   C3A47717  28.345  15.367   7.094
 3516POPC   C4A47718  28.015  15.636   7.276
 3516POPC   C1B47719  27.971  15.389   6.384
 3516POPC   C2B47720  27.920  15.369   6.829
 3516POPC   C3B47721  27.681  15.091   7.076
 3516POPC   C4B47722  27.520  15.211   7.490
 3517POPC   NC347723   5.428   6.429   5.495
 3517POPC   PO447724   5.107   7.059   5.559
 3517POPC   GL147725   5.328   6.854   5.867
 3517POPC   GL247726   5.163   6.537   5.936
 3517POPC   C1A47727   5.297   6.902   6.310
 3517POPC   D2A47728   5.058   6.684   6.608
 3517POPC   C3A47729   5.122   6.803   7.018
 3517POPC   C4A47730   5.029   6.519   7.320
 3517POPC   C1B47731   5.363   6.373   6.305
 3517POPC   C2B47732   5.368   6.240   6.759
 3517POPC   C3B47733   5.523   6.431   7.137
 3517POPC   C4B47734   5.481   6.401   7.595
 3518POPC   NC347735  21.658  13.632   5.603
 3518POPC   PO447736  22.275  13.686   5.362
 3518POPC   GL147737  22.173  13.623   5.793
 3518POPC   GL247738  21.977  13.881   5.942
 3518POPC   C1A47739  22.334  13.693   6.223
 3518POPC   D2A47740  22.344  13.897   6.596
 3518POPC   C3A47741  22.035  13.720   6.856
 3518POPC   C4A47742  22.115  13.615   7.259
 3518POPC   C1B47743  21.816  13.546   6.228
 3518POPC   C2B47744  21.603  13.441   6.643
 3518POPC   C3B47745  21.769  13.289   7.040
 3518POPC   C4B47746  21.736  13.409   7.496
 3519POPC   NC347747  12.548  29.270   5.567
 3519POPC   PO447748  12.014  28.926   5.269
 3519POPC   GL147749  12.039  28.910   5.728
 3519POPC   GL247750  12.071  29.262   5.816
 3519POPC   C1A47751  12.030  28.875   6.202
 3519POPC   D2A47752  12.057  28.714   6.656
 3519POPC   C3A47753  11.894  28.993   6.994
 3519POPC   C4A47754  12.047  29.235   7.364
 3519POPC   C1B47755  12.106  29.415   6.253
 3519POPC   C2B47756  12.129  29.375   6.717
 3519POPC   C3B47757  12.382  29.526   7.071
 3519POPC   C4B47758  12.329  29.655   7.510
 3520POPC   NC347759  22.915  28.083   5.346
 3520POPC   PO447760  23.327  28.540   5.425
 3520POPC   GL147761  23.120  28.271   5.777
 3520POPC   GL247762  22.739  28.222   5.819
 3520POPC   C1A47763  23.101  28.236   6.226
 3520POPC   D2A47764  23.150  28.469   6.598
 3520POPC   C3A47765  22.906  28.489   6.987
 3520POPC   C4A47766  23.227  28.289   7.218
 3520POPC   C1B47767  22.622  28.039   6.219
 3520POPC   C2B47768  22.717  28.141   6.650
 3520POPC   C3B47769  22.800  28.018   7.086
 3520POPC   C4B47770  22.812  28.198   7.509
 3521POPC   NC347771  21.829  21.428   5.414
 3521POPC   PO447772  21.247  21.259   5.551
 3521POPC   GL147773  21.451  21.100   5.903
 3521POPC   GL247774  21.796  21.156   5.884
 3521POPC   C1A47775  21.474  21.331   6.287
 3521POPC   D2A47776  21.312  21.632   6.592
 3521POPC   C3A47777  21.195  21.463   7.019
 3521POPC   C4A47778  21.134  21.171   7.374
 3521POPC   C1B47779  21.862  21.579   6.048
 3521POPC   C2B47780  21.802  21.721   6.460
 3521POPC   C3B47781  21.736  21.544   6.855
 3521POPC   C4B47782  21.642  21.599   7.270
 3522POPC   NC347783  35.504  37.139   5.343
 3522POPC   PO447784  34.918  37.194   5.492
 3522POPC   GL147785  35.218  36.926   5.796
 3522POPC   GL247786  35.583  36.944   5.818
 3522POPC   C1A47787  35.363  36.836   6.267
 3522POPC   D2A47788  35.192  36.670   6.683
 3522POPC   C3A47789  35.185  36.872   7.099
 3522POPC   C4A47790  35.155  36.701   7.517
 3522POPC   C1B47791  35.842  37.088   6.205
 3522POPC   C2B47792  35.888  37.101   6.692
 3522POPC   C3B47793  35.646  37.233   7.101
 3522POPC   C4B47794  35.776  37.256   7.559
 3523POPC   NC347795  10.605  43.489   5.125
 3523POPC   PO447796  10.539  42.845   5.395
 3523POPC   GL147797  10.556  42.976   5.817
 3523POPC   GL247798  10.274  43.172   5.927
 3523POPC   C1A47799  10.631  43.009   6.263
 3523POPC   D2A47800  10.468  43.201   6.649
 3523POPC   C3A47801  10.542  42.918   6.972
 3523POPC   C4A47802  10.412  42.859   7.375
 3523POPC   C1B47803  10.480  43.510   6.211
 3523POPC   C2B47804  10.404  43.727   6.589
 3523POPC   C3B47805  10.115  43.555   6.851
 3523POPC   C4B47806  10.296  43.324   7.198
 3524POPC   NC347807  38.596  16.361   5.365
 3524POPC   PO447808  38.028  16.837   5.501
 3524POPC   GL147809  38.153  16.778   5.919
 3524POPC   GL247810  38.501  16.786   5.942
 3524POPC   C1A47811  38.244  16.743   6.379
 3524POPC   D2A47812  38.602  16.825   6.658
 3524POPC   C3A47813  38.495  16.817   7.087
 3524POPC   C4A47814  38.216  16.571   7.351
 3524POPC   C1B47815  38.636  16.435   6.211
 3524POPC   C2B47816  38.817  16.150   6.528
 3524POPC   C3B47817  38.754  16.333   6.916
 3524POPC   C4B47818  38.727  16.450   7.333
 3525POPC   NC347819  28.205   0.829   5.537
 3525POPC   PO447820  27.743   1.328   5.374
 3525POPC   GL147821  27.684   1.147   5.777
 3525POPC   GL247822  27.700   1.454   5.979
 3525POPC   C1A47823  27.499   1.055   6.200
 3525POPC   D2A47824  27.426   1.374   6.517
 3525POPC   C3A47825  27.628   1.234   6.882
 3525POPC   C4A47826  27.582   0.843   7.086
 3525POPC   C1B47827  27.975   1.213   6.274
 3525POPC   C2B47828  28.043   0.961   6.664
 3525POPC   C3B47829  28.080   0.960   7.111
 3525POPC   C4B47830  27.810   1.234   7.384
 3526POPC   NC347831  22.418  16.832   5.363
 3526POPC   PO447832  21.760  16.976   5.430
 3526POPC   GL147833  21.990  16.729   5.802
 3526POPC   GL247834  22.366  16.689   5.848
 3526POPC   C1A47835  22.063  16.783   6.251
 3526POPC   D2A47836  21.886  16.808   6.670
 3526POPC   C3A47837  22.132  16.753   7.012
 3526POPC   C4A47838  22.373  17.081   7.245
 3526POPC   C1B47839  22.473  16.444   6.213
 3526POPC   C2B47840  22.506  16.557   6.651
 3526POPC   C3B47841  22.621  16.652   7.071
 3526POPC   C4B47842  22.370  16.357   7.302
 3527POPC   NC347843  19.406  29.986   5.297
 3527POPC   PO447844  19.906  30.262   5.823
 3527POPC   GL147845  19.756  29.868   5.931
 3527POPC   GL247846  20.003  29.646   5.881
 3527POPC   C1A47847  19.636  29.681   6.289
 3527POPC   D2A47848  19.850  29.711   6.660
 3527POPC   C3A47849  19.590  29.601   6.992
 3527POPC   C4A47850  19.670  29.760   7.386
 3527POPC   C1B47851  20.180  29.848   6.254
 3527POPC   C2B47852  20.416  29.749   6.602
 3527POPC   C3B47853  20.242  29.874   6.968
 3527POPC   C4B47854  20.172  29.949   7.391
 3528POPC   NC347855   5.872  10.336   5.556
 3528POPC   PO447856   5.728  11.005   5.519
 3528POPC   GL147857   5.673  10.721   5.881
 3528POPC   GL247858   6.015  10.671   5.951
 3528POPC   C1A47859   5.660  10.540   6.334
 3528POPC   D2A47860   5.782  10.341   6.755
 3528POPC   C3A47861   5.675  10.447   7.230
 3528POPC   C4A47862   5.849  10.274   7.637
 3528POPC   C1B47863   6.175  10.469   6.304
 3528POPC   C2B47864   6.358  10.587   6.683
 3528POPC   C3B47865   6.135  10.560   7.066
 3528POPC   C4B47866   6.088  10.740   7.503
 3529POPC   NC347867  19.219  18.781   5.499
 3529POPC   PO447868  18.816  19.187   5.116
 3529POPC   GL147869  18.835  19.145   5.646
 3529POPC   GL247870  19.107  19.014   5.928
 3529POPC   C1A47871  18.772  19.349   6.112
 3529POPC   D2A47872  18.951  19.244   6.549
 3529POPC   C3A47873  18.972  19.441   6.980
 3529POPC   C4A47874  18.766  19.484   7.432
 3529POPC   C1B47875  19.405  18.733   6.179
 3529POPC   C2B47876  19.382  18.567   6.609
 3529POPC   C3B47877  19.210  18.762   6.993
 3529POPC   C4B47878  19.324  19.125   7.238
 3530POPC   NC347879  44.055   6.641   5.295
 3530POPC   PO447880  43.674   7.219   5.263
 3530POPC   GL147881  43.745   6.878   5.639
 3530POPC   GL247882  43.867   6.512   5.734
 3530POPC   C1A47883  43.873   6.849   6.110
 3530POPC   D2A47884  43.860   6.992   6.552
 3530POPC   C3A47885  43.803   6.765   6.949
 3530POPC   C4A47886  44.103   6.703   7.262
 3530POPC   C1B47887  43.691   6.359   6.106
 3530POPC   C2B47888  43.792   6.380   6.542
 3530POPC   C3B47889  43.789   6.236   6.960
 3530POPC   C4B47890  43.631   6.379   7.348
 3531POPC   NC347891   7.458  27.864   5.494
 3531POPC   PO447892   7.165  27.343   5.384
 3531POPC   GL147893   7.273  27.464   5.804
 3531POPC   GL247894   7.577  27.385   5.762
 3531POPC   C1A47895   7.373  27.665   6.216
 3531POPC   D2A47896   7.305  27.926   6.594
 3531POPC   C3A47897   7.442  27.718   7.005
 3531POPC   C4A47898   7.409  27.540   7.450
 3531POPC   C1B47899   7.606  27.217   6.186
 3531POPC   C2B47900   7.589  27.379   6.622
 3531POPC   C3B47901   7.753  27.309   7.055
 3531POPC   C4B47902   7.912  27.467   7.463
 3532POPC   NC347903  18.164  12.388   5.462
 3532POPC   PO447904  18.398  13.067   5.377
 3532POPC   GL147905  18.199  13.009   5.789
 3532POPC   GL247906  18.224  12.661   5.902
 3532POPC   C1A47907  18.142  13.028   6.250
 3532POPC   D2A47908  18.333  12.899   6.651
 3532POPC   C3A47909  18.133  12.939   7.058
 3532POPC   C4A47910  18.349  13.144   7.390
 3532POPC   C1B47911  18.038  12.526   6.307
 3532POPC   C2B47912  18.021  12.502   6.770
 3532POPC   C3B47913  17.805  12.544   7.145
 3532POPC   C4B47914  18.183  12.435   7.330
 3533POPC   NC347915  17.501  24.534   5.454
 3533POPC   PO447916  18.006  24.093   5.389
 3533POPC   GL147917  17.667  24.184   5.782
 3533POPC   GL247918  17.256  24.236   5.797
 3533POPC   C1A47919  17.512  24.414   6.183
 3533POPC   D2A47920  17.202  24.384   6.529
 3533POPC   C3A47921  17.514  24.349   6.829
 3533POPC   C4A47922  17.783  24.629   7.051
 3533POPC   C1B47923  17.052  24.598   6.084
 3533POPC   C2B47924  16.979  24.867   6.448
 3533POPC   C3B47925  16.942  24.710   6.893
 3533POPC   C4B47926  17.173  24.451   7.174
 3534POPC   NC347927  38.870  26.322   5.443
 3534POPC   PO447928  39.284  25.734   5.349
 3534POPC   GL147929  39.101  25.669   5.774
 3534POPC   GL247930  38.778  25.719   5.907
 3534POPC   C1A47931  39.216  25.820   6.205
 3534POPC   D2A47932  39.569  26.100   6.386
 3534POPC   C3A47933  39.470  26.224   6.817
 3534POPC   C4A47934  39.229  25.986   7.175
 3534POPC   C1B47935  38.826  26.131   6.080
 3534POPC   C2B47936  39.068  26.322   6.426
 3534POPC   C3B47937  38.960  26.320   6.873
 3534POPC   C4B47938  38.695  26.247   7.241
 3535POPC   NC347939  26.225  21.259   5.226
 3535POPC   PO447940  25.748  21.554   5.590
 3535POPC   GL147941  25.906  21.252   5.825
 3535POPC   GL247942  26.261  21.265   5.816
 3535POPC   C1A47943  25.970  21.226   6.256
 3535POPC   D2A47944  25.882  21.502   6.584
 3535POPC   C3A47945  26.009  21.319   6.950
 3535POPC   C4A47946  25.893  21.323   7.377
 3535POPC   C1B47947  26.310  21.617   6.211
 3535POPC   C2B47948  26.522  21.793   6.603
 3535POPC   C3B47949  26.442  21.599   7.019
 3535POPC   C4B47950  26.377  21.565   7.467
 3536POPC   NC347951   0.772   9.546   5.560
 3536POPC   PO447952   0.387  10.012   5.263
 3536POPC   GL147953   0.260   9.926   5.688
 3536POPC   GL247954   0.297   9.587   5.785
 3536POPC   C1A47955   0.327   9.966   6.144
 3536POPC   D2A47956   0.152   9.787   6.523
 3536POPC   C3A47957   0.357   9.873   6.904
 3536POPC   C4A47958   0.391   9.751   7.297
 3536POPC   C1B47959   0.485   9.487   6.222
 3536POPC   C2B47960   0.652   9.577   6.645
 3536POPC   C3B47961   0.652   9.374   7.070
 3536POPC   C4B47962   0.515   9.293   7.537
 3537POPC   NC347963  34.322  18.870   5.312
 3537POPC   PO447964  34.817  19.284   5.220
 3537POPC   GL147965  34.714  19.004   5.649
 3537POPC   GL247966  34.383  19.035   5.804
 3537POPC   C1A47967  34.756  19.007   6.156
 3537POPC   D2A47968  34.899  19.222   6.521
 3537POPC   C3A47969  34.625  19.273   6.886
 3537POPC   C4A47970  34.686  19.127   7.309
 3537POPC   C1B47971  34.236  18.956   6.242
 3537POPC   C2B47972  34.248  18.950   6.717
 3537POPC   C3B47973  34.205  18.998   7.170
 3537POPC   C4B47974  34.351  18.789   7.554
 3538POPC   NC347975   5.196  25.649   5.427
 3538POPC   PO447976   4.836  25.049   5.410
 3538POPC   GL147977   5.132  24.964   5.815
 3538POPC   GL247978   5.226  25.304   5.909
 3538POPC   C1A47979   5.338  24.992   6.311
 3538POPC   D2A47980   5.410  25.131   6.792
 3538POPC   C3A47981   5.159  25.243   7.224
 3538POPC   C4A47982   5.057  25.296   7.702
 3538POPC   C1B47983   5.112  25.450   6.350
 3538POPC   C2B47984   5.038  25.537   6.803
 3538POPC   C3B47985   4.761  25.574   7.170
 3538POPC   C4B47986   4.886  25.766   7.557
 3539POPC   NC347987  22.779  27.036   5.347
 3539POPC   PO447988  23.321  26.725   5.472
 3539POPC   GL147989  23.064  26.912   5.810
 3539POPC   GL247990  22.764  26.722   5.920
 3539POPC   C1A47991  23.162  26.829   6.255
 3539POPC   D2A47992  22.931  26.729   6.607
 3539POPC   C3A47993  23.127  26.842   6.986
 3539POPC   C4A47994  22.941  26.519   7.207
 3539POPC   C1B47995  22.665  27.015   6.243
 3539POPC   C2B47996  22.717  27.195   6.666
 3539POPC   C3B47997  22.652  27.036   7.077
 3539POPC   C4B47998  22.623  27.209   7.498
 3540POPC   NC347999  30.222  29.786   5.363
 3540POPC   PO448000  29.889  30.231   5.419
 3540POPC   GL148001  29.789  29.976   5.803
 3540POPC   GL248002  29.484  30.066   5.995
 3540POPC   C1A48003  29.855  29.767   6.215
 3540POPC   D2A48004  30.106  29.825   6.596
 3540POPC   C3A48005  29.902  29.909   7.012
 3540POPC   C4A48006  30.037  29.963   7.457
 3540POPC   C1B48007  29.370  29.821   6.384
 3540POPC   C2B48008  29.529  29.607   6.761
 3540POPC   C3B48009  29.463  29.702   7.218
 3540POPC   C4B48010  29.526  29.999   7.588
 3541POPC   NC348011  25.002  33.600   5.355
 3541POPC   PO448012  24.399  34.022   5.506
 3541POPC   GL148013  24.549  33.770   5.835
 3541POPC   GL248014  24.767  34.002   5.896
 3541POPC   C1A48015  24.647  33.633   6.270
 3541POPC   D2A48016  24.740  33.799   6.682
 3541POPC   C3A48017  24.556  33.593   7.030
 3541POPC   C4A48018  24.569  33.719   7.439
 3541POPC   C1B48019  24.496  34.137   6.258
 3541POPC   C2B48020  24.503  34.250   6.700
 3541POPC   C3B48021  24.403  34.073   7.075
 3541POPC   C4B48022  24.205  34.251   7.391
 3542POPC   NC348023  14.767  27.029   5.505
 3542POPC   PO448024  15.479  27.253   5.456
 3542POPC   GL148025  15.215  27.015   5.746
 3542POPC   GL248026  15.080  26.695   5.701
 3542POPC   C1A48027  15.000  27.129   6.118
 3542POPC   D2A48028  14.979  26.975   6.525
 3542POPC   C3A48029  15.316  26.966   6.803
 3542POPC   C4A48030  15.299  27.149   7.192
 3542POPC   C1B48031  14.990  26.592   6.134
 3542POPC   C2B48032  14.820  26.499   6.552
 3542POPC   C3B48033  14.875  26.683   6.998
 3542POPC   C4B48034  15.197  26.675   7.338
 3543POPC   NC348035  24.068  34.811   5.411
 3543POPC   PO448036  24.723  34.679   5.163
 3543POPC   GL148037  24.511  34.695   5.660
 3543POPC   GL248038  24.781  34.528   5.928
 3543POPC   C1A48039  24.327  34.605   6.095
 3543POPC   D2A48040  24.154  34.690   6.511
 3543POPC   C3A48041  24.235  34.642   6.954
 3543POPC   C4A48042  24.037  34.737   7.362
 3543POPC   C1B48043  24.771  34.844   6.233
 3543POPC   C2B48044  24.716  34.702   6.639
 3543POPC   C3B48045  24.915  34.680   7.025
 3543POPC   C4B48046  24.613  34.528   7.283
 3544POPC   NC348047  26.300   4.319   5.392
 3544POPC   PO448048  25.657   4.392   5.480
 3544POPC   GL148049  25.939   4.553   5.739
 3544POPC   GL248050  26.067   4.256   5.840
 3544POPC   C1A48051  25.987   4.574   6.216
 3544POPC   D2A48052  26.145   4.458   6.655
 3544POPC   C3A48053  25.933   4.423   7.082
 3544POPC   C4A48054  25.867   4.613   7.459
 3544POPC   C1B48055  26.315   4.168   6.191
 3544POPC   C2B48056  26.211   3.941   6.555
 3544POPC   C3B48057  26.207   3.989   6.986
 3544POPC   C4B48058  26.361   4.222   7.307
 3545POPC   NC348059  20.237  35.181   5.009
 3545POPC   PO448060  20.254  35.714   5.435
 3545POPC   GL148061  20.371  35.414   5.792
 3545POPC   GL248062  20.724  35.371   5.856
 3545POPC   C1A48063  20.368  35.152   6.205
 3545POPC   D2A48064  20.405  34.925   6.616
 3545POPC   C3A48065  20.685  35.172   6.890
 3545POPC   C4A48066  20.466  35.403   7.179
 3545POPC   C1B48067  20.924  35.661   6.141
 3545POPC   C2B48068  20.816  35.538   6.542
 3545POPC   C3B48069  20.879  35.683   6.944
 3545POPC   C4B48070  21.227  35.588   7.185
 3546POPC   NC348071  20.298  41.265   5.510
 3546POPC   PO448072  20.981  41.380   5.498
 3546POPC   GL148073  20.668  41.538   5.794
 3546POPC   GL248074  20.375  41.770   5.715
 3546POPC   C1A48075  20.721  41.358   6.217
 3546POPC   D2A48076  21.019  41.206   6.519
 3546POPC   C3A48077  20.843  41.238   6.941
 3546POPC   C4A48078  20.749  41.617   7.195
 3546POPC   C1B48079  20.259  41.551   6.143
 3546POPC   C2B48080  20.377  41.548   6.599
 3546POPC   C3B48081  20.328  41.343   6.992
 3546POPC   C4B48082  20.338  41.403   7.421
 3547POPC   NC348083  13.175   2.524   5.246
 3547POPC   PO448084  13.701   2.972   5.231
 3547POPC   GL148085  13.540   2.939   5.665
 3547POPC   GL248086  13.602   2.608   5.747
 3547POPC   C1A48087  13.469   3.058   6.128
 3547POPC   D2A48088  13.537   2.871   6.580
 3547POPC   C3A48089  13.549   3.039   7.042
 3547POPC   C4A48090  13.611   2.971   7.511
 3547POPC   C1B48091  13.893   2.796   6.060
 3547POPC   C2B48092  13.992   3.071   6.402
 3547POPC   C3B48093  14.039   2.996   6.842
 3547POPC   C4B48094  14.041   3.046   7.275
 3548POPC   NC348095  28.847   4.082   5.387
 3548POPC   PO448096  29.328   4.537   5.453
 3548POPC   GL148097  29.083   4.558   5.808
 3548POPC   GL248098  29.048   4.202   5.839
 3548POPC   C1A48099  29.069   4.498   6.263
 3548POPC   D2A48100  28.972   4.286   6.666
 3548POPC   C3A48101  29.309   4.392   6.950
 3548POPC   C4A48102  29.637   4.612   7.200
 3548POPC   C1B48103  28.955   4.003   6.221
 3548POPC   C2B48104  29.204   3.807   6.519
 3548POPC   C3B48105  29.198   3.888   6.922
 3548POPC   C4B48106  29.000   3.716   7.251
 3549POPC   NC348107   2.520  12.703   5.158
 3549POPC   PO448108   1.819  12.497   5.368
 3549POPC   GL148109   1.925  12.629   5.739
 3549POPC   GL248110   2.238  12.691   5.708
 3549POPC   C1A48111   1.849  12.830   6.131
 3549POPC   D2A48112   1.907  12.652   6.543
 3549POPC   C3A48113   1.810  12.905   6.947
 3549POPC   C4A48114   1.698  12.869   7.415
 3549POPC   C1B48115   2.245  12.485   6.124
 3549POPC   C2B48116   2.399  12.452   6.526
 3549POPC   C3B48117   2.291  12.616   6.914
 3549POPC   C4B48118   2.020  12.544   7.224
 3550POPC   NC348119  23.601   6.960   5.620
 3550POPC   PO448120  23.758   6.216   5.505
 3550POPC   GL148121  23.621   6.504   5.825
 3550POPC   GL248122  23.361   6.774   6.003
 3550POPC   C1A48123  23.754   6.507   6.221
 3550POPC   D2A48124  23.842   6.711   6.584
 3550POPC   C3A48125  23.635   6.540   6.904
 3550POPC   C4A48126  23.847   6.472   7.266
 3550POPC   C1B48127  23.562   7.056   6.296
 3550POPC   C2B48128  23.545   7.082   6.751
 3550POPC   C3B48129  23.703   6.971   7.141
 3550POPC   C4B48130  23.399   6.839   7.370
 3551POPC   NC348131  19.443  43.843   5.445
 3551POPC   PO448132  20.114  44.011   5.389
 3551POPC   GL148133  19.885  43.863   5.762
 3551POPC   GL248134  19.551  44.009   5.905
 3551POPC   C1A48135  20.029  43.664   6.136
 3551POPC   D2A48136  19.881  43.656   6.549
 3551POPC   C3A48137  20.042  43.775   6.953
 3551POPC   C4A48138  19.771  44.126   7.109
 3551POPC   C1B48139  19.530  43.579   6.082
 3551POPC   C2B48140  19.539  43.277   6.421
 3551POPC   C3B48141  19.636  43.313   6.860
 3551POPC   C4B48142  19.599  43.646   7.180
 3552POPC   NC348143  14.484  29.252   5.587
 3552POPC   PO448144  14.152  28.767   5.409
 3552POPC   GL148145  14.184  28.940   5.883
 3552POPC   GL248146  14.487  29.131   6.055
 3552POPC   C1A48147  14.071  29.119   6.325
 3552POPC   D2A48148  14.363  29.338   6.623
 3552POPC   C3A48149  14.420  29.164   7.011
 3552POPC   C4A48150  14.069  28.952   7.171
 3552POPC   C1B48151  14.578  28.926   6.397
 3552POPC   C2B48152  14.831  29.076   6.711
 3552POPC   C3B48153  14.874  28.861   7.084
 3552POPC   C4B48154  14.560  28.831   7.370
 3553POPC   NC348155  14.744   0.107   5.489
 3553POPC   PO448156  15.279   0.470   5.433
 3553POPC   GL148157  15.117   0.323   5.780
 3553POPC   GL248158  14.853   0.555   5.825
 3553POPC   C1A48159  15.087   0.100   6.119
 3553POPC   D2A48160  15.062   0.092   6.528
 3553POPC   C3A48161  15.256   0.402   6.693
 3553POPC   C4A48162  15.270   0.535   7.076
 3553POPC   C1B48163  15.140   0.631   6.210
 3553POPC   C2B48164  15.157   0.896   6.617
 3553POPC   C3B48165  14.867   0.920   6.954
 3553POPC   C4B48166  14.899   0.707   7.388
 3554POPC   NC348167  21.587  22.992   5.383
 3554POPC   PO448168  21.126  22.532   5.494
 3554POPC   GL148169  21.323  22.792   5.778
 3554POPC   GL248170  21.097  23.064   5.727
 3554POPC   C1A48171  21.415  22.932   6.178
 3554POPC   D2A48172  21.317  23.149   6.545
 3554POPC   C3A48173  21.414  22.972   6.904
 3554POPC   C4A48174  21.524  23.196   7.264
 3554POPC   C1B48175  20.917  22.865   6.100
 3554POPC   C2B48176  20.773  22.970   6.506
 3554POPC   C3B48177  20.883  22.852   6.921
 3554POPC   C4B48178  21.071  22.963   7.313
 3555POPC   NC348179   7.866  22.626   5.502
 3555POPC   PO448180   7.258  22.700   5.151
 3555POPC   GL148181   7.328  22.972   5.584
 3555POPC   GL248182   7.606  22.903   5.810
 3555POPC   C1A48183   7.253  23.128   6.071
 3555POPC   D2A48184   7.072  23.090   6.519
 3555POPC   C3A48185   7.309  22.941   6.896
 3555POPC   C4A48186   7.379  23.002   7.360
 3555POPC   C1B48187   7.816  22.746   6.172
 3555POPC   C2B48188   7.716  22.804   6.589
 3555POPC   C3B48189   7.816  22.972   6.987
 3555POPC   C4B48190   7.756  22.668   7.287
 3556POPC   NC348191  19.480  27.375   5.501
 3556POPC   PO448192  20.032  27.684   5.372
 3556POPC   GL148193  19.923  27.623   5.788
 3556POPC   GL248194  19.723  27.930   5.751
 3556POPC   C1A48195  19.895  27.439   6.224
 3556POPC   D2A48196  19.909  27.651   6.653
 3556POPC   C3A48197  19.807  27.448   7.076
 3556POPC   C4A48198  19.967  27.201   7.430
 3556POPC   C1B48199  19.770  27.931   6.192
 3556POPC   C2B48200  19.594  28.087   6.566
 3556POPC   C3B48201  19.690  28.004   6.977
 3556POPC   C4B48202  19.484  27.827   7.306
 3557POPC   NC348203  21.632  26.125   5.375
 3557POPC   PO448204  20.956  26.030   5.465
 3557POPC   GL148205  21.263  26.106   5.740
 3557POPC   GL248206  21.436  25.770   5.710
 3557POPC   C1A48207  21.373  26.295   6.130
 3557POPC   D2A48208  21.545  26.145   6.511
 3557POPC   C3A48209  21.370  26.325   6.870
 3557POPC   C4A48210  21.646  26.287   7.211
 3557POPC   C1B48211  21.399  25.765   6.161
 3557POPC   C2B48212  21.306  25.650   6.585
 3557POPC   C3B48213  21.452  25.838   6.967
 3557POPC   C4B48214  21.282  25.809   7.391
 3558POPC   NC348215  14.761  21.470   5.013
 3558POPC   PO448216  14.242  21.183   5.416
 3558POPC   GL148217  14.343  21.451   5.712
 3558POPC   GL248218  14.581  21.242   5.850
 3558POPC   C1A48219  14.295  21.594   6.104
 3558POPC   D2A48220  14.134  21.377   6.429
 3558POPC   C3A48221  14.165  21.476   6.869
 3558POPC   C4A48222  14.157  21.420   7.329
 3558POPC   C1B48223  14.631  21.237   6.278
 3558POPC   C2B48224  14.538  21.166   6.699
 3558POPC   C3B48225  14.622  21.376   7.110
 3558POPC   C4B48226  14.592  21.259   7.550
 3559POPC   NC348227   6.886  20.448   5.281
 3559POPC   PO448228   6.454  20.940   5.203
 3559POPC   GL148229   6.435  20.681   5.691
 3559POPC   GL248230   6.749  20.453   5.811
 3559POPC   C1A48231   6.585  20.803   6.143
 3559POPC   D2A48232   6.430  20.672   6.525
 3559POPC   C3A48233   6.583  20.823   6.909
 3559POPC   C4A48234   6.461  20.624   7.301
 3559POPC   C1B48235   6.913  20.400   6.222
 3559POPC   C2B48236   7.070  20.310   6.625
 3559POPC   C3B48237   6.927  20.444   7.047
 3559POPC   C4B48238   6.888  20.429   7.504
 3560POPC   NC348239  22.814  40.925   5.579
 3560POPC   PO448240  23.333  40.809   5.104
 3560POPC   GL148241  23.225  40.644   5.604
 3560POPC   GL248242  22.975  40.350   5.637
 3560POPC   C1A48243  23.160  40.870   6.107
 3560POPC   D2A48244  22.815  41.010   6.419
 3560POPC   C3A48245  22.782  40.895   6.867
 3560POPC   C4A48246  22.550  40.609   7.152
 3560POPC   C1B48247  23.030  40.391   6.085
 3560POPC   C2B48248  22.955  40.512   6.526
 3560POPC   C3B48249  23.129  40.532   6.957
 3560POPC   C4B48250  23.011  40.618   7.363
 3561POPC   NC348251  26.959  17.157   5.415
 3561POPC   PO448252  26.565  17.642   5.333
 3561POPC   GL148253  26.779  17.551   5.719
 3561POPC   GL248254  26.588  17.253   5.775
 3561POPC   C1A48255  26.875  17.614   6.190
 3561POPC   D2A48256  26.789  17.850   6.609
 3561POPC   C3A48257  26.959  17.721   7.031
 3561POPC   C4A48258  27.209  17.935   7.382
 3561POPC   C1B48259  26.715  17.125   6.194
 3561POPC   C2B48260  26.815  17.281   6.630
 3561POPC   C3B48261  26.932  17.188   7.071
 3561POPC   C4B48262  26.892  17.406   7.469
 3562POPC   NC348263  26.822  10.722   5.513
 3562POPC   PO448264  26.294  10.323   5.430
 3562POPC   GL148265  26.571  10.163   5.783
 3562POPC   GL248266  26.958  10.247   5.787
 3562POPC   C1A48267  26.656  10.326   6.217
 3562POPC   D2A48268  26.666  10.737   6.450
 3562POPC   C3A48269  26.680  10.710   6.909
 3562POPC   C4A48270  26.768  10.970   7.269
 3562POPC   C1B48271  27.135  10.501   6.155
 3562POPC   C2B48272  27.051  10.403   6.595
 3562POPC   C3B48273  27.164  10.575   6.995
 3562POPC   C4B48274  26.980  10.523   7.417
 3563POPC   NC348275  25.042  30.446   5.172
 3563POPC   PO448276  24.345  30.595   5.412
 3563POPC   GL148277  24.358  30.669   5.835
 3563POPC   GL248278  24.092  30.909   5.822
 3563POPC   C1A48279  24.558  30.669   6.250
 3563POPC   D2A48280  24.916  30.804   6.539
 3563POPC   C3A48281  24.785  30.751   6.974
 3563POPC   C4A48282  24.531  30.403   7.148
 3563POPC   C1B48283  24.101  31.142   6.188
 3563POPC   C2B48284  24.177  30.912   6.555
 3563POPC   C3B48285  24.137  30.618   6.870
 3563POPC   C4B48286  24.257  30.839   7.212
 3564POPC   NC348287  43.515  43.919   5.553
 3564POPC   PO448288  44.158  43.704   5.453
 3564POPC   GL148289  43.914  43.755   5.844
 3564POPC   GL248290  43.634  43.583   5.954
 3564POPC   C1A48291  43.975  43.806   6.299
 3564POPC   D2A48292  44.083  44.113   6.628
 3564POPC   C3A48293  43.949  44.054   7.050
 3564POPC   C4A48294  43.571  44.115   7.243
 3564POPC   C1B48295  43.477  43.882   6.248
 3564POPC   C2B48296  43.604  43.890   6.686
 3564POPC   C3B48297  43.550  43.625   7.050
 3564POPC   C4B48298  43.350  43.671   7.421
 3565POPC   NC348299  31.107  33.049   5.390
 3565POPC   PO448300  31.654  32.921   5.374
 3565POPC   GL148301  31.607  32.813   5.808
 3565POPC   GL248302  31.918  32.639   5.848
 3565POPC   C1A48303  31.331  32.939   6.209
 3565POPC   D2A48304  31.178  32.935   6.670
 3565POPC   C3A48305  31.304  33.206   7.031
 3565POPC   C4A48306  31.114  33.427   7.427
 3565POPC   C1B48307  31.751  32.680   6.281
 3565POPC   C2B48308  31.669  32.698   6.684
 3565POPC   C3B48309  31.497  32.729   7.065
 3565POPC   C4B48310  31.619  32.566   7.450
 3566POPC   NC348311  15.416  12.731   4.998
 3566POPC   PO448312  14.929  12.944   5.438
 3566POPC   GL148313  15.142  13.062   5.804
 3566POPC   GL248314  15.030  12.781   5.932
 3566POPC   C1A48315  15.390  12.989   6.202
 3566POPC   D2A48316  15.550  12.882   6.619
 3566POPC   C3A48317  15.268  13.067   6.946
 3566POPC   C4A48318  15.267  12.873   7.367
 3566POPC   C1B48319  14.886  12.428   6.064
 3566POPC   C2B48320  14.913  12.421   6.502
 3566POPC   C3B48321  14.906  12.716   6.830
 3566POPC   C4B48322  14.865  12.582   7.238
 3567POPC   NC348323  37.653  31.287   5.423
 3567POPC   PO448324  37.177  31.647   5.668
 3567POPC   GL148325  37.635  31.581   5.840
 3567POPC   GL248326  37.711  31.231   5.945
 3567POPC   C1A48327  37.951  31.597   6.199
 3567POPC   D2A48328  37.714  31.566   6.572
 3567POPC   C3A48329  37.939  31.379   6.895
 3567POPC   C4A48330  37.900  31.535   7.298
 3567POPC   C1B48331  37.375  31.332   6.251
 3567POPC   C2B48332  37.327  31.196   6.696
 3567POPC   C3B48333  37.457  31.357   7.106
 3567POPC   C4B48334  37.465  31.793   7.275
 3568POPC   NC348335  26.529  41.053   5.417
 3568POPC   PO448336  25.811  40.935   5.364
 3568POPC   GL148337  26.070  40.737   5.689
 3568POPC   GL248338  26.138  40.364   5.719
 3568POPC   C1A48339  25.985  40.680   6.117
 3568POPC   D2A48340  25.841  40.888   6.503
 3568POPC   C3A48341  25.802  40.639   6.861
 3568POPC   C4A48342  25.902  40.748   7.258
 3568POPC   C1B48343  26.413  40.379   6.101
 3568POPC   C2B48344  26.376  40.208   6.512
 3568POPC   C3B48345  26.311  40.391   6.918
 3568POPC   C4B48346  26.363  40.577   7.333
 3569POPC   NC348347  17.569  21.823   5.371
 3569POPC   PO448348  17.425  22.509   5.360
 3569POPC   GL148349  17.450  22.223   5.700
 3569POPC   GL248350  17.164  21.975   5.691
 3569POPC   C1A48351  17.623  22.267   6.100
 3569POPC   D2A48352  17.463  22.278   6.497
 3569POPC   C3A48353  17.743  22.144   6.825
 3569POPC   C4A48354  17.725  22.390   7.194
 3569POPC   C1B48355  17.181  21.932   6.151
 3569POPC   C2B48356  17.214  21.850   6.607
 3569POPC   C3B48357  17.202  22.147   6.941
 3569POPC   C4B48358  17.258  22.255   7.357
 3570POPC   NC348359   6.300   4.328   5.417
 3570POPC   PO448360   6.726   3.869   5.248
 3570POPC   GL148361   6.577   4.082   5.758
 3570POPC   GL248362   6.804   4.030   6.083
 3570POPC   C1A48363   6.473   4.405   6.096
 3570POPC   D2A48364   6.584   4.344   6.530
 3570POPC   C3A48365   6.592   4.545   6.937
 3570POPC   C4A48366   6.569   4.157   7.200
 3570POPC   C1B48367   7.007   4.412   6.229
 3570POPC   C2B48368   7.034   4.606   6.642
 3570POPC   C3B48369   7.067   4.523   7.108
 3570POPC   C4B48370   6.971   4.781   7.494
 3571POPC   NC348371   5.901  23.032   5.205
 3571POPC   PO448372   5.678  23.438   5.723
 3571POPC   GL148373   5.837  23.177   6.071
 3571POPC   GL248374   5.945  22.871   5.946
 3571POPC   C1A48375   5.634  22.846   6.354
 3571POPC   D2A48376   5.738  22.713   6.770
 3571POPC   C3A48377   5.575  23.058   7.084
 3571POPC   C4A48378   5.692  23.153   7.541
 3571POPC   C1B48379   6.039  22.550   6.255
 3571POPC   C2B48380   6.251  22.496   6.625
 3571POPC   C3B48381   6.124  22.478   7.023
 3571POPC   C4B48382   5.856  22.694   7.280
 3572POPC   NC348383  12.210  24.853   5.361
 3572POPC   PO448384  11.950  24.196   5.295
 3572POPC   GL148385  12.058  24.350   5.733
 3572POPC   GL248386  11.946  24.670   5.766
 3572POPC   C1A48387  12.159  24.455   6.208
 3572POPC   D2A48388  12.402  24.659   6.578
 3572POPC   C3A48389  12.461  24.559   7.047
 3572POPC   C4A48390  12.266  24.285   7.403
 3572POPC   C1B48391  11.801  24.852   6.157
 3572POPC   C2B48392  11.869  24.712   6.573
 3572POPC   C3B48393  12.032  24.389   6.862
 3572POPC   C4B48394  11.987  24.669   7.230
 3573POPC   NC348395  32.071   9.638   4.759
 3573POPC   PO448396  32.307   9.650   5.393
 3573POPC   GL148397  32.431   9.675   5.856
 3573POPC   GL248398  32.582   9.980   5.857
 3573POPC   C1A48399  32.354   9.839   6.308
 3573POPC   D2A48400  32.374   9.979   6.752
 3573POPC   C3A48401  32.164   9.846   7.157
 3573POPC   C4A48402  31.823   9.547   7.319
 3573POPC   C1B48403  32.852   9.844   6.226
 3573POPC   C2B48404  32.796   9.682   6.676
 3573POPC   C3B48405  32.659   9.694   7.119
 3573POPC   C4B48406  32.688   9.985   7.471
 3574POPC   NC348407  25.491  42.343   5.446
 3574POPC   PO448408  25.002  41.926   5.438
 3574POPC   GL148409  25.209  42.168   5.833
 3574POPC   GL248410  25.232  42.555   5.822
 3574POPC   C1A48411  25.260  42.134   6.308
 3574POPC   D2A48412  25.089  42.271   6.729
 3574POPC   C3A48413  25.078  41.992   7.109
 3574POPC   C4A48414  25.348  42.080   7.461
 3574POPC   C1B48415  25.385  42.627   6.235
 3574POPC   C2B48416  25.567  42.449   6.612
 3574POPC   C3B48417  25.446  42.469   7.060
 3574POPC   C4B48418  25.634  42.622   7.430
 3575POPC   NC348419  21.918  19.388   5.653
 3575POPC   PO448420  22.089  18.777   5.472
 3575POPC   GL148421  22.230  18.925   5.898
 3575POPC   GL248422  21.906  19.023   6.008
 3575POPC   C1A48423  22.224  18.925   6.398
 3575POPC   D2A48424  22.292  18.847   6.867
 3575POPC   C3A48425  22.289  19.134   7.196
 3575POPC   C4A48426  22.298  19.077   7.637
 3575POPC   C1B48427  21.965  19.367   6.301
 3575POPC   C2B48428  21.824  19.341   6.667
 3575POPC   C3B48429  21.813  19.095   7.004
 3575POPC   C4B48430  21.830  19.138   7.447
 3576POPC   NC348431  25.459  21.137   5.502
 3576POPC   PO448432  25.033  21.719   5.408
 3576POPC   GL148433  25.258  21.540   5.781
 3576POPC   GL248434  25.028  21.300   5.870
 3576POPC   C1A48435  25.449  21.338   6.183
 3576POPC   D2A48436  25.269  21.231   6.594
 3576POPC   C3A48437  25.488  21.274   6.980
 3576POPC   C4A48438  25.444  21.060   7.369
 3576POPC   C1B48439  24.959  21.545   6.246
 3576POPC   C2B48440  24.907  21.586   6.682
 3576POPC   C3B48441  24.891  21.272   6.970
 3576POPC   C4B48442  25.102  21.420   7.301
 3577POPC   NC348443   9.893  37.341   5.513
 3577POPC   PO448444   9.450  36.878   5.371
 3577POPC   GL148445   9.499  37.136   5.777
 3577POPC   GL248446   9.865  37.142   5.972
 3577POPC   C1A48447   9.445  37.051   6.229
 3577POPC   D2A48448   9.779  37.025   6.562
 3577POPC   C3A48449   9.599  37.054   6.975
 3577POPC   C4A48450   9.341  36.765   7.277
 3577POPC   C1B48451  10.062  37.393   6.329
 3577POPC   C2B48452  10.047  37.422   6.774
 3577POPC   C3B48453  10.141  37.117   7.134
 3577POPC   C4B48454  10.174  36.942   7.557
 3578POPC   NC348455  21.204  14.564   5.530
 3578POPC   PO448456  21.604  14.096   5.695
 3578POPC   GL148457  21.423  14.361   6.011
 3578POPC   GL248458  21.230  14.648   6.018
 3578POPC   C1A48459  21.419  14.485   6.468
 3578POPC   D2A48460  21.595  14.558   6.898
 3578POPC   C3A48461  21.452  14.277   7.220
 3578POPC   C4A48462  21.147  14.004   7.295
 3578POPC   C1B48463  20.905  14.752   6.315
 3578POPC   C2B48464  20.957  14.597   6.720
 3578POPC   C3B48465  21.148  14.671   7.116
 3578POPC   C4B48466  20.969  14.488   7.473
 3579POPC   NC348467  24.617  36.706   5.643
 3579POPC   PO448468  24.748  36.088   5.301
 3579POPC   GL148469  24.754  36.194   5.696
 3579POPC   GL248470  24.450  36.164   5.768
 3579POPC   C1A48471  24.747  36.254   6.165
 3579POPC   D2A48472  24.759  35.952   6.512
 3579POPC   C3A48473  24.689  36.110   6.916
 3579POPC   C4A48474  24.606  36.386   7.265
 3579POPC   C1B48475  24.471  35.824   6.083
 3579POPC   C2B48476  24.360  35.611   6.453
 3579POPC   C3B48477  24.268  35.835   6.816
 3579POPC   C4B48478  24.350  35.928   7.251
 3580POPC   NC348479  39.740  44.991   5.595
 3580POPC   PO448480  40.190   0.438   5.341
 3580POPC   GL148481  40.040   0.442   5.751
 3580POPC   GL248482  40.225   0.104   5.796
 3580POPC   C1A48483  39.847   0.681   6.126
 3580POPC   D2A48484  40.010   0.788   6.549
 3580POPC   C3A48485  39.703   0.771   6.905
 3580POPC   C4A48486  39.607   0.489   7.254
 3580POPC   C1B48487  40.057   0.212   6.209
 3580POPC   C2B48488  40.217   0.325   6.588
 3580POPC   C3B48489  40.056   0.402   6.995
 3580POPC   C4B48490  39.968   0.116   7.358
 3581POPC   NC348491  28.183  27.627   5.304
 3581POPC   PO448492  28.720  27.589   5.444
 3581POPC   GL148493  28.362  27.645   5.810
 3581POPC   GL248494  28.040  27.451   5.787
 3581POPC   C1A48495  28.196  27.841   6.256
 3581POPC   D2A48496  27.942  27.851   6.679
 3581POPC   C3A48497  28.183  27.816   7.113
 3581POPC   C4A48498  28.560  27.846   7.418
 3581POPC   C1B48499  28.203  27.337   6.223
 3581POPC   C2B48500  28.328  27.510   6.657
 3581POPC   C3B48501  28.472  27.416   7.082
 3581POPC   C4B48502  28.386  27.389   7.556
 3582POPC   NC348503  10.602  26.648   5.464
 3582POPC   PO448504  10.280  27.259   5.341
 3582POPC   GL148505  10.377  27.021   5.734
 3582POPC   GL248506  10.756  27.038   5.756
 3582POPC   C1A48507  10.424  26.731   6.115
 3582POPC   D2A48508  10.521  26.826   6.553
 3582POPC   C3A48509  10.519  26.570   6.935
 3582POPC   C4A48510  10.677  26.425   7.330
 3582POPC   C1B48511  10.848  27.166   6.188
 3582POPC   C2B48512  10.973  27.046   6.621
 3582POPC   C3B48513  10.704  27.049   6.982
 3582POPC   C4B48514  10.774  26.927   7.373
 3583POPC   NC348515  34.798  24.829   5.409
 3583POPC   PO448516  34.290  24.419   5.259
 3583POPC   GL148517  34.392  24.438   5.733
 3583POPC   GL248518  34.363  24.766   5.679
 3583POPC   C1A48519  34.640  24.352   6.151
 3583POPC   D2A48520  34.796  24.332   6.588
 3583POPC   C3A48521  34.521  24.268   6.933
 3583POPC   C4A48522  34.769  24.421   7.276
 3583POPC   C1B48523  34.360  24.764   6.141
 3583POPC   C2B48524  34.346  24.581   6.557
 3583POPC   C3B48525  34.382  24.748   6.993
 3583POPC   C4B48526  34.315  24.561   7.366
 3584POPC   NC348527  14.578  38.707   5.321
 3584POPC   PO448528  14.196  38.133   5.312
 3584POPC   GL148529  14.431  38.283   5.712
 3584POPC   GL248530  14.395  38.635   5.798
 3584POPC   C1A48531  14.668  38.373   6.135
 3584POPC   D2A48532  14.499  38.322   6.560
 3584POPC   C3A48533  14.642  38.351   6.989
 3584POPC   C4A48534  14.400  38.261   7.362
 3584POPC   C1B48535  14.176  38.530   6.177
 3584POPC   C2B48536  14.229  38.752   6.551
 3584POPC   C3B48537  14.418  38.812   6.891
 3584POPC   C4B48538  14.327  38.751   7.252
 3585POPC   NC348539  40.933  39.393   5.360
 3585POPC   PO448540  40.861  38.796   5.304
 3585POPC   GL148541  40.916  38.964   5.765
 3585POPC   GL248542  40.914  39.319   5.860
 3585POPC   C1A48543  40.809  39.014   6.240
 3585POPC   D2A48544  40.894  38.880   6.685
 3585POPC   C3A48545  40.802  39.106   7.078
 3585POPC   C4A48546  40.923  39.011   7.506
 3585POPC   C1B48547  40.898  39.534   6.291
 3585POPC   C2B48548  40.695  39.544   6.734
 3585POPC   C3B48549  40.755  39.597   7.203
 3585POPC   C4B48550  40.685  39.441   7.641
 3586POPC   NC348551  25.444  14.965   5.594
 3586POPC   PO448552  26.135  15.019   5.341
 3586POPC   GL148553  26.122  15.177   5.760
 3586POPC   GL248554  25.792  15.316   5.691
 3586POPC   C1A48555  26.152  15.114   6.190
 3586POPC   D2A48556  26.285  15.301   6.551
 3586POPC   C3A48557  26.253  15.044   6.925
 3586POPC   C4A48558  25.890  14.944   7.172
 3586POPC   C1B48559  25.773  15.467   6.106
 3586POPC   C2B48560  25.857  15.649   6.512
 3586POPC   C3B48561  25.976  15.496   6.898
 3586POPC   C4B48562  25.817  15.513   7.267
 3587POPC   NC348563  38.504  23.933   5.232
 3587POPC   PO448564  38.816  23.344   5.379
 3587POPC   GL148565  38.518  23.550   5.710
 3587POPC   GL248566  38.574  23.891   5.828
 3587POPC   C1A48567  38.476  23.542   6.189
 3587POPC   D2A48568  38.662  23.548   6.627
 3587POPC   C3A48569  38.357  23.508   6.956
 3587POPC   C4A48570  38.183  23.731   7.300
 3587POPC   C1B48571  38.376  24.053   6.198
 3587POPC   C2B48572  38.257  23.843   6.552
 3587POPC   C3B48573  38.389  24.011   6.927
 3587POPC   C4B48574  38.384  24.231   7.291
 3588POPC   NC348575  23.289  32.184   5.414
 3588POPC   PO448576  23.895  32.096   5.479
 3588POPC   GL148577  23.637  32.186   5.825
 3588POPC   GL248578  23.494  31.865   5.827
 3588POPC   C1A48579  23.594  32.466   6.219
 3588POPC   D2A48580  23.782  32.556   6.602
 3588POPC   C3A48581  23.526  32.519   6.969
 3588POPC   C4A48582  23.447  32.462   7.448
 3588POPC   C1B48583  23.498  31.975   6.268
 3588POPC   C2B48584  23.408  32.144   6.634
 3588POPC   C3B48585  23.582  32.014   7.026
 3588POPC   C4B48586  23.977  31.789   7.087
 3589POPC   NC348587  33.045  17.783   5.384
 3589POPC   PO448588  33.265  17.254   5.312
 3589POPC   GL148589  33.274  17.482   5.750
 3589POPC   GL248590  32.973  17.652   5.865
 3589POPC   C1A48591  33.387  17.512   6.193
 3589POPC   D2A48592  33.213  17.726   6.557
 3589POPC   C3A48593  33.196  17.495   6.903
 3589POPC   C4A48594  33.437  17.535   7.216
 3589POPC   C1B48595  32.858  17.487   6.265
 3589POPC   C2B48596  32.695  17.719   6.647
 3589POPC   C3B48597  32.760  17.679   7.087
 3589POPC   C4B48598  32.819  17.251   7.212
 3590POPC   NC348599  15.420  21.969   5.180
 3590POPC   PO448600  14.836  22.056   5.467
 3590POPC   GL148601  15.156  22.255   5.730
 3590POPC   GL248602  15.004  22.548   5.884
 3590POPC   C1A48603  15.429  22.140   6.093
 3590POPC   D2A48604  15.636  22.207   6.503
 3590POPC   C3A48605  15.375  22.042   6.857
 3590POPC   C4A48606  15.310  21.991   7.309
 3590POPC   C1B48607  14.926  22.258   6.253
 3590POPC   C2B48608  14.914  21.900   6.587
 3590POPC   C3B48609  14.882  21.965   7.033
 3590POPC   C4B48610  15.018  22.389   7.120
 3591POPC   NC348611  20.857  34.565   5.494
 3591POPC   PO448612  20.315  34.782   5.225
 3591POPC   GL148613  20.345  34.619   5.663
 3591POPC   GL248614  20.543  34.883   5.799
 3591POPC   C1A48615  20.409  34.487   6.117
 3591POPC   D2A48616  20.612  34.415   6.536
 3591POPC   C3A48617  20.358  34.454   6.903
 3591POPC   C4A48618  20.506  34.352   7.304
 3591POPC   C1B48619  20.823  34.782   6.160
 3591POPC   C2B48620  20.913  34.826   6.589
 3591POPC   C3B48621  20.863  34.659   6.997
 3591POPC   C4B48622  20.897  34.690   7.465
 3592POPC   NC348623  31.501  24.668   5.228
 3592POPC   PO448624  31.910  24.340   5.353
 3592POPC   GL148625  31.585  24.457   5.707
 3592POPC   GL248626  31.543  24.822   5.824
 3592POPC   C1A48627  31.453  24.412   6.185
 3592POPC   D2A48628  31.448  24.575   6.645
 3592POPC   C3A48629  31.413  24.356   7.070
 3592POPC   C4A48630  31.425  24.099   7.481
 3592POPC   C1B48631  31.299  24.907   6.249
 3592POPC   C2B48632  31.127  24.968   6.705
 3592POPC   C3B48633  31.147  24.843   7.173
 3592POPC   C4B48634  30.987  24.852   7.634
 3593POPC   NC348635  35.100  40.101   5.264
 3593POPC   PO448636  35.638  39.723   5.430
 3593POPC   GL148637  35.473  39.886   5.814
 3593POPC   GL248638  35.604  40.203   5.865
 3593POPC   C1A48639  35.329  39.918   6.259
 3593POPC   D2A48640  35.397  40.179   6.658
 3593POPC   C3A48641  35.206  40.147   7.065
 3593POPC   C4A48642  35.248  40.184   7.510
 3593POPC   C1B48643  35.784  40.146   6.279
 3593POPC   C2B48644  35.731  39.809   6.589
 3593POPC   C3B48645  35.635  39.847   7.026
 3593POPC   C4B48646  35.700  40.249   7.245
 3594POPC   NC348647   8.883  41.488   5.372
 3594POPC   PO448648   9.404  41.841   5.226
 3594POPC   GL148649   9.304  41.587   5.745
 3594POPC   GL248650   9.005  41.391   5.833
 3594POPC   C1A48651   8.994  41.702   6.211
 3594POPC   D2A48652   9.142  41.826   6.653
 3594POPC   C3A48653   8.917  41.635   6.978
 3594POPC   C4A48654   8.648  41.746   7.328
 3594POPC   C1B48655   9.236  41.243   6.165
 3594POPC   C2B48656   9.067  41.201   6.578
 3594POPC   C3B48657   9.193  41.141   7.005
 3594POPC   C4B48658   8.928  41.273   7.325
 3595POPC   NC348659  35.179  44.321   4.963
 3595POPC   PO448660  35.494  44.796   5.449
 3595POPC   GL148661  35.417  44.731   5.887
 3595POPC   GL248662  35.337  44.383   5.816
 3595POPC   C1A48663  35.458  44.853   6.353
 3595POPC   D2A48664  35.347  44.932   6.815
 3595POPC   C3A48665  35.531  44.761   7.216
 3595POPC   C4A48666  35.668   0.019   7.604
 3595POPC   C1B48667  35.493  44.355   6.240
 3595POPC   C2B48668  35.293  44.345   6.664
 3595POPC   C3B48669  35.095  44.344   7.083
 3595POPC   C4B48670  35.305  44.389   7.487
 3596POPC   NC348671  33.966  44.763   5.526
 3596POPC   PO448672  33.487  44.372   5.259
 3596POPC   GL148673  33.682  44.396   5.732
 3596POPC   GL248674  33.613  44.750   5.908
 3596POPC   C1A48675  33.933  44.441   6.154
 3596POPC   D2A48676  33.911  44.422   6.640
 3596POPC   C3A48677  33.647  44.606   6.986
 3596POPC   C4A48678  33.567  44.482   7.441
 3596POPC   C1B48679  33.981  44.945   6.167
 3596POPC   C2B48680  34.020   0.007   6.616
 3596POPC   C3B48681  34.102  44.816   7.018
 3596POPC   C4B48682  33.966  44.782   7.463
 3597POPC   NC348683  41.381  17.432   5.492
 3597POPC   PO448684  42.052  17.557   5.672
 3597POPC   GL148685  41.625  17.516   5.949
 3597POPC   GL248686  41.239  17.611   5.967
 3597POPC   C1A48687  41.495  17.369   6.354
 3597POPC   D2A48688  41.693  17.377   6.732
 3597POPC   C3A48689  41.527  17.303   7.115
 3597POPC   C4A48690  41.736  17.140   7.511
 3597POPC   C1B48691  41.239  17.809   6.392
 3597POPC   C2B48692  41.537  17.880   6.733
 3597POPC   C3B48693  41.832  17.751   7.044
 3597POPC   C4B48694  41.721  17.646   7.454
 3598POPC   NC348695  13.854   5.443   5.527
 3598POPC   PO448696  13.355   5.069   5.233
 3598POPC   GL148697  13.378   5.188   5.685
 3598POPC   GL248698  13.671   5.020   5.838
 3598POPC   C1A48699  13.375   5.243   6.168
 3598POPC   D2A48700  13.790   5.207   6.409
 3598POPC   C3A48701  13.808   5.236   6.890
 3598POPC   C4A48702  13.569   5.372   7.234
 3598POPC   C1B48703  13.576   4.767   6.209
 3598POPC   C2B48704  13.635   4.775   6.667
 3598POPC   C3B48705  13.428   4.886   7.064
 3598POPC   C4B48706  13.453   4.629   7.421
 3599POPC   NC348707  37.705  35.763   5.423
 3599POPC   PO448708  37.522  35.178   5.530
 3599POPC   GL148709  37.466  35.321   5.927
 3599POPC   GL248710  37.550  35.649   5.893
 3599POPC   C1A48711  37.596  35.388   6.339
 3599POPC   D2A48712  37.776  35.149   6.610
 3599POPC   C3A48713  37.716  35.335   6.929
 3599POPC   C4A48714  37.777  35.282   7.334
 3599POPC   C1B48715  37.953  35.715   6.150
 3599POPC   C2B48716  38.132  35.528   6.529
 3599POPC   C3B48717  38.091  35.703   6.935
 3599POPC   C4B48718  37.801  35.776   7.208
 3600POPC   NC348719  22.221   4.370   5.280
 3600POPC   PO448720  22.467   3.865   5.558
 3600POPC   GL148721  22.367   4.247   5.792
 3600POPC   GL248722  22.250   4.607   5.718
 3600POPC   C1A48723  22.308   4.331   6.230
 3600POPC   D2A48724  22.517   4.329   6.647
 3600POPC   C3A48725  22.281   4.234   7.031
 3600POPC   C4A48726  21.928   4.082   7.308
 3600POPC   C1B48727  22.135   4.805   6.089
 3600POPC   C2B48728  22.123   4.972   6.512
 3600POPC   C3B48729  22.076   4.766   6.914
 3600POPC   C4B48730  22.116   4.607   7.327
 3601POPC   NC348731  10.329   2.028   5.131
 3601POPC   PO448732  10.900   2.167   5.441
 3601POPC   GL148733  10.561   2.278   5.714
 3601POPC   GL248734  10.436   1.947   5.687
 3601POPC   C1A48735  10.447   2.354   6.170
 3601POPC   D2A48736  10.578   2.314   6.641
 3601POPC   C3A48737  10.420   1.972   6.903
 3601POPC   C4A48738  10.235   2.025   7.300
 3601POPC   C1B48739  10.506   1.823   6.127
 3601POPC   C2B48740  10.731   1.796   6.519
 3601POPC   C3B48741  10.814   1.614   6.935
 3601POPC   C4B48742  10.609   1.679   7.312
 3602POPC   NC348743  41.306  38.723   5.462
 3602POPC   PO448744  41.938  38.329   5.583
 3602POPC   GL148745  41.650  38.572   5.805
 3602POPC   GL248746  41.747  38.925   5.718
 3602POPC   C1A48747  41.404  38.508   6.188
 3602POPC   D2A48748  41.377  38.703   6.606
 3602POPC   C3A48749  41.387  38.456   6.976
 3602POPC   C4A48750  41.327  38.534   7.394
 3602POPC   C1B48751  41.727  38.893   6.182
 3602POPC   C2B48752  41.865  38.562   6.468
 3602POPC   C3B48753  41.885  38.537   6.917
 3602POPC   C4B48754  41.752  38.763   7.252
 3603POPC   NC348755  41.921  14.636   5.420
 3603POPC   PO448756  42.647  14.676   5.411
 3603POPC   GL148757  42.338  14.410   5.694
 3603POPC   GL248758  42.008  14.521   5.902
 3603POPC   C1A48759  42.426  14.309   6.131
 3603POPC   D2A48760  42.191  14.327   6.510
 3603POPC   C3A48761  42.474  14.457   6.825
 3603POPC   C4A48762  42.544  14.396   7.243
 3603POPC   C1B48763  42.212  14.767   6.222
 3603POPC   C2B48764  42.157  14.837   6.619
 3603POPC   C3B48765  42.017  14.611   6.919
 3603POPC   C4B48766  42.280  14.818   7.148
 3604POPC   NC348767  26.947  18.825   5.376
 3604POPC   PO448768  26.477  19.299   5.279
 3604POPC   GL148769  26.671  19.036   5.734
 3604POPC   GL248770  27.052  19.023   5.831
 3604POPC   C1A48771  26.561  18.828   6.181
 3604POPC   D2A48772  26.523  18.968   6.627
 3604POPC   C3A48773  26.632  18.748   7.028
 3604POPC   C4A48774  26.596  19.006   7.428
 3604POPC   C1B48775  26.933  19.166   6.225
 3604POPC   C2B48776  26.938  19.322   6.623
 3604POPC   C3B48777  26.821  19.248   7.025
 3604POPC   C4B48778  27.067  19.259   7.378
 3605POPC   NC348779  17.824  15.146   5.433
 3605POPC   PO448780  17.207  15.465   5.492
 3605POPC   GL148781  17.476  15.335   5.773
 3605POPC   GL248782  17.438  14.976   5.797
 3605POPC   C1A48783  17.450  15.357   6.187
 3605POPC   D2A48784  17.692  15.369   6.520
 3605POPC   C3A48785  17.386  15.410   6.831
 3605POPC   C4A48786  17.437  15.268   7.211
 3605POPC   C1B48787  17.415  14.834   6.248
 3605POPC   C2B48788  17.496  14.904   6.702
 3605POPC   C3B48789  17.702  14.841   7.107
 3605POPC   C4B48790  17.560  14.925   7.540
 3606POPC   NC348791  26.636  33.333   5.291
 3606POPC   PO448792  27.017  32.760   5.304
 3606POPC   GL148793  26.944  33.092   5.649
 3606POPC   GL248794  27.178  33.413   5.667
 3606POPC   C1A48795  26.810  33.060   6.105
 3606POPC   D2A48796  26.759  32.761   6.463
 3606POPC   C3A48797  26.754  32.922   6.880
 3606POPC   C4A48798  27.044  32.785   7.154
 3606POPC   C1B48799  27.317  33.113   6.014
 3606POPC   C2B48800  27.260  33.019   6.470
 3606POPC   C3B48801  27.353  33.117   6.911
 3606POPC   C4B48802  27.340  33.424   7.215
 3607POPC   NC348803  33.352  30.435   5.425
 3607POPC   PO448804  32.940  31.008   5.272
 3607POPC   GL148805  33.031  30.847   5.736
 3607POPC   GL248806  33.226  30.577   5.897
 3607POPC   C1A48807  32.930  30.865   6.195
 3607POPC   D2A48808  33.092  30.681   6.607
 3607POPC   C3A48809  32.939  30.751   7.035
 3607POPC   C4A48810  32.799  30.639   7.475
 3607POPC   C1B48811  32.894  30.366   6.196
 3607POPC   C2B48812  32.744  30.320   6.655
 3607POPC   C3B48813  32.943  30.257   7.078
 3607POPC   C4B48814  33.351  30.455   7.249
 3608POPC   NC348815  39.709  19.302   5.384
 3608POPC   PO448816  40.094  18.743   5.489
 3608POPC   GL148817  40.072  19.137   5.720
 3608POPC   GL248818  39.828  18.962   5.911
 3608POPC   C1A48819  40.136  19.297   6.156
 3608POPC   D2A48820  40.150  19.033   6.536
 3608POPC   C3A48821  40.094  19.219   6.960
 3608POPC   C4A48822  40.126  18.993   7.333
 3608POPC   C1B48823  39.679  19.139   6.299
 3608POPC   C2B48824  39.675  19.070   6.716
 3608POPC   C3B48825  39.630  19.058   7.136
 3608POPC   C4B48826  39.619  18.893   7.505
 3609POPC   NC348827  34.882   5.725   5.426
 3609POPC   PO448828  34.217   5.595   5.443
 3609POPC   GL148829  34.461   5.874   5.750
 3609POPC   GL248830  34.608   5.619   5.843
 3609POPC   C1A48831  34.615   6.010   6.174
 3609POPC   D2A48832  34.461   5.891   6.567
 3609POPC   C3A48833  34.708   5.982   6.950
 3609POPC   C4A48834  34.685   6.139   7.356
 3609POPC   C1B48835  34.249   5.602   6.123
 3609POPC   C2B48836  34.107   5.510   6.505
 3609POPC   C3B48837  34.251   5.575   6.906
 3609POPC   C4B48838  34.487   5.639   7.260
 3610POPC   NC348839  23.373  11.095   5.416
 3610POPC   PO448840  23.816  11.601   5.253
 3610POPC   GL148841  23.682  11.495   5.724
 3610POPC   GL248842  23.698  11.175   5.815
 3610POPC   C1A48843  23.504  11.499   6.174
 3610POPC   D2A48844  23.480  11.294   6.606
 3610POPC   C3A48845  23.630  11.428   7.027
 3610POPC   C4A48846  23.337  11.531   7.384
 3610POPC   C1B48847  23.849  11.130   6.236
 3610POPC   C2B48848  23.782  10.888   6.608
 3610POPC   C3B48849  23.641  10.923   7.015
 3610POPC   C4B48850  23.827  10.836   7.402
 3611POPC   NC348851  31.896   4.973   5.317
 3611POPC   PO448852  31.284   5.310   5.347
 3611POPC   GL148853  31.353   5.216   5.754
 3611POPC   GL248854  31.676   5.241   5.792
 3611POPC   C1A48855  31.356   5.085   6.194
 3611POPC   D2A48856  31.217   5.238   6.584
 3611POPC   C3A48857  31.324   5.023   6.956
 3611POPC   C4A48858  31.490   5.134   7.341
 3611POPC   C1B48859  31.636   5.506   6.187
 3611POPC   C2B48860  31.875   5.515   6.575
 3611POPC   C3B48861  31.643   5.439   6.945
 3611POPC   C4B48862  31.539   5.659   7.330
 3612POPC   NC348863   2.737   2.417   5.377
 3612POPC   PO448864   3.014   3.009   5.363
 3612POPC   GL148865   2.967   3.080   5.790
 3612POPC   GL248866   2.851   2.736   5.845
 3612POPC   C1A48867   2.871   3.063   6.252
 3612POPC   D2A48868   2.933   2.832   6.662
 3612POPC   C3A48869   2.786   3.037   7.051
 3612POPC   C4A48870   2.345   3.037   7.152
 3612POPC   C1B48871   2.651   2.551   6.249
 3612POPC   C2B48872   2.540   2.440   6.698
 3612POPC   C3B48873   2.632   2.512   7.142
 3612POPC   C4B48874   2.662   2.298   7.559
 3613POPC   NC348875   0.945   2.019   5.544
 3613POPC   PO448876   1.493   1.844   5.137
 3613POPC   GL148877   1.354   1.741   5.646
 3613POPC   GL248878   1.312   2.019   5.911
 3613POPC   C1A48879   1.207   1.598   6.126
 3613POPC   D2A48880   1.175   1.782   6.562
 3613POPC   C3A48881   1.267   1.897   6.994
 3613POPC   C4A48882   1.480   2.246   7.191
 3613POPC   C1B48883   0.907   2.036   6.190
 3613POPC   C2B48884   0.718   2.030   6.617
 3613POPC   C3B48885   0.846   2.269   6.978
 3613POPC   C4B48886   0.987   2.119   7.362
 3614POPC   NC348887   8.486   8.429   5.331
 3614POPC   PO448888   8.073   7.893   5.379
 3614POPC   GL148889   8.078   7.979   5.807
 3614POPC   GL248890   8.287   8.293   5.812
 3614POPC   C1A48891   8.089   8.117   6.229
 3614POPC   D2A48892   8.329   8.174   6.596
 3614POPC   C3A48893   8.082   8.072   6.942
 3614POPC   C4A48894   7.936   7.884   7.282
 3614POPC   C1B48895   8.461   8.520   6.192
 3614POPC   C2B48896   8.561   8.628   6.630
 3614POPC   C3B48897   8.339   8.506   7.028
 3614POPC   C4B48898   8.401   8.307   7.405
 3615POPC   NC348899  26.400   8.291   5.398
 3615POPC   PO448900  25.767   8.399   5.340
 3615POPC   GL148901  25.939   8.119   5.707
 3615POPC   GL248902  25.684   7.884   5.823
 3615POPC   C1A48903  26.170   7.999   6.133
 3615POPC   D2A48904  26.049   8.189   6.551
 3615POPC   C3A48905  26.223   8.178   6.928
 3615POPC   C4A48906  26.361   8.272   7.326
 3615POPC   C1B48907  25.690   8.136   6.197
 3615POPC   C2B48908  25.554   8.104   6.584
 3615POPC   C3B48909  25.726   7.920   6.936
 3615POPC   C4B48910  25.945   7.959   7.284
 3616POPC   NC348911  20.141  38.831   5.368
 3616POPC   PO448912  19.778  38.334   5.179
 3616POPC   GL148913  19.834  38.423   5.642
 3616POPC   GL248914  19.529  38.540   5.778
 3616POPC   C1A48915  19.899  38.407   6.130
 3616POPC   D2A48916  19.729  38.243   6.562
 3616POPC   C3A48917  19.943  38.346   6.979
 3616POPC   C4A48918  19.984  38.379   7.474
 3616POPC   C1B48919  19.525  38.742   6.201
 3616POPC   C2B48920  19.727  38.749   6.618
 3616POPC   C3B48921  19.527  38.639   7.017
 3616POPC   C4B48922  19.513  38.292   7.294
 3617POPC   NC348923  41.646  41.155   5.456
 3617POPC   PO448924  41.546  40.539   5.609
 3617POPC   GL148925  41.493  40.833   5.838
 3617POPC   GL248926  41.185  40.953   5.645
 3617POPC   C1A48927  41.551  40.937   6.290
 3617POPC   D2A48928  41.759  41.099   6.661
 3617POPC   C3A48929  41.661  40.933   7.069
 3617POPC   C4A48930  41.473  40.567   7.206
 3617POPC   C1B48931  41.065  40.930   6.077
 3617POPC   C2B48932  41.038  40.815   6.516
 3617POPC   C3B48933  41.168  41.010   6.880
 3617POPC   C4B48934  41.151  40.987   7.327
 3618POPC   NC348935  17.412  10.772   5.504
 3618POPC   PO448936  18.002  10.459   5.455
 3618POPC   GL148937  17.809  10.364   5.815
 3618POPC   GL248938  17.810  10.722   5.855
 3618POPC   C1A48939  17.638  10.396   6.235
 3618POPC   D2A48940  17.254  10.453   6.492
 3618POPC   C3A48941  17.364  10.322   6.895
 3618POPC   C4A48942  17.782  10.208   7.054
 3618POPC   C1B48943  17.918  10.884   6.234
 3618POPC   C2B48944  17.641  10.821   6.544
 3618POPC   C3B48945  17.735  10.687   6.900
 3618POPC   C4B48946  17.533  10.632   7.265
 3619POPC   NC348947  22.361  33.418   5.465
 3619POPC   PO448948  22.011  32.824   5.255
 3619POPC   GL148949  22.183  32.969   5.652
 3619POPC   GL248950  21.970  33.233   5.798
 3619POPC   C1A48951  22.295  32.910   6.108
 3619POPC   D2A48952  22.145  32.832   6.554
 3619POPC   C3A48953  22.288  32.925   6.969
 3619POPC   C4A48954  22.150  32.865   7.410
 3619POPC   C1B48955  22.028  33.323   6.247
 3619POPC   C2B48956  21.882  33.285   6.663
 3619POPC   C3B48957  21.861  33.156   7.079
 3619POPC   C4B48958  21.789  33.215   7.525
 3620POPC   NC348959  12.828  43.370   5.267
 3620POPC   PO448960  13.085  42.654   5.328
 3620POPC   GL148961  12.841  42.942   5.639
 3620POPC   GL248962  13.053  43.233   5.734
 3620POPC   C1A48963  12.756  43.043   6.097
 3620POPC   D2A48964  12.873  43.240   6.507
 3620POPC   C3A48965  12.769  42.965   6.837
 3620POPC   C4A48966  12.857  43.025   7.238
 3620POPC   C1B48967  13.252  43.203   6.174
 3620POPC   C2B48968  13.357  43.436   6.564
 3620POPC   C3B48969  13.227  43.231   6.935
 3620POPC   C4B48970  13.408  43.131   7.335
 3621POPC   NC348971   7.342  11.483   5.392
 3621POPC   PO448972   7.659  10.893   5.477
 3621POPC   GL148973   7.473  11.107   5.871
 3621POPC   GL248974   7.172  11.318   5.908
 3621POPC   C1A48975   7.335  11.105   6.340
 3621POPC   D2A48976   7.395  10.883   6.738
 3621POPC   C3A48977   7.567  11.131   7.125
 3621POPC   C4A48978   7.637  11.339   7.549
 3621POPC   C1B48979   6.834  11.206   6.232
 3621POPC   C2B48980   6.900  11.300   6.671
 3621POPC   C3B48981   7.055  11.179   7.071
 3621POPC   C4B48982   7.179  11.448   7.380
 3622POPC   NC348983  39.991  39.069   5.451
 3622POPC   PO448984  40.351  39.641   5.461
 3622POPC   GL148985  40.260  39.330   5.802
 3622POPC   GL248986  40.401  38.990   5.763
 3622POPC   C1A48987  39.889  39.268   6.093
 3622POPC   D2A48988  39.620  39.406   6.427
 3622POPC   C3A48989  39.779  39.269   6.843
 3622POPC   C4A48990  39.703  39.285   7.281
 3622POPC   C1B48991  40.299  38.976   6.212
 3622POPC   C2B48992  40.273  39.240   6.589
 3622POPC   C3B48993  40.276  39.298   7.042
 3622POPC   C4B48994  40.106  38.972   7.299
 3623POPC   NC348995  26.821   7.715   5.372
 3623POPC   PO448996  27.205   7.214   5.155
 3623POPC   GL148997  26.842   7.343   5.674
 3623POPC   GL248998  27.022   7.657   5.827
 3623POPC   C1A48999  26.705   7.385   6.142
 3623POPC   D2A49000  26.560   7.648   6.517
 3623POPC   C3A49001  26.658   7.453   6.947
 3623POPC   C4A49002  26.821   7.448   7.406
 3623POPC   C1B49003  27.117   7.702   6.248
 3623POPC   C2B49004  27.061   7.537   6.645
 3623POPC   C3B49005  27.100   7.691   7.055
 3623POPC   C4B49006  27.200   7.781   7.492
 3624POPC   NC349007   6.367  29.161   5.431
 3624POPC   PO449008   6.956  29.359   5.462
 3624POPC   GL149009   6.736  29.175   5.807
 3624POPC   GL249010   6.601  28.831   5.748
 3624POPC   C1A49011   6.604  29.259   6.226
 3624POPC   D2A49012   6.459  29.365   6.643
 3624POPC   C3A49013   6.709  29.296   6.960
 3624POPC   C4A49014   6.890  29.349   7.337
 3624POPC   C1B49015   6.474  28.646   6.127
 3624POPC   C2B49016   6.456  28.855   6.514
 3624POPC   C3B49017   6.355  28.936   6.936
 3624POPC   C4B49018   6.615  28.914   7.303
 3625POPC   NC349019  12.310  20.958   5.429
 3625POPC   PO449020  11.709  20.727   5.344
 3625POPC   GL149021  11.980  20.708   5.742
 3625POPC   GL249022  12.166  20.410   5.757
 3625POPC   C1A49023  11.989  20.808   6.197
 3625POPC   D2A49024  11.784  20.895   6.613
 3625POPC   C3A49025  11.951  20.837   7.077
 3625POPC   C4A49026  11.745  20.723   7.516
 3625POPC   C1B49027  12.282  20.360   6.190
 3625POPC   C2B49028  12.232  20.175   6.601
 3625POPC   C3B49029  12.059  20.290   6.999
 3625POPC   C4B49030  12.192  20.516   7.391
 3626POPC   NC349031   2.345  14.711   5.208
 3626POPC   PO449032   1.989  14.061   5.301
 3626POPC   GL149033   1.732  14.324   5.597
 3626POPC   GL249034   2.047  14.460   5.778
 3626POPC   C1A49035   1.604  14.410   6.046
 3626POPC   D2A49036   1.822  14.454   6.440
 3626POPC   C3A49037   1.701  14.499   6.876
 3626POPC   C4A49038   1.841  14.506   7.312
 3626POPC   C1B49039   2.255  14.518   6.197
 3626POPC   C2B49040   2.301  14.356   6.605
 3626POPC   C3B49041   2.208  14.577   6.953
 3626POPC   C4B49042   2.497  14.639   7.278
 3627POPC   NC349043  36.803  39.856   5.449
 3627POPC   PO449044  37.282  40.283   5.318
 3627POPC   GL149045  37.032  40.281   5.735
 3627POPC   GL249046  37.022  39.938   5.898
 3627POPC   C1A49047  36.975  40.309   6.224
 3627POPC   D2A49048  37.048  39.890   6.439
 3627POPC   C3A49049  37.019  39.887   6.881
 3627POPC   C4A49050  37.030  40.168   7.236
 3627POPC   C1B49051  36.673  39.688   6.120
 3627POPC   C2B49052  36.677  39.518   6.538
 3627POPC   C3B49053  36.531  39.741   6.878
 3627POPC   C4B49054  36.578  39.906   7.245
 3628POPC   NC349055  31.595  22.778   5.352
 3628POPC   PO449056  31.157  23.184   5.632
 3628POPC   GL149057  31.437  22.822   5.830
 3628POPC   GL249058  31.777  22.901   5.862
 3628POPC   C1A49059  31.555  22.635   6.245
 3628POPC   D2A49060  31.520  22.791   6.647
 3628POPC   C3A49061  31.643  22.621   7.042
 3628POPC   C4A49062  31.429  22.735   7.472
 3628POPC   C1B49063  31.552  23.143   6.197
 3628POPC   C2B49064  31.644  23.302   6.570
 3628POPC   C3B49065  31.521  23.234   6.953
 3628POPC   C4B49066  31.759  23.063   7.256
 3629POPC   NC349067  22.459  32.680   5.157
 3629POPC   PO449068  22.269  32.072   5.507
 3629POPC   GL149069  22.029  32.101   5.861
 3629POPC   GL249070  22.115  32.468   5.858
 3629POPC   C1A49071  22.041  31.974   6.306
 3629POPC   D2A49072  22.392  32.003   6.607
 3629POPC   C3A49073  22.346  32.382   6.854
 3629POPC   C4A49074  22.116  32.100   7.121
 3629POPC   C1B49075  21.868  32.570   6.208
 3629POPC   C2B49076  21.872  32.384   6.624
 3629POPC   C3B49077  21.881  32.596   7.026
 3629POPC   C4B49078  21.907  32.429   7.434
 3630POPC   NC349079  19.807  12.568   5.380
 3630POPC   PO449080  20.080  13.130   5.154
 3630POPC   GL149081  20.013  12.984   5.623
 3630POPC   GL249082  20.009  12.637   5.828
 3630POPC   C1A49083  19.939  13.050   6.096
 3630POPC   D2A49084  19.890  12.732   6.438
 3630POPC   C3A49085  19.913  12.895   6.834
 3630POPC   C4A49086  19.637  13.061   7.105
 3630POPC   C1B49087  19.651  12.446   6.058
 3630POPC   C2B49088  19.479  12.398   6.467
 3630POPC   C3B49089  19.454  12.615   6.841
 3630POPC   C4B49090  19.651  12.572   7.240
 3631POPC   NC349091   4.812   4.104   5.567
 3631POPC   PO449092   5.351   4.402   5.399
 3631POPC   GL149093   5.262   4.217   5.776
 3631POPC   GL249094   4.993   4.406   5.920
 3631POPC   C1A49095   5.171   3.997   6.171
 3631POPC   D2A49096   5.234   4.221   6.574
 3631POPC   C3A49097   5.186   4.043   7.013
 3631POPC   C4A49098   5.331   4.219   7.420
 3631POPC   C1B49099   4.757   4.641   6.206
 3631POPC   C2B49100   4.587   4.617   6.601
 3631POPC   C3B49101   4.809   4.370   6.864
 3631POPC   C4B49102   4.835   4.316   7.302
 3632POPC   NC349103   4.671  31.862   5.337
 3632POPC   PO449104   5.364  31.604   5.309
 3632POPC   GL149105   5.210  31.658   5.718
 3632POPC   GL249106   4.893  31.552   5.696
 3632POPC   C1A49107   5.386  31.718   6.160
 3632POPC   D2A49108   5.405  31.984   6.562
 3632POPC   C3A49109   5.396  31.810   6.986
 3632POPC   C4A49110   5.132  31.837   7.347
 3632POPC   C1B49111   5.033  31.330   6.070
 3632POPC   C2B49112   4.891  31.528   6.456
 3632POPC   C3B49113   4.949  31.562   6.892
 3632POPC   C4B49114   4.883  31.397   7.289
 3633POPC   NC349115  22.662  16.357   5.513
 3633POPC   PO449116  22.903  16.926   5.276
 3633POPC   GL149117  22.806  16.921   5.719
 3633POPC   GL249118  22.932  16.637   5.878
 3633POPC   C1A49119  22.883  17.095   6.156
 3633POPC   D2A49120  22.753  17.014   6.605
 3633POPC   C3A49121  22.998  17.006   6.982
 3633POPC   C4A49122  22.848  16.987   7.400
 3633POPC   C1B49123  22.954  16.614   6.336
 3633POPC   C2B49124  23.205  16.624   6.715
 3633POPC   C3B49125  23.153  16.554   7.176
 3633POPC   C4B49126  22.837  16.432   7.497
 3634POPC   NC349127  33.796  10.339   5.514
 3634POPC   PO449128  33.903   9.704   5.454
 3634POPC   GL149129  33.788   9.921   5.829
 3634POPC   GL249130  34.095  10.085   5.927
 3634POPC   C1A49131  33.837   9.790   6.267
 3634POPC   D2A49132  34.017   9.602   6.623
 3634POPC   C3A49133  33.785   9.543   7.012
 3634POPC   C4A49134  33.871   9.601   7.460
 3634POPC   C1B49135  34.346  10.186   6.296
 3634POPC   C2B49136  34.222  10.091   6.723
 3634POPC   C3B49137  33.788  10.033   6.876
 3634POPC   C4B49138  33.593   9.992   7.302
 3635POPC   NC349139   9.860   9.142   5.509
 3635POPC   PO449140   9.711   8.464   5.477
 3635POPC   GL149141   9.599   8.780   5.808
 3635POPC   GL249142   9.911   8.898   5.958
 3635POPC   C1A49143   9.514   8.918   6.269
 3635POPC   D2A49144   9.757   9.048   6.657
 3635POPC   C3A49145   9.609   9.002   7.109
 3635POPC   C4A49146   9.452   8.732   7.492
 3635POPC   C1B49147  10.234   9.012   6.258
 3635POPC   C2B49148  10.253   9.190   6.671
 3635POPC   C3B49149  10.160   8.981   7.078
 3635POPC   C4B49150   9.949   8.847   7.459
 3636POPC   NC349151   2.360   3.984   5.517
 3636POPC   PO449152   2.135   3.353   5.415
 3636POPC   GL149153   1.841   3.507   5.723
 3636POPC   GL249154   2.048   3.732   5.852
 3636POPC   C1A49155   1.687   3.518   6.158
 3636POPC   D2A49156   1.723   3.599   6.590
 3636POPC   C3A49157   1.807   3.875   6.922
 3636POPC   C4A49158   1.626   3.696   7.285
 3636POPC   C1B49159   2.190   3.453   6.220
 3636POPC   C2B49160   2.088   3.237   6.614
 3636POPC   C3B49161   1.939   3.370   7.012
 3636POPC   C4B49162   2.230   3.504   7.298
 3637POPC   NC349163   4.812   6.710   5.590
 3637POPC   PO449164   4.323   6.488   5.316
 3637POPC   GL149165   4.342   6.439   5.720
 3637POPC   GL249166   4.144   6.738   5.783
 3637POPC   C1A49167   4.423   6.373   6.149
 3637POPC   D2A49168   4.107   6.386   6.471
 3637POPC   C3A49169   4.261   6.379   6.872
 3637POPC   C4A49170   4.149   6.550   7.271
 3637POPC   C1B49171   4.230   6.838   6.220
 3637POPC   C2B49172   4.519   6.739   6.594
 3637POPC   C3B49173   4.595   6.721   7.062
 3637POPC   C4B49174   4.376   7.003   7.367
 3638POPC   NC349175  31.642   5.592   5.419
 3638POPC   PO449176  31.316   6.143   5.474
 3638POPC   GL149177  31.297   5.815   5.763
 3638POPC   GL249178  31.625   5.867   5.834
 3638POPC   C1A49179  31.281   5.909   6.211
 3638POPC   D2A49180  31.469   5.807   6.608
 3638POPC   C3A49181  31.390   6.025   6.984
 3638POPC   C4A49182  30.989   6.028   7.241
 3638POPC   C1B49183  31.800   6.003   6.217
 3638POPC   C2B49184  31.936   6.049   6.611
 3638POPC   C3B49185  31.887   5.888   6.996
 3638POPC   C4B49186  31.804   6.180   7.301
 3639POPC   NC349187  16.951  14.662   5.392
 3639POPC   PO449188  16.379  14.918   5.615
 3639POPC   GL149189  16.677  14.647   5.831
 3639POPC   GL249190  16.780  14.307   5.709
 3639POPC   C1A49191  16.960  14.558   6.174
 3639POPC   D2A49192  16.794  14.731   6.570
 3639POPC   C3A49193  16.837  14.553   7.007
 3639POPC   C4A49194  16.732  14.637   7.475
 3639POPC   C1B49195  16.603  14.197   6.083
 3639POPC   C2B49196  16.707  14.234   6.519
 3639POPC   C3B49197  16.477  14.173   6.898
 3639POPC   C4B49198  16.596  14.174   7.309
 3640POPC   NC349199  40.167  15.473   5.049
 3640POPC   PO449200  39.813  15.736   5.570
 3640POPC   GL149201  39.936  15.785   5.924
 3640POPC   GL249202  39.823  15.469   6.013
 3640POPC   C1A49203  40.205  15.913   6.227
 3640POPC   D2A49204  40.198  16.076   6.637
 3640POPC   C3A49205  39.777  16.104   6.789
 3640POPC   C4A49206  39.632  16.114   7.206
 3640POPC   C1B49207  39.777  15.697   6.395
 3640POPC   C2B49208  39.702  15.521   6.740
 3640POPC   C3B49209  39.902  15.679   7.044
 3640POPC   C4B49210  40.152  16.013   7.157
 3641POPC   NC349211   7.513  27.026   5.323
 3641POPC   PO449212   7.429  26.344   5.338
 3641POPC   GL149213   7.334  26.676   5.683
 3641POPC   GL249214   7.654  26.866   5.793
 3641POPC   C1A49215   7.255  26.850   6.118
 3641POPC   D2A49216   7.214  27.006   6.536
 3641POPC   C3A49217   7.264  26.699   6.885
 3641POPC   C4A49218   7.069  26.642   7.285
 3641POPC   C1B49219   7.747  26.713   6.229
 3641POPC   C2B49220   7.707  26.882   6.632
 3641POPC   C3B49221   7.763  26.766   7.062
 3641POPC   C4B49222   7.543  26.515   7.390
 3642POPC   NC349223   8.494   6.248   5.606
 3642POPC   PO449224   8.180   5.650   5.526
 3642POPC   GL149225   7.990   5.948   5.850
 3642POPC   GL249226   8.327   5.984   6.008
 3642POPC   C1A49227   7.993   6.214   6.264
 3642POPC   D2A49228   8.285   6.035   6.568
 3642POPC   C3A49229   8.301   6.125   7.038
 3642POPC   C4A49230   8.043   6.087   7.444
 3642POPC   C1B49231   8.259   5.554   6.153
 3642POPC   C2B49232   8.399   5.446   6.531
 3642POPC   C3B49233   8.231   5.594   6.886
 3642POPC   C4B49234   8.304   5.667   7.301
 3643POPC   NC349235  42.112  26.178   5.227
 3643POPC   PO449236  42.759  25.968   5.366
 3643POPC   GL149237  42.398  26.021   5.652
 3643POPC   GL249238  42.198  25.746   5.663
 3643POPC   C1A49239  42.344  26.052   6.118
 3643POPC   D2A49240  42.181  26.191   6.552
 3643POPC   C3A49241  42.286  26.183   7.065
 3643POPC   C4A49242  42.247  26.055   7.530
 3643POPC   C1B49243  42.012  25.699   6.036
 3643POPC   C2B49244  42.135  25.687   6.442
 3643POPC   C3B49245  42.178  25.747   6.858
 3643POPC   C4B49246  42.255  25.624   7.262
 3644POPC   NC349247  38.493  39.533   5.107
 3644POPC   PO449248  38.690  38.933   5.348
 3644POPC   GL149249  38.597  39.055   5.750
 3644POPC   GL249250  38.683  39.415   5.814
 3644POPC   C1A49251  38.270  39.066   6.036
 3644POPC   D2A49252  38.212  39.370   6.339
 3644POPC   C3A49253  38.345  39.293   6.761
 3644POPC   C4A49254  38.285  39.530   7.124
 3644POPC   C1B49255  38.723  39.238   6.238
 3644POPC   C2B49256  38.863  39.110   6.645
 3644POPC   C3B49257  38.776  39.189   7.047
 3644POPC   C4B49258  38.414  39.055   7.277
 3645POPC   NC349259  19.263  34.848   5.361
 3645POPC   PO449260  18.628  34.590   5.260
 3645POPC   GL149261  18.853  34.710   5.648
 3645POPC   GL249262  18.822  34.374   5.744
 3645POPC   C1A49263  19.185  34.631   5.998
 3645POPC   D2A49264  19.164  34.421   6.391
 3645POPC   C3A49265  19.258  34.647   6.742
 3645POPC   C4A49266  19.036  34.692   7.107
 3645POPC   C1B49267  18.738  34.209   6.144
 3645POPC   C2B49268  18.839  34.042   6.547
 3645POPC   C3B49269  18.804  34.231   6.943
 3645POPC   C4B49270  18.978  34.188   7.336
 3646POPC   NC349271   7.512   3.653   5.418
 3646POPC   PO449272   7.002   3.809   5.693
 3646POPC   GL149273   7.316   3.586   5.897
 3646POPC   GL249274   7.647   3.772   5.896
 3646POPC   C1A49275   7.217   3.432   6.296
 3646POPC   D2A49276   7.174   3.527   6.706
 3646POPC   C3A49277   7.511   3.383   6.935
 3646POPC   C4A49278   7.658   3.451   7.348
 3646POPC   C1B49279   7.680   3.610   6.299
 3646POPC   C2B49280   7.573   3.829   6.652
 3646POPC   C3B49281   7.682   3.862   7.054
 3646POPC   C4B49282   7.523   3.960   7.471
 3647POPC   NC349283   4.542  39.863   5.354
 3647POPC   PO449284   3.947  40.127   5.285
 3647POPC   GL149285   4.078  39.952   5.710
 3647POPC   GL249286   4.401  39.826   5.849
 3647POPC   C1A49287   4.039  39.921   6.179
 3647POPC   D2A49288   4.332  39.909   6.528
 3647POPC   C3A49289   4.181  39.924   6.930
 3647POPC   C4A49290   4.373  40.108   7.274
 3647POPC   C1B49291   4.396  39.531   6.205
 3647POPC   C2B49292   4.314  39.390   6.608
 3647POPC   C3B49293   4.491  39.536   6.934
 3647POPC   C4B49294   4.347  39.616   7.322
 3648POPC   NC349295   9.273   3.644   5.457
 3648POPC   PO449296   8.713   3.279   5.415
 3648POPC   GL149297   8.902   3.502   5.779
 3648POPC   GL249298   9.226   3.344   5.878
 3648POPC   C1A49299   9.071   3.770   6.131
 3648POPC   D2A49300   9.240   3.723   6.558
 3648POPC   C3A49301   8.903   3.706   6.858
 3648POPC   C4A49302   8.937   3.501   7.208
 3648POPC   C1B49303   9.017   3.292   6.312
 3648POPC   C2B49304   9.092   3.251   6.784
 3648POPC   C3B49305   9.359   3.178   7.175
 3648POPC   C4B49306   9.530   3.049   7.585
 3649POPC   NC349307   4.514   5.030   5.335
 3649POPC   PO449308   3.943   5.224   5.536
 3649POPC   GL149309   4.268   4.952   5.775
 3649POPC   GL249310   4.660   4.778   5.735
 3649POPC   C1A49311   4.286   4.844   6.206
 3649POPC   D2A49312   4.236   5.034   6.612
 3649POPC   C3A49313   4.365   4.867   7.011
 3649POPC   C4A49314   4.203   4.988   7.411
 3649POPC   C1B49315   4.698   5.108   5.996
 3649POPC   C2B49316   4.719   5.103   6.423
 3649POPC   C3B49317   4.788   5.086   6.845
 3649POPC   C4B49318   4.851   4.807   7.190
 3650POPC   NC349319   5.647  39.169   5.672
 3650POPC   PO449320   5.036  39.101   5.322
 3650POPC   GL149321   5.058  39.049   5.770
 3650POPC   GL249322   5.204  39.371   5.815
 3650POPC   C1A49323   5.234  38.988   6.214
 3650POPC   D2A49324   5.316  39.143   6.640
 3650POPC   C3A49325   5.104  38.915   6.983
 3650POPC   C4A49326   5.194  39.069   7.389
 3650POPC   C1B49327   4.865  39.360   6.116
 3650POPC   C2B49328   4.814  39.312   6.556
 3650POPC   C3B49329   4.998  39.421   6.951
 3650POPC   C4B49330   4.804  39.414   7.334
 3651POPC   NC349331  36.035  15.457   5.172
 3651POPC   PO449332  36.349  14.874   5.161
 3651POPC   GL149333  36.373  15.156   5.632
 3651POPC   GL249334  36.592  15.094   5.855
 3651POPC   C1A49335  36.212  15.013   6.179
 3651POPC   D2A49336  36.150  14.820   6.618
 3651POPC   C3A49337  36.002  15.033   7.003
 3651POPC   C4A49338  35.884  15.421   7.200
 3651POPC   C1B49339  36.591  15.352   6.181
 3651POPC   C2B49340  36.422  15.285   6.583
 3651POPC   C3B49341  36.367  15.411   6.993
 3651POPC   C4B49342  36.418  15.117   7.321
 3652POPC   NC349343  15.799  37.357   5.446
 3652POPC   PO449344  16.170  37.999   5.434
 3652POPC   GL149345  15.931  37.770   5.715
 3652POPC   GL249346  15.604  37.914   5.740
 3652POPC   C1A49347  16.000  37.542   6.095
 3652POPC   D2A49348  16.170  37.732   6.468
 3652POPC   C3A49349  16.022  37.632   6.881
 3652POPC   C4A49350  16.176  37.688   7.302
 3652POPC   C1B49351  15.495  37.626   6.107
 3652POPC   C2B49352  15.671  37.439   6.502
 3652POPC   C3B49353  15.502  37.605   6.890
 3652POPC   C4B49354  15.655  37.744   7.283
 3653POPC   NC349355  23.249  22.904   5.441
 3653POPC   PO449356  22.629  23.241   5.409
 3653POPC   GL149357  22.906  23.281   5.755
 3653POPC   GL249358  22.877  22.927   5.806
 3653POPC   C1A49359  22.969  23.205   6.215
 3653POPC   D2A49360  22.982  22.914   6.579
 3653POPC   C3A49361  22.892  23.080   6.974
 3653POPC   C4A49362  23.247  23.226   7.226
 3653POPC   C1B49363  22.777  22.683   6.153
 3653POPC   C2B49364  22.681  22.510   6.554
 3653POPC   C3B49365  22.808  22.537   6.966
 3653POPC   C4B49366  22.969  22.738   7.344
 3654POPC   NC349367  18.648   0.744   5.436
 3654POPC   PO449368  17.968   0.453   5.435
 3654POPC   GL149369  18.285   0.398   5.804
 3654POPC   GL249370  18.323   0.755   5.862
 3654POPC   C1A49371  18.458   0.272   6.273
 3654POPC   D2A49372  18.603   0.505   6.702
 3654POPC   C3A49373  18.526   0.355   7.130
 3654POPC   C4A49374  18.089   0.268   7.239
 3654POPC   C1B49375  18.359   0.760   6.317
 3654POPC   C2B49376  18.250   0.927   6.706
 3654POPC   C3B49377  18.206   0.752   7.084
 3654POPC   C4B49378  17.898   0.896   7.344
 3655POPC   NC349379  12.955  27.820   5.575
 3655POPC   PO449380  12.737  27.183   5.402
 3655POPC   GL149381  12.721  27.417   5.812
 3655POPC   GL249382  12.494  27.721   5.845
 3655POPC   C1A49383  13.026  27.486   6.157
 3655POPC   D2A49384  13.143  27.647   6.552
 3655POPC   C3A49385  12.970  27.524   6.945
 3655POPC   C4A49386  12.899  27.616   7.381
 3655POPC   C1B49387  12.573  27.683   6.276
 3655POPC   C2B49388  12.698  27.914   6.656
 3655POPC   C3B49389  12.565  27.823   7.062
 3655POPC   C4B49390  12.391  27.578   7.383
 3656POPC   NC349391  30.318  16.473   5.501
 3656POPC   PO449392  29.859  16.856   5.506
 3656POPC   GL149393  30.005  17.080   5.882
 3656POPC   GL249394  30.278  16.841   5.900
 3656POPC   C1A49395  29.988  17.041   6.352
 3656POPC   D2A49396  30.117  16.702   6.651
 3656POPC   C3A49397  29.937  16.709   7.067
 3656POPC   C4A49398  29.717  16.998   7.336
 3656POPC   C1B49399  30.467  17.131   6.199
 3656POPC   C2B49400  30.415  17.118   6.636
 3656POPC   C3B49401  30.055  17.178   6.895
 3656POPC   C4B49402  30.214  17.121   7.293
 3657POPC   NC349403  22.731  23.759   5.437
 3657POPC   PO449404  23.385  23.672   5.419
 3657POPC   GL149405  23.111  23.810   5.810
 3657POPC   GL249406  22.737  23.954   5.913
 3657POPC   C1A49407  23.086  23.729   6.262
 3657POPC   D2A49408  22.882  23.505   6.612
 3657POPC   C3A49409  22.933  23.585   7.020
 3657POPC   C4A49410  23.195  23.701   7.383
 3657POPC   C1B49411  22.604  23.888   6.368
 3657POPC   C2B49412  22.564  23.911   6.821
 3657POPC   C3B49413  22.470  23.694   7.223
 3657POPC   C4B49414  22.708  23.805   7.624
 3658POPC   NC349415  12.534   6.790   5.387
 3658POPC   PO449416  13.271   6.504   5.392
 3658POPC   GL149417  13.041   6.639   5.760
 3658POPC   GL249418  12.698   6.646   5.884
 3658POPC   C1A49419  13.101   6.628   6.213
 3658POPC   D2A49420  13.047   6.401   6.598
 3658POPC   C3A49421  13.108   6.589   7.005
 3658POPC   C4A49422  12.933   6.478   7.371
 3658POPC   C1B49423  12.600   6.581   6.350
 3658POPC   C2B49424  12.726   6.810   6.736
 3658POPC   C3B49425  12.691   6.903   7.202
 3658POPC   C4B49426  12.462   6.771   7.580
 3659POPC   NC349427   6.681  37.600   5.415
 3659POPC   PO449428   6.524  38.206   5.289
 3659POPC   GL149429   6.663  38.017   5.686
 3659POPC   GL249430   6.326  37.888   5.706
 3659POPC   C1A49431   6.695  37.742   6.082
 3659POPC   D2A49432   6.613  37.835   6.515
 3659POPC   C3A49433   6.760  37.615   6.900
 3659POPC   C4A49434   6.796  37.570   7.343
 3659POPC   C1B49435   6.177  37.873   6.140
 3659POPC   C2B49436   6.120  37.819   6.590
 3659POPC   C3B49437   6.300  37.846   7.043
 3659POPC   C4B49438   6.316  37.710   7.506
 3660POPC   NC349439  43.139  29.487   5.380
 3660POPC   PO449440  43.167  28.786   5.396
 3660POPC   GL149441  43.159  29.102   5.742
 3660POPC   GL249442  42.888  29.386   5.811
 3660POPC   C1A49443  43.208  29.213   6.161
 3660POPC   D2A49444  42.987  29.346   6.507
 3660POPC   C3A49445  43.152  29.222   6.923
 3660POPC   C4A49446  43.148  29.336   7.336
 3660POPC   C1B49447  42.560  29.515   6.131
 3660POPC   C2B49448  42.531  29.651   6.555
 3660POPC   C3B49449  42.738  29.511   6.918
 3660POPC   C4B49450  42.650  29.396   7.323
 3661POPC   NC349451  21.132  28.015   5.497
 3661POPC   PO449452  21.760  28.485   5.441
 3661POPC   GL149453  21.608  28.198   5.748
 3661POPC   GL249454  21.323  28.415   5.737
 3661POPC   C1A49455  21.383  28.104   6.163
 3661POPC   D2A49456  21.149  28.270   6.538
 3661POPC   C3A49457  21.335  28.302   6.966
 3661POPC   C4A49458  21.598  28.138   7.296
 3661POPC   C1B49459  21.492  28.605   6.107
 3661POPC   C2B49460  21.581  28.655   6.550
 3661POPC   C3B49461  21.522  28.812   6.979
 3661POPC   C4B49462  21.557  28.762   7.453
 3662POPC   NC349463   4.169  35.532   5.313
 3662POPC   PO449464   4.495  34.915   5.175
 3662POPC   GL149465   4.394  35.149   5.630
 3662POPC   GL249466   4.336  35.514   5.794
 3662POPC   C1A49467   4.291  35.151   6.124
 3662POPC   D2A49468   4.159  35.312   6.557
 3662POPC   C3A49469   4.266  35.074   6.957
 3662POPC   C4A49470   4.581  35.038   7.314
 3662POPC   C1B49471   4.016  35.610   6.130
 3662POPC   C2B49472   3.969  35.850   6.534
 3662POPC   C3B49473   4.051  35.649   6.946
 3662POPC   C4B49474   4.202  35.429   7.325
 3663POPC   NC349475  10.109  42.724   5.535
 3663POPC   PO449476   9.597  43.158   5.273
 3663POPC   GL149477   9.829  43.181   5.667
 3663POPC   GL249478   9.745  42.868   5.853
 3663POPC   C1A49479   9.823  43.299   6.137
 3663POPC   D2A49480   9.658  43.182   6.547
 3663POPC   C3A49481   9.908  43.073   6.918
 3663POPC   C4A49482   9.801  43.299   7.309
 3663POPC   C1B49483   9.434  42.912   6.177
 3663POPC   C2B49484   9.249  42.857   6.592
 3663POPC   C3B49485   9.394  42.980   7.021
 3663POPC   C4B49486   9.375  42.773   7.441
 3664POPC   NC349487  30.141   7.032   5.455
 3664POPC   PO449488  29.725   7.628   5.289
 3664POPC   GL149489  30.003   7.489   5.635
 3664POPC   GL249490  29.734   7.277   5.675
 3664POPC   C1A49491  30.005   7.286   6.088
 3664POPC   D2A49492  30.100   7.185   6.507
 3664POPC   C3A49493  29.955   7.363   6.862
 3664POPC   C4A49494  30.169   7.395   7.226
 3664POPC   C1B49495  29.487   7.135   6.015
 3664POPC   C2B49496  29.588   7.090   6.445
 3664POPC   C3B49497  29.469   7.229   6.872
 3664POPC   C4B49498  29.625   7.366   7.288
 3665POPC   NC349499   0.988  30.132   5.482
 3665POPC   PO449500   1.427  29.793   5.456
 3665POPC   GL149501   1.216  29.852   5.875
 3665POPC   GL249502   0.857  29.848   5.896
 3665POPC   C1A49503   1.132  30.018   6.329
 3665POPC   D2A49504   1.007  30.041   6.797
 3665POPC   C3A49505   1.338  30.078   7.127
 3665POPC   C4A49506   1.399  30.249   7.536
 3665POPC   C1B49507   0.980  29.538   6.223
 3665POPC   C2B49508   1.170  29.567   6.649
 3665POPC   C3B49509   1.103  29.631   7.112
 3665POPC   C4B49510   1.020  29.876   7.514
 3666POPC   NC349511  15.954  42.783   5.278
 3666POPC   PO449512  15.820  43.453   5.206
 3666POPC   GL149513  15.860  43.132   5.651
 3666POPC   GL249514  15.872  42.754   5.779
 3666POPC   C1A49515  16.054  43.131   6.107
 3666POPC   D2A49516  16.328  43.195   6.496
 3666POPC   C3A49517  16.168  43.186   6.925
 3666POPC   C4A49518  15.860  43.145   7.218
 3666POPC   C1B49519  15.951  42.625   6.207
 3666POPC   C2B49520  15.918  42.865   6.587
 3666POPC   C3B49521  15.927  42.689   6.988
 3666POPC   C4B49522  15.972  42.704   7.441
 3667POPC   NC349523   3.138  12.506   5.428
 3667POPC   PO449524   2.841  13.102   5.337
 3667POPC   GL149525   2.914  12.865   5.736
 3667POPC   GL249526   2.627  12.945   5.863
 3667POPC   C1A49527   2.907  12.763   6.234
 3667POPC   D2A49528   2.678  12.870   6.640
 3667POPC   C3A49529   2.874  12.742   7.043
 3667POPC   C4A49530   3.029  12.377   7.246
 3667POPC   C1B49531   2.342  12.974   6.217
 3667POPC   C2B49532   2.172  13.067   6.608
 3667POPC   C3B49533   2.330  13.108   7.015
 3667POPC   C4B49534   2.505  12.901   7.371
 3668POPC   NC349535  30.605  41.726   5.492
 3668POPC   PO449536  31.098  41.211   5.556
 3668POPC   GL149537  30.866  41.420   5.905
 3668POPC   GL249538  30.898  41.781   5.910
 3668POPC   C1A49539  30.683  41.528   6.317
 3668POPC   D2A49540  30.775  41.659   6.720
 3668POPC   C3A49541  30.534  41.560   7.095
 3668POPC   C4A49542  30.647  41.293   7.469
 3668POPC   C1B49543  30.911  42.029   6.265
 3668POPC   C2B49544  31.078  42.056   6.655
 3668POPC   C3B49545  30.982  41.990   7.028
 3668POPC   C4B49546  31.025  41.583   7.184
 3669POPC   NC349547  37.621  25.475   5.435
 3669POPC   PO449548  37.727  24.877   5.517
 3669POPC   GL149549  37.624  25.110   5.884
 3669POPC   GL249550  37.610  25.486   5.937
 3669POPC   C1A49551  37.680  25.149   6.329
 3669POPC   D2A49552  37.433  25.093   6.699
 3669POPC   C3A49553  37.668  25.048   7.071
 3669POPC   C4A49554  37.761  25.295   7.428
 3669POPC   C1B49555  37.459  25.647   6.342
 3669POPC   C2B49556  37.234  25.573   6.725
 3669POPC   C3B49557  37.407  25.506   7.132
 3669POPC   C4B49558  37.397  25.636   7.581
 3670POPC   NC349559   4.467  23.229   5.377
 3670POPC   PO449560   3.949  22.731   5.475
 3670POPC   GL149561   4.329  22.891   5.727
 3670POPC   GL249562   4.585  22.633   5.687
 3670POPC   C1A49563   4.560  22.956   6.145
 3670POPC   D2A49564   4.627  23.127   6.603
 3670POPC   C3A49565   4.523  22.881   7.010
 3670POPC   C4A49566   4.333  23.031   7.415
 3670POPC   C1B49567   4.270  22.552   6.095
 3670POPC   C2B49568   4.176  22.809   6.516
 3670POPC   C3B49569   4.018  22.715   6.965
 3670POPC   C4B49570   4.073  22.608   7.431
 3671POPC   NC349571   2.888  23.363   5.447
 3671POPC   PO449572   3.196  23.971   5.377
 3671POPC   GL149573   3.089  23.734   5.793
 3671POPC   GL249574   2.746  23.612   5.862
 3671POPC   C1A49575   3.020  23.718   6.285
 3671POPC   D2A49576   2.855  23.858   6.735
 3671POPC   C3A49577   3.013  23.746   7.151
 3671POPC   C4A49578   3.079  23.547   7.562
 3671POPC   C1B49579   2.466  23.600   6.224
 3671POPC   C2B49580   2.371  23.685   6.669
 3671POPC   C3B49581   2.429  23.806   7.100
 3671POPC   C4B49582   2.164  23.831   7.504
 3672POPC   NC349583  16.284  20.919   5.546
 3672POPC   PO449584  16.715  20.297   5.556
 3672POPC   GL149585  16.610  20.426   5.929
 3672POPC   GL249586  16.635  20.742   5.966
 3672POPC   C1A49587  16.493  20.407   6.339
 3672POPC   D2A49588  16.857  20.447   6.579
 3672POPC   C3A49589  16.787  20.509   6.985
 3672POPC   C4A49590  16.601  20.628   7.400
 3672POPC   C1B49591  16.921  20.894   6.266
 3672POPC   C2B49592  16.976  21.002   6.706
 3672POPC   C3B49593  16.889  20.964   7.153
 3672POPC   C4B49594  16.865  20.987   7.635
 3673POPC   NC349595  17.085  44.857   5.385
 3673POPC   PO449596  17.735  44.609   5.421
 3673POPC   GL149597  17.398  44.609   5.717
 3673POPC   GL249598  17.419  44.281   5.820
 3673POPC   C1A49599  17.336  44.664   6.175
 3673POPC   D2A49600  17.202  44.665   6.607
 3673POPC   C3A49601  17.536  44.791   6.878
 3673POPC   C4A49602  17.600   0.062   7.252
 3673POPC   C1B49603  17.798  44.380   6.117
 3673POPC   C2B49604  17.952  44.382   6.574
 3673POPC   C3B49605  17.737  44.344   7.032
 3673POPC   C4B49606  17.398  44.522   7.302
 3674POPC   NC349607  25.463  10.011   5.403
 3674POPC   PO449608  25.921   9.523   5.234
 3674POPC   GL149609  25.897   9.524   5.731
 3674POPC   GL249610  26.087   9.778   5.967
 3674POPC   C1A49611  25.853   9.395   6.178
 3674POPC   D2A49612  25.701   9.469   6.601
 3674POPC   C3A49613  25.911   9.687   6.932
 3674POPC   C4A49614  26.332   9.787   7.038
 3674POPC   C1B49615  25.730   9.887   6.264
 3674POPC   C2B49616  25.708  10.070   6.636
 3674POPC   C3B49617  26.017  10.207   6.887
 3674POPC   C4B49618  26.062  10.143   7.297
 3675POPC   NC349619  10.632  11.793   5.436
 3675POPC   PO449620  10.281  11.226   5.532
 3675POPC   GL149621  10.605  11.208   5.836
 3675POPC   GL249622  10.858  11.424   5.734
 3675POPC   C1A49623  10.603  11.120   6.283
 3675POPC   D2A49624  10.637  11.007   6.717
 3675POPC   C3A49625  10.545  11.263   7.035
 3675POPC   C4A49626  10.220  11.434   7.281
 3675POPC   C1B49627  10.643  11.602   6.137
 3675POPC   C2B49628  10.460  11.528   6.583
 3675POPC   C3B49629  10.522  11.750   6.981
 3675POPC   C4B49630  10.684  11.636   7.398
 3676POPC   NC349631  33.420   3.834   5.295
 3676POPC   PO449632  32.995   3.346   5.390
 3676POPC   GL149633  33.180   3.567   5.743
 3676POPC   GL249634  32.856   3.522   5.872
 3676POPC   C1A49635  33.180   3.659   6.243
 3676POPC   D2A49636  33.125   3.582   6.717
 3676POPC   C3A49637  33.381   3.821   7.048
 3676POPC   C4A49638  33.257   3.872   7.491
 3676POPC   C1B49639  32.804   3.247   6.223
 3676POPC   C2B49640  32.770   3.026   6.600
 3676POPC   C3B49641  32.957   3.154   6.961
 3676POPC   C4B49642  33.050   3.466   7.244
 3677POPC   NC349643  23.181  18.235   5.678
 3677POPC   PO449644  22.720  18.648   5.249
 3677POPC   GL149645  22.677  18.579   5.766
 3677POPC   GL249646  22.568  18.270   5.893
 3677POPC   C1A49647  22.903  18.470   6.221
 3677POPC   D2A49648  23.100  18.242   6.626
 3677POPC   C3A49649  23.269  18.394   7.050
 3677POPC   C4A49650  23.178  18.478   7.506
 3677POPC   C1B49651  22.398  18.330   6.326
 3677POPC   C2B49652  22.439  18.340   6.780
 3677POPC   C3B49653  22.733  18.500   7.088
 3677POPC   C4B49654  22.684  18.827   7.395
 3678POPC   NC349655  15.298  19.577   5.563
 3678POPC   PO449656  15.018  20.180   5.451
 3678POPC   GL149657  15.161  20.113   5.850
 3678POPC   GL249658  15.493  19.970   5.850
 3678POPC   C1A49659  15.037  19.910   6.245
 3678POPC   D2A49660  15.096  19.613   6.603
 3678POPC   C3A49661  15.054  19.807   7.010
 3678POPC   C4A49662  15.039  20.183   7.242
 3678POPC   C1B49663  15.532  19.774   6.278
 3678POPC   C2B49664  15.618  19.583   6.658
 3678POPC   C3B49665  15.535  19.672   7.075
 3678POPC   C4B49666  15.773  19.617   7.439
 3679POPC   NC349667  18.080  44.932   5.451
 3679POPC   PO449668  18.651  44.656   5.368
 3679POPC   GL149669  18.389  44.460   5.700
 3679POPC   GL249670  18.314  44.762   5.893
 3679POPC   C1A49671  18.355  44.329   6.172
 3679POPC   D2A49672  18.506  44.412   6.616
 3679POPC   C3A49673  18.243  44.421   6.984
 3679POPC   C4A49674  17.995  44.773   7.112
 3679POPC   C1B49675  18.195  44.806   6.356
 3679POPC   C2B49676  18.289   0.014   6.767
 3679POPC   C3B49677  18.491  44.851   7.166
 3679POPC   C4B49678  18.400   0.036   7.579
 3680POPC   NC349679  17.253   3.543   5.391
 3680POPC   PO449680  17.886   3.789   5.256
 3680POPC   GL149681  17.683   3.729   5.704
 3680POPC   GL249682  17.502   3.414   5.806
 3680POPC   C1A49683  17.529   3.788   6.166
 3680POPC   D2A49684  17.584   3.889   6.608
 3680POPC   C3A49685  17.296   3.863   6.989
 3680POPC   C4A49686  17.084   3.787   7.390
 3680POPC   C1B49687  17.802   3.351   6.121
 3680POPC   C2B49688  17.612   3.350   6.531
 3680POPC   C3B49689  17.434   3.331   6.946
 3680POPC   C4B49690  17.689   3.309   7.325
 3681POPC   NC349691  44.103  11.512   5.643
 3681POPC   PO449692  43.801  10.998   5.305
 3681POPC   GL149693  43.778  11.121   5.735
 3681POPC   GL249694  43.529  11.393   5.725
 3681POPC   C1A49695  43.854  11.310   6.174
 3681POPC   D2A49696  44.027  11.271   6.558
 3681POPC   C3A49697  43.808  11.451   6.876
 3681POPC   C4A49698  43.815  11.323   7.287
 3681POPC   C1B49699  43.400  11.121   6.077
 3681POPC   C2B49700  43.504  11.188   6.522
 3681POPC   C3B49701  43.458  11.065   6.946
 3681POPC   C4B49702  43.364  11.155   7.406
 3682POPC   NC349703  12.236  11.274   5.043
 3682POPC   PO449704  12.595  11.005   5.523
 3682POPC   GL149705  12.298  11.279   5.835
 3682POPC   GL249706  12.050  11.512   5.767
 3682POPC   C1A49707  12.250  11.403   6.268
 3682POPC   D2A49708  12.439  11.054   6.522
 3682POPC   C3A49709  12.298  10.960   6.941
 3682POPC   C4A49710  12.185  11.119   7.352
 3682POPC   C1B49711  11.773  11.412   6.143
 3682POPC   C2B49712  11.846  11.585   6.566
 3682POPC   C3B49713  12.018  11.415   6.946
 3682POPC   C4B49714  11.995  11.602   7.350
 3683POPC   NC349715  43.457   3.806   5.584
 3683POPC   PO449716  43.917   4.362   5.326
 3683POPC   GL149717  44.092   4.372   5.732
 3683POPC   GL249718  43.983   4.034   5.809
 3683POPC   C1A49719  44.210   4.343   6.168
 3683POPC   D2A49720  44.065   4.281   6.590
 3683POPC   C3A49721  44.281   4.438   6.937
 3683POPC   C4A49722  44.043   4.697   7.187
 3683POPC   C1B49723  43.908   3.894   6.259
 3683POPC   C2B49724  43.831   3.868   6.738
 3683POPC   C3B49725  43.891   4.113   7.122
 3683POPC   C4B49726  43.664   4.015   7.567
 3684POPC   NC349727  15.644  40.583   5.551
 3684POPC   PO449728  16.115  40.783   5.198
 3684POPC   GL149729  16.030  40.912   5.696
 3684POPC   GL249730  15.722  40.995   5.864
 3684POPC   C1A49731  16.295  40.939   6.094
 3684POPC   D2A49732  16.332  40.868   6.548
 3684POPC   C3A49733  16.253  41.161   6.889
 3684POPC   C4A49734  16.015  40.933   7.212
 3684POPC   C1B49735  15.842  40.656   6.171
 3684POPC   C2B49736  15.629  40.485   6.501
 3684POPC   C3B49737  15.747  40.605   6.873
 3684POPC   C4B49738  15.712  40.405   7.252
 3685POPC   NC349739   5.482  20.362   5.489
 3685POPC   PO449740   5.168  19.725   5.341
 3685POPC   GL149741   5.178  19.976   5.699
 3685POPC   GL249742   4.887  19.890   5.878
 3685POPC   C1A49743   5.352  20.030   6.121
 3685POPC   D2A49744   5.156  19.803   6.464
 3685POPC   C3A49745   5.300  19.628   6.845
 3685POPC   C4A49746   5.261  19.755   7.240
 3685POPC   C1B49747   4.791  20.141   6.230
 3685POPC   C2B49748   4.725  20.004   6.650
 3685POPC   C3B49749   4.882  20.034   7.040
 3685POPC   C4B49750   4.778  20.301   7.336
 3686POPC   NC349751  27.721  11.763   5.679
 3686POPC   PO449752  27.775  11.228   5.282
 3686POPC   GL149753  27.544  11.225   5.701
 3686POPC   GL249754  27.307  10.948   5.705
 3686POPC   C1A49755  27.401  11.374   6.134
 3686POPC   D2A49756  27.271  11.428   6.569
 3686POPC   C3A49757  27.591  11.445   6.949
 3686POPC   C4A49758  27.920  11.661   7.237
 3686POPC   C1B49759  27.512  10.870   6.116
 3686POPC   C2B49760  27.645  11.071   6.520
 3686POPC   C3B49761  27.586  10.927   6.953
 3686POPC   C4B49762  27.342  10.892   7.341
 3687POPC   NC349763  37.719  34.764   5.454
 3687POPC   PO449764  37.612  34.107   5.351
 3687POPC   GL149765  37.712  34.241   5.819
 3687POPC   GL249766  37.748  34.612   5.928
 3687POPC   C1A49767  37.746  34.288   6.308
 3687POPC   D2A49768  37.771  34.631   6.637
 3687POPC   C3A49769  37.861  34.460   7.063
 3687POPC   C4A49770  37.547  34.245   7.348
 3687POPC   C1B49771  37.507  34.877   6.231
 3687POPC   C2B49772  37.301  34.956   6.639
 3687POPC   C3B49773  37.297  35.005   7.078
 3687POPC   C4B49774  37.580  34.806   7.307
 3688POPC   NC349775  10.071  38.839   5.058
 3688POPC   PO449776   9.587  38.369   5.314
 3688POPC   GL149777   9.705  38.518   5.752
 3688POPC   GL249778  10.000  38.307   5.804
 3688POPC   C1A49779   9.509  38.671   6.180
 3688POPC   D2A49780   9.579  38.815   6.635
 3688POPC   C3A49781   9.474  38.502   6.965
 3688POPC   C4A49782   9.677  38.323   7.328
 3688POPC   C1B49783  10.000  38.510   6.228
 3688POPC   C2B49784   9.934  38.429   6.673
 3688POPC   C3B49785  10.072  38.553   7.073
 3688POPC   C4B49786  10.180  38.347   7.450
 3689POPC   NC349787  24.077  20.593   5.295
 3689POPC   PO449788  23.423  20.815   5.486
 3689POPC   GL149789  23.577  20.483   5.748
 3689POPC   GL249790  23.356  20.164   5.762
 3689POPC   C1A49791  23.805  20.578   6.127
 3689POPC   D2A49792  23.851  20.898   6.450
 3689POPC   C3A49793  23.919  20.727   6.856
 3689POPC   C4A49794  23.941  20.894   7.265
 3689POPC   C1B49795  23.363  20.331   6.188
 3689POPC   C2B49796  23.374  20.148   6.581
 3689POPC   C3B49797  23.336  20.260   6.985
 3689POPC   C4B49798  23.621  20.497   7.205
 3690POPC   NC349799  11.203  13.223   5.502
 3690POPC   PO449800  10.760  13.600   5.779
 3690POPC   GL149801  11.212  13.478   5.970
 3690POPC   GL249802  11.569  13.620   5.999
 3690POPC   C1A49803  11.332  13.460   6.422
 3690POPC   D2A49804  11.230  13.346   6.829
 3690POPC   C3A49805  11.301  13.630   7.176
 3690POPC   C4A49806  11.566  13.911   7.476
 3690POPC   C1B49807  11.406  13.945   6.305
 3690POPC   C2B49808  11.335  13.950   6.780
 3690POPC   C3B49809  11.150  14.106   7.214
 3690POPC   C4B49810  11.131  14.062   7.701
 3691POPC   NC349811  18.919  25.289   5.278
 3691POPC   PO449812  19.030  25.949   5.301
 3691POPC   GL149813  19.126  25.594   5.678
 3691POPC   GL249814  18.942  25.270   5.779
 3691POPC   C1A49815  19.016  25.557   6.169
 3691POPC   D2A49816  19.222  25.238   6.466
 3691POPC   C3A49817  19.094  25.159   6.906
 3691POPC   C4A49818  19.282  25.237   7.308
 3691POPC   C1B49819  18.689  25.130   6.142
 3691POPC   C2B49820  18.769  24.934   6.536
 3691POPC   C3B49821  18.610  24.923   6.951
 3691POPC   C4B49822  18.837  24.952   7.324
 3692POPC   NC349823  36.694  29.591   5.517
 3692POPC   PO449824  37.103  29.045   5.581
 3692POPC   GL149825  36.965  29.335   5.874
 3692POPC   GL249826  37.142  29.650   5.749
 3692POPC   C1A49827  36.651  29.172   6.186
 3692POPC   D2A49828  36.601  28.884   6.538
 3692POPC   C3A49829  36.897  28.977   6.832
 3692POPC   C4A49830  36.733  29.227   7.131
 3692POPC   C1B49831  37.242  29.639   6.199
 3692POPC   C2B49832  37.160  29.409   6.573
 3692POPC   C3B49833  37.170  29.541   6.981
 3692POPC   C4B49834  36.941  29.634   7.327
 3693POPC   NC349835  44.213  13.285   5.576
 3693POPC   PO449836  43.806  12.752   5.406
 3693POPC   GL149837  43.795  12.848   5.809
 3693POPC   GL249838  44.163  12.850   5.835
 3693POPC   C1A49839  43.559  12.792   6.187
 3693POPC   D2A49840  43.765  12.741   6.584
 3693POPC   C3A49841  43.664  12.937   6.954
 3693POPC   C4A49842  43.869  12.818   7.349
 3693POPC   C1B49843  43.986  13.071   6.228
 3693POPC   C2B49844  44.111  13.189   6.658
 3693POPC   C3B49845  44.097  13.195   7.103
 3693POPC   C4B49846  44.166  13.302   7.554
 3694POPC   NC349847  41.421  33.145   5.372
 3694POPC   PO449848  41.883  32.717   5.490
 3694POPC   GL149849  41.568  32.875   5.764
 3694POPC   GL249850  41.839  33.091   5.860
 3694POPC   C1A49851  41.360  33.126   6.102
 3694POPC   D2A49852  41.202  33.254   6.529
 3694POPC   C3A49853  41.331  33.122   6.947
 3694POPC   C4A49854  41.446  33.189   7.388
 3694POPC   C1B49855  41.781  32.869   6.232
 3694POPC   C2B49856  41.698  33.075   6.586
 3694POPC   C3B49857  41.859  33.006   6.976
 3694POPC   C4B49858  41.875  32.673   7.281
 3695POPC   NC349859  18.981  26.415   5.357
 3695POPC   PO449860  18.947  27.130   5.398
 3695POPC   GL149861  19.034  26.853   5.762
 3695POPC   GL249862  19.271  27.085   5.849
 3695POPC   C1A49863  19.058  26.837   6.243
 3695POPC   D2A49864  18.903  26.720   6.664
 3695POPC   C3A49865  19.117  26.595   7.029
 3695POPC   C4A49866  19.084  26.848   7.363
 3695POPC   C1B49867  19.493  27.109   6.210
 3695POPC   C2B49868  19.293  27.123   6.592
 3695POPC   C3B49869  19.412  27.001   6.946
 3695POPC   C4B49870  19.580  26.925   7.308
 3696POPC   NC349871   3.944  11.604   5.306
 3696POPC   PO449872   4.400  12.068   5.467
 3696POPC   GL149873   4.352  12.259   5.845
 3696POPC   GL249874   4.414  11.912   5.961
 3696POPC   C1A49875   4.229  12.234   6.287
 3696POPC   D2A49876   4.261  12.016   6.640
 3696POPC   C3A49877   4.420  12.205   7.001
 3696POPC   C4A49878   4.341  12.412   7.374
 3696POPC   C1B49879   4.038  11.748   6.165
 3696POPC   C2B49880   3.872  11.697   6.574
 3696POPC   C3B49881   4.112  11.658   6.977
 3696POPC   C4B49882   4.146  11.910   7.351
 3697POPC   NC349883  16.703  23.936   5.388
 3697POPC   PO449884  17.044  24.555   5.454
 3697POPC   GL149885  16.752  24.334   5.722
 3697POPC   GL249886  16.443  24.509   5.766
 3697POPC   C1A49887  16.761  24.182   6.142
 3697POPC   D2A49888  16.612  24.339   6.508
 3697POPC   C3A49889  16.792  24.208   6.872
 3697POPC   C4A49890  16.708  24.305   7.284
 3697POPC   C1B49891  16.553  24.723   6.144
 3697POPC   C2B49892  16.500  24.820   6.583
 3697POPC   C3B49893  16.419  24.586   6.941
 3697POPC   C4B49894  16.488  24.763   7.336
 3698POPC   NC349895  22.484  40.140   5.450
 3698POPC   PO449896  21.821  39.925   5.306
 3698POPC   GL149897  22.014  40.167   5.691
 3698POPC   GL249898  22.311  40.166   5.919
 3698POPC   C1A49899  21.869  40.216   6.128
 3698POPC   D2A49900  22.105  39.982   6.440
 3698POPC   C3A49901  21.974  40.063   6.841
 3698POPC   C4A49902  21.832  39.964   7.242
 3698POPC   C1B49903  22.330  40.462   6.274
 3698POPC   C2B49904  22.480  40.380   6.663
 3698POPC   C3B49905  22.500  40.002   6.806
 3698POPC   C4B49906  22.343  40.044   7.201
 3699POPC   NC349907  36.180  16.729   5.448
 3699POPC   PO449908  35.784  17.222   5.492
 3699POPC   GL149909  36.108  16.956   5.877
 3699POPC   GL249910  36.183  16.516   5.914
 3699POPC   C1A49911  36.093  16.791   6.313
 3699POPC   D2A49912  36.072  16.966   6.704
 3699POPC   C3A49913  36.079  16.745   7.082
 3699POPC   C4A49914  36.066  16.367   7.257
 3699POPC   C1B49915  36.505  16.457   6.288
 3699POPC   C2B49916  36.586  16.623   6.751
 3699POPC   C3B49917  36.587  16.485   7.222
 3699POPC   C4B49918  36.451  16.441   7.706
 3700POPC   NC349919  16.588  32.174   5.316
 3700POPC   PO449920  17.139  32.478   5.529
 3700POPC   GL149921  16.848  32.268   5.780
 3700POPC   GL249922  16.607  32.524   5.924
 3700POPC   C1A49923  16.827  32.162   6.224
 3700POPC   D2A49924  16.792  32.546   6.469
 3700POPC   C3A49925  16.705  32.400   6.857
 3700POPC   C4A49926  16.920  32.091   7.068
 3700POPC   C1B49927  16.345  32.377   6.274
 3700POPC   C2B49928  16.277  32.176   6.697
 3700POPC   C3B49929  16.332  32.214   7.167
 3700POPC   C4B49930  16.330  32.410   7.601
 3701POPC   NC349931  24.488  13.131   5.372
 3701POPC   PO449932  24.340  12.425   5.467
 3701POPC   GL149933  24.424  12.636   5.854
 3701POPC   GL249934  24.739  12.814   5.852
 3701POPC   C1A49935  24.171  12.773   6.198
 3701POPC   D2A49936  24.128  12.992   6.558
 3701POPC   C3A49937  24.254  12.777   6.889
 3701POPC   C4A49938  24.438  12.719   7.255
 3701POPC   C1B49939  24.632  12.989   6.291
 3701POPC   C2B49940  24.545  13.217   6.702
 3701POPC   C3B49941  24.539  13.204   7.130
 3701POPC   C4B49942  24.935  13.316   7.262
 3702POPC   NC349943  40.411  26.191   5.362
 3702POPC   PO449944  40.829  25.734   5.317
 3702POPC   GL149945  40.765  25.982   5.705
 3702POPC   GL249946  40.958  25.776   5.931
 3702POPC   C1A49947  40.541  26.185   6.072
 3702POPC   D2A49948  40.613  26.077   6.520
 3702POPC   C3A49949  40.422  26.251   6.874
 3702POPC   C4A49950  40.500  26.331   7.289
 3702POPC   C1B49951  41.051  26.209   6.108
 3702POPC   C2B49952  41.006  26.414   6.523
 3702POPC   C3B49953  40.959  26.192   6.899
 3702POPC   C4B49954  40.719  25.864   7.101
 3703POPC   NC349955  27.748   3.506   5.465
 3703POPC   PO449956  27.238   3.896   5.638
 3703POPC   GL149957  27.597   3.815   5.962
 3703POPC   GL249958  27.744   3.498   5.981
 3703POPC   C1A49959  27.645   3.772   6.434
 3703POPC   D2A49960  27.780   3.664   6.859
 3703POPC   C3A49961  27.550   3.787   7.232
 3703POPC   C4A49962  27.621   3.801   7.696
 3703POPC   C1B49963  27.498   3.306   6.309
 3703POPC   C2B49964  27.351   3.421   6.711
 3703POPC   C3B49965  27.520   3.264   7.070
 3703POPC   C4B49966  27.688   3.322   7.458
 3704POPC   NC349967  11.039  40.852   5.546
 3704POPC   PO449968  11.649  41.068   5.389
 3704POPC   GL149969  11.512  40.879   5.819
 3704POPC   GL249970  11.638  40.556   5.920
 3704POPC   C1A49971  11.235  40.755   6.205
 3704POPC   D2A49972  11.057  40.971   6.614
 3704POPC   C3A49973  11.277  41.020   7.043
 3704POPC   C4A49974  11.067  40.933   7.452
 3704POPC   C1B49975  11.581  40.328   6.261
 3704POPC   C2B49976  11.387  40.497   6.622
 3704POPC   C3B49977  11.140  40.553   6.950
 3704POPC   C4B49978  11.431  40.578   7.318
 3705POPC   NC349979  36.305  37.213   5.313
 3705POPC   PO449980  35.772  36.763   5.368
 3705POPC   GL149981  36.089  36.895   5.728
 3705POPC   GL249982  36.407  37.090   5.781
 3705POPC   C1A49983  36.213  36.731   6.157
 3705POPC   D2A49984  36.223  36.499   6.569
 3705POPC   C3A49985  35.999  36.628   6.930
 3705POPC   C4A49986  36.068  36.975   7.183
 3705POPC   C1B49987  36.572  37.084   6.195
 3705POPC   C2B49988  36.425  36.960   6.617
 3705POPC   C3B49989  36.493  37.171   7.004
 3705POPC   C4B49990  36.502  37.039   7.448
 3706POPC   NC349991  34.263   6.044   5.332
 3706POPC   PO449992  33.626   5.854   5.426
 3706POPC   GL149993  33.899   5.819   5.806
 3706POPC   GL249994  34.009   6.152   5.754
 3706POPC   C1A49995  33.797   5.853   6.286
 3706POPC   D2A49996  33.834   5.891   6.745
 3706POPC   C3A49997  33.531   5.743   7.053
 3706POPC   C4A49998  33.561   5.579   7.483
 3706POPC   C1B49999  34.157   6.187   6.158
 3706POPC   C2B50000  34.188   6.319   6.590
 3706POPC   C3B50001  34.218   6.084   7.000
 3706POPC   C4B50002  33.984   5.806   7.277
 3707POPC   NC350003   6.889   8.656   5.378
 3707POPC   PO450004   6.301   8.991   5.286
 3707POPC   GL150005   6.607   9.034   5.577
 3707POPC   GL250006   6.505   8.739   5.755
 3707POPC   C1A50007   6.732   9.220   5.980
 3707POPC   D2A50008   6.715   9.150   6.455
 3707POPC   C3A50009   6.697   9.324   6.868
 3707POPC   C4A50010   6.554   9.157   7.272
 3707POPC   C1B50011   6.733   8.733   6.150
 3707POPC   C2B50012   6.632   8.655   6.583
 3707POPC   C3B50013   6.784   8.786   6.992
 3707POPC   C4B50014   6.615   8.676   7.393
 3708POPC   NC350015  28.503   8.236   5.219
 3708POPC   PO450016  27.951   8.177   5.485
 3708POPC   GL150017  28.318   8.315   5.696
 3708POPC   GL250018  28.109   8.359   5.938
 3708POPC   C1A50019  28.578   8.429   6.084
 3708POPC   D2A50020  28.702   8.220   6.471
 3708POPC   C3A50021  28.453   8.166   6.846
 3708POPC   C4A50022  28.600   8.159   7.272
 3708POPC   C1B50023  28.180   8.197   6.358
 3708POPC   C2B50024  27.979   8.008   6.680
 3708POPC   C3B50025  28.031   8.042   7.121
 3708POPC   C4B50026  28.117   8.379   7.391
 3709POPC   NC350027  29.197  43.291   5.396
 3709POPC   PO450028  29.357  44.040   5.369
 3709POPC   GL150029  29.233  44.003   5.818
 3709POPC   GL250030  28.872  43.931   5.869
 3709POPC   C1A50031  29.353  43.917   6.248
 3709POPC   D2A50032  29.090  44.083   6.587
 3709POPC   C3A50033  29.144  43.908   6.992
 3709POPC   C4A50034  29.412  43.889   7.326
 3709POPC   C1B50035  28.912  43.682   6.275
 3709POPC   C2B50036  28.888  43.545   6.705
 3709POPC   C3B50037  28.836  43.533   7.155
 3709POPC   C4B50038  28.940  43.754   7.494
 3710POPC   NC350039  34.066   7.678   5.400
 3710POPC   PO450040  34.565   7.138   5.468
 3710POPC   GL150041  34.471   7.550   5.702
 3710POPC   GL250042  34.670   7.885   5.705
 3710POPC   C1A50043  34.413   7.481   6.115
 3710POPC   D2A50044  34.681   7.290   6.404
 3710POPC   C3A50045  34.608   7.362   6.834
 3710POPC   C4A50046  34.652   7.202   7.228
 3710POPC   C1B50047  34.562   7.986   6.147
 3710POPC   C2B50048  34.424   7.774   6.529
 3710POPC   C3B50049  34.381   7.814   6.958
 3710POPC   C4B50050  34.580   7.726   7.333
 3711POPC   NC350051  18.565   8.082   5.357
 3711POPC   PO450052  18.036   8.413   5.410
 3711POPC   GL150053  18.281   8.326   5.777
 3711POPC   GL250054  18.373   7.973   5.867
 3711POPC   C1A50055  18.292   8.343   6.229
 3711POPC   D2A50056  18.423   8.162   6.607
 3711POPC   C3A50057  18.242   8.324   7.004
 3711POPC   C4A50058  18.210   8.718   7.228
 3711POPC   C1B50059  18.014   7.930   6.191
 3711POPC   C2B50060  18.039   7.820   6.631
 3711POPC   C3B50061  18.311   7.813   6.987
 3711POPC   C4B50062  18.192   7.901   7.393
 3712POPC   NC350063  41.218  25.969   5.457
 3712POPC   PO450064  41.890  25.772   5.260
 3712POPC   GL150065  41.696  25.889   5.674
 3712POPC   GL250066  41.888  26.195   5.688
 3712POPC   C1A50067  41.460  25.879   6.099
 3712POPC   D2A50068  41.177  25.848   6.477
 3712POPC   C3A50069  41.373  25.847   6.893
 3712POPC   C4A50070  41.407  26.192   7.163
 3712POPC   C1B50071  41.865  26.184   6.118
 3712POPC   C2B50072  41.715  26.003   6.510
 3712POPC   C3B50073  41.815  26.139   6.889
 3712POPC   C4B50074  41.843  25.927   7.242
 3713POPC   NC350075   6.890  40.327   5.529
 3713POPC   PO450076   6.573  39.793   5.392
 3713POPC   GL150077   6.757  39.914   5.795
 3713POPC   GL250078   7.109  39.811   5.723
 3713POPC   C1A50079   6.757  40.203   6.172
 3713POPC   D2A50080   6.983  40.294   6.563
 3713POPC   C3A50081   6.751  40.329   6.963
 3713POPC   C4A50082   6.516  40.123   7.317
 3713POPC   C1B50083   7.021  39.607   6.111
 3713POPC   C2B50084   6.774  39.790   6.483
 3713POPC   C3B50085   6.593  39.794   6.889
 3713POPC   C4B50086   6.818  39.724   7.263
 3714POPC   NC350087  10.748  12.411   5.219
 3714POPC   PO450088  10.220  11.983   5.535
 3714POPC   GL150089  10.167  11.751   5.915
 3714POPC   GL250090  10.134  11.387   5.989
 3714POPC   C1A50091  10.304  11.948   6.274
 3714POPC   D2A50092  10.634  12.001   6.540
 3714POPC   C3A50093  10.459  12.237   6.869
 3714POPC   C4A50094  10.502  12.167   7.288
 3714POPC   C1B50095   9.996  11.552   6.389
 3714POPC   C2B50096  10.063  11.867   6.724
 3714POPC   C3B50097  10.086  11.904   7.170
 3714POPC   C4B50098  10.240  11.834   7.611
 3715POPC   NC350099  18.411  10.730   5.469
 3715POPC   PO450100  18.095  11.293   5.320
 3715POPC   GL150101  18.175  11.434   5.794
 3715POPC   GL250102  18.437  11.685   5.895
 3715POPC   C1A50103  18.192  11.360   6.255
 3715POPC   D2A50104  18.324  11.036   6.562
 3715POPC   C3A50105  18.124  11.030   6.977
 3715POPC   C4A50106  18.112  11.125   7.422
 3715POPC   C1B50107  18.504  11.778   6.313
 3715POPC   C2B50108  18.415  11.625   6.720
 3715POPC   C3B50109  18.280  11.525   7.136
 3715POPC   C4B50110  18.372  11.504   7.644
 3716POPC   NC350111  14.968   7.297   5.238
 3716POPC   PO450112  15.459   7.609   5.538
 3716POPC   GL150113  15.209   7.251   5.802
 3716POPC   GL250114  14.821   7.261   5.780
 3716POPC   C1A50115  15.285   7.041   6.246
 3716POPC   D2A50116  15.376   7.308   6.636
 3716POPC   C3A50117  15.506   7.190   7.062
 3716POPC   C4A50118  15.338   7.350   7.463
 3716POPC   C1B50119  14.860   7.317   6.252
 3716POPC   C2B50120  14.869   7.230   6.718
 3716POPC   C3B50121  14.905   7.551   7.069
 3716POPC   C4B50122  14.918   7.654   7.533
 3717POPC   NC350123  23.368  38.160   5.549
 3717POPC   PO450124  23.922  38.632   5.445
 3717POPC   GL150125  23.766  38.444   5.784
 3717POPC   GL250126  23.733  38.747   5.981
 3717POPC   C1A50127  23.602  38.291   6.178
 3717POPC   D2A50128  23.435  38.190   6.611
 3717POPC   C3A50129  23.573  38.461   6.952
 3717POPC   C4A50130  23.801  38.365   7.310
 3717POPC   C1B50131  23.962  38.809   6.374
 3717POPC   C2B50132  24.051  38.795   6.829
 3717POPC   C3B50133  24.218  38.651   7.227
 3717POPC   C4B50134  24.006  38.721   7.632
 3718POPC   NC350135   0.085   3.458   5.399
 3718POPC   PO450136  44.361   3.688   5.277
 3718POPC   GL150137  44.648   3.551   5.683
 3718POPC   GL250138  44.996   3.630   5.871
 3718POPC   C1A50139  44.694   3.306   6.107
 3718POPC   D2A50140  44.556   3.405   6.535
 3718POPC   C3A50141  44.743   3.309   6.919
 3718POPC   C4A50142  44.575   3.569   7.257
 3718POPC   C1B50143  44.862   3.756   6.320
 3718POPC   C2B50144  44.853   3.777   6.805
 3718POPC   C3B50145   0.051   3.677   7.234
 3718POPC   C4B50146  44.984   3.618   7.683
 3719POPC   NC350147  26.985  37.284   5.107
 3719POPC   PO450148  26.558  36.842   5.274
 3719POPC   GL150149  26.682  36.969   5.745
 3719POPC   GL250150  26.350  37.043   5.882
 3719POPC   C1A50151  26.903  36.776   6.156
 3719POPC   D2A50152  26.970  36.558   6.565
 3719POPC   C3A50153  27.015  36.748   7.004
 3719POPC   C4A50154  27.154  37.020   7.350
 3719POPC   C1B50155  26.441  36.600   6.118
 3719POPC   C2B50156  26.468  36.454   6.579
 3719POPC   C3B50157  26.538  36.565   7.023
 3719POPC   C4B50158  26.643  36.929   7.311
 3720POPC   NC350159   0.557  10.397   5.081
 3720POPC   PO450160   0.601  11.016   5.307
 3720POPC   GL150161   0.455  10.810   5.747
 3720POPC   GL250162   0.219  10.501   5.792
 3720POPC   C1A50163   0.510  10.744   6.224
 3720POPC   D2A50164   0.438  10.912   6.680
 3720POPC   C3A50165   0.352  10.612   7.047
 3720POPC   C4A50166   0.538  10.258   7.205
 3720POPC   C1B50167   0.090  10.397   6.232
 3720POPC   C2B50168   0.184  10.297   6.672
 3720POPC   C3B50169   0.002  10.168   7.103
 3720POPC   C4B50170   0.192  10.155   7.544
 3721POPC   NC350171  19.241   8.596   5.348
 3721POPC   PO450172  18.968   7.988   5.154
 3721POPC   GL150173  19.042   8.116   5.612
 3721POPC   GL250174  18.835   8.434   5.628
 3721POPC   C1A50175  19.227   8.148   6.066
 3721POPC   D2A50176  19.221   7.968   6.490
 3721POPC   C3A50177  19.381   8.107   6.879
 3721POPC   C4A50178  19.209   8.346   7.226
 3721POPC   C1B50179  18.752   8.322   6.035
 3721POPC   C2B50180  18.890   8.358   6.464
 3721POPC   C3B50181  18.854   8.174   6.885
 3721POPC   C4B50182  18.700   8.485   7.174
 3722POPC   NC350183   1.919  17.767   4.981
 3722POPC   PO450184   2.107  17.314   5.363
 3722POPC   GL150185   2.118  17.251   5.860
 3722POPC   GL250186   1.849  17.485   5.993
 3722POPC   C1A50187   2.148  17.323   6.370
 3722POPC   D2A50188   2.370  17.558   6.739
 3722POPC   C3A50189   2.104  17.499   7.124
 3722POPC   C4A50190   1.957  17.547   7.577
 3722POPC   C1B50191   1.998  17.808   6.334
 3722POPC   C2B50192   2.053  17.969   6.780
 3722POPC   C3B50193   1.867  17.952   7.208
 3722POPC   C4B50194   1.508  17.715   7.406
 3723POPC   NC350195   6.411   1.797   5.301
 3723POPC   PO450196   6.971   2.187   5.295
 3723POPC   GL150197   6.748   2.028   5.674
 3723POPC   GL250198   6.904   2.326   5.819
 3723POPC   C1A50199   6.714   1.941   6.149
 3723POPC   D2A50200   6.498   1.986   6.578
 3723POPC   C3A50201   6.631   1.772   6.973
 3723POPC   C4A50202   6.339   1.865   7.290
 3723POPC   C1B50203   7.132   2.300   6.186
 3723POPC   C2B50204   6.994   2.141   6.557
 3723POPC   C3B50205   6.844   2.227   6.917
 3723POPC   C4B50206   6.806   2.121   7.325
 3724POPC   NC350207  20.487  25.900   5.341
 3724POPC   PO450208  20.387  26.515   5.540
 3724POPC   GL150209  20.587  26.238   5.869
 3724POPC   GL250210  20.612  25.878   5.830
 3724POPC   C1A50211  20.516  26.158   6.312
 3724POPC   D2A50212  20.383  26.380   6.670
 3724POPC   C3A50213  20.591  26.264   7.071
 3724POPC   C4A50214  20.471  26.375   7.544
 3724POPC   C1B50215  20.945  25.971   6.144
 3724POPC   C2B50216  21.007  26.074   6.589
 3724POPC   C3B50217  20.922  25.827   6.985
 3724POPC   C4B50218  20.531  25.715   7.206
 3725POPC   NC350219   4.264  34.540   5.328
 3725POPC   PO450220   4.902  34.625   5.504
 3725POPC   GL150221   4.547  34.384   5.748
 3725POPC   GL250222   4.326  34.656   5.837
 3725POPC   C1A50223   4.232  34.192   6.097
 3725POPC   D2A50224   4.020  34.290   6.518
 3725POPC   C3A50225   4.268  34.405   6.868
 3725POPC   C4A50226   4.413  34.554   7.257
 3725POPC   C1B50227   4.293  34.668   6.302
 3725POPC   C2B50228   3.974  34.804   6.604
 3725POPC   C3B50229   3.880  34.723   7.029
 3725POPC   C4B50230   4.040  34.912   7.412
 3726POPC   NC350231  20.711  10.358   5.427
 3726POPC   PO450232  20.433  10.960   5.429
 3726POPC   GL150233  20.419  10.736   5.797
 3726POPC   GL250234  20.729  10.819   5.872
 3726POPC   C1A50235  20.358  10.714   6.264
 3726POPC   D2A50236  20.147  10.706   6.669
 3726POPC   C3A50237  20.387  10.653   7.052
 3726POPC   C4A50238  20.396  10.842   7.468
 3726POPC   C1B50239  20.901  10.734   6.266
 3726POPC   C2B50240  20.711  10.565   6.632
 3726POPC   C3B50241  20.866  10.429   7.012
 3726POPC   C4B50242  20.753  10.461   7.433
 3727POPC   NC350243  37.785  44.098   5.574
 3727POPC   PO450244  37.101  43.853   5.605
 3727POPC   GL150245  37.356  43.735   5.953
 3727POPC   GL250246  37.697  43.858   6.015
 3727POPC   C1A50247  37.364  43.791   6.405
 3727POPC   D2A50248  37.434  44.109   6.740
 3727POPC   C3A50249  37.335  43.917   7.105
 3727POPC   C4A50250  37.671  43.664   7.248
 3727POPC   C1B50251  37.624  44.271   6.269
 3727POPC   C2B50252  37.890  44.434   6.642
 3727POPC   C3B50253  38.155  44.237   6.979
 3727POPC   C4B50254  38.139  43.867   7.274
 3728POPC   NC350255  34.894  21.105   5.430
 3728POPC   PO450256  34.631  21.711   5.322
 3728POPC   GL150257  34.443  21.466   5.675
 3728POPC   GL250258  34.715  21.527   5.890
 3728POPC   C1A50259  34.356  21.204   6.074
 3728POPC   D2A50260  34.686  21.186   6.455
 3728POPC   C3A50261  34.660  21.388   6.875
 3728POPC   C4A50262  34.913  21.367   7.257
 3728POPC   C1B50263  34.346  21.703   6.144
 3728POPC   C2B50264  34.424  21.813   6.573
 3728POPC   C3B50265  34.338  21.793   6.994
 3728POPC   C4B50266  34.586  21.753   7.318
 3729POPC   NC350267  38.241  25.571   5.369
 3729POPC   PO450268  38.516  25.093   5.373
 3729POPC   GL150269  38.485  25.320   5.742
 3729POPC   GL250270  38.109  25.324   5.800
 3729POPC   C1A50271  38.490  25.397   6.178
 3729POPC   D2A50272  38.670  25.603   6.535
 3729POPC   C3A50273  38.547  25.385   6.917
 3729POPC   C4A50274  38.784  25.206   7.248
 3729POPC   C1B50275  38.015  25.538   6.209
 3729POPC   C2B50276  38.083  25.725   6.624
 3729POPC   C3B50277  38.044  25.525   7.047
 3729POPC   C4B50278  38.182  25.072   7.186
 3730POPC   NC350279  28.647  10.347   5.387
 3730POPC   PO450280  29.255  10.169   5.365
 3730POPC   GL150281  29.187  10.314   5.801
 3730POPC   GL250282  28.871  10.503   5.863
 3730POPC   C1A50283  29.382  10.228   6.213
 3730POPC   D2A50284  29.446  10.443   6.631
 3730POPC   C3A50285  29.368  10.279   7.072
 3730POPC   C4A50286  29.324  10.454   7.528
 3730POPC   C1B50287  28.981  10.502   6.331
 3730POPC   C2B50288  28.960  10.395   6.763
 3730POPC   C3B50289  29.080  10.715   7.062
 3730POPC   C4B50290  28.762  11.049   7.163
 3731POPC   NC350291  24.127  39.663   5.203
 3731POPC   PO450292  23.727  40.146   5.359
 3731POPC   GL150293  23.770  40.037   5.796
 3731POPC   GL250294  23.480  40.258   5.811
 3731POPC   C1A50295  23.874  39.817   6.197
 3731POPC   D2A50296  23.877  40.016   6.614
 3731POPC   C3A50297  23.800  39.697   6.956
 3731POPC   C4A50298  23.640  39.762   7.374
 3731POPC   C1B50299  23.486  40.155   6.219
 3731POPC   C2B50300  23.425  40.303   6.594
 3731POPC   C3B50301  23.509  40.121   6.936
 3731POPC   C4B50302  23.898  40.149   7.155
 3732POPC   NC350303  40.987  20.373   5.559
 3732POPC   PO450304  40.435  20.726   5.306
 3732POPC   GL150305  40.596  20.683   5.778
 3732POPC   GL250306  40.889  20.919   5.767
 3732POPC   C1A50307  40.582  20.412   6.196
 3732POPC   D2A50308  40.573  20.152   6.606
 3732POPC   C3A50309  40.620  20.318   7.016
 3732POPC   C4A50310  40.970  20.472   7.286
 3732POPC   C1B50311  40.847  20.857   6.231
 3732POPC   C2B50312  40.774  20.637   6.632
 3732POPC   C3B50313  40.707  20.812   7.046
 3732POPC   C4B50314  40.889  21.121   7.230
 3733POPC   NC350315  18.549  15.509   5.434
 3733POPC   PO450316  18.234  14.897   5.550
 3733POPC   GL150317  18.462  15.150   5.794
 3733POPC   GL250318  18.154  15.382   5.796
 3733POPC   C1A50319  18.530  15.443   6.119
 3733POPC   D2A50320  18.275  15.405   6.476
 3733POPC   C3A50321  18.412  15.253   6.854
 3733POPC   C4A50322  18.458  15.354   7.250
 3733POPC   C1B50323  17.996  15.107   6.152
 3733POPC   C2B50324  18.014  14.988   6.622
 3733POPC   C3B50325  17.919  15.287   6.971
 3733POPC   C4B50326  17.984  15.179   7.380
 3734POPC   NC350327  43.471   1.428   5.695
 3734POPC   PO450328  43.899   0.927   5.381
 3734POPC   GL150329  43.874   1.115   5.807
 3734POPC   GL250330  44.007   1.458   5.822
 3734POPC   C1A50331  43.611   1.003   6.196
 3734POPC   D2A50332  43.515   0.837   6.620
 3734POPC   C3A50333  43.703   0.985   7.030
 3734POPC   C4A50334  43.859   0.822   7.437
 3734POPC   C1B50335  43.939   1.415   6.269
 3734POPC   C2B50336  43.913   1.575   6.702
 3734POPC   C3B50337  43.967   1.436   7.130
 3734POPC   C4B50338  44.203   1.224   7.408
 3735POPC   NC350339  44.895  33.888   5.649
 3735POPC   PO450340  44.359  34.280   5.778
 3735POPC   GL150341  44.559  34.031   6.004
 3735POPC   GL250342  44.534  33.690   5.960
 3735POPC   C1A50343  44.659  34.081   6.398
 3735POPC   D2A50344  44.524  34.217   6.763
 3735POPC   C3A50345  44.886  34.118   6.943
 3735POPC   C4A50346  44.982  33.809   7.213
 3735POPC   C1B50347  44.744  33.590   6.313
 3735POPC   C2B50348  44.807  33.656   6.728
 3735POPC   C3B50349  44.654  33.459   7.070
 3735POPC   C4B50350  44.840  33.346   7.456
 3736POPC   NC350351  24.761  37.362   5.390
 3736POPC   PO450352  24.160  37.704   5.320
 3736POPC   GL150353  24.469  37.673   5.702
 3736POPC   GL250354  24.483  37.992   5.844
 3736POPC   C1A50355  24.700  37.573   6.118
 3736POPC   D2A50356  24.786  37.418   6.567
 3736POPC   C3A50357  24.698  37.480   7.023
 3736POPC   C4A50358  24.939  37.546   7.405
 3736POPC   C1B50359  24.381  37.936   6.277
 3736POPC   C2B50360  24.395  37.860   6.741
 3736POPC   C3B50361  24.194  37.682   7.146
 3736POPC   C4B50362  24.237  37.747   7.607
 3737POPC   NC350363  22.547  27.652   5.414
 3737POPC   PO450364  23.154  27.692   5.280
 3737POPC   GL150365  22.930  27.726   5.730
 3737POPC   GL250366  22.737  27.390   5.824
 3737POPC   C1A50367  23.007  27.707   6.181
 3737POPC   D2A50368  23.146  27.464   6.533
 3737POPC   C3A50369  23.109  27.642   6.939
 3737POPC   C4A50370  23.060  27.332   7.233
 3737POPC   C1B50371  22.528  27.507   6.238
 3737POPC   C2B50372  22.500  27.672   6.671
 3737POPC   C3B50373  22.610  27.556   7.113
 3737POPC   C4B50374  22.678  27.703   7.554
 3738POPC   NC350375   4.988  10.558   5.368
 3738POPC   PO450376   4.581  11.094   5.598
 3738POPC   GL150377   4.978  10.815   5.829
 3738POPC   GL250378   5.172  10.462   5.846
 3738POPC   C1A50379   5.152  10.789   6.249
 3738POPC   D2A50380   5.218  10.529   6.601
 3738POPC   C3A50381   5.394  10.726   6.916
 3738POPC   C4A50382   5.225  10.732   7.314
 3738POPC   C1B50383   5.310  10.191   6.218
 3738POPC   C2B50384   5.377  10.036   6.665
 3738POPC   C3B50385   5.201  10.235   7.074
 3738POPC   C4B50386   5.089   9.980   7.469
 3739POPC   NC350387  40.520   8.430   5.448
 3739POPC   PO450388  40.451   7.880   5.437
 3739POPC   GL150389  40.700   8.097   5.813
 3739POPC   GL250390  40.859   8.463   5.826
 3739POPC   C1A50391  40.755   8.215   6.279
 3739POPC   D2A50392  40.551   8.215   6.700
 3739POPC   C3A50393  40.574   8.073   7.156
 3739POPC   C4A50394  40.574   7.913   7.604
 3739POPC   C1B50395  40.885   8.739   6.200
 3739POPC   C2B50396  40.792   8.703   6.641
 3739POPC   C3B50397  40.823   8.510   7.053
 3739POPC   C4B50398  40.816   8.413   7.501
 3740POPC   NC350399  24.422  31.079   5.442
 3740POPC   PO450400  24.751  31.699   5.503
 3740POPC   GL150401  24.438  31.490   5.799
 3740POPC   GL250402  24.555  31.166   5.924
 3740POPC   C1A50403  24.376  31.598   6.248
 3740POPC   D2A50404  24.705  31.726   6.537
 3740POPC   C3A50405  24.765  31.680   6.964
 3740POPC   C4A50406  24.425  31.622   7.239
 3740POPC   C1B50407  24.594  31.157   6.359
 3740POPC   C2B50408  24.570  31.221   6.788
 3740POPC   C3B50409  24.635  31.172   7.217
 3740POPC   C4B50410  24.817  31.061   7.591
 3741POPC   NC350411  11.867   2.890   5.409
 3741POPC   PO450412  12.399   3.003   5.565
 3741POPC   GL150413  12.091   2.927   5.899
 3741POPC   GL250414  11.755   2.723   5.884
 3741POPC   C1A50415  12.226   3.040   6.322
 3741POPC   D2A50416  12.238   2.982   6.747
 3741POPC   C3A50417  11.848   2.808   6.807
 3741POPC   C4A50418  11.752   2.793   7.208
 3741POPC   C1B50419  11.919   2.608   6.297
 3741POPC   C2B50420  12.180   2.437   6.645
 3741POPC   C3B50421  12.190   2.521   7.098
 3741POPC   C4B50422  12.268   2.444   7.555
 3742POPC   NC350423  34.323   9.883   5.514
 3742POPC   PO450424  34.854   9.485   5.233
 3742POPC   GL150425  34.544   9.438   5.712
 3742POPC   GL250426  34.518   9.767   5.964
 3742POPC   C1A50427  34.290   9.374   6.158
 3742POPC   D2A50428  34.456   9.350   6.622
 3742POPC   C3A50429  34.306   9.581   7.044
 3742POPC   C4A50430  34.135   9.993   7.252
 3742POPC   C1B50431  34.755   9.654   6.330
 3742POPC   C2B50432  34.691   9.816   6.714
 3742POPC   C3B50433  34.615   9.996   7.091
 3742POPC   C4B50434  34.732   9.672   7.354
 3743POPC   NC350435  12.308  18.926   5.647
 3743POPC   PO450436  12.878  19.186   5.276
 3743POPC   GL150437  12.808  19.021   5.708
 3743POPC   GL250438  12.740  19.323   5.835
 3743POPC   C1A50439  12.663  18.896   6.176
 3743POPC   D2A50440  12.482  18.733   6.574
 3743POPC   C3A50441  12.720  18.901   6.902
 3743POPC   C4A50442  13.013  19.065   7.186
 3743POPC   C1B50443  13.067  19.196   6.197
 3743POPC   C2B50444  13.229  19.261   6.647
 3743POPC   C3B50445  13.301  19.478   7.060
 3743POPC   C4B50446  13.302  19.290   7.533
 3744POPC   NC350447  39.885   3.517   5.418
 3744POPC   PO450448  40.248   3.093   5.418
 3744POPC   GL150449  40.090   3.239   5.847
 3744POPC   GL250450  39.968   3.589   5.916
 3744POPC   C1A50451  40.160   3.312   6.316
 3744POPC   D2A50452  39.944   3.370   6.743
 3744POPC   C3A50453  40.152   3.513   7.121
 3744POPC   C4A50454  40.370   3.444   7.523
 3744POPC   C1B50455  39.712   3.563   6.300
 3744POPC   C2B50456  39.617   3.796   6.682
 3744POPC   C3B50457  39.661   3.718   7.130
 3744POPC   C4B50458  39.512   3.814   7.554
 3745POPC   NC350459  42.488  44.388   4.948
 3745POPC   PO450460  42.403  43.893   5.372
 3745POPC   GL150461  42.385  43.832   5.776
 3745POPC   GL250462  42.029  43.855   5.778
 3745POPC   C1A50463  42.499  43.638   6.194
 3745POPC   D2A50464  42.701  43.528   6.594
 3745POPC   C3A50465  42.584  43.754   6.935
 3745POPC   C4A50466  42.368  43.741   7.307
 3745POPC   C1B50467  42.195  44.066   6.177
 3745POPC   C2B50468  42.329  44.010   6.590
 3745POPC   C3B50469  42.277  44.183   7.015
 3745POPC   C4B50470  42.130  44.153   7.451
 3746POPC   NC350471   5.735  40.894   5.365
 3746POPC   PO450472   6.180  40.464   5.518
 3746POPC   GL150473   6.040  40.590   5.901
 3746POPC   GL250474   5.918  40.924   5.858
 3746POPC   C1A50475   6.140  40.518   6.325
 3746POPC   D2A50476   6.102  40.693   6.736
 3746POPC   C3A50477   6.236  40.507   7.105
 3746POPC   C4A50478   6.311  40.517   7.557
 3746POPC   C1B50479   5.805  40.905   6.298
 3746POPC   C2B50480   5.598  40.712   6.672
 3746POPC   C3B50481   5.730  40.701   7.113
 3746POPC   C4B50482   5.639  41.076   7.374
 3747POPC   NC350483   0.678   7.367   5.379
 3747POPC   PO450484   0.231   7.833   5.343
 3747POPC   GL150485   0.213   7.565   5.735
 3747POPC   GL250486   0.402   7.227   5.789
 3747POPC   C1A50487   0.175   7.443   6.189
 3747POPC   D2A50488   0.378   7.227   6.544
 3747POPC   C3A50489   0.322   7.347   6.978
 3747POPC   C4A50490   0.348   7.192   7.392
 3747POPC   C1B50491   0.685   7.448   6.111
 3747POPC   C2B50492   0.877   7.425   6.534
 3747POPC   C3B50493   0.828   7.609   6.949
 3747POPC   C4B50494   0.825   7.426   7.357
 3748POPC   NC350495   4.035   4.152   5.339
 3748POPC   PO450496   3.410   4.498   5.343
 3748POPC   GL150497   3.529   4.229   5.665
 3748POPC   GL250498   3.806   4.442   5.737
 3748POPC   C1A50499   3.471   4.312   6.108
 3748POPC   D2A50500   3.706   4.415   6.469
 3748POPC   C3A50501   3.457   4.478   6.837
 3748POPC   C4A50502   3.470   4.684   7.231
 3748POPC   C1B50503   3.919   4.060   6.000
 3748POPC   C2B50504   3.922   3.939   6.458
 3748POPC   C3B50505   3.898   4.151   6.877
 3748POPC   C4B50506   3.972   4.124   7.342
 3749POPC   NC350507  17.361  37.689   5.553
 3749POPC   PO450508  18.008  37.362   5.385
 3749POPC   GL150509  17.780  37.551   5.791
 3749POPC   GL250510  17.452  37.379   5.955
 3749POPC   C1A50511  17.609  37.779   6.195
 3749POPC   D2A50512  17.529  37.598   6.586
 3749POPC   C3A50513  17.732  37.891   6.827
 3749POPC   C4A50514  17.749  37.993   7.216
 3749POPC   C1B50515  17.118  37.560   6.252
 3749POPC   C2B50516  17.010  37.611   6.700
 3749POPC   C3B50517  17.265  37.585   7.083
 3749POPC   C4B50518  17.543  37.320   7.339
 3750POPC   NC350519  25.752  40.469   5.350
 3750POPC   PO450520  26.131  39.919   5.388
 3750POPC   GL150521  26.049  39.865   5.817
 3750POPC   GL250522  26.384  39.889   5.970
 3750POPC   C1A50523  25.908  40.122   6.167
 3750POPC   D2A50524  25.785  40.201   6.596
 3750POPC   C3A50525  25.898  40.113   7.058
 3750POPC   C4A50526  25.940  40.305   7.509
 3750POPC   C1B50527  26.179  39.694   6.293
 3750POPC   C2B50528  26.163  39.788   6.701
 3750POPC   C3B50529  26.054  39.611   7.071
 3750POPC   C4B50530  26.009  39.782   7.450
 3751POPC   NC350531  18.172  32.487   5.458
 3751POPC   PO450532  18.422  31.904   5.670
 3751POPC   GL150533  18.355  32.287   5.873
 3751POPC   GL250534  18.577  32.572   5.749
 3751POPC   C1A50535  18.240  32.293   6.291
 3751POPC   D2A50536  18.331  32.058   6.618
 3751POPC   C3A50537  18.220  32.279   6.932
 3751POPC   C4A50538  18.302  32.033   7.241
 3751POPC   C1B50539  18.542  32.690   6.157
 3751POPC   C2B50540  18.364  32.746   6.565
 3751POPC   C3B50541  18.538  32.678   6.969
 3751POPC   C4B50542  18.556  32.454   7.362
 3752POPC   NC350543   6.793  27.719   5.305
 3752POPC   PO450544   6.454  27.148   5.509
 3752POPC   GL150545   6.455  27.532   5.711
 3752POPC   GL250546   6.774  27.536   5.772
 3752POPC   C1A50547   6.355  27.656   6.114
 3752POPC   D2A50548   6.437  27.441   6.527
 3752POPC   C3A50549   6.365  27.660   6.908
 3752POPC   C4A50550   6.394  27.504   7.302
 3752POPC   C1B50551   6.876  27.728   6.131
 3752POPC   C2B50552   6.941  27.580   6.544
 3752POPC   C3B50553   6.910  27.716   6.973
 3752POPC   C4B50554   6.901  27.472   7.352
 3753POPC   NC350555  27.062   5.307   5.423
 3753POPC   PO450556  26.601   4.716   5.413
 3753POPC   GL150557  26.790   5.067   5.770
 3753POPC   GL250558  26.525   5.279   5.917
 3753POPC   C1A50559  27.065   5.255   6.099
 3753POPC   D2A50560  26.987   5.393   6.537
 3753POPC   C3A50561  26.907   5.105   6.853
 3753POPC   C4A50562  26.873   5.290   7.229
 3753POPC   C1B50563  26.627   5.135   6.288
 3753POPC   C2B50564  26.485   5.312   6.631
 3753POPC   C3B50565  26.419   5.197   7.031
 3753POPC   C4B50566  26.409   5.403   7.428
 3754POPC   NC350567   7.724  25.284   5.429
 3754POPC   PO450568   7.091  24.939   5.163
 3754POPC   GL150569   7.437  24.913   5.552
 3754POPC   GL250570   7.294  25.261   5.693
 3754POPC   C1A50571   7.585  25.050   6.043
 3754POPC   D2A50572   7.404  25.205   6.472
 3754POPC   C3A50573   7.436  25.062   6.905
 3754POPC   C4A50574   7.687  24.911   7.239
 3754POPC   C1B50575   7.378  25.538   6.082
 3754POPC   C2B50576   7.600  25.680   6.466
 3754POPC   C3B50577   7.775  25.430   6.799
 3754POPC   C4B50578   7.538  25.546   7.156
 3755POPC   NC350579  18.449  21.727   5.706
 3755POPC   PO450580  18.065  21.446   5.175
 3755POPC   GL150581  18.208  21.269   5.704
 3755POPC   GL250582  18.071  21.520   6.040
 3755POPC   C1A50583  18.070  21.038   6.112
 3755POPC   D2A50584  18.335  21.099   6.506
 3755POPC   C3A50585  18.222  21.226   6.918
 3755POPC   C4A50586  18.470  21.411   7.233
 3755POPC   C1B50587  18.370  21.620   6.364
 3755POPC   C2B50588  18.398  21.708   6.793
 3755POPC   C3B50589  18.082  21.713   7.115
 3755POPC   C4B50590  17.870  21.949   7.411
 3756POPC   NC350591   4.269  32.636   5.478
 3756POPC   PO450592   4.232  32.010   5.311
 3756POPC   GL150593   4.117  32.177   5.705
 3756POPC   GL250594   4.436  32.313   5.861
 3756POPC   C1A50595   4.085  32.053   6.137
 3756POPC   D2A50596   4.061  32.290   6.529
 3756POPC   C3A50597   4.104  32.077   6.924
 3756POPC   C4A50598   4.112  31.910   7.336
 3756POPC   C1B50599   4.526  32.327   6.326
 3756POPC   C2B50600   4.500  32.412   6.818
 3756POPC   C3B50601   4.333  32.427   7.288
 3756POPC   C4B50602   4.629  32.560   7.691
 3757POPC   NC350603  15.802  18.850   5.405
 3757POPC   PO450604  15.686  19.449   5.759
 3757POPC   GL150605  15.843  19.209   6.004
 3757POPC   GL250606  16.065  19.053   5.786
 3757POPC   C1A50607  15.821  19.104   6.433
 3757POPC   D2A50608  15.559  19.100   6.779
 3757POPC   C3A50609  15.853  19.272   7.047
 3757POPC   C4A50610  16.090  19.167   7.382
 3757POPC   C1B50611  15.830  18.717   6.065
 3757POPC   C2B50612  15.782  18.590   6.513
 3757POPC   C3B50613  15.903  18.757   6.924
 3757POPC   C4B50614  15.718  18.822   7.322
 3758POPC   NC350615  10.285  25.555   5.553
 3758POPC   PO450616  10.604  25.010   5.316
 3758POPC   GL150617  10.602  25.180   5.722
 3758POPC   GL250618  10.820  24.913   5.818
 3758POPC   C1A50619  10.425  25.279   6.133
 3758POPC   D2A50620  10.367  24.995   6.460
 3758POPC   C3A50621  10.551  25.134   6.826
 3758POPC   C4A50622  10.516  25.112   7.267
 3758POPC   C1B50623  10.861  25.052   6.255
 3758POPC   C2B50624  11.062  25.069   6.648
 3758POPC   C3B50625  11.034  24.818   6.986
 3758POPC   C4B50626  10.940  24.830   7.414
 3759POPC   NC350627  24.145  11.153   5.470
 3759POPC   PO450628  24.779  11.454   5.479
 3759POPC   GL150629  24.667  11.671   5.832
 3759POPC   GL250630  24.302  11.599   5.771
 3759POPC   C1A50631  24.780  11.525   6.268
 3759POPC   D2A50632  24.631  11.249   6.627
 3759POPC   C3A50633  24.568  11.412   7.052
 3759POPC   C4A50634  24.582  11.245   7.480
 3759POPC   C1B50635  24.292  11.387   6.215
 3759POPC   C2B50636  24.098  11.310   6.661
 3759POPC   C3B50637  24.093  11.202   7.115
 3759POPC   C4B50638  24.188  11.542   7.401
 3760POPC   NC350639  10.165  41.067   5.301
 3760POPC   PO450640  10.664  40.638   5.372
 3760POPC   GL150641  10.589  40.768   5.782
 3760POPC   GL250642  10.761  40.491   5.948
 3760POPC   C1A50643  10.710  40.907   6.207
 3760POPC   D2A50644  10.704  40.597   6.555
 3760POPC   C3A50645  10.604  40.869   6.878
 3760POPC   C4A50646  10.601  41.020   7.281
 3760POPC   C1B50647  10.351  40.534   6.170
 3760POPC   C2B50648  10.152  40.551   6.581
 3760POPC   C3B50649  10.326  40.435   6.978
 3760POPC   C4B50650  10.717  40.501   7.229
 3761POPC   NC350651  22.836   5.638   5.277
 3761POPC   PO450652  22.736   6.198   5.434
 3761POPC   GL150653  22.747   5.957   5.797
 3761POPC   GL250654  23.066   5.778   5.746
 3761POPC   C1A50655  22.797   6.073   6.225
 3761POPC   D2A50656  23.046   6.188   6.577
 3761POPC   C3A50657  22.839   6.122   6.954
 3761POPC   C4A50658  22.886   6.007   7.350
 3761POPC   C1B50659  23.260   5.822   6.157
 3761POPC   C2B50660  23.265   5.736   6.583
 3761POPC   C3B50661  23.321   5.948   6.955
 3761POPC   C4B50662  23.346   5.820   7.356
 3762POPC   NC350663  31.085  42.199   5.620
 3762POPC   PO450664  31.623  42.432   5.359
 3762POPC   GL150665  31.571  42.294   5.807
 3762POPC   GL250666  31.341  42.073   6.011
 3762POPC   C1A50667  31.765  42.342   6.197
 3762POPC   D2A50668  31.601  42.400   6.635
 3762POPC   C3A50669  31.453  42.203   7.021
 3762POPC   C4A50670  31.449  42.409   7.443
 3762POPC   C1B50671  31.472  41.990   6.365
 3762POPC   C2B50672  31.886  41.991   6.561
 3762POPC   C3B50673  31.894  41.937   6.997
 3762POPC   C4B50674  31.773  41.976   7.423
 3763POPC   NC350675  38.601  44.822   5.520
 3763POPC   PO450676  38.088  44.398   5.303
 3763POPC   GL150677  38.271  44.451   5.761
 3763POPC   GL250678  38.532  44.688   5.991
 3763POPC   C1A50679  38.118  44.511   6.203
 3763POPC   D2A50680  38.376  44.777   6.511
 3763POPC   C3A50681  38.477  44.650   6.929
 3763POPC   C4A50682  38.551  44.662   7.382
 3763POPC   C1B50683  38.702   0.068   6.229
 3763POPC   C2B50684  38.897   0.050   6.660
 3763POPC   C3B50685  38.681   0.104   7.069
 3763POPC   C4B50686  38.783   0.104   7.492
 3764POPC   NC350687  20.707   8.163   5.029
 3764POPC   PO450688  20.423   8.378   5.597
 3764POPC   GL150689  20.547   8.416   5.992
 3764POPC   GL250690  20.578   8.034   5.973
 3764POPC   C1A50691  20.840   8.317   6.309
 3764POPC   D2A50692  20.814   7.939   6.568
 3764POPC   C3A50693  20.826   8.058   6.975
 3764POPC   C4A50694  20.735   8.136   7.387
 3764POPC   C1B50695  20.353   8.054   6.349
 3764POPC   C2B50696  20.475   8.305   6.689
 3764POPC   C3B50697  20.366   8.312   7.069
 3764POPC   C4B50698  20.059   8.521   7.195
 3765POPC   NC350699   7.662   0.321   5.400
 3765POPC   PO450700   7.001   0.600   5.284
 3765POPC   GL150701   7.253   0.456   5.681
 3765POPC   GL250702   7.622   0.491   5.860
 3765POPC   C1A50703   7.217   0.409   6.141
 3765POPC   D2A50704   7.394   0.594   6.517
 3765POPC   C3A50705   7.206   0.427   6.906
 3765POPC   C4A50706   7.216   0.562   7.328
 3765POPC   C1B50707   7.753   0.305   6.276
 3765POPC   C2B50708   7.640   0.170   6.710
 3765POPC   C3B50709   7.604   0.238   7.171
 3765POPC   C4B50710   7.498   0.164   7.606
 3766POPC   NC350711  40.335  12.737   5.382
 3766POPC   PO450712  39.666  12.906   5.363
 3766POPC   GL150713  39.872  12.774   5.755
 3766POPC   GL250714  40.190  12.935   5.853
 3766POPC   C1A50715  39.967  12.642   6.189
 3766POPC   D2A50716  39.761  12.614   6.584
 3766POPC   C3A50717  40.003  12.754   6.893
 3766POPC   C4A50718  39.880  12.840   7.289
 3766POPC   C1B50719  39.910  13.155   6.106
 3766POPC   C2B50720  39.856  13.139   6.539
 3766POPC   C3B50721  39.715  13.179   6.946
 3766POPC   C4B50722  39.435  13.160   7.279
 3767POPC   NC350723   7.200   7.449   5.485
 3767POPC   PO450724   7.731   7.046   5.387
 3767POPC   GL150725   7.607   7.306   5.767
 3767POPC   GL250726   7.600   7.685   5.751
 3767POPC   C1A50727   7.444   7.281   6.172
 3767POPC   D2A50728   7.466   7.000   6.494
 3767POPC   C3A50729   7.445   7.201   6.892
 3767POPC   C4A50730   7.115   7.439   7.106
 3767POPC   C1B50731   7.786   7.676   6.135
 3767POPC   C2B50732   7.658   7.541   6.548
 3767POPC   C3B50733   7.853   7.549   6.920
 3767POPC   C4B50734   7.583   7.520   7.270
 3768POPC   NC350735  35.717   7.984   5.181
 3768POPC   PO450736  36.213   8.406   5.380
 3768POPC   GL150737  36.017   8.437   5.788
 3768POPC   GL250738  36.326   8.423   5.976
 3768POPC   C1A50739  35.893   8.182   6.177
 3768POPC   D2A50740  35.938   7.987   6.585
 3768POPC   C3A50741  35.892   8.181   6.998
 3768POPC   C4A50742  36.074   8.312   7.427
 3768POPC   C1B50743  36.398   8.127   6.338
 3768POPC   C2B50744  36.405   8.057   6.787
 3768POPC   C3B50745  36.484   8.316   7.126
 3768POPC   C4B50746  36.573   8.180   7.551
 3769POPC   NC350747  36.946  39.196   5.326
 3769POPC   PO450748  37.297  39.696   5.441
 3769POPC   GL150749  37.041  39.453   5.764
 3769POPC   GL250750  37.006  39.076   5.826
 3769POPC   C1A50751  37.094  39.426   6.209
 3769POPC   D2A50752  37.065  39.103   6.502
 3769POPC   C3A50753  36.931  39.170   6.915
 3769POPC   C4A50754  36.872  39.499   7.192
 3769POPC   C1B50755  36.682  39.131   6.154
 3769POPC   C2B50756  36.508  39.039   6.611
 3769POPC   C3B50757  36.541  38.838   7.028
 3769POPC   C4B50758  36.752  39.038   7.406
 3770POPC   NC350759  23.432  19.091   5.541
 3770POPC   PO450760  24.072  19.395   5.473
 3770POPC   GL150761  23.842  19.232   5.815
 3770POPC   GL250762  23.944  18.912   5.849
 3770POPC   C1A50763  23.607  19.076   6.179
 3770POPC   D2A50764  23.338  19.134   6.487
 3770POPC   C3A50765  23.604  19.314   6.757
 3770POPC   C4A50766  23.540  19.357   7.172
 3770POPC   C1B50767  23.871  18.636   6.252
 3770POPC   C2B50768  23.554  18.703   6.639
 3770POPC   C3B50769  23.658  18.733   7.075
 3770POPC   C4B50770  24.079  18.702   7.245
 3771POPC   NC350771  18.134   3.277   5.288
 3771POPC   PO450772  18.532   3.790   5.174
 3771POPC   GL150773  18.236   3.669   5.597
 3771POPC   GL250774  18.260   3.348   5.779
 3771POPC   C1A50775  18.080   3.812   6.026
 3771POPC   D2A50776  18.280   3.868   6.451
 3771POPC   C3A50777  18.217   3.633   6.846
 3771POPC   C4A50778  17.803   3.691   7.015
 3771POPC   C1B50779  18.381   3.435   6.199
 3771POPC   C2B50780  18.592   3.344   6.578
 3771POPC   C3B50781  18.719   3.418   6.977
 3771POPC   C4B50782  18.513   3.412   7.351
 3772POPC   NC350783  20.784   3.177   5.479
 3772POPC   PO450784  21.248   3.561   5.461
 3772POPC   GL150785  21.292   3.721   5.860
 3772POPC   GL250786  20.976   3.571   5.905
 3772POPC   C1A50787  21.396   3.619   6.306
 3772POPC   D2A50788  21.521   3.798   6.735
 3772POPC   C3A50789  21.586   3.664   7.184
 3772POPC   C4A50790  21.283   3.797   7.498
 3772POPC   C1B50791  20.933   3.872   6.228
 3772POPC   C2B50792  20.992   3.736   6.649
 3772POPC   C3B50793  21.101   3.593   7.049
 3772POPC   C4B50794  21.191   3.267   7.357
 3773POPC   NC350795  29.959  22.641   5.440
 3773POPC   PO450796  30.284  23.207   5.413
 3773POPC   GL150797  30.173  22.934   5.806
 3773POPC   GL250798  30.163  22.552   5.910
 3773POPC   C1A50799  29.953  22.888   6.219
 3773POPC   D2A50800  29.749  22.725   6.581
 3773POPC   C3A50801  29.748  22.918   7.004
 3773POPC   C4A50802  30.126  23.150   7.182
 3773POPC   C1B50803  30.267  22.390   6.331
 3773POPC   C2B50804  30.402  22.409   6.775
 3773POPC   C3B50805  30.169  22.640   7.108
 3773POPC   C4B50806  29.949  22.768   7.487
 3774POPC   NC350807  24.515  29.663   5.500
 3774POPC   PO450808  24.426  28.959   5.278
 3774POPC   GL150809  24.526  29.152   5.691
 3774POPC   GL250810  24.857  29.343   5.717
 3774POPC   C1A50811  24.364  29.141   6.126
 3774POPC   D2A50812  24.487  28.933   6.514
 3774POPC   C3A50813  24.383  29.042   6.904
 3774POPC   C4A50814  24.501  28.870   7.291
 3774POPC   C1B50815  24.737  29.517   6.132
 3774POPC   C2B50816  24.766  29.390   6.569
 3774POPC   C3B50817  24.911  29.499   6.987
 3774POPC   C4B50818  24.621  29.370   7.257
 3775POPC   NC350819  40.918  16.784   5.438
 3775POPC   PO450820  40.395  16.544   5.661
 3775POPC   GL150821  40.596  16.900   5.828
 3775POPC   GL250822  40.914  16.754   5.960
 3775POPC   C1A50823  40.536  16.935   6.255
 3775POPC   D2A50824  40.770  16.772   6.588
 3775POPC   C3A50825  40.644  16.772   7.005
 3775POPC   C4A50826  40.500  17.165   7.090
 3775POPC   C1B50827  41.188  16.596   6.329
 3775POPC   C2B50828  41.176  16.576   6.796
 3775POPC   C3B50829  41.045  16.514   7.230
 3775POPC   C4B50830  41.200  16.403   7.626
 3776POPC   NC350831  40.970   1.368   5.470
 3776POPC   PO450832  40.315   1.352   5.450
 3776POPC   GL150833  40.600   1.350   5.798
 3776POPC   GL250834  40.676   1.012   5.732
 3776POPC   C1A50835  40.879   1.408   6.158
 3776POPC   D2A50836  40.732   1.536   6.577
 3776POPC   C3A50837  40.910   1.484   6.962
 3776POPC   C4A50838  41.085   1.280   7.294
 3776POPC   C1B50839  40.831   0.887   6.130
 3776POPC   C2B50840  40.895   1.064   6.531
 3776POPC   C3B50841  40.763   0.989   6.937
 3776POPC   C4B50842  40.739   0.819   7.329
 3777POPC   NC350843  25.995  20.318   5.545
 3777POPC   PO450844  25.867  20.945   5.302
 3777POPC   GL150845  25.818  20.761   5.739
 3777POPC   GL250846  25.782  20.447   5.984
 3777POPC   C1A50847  26.165  20.776   6.053
 3777POPC   D2A50848  26.203  20.834   6.497
 3777POPC   C3A50849  26.211  20.574   6.836
 3777POPC   C4A50850  26.487  20.570   7.160
 3777POPC   C1B50851  25.648  20.820   6.219
 3777POPC   C2B50852  25.728  20.961   6.657
 3777POPC   C3B50853  25.842  20.843   7.101
 3777POPC   C4B50854  25.709  20.655   7.506
 3778POPC   NC350855  19.452  30.251   5.770
 3778POPC   PO450856  19.106  29.733   5.543
 3778POPC   GL150857  19.255  29.791   5.891
 3778POPC   GL250858  19.413  29.468   5.868
 3778POPC   C1A50859  19.195  29.950   6.323
 3778POPC   D2A50860  19.356  29.997   6.762
 3778POPC   C3A50861  19.091  30.132   7.130
 3778POPC   C4A50862  18.953  30.125   7.601
 3778POPC   C1B50863  19.159  29.433   6.217
 3778POPC   C2B50864  19.222  29.499   6.604
 3778POPC   C3B50865  19.039  29.617   6.939
 3778POPC   C4B50866  19.181  29.666   7.334
 3779POPC   NC350867  35.521  24.391   5.381
 3779POPC   PO450868  34.856  24.399   5.554
 3779POPC   GL150869  35.156  24.431   5.837
 3779POPC   GL250870  35.266  24.712   5.680
 3779POPC   C1A50871  35.194  24.350   6.272
 3779POPC   D2A50872  35.271  24.574   6.663
 3779POPC   C3A50873  35.257  24.427   7.103
 3779POPC   C4A50874  35.540  24.351   7.481
 3779POPC   C1B50875  35.396  24.795   6.107
 3779POPC   C2B50876  35.677  24.814   6.457
 3779POPC   C3B50877  35.626  24.904   6.870
 3779POPC   C4B50878  35.307  24.954   7.157
 3780POPC   NC350879  26.368  33.739   5.697
 3780POPC   PO450880  26.905  33.753   5.334
 3780POPC   GL150881  26.855  33.908   5.746
 3780POPC   GL250882  26.621  34.214   5.801
 3780POPC   C1A50883  26.972  33.662   6.107
 3780POPC   D2A50884  26.992  33.845   6.523
 3780POPC   C3A50885  26.953  33.593   6.901
 3780POPC   C4A50886  26.958  33.829   7.269
 3780POPC   C1B50887  26.777  34.246   6.214
 3780POPC   C2B50888  26.482  34.240   6.577
 3780POPC   C3B50889  26.284  34.272   6.988
 3780POPC   C4B50890  26.435  33.964   7.287
 3781POPC   NC350891  21.055  35.522   5.502
 3781POPC   PO450892  21.673  35.331   5.126
 3781POPC   GL150893  21.586  35.434   5.607
 3781POPC   GL250894  21.396  35.193   5.763
 3781POPC   C1A50895  21.456  35.593   6.075
 3781POPC   D2A50896  21.310  35.701   6.503
 3781POPC   C3A50897  21.590  35.499   6.839
 3781POPC   C4A50898  21.708  35.502   7.308
 3781POPC   C1B50899  21.148  35.184   6.159
 3781POPC   C2B50900  21.229  35.211   6.594
 3781POPC   C3B50901  21.246  35.096   7.001
 3781POPC   C4B50902  21.644  35.021   7.220
 3782POPC   NC350903  36.119   9.602   5.366
 3782POPC   PO450904  35.559   9.959   5.360
 3782POPC   GL150905  35.909   9.883   5.766
 3782POPC   GL250906  36.277   9.785   5.800
 3782POPC   C1A50907  36.068   9.752   6.248
 3782POPC   D2A50908  36.340   9.534   6.556
 3782POPC   C3A50909  36.177   9.433   6.945
 3782POPC   C4A50910  36.041   9.737   7.206
 3782POPC   C1B50911  36.404  10.101   6.099
 3782POPC   C2B50912  36.278  10.153   6.509
 3782POPC   C3B50913  36.388   9.955   6.880
 3782POPC   C4B50914  36.455  10.028   7.295
 3783POPC   NC350915  12.812  24.967   5.355
 3783POPC   PO450916  13.123  25.588   5.368
 3783POPC   GL150917  12.912  25.332   5.730
 3783POPC   GL250918  12.993  24.991   5.858
 3783POPC   C1A50919  12.806  25.446   6.150
 3783POPC   D2A50920  12.683  25.314   6.562
 3783POPC   C3A50921  12.886  25.435   6.929
 3783POPC   C4A50922  12.807  25.268   7.319
 3783POPC   C1B50923  13.204  25.131   6.250
 3783POPC   C2B50924  13.261  25.131   6.713
 3783POPC   C3B50925  13.310  24.910   7.131
 3783POPC   C4B50926  13.187  25.008   7.602
 3784POPC   NC350927  25.908   6.580   5.296
 3784POPC   PO450928  26.548   6.671   5.420
 3784POPC   GL150929  26.293   6.480   5.772
 3784POPC   GL250930  25.917   6.439   5.770
 3784POPC   C1A50931  26.195   6.670   6.172
 3784POPC   D2A50932  26.382   6.712   6.590
 3784POPC   C3A50933  26.120   6.581   6.954
 3784POPC   C4A50934  26.202   6.645   7.405
 3784POPC   C1B50935  25.802   6.347   6.166
 3784POPC   C2B50936  25.778   6.551   6.552
 3784POPC   C3B50937  25.615   6.395   6.943
 3784POPC   C4B50938  25.727   6.473   7.347
 3785POPC   NC350939  22.552  35.404   5.540
 3785POPC   PO450940  23.171  35.339   5.406
 3785POPC   GL150941  22.971  35.235   5.816
 3785POPC   GL250942  22.647  35.002   5.869
 3785POPC   C1A50943  23.045  35.484   6.167
 3785POPC   D2A50944  23.302  35.532   6.503
 3785POPC   C3A50945  23.050  35.359   6.825
 3785POPC   C4A50946  23.036  35.584   7.177
 3785POPC   C1B50947  22.721  35.122   6.295
 3785POPC   C2B50948  22.645  35.515   6.527
 3785POPC   C3B50949  22.555  35.502   6.967
 3785POPC   C4B50950  22.720  35.188   7.224
 3786POPC   NC350951  22.588  37.674   5.155
 3786POPC   PO450952  22.283  38.149   5.519
 3786POPC   GL150953  22.218  37.901   5.980
 3786POPC   GL250954  21.985  37.612   6.002
 3786POPC   C1A50955  22.419  37.590   6.257
 3786POPC   D2A50956  22.209  37.509   6.624
 3786POPC   C3A50957  22.496  37.662   6.916
 3786POPC   C4A50958  22.581  37.822   7.291
 3786POPC   C1B50959  21.850  37.810   6.346
 3786POPC   C2B50960  21.710  37.728   6.731
 3786POPC   C3B50961  21.999  37.806   7.019
 3786POPC   C4B50962  22.096  37.578   7.313
 3787POPC   NC350963  26.271  21.714   5.590
 3787POPC   PO450964  26.677  21.168   5.386
 3787POPC   GL150965  26.807  21.255   5.793
 3787POPC   GL250966  26.697  20.916   5.865
 3787POPC   C1A50967  27.014  21.157   6.186
 3787POPC   D2A50968  26.882  21.005   6.561
 3787POPC   C3A50969  26.894  21.317   6.868
 3787POPC   C4A50970  26.800  21.326   7.267
 3787POPC   C1B50971  26.511  21.138   6.217
 3787POPC   C2B50972  26.422  21.287   6.597
 3787POPC   C3B50973  26.477  21.031   6.918
 3787POPC   C4B50974  26.339  21.099   7.275
 3788POPC   NC350975  22.606  38.681   5.164
 3788POPC   PO450976  22.894  38.226   5.607
 3788POPC   GL150977  22.961  38.610   5.849
 3788POPC   GL250978  23.274  38.596   5.852
 3788POPC   C1A50979  22.729  38.776   6.223
 3788POPC   D2A50980  22.601  38.527   6.579
 3788POPC   C3A50981  22.674  38.735   6.967
 3788POPC   C4A50982  22.619  38.604   7.408
 3788POPC   C1B50983  23.158  38.510   6.299
 3788POPC   C2B50984  23.117  38.662   6.721
 3788POPC   C3B50985  23.052  38.437   7.114
 3788POPC   C4B50986  23.307  38.192   7.335
 3789POPC   NC350987  16.661  35.213   5.575
 3789POPC   PO450988  16.841  35.829   5.384
 3789POPC   GL150989  16.843  35.616   5.837
 3789POPC   GL250990  16.464  35.541   5.914
 3789POPC   C1A50991  16.809  35.273   6.219
 3789POPC   D2A50992  16.693  34.955   6.576
 3789POPC   C3A50993  16.750  35.140   6.995
 3789POPC   C4A50994  16.949  35.512   7.077
 3789POPC   C1B50995  16.622  35.777   6.267
 3789POPC   C2B50996  16.711  35.779   6.694
 3789POPC   C3B50997  16.543  35.845   7.095
 3789POPC   C4B50998  16.365  35.494   7.313
 3790POPC   NC350999   8.287  27.734   5.550
 3790POPC   PO451000   7.936  27.186   5.453
 3790POPC   GL151001   8.078  27.392   5.868
 3790POPC   GL251002   7.910  27.754   5.886
 3790POPC   C1A51003   8.400  27.571   6.196
 3790POPC   D2A51004   8.703  27.615   6.551
 3790POPC   C3A51005   8.507  27.648   6.944
 3790POPC   C4A51006   8.363  27.777   7.330
 3790POPC   C1B51007   7.889  27.646   6.284
 3790POPC   C2B51008   7.810  27.847   6.627
 3790POPC   C3B51009   7.986  27.797   6.987
 3790POPC   C4B51010   7.836  27.941   7.325
 3791POPC   NC351011  28.225  16.836   5.488
 3791POPC   PO451012  28.673  16.351   5.636
 3791POPC   GL151013  28.295  16.483   5.902
 3791POPC   GL251014  28.228  16.812   5.996
 3791POPC   C1A51015  28.211  16.486   6.376
 3791POPC   D2A51016  28.189  16.766   6.750
 3791POPC   C3A51017  28.260  16.640   7.157
 3791POPC   C4A51018  28.575  16.368   7.277
 3791POPC   C1B51019  28.372  17.103   6.341
 3791POPC   C2B51020  28.569  17.110   6.765
 3791POPC   C3B51021  28.518  17.078   7.226
 3791POPC   C4B51022  28.221  17.025   7.583
 3792POPC   NC351023   8.021  31.135   5.160
 3792POPC   PO451024   8.156  31.777   5.171
 3792POPC   GL151025   8.060  31.486   5.579
 3792POPC   GL251026   7.999  31.117   5.683
 3792POPC   C1A51027   8.164  31.408   6.073
 3792POPC   D2A51028   8.055  31.602   6.499
 3792POPC   C3A51029   8.288  31.529   6.901
 3792POPC   C4A51030   8.119  31.480   7.309
 3792POPC   C1B51031   7.873  30.980   6.113
 3792POPC   C2B51032   7.938  31.103   6.503
 3792POPC   C3B51033   8.003  31.108   6.926
 3792POPC   C4B51034   8.223  30.980   7.279
 3793POPC   NC351035  35.615   0.257   5.395
 3793POPC   PO451036  35.229   0.812   5.446
 3793POPC   GL151037  35.245   0.595   5.851
 3793POPC   GL251038  35.370   0.242   5.830
 3793POPC   C1A51039  35.444   0.699   6.290
 3793POPC   D2A51040  35.766   0.664   6.635
 3793POPC   C3A51041  35.612   0.818   7.045
 3793POPC   C4A51042  35.236   0.692   7.257
 3793POPC   C1B51043  35.163   0.265   6.222
 3793POPC   C2B51044  34.925   0.385   6.557
 3793POPC   C3B51045  35.011   0.308   6.965
 3793POPC   C4B51046  35.292   0.198   7.286
 3794POPC   NC351047   7.209   1.782   5.350
 3794POPC   PO451048   7.494   2.445   5.407
 3794POPC   GL151049   7.423   2.156   5.752
 3794POPC   GL251050   7.207   1.905   5.841
 3794POPC   C1A51051   7.603   2.023   6.159
 3794POPC   D2A51052   7.605   1.738   6.542
 3794POPC   C3A51053   7.740   1.909   6.960
 3794POPC   C4A51054   7.664   2.079   7.383
 3794POPC   C1B51055   7.179   1.762   6.247
 3794POPC   C2B51056   7.104   1.648   6.667
 3794POPC   C3B51057   7.177   1.854   7.041
 3794POPC   C4B51058   7.075   1.722   7.452
 3795POPC   NC351059  32.486   5.666   5.641
 3795POPC   PO451060  33.106   5.950   5.578
 3795POPC   GL151061  33.210   5.689   5.890
 3795POPC   GL251062  32.868   5.701   6.037
 3795POPC   C1A51063  33.307   5.673   6.315
 3795POPC   D2A51064  33.326   5.962   6.632
 3795POPC   C3A51065  33.047   5.895   6.973
 3795POPC   C4A51066  33.079   5.630   7.300
 3795POPC   C1B51067  33.004   6.102   6.232
 3795POPC   C2B51068  32.952   6.381   6.566
 3795POPC   C3B51069  32.776   6.323   6.932
 3795POPC   C4B51070  32.941   6.304   7.312
 3796POPC   NC351071  29.451   7.222   5.254
 3796POPC   PO451072  28.989   7.611   5.367
 3796POPC   GL151073  29.108   7.300   5.639
 3796POPC   GL251074  29.326   7.562   5.761
 3796POPC   C1A51075  28.980   7.299   6.064
 3796POPC   D2A51076  29.157   7.349   6.473
 3796POPC   C3A51077  28.900   7.369   6.855
 3796POPC   C4A51078  29.083   7.113   7.186
 3796POPC   C1B51079  29.475   7.660   6.172
 3796POPC   C2B51080  29.407   7.792   6.602
 3796POPC   C3B51081  29.559   7.843   7.015
 3796POPC   C4B51082  29.221   7.604   7.151
 3797POPC   NC351083   1.636   5.304   4.881
 3797POPC   PO451084   1.341   4.882   5.215
 3797POPC   GL151085   1.301   4.908   5.669
 3797POPC   GL251086   1.566   5.020   5.756
 3797POPC   C1A51087   1.117   5.108   6.041
 3797POPC   D2A51088   1.130   4.989   6.465
 3797POPC   C3A51089   1.160   5.246   6.846
 3797POPC   C4A51090   1.291   5.091   7.246
 3797POPC   C1B51091   1.511   4.744   6.098
 3797POPC   C2B51092   1.445   4.568   6.461
 3797POPC   C3B51093   1.452   4.810   6.810
 3797POPC   C4B51094   1.745   4.786   7.108
 3798POPC   NC351095  35.778  18.372   5.418
 3798POPC   PO451096  36.377  18.746   5.247
 3798POPC   GL151097  36.283  18.432   5.590
 3798POPC   GL251098  36.078  18.556   5.784
 3798POPC   C1A51099  36.302  18.194   6.027
 3798POPC   D2A51100  36.493  18.371   6.400
 3798POPC   C3A51101  36.360  18.317   6.823
 3798POPC   C4A51102  36.174  18.200   7.207
 3798POPC   C1B51103  36.100  18.720   6.164
 3798POPC   C2B51104  35.814  18.721   6.463
 3798POPC   C3B51105  36.022  18.719   6.822
 3798POPC   C4B51106  35.945  18.667   7.215
 3799POPC   NC351107  32.196  31.755   5.441
 3799POPC   PO451108  32.203  32.472   5.428
 3799POPC   GL151109  32.394  32.359   5.837
 3799POPC   GL251110  32.460  32.023   5.827
 3799POPC   C1A51111  32.483  32.238   6.280
 3799POPC   D2A51112  32.241  32.399   6.632
 3799POPC   C3A51113  32.413  32.288   7.048
 3799POPC   C4A51114  32.429  32.278   7.511
 3799POPC   C1B51115  32.166  31.831   6.095
 3799POPC   C2B51116  32.201  31.880   6.535
 3799POPC   C3B51117  32.087  31.869   6.960
 3799POPC   C4B51118  32.301  31.830   7.335
 3800POPC   NC351119  39.981  35.779   5.368
 3800POPC   PO451120  40.108  35.093   5.357
 3800POPC   GL151121  40.008  35.254   5.762
 3800POPC   GL251122  39.793  35.547   5.773
 3800POPC   C1A51123  40.020  35.379   6.207
 3800POPC   D2A51124  39.932  35.204   6.613
 3800POPC   C3A51125  40.060  35.462   6.978
 3800POPC   C4A51126  40.110  35.441   7.430
 3800POPC   C1B51127  39.526  35.635   6.105
 3800POPC   C2B51128  39.665  35.627   6.535
 3800POPC   C3B51129  39.544  35.506   6.938
 3800POPC   C4B51130  39.665  35.672   7.332
 3801POPC   NC351131  19.283  21.460   5.224
 3801POPC   PO451132  18.901  21.677   5.673
 3801POPC   GL151133  19.224  21.591   5.914
 3801POPC   GL251134  19.317  21.243   5.853
 3801POPC   C1A51135  19.141  21.516   6.338
 3801POPC   D2A51136  18.782  21.393   6.599
 3801POPC   C3A51137  18.905  21.484   7.010
 3801POPC   C4A51138  19.283  21.521   7.237
 3801POPC   C1B51139  18.923  21.091   6.107
 3801POPC   C2B51140  18.815  20.871   6.514
 3801POPC   C3B51141  18.700  20.992   6.936
 3801POPC   C4B51142  18.874  21.109   7.362
 3802POPC   NC351143   6.373  39.394   5.286
 3802POPC   PO451144   6.990  39.091   5.317
 3802POPC   GL151145   6.689  39.068   5.663
 3802POPC   GL251146   6.685  39.410   5.719
 3802POPC   C1A51147   6.732  39.115   6.137
 3802POPC   D2A51148   6.995  39.252   6.472
 3802POPC   C3A51149   6.823  39.334   6.866
 3802POPC   C4A51150   6.986  39.250   7.277
 3802POPC   C1B51151   6.516  39.569   6.105
 3802POPC   C2B51152   6.413  39.417   6.510
 3802POPC   C3B51153   6.181  39.452   6.887
 3802POPC   C4B51154   6.437  39.373   7.217
 3803POPC   NC351155  12.146  10.921   5.516
 3803POPC   PO451156  11.743  10.321   5.553
 3803POPC   GL151157  12.108  10.425   5.802
 3803POPC   GL251158  11.942  10.686   5.901
 3803POPC   C1A51159  12.237  10.473   6.236
 3803POPC   D2A51160  12.024  10.574   6.623
 3803POPC   C3A51161  12.205  10.470   7.047
 3803POPC   C4A51162  12.239  10.553   7.515
 3803POPC   C1B51163  12.062  10.952   6.180
 3803POPC   C2B51164  11.926  11.084   6.557
 3803POPC   C3B51165  11.782  10.909   6.913
 3803POPC   C4B51166  11.812  10.717   7.282
 3804POPC   NC351167  13.067  26.818   5.353
 3804POPC   PO451168  12.547  26.247   5.414
 3804POPC   GL151169  12.754  26.508   5.816
 3804POPC   GL251170  12.813  26.879   5.815
 3804POPC   C1A51171  12.799  26.609   6.268
 3804POPC   D2A51172  12.966  26.500   6.677
 3804POPC   C3A51173  12.772  26.728   7.047
 3804POPC   C4A51174  12.611  27.172   7.097
 3804POPC   C1B51175  13.124  26.984   6.115
 3804POPC   C2B51176  13.021  27.014   6.551
 3804POPC   C3B51177  13.136  27.053   6.963
 3804POPC   C4B51178  13.252  27.255   7.331
 3805POPC   NC351179  35.787  33.928   5.383
 3805POPC   PO451180  35.222  33.638   5.145
 3805POPC   GL151181  35.398  33.774   5.658
 3805POPC   GL251182  35.717  33.660   5.822
 3805POPC   C1A51183  35.328  33.653   6.154
 3805POPC   D2A51184  35.368  33.838   6.596
 3805POPC   C3A51185  35.172  33.808   7.052
 3805POPC   C4A51186  35.371  33.833   7.458
 3805POPC   C1B51187  35.753  33.942   6.186
 3805POPC   C2B51188  35.831  34.080   6.617
 3805POPC   C3B51189  35.693  33.839   7.015
 3805POPC   C4B51190  35.852  33.733   7.428
 3806POPC   NC351191  20.928  17.833   5.196
 3806POPC   PO451192  20.215  17.903   5.328
 3806POPC   GL151193  20.511  18.151   5.623
 3806POPC   GL251194  20.437  18.490   5.682
 3806POPC   C1A51195  20.699  18.204   6.082
 3806POPC   D2A51196  20.579  18.307   6.552
 3806POPC   C3A51197  20.830  18.354   6.967
 3806POPC   C4A51198  20.803  18.145   7.400
 3806POPC   C1B51199  20.450  18.659   6.152
 3806POPC   C2B51200  20.413  18.813   6.602
 3806POPC   C3B51201  20.356  18.555   6.984
 3806POPC   C4B51202  20.627  18.627   7.325
 3807POPC   NC351203  14.421  13.067   5.400
 3807POPC   PO451204  14.200  12.472   5.147
 3807POPC   GL151205  14.220  12.585   5.630
 3807POPC   GL251206  14.523  12.764   5.797
 3807POPC   C1A51207  14.192  12.586   6.134
 3807POPC   D2A51208  14.525  12.777   6.452
 3807POPC   C3A51209  14.433  12.921   6.903
 3807POPC   C4A51210  14.421  12.775   7.358
 3807POPC   C1B51211  14.665  13.130   6.077
 3807POPC   C2B51212  14.924  13.154   6.456
 3807POPC   C3B51213  14.779  13.305   6.850
 3807POPC   C4B51214  14.824  13.104   7.230
 3808POPC   NC351215  19.418  17.444   5.183
 3808POPC   PO451216  18.821  17.467   5.505
 3808POPC   GL151217  18.988  17.571   5.897
 3808POPC   GL251218  19.334  17.684   5.817
 3808POPC   C1A51219  19.024  17.389   6.318
 3808POPC   D2A51220  18.822  17.587   6.675
 3808POPC   C3A51221  18.929  17.450   7.128
 3808POPC   C4A51222  18.679  17.500   7.539
 3808POPC   C1B51223  19.468  17.660   6.251
 3808POPC   C2B51224  19.322  17.622   6.686
 3808POPC   C3B51225  19.393  17.698   7.114
 3808POPC   C4B51226  19.550  17.442   7.424
 3809POPC   NC351227  26.454  19.665   5.605
 3809POPC   PO451228  26.900  19.888   5.145
 3809POPC   GL151229  26.883  19.962   5.622
 3809POPC   GL251230  26.949  19.632   5.812
 3809POPC   C1A51231  26.724  20.028   6.091
 3809POPC   D2A51232  26.889  19.810   6.465
 3809POPC   C3A51233  26.703  19.751   6.907
 3809POPC   C4A51234  26.585  19.984   7.314
 3809POPC   C1B51235  27.230  19.944   6.043
 3809POPC   C2B51236  27.327  20.093   6.470
 3809POPC   C3B51237  27.191  19.934   6.853
 3809POPC   C4B51238  27.069  19.787   7.281
 3810POPC   NC351239  38.677  24.651   5.379
 3810POPC   PO451240  38.249  24.148   5.561
 3810POPC   GL151241  38.411  24.476   5.807
 3810POPC   GL251242  38.302  24.822   5.758
 3810POPC   C1A51243  38.258  24.578   6.223
 3810POPC   D2A51244  38.405  24.429   6.626
 3810POPC   C3A51245  38.158  24.576   6.992
 3810POPC   C4A51246  38.138  24.629   7.478
 3810POPC   C1B51247  38.650  24.904   6.050
 3810POPC   C2B51248  38.696  25.013   6.496
 3810POPC   C3B51249  38.617  24.840   6.926
 3810POPC   C4B51250  38.800  24.699   7.339
 3811POPC   NC351251  20.718   6.417   5.433
 3811POPC   PO451252  20.554   7.052   5.281
 3811POPC   GL151253  20.579   6.835   5.698
 3811POPC   GL251254  20.961   6.801   5.689
 3811POPC   C1A51255  20.711   6.617   6.101
 3811POPC   D2A51256  20.521   6.404   6.452
 3811POPC   C3A51257  20.486   6.589   6.846
 3811POPC   C4A51258  20.783   6.613   7.174
 3811POPC   C1B51259  20.913   7.091   6.036
 3811POPC   C2B51260  20.972   7.107   6.474
 3811POPC   C3B51261  20.773   7.027   6.854
 3811POPC   C4B51262  20.858   7.118   7.284
 3812POPC   NC351263  29.365   0.219   5.285
 3812POPC   PO451264  28.898   0.735   5.152
 3812POPC   GL151265  28.923   0.581   5.605
 3812POPC   GL251266  29.128   0.286   5.721
 3812POPC   C1A51267  28.963   0.602   6.080
 3812POPC   D2A51268  29.215   0.658   6.475
 3812POPC   C3A51269  29.029   0.520   6.888
 3812POPC   C4A51270  28.852   0.501   7.318
 3812POPC   C1B51271  29.374   0.288   6.104
 3812POPC   C2B51272  29.357   0.175   6.517
 3812POPC   C3B51273  29.508   0.318   6.867
 3812POPC   C4B51274  29.365   0.299   7.242
 3813POPC   NC351275  22.855  15.316   5.179
 3813POPC   PO451276  23.387  15.432   5.564
 3813POPC   GL151277  23.045  15.229   5.790
 3813POPC   GL251278  22.743  15.326   5.680
 3813POPC   C1A51279  22.966  15.002   6.183
 3813POPC   D2A51280  22.806  15.122   6.579
 3813POPC   C3A51281  22.883  14.801   6.845
 3813POPC   C4A51282  23.190  14.843   7.152
 3813POPC   C1B51283  22.622  15.371   6.116
 3813POPC   C2B51284  22.435  15.505   6.513
 3813POPC   C3B51285  22.690  15.534   6.888
 3813POPC   C4B51286  22.784  15.176   7.155
 3814POPC   NC351287  36.093  38.797   5.030
 3814POPC   PO451288  36.188  38.309   5.426
 3814POPC   GL151289  36.056  38.335   5.864
 3814POPC   GL251290  36.156  38.612   5.874
 3814POPC   C1A51291  35.980  38.386   6.329
 3814POPC   D2A51292  35.950  38.108   6.730
 3814POPC   C3A51293  35.762  38.265   7.146
 3814POPC   C4A51294  35.848  38.258   7.598
 3814POPC   C1B51295  36.344  38.756   6.219
 3814POPC   C2B51296  36.390  38.537   6.588
 3814POPC   C3B51297  36.157  38.515   6.951
 3814POPC   C4B51298  36.274  38.505   7.353
 3815POPC   NC351299  11.826   0.322   5.190
 3815POPC   PO451300  12.078   1.022   5.149
 3815POPC   GL151301  11.945   0.730   5.532
 3815POPC   GL251302  12.119   0.375   5.614
 3815POPC   C1A51303  11.958   0.634   6.015
 3815POPC   D2A51304  12.140   0.565   6.473
 3815POPC   C3A51305  11.894   0.495   6.892
 3815POPC   C4A51306  11.919   0.727   7.315
 3815POPC   C1B51307  12.293   0.252   6.036
 3815POPC   C2B51308  12.526   0.171   6.425
 3815POPC   C3B51309  12.387   0.170   6.851
 3815POPC   C4B51310  12.297   0.382   7.226
 3816POPC   NC351311  43.676   8.494   5.442
 3816POPC   PO451312  44.034   8.007   5.478
 3816POPC   GL151313  43.939   8.210   5.849
 3816POPC   GL251314  43.582   8.195   5.870
 3816POPC   C1A51315  44.112   8.166   6.262
 3816POPC   D2A51316  44.315   8.278   6.658
 3816POPC   C3A51317  44.187   8.180   7.088
 3816POPC   C4A51318  43.974   8.014   7.457
 3816POPC   C1B51319  43.615   8.165   6.330
 3816POPC   C2B51320  43.790   8.288   6.741
 3816POPC   C3B51321  43.611   8.257   7.171
 3816POPC   C4B51322  43.629   8.364   7.617
 3817POPC   NC351323  31.371  44.241   5.217
 3817POPC   PO451324  32.005  43.997   5.335
 3817POPC   GL151325  31.742  43.896   5.704
 3817POPC   GL251326  31.673  43.562   5.863
 3817POPC   C1A51327  31.492  43.992   6.070
 3817POPC   D2A51328  31.556  44.028   6.503
 3817POPC   C3A51329  31.194  43.953   6.758
 3817POPC   C4A51330  31.267  44.022   7.154
 3817POPC   C1B51331  31.865  43.681   6.272
 3817POPC   C2B51332  31.844  43.674   6.752
 3817POPC   C3B51333  31.756  43.862   7.154
 3817POPC   C4B51334  31.730  43.694   7.590
 3818POPC   NC351335  42.859  41.888   5.394
 3818POPC   PO451336  43.029  42.543   5.422
 3818POPC   GL151337  43.196  42.506   5.822
 3818POPC   GL251338  43.099  42.147   5.795
 3818POPC   C1A51339  43.262  42.678   6.260
 3818POPC   D2A51340  43.461  42.518   6.663
 3818POPC   C3A51341  43.168  42.381   6.999
 3818POPC   C4A51342  42.745  42.488   7.128
 3818POPC   C1B51343  43.004  42.222   6.231
 3818POPC   C2B51344  42.788  42.297   6.619
 3818POPC   C3B51345  42.765  41.984   6.939
 3818POPC   C4B51346  42.827  41.819   7.332
 3819POPC   NC351347   4.620  38.957   5.500
 3819POPC   PO451348   4.291  39.499   5.490
 3819POPC   GL151349   4.248  39.219   5.830
 3819POPC   GL251350   3.997  39.459   5.921
 3819POPC   C1A51351   4.463  39.020   6.223
 3819POPC   D2A51352   4.347  38.869   6.663
 3819POPC   C3A51353   4.583  39.056   7.022
 3819POPC   C4A51354   4.432  39.111   7.480
 3819POPC   C1B51355   3.969  39.187   6.295
 3819POPC   C2B51356   3.891  39.110   6.748
 3819POPC   C3B51357   4.091  39.232   7.132
 3819POPC   C4B51358   4.007  39.339   7.628
 3820POPC   NC351359  39.470  22.294   5.420
 3820POPC   PO451360  39.301  21.747   5.792
 3820POPC   GL151361  39.033  21.986   6.022
 3820POPC   GL251362  39.150  22.296   5.869
 3820POPC   C1A51363  39.027  21.977   6.463
 3820POPC   D2A51364  39.419  21.900   6.690
 3820POPC   C3A51365  39.344  21.956   7.094
 3820POPC   C4A51366  39.065  21.995   7.431
 3820POPC   C1B51367  39.293  22.380   6.311
 3820POPC   C2B51368  39.218  22.360   6.772
 3820POPC   C3B51369  39.217  22.435   7.210
 3820POPC   C4B51370  39.492  22.721   7.472
 3821POPC   NC351371   1.448   6.269   5.558
 3821POPC   PO451372   1.181   5.755   5.161
 3821POPC   GL151373   1.242   5.643   5.667
 3821POPC   GL251374   1.484   5.856   5.863
 3821POPC   C1A51375   1.106   5.658   6.157
 3821POPC   D2A51376   1.331   5.709   6.603
 3821POPC   C3A51377   1.163   5.819   7.053
 3821POPC   C4A51378   1.002   5.596   7.449
 3821POPC   C1B51379   1.368   6.094   6.243
 3821POPC   C2B51380   1.557   6.240   6.636
 3821POPC   C3B51381   1.592   6.380   7.054
 3821POPC   C4B51382   1.454   6.138   7.406
 3822POPC   NC351383  13.398  42.087   5.499
 3822POPC   PO451384  13.745  42.664   5.449
 3822POPC   GL151385  13.705  42.423   5.829
 3822POPC   GL251386  13.394  42.389   5.892
 3822POPC   C1A51387  13.812  42.284   6.266
 3822POPC   D2A51388  13.828  42.034   6.642
 3822POPC   C3A51389  13.690  42.235   7.006
 3822POPC   C4A51390  13.761  42.178   7.437
 3822POPC   C1B51391  13.320  42.153   6.211
 3822POPC   C2B51392  13.330  42.288   6.613
 3822POPC   C3B51393  13.218  42.078   6.966
 3822POPC   C4B51394  13.265  42.173   7.379
 3823POPC   NC351395   9.937  11.605   5.483
 3823POPC   PO451396   9.409  11.131   5.378
 3823POPC   GL151397   9.599  11.226   5.794
 3823POPC   GL251398   9.648  11.549   5.899
 3823POPC   C1A51399   9.743  11.133   6.231
 3823POPC   D2A51400   9.626  11.079   6.683
 3823POPC   C3A51401   9.773  11.263   7.083
 3823POPC   C4A51402   9.565  11.192   7.487
 3823POPC   C1B51403   9.498  11.580   6.306
 3823POPC   C2B51404   9.605  11.613   6.747
 3823POPC   C3B51405   9.452  11.653   7.171
 3823POPC   C4B51406   9.767  11.657   7.464
 3824POPC   NC351407  12.106  39.004   5.273
 3824POPC   PO451408  12.230  39.526   5.622
 3824POPC   GL151409  12.010  39.197   5.860
 3824POPC   GL251410  11.637  39.079   5.728
 3824POPC   C1A51411  12.065  39.194   6.335
 3824POPC   D2A51412  12.000  39.390   6.748
 3824POPC   C3A51413  12.266  39.367   7.108
 3824POPC   C4A51414  12.141  39.256   7.517
 3824POPC   C1B51415  11.688  38.903   6.141
 3824POPC   C2B51416  11.868  38.792   6.570
 3824POPC   C3B51417  12.050  38.890   6.993
 3824POPC   C4B51418  11.839  38.850   7.409
 3825POPC   NC351419   9.064  29.878   5.330
 3825POPC   PO451420   8.558  29.404   5.307
 3825POPC   GL151421   8.822  29.567   5.718
 3825POPC   GL251422   9.142  29.735   5.837
 3825POPC   C1A51423   8.794  29.835   6.156
 3825POPC   D2A51424   8.799  30.005   6.576
 3825POPC   C3A51425   8.882  29.782   6.957
 3825POPC   C4A51426   8.798  29.784   7.420
 3825POPC   C1B51427   9.270  29.984   6.285
 3825POPC   C2B51428   9.224  30.260   6.698
 3825POPC   C3B51429   9.111  30.279   7.155
 3825POPC   C4B51430   9.129  30.130   7.635
 3826POPC   NC351431  10.888  43.183   5.454
 3826POPC   PO451432  11.520  42.935   5.571
 3826POPC   GL151433  11.174  42.939   5.830
 3826POPC   GL251434  10.962  42.684   5.685
 3826POPC   C1A51435  11.149  43.075   6.291
 3826POPC   D2A51436  11.374  43.270   6.637
 3826POPC   C3A51437  11.336  43.191   7.071
 3826POPC   C4A51438  11.656  43.157   7.401
 3826POPC   C1B51439  10.988  42.608   6.149
 3826POPC   C2B51440  10.894  42.681   6.604
 3826POPC   C3B51441  11.036  42.777   7.035
 3826POPC   C4B51442  10.899  42.773   7.464
 3827POPC   NC351443  41.626  32.333   5.400
 3827POPC   PO451444  41.988  31.773   5.438
 3827POPC   GL151445  41.818  32.037   5.809
 3827POPC   GL251446  41.694  32.392   5.904
 3827POPC   C1A51447  41.731  31.958   6.256
 3827POPC   D2A51448  41.525  32.151   6.643
 3827POPC   C3A51449  41.783  32.172   7.045
 3827POPC   C4A51450  41.858  32.241   7.535
 3827POPC   C1B51451  41.342  32.623   6.140
 3827POPC   C2B51452  41.292  32.754   6.569
 3827POPC   C3B51453  41.498  32.619   6.936
 3827POPC   C4B51454  41.421  32.377   7.319
 3828POPC   NC351455  29.715  34.587   5.326
 3828POPC   PO451456  30.238  34.304   5.529
 3828POPC   GL151457  29.926  34.364   5.843
 3828POPC   GL251458  30.184  34.482   6.080
 3828POPC   C1A51459  29.735  34.392   6.273
 3828POPC   D2A51460  29.783  34.584   6.681
 3828POPC   C3A51461  29.997  34.385   7.026
 3828POPC   C4A51462  30.147  34.271   7.432
 3828POPC   C1B51463  30.053  34.864   6.323
 3828POPC   C2B51464  30.007  35.035   6.763
 3828POPC   C3B51465  30.207  34.874   7.154
 3828POPC   C4B51466  30.296  34.744   7.606
 3829POPC   NC351467  36.445  33.583   5.332
 3829POPC   PO451468  36.201  34.203   5.435
 3829POPC   GL151469  36.121  34.027   5.819
 3829POPC   GL251470  36.369  33.755   5.818
 3829POPC   C1A51471  36.239  34.085   6.260
 3829POPC   D2A51472  36.532  34.205   6.596
 3829POPC   C3A51473  36.274  34.090   6.970
 3829POPC   C4A51474  35.907  34.298   7.071
 3829POPC   C1B51475  36.111  33.582   6.166
 3829POPC   C2B51476  35.846  33.579   6.581
 3829POPC   C3B51477  36.091  33.517   6.991
 3829POPC   C4B51478  36.500  33.311   6.948
 3830POPC   NC351479   2.335  11.253   5.641
 3830POPC   PO451480   2.884  11.268   5.269
 3830POPC   GL151481   2.814  11.393   5.725
 3830POPC   GL251482   3.076  11.288   5.876
 3830POPC   C1A51483   2.667  11.374   6.203
 3830POPC   D2A51484   2.580  11.250   6.628
 3830POPC   C3A51485   2.677  11.406   6.998
 3830POPC   C4A51486   2.402  11.592   7.270
 3830POPC   C1B51487   3.197  11.317   6.238
 3830POPC   C2B51488   3.075  11.098   6.574
 3830POPC   C3B51489   3.169  11.209   6.979
 3830POPC   C4B51490   3.319  11.321   7.407
 3831POPC   NC351491  18.077  20.991   5.145
 3831POPC   PO451492  18.479  20.542   5.282
 3831POPC   GL151493  18.327  20.739   5.689
 3831POPC   GL251494  18.084  20.552   5.882
 3831POPC   C1A51495  18.474  20.742   6.149
 3831POPC   D2A51496  18.245  20.576   6.531
 3831POPC   C3A51497  18.286  20.651   6.983
 3831POPC   C4A51498  18.363  20.938   7.309
 3831POPC   C1B51499  18.289  20.240   6.145
 3831POPC   C2B51500  18.363  20.037   6.549
 3831POPC   C3B51501  18.262  20.119   6.957
 3831POPC   C4B51502  18.036  20.234   7.274
 3832POPC   NC351503  17.910  44.187   5.448
 3832POPC   PO451504  17.391  43.671   5.467
 3832POPC   GL151505  17.693  43.783   5.804
 3832POPC   GL251506  17.963  43.528   5.843
 3832POPC   C1A51507  17.568  43.933   6.221
 3832POPC   D2A51508  17.490  44.187   6.586
 3832POPC   C3A51509  17.491  43.914   6.928
 3832POPC   C4A51510  17.564  43.967   7.381
 3832POPC   C1B51511  17.768  43.451   6.251
 3832POPC   C2B51512  17.749  43.544   6.704
 3832POPC   C3B51513  17.673  43.516   7.183
 3832POPC   C4B51514  17.519  43.538   7.666
 3833POPC   NC351515  20.509  44.256   5.445
 3833POPC   PO451516  20.415  44.875   5.635
 3833POPC   GL151517  20.390  44.493   5.897
 3833POPC   GL251518  20.725  44.336   5.902
 3833POPC   C1A51519  20.265  44.514   6.335
 3833POPC   D2A51520  20.225  44.715   6.756
 3833POPC   C3A51521  20.532  44.728   7.121
 3833POPC   C4A51522  20.559  44.438   7.484
 3833POPC   C1B51523  20.766  44.536   6.295
 3833POPC   C2B51524  20.646  44.369   6.709
 3833POPC   C3B51525  20.885  44.356   7.108
 3833POPC   C4B51526  21.045  44.623   7.469
 3834POPC   NC351527  38.793  36.876   5.451
 3834POPC   PO451528  39.426  36.894   5.305
 3834POPC   GL151529  39.219  36.839   5.782
 3834POPC   GL251530  38.930  37.036   5.919
 3834POPC   C1A51531  39.392  36.700   6.217
 3834POPC   D2A51532  39.269  36.498   6.634
 3834POPC   C3A51533  39.230  36.707   7.068
 3834POPC   C4A51534  39.043  36.730   7.489
 3834POPC   C1B51535  38.953  36.914   6.363
 3834POPC   C2B51536  38.684  36.934   6.707
 3834POPC   C3B51537  38.744  37.254   6.978
 3834POPC   C4B51538  39.085  37.213   7.219
 3835POPC   NC351539  21.278  41.736   5.423
 3835POPC   PO451540  21.946  41.586   5.336
 3835POPC   GL151541  21.660  41.496   5.697
 3835POPC   GL251542  21.578  41.862   5.829
 3835POPC   C1A51543  21.382  41.470   6.086
 3835POPC   D2A51544  21.503  41.444   6.531
 3835POPC   C3A51545  21.339  41.624   6.921
 3835POPC   C4A51546  21.204  41.394   7.279
 3835POPC   C1B51547  21.738  41.849   6.274
 3835POPC   C2B51548  21.700  42.027   6.712
 3835POPC   C3B51549  21.766  41.899   7.150
 3835POPC   C4B51550  21.526  41.751   7.482
 3836POPC   NC351551  18.650   3.936   5.600
 3836POPC   PO451552  19.038   4.362   5.253
 3836POPC   GL151553  19.014   4.345   5.716
 3836POPC   GL251554  18.661   4.361   5.875
 3836POPC   C1A51555  19.065   4.526   6.140
 3836POPC   D2A51556  18.785   4.480   6.499
 3836POPC   C3A51557  18.935   4.330   6.863
 3836POPC   C4A51558  19.101   4.602   7.174
 3836POPC   C1B51559  18.714   4.053   6.233
 3836POPC   C2B51560  18.745   3.858   6.643
 3836POPC   C3B51561  18.616   3.936   7.048
 3836POPC   C4B51562  18.833   4.216   7.367
 3837POPC   NC351563   9.338   8.320   5.723
 3837POPC   PO451564   8.885   8.211   5.220
 3837POPC   GL151565   8.776   8.109   5.702
 3837POPC   GL251566   9.050   7.972   5.963
 3837POPC   C1A51567   8.588   8.017   6.149
 3837POPC   D2A51568   8.807   7.946   6.570
 3837POPC   C3A51569   8.699   8.126   6.974
 3837POPC   C4A51570   8.783   7.966   7.391
 3837POPC   C1B51571   8.959   8.353   6.255
 3837POPC   C2B51572   9.047   8.439   6.683
 3837POPC   C3B51573   9.216   8.260   7.071
 3837POPC   C4B51574   9.074   8.407   7.477
 3838POPC   NC351575  22.953  24.939   5.480
 3838POPC   PO451576  22.910  24.213   5.497
 3838POPC   GL151577  22.864  24.566   5.827
 3838POPC   GL251578  22.582  24.474   5.984
 3838POPC   C1A51579  22.839  24.798   6.253
 3838POPC   D2A51580  23.033  24.934   6.624
 3838POPC   C3A51581  22.846  24.837   6.999
 3838POPC   C4A51582  23.095  24.526   7.174
 3838POPC   C1B51583  22.948  24.278   6.257
 3838POPC   C2B51584  23.033  24.062   6.680
 3838POPC   C3B51585  22.932  24.061   7.139
 3838POPC   C4B51586  23.048  24.160   7.561
 3839POPC   NC351587  25.646  11.943   5.361
 3839POPC   PO451588  26.329  11.968   5.427
 3839POPC   GL151589  26.081  11.830   5.782
 3839POPC   GL251590  25.969  12.150   5.875
 3839POPC   C1A51591  26.262  11.615   6.145
 3839POPC   D2A51592  26.395  11.721   6.567
 3839POPC   C3A51593  26.141  11.985   6.852
 3839POPC   C4A51594  26.021  11.942   7.278
 3839POPC   C1B51595  26.066  12.060   6.334
 3839POPC   C2B51596  25.734  12.214   6.681
 3839POPC   C3B51597  25.602  12.178   7.121
 3839POPC   C4B51598  25.721  12.247   7.570
 3840POPC   NC351599  23.905  25.004   5.422
 3840POPC   PO451600  23.973  25.701   5.409
 3840POPC   GL151601  23.845  25.413   5.747
 3840POPC   GL251602  24.098  25.155   5.869
 3840POPC   C1A51603  23.639  25.291   6.129
 3840POPC   D2A51604  23.573  25.091   6.516
 3840POPC   C3A51605  23.520  25.430   6.816
 3840POPC   C4A51606  23.482  25.373   7.274
 3840POPC   C1B51607  24.062  25.069   6.306
 3840POPC   C2B51608  24.025  25.368   6.636
 3840POPC   C3B51609  23.964  25.375   7.076
 3840POPC   C4B51610  23.836  25.008   7.294
 3841POPC   NC351611  30.335  19.561   5.342
 3841POPC   PO451612  29.648  19.903   5.418
 3841POPC   GL151613  29.758  19.807   5.778
 3841POPC   GL251614  29.674  19.464   5.819
 3841POPC   C1A51615  29.759  20.039   6.148
 3841POPC   D2A51616  29.875  19.914   6.533
 3841POPC   C3A51617  29.544  19.914   6.806
 3841POPC   C4A51618  29.675  19.892   7.205
 3841POPC   C1B51619  29.970  19.540   6.155
 3841POPC   C2B51620  30.137  19.411   6.550
 3841POPC   C3B51621  30.002  19.585   6.931
 3841POPC   C4B51622  29.915  19.422   7.318
 3842POPC   NC351623  12.013  17.014   5.461
 3842POPC   PO451624  12.288  17.609   5.289
 3842POPC   GL151625  12.216  17.678   5.740
 3842POPC   GL251626  12.099  17.351   5.848
 3842POPC   C1A51627  12.134  17.709   6.213
 3842POPC   D2A51628  12.290  17.547   6.634
 3842POPC   C3A51629  12.026  17.536   7.035
 3842POPC   C4A51630  12.171  17.356   7.430
 3842POPC   C1B51631  12.184  17.196   6.279
 3842POPC   C2B51632  11.915  17.169   6.673
 3842POPC   C3B51633  11.829  17.047   7.121
 3842POPC   C4B51634  11.898  16.911   7.552
 3843POPC   NC351635  13.743  24.610   5.479
 3843POPC   PO451636  13.040  24.602   5.520
 3843POPC   GL151637  13.351  24.443   5.794
 3843POPC   GL251638  13.494  24.773   5.930
 3843POPC   C1A51639  13.536  24.339   6.193
 3843POPC   D2A51640  13.488  24.615   6.546
 3843POPC   C3A51641  13.575  24.375   6.898
 3843POPC   C4A51642  13.328  24.350   7.259
 3843POPC   C1B51643  13.879  24.737   6.207
 3843POPC   C2B51644  14.004  24.622   6.647
 3843POPC   C3B51645  13.945  24.824   7.074
 3843POPC   C4B51646  14.034  24.811   7.539
 3844POPC   NC351647   6.289  29.888   5.300
 3844POPC   PO451648   5.813  30.165   5.658
 3844POPC   GL151649   6.151  30.042   5.886
 3844POPC   GL251650   6.066  29.716   5.905
 3844POPC   C1A51651   6.105  30.111   6.339
 3844POPC   D2A51652   5.746  30.160   6.639
 3844POPC   C3A51653   5.850  30.116   7.077
 3844POPC   C4A51654   6.235  29.912   7.153
 3844POPC   C1B51655   5.730  29.781   6.230
 3844POPC   C2B51656   5.690  29.618   6.648
 3844POPC   C3B51657   5.562  29.688   7.069
 3844POPC   C4B51658   5.449  29.721   7.515
 3845POPC   NC351659  30.054  31.589   5.542
 3845POPC   PO451660  29.599  31.130   5.266
 3845POPC   GL151661  29.624  31.286   5.713
 3845POPC   GL251662  29.690  31.614   5.888
 3845POPC   C1A51663  29.667  31.204   6.176
 3845POPC   D2A51664  29.541  31.294   6.579
 3845POPC   C3A51665  29.860  31.476   6.779
 3845POPC   C4A51666  29.813  31.613   7.164
 3845POPC   C1B51667  29.987  31.618   6.240
 3845POPC   C2B51668  30.137  31.876   6.596
 3845POPC   C3B51669  30.180  31.963   7.068
 3845POPC   C4B51670  30.241  31.679   7.428
 3846POPC   NC351671  23.967  12.686   5.587
 3846POPC   PO451672  23.674  13.140   5.251
 3846POPC   GL151673  23.748  13.168   5.765
 3846POPC   GL251674  23.676  12.855   5.993
 3846POPC   C1A51675  23.886  13.266   6.210
 3846POPC   D2A51676  23.738  13.310   6.666
 3846POPC   C3A51677  23.969  13.161   7.027
 3846POPC   C4A51678  23.920  12.802   7.273
 3846POPC   C1B51679  23.696  12.720   6.467
 3846POPC   C2B51680  23.415  12.593   6.854
 3846POPC   C3B51681  23.365  12.539   7.313
 3846POPC   C4B51682  23.653  12.611   7.655
 3847POPC   NC351683  17.761   4.192   5.441
 3847POPC   PO451684  17.187   4.420   5.309
 3847POPC   GL151685  17.410   4.539   5.691
 3847POPC   GL251686  17.530   4.234   5.899
 3847POPC   C1A51687  17.261   4.603   6.124
 3847POPC   D2A51688  17.359   4.326   6.456
 3847POPC   C3A51689  17.259   4.422   6.868
 3847POPC   C4A51690  17.483   4.683   7.156
 3847POPC   C1B51691  17.829   4.222   6.261
 3847POPC   C2B51692  17.991   4.198   6.697
 3847POPC   C3B51693  17.685   4.192   7.029
 3847POPC   C4B51694  17.363   4.230   7.344
 3848POPC   NC351695  34.530  11.620   5.441
 3848POPC   PO451696  34.699  10.954   5.338
 3848POPC   GL151697  34.634  10.985   5.805
 3848POPC   GL251698  34.589  11.322   5.852
 3848POPC   C1A51699  34.831  11.110   6.243
 3848POPC   D2A51700  34.617  11.116   6.667
 3848POPC   C3A51701  34.846  11.211   7.087
 3848POPC   C4A51702  34.889  11.214   7.562
 3848POPC   C1B51703  34.400  11.391   6.249
 3848POPC   C2B51704  34.249  11.480   6.664
 3848POPC   C3B51705  34.373  11.380   7.058
 3848POPC   C4B51706  34.558  11.567   7.401
 3849POPC   NC351707  26.013  27.921   5.406
 3849POPC   PO451708  25.489  27.872   5.793
 3849POPC   GL151709  25.900  27.688   5.840
 3849POPC   GL251710  25.966  27.369   5.693
 3849POPC   C1A51711  26.308  27.598   6.070
 3849POPC   D2A51712  26.369  27.369   6.471
 3849POPC   C3A51713  26.295  27.569   6.873
 3849POPC   C4A51714  26.064  27.737   7.196
 3849POPC   C1B51715  25.920  27.292   6.154
 3849POPC   C2B51716  25.858  27.498   6.574
 3849POPC   C3B51717  25.835  27.325   6.994
 3849POPC   C4B51718  25.507  27.082   7.151
 3850POPC   NC351719   3.866   6.439   5.411
 3850POPC   PO451720   3.522   7.085   5.363
 3850POPC   GL151721   3.620   6.777   5.688
 3850POPC   GL251722   3.349   6.660   5.858
 3850POPC   C1A51723   3.774   6.587   6.109
 3850POPC   D2A51724   3.557   6.645   6.498
 3850POPC   C3A51725   3.811   6.643   6.856
 3850POPC   C4A51726   3.656   6.544   7.268
 3850POPC   C1B51727   3.293   6.351   6.166
 3850POPC   C2B51728   3.183   6.263   6.536
 3850POPC   C3B51729   3.319   6.423   6.911
 3850POPC   C4B51730   3.164   6.441   7.312
 3851POPC   NC351731  14.150  28.603   4.985
 3851POPC   PO451732  14.436  28.159   5.326
 3851POPC   GL151733  14.305  28.286   5.736
 3851POPC   GL251734  14.076  28.024   5.778
 3851POPC   C1A51735  14.359  28.540   6.112
 3851POPC   D2A51736  14.460  28.405   6.505
 3851POPC   C3A51737  14.464  28.668   6.845
 3851POPC   C4A51738  14.496  28.390   7.153
 3851POPC   C1B51739  14.087  28.097   6.208
 3851POPC   C2B51740  14.037  28.145   6.628
 3851POPC   C3B51741  14.243  28.001   6.968
 3851POPC   C4B51742  14.106  27.721   7.268
 3852POPC   NC351743  12.508   1.032   5.021
 3852POPC   PO451744  12.092   1.394   5.537
 3852POPC   GL151745  12.051   1.167   5.857
 3852POPC   GL251746  12.028   1.481   6.053
 3852POPC   C1A51747  12.248   1.005   6.185
 3852POPC   D2A51748  12.120   1.171   6.529
 3852POPC   C3A51749  12.159   0.937   6.883
 3852POPC   C4A51750  12.350   1.030   7.271
 3852POPC   C1B51751  11.678   1.583   6.300
 3852POPC   C2B51752  11.702   1.490   6.720
 3852POPC   C3B51753  12.108   1.461   6.933
 3852POPC   C4B51754  12.235   1.552   7.309
 3853POPC   NC351755  21.716  34.918   5.391
 3853POPC   PO451756  20.970  35.021   5.523
 3853POPC   GL151757  21.316  34.707   5.650
 3853POPC   GL251758  21.291  34.315   5.671
 3853POPC   C1A51759  21.341  34.638   6.083
 3853POPC   D2A51760  21.180  34.415   6.435
 3853POPC   C3A51761  21.366  34.654   6.770
 3853POPC   C4A51762  21.343  34.618   7.204
 3853POPC   C1B51763  21.480  34.134   6.063
 3853POPC   C2B51764  21.583  34.079   6.490
 3853POPC   C3B51765  21.429  34.168   6.895
 3853POPC   C4B51766  21.691  34.242   7.255
 3854POPC   NC351767  11.319   2.403   5.473
 3854POPC   PO451768  11.078   3.037   5.298
 3854POPC   GL151769  11.136   2.900   5.781
 3854POPC   GL251770  11.018   2.516   5.847
 3854POPC   C1A51771  11.160   3.101   6.237
 3854POPC   D2A51772  11.388   3.007   6.646
 3854POPC   C3A51773  11.328   3.050   7.103
 3854POPC   C4A51774  11.418   2.913   7.572
 3854POPC   C1B51775  11.329   2.600   6.177
 3854POPC   C2B51776  11.488   2.487   6.572
 3854POPC   C3B51777  11.425   2.461   7.011
 3854POPC   C4B51778  11.261   2.450   7.438
 3855POPC   NC351779  41.107  15.190   5.242
 3855POPC   PO451780  40.438  15.109   5.287
 3855POPC   GL151781  40.724  15.291   5.625
 3855POPC   GL251782  40.559  15.071   5.837
 3855POPC   C1A51783  40.854  15.331   6.134
 3855POPC   D2A51784  40.715  15.256   6.620
 3855POPC   C3A51785  40.895  15.430   7.075
 3855POPC   C4A51786  40.993  15.116   7.465
 3855POPC   C1B51787  40.422  14.901   6.265
 3855POPC   C2B51788  40.353  14.895   6.731
 3855POPC   C3B51789  40.629  15.011   7.103
 3855POPC   C4B51790  40.531  15.266   7.513
 3856POPC   NC351791  17.398  42.299   5.358
 3856POPC   PO451792  17.985  42.216   5.630
 3856POPC   GL151793  17.571  42.253   5.857
 3856POPC   GL251794  17.256  42.483   5.810
 3856POPC   C1A51795  17.560  42.270   6.299
 3856POPC   D2A51796  17.832  42.386   6.632
 3856POPC   C3A51797  17.702  42.126   6.970
 3856POPC   C4A51798  17.392  41.950   7.239
 3856POPC   C1B51799  17.405  42.727   6.135
 3856POPC   C2B51800  17.394  42.704   6.570
 3856POPC   C3B51801  17.372  42.770   6.980
 3856POPC   C4B51802  17.336  42.445   7.194
 3857POPC   NC351803  25.672  31.040   5.368
 3857POPC   PO451804  26.135  30.579   5.216
 3857POPC   GL151805  25.926  30.635   5.612
 3857POPC   GL251806  26.227  30.812   5.715
 3857POPC   C1A51807  25.726  30.763   6.028
 3857POPC   D2A51808  25.894  30.726   6.457
 3857POPC   C3A51809  25.837  30.891   6.868
 3857POPC   C4A51810  26.050  30.832   7.259
 3857POPC   C1B51811  26.213  30.563   6.087
 3857POPC   C2B51812  26.401  30.622   6.527
 3857POPC   C3B51813  26.407  30.617   6.964
 3857POPC   C4B51814  26.221  30.348   7.269
 3858POPC   NC351815   6.362  44.385   5.320
 3858POPC   PO451816   6.748  43.808   5.173
 3858POPC   GL151817   6.822  43.964   5.617
 3858POPC   GL251818   6.606  44.243   5.780
 3858POPC   C1A51819   6.816  43.901   6.083
 3858POPC   D2A51820   6.952  44.005   6.515
 3858POPC   C3A51821   6.744  43.763   6.851
 3858POPC   C4A51822   6.829  43.627   7.297
 3858POPC   C1B51823   6.567  44.317   6.282
 3858POPC   C2B51824   6.611  44.273   6.771
 3858POPC   C3B51825   6.788  44.129   7.192
 3858POPC   C4B51826   6.622  43.998   7.607
 3859POPC   NC351827  42.259  37.959   5.489
 3859POPC   PO451828  42.459  37.355   5.186
 3859POPC   GL151829  42.386  37.455   5.662
 3859POPC   GL251830  42.631  37.660   5.758
 3859POPC   C1A51831  42.205  37.537   6.136
 3859POPC   D2A51832  42.072  37.524   6.612
 3859POPC   C3A51833  42.330  37.723   6.935
 3859POPC   C4A51834  42.351  37.639   7.363
 3859POPC   C1B51835  42.705  37.432   6.143
 3859POPC   C2B51836  42.590  37.461   6.582
 3859POPC   C3B51837  42.594  37.321   7.018
 3859POPC   C4B51838  42.896  37.450   7.312
 3860POPC   NC351839  13.661  43.834   5.376
 3860POPC   PO451840  13.510  44.437   5.508
 3860POPC   GL151841  13.411  44.107   5.741
 3860POPC   GL251842  13.758  44.069   5.842
 3860POPC   C1A51843  13.407  43.825   6.116
 3860POPC   D2A51844  13.624  43.944   6.493
 3860POPC   C3A51845  13.437  43.930   6.860
 3860POPC   C4A51846  13.473  43.630   7.164
 3860POPC   C1B51847  13.961  43.818   6.140
 3860POPC   C2B51848  13.968  43.549   6.540
 3860POPC   C3B51849  13.959  43.613   6.955
 3860POPC   C4B51850  13.979  43.928   7.212
 3861POPC   NC351851   9.866  24.723   5.502
 3861POPC   PO451852   9.284  24.346   5.355
 3861POPC   GL151853   9.588  24.398   5.758
 3861POPC   GL251854   9.620  24.742   5.934
 3861POPC   C1A51855   9.676  24.192   6.161
 3861POPC   D2A51856   9.723  24.398   6.565
 3861POPC   C3A51857   9.800  24.201   6.961
 3861POPC   C4A51858  10.106  24.369   7.232
 3861POPC   C1B51859   9.590  24.903   6.365
 3861POPC   C2B51860   9.494  24.804   6.796
 3861POPC   C3B51861   9.713  24.728   7.149
 3861POPC   C4B51862  10.107  24.874   7.106
 3862POPC   NC351863   7.456  33.009   4.935
 3862POPC   PO451864   7.580  33.172   5.534
 3862POPC   GL151865   7.335  33.133   5.880
 3862POPC   GL251866   7.365  32.764   5.861
 3862POPC   C1A51867   7.388  33.219   6.331
 3862POPC   D2A51868   7.647  33.117   6.720
 3862POPC   C3A51869   7.382  33.131   7.088
 3862POPC   C4A51870   7.088  33.324   7.365
 3862POPC   C1B51871   7.138  32.759   6.233
 3862POPC   C2B51872   7.168  32.870   6.645
 3862POPC   C3B51873   7.188  32.668   7.010
 3862POPC   C4B51874   7.617  32.654   7.188
 3863POPC   NC351875  14.984   2.474   5.293
 3863POPC   PO451876  15.468   2.886   5.323
 3863POPC   GL151877  15.276   2.680   5.701
 3863POPC   GL251878  14.899   2.707   5.731
 3863POPC   C1A51879  15.197   2.555   6.132
 3863POPC   D2A51880  15.167   2.329   6.501
 3863POPC   C3A51881  15.176   2.576   6.876
 3863POPC   C4A51882  14.919   2.644   7.195
 3863POPC   C1B51883  14.899   2.967   6.102
 3863POPC   C2B51884  15.064   2.902   6.500
 3863POPC   C3B51885  14.947   3.052   6.891
 3863POPC   C4B51886  15.136   3.127   7.255
 3864POPC   NC351887  11.715   1.209   5.345
 3864POPC   PO451888  11.056   1.197   5.132
 3864POPC   GL151889  11.297   1.144   5.630
 3864POPC   GL251890  11.570   1.312   5.849
 3864POPC   C1A51891  11.200   1.031   6.054
 3864POPC   D2A51892  11.310   1.234   6.434
 3864POPC   C3A51893  11.236   1.118   6.839
 3864POPC   C4A51894  11.225   1.270   7.246
 3864POPC   C1B51895  11.721   1.056   6.213
 3864POPC   C2B51896  11.675   0.904   6.647
 3864POPC   C3B51897  11.715   1.113   7.057
 3864POPC   C4B51898  11.715   1.496   7.259
 3865POPC   NC351899  10.701   9.265   5.343
 3865POPC   PO451900  10.239   8.870   5.566
 3865POPC   GL151901  10.446   9.173   5.801
 3865POPC   GL251902  10.811   9.112   5.806
 3865POPC   C1A51903  10.607   9.358   6.184
 3865POPC   D2A51904  10.755   9.137   6.522
 3865POPC   C3A51905  10.688   9.337   6.902
 3865POPC   C4A51906  10.625   9.097   7.269
 3865POPC   C1B51907  10.728   8.790   6.144
 3865POPC   C2B51908  10.860   8.619   6.565
 3865POPC   C3B51909  10.746   8.641   7.009
 3865POPC   C4B51910  10.888   8.418   7.379
 3866POPC   NC351911  30.333   3.934   5.523
 3866POPC   PO451912  30.847   3.588   5.323
 3866POPC   GL151913  30.697   3.505   5.785
 3866POPC   GL251914  30.294   3.493   5.818
 3866POPC   C1A51915  30.901   3.581   6.222
 3866POPC   D2A51916  30.724   3.883   6.522
 3866POPC   C3A51917  30.708   3.769   6.943
 3866POPC   C4A51918  31.042   3.877   7.192
 3866POPC   C1B51919  30.387   3.549   6.258
 3866POPC   C2B51920  30.575   3.370   6.636
 3866POPC   C3B51921  30.577   3.292   7.091
 3866POPC   C4B51922  30.711   3.572   7.447
 3867POPC   NC351923  13.157   6.056   5.330
 3867POPC   PO451924  12.645   5.600   5.391
 3867POPC   GL151925  12.869   5.847   5.739
 3867POPC   GL251926  13.199   5.684   5.763
 3867POPC   C1A51927  12.755   6.082   6.147
 3867POPC   D2A51928  12.633   6.052   6.578
 3867POPC   C3A51929  12.792   6.133   6.957
 3867POPC   C4A51930  12.791   5.859   7.249
 3867POPC   C1B51931  13.022   5.630   6.189
 3867POPC   C2B51932  13.072   5.787   6.602
 3867POPC   C3B51933  13.163   5.588   6.992
 3867POPC   C4B51934  13.270   5.741   7.385
 3868POPC   NC351935  16.364  16.324   5.439
 3868POPC   PO451936  15.870  16.728   5.354
 3868POPC   GL151937  16.125  16.772   5.726
 3868POPC   GL251938  15.894  17.012   5.859
 3868POPC   C1A51939  16.145  16.669   6.162
 3868POPC   D2A51940  16.277  16.636   6.573
 3868POPC   C3A51941  15.952  16.590   6.831
 3868POPC   C4A51942  16.019  16.590   7.245
 3868POPC   C1B51943  15.668  16.910   6.255
 3868POPC   C2B51944  15.601  16.944   6.719
 3868POPC   C3B51945  15.672  16.962   7.189
 3868POPC   C4B51946  15.517  17.089   7.621
 3869POPC   NC351947  41.190  31.462   5.221
 3869POPC   PO451948  40.526  31.340   5.522
 3869POPC   GL151949  40.869  31.539   5.786
 3869POPC   GL251950  41.050  31.303   6.000
 3869POPC   C1A51951  40.956  31.746   6.217
 3869POPC   D2A51952  41.065  31.869   6.656
 3869POPC   C3A51953  40.707  31.822   6.930
 3869POPC   C4A51954  40.596  31.662   7.329
 3869POPC   C1B51955  40.685  31.289   6.255
 3869POPC   C2B51956  40.481  31.169   6.622
 3869POPC   C3B51957  40.671  31.263   7.009
 3869POPC   C4B51958  41.023  31.091   7.193
 3870POPC   NC351959  20.177  23.361   5.148
 3870POPC   PO451960  20.543  23.895   5.404
 3870POPC   GL151961  20.467  23.646   5.774
 3870POPC   GL251962  20.170  23.404   5.751
 3870POPC   C1A51963  20.669  23.676   6.187
 3870POPC   D2A51964  20.528  23.843   6.605
 3870POPC   C3A51965  20.826  23.833   6.961
 3870POPC   C4A51966  20.646  23.926   7.348
 3870POPC   C1B51967  20.193  23.562   6.215
 3870POPC   C2B51968  20.365  23.350   6.579
 3870POPC   C3B51969  20.519  23.416   7.006
 3870POPC   C4B51970  20.325  23.469   7.419
 3871POPC   NC351971  28.876   8.798   5.253
 3871POPC   PO451972  29.354   9.232   5.390
 3871POPC   GL151973  29.055   9.048   5.676
 3871POPC   GL251974  29.234   8.726   5.651
 3871POPC   C1A51975  28.905   9.088   6.115
 3871POPC   D2A51976  29.201   9.101   6.465
 3871POPC   C3A51977  29.165   8.912   6.862
 3871POPC   C4A51978  29.081   9.002   7.279
 3871POPC   C1B51979  29.069   8.595   6.076
 3871POPC   C2B51980  28.850   8.708   6.484
 3871POPC   C3B51981  28.831   8.513   6.903
 3871POPC   C4B51982  28.953   8.538   7.336
 3872POPC   NC351983  13.892   9.060   5.083
 3872POPC   PO451984  14.192   9.200   5.591
 3872POPC   GL151985  13.817   9.036   5.823
 3872POPC   GL251986  13.438   8.943   5.825
 3872POPC   C1A51987  13.751   8.933   6.235
 3872POPC   D2A51988  14.036   8.947   6.566
 3872POPC   C3A51989  13.946   9.119   6.963
 3872POPC   C4A51990  13.818   8.893   7.337
 3872POPC   C1B51991  13.206   8.941   6.178
 3872POPC   C2B51992  13.280   8.907   6.565
 3872POPC   C3B51993  13.497   8.884   6.911
 3872POPC   C4B51994  13.309   8.988   7.290
 3873POPC   NC351995  25.064  39.910   5.122
 3873POPC   PO451996  25.423  39.352   5.419
 3873POPC   GL151997  25.415  39.163   5.799
 3873POPC   GL251998  25.077  39.274   5.844
 3873POPC   C1A51999  25.385  39.133   6.229
 3873POPC   D2A52000  25.589  39.133   6.593
 3873POPC   C3A52001  25.414  39.247   6.946
 3873POPC   C4A52002  25.359  39.193   7.320
 3873POPC   C1B52003  25.136  39.580   6.183
 3873POPC   C2B52004  25.201  39.473   6.564
 3873POPC   C3B52005  25.126  39.674   6.942
 3873POPC   C4B52006  25.070  39.629   7.386
 3874POPC   NC352007  21.614  24.781   5.576
 3874POPC   PO452008  21.214  24.227   5.405
 3874POPC   GL152009  21.311  24.416   5.794
 3874POPC   GL252010  21.644  24.304   5.795
 3874POPC   C1A52011  21.200  24.581   6.216
 3874POPC   D2A52012  21.344  24.637   6.651
 3874POPC   C3A52013  21.116  24.388   6.988
 3874POPC   C4A52014  21.274  24.343   7.423
 3874POPC   C1B52015  21.691  24.348   6.252
 3874POPC   C2B52016  21.622  24.144   6.679
 3874POPC   C3B52017  21.625  24.408   7.044
 3874POPC   C4B52018  21.724  24.602   7.503
 3875POPC   NC352019  11.327   3.283   4.997
 3875POPC   PO452020  11.328   3.813   5.436
 3875POPC   GL152021  11.249   3.663   5.858
 3875POPC   GL252022  10.879   3.781   5.895
 3875POPC   C1A52023  11.488   3.561   6.237
 3875POPC   D2A52024  11.455   3.789   6.628
 3875POPC   C3A52025  11.467   3.542   6.979
 3875POPC   C4A52026  11.611   3.692   7.330
 3875POPC   C1B52027  11.019   3.743   6.325
 3875POPC   C2B52028  11.053   3.460   6.691
 3875POPC   C3B52029  10.977   3.448   7.154
 3875POPC   C4B52030  11.250   3.379   7.518
 3876POPC   NC352031  42.967  32.085   5.331
 3876POPC   PO452032  43.642  32.105   5.416
 3876POPC   GL152033  43.289  32.104   5.765
 3876POPC   GL252034  42.913  32.224   5.848
 3876POPC   C1A52035  43.186  31.990   6.199
 3876POPC   D2A52036  42.989  32.214   6.523
 3876POPC   C3A52037  43.206  32.196   6.895
 3876POPC   C4A52038  43.160  31.958   7.297
 3876POPC   C1B52039  42.814  32.592   6.118
 3876POPC   C2B52040  42.647  32.626   6.521
 3876POPC   C3B52041  42.774  32.563   6.931
 3876POPC   C4B52042  43.008  32.448   7.283
 3877POPC   NC352043  17.803  14.149   5.498
 3877POPC   PO452044  17.498  13.497   5.310
 3877POPC   GL152045  17.320  13.685   5.705
 3877POPC   GL252046  17.191  14.005   5.579
 3877POPC   C1A52047  17.240  13.537   6.129
 3877POPC   D2A52048  17.511  13.470   6.482
 3877POPC   C3A52049  17.359  13.480   6.891
 3877POPC   C4A52050  17.416  13.402   7.304
 3877POPC   C1B52051  17.107  14.052   6.024
 3877POPC   C2B52052  17.132  13.911   6.469
 3877POPC   C3B52053  17.298  13.981   6.877
 3877POPC   C4B52054  17.081  14.114   7.220
 3878POPC   NC352055  17.087  20.598   5.467
 3878POPC   PO452056  17.790  20.748   5.428
 3878POPC   GL152057  17.563  20.504   5.771
 3878POPC   GL252058  17.638  20.750   6.029
 3878POPC   C1A52059  17.246  20.456   6.156
 3878POPC   D2A52060  17.349  20.308   6.594
 3878POPC   C3A52061  17.281  20.617   6.946
 3878POPC   C4A52062  17.170  20.592   7.402
 3878POPC   C1B52063  17.787  20.374   6.297
 3878POPC   C2B52064  17.843  20.353   6.777
 3878POPC   C3B52065  17.793  20.673   7.154
 3878POPC   C4B52066  17.680  20.877   7.560
 3879POPC   NC352067  14.570  20.809   5.561
 3879POPC   PO452068  14.245  20.236   5.600
 3879POPC   GL152069  14.546  20.412   5.934
 3879POPC   GL252070  14.624  20.773   6.063
 3879POPC   C1A52071  14.498  20.431   6.415
 3879POPC   D2A52072  14.554  20.652   6.813
 3879POPC   C3A52073  14.248  20.476   7.118
 3879POPC   C4A52074  14.002  20.079   7.185
 3879POPC   C1B52075  14.224  20.885   6.276
 3879POPC   C2B52076  14.016  20.932   6.693
 3879POPC   C3B52077  14.240  20.992   7.069
 3879POPC   C4B52078  14.612  20.825   7.302
 3880POPC   NC352079  18.688  41.868   5.438
 3880POPC   PO452080  18.309  41.288   5.448
 3880POPC   GL152081  18.242  41.448   5.828
 3880POPC   GL252082  18.605  41.504   5.860
 3880POPC   C1A52083  18.206  41.634   6.226
 3880POPC   D2A52084  18.514  41.775   6.486
 3880POPC   C3A52085  18.408  41.757   6.931
 3880POPC   C4A52086  18.058  41.830   7.228
 3880POPC   C1B52087  18.509  41.239   6.222
 3880POPC   C2B52088  18.369  41.302   6.628
 3880POPC   C3B52089  18.429  41.140   7.009
 3880POPC   C4B52090  18.576  41.416   7.333
 3881POPC   NC352091  10.994   0.828   5.432
 3881POPC   PO452092  11.360   0.417   5.136
 3881POPC   GL152093  11.447   0.566   5.623
 3881POPC   GL252094  11.302   0.288   5.791
 3881POPC   C1A52095  11.477   0.610   6.138
 3881POPC   D2A52096  11.183   0.717   6.463
 3881POPC   C3A52097  11.245   0.592   6.863
 3881POPC   C4A52098  11.390   0.752   7.197
 3881POPC   C1B52099  11.188   0.209   6.205
 3881POPC   C2B52100  11.412   0.190   6.586
 3881POPC   C3B52101  11.289   0.094   7.018
 3881POPC   C4B52102  11.145   0.310   7.356
 3882POPC   NC352103  21.916  43.277   5.388
 3882POPC   PO452104  22.175  42.713   5.374
 3882POPC   GL152105  22.037  42.872   5.745
 3882POPC   GL252106  22.355  42.946   5.825
 3882POPC   C1A52107  21.990  42.821   6.196
 3882POPC   D2A52108  21.884  42.998   6.570
 3882POPC   C3A52109  21.993  42.922   6.987
 3882POPC   C4A52110  21.874  43.277   7.241
 3882POPC   C1B52111  22.496  42.901   6.246
 3882POPC   C2B52112  22.413  42.891   6.685
 3882POPC   C3B52113  22.693  42.874   7.044
 3882POPC   C4B52114  22.763  42.803   7.503
 3883POPC   NC352115  41.370  36.493   5.211
 3883POPC   PO452116  41.454  35.857   5.379
 3883POPC   GL152117  41.516  36.009   5.777
 3883POPC   GL252118  41.399  36.341   5.732
 3883POPC   C1A52119  41.667  35.973   6.206
 3883POPC   D2A52120  41.616  35.865   6.646
 3883POPC   C3A52121  41.773  36.177   6.975
 3883POPC   C4A52122  41.895  36.040   7.410
 3883POPC   C1B52123  41.210  36.201   6.143
 3883POPC   C2B52124  41.144  36.371   6.574
 3883POPC   C3B52125  41.276  36.210   6.967
 3883POPC   C4B52126  41.414  36.263   7.397
 3884POPC   NC352127  41.091  19.380   5.517
 3884POPC   PO452128  40.922  20.039   5.207
 3884POPC   GL152129  41.360  20.053   5.586
 3884POPC   GL252130  41.603  20.292   5.776
 3884POPC   C1A52131  41.380  19.956   6.088
 3884POPC   D2A52132  41.321  19.623   6.415
 3884POPC   C3A52133  41.304  19.713   6.853
 3884POPC   C4A52134  41.298  20.045   7.135
 3884POPC   C1B52135  41.708  20.285   6.263
 3884POPC   C2B52136  41.592  20.115   6.695
 3884POPC   C3B52137  41.781  20.163   7.136
 3884POPC   C4B52138  41.931  20.294   7.587
 3885POPC   NC352139   5.335  34.817   5.415
 3885POPC   PO452140   5.387  34.186   5.520
 3885POPC   GL152141   5.288  34.526   5.839
 3885POPC   GL252142   5.156  34.899   5.873
 3885POPC   C1A52143   5.130  34.478   6.252
 3885POPC   D2A52144   5.232  34.356   6.669
 3885POPC   C3A52145   4.993  34.521   7.004
 3885POPC   C4A52146   5.324  34.482   7.272
 3885POPC   C1B52147   5.493  34.857   6.186
 3885POPC   C2B52148   5.461  34.839   6.623
 3885POPC   C3B52149   5.136  35.005   6.888
 3885POPC   C4B52150   5.098  34.934   7.316
 3886POPC   NC352151  16.935  19.771   5.376
 3886POPC   PO452152  16.440  19.344   5.425
 3886POPC   GL152153  16.710  19.588   5.783
 3886POPC   GL252154  16.563  19.917   5.883
 3886POPC   C1A52155  16.688  19.587   6.248
 3886POPC   D2A52156  16.487  19.886   6.526
 3886POPC   C3A52157  16.599  19.911   6.945
 3886POPC   C4A52158  16.830  19.691   7.256
 3886POPC   C1B52159  16.897  20.050   6.190
 3886POPC   C2B52160  17.027  19.902   6.602
 3886POPC   C3B52161  17.072  20.082   7.017
 3886POPC   C4B52162  16.800  20.180   7.358
 3887POPC   NC352163  42.362  27.070   5.638
 3887POPC   PO452164  42.035  26.610   5.374
 3887POPC   GL152165  42.033  26.687   5.813
 3887POPC   GL252166  42.293  26.490   5.864
 3887POPC   C1A52167  41.937  26.664   6.275
 3887POPC   D2A52168  42.025  26.643   6.740
 3887POPC   C3A52169  42.184  27.032   6.954
 3887POPC   C4A52170  42.239  27.044   7.423
 3887POPC   C1B52171  42.452  26.534   6.290
 3887POPC   C2B52172  42.549  26.485   6.737
 3887POPC   C3B52173  42.443  26.653   7.147
 3887POPC   C4B52174  42.709  26.844   7.452
 3888POPC   NC352175   9.417  25.499   5.060
 3888POPC   PO452176   9.650  25.140   5.587
 3888POPC   GL152177   9.662  25.260   5.973
 3888POPC   GL252178   9.933  25.483   5.913
 3888POPC   C1A52179   9.457  25.420   6.332
 3888POPC   D2A52180   9.539  25.562   6.753
 3888POPC   C3A52181   9.638  25.232   7.059
 3888POPC   C4A52182   9.814  25.181   7.444
 3888POPC   C1B52183   9.972  25.424   6.343
 3888POPC   C2B52184   9.991  25.212   6.701
 3888POPC   C3B52185  10.116  25.376   7.063
 3888POPC   C4B52186   9.910  25.662   7.273
 3889POPC   NC352187   4.447  25.034   5.181
 3889POPC   PO452188   3.921  25.216   5.491
 3889POPC   GL152189   4.328  25.184   5.823
 3889POPC   GL252190   4.692  25.252   5.858
 3889POPC   C1A52191   4.397  25.225   6.300
 3889POPC   D2A52192   4.524  25.380   6.722
 3889POPC   C3A52193   4.280  25.270   7.106
 3889POPC   C4A52194   4.164  25.400   7.534
 3889POPC   C1B52195   4.844  24.997   6.225
 3889POPC   C2B52196   4.923  25.075   6.657
 3889POPC   C3B52197   4.733  25.047   7.052
 3889POPC   C4B52198   4.629  25.172   7.472
 3890POPC   NC352199  25.462  29.605   5.513
 3890POPC   PO452200  25.397  30.282   5.454
 3890POPC   GL152201  25.366  30.017   5.852
 3890POPC   GL252202  25.040  29.850   5.873
 3890POPC   C1A52203  25.503  29.848   6.280
 3890POPC   D2A52204  25.715  29.922   6.694
 3890POPC   C3A52205  25.730  29.588   7.007
 3890POPC   C4A52206  25.398  29.385   7.184
 3890POPC   C1B52207  24.999  29.954   6.344
 3890POPC   C2B52208  25.205  29.841   6.760
 3890POPC   C3B52209  25.273  29.889   7.232
 3890POPC   C4B52210  24.999  30.008   7.665
 3891POPC   NC352211  34.290  41.678   5.433
 3891POPC   PO452212  34.893  41.826   5.545
 3891POPC   GL152213  34.624  41.681   5.844
 3891POPC   GL252214  34.498  41.366   5.791
 3891POPC   C1A52215  34.547  41.732   6.276
 3891POPC   D2A52216  34.848  41.699   6.632
 3891POPC   C3A52217  34.661  41.644   6.990
 3891POPC   C4A52218  34.619  41.802   7.328
 3891POPC   C1B52219  34.378  41.250   6.199
 3891POPC   C2B52220  34.468  41.357   6.614
 3891POPC   C3B52221  34.482  41.143   6.976
 3891POPC   C4B52222  34.386  41.284   7.341
 3892POPC   NC352223  36.686   6.801   5.331
 3892POPC   PO452224  36.567   6.237   5.525
 3892POPC   GL152225  36.860   6.477   5.785
 3892POPC   GL252226  36.782   6.830   5.836
 3892POPC   C1A52227  36.899   6.527   6.258
 3892POPC   D2A52228  36.843   6.352   6.687
 3892POPC   C3A52229  36.914   6.589   7.070
 3892POPC   C4A52230  36.652   6.654   7.404
 3892POPC   C1B52231  36.648   6.970   6.257
 3892POPC   C2B52232  36.672   6.845   6.701
 3892POPC   C3B52233  36.605   7.069   7.117
 3892POPC   C4B52234  36.553   7.136   7.589
 3893POPC   NC352235  25.584  14.948   5.116
 3893POPC   PO452236  25.246  15.405   5.554
 3893POPC   GL152237  25.116  15.196   5.888
 3893POPC   GL252238  24.777  15.226   5.861
 3893POPC   C1A52239  25.390  15.139   6.231
 3893POPC   D2A52240  25.731  15.151   6.542
 3893POPC   C3A52241  25.529  15.194   6.925
 3893POPC   C4A52242  25.381  15.044   7.318
 3893POPC   C1B52243  24.913  15.350   6.309
 3893POPC   C2B52244  25.083  15.140   6.662
 3893POPC   C3B52245  25.041  14.879   6.989
 3893POPC   C4B52246  24.912  14.843   7.421
 3894POPC   NC352247   6.144  25.732   5.334
 3894POPC   PO452248   5.908  26.419   5.447
 3894POPC   GL152249   5.901  26.259   5.868
 3894POPC   GL252250   5.931  25.910   5.776
 3894POPC   C1A52251   6.133  26.038   6.235
 3894POPC   D2A52252   6.122  25.833   6.664
 3894POPC   C3A52253   5.878  26.072   6.990
 3894POPC   C4A52254   5.722  25.951   7.405
 3894POPC   C1B52255   5.641  25.870   6.136
 3894POPC   C2B52256   5.585  25.914   6.596
 3894POPC   C3B52257   5.398  25.842   7.018
 3894POPC   C4B52258   5.227  26.092   7.370
 3895POPC   NC352259   9.212   6.261   5.636
 3895POPC   PO452260   9.160   5.632   5.438
 3895POPC   GL152261   8.950   5.860   5.796
 3895POPC   GL252262   8.660   5.707   5.759
 3895POPC   C1A52263   8.811   6.070   6.232
 3895POPC   D2A52264   8.759   5.950   6.689
 3895POPC   C3A52265   9.138   5.838   6.905
 3895POPC   C4A52266   9.176   5.728   7.314
 3895POPC   C1B52267   8.782   5.561   6.185
 3895POPC   C2B52268   8.891   5.472   6.624
 3895POPC   C3B52269   8.738   5.575   7.046
 3895POPC   C4B52270   8.755   5.557   7.507
 3896POPC   NC352271  29.870  43.499   5.250
 3896POPC   PO452272  30.146  44.040   5.276
 3896POPC   GL152273  29.814  44.043   5.660
 3896POPC   GL252274  29.635  43.729   5.665
 3896POPC   C1A52275  29.789  44.148   6.111
 3896POPC   D2A52276  30.080  43.950   6.425
 3896POPC   C3A52277  30.096  44.059   6.886
 3896POPC   C4A52278  29.967  43.980   7.342
 3896POPC   C1B52279  29.829  43.636   6.082
 3896POPC   C2B52280  29.884  43.468   6.514
 3896POPC   C3B52281  29.902  43.600   6.986
 3896POPC   C4B52282  29.717  43.528   7.461
 3897POPC   NC352283   8.097  20.895   5.422
 3897POPC   PO452284   8.340  20.287   5.365
 3897POPC   GL152285   8.239  20.461   5.798
 3897POPC   GL252286   8.280  20.810   5.915
 3897POPC   C1A52287   8.073  20.343   6.236
 3897POPC   D2A52288   8.276  20.276   6.642
 3897POPC   C3A52289   8.129  20.389   7.084
 3897POPC   C4A52290   7.822  20.424   7.446
 3897POPC   C1B52291   7.907  20.825   6.208
 3897POPC   C2B52292   7.954  20.680   6.650
 3897POPC   C3B52293   8.140  20.890   7.021
 3897POPC   C4B52294   8.092  20.885   7.486
 3898POPC   NC352295  34.906   6.810   5.456
 3898POPC   PO452296  34.783   6.169   5.347
 3898POPC   GL152297  34.599   6.372   5.768
 3898POPC   GL252298  34.273   6.587   5.842
 3898POPC   C1A52299  34.581   6.516   6.225
 3898POPC   D2A52300  34.703   6.348   6.593
 3898POPC   C3A52301  34.541   6.477   6.972
 3898POPC   C4A52302  34.723   6.691   7.292
 3898POPC   C1B52303  34.291   6.926   6.208
 3898POPC   C2B52304  34.469   6.879   6.663
 3898POPC   C3B52305  34.265   6.902   7.114
 3898POPC   C4B52306  34.351   6.851   7.582
 3899POPC   NC352307  11.061   7.193   5.448
 3899POPC   PO452308  11.502   7.726   5.391
 3899POPC   GL152309  11.454   7.405   5.694
 3899POPC   GL252310  11.167   7.588   5.838
 3899POPC   C1A52311  11.320   7.203   6.101
 3899POPC   D2A52312  11.130   7.440   6.437
 3899POPC   C3A52313  11.185   7.311   6.867
 3899POPC   C4A52314  11.253   7.065   7.251
 3899POPC   C1B52315  11.592   7.647   6.115
 3899POPC   C2B52316  11.678   7.909   6.493
 3899POPC   C3B52317  11.536   7.746   6.892
 3899POPC   C4B52318  11.312   7.612   7.289
 3900POPC   NC352319  22.895  31.038   5.460
 3900POPC   PO452320  23.279  30.435   5.506
 3900POPC   GL152321  22.921  30.493   5.820
 3900POPC   GL252322  22.646  30.194   5.787
 3900POPC   C1A52323  22.877  30.719   6.239
 3900POPC   D2A52324  22.689  30.852   6.648
 3900POPC   C3A52325  22.857  30.806   7.078
 3900POPC   C4A52326  23.173  30.582   7.321
 3900POPC   C1B52327  22.772  30.217   6.228
 3900POPC   C2B52328  22.599  30.357   6.604
 3900POPC   C3B52329  22.662  30.340   7.036
 3900POPC   C4B52330  22.720  30.446   7.467
 3901POPC   NC352331   3.820  14.974   5.366
 3901POPC   PO452332   3.249  15.357   5.474
 3901POPC   GL152333   3.433  15.051   5.768
 3901POPC   GL252334   3.759  15.183   5.879
 3901POPC   C1A52335   3.304  14.960   6.213
 3901POPC   D2A52336   3.527  14.935   6.620
 3901POPC   C3A52337   3.454  15.112   7.034
 3901POPC   C4A52338   3.541  15.093   7.474
 3901POPC   C1B52339   3.587  15.372   6.298
 3901POPC   C2B52340   3.641  15.514   6.734
 3901POPC   C3B52341   3.664  15.556   7.170
 3901POPC   C4B52342   3.795  15.500   7.617
 3902POPC   NC352343  25.022  20.355   5.518
 3902POPC   PO452344  24.281  20.144   5.536
 3902POPC   GL152345  24.430  20.501   5.741
 3902POPC   GL252346  24.762  20.506   5.912
 3902POPC   C1A52347  24.313  20.518   6.158
 3902POPC   D2A52348  24.315  20.684   6.533
 3902POPC   C3A52349  24.414  20.391   6.821
 3902POPC   C4A52350  24.268  20.513   7.195
 3902POPC   C1B52351  24.827  20.469   6.346
 3902POPC   C2B52352  24.793  20.752   6.684
 3902POPC   C3B52353  24.708  20.800   7.096
 3902POPC   C4B52354  24.942  20.920   7.417
 3903POPC   NC352355  20.045  24.111   5.410
 3903POPC   PO452356  19.765  23.467   5.337
 3903POPC   GL152357  19.711  23.632   5.764
 3903POPC   GL252358  20.001  23.882   5.866
 3903POPC   C1A52359  19.702  23.653   6.218
 3903POPC   D2A52360  19.834  23.617   6.648
 3903POPC   C3A52361  19.691  23.869   7.019
 3903POPC   C4A52362  19.820  23.627   7.384
 3903POPC   C1B52363  19.926  24.100   6.276
 3903POPC   C2B52364  20.049  24.080   6.711
 3903POPC   C3B52365  20.212  23.869   7.079
 3903POPC   C4B52366  20.165  23.958   7.541
 3904POPC   NC352367  31.753   6.324   5.469
 3904POPC   PO452368  31.527   6.940   5.438
 3904POPC   GL152369  31.459   6.674   5.753
 3904POPC   GL252370  31.201   6.868   5.879
 3904POPC   C1A52371  31.633   6.683   6.166
 3904POPC   D2A52372  31.531   6.819   6.575
 3904POPC   C3A52373  31.627   6.535   6.920
 3904POPC   C4A52374  31.570   6.799   7.291
 3904POPC   C1B52375  31.142   6.501   6.152
 3904POPC   C2B52376  31.286   6.341   6.555
 3904POPC   C3B52377  31.129   6.458   6.969
 3904POPC   C4B52378  31.335   6.381   7.345
 3905POPC   NC352379  12.115  41.159   5.361
 3905POPC   PO452380  12.215  40.512   5.460
 3905POPC   GL152381  12.069  40.811   5.745
 3905POPC   GL252382  12.388  41.004   5.759
 3905POPC   C1A52383  11.918  40.921   6.174
 3905POPC   D2A52384  11.884  40.651   6.546
 3905POPC   C3A52385  11.745  40.773   6.966
 3905POPC   C4A52386  11.956  40.677   7.383
 3905POPC   C1B52387  12.421  40.803   6.161
 3905POPC   C2B52388  12.283  40.976   6.567
 3905POPC   C3B52389  12.250  40.862   6.991
 3905POPC   C4B52390  12.408  41.106   7.352
 3906POPC   NC352391  15.123  24.786   5.217
 3906POPC   PO452392  15.450  24.206   5.118
 3906POPC   GL152393  15.302  24.350   5.577
 3906POPC   GL252394  15.056  24.643   5.696
 3906POPC   C1A52395  15.250  24.337   6.058
 3906POPC   D2A52396  15.034  24.519   6.429
 3906POPC   C3A52397  15.239  24.530   6.841
 3906POPC   C4A52398  15.169  24.271   7.165
 3906POPC   C1B52399  14.865  24.855   6.076
 3906POPC   C2B52400  14.809  24.988   6.534
 3906POPC   C3B52401  14.925  24.930   6.977
 3906POPC   C4B52402  15.164  24.878   7.369
 3907POPC   NC352403  14.855  15.730   5.582
 3907POPC   PO452404  14.311  15.980   5.319
 3907POPC   GL152405  14.373  15.881   5.746
 3907POPC   GL252406  14.326  15.533   5.662
 3907POPC   C1A52407  14.540  15.903   6.184
 3907POPC   D2A52408  14.353  15.964   6.595
 3907POPC   C3A52409  14.596  15.797   6.919
 3907POPC   C4A52410  14.656  16.044   7.288
 3907POPC   C1B52411  14.265  15.453   6.130
 3907POPC   C2B52412  14.423  15.441   6.569
 3907POPC   C3B52413  14.222  15.428   6.977
 3907POPC   C4B52414  14.235  15.742   7.275
 3908POPC   NC352415   7.485  35.476   5.301
 3908POPC   PO452416   7.226  34.933   5.162
 3908POPC   GL152417   7.361  35.158   5.648
 3908POPC   GL252418   7.681  35.342   5.736
 3908POPC   C1A52419   7.283  35.478   6.038
 3908POPC   D2A52420   7.176  35.409   6.497
 3908POPC   C3A52421   7.318  35.623   6.863
 3908POPC   C4A52422   7.399  35.491   7.279
 3908POPC   C1B52423   7.791  35.609   6.065
 3908POPC   C2B52424   7.660  35.547   6.471
 3908POPC   C3B52425   7.773  35.405   6.888
 3908POPC   C4B52426   7.863  35.256   7.297
 3909POPC   NC352427  34.638  17.208   5.423
 3909POPC   PO452428  34.433  17.830   5.229
 3909POPC   GL152429  34.516  17.644   5.666
 3909POPC   GL252430  34.860  17.621   5.865
 3909POPC   C1A52431  34.429  17.577   6.124
 3909POPC   D2A52432  34.701  17.657   6.498
 3909POPC   C3A52433  34.469  17.774   6.872
 3909POPC   C4A52434  34.384  17.439   7.138
 3909POPC   C1B52435  34.817  17.228   6.174
 3909POPC   C2B52436  34.712  17.147   6.640
 3909POPC   C3B52437  34.871  17.429   6.978
 3909POPC   C4B52438  35.072  17.296   7.352
 3910POPC   NC352439  14.060  27.052   5.428
 3910POPC   PO452440  14.372  26.475   5.334
 3910POPC   GL152441  14.496  26.676   5.758
 3910POPC   GL252442  14.154  26.783   5.860
 3910POPC   C1A52443  14.532  26.817   6.229
 3910POPC   D2A52444  14.500  27.155   6.575
 3910POPC   C3A52445  14.426  26.989   6.999
 3910POPC   C4A52446  14.078  26.987   7.284
 3910POPC   C1B52447  14.101  26.496   6.198
 3910POPC   C2B52448  14.285  26.483   6.586
 3910POPC   C3B52449  14.144  26.346   6.977
 3910POPC   C4B52450  14.354  26.547   7.291
 3911POPC   NC352451  17.501  11.768   5.491
 3911POPC   PO452452  16.909  12.099   5.470
 3911POPC   GL152453  17.220  12.105   5.771
 3911POPC   GL252454  17.185  11.758   5.889
 3911POPC   C1A52455  17.562  12.151   6.074
 3911POPC   D2A52456  17.640  12.258   6.505
 3911POPC   C3A52457  17.442  12.229   6.910
 3911POPC   C4A52458  17.585  12.114   7.314
 3911POPC   C1B52459  17.463  11.710   6.288
 3911POPC   C2B52460  17.622  11.776   6.735
 3911POPC   C3B52461  17.536  11.635   7.178
 3911POPC   C4B52462  17.496  11.767   7.678
 3912POPC   NC352463  27.694   9.276   5.219
 3912POPC   PO452464  27.450   8.812   5.423
 3912POPC   GL152465  27.439   8.835   5.832
 3912POPC   GL252466  27.557   9.184   5.833
 3912POPC   C1A52467  27.572   8.837   6.241
 3912POPC   D2A52468  27.793   8.749   6.611
 3912POPC   C3A52469  27.657   8.934   6.969
 3912POPC   C4A52470  27.834   8.890   7.353
 3912POPC   C1B52471  27.794   9.272   6.222
 3912POPC   C2B52472  27.969   9.228   6.650
 3912POPC   C3B52473  27.980   9.341   7.095
 3912POPC   C4B52474  28.037   9.310   7.558
 3913POPC   NC352475   3.160  41.074   5.494
 3913POPC   PO452476   3.827  41.008   5.435
 3913POPC   GL152477   3.590  41.209   5.847
 3913POPC   GL252478   3.754  41.519   5.974
 3913POPC   C1A52479   3.698  41.178   6.343
 3913POPC   D2A52480   3.703  41.129   6.791
 3913POPC   C3A52481   3.761  41.459   7.113
 3913POPC   C4A52482   3.838  41.732   7.510
 3913POPC   C1B52483   3.413  41.599   6.282
 3913POPC   C2B52484   3.422  41.585   6.753
 3913POPC   C3B52485   3.439  41.848   7.178
 3913POPC   C4B52486   3.555  42.169   7.522
 3914POPC   NC352487  14.864  36.027   5.539
 3914POPC   PO452488  15.119  36.644   5.240
 3914POPC   GL152489  15.185  36.506   5.722
 3914POPC   GL252490  15.146  36.177   5.914
 3914POPC   C1A52491  15.228  36.551   6.217
 3914POPC   D2A52492  15.195  36.290   6.586
 3914POPC   C3A52493  15.281  36.387   7.005
 3914POPC   C4A52494  15.142  36.236   7.381
 3914POPC   C1B52495  15.120  35.866   6.322
 3914POPC   C2B52496  15.084  35.830   6.784
 3914POPC   C3B52497  15.093  35.749   7.236
 3914POPC   C4B52498  15.410  35.767   7.548
 3915POPC   NC352499  21.163  30.671   5.414
 3915POPC   PO452500  21.684  30.970   5.136
 3915POPC   GL152501  21.481  30.958   5.666
 3915POPC   GL252502  21.194  30.792   5.881
 3915POPC   C1A52503  21.502  31.069   6.161
 3915POPC   D2A52504  21.253  30.937   6.551
 3915POPC   C3A52505  21.427  30.939   6.970
 3915POPC   C4A52506  21.449  30.842   7.419
 3915POPC   C1B52507  21.383  30.560   6.221
 3915POPC   C2B52508  21.238  30.410   6.648
 3915POPC   C3B52509  21.286  30.438   7.114
 3915POPC   C4B52510  21.284  30.397   7.597
 3916POPC   NC352511  12.460  15.755   5.589
 3916POPC   PO452512  12.882  15.759   5.033
 3916POPC   GL152513  12.903  15.956   5.577
 3916POPC   GL252514  12.736  16.111   5.855
 3916POPC   C1A52515  13.041  15.842   6.138
 3916POPC   D2A52516  12.923  15.778   6.584
 3916POPC   C3A52517  13.015  15.949   6.989
 3916POPC   C4A52518  12.887  15.844   7.431
 3916POPC   C1B52519  12.542  15.862   6.229
 3916POPC   C2B52520  12.432  15.823   6.669
 3916POPC   C3B52521  12.518  15.972   7.070
 3916POPC   C4B52522  12.457  16.329   7.328
 3917POPC   NC352523  15.623  33.084   5.578
 3917POPC   PO452524  16.162  33.354   5.401
 3917POPC   GL152525  16.095  33.135   5.821
 3917POPC   GL252526  16.240  33.315   6.114
 3917POPC   C1A52527  15.941  32.933   6.238
 3917POPC   D2A52528  16.076  33.125   6.632
 3917POPC   C3A52529  15.902  33.078   7.059
 3917POPC   C4A52530  15.923  33.400   7.373
 3917POPC   C1B52531  16.459  32.930   6.309
 3917POPC   C2B52532  16.331  32.694   6.676
 3917POPC   C3B52533  16.365  32.727   7.122
 3917POPC   C4B52534  16.159  32.888   7.466
 3918POPC   NC352535  38.468  44.138   5.226
 3918POPC   PO452536  38.098  43.719   5.619
 3918POPC   GL152537  38.451  43.749   5.866
 3918POPC   GL252538  38.645  44.040   5.746
 3918POPC   C1A52539  38.798  43.712   6.171
 3918POPC   D2A52540  38.854  43.889   6.564
 3918POPC   C3A52541  38.551  43.731   6.881
 3918POPC   C4A52542  38.572  43.566   7.284
 3918POPC   C1B52543  38.482  44.159   6.150
 3918POPC   C2B52544  38.474  44.264   6.568
 3918POPC   C3B52545  38.710  44.207   6.942
 3918POPC   C4B52546  38.580  44.091   7.316
 3919POPC   NC352547  27.473  44.177   5.363
 3919POPC   PO452548  27.880  43.588   5.347
 3919POPC   GL152549  27.601  43.553   5.706
 3919POPC   GL252550  27.567  43.895   5.787
 3919POPC   C1A52551  27.656  43.544   6.162
 3919POPC   D2A52552  27.881  43.788   6.468
 3919POPC   C3A52553  27.872  43.661   6.878
 3919POPC   C4A52554  27.826  43.903   7.231
 3919POPC   C1B52555  27.450  44.001   6.226
 3919POPC   C2B52556  27.381  43.800   6.658
 3919POPC   C3B52557  27.328  43.851   7.119
 3919POPC   C4B52558  27.461  44.164   7.471
 3920POPC   NC352559   4.100  31.044   5.264
 3920POPC   PO452560   3.556  31.609   5.350
 3920POPC   GL152561   3.630  31.411   5.750
 3920POPC   GL252562   3.922  31.263   5.767
 3920POPC   C1A52563   3.580  31.633   6.140
 3920POPC   D2A52564   3.394  31.713   6.522
 3920POPC   C3A52565   3.545  31.677   6.903
 3920POPC   C4A52566   3.398  31.588   7.264
 3920POPC   C1B52567   4.060  31.532   6.117
 3920POPC   C2B52568   3.951  31.753   6.536
 3920POPC   C3B52569   4.025  31.554   6.957
 3920POPC   C4B52570   3.864  31.474   7.407
 3921POPC   NC352571  42.470  16.147   5.426
 3921POPC   PO452572  42.154  15.544   5.458
 3921POPC   GL152573  42.230  15.806   5.874
 3921POPC   GL252574  42.214  16.178   5.880
 3921POPC   C1A52575  42.419  15.993   6.317
 3921POPC   D2A52576  42.449  16.339   6.715
 3921POPC   C3A52577  42.528  16.119   7.083
 3921POPC   C4A52578  42.309  15.745   7.071
 3921POPC   C1B52579  42.008  16.276   6.275
 3921POPC   C2B52580  42.015  16.082   6.694
 3921POPC   C3B52581  41.989  16.148   7.134
 3921POPC   C4B52582  42.163  16.000   7.508
 3922POPC   NC352583  27.766   5.063   5.231
 3922POPC   PO452584  27.175   4.857   5.368
 3922POPC   GL152585  27.469   5.072   5.680
 3922POPC   GL252586  27.274   4.867   5.869
 3922POPC   C1A52587  27.613   5.349   6.067
 3922POPC   D2A52588  27.908   5.419   6.447
 3922POPC   C3A52589  27.857   5.161   6.851
 3922POPC   C4A52590  27.514   5.242   7.145
 3922POPC   C1B52591  27.437   4.928   6.278
 3922POPC   C2B52592  27.377   5.039   6.690
 3922POPC   C3B52593  27.358   4.778   7.072
 3922POPC   C4B52594  27.426   4.666   7.524
 3923POPC   NC352595  37.122  32.909   5.363
 3923POPC   PO452596  36.517  33.178   5.119
 3923POPC   GL152597  36.733  33.203   5.556
 3923POPC   GL252598  36.692  32.888   5.775
 3923POPC   C1A52599  36.801  33.348   6.011
 3923POPC   D2A52600  36.728  33.359   6.480
 3923POPC   C3A52601  36.935  33.089   6.781
 3923POPC   C4A52602  37.041  32.943   7.173
 3923POPC   C1B52603  36.744  32.881   6.259
 3923POPC   C2B52604  36.502  32.836   6.674
 3923POPC   C3B52605  36.543  32.829   7.143
 3923POPC   C4B52606  36.606  32.816   7.611
 3924POPC   NC352607  21.184  22.078   5.429
 3924POPC   PO452608  21.883  21.894   5.350
 3924POPC   GL152609  21.614  21.934   5.730
 3924POPC   GL252610  21.515  22.294   5.804
 3924POPC   C1A52611  21.433  21.926   6.167
 3924POPC   D2A52612  21.509  22.136   6.574
 3924POPC   C3A52613  21.405  21.964   6.970
 3924POPC   C4A52614  21.473  22.120   7.368
 3924POPC   C1B52615  21.222  22.419   6.147
 3924POPC   C2B52616  21.157  22.613   6.531
 3924POPC   C3B52617  21.221  22.458   6.932
 3924POPC   C4B52618  21.446  22.608   7.252
 3925POPC   NC352619  43.471   5.841   5.371
 3925POPC   PO452620  42.879   5.928   5.292
 3925POPC   GL152621  43.079   5.873   5.707
 3925POPC   GL252622  43.310   6.123   5.806
 3925POPC   C1A52623  43.212   5.641   6.084
 3925POPC   D2A52624  43.363   5.554   6.511
 3925POPC   C3A52625  43.185   5.556   6.935
 3925POPC   C4A52626  43.088   5.619   7.392
 3925POPC   C1B52627  43.244   6.122   6.270
 3925POPC   C2B52628  43.399   6.037   6.693
 3925POPC   C3B52629  43.292   6.027   7.139
 3925POPC   C4B52630  43.370   6.000   7.589
 3926POPC   NC352631  34.008  22.412   5.367
 3926POPC   PO452632  33.454  22.178   5.594
 3926POPC   GL152633  33.753  22.279   5.915
 3926POPC   GL252634  34.107  22.302   5.863
 3926POPC   C1A52635  33.735  22.358   6.359
 3926POPC   D2A52636  33.566  22.068   6.643
 3926POPC   C3A52637  33.575  22.222   7.040
 3926POPC   C4A52638  33.288  22.089   7.310
 3926POPC   C1B52639  34.218  22.215   6.300
 3926POPC   C2B52640  34.068  22.155   6.750
 3926POPC   C3B52641  34.069  22.210   7.205
 3926POPC   C4B52642  33.996  22.435   7.647
 3927POPC   NC352643  17.019  22.625   5.140
 3927POPC   PO452644  16.681  22.129   5.550
 3927POPC   GL152645  16.713  22.081   5.945
 3927POPC   GL252646  16.744  21.715   5.924
 3927POPC   C1A52647  16.855  22.341   6.283
 3927POPC   D2A52648  16.679  22.484   6.654
 3927POPC   C3A52649  16.869  22.517   7.050
 3927POPC   C4A52650  16.750  22.179   7.302
 3927POPC   C1B52651  16.470  21.771   6.274
 3927POPC   C2B52652  16.441  21.923   6.698
 3927POPC   C3B52653  16.362  21.772   7.147
 3927POPC   C4B52654  16.562  21.809   7.578
 3928POPC   NC352655  16.720  39.151   5.324
 3928POPC   PO452656  16.200  39.608   5.412
 3928POPC   GL152657  16.457  39.526   5.801
 3928POPC   GL252658  16.706  39.249   5.813
 3928POPC   C1A52659  16.425  39.349   6.238
 3928POPC   D2A52660  16.437  38.935   6.493
 3928POPC   C3A52661  16.443  39.073   6.940
 3928POPC   C4A52662  16.275  39.487   7.089
 3928POPC   C1B52663  16.853  39.067   6.193
 3928POPC   C2B52664  16.832  39.251   6.616
 3928POPC   C3B52665  16.916  39.290   7.046
 3928POPC   C4B52666  16.667  39.265   7.406
 3929POPC   NC352667  33.073  39.800   5.546
 3929POPC   PO452668  33.071  40.364   5.578
 3929POPC   GL152669  32.994  40.095   5.963
 3929POPC   GL252670  32.714  39.837   5.927
 3929POPC   C1A52671  33.202  40.105   6.373
 3929POPC   D2A52672  33.362  40.425   6.687
 3929POPC   C3A52673  33.169  40.262   7.049
 3929POPC   C4A52674  33.104  39.841   7.174
 3929POPC   C1B52675  32.701  39.945   6.370
 3929POPC   C2B52676  32.781  39.919   6.799
 3929POPC   C3B52677  32.640  40.042   7.224
 3929POPC   C4B52678  32.514  40.104   7.684
 3930POPC   NC352679  18.187  38.806   5.401
 3930POPC   PO452680  18.599  39.430   5.455
 3930POPC   GL152681  18.279  39.340   5.770
 3930POPC   GL252682  18.298  39.011   5.850
 3930POPC   C1A52683  18.244  39.493   6.188
 3930POPC   D2A52684  18.501  39.671   6.516
 3930POPC   C3A52685  18.316  39.533   6.907
 3930POPC   C4A52686  18.320  39.316   7.302
 3930POPC   C1B52687  18.139  38.941   6.244
 3930POPC   C2B52688  18.111  38.736   6.630
 3930POPC   C3B52689  18.248  38.774   7.042
 3930POPC   C4B52690  18.126  38.873   7.457
 3931POPC   NC352691  27.400  39.835   5.477
 3931POPC   PO452692  28.028  39.974   5.475
 3931POPC   GL152693  27.776  39.984   5.908
 3931POPC   GL252694  27.423  40.080   5.964
 3931POPC   C1A52695  27.685  40.069   6.407
 3931POPC   D2A52696  27.535  40.315   6.754
 3931POPC   C3A52697  27.713  40.116   7.130
 3931POPC   C4A52698  27.657  40.212   7.582
 3931POPC   C1B52699  27.243  39.836   6.369
 3931POPC   C2B52700  27.235  39.878   6.853
 3931POPC   C3B52701  27.307  39.797   7.304
 3931POPC   C4B52702  27.370  39.820   7.772
 3932POPC   NC352703  18.575  16.276   5.437
 3932POPC   PO452704  18.143  15.786   5.462
 3932POPC   GL152705  18.433  15.903   5.771
 3932POPC   GL252706  18.208  16.195   5.816
 3932POPC   C1A52707  18.370  15.925   6.210
 3932POPC   D2A52708  18.022  15.832   6.473
 3932POPC   C3A52709  18.216  15.744   6.872
 3932POPC   C4A52710  18.399  16.005   7.162
 3932POPC   C1B52711  17.938  16.282   6.198
 3932POPC   C2B52712  17.760  16.236   6.635
 3932POPC   C3B52713  17.944  16.205   7.061
 3932POPC   C4B52714  17.839  16.111   7.514
 3933POPC   NC352715  12.400  42.049   5.533
 3933POPC   PO452716  11.913  42.466   5.397
 3933POPC   GL152717  12.066  42.404   5.801
 3933POPC   GL252718  12.411  42.503   5.874
 3933POPC   C1A52719  11.869  42.291   6.184
 3933POPC   D2A52720  11.958  42.081   6.558
 3933POPC   C3A52721  11.806  42.231   6.946
 3933POPC   C4A52722  11.789  42.408   7.353
 3933POPC   C1B52723  12.367  42.373   6.328
 3933POPC   C2B52724  12.367  42.339   6.797
 3933POPC   C3B52725  12.262  42.201   7.242
 3933POPC   C4B52726  12.442  41.930   7.603
 3934POPC   NC352727  21.683  29.819   5.477
 3934POPC   PO452728  21.563  30.476   5.530
 3934POPC   GL152729  21.229  30.237   5.801
 3934POPC   GL252730  21.169  29.843   5.793
 3934POPC   C1A52731  21.225  30.078   6.238
 3934POPC   D2A52732  21.630  30.110   6.426
 3934POPC   C3A52733  21.639  30.116   6.867
 3934POPC   C4A52734  21.582  30.076   7.323
 3934POPC   C1B52735  21.430  29.627   6.146
 3934POPC   C2B52736  21.458  29.653   6.621
 3934POPC   C3B52737  21.351  29.684   7.074
 3934POPC   C4B52738  21.355  29.685   7.557
 3935POPC   NC352739   0.625  31.058   5.378
 3935POPC   PO452740   0.662  30.437   5.444
 3935POPC   GL152741   0.583  30.751   5.789
 3935POPC   GL252742   0.304  30.986   5.807
 3935POPC   C1A52743   0.589  30.861   6.236
 3935POPC   D2A52744   0.406  30.817   6.668
 3935POPC   C3A52745   0.637  30.624   7.019
 3935POPC   C4A52746   0.919  30.348   7.274
 3935POPC   C1B52747   0.096  31.002   6.265
 3935POPC   C2B52748   0.035  31.162   6.737
 3935POPC   C3B52749   0.192  30.936   7.140
 3935POPC   C4B52750   0.019  30.850   7.577
 3936POPC   NC352751  39.670  14.108   5.483
 3936POPC   PO452752  39.926  14.769   5.376
 3936POPC   GL152753  40.016  14.515   5.760
 3936POPC   GL252754  40.213  14.187   5.720
 3936POPC   C1A52755  39.996  14.617   6.230
 3936POPC   D2A52756  39.787  14.665   6.639
 3936POPC   C3A52757  39.899  14.592   7.070
 3936POPC   C4A52758  40.061  14.502   7.498
 3936POPC   C1B52759  39.960  14.121   6.113
 3936POPC   C2B52760  39.730  14.112   6.541
 3936POPC   C3B52761  39.806  14.102   7.002
 3936POPC   C4B52762  40.222  14.074   7.223
 3937POPC   NC352763  25.307   8.429   5.386
 3937POPC   PO452764  25.332   7.732   5.474
 3937POPC   GL152765  25.196   8.079   5.793
 3937POPC   GL252766  25.444   8.350   5.842
 3937POPC   C1A52767  24.997   8.160   6.228
 3937POPC   D2A52768  25.078   7.992   6.665
 3937POPC   C3A52769  25.084   8.133   7.106
 3937POPC   C4A52770  25.159   7.894   7.523
 3937POPC   C1B52771  25.330   8.552   6.207
 3937POPC   C2B52772  25.478   8.609   6.605
 3937POPC   C3B52773  25.759   8.441   6.915
 3937POPC   C4B52774  25.552   8.277   7.266
 3938POPC   NC352775   4.880  18.381   5.479
 3938POPC   PO452776   5.394  17.931   5.636
 3938POPC   GL152777   5.048  18.067   5.913
 3938POPC   GL252778   4.692  18.051   5.837
 3938POPC   C1A52779   5.010  18.222   6.342
 3938POPC   D2A52780   5.008  18.497   6.698
 3938POPC   C3A52781   4.951  18.212   7.046
 3938POPC   C4A52782   5.295  18.145   7.332
 3938POPC   C1B52783   4.630  18.453   6.108
 3938POPC   C2B52784   4.508  18.481   6.551
 3938POPC   C3B52785   4.607  18.667   6.956
 3938POPC   C4B52786   4.981  18.689   7.219
 3939POPC   NC352787   8.280   9.761   5.165
 3939POPC   PO452788   8.253   9.044   5.234
 3939POPC   GL152789   8.305   9.364   5.682
 3939POPC   GL252790   8.296   9.733   5.663
 3939POPC   C1A52791   8.437   9.590   6.133
 3939POPC   D2A52792   8.529   9.822   6.576
 3939POPC   C3A52793   8.464   9.581   6.984
 3939POPC   C4A52794   8.107   9.332   7.161
 3939POPC   C1B52795   8.064   9.955   5.978
 3939POPC   C2B52796   8.004   9.916   6.425
 3939POPC   C3B52797   8.055   9.898   6.876
 3939POPC   C4B52798   8.114  10.077   7.278
 3940POPC   NC352799  15.461  28.885   5.629
 3940POPC   PO452800  14.802  28.926   5.622
 3940POPC   GL152801  14.942  29.331   5.822
 3940POPC   GL252802  15.297  29.498   5.879
 3940POPC   C1A52803  14.986  29.279   6.254
 3940POPC   D2A52804  15.214  29.462   6.611
 3940POPC   C3A52805  15.191  29.252   7.015
 3940POPC   C4A52806  14.830  29.285   7.356
 3940POPC   C1B52807  15.510  29.253   6.210
 3940POPC   C2B52808  15.311  28.934   6.484
 3940POPC   C3B52809  15.381  28.682   6.845
 3940POPC   C4B52810  15.324  28.723   7.272
 3941POPC   NC352811  32.093  44.507   5.434
 3941POPC   PO452812  32.559  44.981   5.204
 3941POPC   GL152813  32.373  44.815   5.713
 3941POPC   GL252814  32.366  44.485   5.877
 3941POPC   C1A52815  31.996  44.767   6.069
 3941POPC   D2A52816  31.911  44.879   6.507
 3941POPC   C3A52817  32.253  44.781   6.779
 3941POPC   C4A52818  32.152  44.688   7.183
 3941POPC   C1B52819  32.362  44.512   6.318
 3941POPC   C2B52820  32.543  44.348   6.665
 3941POPC   C3B52821  32.646  44.475   7.062
 3941POPC   C4B52822  32.494  44.400   7.467
 3942POPC   NC352823  16.559   5.678   5.139
 3942POPC   PO452824  17.196   5.996   5.196
 3942POPC   GL152825  17.026   5.878   5.653
 3942POPC   GL252826  16.661   5.831   5.632
 3942POPC   C1A52827  16.976   6.044   6.136
 3942POPC   D2A52828  16.867   6.198   6.573
 3942POPC   C3A52829  16.820   5.897   6.912
 3942POPC   C4A52830  16.905   5.933   7.362
 3942POPC   C1B52831  16.499   5.867   6.061
 3942POPC   C2B52832  16.385   5.875   6.506
 3942POPC   C3B52833  16.347   6.101   6.879
 3942POPC   C4B52834  16.384   5.922   7.262
 3943POPC   NC352835  18.499  37.241   5.325
 3943POPC   PO452836  18.211  36.652   5.333
 3943POPC   GL152837  18.373  36.913   5.689
 3943POPC   GL252838  18.238  36.694   5.906
 3943POPC   C1A52839  18.377  37.151   6.107
 3943POPC   D2A52840  18.218  37.027   6.509
 3943POPC   C3A52841  18.322  37.161   6.906
 3943POPC   C4A52842  18.474  36.891   7.169
 3943POPC   C1B52843  17.933  36.581   6.203
 3943POPC   C2B52844  18.107  36.522   6.590
 3943POPC   C3B52845  18.047  36.650   6.966
 3943POPC   C4B52846  17.878  36.312   7.152
 3944POPC   NC352847   7.852  44.473   5.411
 3944POPC   PO452848   8.531  44.524   5.396
 3944POPC   GL152849   8.389  44.435   5.833
 3944POPC   GL252850   8.010  44.492   5.904
 3944POPC   C1A52851   8.398  44.565   6.287
 3944POPC   D2A52852   8.404  44.407   6.707
 3944POPC   C3A52853   8.379  44.686   7.050
 3944POPC   C4A52854   8.493  44.803   7.473
 3944POPC   C1B52855   7.942  44.803   6.238
 3944POPC   C2B52856   8.085  44.884   6.635
 3944POPC   C3B52857   7.879  44.805   6.993
 3944POPC   C4B52858   7.628  44.745   7.333
 3945POPC   NC352859  37.410  38.565   5.410
 3945POPC   PO452860  38.017  38.220   5.546
 3945POPC   GL152861  37.765  38.421   5.843
 3945POPC   GL252862  37.438  38.349   5.868
 3945POPC   C1A52863  37.703  38.371   6.287
 3945POPC   D2A52864  37.941  38.560   6.570
 3945POPC   C3A52865  37.838  38.461   6.976
 3945POPC   C4A52866  37.964  38.692   7.310
 3945POPC   C1B52867  37.379  38.751   6.183
 3945POPC   C2B52868  37.478  38.853   6.655
 3945POPC   C3B52869  37.426  38.751   7.098
 3945POPC   C4B52870  37.357  38.286   7.131
 3946POPC   NC352871  19.035  44.934   5.486
 3946POPC   PO452872  19.242  44.277   5.458
 3946POPC   GL152873  19.185  44.399   5.870
 3946POPC   GL252874  18.873  44.602   5.849
 3946POPC   C1A52875  19.388  44.323   6.279
 3946POPC   D2A52876  19.319  44.218   6.705
 3946POPC   C3A52877  18.985  44.440   6.904
 3946POPC   C4A52878  19.073  44.580   7.310
 3946POPC   C1B52879  18.696  44.764   6.238
 3946POPC   C2B52880  18.761  44.870   6.669
 3946POPC   C3B52881  18.955  44.999   7.038
 3946POPC   C4B52882  18.899   0.028   7.463
 3947POPC   NC352883  22.428  31.687   5.277
 3947POPC   PO452884  23.156  31.748   5.383
 3947POPC   GL152885  22.968  31.627   5.779
 3947POPC   GL252886  22.928  31.270   5.908
 3947POPC   C1A52887  23.178  31.609   6.170
 3947POPC   D2A52888  23.303  31.457   6.556
 3947POPC   C3A52889  23.228  31.690   6.911
 3947POPC   C4A52890  23.108  31.488   7.273
 3947POPC   C1B52891  22.863  31.244   6.359
 3947POPC   C2B52892  22.904  31.271   6.843
 3947POPC   C3B52893  22.672  31.258   7.253
 3947POPC   C4B52894  22.590  31.351   7.698
 3948POPC   NC352895  24.474  28.330   5.164
 3948POPC   PO452896  24.738  27.998   5.570
 3948POPC   GL152897  24.554  28.374   5.740
 3948POPC   GL252898  24.311  28.628   5.649
 3948POPC   C1A52899  24.549  28.616   6.113
 3948POPC   D2A52900  24.651  28.430   6.486
 3948POPC   C3A52901  24.651  28.582   6.871
 3948POPC   C4A52902  24.606  28.369   7.246
 3948POPC   C1B52903  24.047  28.691   6.055
 3948POPC   C2B52904  24.105  28.597   6.498
 3948POPC   C3B52905  24.162  28.551   6.955
 3948POPC   C4B52906  24.142  28.512   7.422
 3949POPC   NC352907   5.434  11.240   5.258
 3949POPC   PO452908   6.112  11.493   5.367
 3949POPC   GL152909   6.035  11.514   5.810
 3949POPC   GL252910   6.014  11.193   5.928
 3949POPC   C1A52911   5.874  11.558   6.246
 3949POPC   D2A52912   5.878  11.361   6.635
 3949POPC   C3A52913   5.760  11.590   6.963
 3949POPC   C4A52914   5.856  11.512   7.365
 3949POPC   C1B52915   5.830  11.016   6.271
 3949POPC   C2B52916   5.926  10.851   6.670
 3949POPC   C3B52917   6.027  11.064   7.056
 3949POPC   C4B52918   5.654  11.040   7.261
 3950POPC   NC352919  20.955  25.533   5.580
 3950POPC   PO452920  21.486  25.189   5.418
 3950POPC   GL152921  21.353  25.244   5.827
 3950POPC   GL252922  21.179  24.936   5.838
 3950POPC   C1A52923  21.428  25.228   6.279
 3950POPC   D2A52924  21.589  25.135   6.688
 3950POPC   C3A52925  21.351  25.346   7.005
 3950POPC   C4A52926  21.249  25.296   7.433
 3950POPC   C1B52927  20.945  25.048   6.216
 3950POPC   C2B52928  21.009  25.167   6.647
 3950POPC   C3B52929  21.095  24.904   7.014
 3950POPC   C4B52930  21.487  24.874   7.146
 3951POPC   NC352931  26.449  19.738   5.105
 3951POPC   PO452932  25.801  19.986   5.261
 3951POPC   GL152933  25.833  19.866   5.718
 3951POPC   GL252934  26.162  19.969   5.865
 3951POPC   C1A52935  25.763  19.946   6.167
 3951POPC   D2A52936  25.609  19.841   6.609
 3951POPC   C3A52937  25.867  19.828   6.985
 3951POPC   C4A52938  26.248  19.611   7.198
 3951POPC   C1B52939  26.227  20.266   6.173
 3951POPC   C2B52940  26.064  20.167   6.554
 3951POPC   C3B52941  26.294  20.075   6.909
 3951POPC   C4B52942  26.142  20.220   7.268
 3952POPC   NC352943  17.806  30.206   5.425
 3952POPC   PO452944  17.289  29.757   5.347
 3952POPC   GL152945  17.322  29.763   5.768
 3952POPC   GL252946  17.664  29.901   5.845
 3952POPC   C1A52947  17.167  29.811   6.180
 3952POPC   D2A52948  17.430  30.010   6.494
 3952POPC   C3A52949  17.332  29.828   6.867
 3952POPC   C4A52950  17.232  29.534   7.167
 3952POPC   C1B52951  17.770  30.251   6.149
 3952POPC   C2B52952  17.842  30.332   6.588
 3952POPC   C3B52953  17.783  30.045   6.933
 3952POPC   C4B52954  17.513  30.078   7.301
 3953POPC   NC352955  20.023  18.321   5.268
 3953POPC   PO452956  19.673  17.741   5.417
 3953POPC   GL152957  19.919  18.054   5.726
 3953POPC   GL252958  19.697  18.322   5.925
 3953POPC   C1A52959  20.174  18.243   6.061
 3953POPC   D2A52960  20.083  18.432   6.476
 3953POPC   C3A52961  20.047  18.152   6.805
 3953POPC   C4A52962  19.906  18.278   7.196
 3953POPC   C1B52963  19.439  18.180   6.244
 3953POPC   C2B52964  19.567  18.062   6.650
 3953POPC   C3B52965  19.399  18.240   7.017
 3953POPC   C4B52966  19.436  18.239   7.432
 3954POPC   NC352967  10.245   7.767   5.444
 3954POPC   PO452968  10.618   7.261   5.355
 3954POPC   GL152969  10.651   7.570   5.721
 3954POPC   GL252970  10.312   7.619   5.912
 3954POPC   C1A52971  10.740   7.679   6.166
 3954POPC   D2A52972  10.520   7.489   6.507
 3954POPC   C3A52973  10.670   7.569   6.928
 3954POPC   C4A52974  10.866   7.376   7.268
 3954POPC   C1B52975  10.277   7.198   6.069
 3954POPC   C2B52976  10.233   7.054   6.478
 3954POPC   C3B52977  10.377   7.130   6.884
 3954POPC   C4B52978  10.403   7.209   7.291
 3955POPC   NC352979   5.354  41.468   5.496
 3955POPC   PO452980   6.025  41.252   5.454
 3955POPC   GL152981   5.913  41.437   5.824
 3955POPC   GL252982   5.762  41.702   5.736
 3955POPC   C1A52983   6.110  41.383   6.224
 3955POPC   D2A52984   6.301  41.087   6.489
 3955POPC   C3A52985   6.197  41.182   6.906
 3955POPC   C4A52986   6.013  41.435   7.225
 3955POPC   C1B52987   5.760  41.774   6.206
 3955POPC   C2B52988   5.952  41.734   6.621
 3955POPC   C3B52989   6.000  41.899   7.038
 3955POPC   C4B52990   5.832  41.858   7.467
 3956POPC   NC352991  10.510  10.812   5.548
 3956POPC   PO452992  10.480  10.076   5.563
 3956POPC   GL152993  10.652  10.384   5.829
 3956POPC   GL252994  10.335  10.479   5.881
 3956POPC   C1A52995  10.717  10.622   6.232
 3956POPC   D2A52996  10.917  10.606   6.649
 3956POPC   C3A52997  10.669  10.557   7.003
 3956POPC   C4A52998  10.912  10.310   7.212
 3956POPC   C1B52999  10.325  10.309   6.254
 3956POPC   C2B53000  10.333  10.567   6.605
 3956POPC   C3B53001  10.172  10.396   6.964
 3956POPC   C4B53002  10.340  10.068   7.231
 3957POPC   NC353003  20.006  40.585   5.344
 3957POPC   PO453004  19.913  41.102   5.718
 3957POPC   GL153005  19.934  40.686   5.845
 3957POPC   GL253006  19.673  40.459   5.724
 3957POPC   C1A53007  20.066  40.617   6.258
 3957POPC   D2A53008  19.902  40.994   6.496
 3957POPC   C3A53009  19.862  40.915   6.930
 3957POPC   C4A53010  20.009  41.036   7.280
 3957POPC   C1B53011  19.578  40.551   6.184
 3957POPC   C2B53012  19.685  40.550   6.634
 3957POPC   C3B53013  19.592  40.507   7.098
 3957POPC   C4B53014  19.662  40.633   7.548
 3958POPC   NC353015  26.022  42.981   5.362
 3958POPC   PO453016  26.371  42.444   5.429
 3958POPC   GL153017  26.024  42.621   5.735
 3958POPC   GL253018  26.144  42.968   5.843
 3958POPC   C1A53019  25.897  42.728   6.190
 3958POPC   D2A53020  26.036  42.860   6.570
 3958POPC   C3A53021  25.857  42.792   6.954
 3958POPC   C4A53022  25.954  43.027   7.324
 3958POPC   C1B53023  26.052  43.229   6.200
 3958POPC   C2B53024  26.006  43.364   6.636
 3958POPC   C3B53025  26.059  43.467   7.078
 3958POPC   C4B53026  26.410  43.437   7.353
 3959POPC   NC353027  20.056  37.608   5.517
 3959POPC   PO453028  19.511  37.945   5.743
 3959POPC   GL153029  19.643  37.555   5.833
 3959POPC   GL253030  19.356  37.388   5.874
 3959POPC   C1A53031  19.927  37.407   6.172
 3959POPC   D2A53032  19.961  37.253   6.609
 3959POPC   C3A53033  20.025  37.568   6.930
 3959POPC   C4A53034  20.107  37.934   7.232
 3959POPC   C1B53035  19.435  37.466   6.325
 3959POPC   C2B53036  19.418  37.819   6.608
 3959POPC   C3B53037  19.621  37.909   6.986
 3959POPC   C4B53038  19.704  37.609   7.306
 3960POPC   NC353039   6.334  19.641   5.566
 3960POPC   PO453040   6.850  19.985   5.300
 3960POPC   GL153041   6.657  19.966   5.761
 3960POPC   GL253042   6.337  20.149   5.732
 3960POPC   C1A53043   6.465  19.798   6.184
 3960POPC   D2A53044   6.620  19.619   6.594
 3960POPC   C3A53045   6.485  19.731   7.013
 3960POPC   C4A53046   6.613  19.619   7.444
 3960POPC   C1B53047   6.390  20.313   6.144
 3960POPC   C2B53048   6.567  20.170   6.540
 3960POPC   C3B53049   6.444  20.258   6.953
 3960POPC   C4B53050   6.503  20.110   7.377
 3961POPC   NC353051  18.492  17.843   5.471
 3961POPC   PO453052  18.091  17.315   5.404
 3961POPC   GL153053  18.344  17.450   5.772
 3961POPC   GL253054  18.210  17.772   5.874
 3961POPC   C1A53055  18.528  17.525   6.196
 3961POPC   D2A53056  18.287  17.619   6.571
 3961POPC   C3A53057  18.437  17.504   6.987
 3961POPC   C4A53058  18.345  17.217   7.306
 3961POPC   C1B53059  17.956  17.905   6.188
 3961POPC   C2B53060  18.027  18.080   6.588
 3961POPC   C3B53061  18.098  17.897   6.997
 3961POPC   C4B53062  18.189  17.716   7.397
 3962POPC   NC353063  18.428  22.047   5.203
 3962POPC   PO453064  17.980  21.714   5.603
 3962POPC   GL153065  18.060  22.051   5.859
 3962POPC   GL253066  18.391  22.236   5.745
 3962POPC   C1A53067  18.073  22.060   6.306
 3962POPC   D2A53068  18.319  22.245   6.606
 3962POPC   C3A53069  18.256  22.179   7.032
 3962POPC   C4A53070  18.569  21.906   7.231
 3962POPC   C1B53071  18.239  22.499   6.099
 3962POPC   C2B53072  18.298  22.739   6.483
 3962POPC   C3B53073  18.368  22.683   6.910
 3962POPC   C4B53074  18.174  22.620   7.319
 3963POPC   NC353075  35.883  31.513   5.526
 3963POPC   PO453076  36.412  30.980   5.582
 3963POPC   GL153077  36.221  31.240   5.836
 3963POPC   GL253078  35.896  31.076   5.794
 3963POPC   C1A53079  36.290  31.508   6.193
 3963POPC   D2A53080  36.523  31.480   6.590
 3963POPC   C3A53081  36.276  31.653   6.912
 3963POPC   C4A53082  36.188  31.475   7.276
 3963POPC   C1B53083  35.857  31.189   6.218
 3963POPC   C2B53084  35.897  31.081   6.645
 3963POPC   C3B53085  35.788  31.254   7.028
 3963POPC   C4B53086  35.732  31.687   7.134
 3964POPC   NC353087  18.608   6.455   5.376
 3964POPC   PO453088  18.041   6.955   5.446
 3964POPC   GL153089  18.110   6.718   5.811
 3964POPC   GL253090  18.455   6.708   5.830
 3964POPC   C1A53091  18.081   6.469   6.173
 3964POPC   D2A53092  18.270   6.462   6.578
 3964POPC   C3A53093  18.166   6.180   6.885
 3964POPC   C4A53094  17.986   6.286   7.278
 3964POPC   C1B53095  18.626   6.539   6.208
 3964POPC   C2B53096  18.757   6.596   6.634
 3964POPC   C3B53097  18.637   6.485   7.045
 3964POPC   C4B53098  18.889   6.521   7.418
 3965POPC   NC353099  20.491  14.744   5.361
 3965POPC   PO453100  20.614  14.151   5.561
 3965POPC   GL153101  20.900  14.282   5.832
 3965POPC   GL253102  20.761  14.609   5.806
 3965POPC   C1A53103  20.969  14.234   6.273
 3965POPC   D2A53104  20.637  14.190   6.590
 3965POPC   C3A53105  20.758  14.204   7.019
 3965POPC   C4A53106  20.515  14.290   7.370
 3965POPC   C1B53107  20.495  14.450   6.147
 3965POPC   C2B53108  20.418  14.674   6.520
 3965POPC   C3B53109  20.415  14.581   6.930
 3965POPC   C4B53110  20.220  14.724   7.287
 3966POPC   NC353111  38.995  20.904   5.466
 3966POPC   PO453112  39.483  20.412   5.252
 3966POPC   GL153113  39.396  20.379   5.770
 3966POPC   GL253114  39.089  20.518   5.817
 3966POPC   C1A53115  39.383  20.520   6.227
 3966POPC   D2A53116  39.276  20.582   6.668
 3966POPC   C3A53117  39.462  20.426   7.061
 3966POPC   C4A53118  39.341  20.624   7.472
 3966POPC   C1B53119  38.890  20.276   6.158
 3966POPC   C2B53120  38.903  20.210   6.597
 3966POPC   C3B53121  38.897  20.442   7.013
 3966POPC   C4B53122  38.585  20.431   7.346
 3967POPC   NC353123  36.529  11.271   5.224
 3967POPC   PO453124  37.122  11.246   5.490
 3967POPC   GL153125  37.016  11.163   5.882
 3967POPC   GL253126  36.688  11.347   5.942
 3967POPC   C1A53127  37.087  11.376   6.245
 3967POPC   D2A53128  36.880  11.464   6.562
 3967POPC   C3A53129  37.051  11.199   6.831
 3967POPC   C4A53130  37.061  11.235   7.238
 3967POPC   C1B53131  36.709  11.045   6.303
 3967POPC   C2B53132  36.553  11.108   6.700
 3967POPC   C3B53133  36.597  11.402   7.022
 3967POPC   C4B53134  36.313  11.550   7.342
 3968POPC   NC353135  25.111  11.783   5.488
 3968POPC   PO453136  25.549  12.368   5.547
 3968POPC   GL153137  25.288  12.163   5.799
 3968POPC   GL253138  25.501  11.884   5.839
 3968POPC   C1A53139  25.035  11.960   6.120
 3968POPC   D2A53140  24.804  11.958   6.529
 3968POPC   C3A53141  24.893  12.264   6.814
 3968POPC   C4A53142  25.110  12.219   7.146
 3968POPC   C1B53143  25.568  12.088   6.207
 3968POPC   C2B53144  25.279  12.250   6.468
 3968POPC   C3B53145  25.299  11.948   6.753
 3968POPC   C4B53146  25.506  11.665   7.031
 3969POPC   NC353147  31.457  18.176   5.367
 3969POPC   PO453148  31.375  18.827   5.141
 3969POPC   GL153149  31.397  18.724   5.698
 3969POPC   GL253150  31.287  18.355   5.817
 3969POPC   C1A53151  31.542  18.614   6.179
 3969POPC   D2A53152  31.793  18.408   6.570
 3969POPC   C3A53153  31.678  18.556   7.026
 3969POPC   C4A53154  31.274  18.620   7.263
 3969POPC   C1B53155  31.611  18.114   6.128
 3969POPC   C2B53156  31.714  17.880   6.534
 3969POPC   C3B53157  31.775  17.955   6.986
 3969POPC   C4B53158  31.440  18.150   7.207
 3970POPC   NC353159  42.783  28.571   5.566
 3970POPC   PO453160  42.397  28.167   5.328
 3970POPC   GL153161  42.241  28.190   5.716
 3970POPC   GL253162  42.302  28.518   5.758
 3970POPC   C1A53163  42.413  28.178   6.137
 3970POPC   D2A53164  42.236  28.110   6.556
 3970POPC   C3A53165  42.084  28.375   6.887
 3970POPC   C4A53166  42.234  28.331   7.323
 3970POPC   C1B53167  42.327  28.685   6.176
 3970POPC   C2B53168  42.445  28.594   6.585
 3970POPC   C3B53169  42.591  28.518   6.997
 3970POPC   C4B53170  42.677  28.575   7.462
 3971POPC   NC353171  40.550  23.089   5.175
 3971POPC   PO453172  40.943  22.495   5.342
 3971POPC   GL153173  41.035  22.639   5.772
 3971POPC   GL253174  40.693  22.706   5.844
 3971POPC   C1A53175  41.003  22.557   6.233
 3971POPC   D2A53176  40.860  22.718   6.652
 3971POPC   C3A53177  41.074  22.864   7.034
 3971POPC   C4A53178  41.089  23.162   7.385
 3971POPC   C1B53179  40.507  22.853   6.229
 3971POPC   C2B53180  40.482  23.077   6.632
 3971POPC   C3B53181  40.585  23.031   7.072
 3971POPC   C4B53182  40.344  22.870   7.407
 3972POPC   NC353183  35.253   6.179   5.280
 3972POPC   PO453184  35.296   5.541   5.408
 3972POPC   GL153185  35.301   5.909   5.717
 3972POPC   GL253186  34.983   5.969   5.840
 3972POPC   C1A53187  35.390   5.951   6.188
 3972POPC   D2A53188  35.419   5.620   6.546
 3972POPC   C3A53189  35.677   5.694   6.947
 3972POPC   C4A53190  35.647   5.822   7.396
 3972POPC   C1B53191  34.975   5.661   6.181
 3972POPC   C2B53192  34.983   5.894   6.537
 3972POPC   C3B53193  35.225   5.937   6.900
 3972POPC   C4B53194  35.105   5.872   7.288
 3973POPC   NC353195  21.432   4.760   5.460
 3973POPC   PO453196  21.313   5.434   5.304
 3973POPC   GL153197  21.486   5.450   5.738
 3973POPC   GL253198  21.439   5.106   5.882
 3973POPC   C1A53199  21.339   5.520   6.178
 3973POPC   D2A53200  21.068   5.401   6.539
 3973POPC   C3A53201  21.333   5.472   6.899
 3973POPC   C4A53202  21.451   5.257   7.269
 3973POPC   C1B53203  21.272   4.989   6.319
 3973POPC   C2B53204  21.264   4.973   6.806
 3973POPC   C3B53205  21.391   4.735   7.211
 3973POPC   C4B53206  21.310   4.512   7.645
 3974POPC   NC353207  20.313  11.212   5.075
 3974POPC   PO453208  19.739  11.160   5.386
 3974POPC   GL153209  19.944  11.200   5.788
 3974POPC   GL253210  19.639  11.125   5.961
 3974POPC   C1A53211  19.955  11.506   6.121
 3974POPC   D2A53212  19.770  11.537   6.541
 3974POPC   C3A53213  20.054  11.474   6.877
 3974POPC   C4A53214  20.079  11.609   7.286
 3974POPC   C1B53215  19.899  11.053   6.346
 3974POPC   C2B53216  19.798  11.063   6.788
 3974POPC   C3B53217  19.720  11.220   7.197
 3974POPC   C4B53218  19.506  11.101   7.568
 3975POPC   NC353219  19.386  38.197   5.374
 3975POPC   PO453220  18.862  38.640   5.474
 3975POPC   GL153221  19.015  38.621   5.871
 3975POPC   GL253222  19.089  38.286   5.843
 3975POPC   C1A53223  19.025  38.830   6.271
 3975POPC   D2A53224  19.243  38.917   6.637
 3975POPC   C3A53225  19.006  38.746   6.959
 3975POPC   C4A53226  19.103  38.599   7.330
 3975POPC   C1B53227  19.273  38.299   6.259
 3975POPC   C2B53228  19.239  38.355   6.697
 3975POPC   C3B53229  19.072  38.167   7.056
 3975POPC   C4B53230  18.782  37.884   7.219
 3976POPC   NC353231  38.747  43.485   5.566
 3976POPC   PO453232  39.408  43.591   5.485
 3976POPC   GL153233  39.176  43.903   5.766
 3976POPC   GL253234  39.480  44.084   5.943
 3976POPC   C1A53235  39.012  44.202   6.101
 3976POPC   D2A53236  39.324  44.298   6.427
 3976POPC   C3A53237  39.224  44.202   6.859
 3976POPC   C4A53238  39.079  44.207   7.293
 3976POPC   C1B53239  39.313  43.806   6.252
 3976POPC   C2B53240  39.321  43.736   6.670
 3976POPC   C3B53241  39.058  43.747   7.045
 3976POPC   C4B53242  39.081  43.428   7.328
 3977POPC   NC353243  17.822  27.673   5.290
 3977POPC   PO453244  18.454  27.916   5.266
 3977POPC   GL153245  18.252  27.683   5.605
 3977POPC   GL253246  18.026  27.895   5.745
 3977POPC   C1A53247  18.235  27.539   6.065
 3977POPC   D2A53248  18.380  27.379   6.481
 3977POPC   C3A53249  18.305  27.541   6.908
 3977POPC   C4A53250  18.521  27.850   7.149
 3977POPC   C1B53251  17.810  27.835   6.121
 3977POPC   C2B53252  17.945  27.668   6.512
 3977POPC   C3B53253  17.816  27.741   6.925
 3977POPC   C4B53254  17.979  27.713   7.317
 3978POPC   NC353255  26.597  28.650   5.374
 3978POPC   PO453256  25.902  28.370   5.349
 3978POPC   GL153257  25.879  28.559   5.775
 3978POPC   GL253258  26.208  28.688   5.857
 3978POPC   C1A53259  25.832  28.373   6.207
 3978POPC   D2A53260  25.708  28.176   6.622
 3978POPC   C3A53261  26.015  28.201   6.977
 3978POPC   C4A53262  26.307  28.215   7.312
 3978POPC   C1B53263  26.076  28.825   6.279
 3978POPC   C2B53264  26.100  28.682   6.723
 3978POPC   C3B53265  26.326  28.718   7.135
 3978POPC   C4B53266  26.618  28.600   7.498
 3979POPC   NC353267  21.024  37.478   5.397
 3979POPC   PO453268  20.495  37.804   5.632
 3979POPC   GL153269  20.764  37.580   5.870
 3979POPC   GL253270  21.057  37.756   5.849
 3979POPC   C1A53271  20.642  37.638   6.283
 3979POPC   D2A53272  20.431  37.484   6.619
 3979POPC   C3A53273  20.534  37.665   7.009
 3979POPC   C4A53274  20.699  37.377   7.270
 3979POPC   C1B53275  21.146  37.601   6.284
 3979POPC   C2B53276  20.967  37.589   6.686
 3979POPC   C3B53277  21.061  37.685   7.098
 3979POPC   C4B53278  20.848  37.964   7.364
 3980POPC   NC353279  40.009  28.653   5.171
 3980POPC   PO453280  39.831  28.010   5.442
 3980POPC   GL153281  40.145  28.184   5.737
 3980POPC   GL253282  40.520  28.146   5.828
 3980POPC   C1A53283  40.134  28.417   6.138
 3980POPC   D2A53284  40.100  28.652   6.529
 3980POPC   C3A53285  39.973  28.400   6.825
 3980POPC   C4A53286  40.049  28.380   7.234
 3980POPC   C1B53287  40.280  27.914   6.147
 3980POPC   C2B53288  40.143  28.025   6.530
 3980POPC   C3B53289  40.326  28.036   6.931
 3980POPC   C4B53290  40.485  28.063   7.349
 3981POPC   NC353291  11.310  44.315   5.457
 3981POPC   PO453292  10.976  43.689   5.332
 3981POPC   GL153293  11.141  43.896   5.722
 3981POPC   GL253294  11.516  43.845   5.732
 3981POPC   C1A53295  11.286  44.084   6.130
 3981POPC   D2A53296  11.213  44.294   6.509
 3981POPC   C3A53297  11.303  44.156   6.932
 3981POPC   C4A53298  11.034  43.915   7.188
 3981POPC   C1B53299  11.419  43.588   6.123
 3981POPC   C2B53300  11.319  43.766   6.549
 3981POPC   C3B53301  11.483  43.677   6.959
 3981POPC   C4B53302  11.374  43.589   7.377
 3982POPC   NC353303   3.529  34.127   5.363
 3982POPC   PO453304   3.558  33.502   5.437
 3982POPC   GL153305   3.581  33.797   5.769
 3982POPC   GL253306   3.890  34.030   5.730
 3982POPC   C1A53307   3.447  33.764   6.215
 3982POPC   D2A53308   3.353  33.573   6.634
 3982POPC   C3A53309   3.593  33.694   6.998
 3982POPC   C4A53310   3.589  33.589   7.447
 3982POPC   C1B53311   3.697  34.189   6.133
 3982POPC   C2B53312   3.509  34.110   6.585
 3982POPC   C3B53313   3.738  34.214   6.953
 3982POPC   C4B53314   3.983  34.285   7.314
 3983POPC   NC353315   9.149  38.974   5.402
 3983POPC   PO453316   8.699  39.499   5.478
 3983POPC   GL153317   8.914  39.261   5.764
 3983POPC   GL253318   8.767  38.939   5.765
 3983POPC   C1A53319   8.838  39.260   6.184
 3983POPC   D2A53320   8.912  39.438   6.566
 3983POPC   C3A53321   8.650  39.265   6.838
 3983POPC   C4A53322   8.651  39.211   7.257
 3983POPC   C1B53323   8.989  38.782   6.117
 3983POPC   C2B53324   9.121  38.976   6.503
 3983POPC   C3B53325   9.021  38.912   6.902
 3983POPC   C4B53326   9.199  38.847   7.269
 3984POPC   NC353327   4.864  35.082   5.379
 3984POPC   PO453328   4.634  35.688   5.422
 3984POPC   GL153329   4.958  35.482   5.748
 3984POPC   GL253330   4.785  35.277   5.944
 3984POPC   C1A53331   5.260  35.355   6.138
 3984POPC   D2A53332   5.576  35.320   6.486
 3984POPC   C3A53333   5.476  35.381   6.914
 3984POPC   C4A53334   5.110  35.460   7.190
 3984POPC   C1B53335   4.853  35.656   6.234
 3984POPC   C2B53336   4.954  35.587   6.682
 3984POPC   C3B53337   4.640  35.446   6.995
 3984POPC   C4B53338   4.661  35.598   7.420
 3985POPC   NC353339  33.183  40.791   5.462
 3985POPC   PO453340  33.096  41.278   5.180
 3985POPC   GL153341  32.848  41.081   5.694
 3985POPC   GL253342  32.849  40.750   5.849
 3985POPC   C1A53343  33.007  41.067   6.208
 3985POPC   D2A53344  33.070  40.856   6.659
 3985POPC   C3A53345  32.991  41.005   7.094
 3985POPC   C4A53346  32.766  40.861   7.476
 3985POPC   C1B53347  32.962  40.540   6.241
 3985POPC   C2B53348  32.856  40.391   6.649
 3985POPC   C3B53349  32.737  40.544   7.043
 3985POPC   C4B53350  32.422  40.496   7.367
 3986POPC   NC353351   5.020  22.572   5.318
 3986POPC   PO453352   5.288  21.880   5.439
 3986POPC   GL153353   5.285  22.129   5.808
 3986POPC   GL253354   4.949  22.178   5.770
 3986POPC   C1A53355   5.179  22.012   6.247
 3986POPC   D2A53356   5.282  22.193   6.662
 3986POPC   C3A53357   5.227  21.997   7.076
 3986POPC   C4A53358   5.390  22.124   7.484
 3986POPC   C1B53359   4.749  22.380   6.096
 3986POPC   C2B53360   4.728  22.609   6.482
 3986POPC   C3B53361   4.750  22.405   6.866
 3986POPC   C4B53362   4.697  21.998   7.110
 3987POPC   NC353363  27.726  30.833   5.426
 3987POPC   PO453364  27.090  30.488   5.499
 3987POPC   GL153365  27.201  30.576   5.938
 3987POPC   GL253366  27.427  30.866   5.892
 3987POPC   C1A53367  27.333  30.724   6.372
 3987POPC   D2A53368  27.638  30.895   6.652
 3987POPC   C3A53369  27.458  30.844   7.040
 3987POPC   C4A53370  27.538  30.433   7.093
 3987POPC   C1B53371  27.816  30.826   6.163
 3987POPC   C2B53372  28.084  30.654   6.510
 3987POPC   C3B53373  28.036  30.497   6.934
 3987POPC   C4B53374  27.908  30.741   7.261
 3988POPC   NC353375  15.402  14.091   5.327
 3988POPC   PO453376  15.067  14.610   5.452
 3988POPC   GL153377  15.322  14.481   5.829
 3988POPC   GL253378  15.589  14.739   5.900
 3988POPC   C1A53379  15.203  14.256   6.237
 3988POPC   D2A53380  14.809  14.193   6.517
 3988POPC   C3A53381  14.900  13.982   6.895
 3988POPC   C4A53382  15.258  14.069   7.148
 3988POPC   C1B53383  15.602  14.771   6.380
 3988POPC   C2B53384  15.371  14.528   6.671
 3988POPC   C3B53385  14.992  14.517   6.903
 3988POPC   C4B53386  14.824  14.317   7.261
 3989POPC   NC353387   8.387  42.809   5.193
 3989POPC   PO453388   8.001  43.141   5.584
 3989POPC   GL153389   8.414  43.231   5.677
 3989POPC   GL253390   8.603  42.940   5.668
 3989POPC   C1A53391   8.507  43.289   6.103
 3989POPC   D2A53392   8.205  43.171   6.434
 3989POPC   C3A53393   8.169  43.356   6.852
 3989POPC   C4A53394   8.066  43.180   7.263
 3989POPC   C1B53395   8.361  42.766   6.018
 3989POPC   C2B53396   8.362  42.644   6.462
 3989POPC   C3B53397   8.294  42.856   6.865
 3989POPC   C4B53398   8.290  42.717   7.294
 3990POPC   NC353399  36.704  40.365   5.271
 3990POPC   PO453400  36.678  41.036   5.158
 3990POPC   GL153401  36.696  40.859   5.580
 3990POPC   GL253402  36.638  41.133   5.790
 3990POPC   C1A53403  36.954  40.786   6.001
 3990POPC   D2A53404  37.141  40.836   6.463
 3990POPC   C3A53405  37.065  40.555   6.848
 3990POPC   C4A53406  36.839  40.681   7.242
 3990POPC   C1B53407  36.641  41.152   6.246
 3990POPC   C2B53408  36.304  41.125   6.575
 3990POPC   C3B53409  36.476  41.159   6.956
 3990POPC   C4B53410  36.916  41.117   6.995
 3991POPC   NC353411  13.519  29.299   5.327
 3991POPC   PO453412  13.569  28.648   5.229
 3991POPC   GL153413  13.736  28.946   5.601
 3991POPC   GL253414  13.916  29.315   5.673
 3991POPC   C1A53415  13.674  28.995   6.027
 3991POPC   D2A53416  13.487  28.855   6.411
 3991POPC   C3A53417  13.639  28.870   6.866
 3991POPC   C4A53418  13.464  29.014   7.276
 3991POPC   C1B53419  13.679  29.489   6.069
 3991POPC   C2B53420  13.462  29.365   6.461
 3991POPC   C3B53421  13.459  29.375   6.910
 3991POPC   C4B53422  13.841  29.421   7.180
 3992POPC   NC353423   2.121   7.870   5.578
 3992POPC   PO453424   2.078   7.264   5.299
 3992POPC   GL153425   1.953   7.134   5.737
 3992POPC   GL253426   1.624   7.306   5.781
 3992POPC   C1A53427   1.975   7.134   6.219
 3992POPC   D2A53428   2.195   7.129   6.644
 3992POPC   C3A53429   2.162   7.368   7.071
 3992POPC   C4A53430   2.114   7.274   7.539
 3992POPC   C1B53431   1.746   7.584   6.134
 3992POPC   C2B53432   1.928   7.602   6.572
 3992POPC   C3B53433   1.803   7.759   6.983
 3992POPC   C4B53434   2.020   7.746   7.390
 3993POPC   NC353435  31.724  17.244   5.121
 3993POPC   PO453436  31.486  17.736   5.238
 3993POPC   GL153437  31.480  17.793   5.742
 3993POPC   GL253438  31.758  17.647   5.949
 3993POPC   C1A53439  31.290  17.726   6.202
 3993POPC   D2A53440  31.230  17.499   6.608
 3993POPC   C3A53441  31.294  17.706   7.009
 3993POPC   C4A53442  31.144  17.775   7.436
 3993POPC   C1B53443  31.676  17.403   6.357
 3993POPC   C2B53444  31.700  17.438   6.840
 3993POPC   C3B53445  31.945  17.505   7.238
 3993POPC   C4B53446  31.923  17.437   7.707
 3994POPC   NC353447  33.585   9.373   5.358
 3994POPC   PO453448  34.107   8.950   5.306
 3994POPC   GL153449  33.990   8.791   5.766
 3994POPC   GL253450  33.689   8.826   5.721
 3994POPC   C1A53451  33.863   8.732   6.211
 3994POPC   D2A53452  34.052   9.050   6.487
 3994POPC   C3A53453  34.139   9.070   6.919
 3994POPC   C4A53454  33.964   9.132   7.305
 3994POPC   C1B53455  33.786   9.202   6.025
 3994POPC   C2B53456  33.627   9.317   6.462
 3994POPC   C3B53457  33.579   9.082   6.858
 3994POPC   C4B53458  33.451   9.236   7.254
 3995POPC   NC353459  42.322  41.700   4.959
 3995POPC   PO453460  42.726  41.439   5.437
 3995POPC   GL153461  42.334  41.623   5.579
 3995POPC   GL253462  42.132  41.317   5.695
 3995POPC   C1A53463  42.278  41.689   6.045
 3995POPC   D2A53464  42.398  41.436   6.426
 3995POPC   C3A53465  42.548  41.496   6.829
 3995POPC   C4A53466  42.364  41.650   7.158
 3995POPC   C1B53467  42.283  41.111   6.067
 3995POPC   C2B53468  42.281  40.926   6.503
 3995POPC   C3B53469  42.215  41.101   6.904
 3995POPC   C4B53470  42.323  41.182   7.321
 3996POPC   NC353471  34.933  27.047   4.970
 3996POPC   PO453472  34.528  26.581   5.340
 3996POPC   GL153473  34.592  26.755   5.769
 3996POPC   GL253474  34.862  26.981   5.660
 3996POPC   C1A53475  34.381  26.879   6.197
 3996POPC   D2A53476  34.217  26.769   6.630
 3996POPC   C3A53477  34.386  26.938   7.015
 3996POPC   C4A53478  34.720  26.707   7.218
 3996POPC   C1B53479  34.900  26.933   6.144
 3996POPC   C2B53480  34.782  27.033   6.604
 3996POPC   C3B53481  34.842  27.188   7.049
 3996POPC   C4B53482  35.094  27.056   7.391
 3997POPC   NC353483  33.955   0.340   5.122
 3997POPC   PO453484  33.531  44.877   5.415
 3997POPC   GL153485  33.808   0.218   5.684
 3997POPC   GL253486  33.592   0.426   5.847
 3997POPC   C1A53487  34.040   0.449   6.074
 3997POPC   D2A53488  33.928   0.553   6.519
 3997POPC   C3A53489  34.141   0.480   6.895
 3997POPC   C4A53490  34.130   0.248   7.279
 3997POPC   C1B53491  33.578   0.255   6.240
 3997POPC   C2B53492  33.472   0.312   6.660
 3997POPC   C3B53493  33.700   0.150   6.996
 3997POPC   C4B53494  33.700   0.527   7.167
 3998POPC   NC353495  22.132  15.739   5.316
 3998POPC   PO453496  22.177  16.424   5.436
 3998POPC   GL153497  22.275  16.189   5.801
 3998POPC   GL253498  22.065  15.942   5.775
 3998POPC   C1A53499  22.308  15.961   6.227
 3998POPC   D2A53500  22.481  16.030   6.646
 3998POPC   C3A53501  22.378  15.885   7.088
 3998POPC   C4A53502  22.131  15.763   7.464
 3998POPC   C1B53503  21.901  16.273   6.098
 3998POPC   C2B53504  22.037  16.330   6.496
 3998POPC   C3B53505  22.059  16.242   6.888
 3998POPC   C4B53506  21.840  16.344   7.207
 3999POPC   NC353507  22.086  41.147   5.414
 3999POPC   PO453508  22.486  40.586   5.587
 3999POPC   GL153509  22.081  40.647   5.872
 3999POPC   GL253510  22.017  40.975   5.881
 3999POPC   C1A53511  21.879  40.733   6.325
 3999POPC   D2A53512  21.809  40.801   6.804
 3999POPC   C3A53513  22.073  40.524   7.022
 3999POPC   C4A53514  22.058  40.394   7.465
 3999POPC   C1B53515  22.315  41.014   6.223
 3999POPC   C2B53516  22.312  40.865   6.661
 3999POPC   C3B53517  22.337  41.070   7.072
 3999POPC   C4B53518  22.683  41.120   7.366
 4000POPC   NC353519  39.544  17.582   5.539
 4000POPC   PO453520  38.917  17.544   5.632
 4000POPC   GL153521  39.200  17.422   5.903
 4000POPC   GL253522  39.481  17.168   5.902
 4000POPC   C1A53523  39.392  17.702   6.166
 4000POPC   D2A53524  39.508  17.689   6.559
 4000POPC   C3A53525  39.221  17.573   6.865
 4000POPC   C4A53526  39.343  17.753   7.240
 4000POPC   C1B53527  39.319  17.220   6.347
 4000POPC   C2B53528  38.892  17.295   6.540
 4000POPC   C3B53529  38.958  17.121   6.914
 4000POPC   C4B53530  39.406  17.105   7.096
 4001POPC   NC353531  19.557  31.622   5.523
 4001POPC   PO453532  20.029  31.167   5.416
 4001POPC   GL153533  19.837  31.231   5.824
 4001POPC   GL253534  19.495  31.271   5.895
 4001POPC   C1A53535  19.994  31.278   6.261
 4001POPC   D2A53536  19.960  31.548   6.644
 4001POPC   C3A53537  20.056  31.358   7.044
 4001POPC   C4A53538  20.186  31.281   7.509
 4001POPC   C1B53539  19.552  31.585   6.225
 4001POPC   C2B53540  19.460  31.713   6.650
 4001POPC   C3B53541  19.588  31.615   7.068
 4001POPC   C4B53542  19.896  31.714   7.372
 4002POPC   NC353543  11.529  38.209   5.459
 4002POPC   PO453544  10.974  38.607   5.562
 4002POPC   GL153545  11.380  38.587   5.798
 4002POPC   GL253546  11.214  38.267   5.861
 4002POPC   C1A53547  11.449  38.482   6.240
 4002POPC   D2A53548  11.085  38.396   6.497
 4002POPC   C3A53549  11.078  38.570   6.875
 4002POPC   C4A53550  11.275  38.576   7.238
 4002POPC   C1B53551  11.259  38.018   6.205
 4002POPC   C2B53552  11.353  37.956   6.624
 4002POPC   C3B53553  11.311  38.106   7.055
 4002POPC   C4B53554  11.184  38.152   7.507
 4003POPC   NC353555  27.574  31.791   5.183
 4003POPC   PO453556  27.783  32.449   5.187
 4003POPC   GL153557  27.801  32.327   5.618
 4003POPC   GL253558  27.446  32.290   5.666
 4003POPC   C1A53559  27.890  32.315   6.087
 4003POPC   D2A53560  27.730  32.303   6.527
 4003POPC   C3A53561  27.933  32.366   6.935
 4003POPC   C4A53562  27.659  32.206   7.257
 4003POPC   C1B53563  27.374  32.278   6.116
 4003POPC   C2B53564  27.243  32.496   6.493
 4003POPC   C3B53565  27.313  32.384   6.905
 4003POPC   C4B53566  27.150  32.329   7.328
 4004POPC   NC353567  14.150  44.743   5.101
 4004POPC   PO453568  14.675  44.657   5.439
 4004POPC   GL153569  14.389  44.764   5.770
 4004POPC   GL253570  14.274  44.493   6.022
 4004POPC   C1A53571  14.261  44.968   6.154
 4004POPC   D2A53572  14.095  44.804   6.515
 4004POPC   C3A53573  14.308  44.755   6.886
 4004POPC   C4A53574  14.581  44.495   7.148
 4004POPC   C1B53575  13.954  44.326   6.310
 4004POPC   C2B53576  13.840  44.353   6.757
 4004POPC   C3B53577  14.070  44.412   7.152
 4004POPC   C4B53578  13.968  44.331   7.576
 4005POPC   NC353579   2.193   5.607   5.478
 4005POPC   PO453580   2.323   5.066   5.177
 4005POPC   GL153581   2.054   5.134   5.626
 4005POPC   GL253582   1.795   5.463   5.726
 4005POPC   C1A53583   1.945   5.064   6.107
 4005POPC   D2A53584   1.875   4.852   6.533
 4005POPC   C3A53585   2.196   4.807   6.837
 4005POPC   C4A53586   2.222   5.051   7.198
 4005POPC   C1B53587   1.545   5.399   6.107
 4005POPC   C2B53588   1.566   5.250   6.515
 4005POPC   C3B53589   1.676   5.297   6.954
 4005POPC   C4B53590   1.562   5.592   7.306
 4006POPC   NC353591  23.156  37.104   5.312
 4006POPC   PO453592  22.692  36.653   5.509
 4006POPC   GL153593  23.112  36.685   5.707
 4006POPC   GL253594  23.015  37.001   5.789
 4006POPC   C1A53595  23.286  36.794   6.139
 4006POPC   D2A53596  23.131  37.015   6.518
 4006POPC   C3A53597  22.902  36.806   6.804
 4006POPC   C4A53598  22.772  36.884   7.196
 4006POPC   C1B53599  22.767  36.879   6.169
 4006POPC   C2B53600  22.472  36.869   6.530
 4006POPC   C3B53601  22.446  37.140   6.900
 4006POPC   C4B53602  22.533  37.324   7.325
 4007POPC   NC353603  10.038   1.120   5.431
 4007POPC   PO453604   9.366   1.336   5.316
 4007POPC   GL153605   9.611   1.277   5.745
 4007POPC   GL253606   9.822   0.989   5.887
 4007POPC   C1A53607   9.876   1.483   6.093
 4007POPC   D2A53608  10.062   1.594   6.518
 4007POPC   C3A53609   9.823   1.378   6.855
 4007POPC   C4A53610   9.866   1.119   7.216
 4007POPC   C1B53611   9.519   1.054   6.230
 4007POPC   C2B53612   9.520   1.000   6.682
 4007POPC   C3B53613   9.399   0.881   7.108
 4007POPC   C4B53614   9.510   0.915   7.543
 4008POPC   NC353615  29.975   1.627   5.449
 4008POPC   PO453616  29.650   2.265   5.445
 4008POPC   GL153617  29.728   1.912   5.770
 4008POPC   GL253618  30.115   1.873   5.866
 4008POPC   C1A53619  29.787   1.778   6.212
 4008POPC   D2A53620  29.820   2.057   6.584
 4008POPC   C3A53621  29.885   1.918   7.006
 4008POPC   C4A53622  30.196   2.130   7.245
 4008POPC   C1B53623  30.308   1.660   6.221
 4008POPC   C2B53624  30.296   1.752   6.649
 4008POPC   C3B53625  30.277   1.591   7.063
 4008POPC   C4B53626  30.102   1.681   7.438
 4009POPC   NC353627  44.421   8.714   5.384
 4009POPC   PO453628  44.691   9.336   5.497
 4009POPC   GL153629  44.463   9.126   5.804
 4009POPC   GL253630  44.636   8.816   5.864
 4009POPC   C1A53631  44.550   9.140   6.251
 4009POPC   D2A53632  44.569   8.847   6.586
 4009POPC   C3A53633  44.475   8.952   6.982
 4009POPC   C4A53634  44.434   8.611   7.241
 4009POPC   C1B53635  44.939   8.792   6.246
 4009POPC   C2B53636   0.132   8.789   6.658
 4009POPC   C3B53637  44.921   8.666   7.012
 4009POPC   C4B53638  44.830   8.918   7.349
 4010POPC   NC353639   1.743   3.715   5.264
 4010POPC   PO453640   1.274   3.265   5.123
 4010POPC   GL153641   1.331   3.500   5.585
 4010POPC   GL253642   1.228   3.303   5.845
 4010POPC   C1A53643   1.271   3.757   6.036
 4010POPC   D2A53644   1.215   3.581   6.451
 4010POPC   C3A53645   1.285   3.711   6.895
 4010POPC   C4A53646   1.209   3.992   7.263
 4010POPC   C1B53647   0.885   3.358   6.130
 4010POPC   C2B53648   0.746   3.416   6.561
 4010POPC   C3B53649   0.903   3.310   6.981
 4010POPC   C4B53650   1.014   3.458   7.407
 4011POPC   NC353651   7.856  42.097   5.432
 4011POPC   PO453652   7.278  42.467   5.433
 4011POPC   GL153653   7.404  42.289   5.780
 4011POPC   GL253654   7.180  41.986   5.764
 4011POPC   C1A53655   7.314  42.348   6.224
 4011POPC   D2A53656   7.532  42.316   6.627
 4011POPC   C3A53657   7.308  42.467   6.992
 4011POPC   C4A53658   7.574  42.642   7.322
 4011POPC   C1B53659   7.526  41.901   6.076
 4011POPC   C2B53660   7.618  41.822   6.500
 4011POPC   C3B53661   7.452  41.879   6.902
 4011POPC   C4B53662   7.622  42.136   7.241
 4012POPC   NC353663  16.843   7.943   5.497
 4012POPC   PO453664  16.584   8.554   5.232
 4012POPC   GL153665  16.548   8.292   5.740
 4012POPC   GL253666  16.896   8.162   5.979
 4012POPC   C1A53667  16.475   7.981   6.121
 4012POPC   D2A53668  16.752   8.067   6.488
 4012POPC   C3A53669  16.605   8.349   6.797
 4012POPC   C4A53670  16.506   8.241   7.201
 4012POPC   C1B53671  17.154   8.357   6.305
 4012POPC   C2B53672  17.254   8.228   6.723
 4012POPC   C3B53673  16.994   8.097   7.054
 4012POPC   C4B53674  16.932   8.352   7.433
 4013POPC   NC353675  36.127  28.067   5.438
 4013POPC   PO453676  36.256  27.390   5.529
 4013POPC   GL153677  36.287  27.527   5.931
 4013POPC   GL253678  36.026  27.759   5.857
 4013POPC   C1A53679  36.252  27.560   6.370
 4013POPC   D2A53680  36.403  27.802   6.699
 4013POPC   C3A53681  36.203  27.682   7.090
 4013POPC   C4A53682  36.146  27.295   7.307
 4013POPC   C1B53683  35.802  27.825   6.240
 4013POPC   C2B53684  35.888  27.842   6.679
 4013POPC   C3B53685  35.746  27.960   7.086
 4013POPC   C4B53686  35.943  27.895   7.507
 4014POPC   NC353687   2.521  35.499   5.211
 4014POPC   PO453688   2.998  35.112   5.493
 4014POPC   GL153689   2.842  35.170   5.875
 4014POPC   GL253690   2.780  35.497   5.788
 4014POPC   C1A53691   2.759  35.114   6.324
 4014POPC   D2A53692   2.587  34.935   6.682
 4014POPC   C3A53693   2.536  35.205   6.957
 4014POPC   C4A53694   2.880  35.289   7.190
 4014POPC   C1B53695   2.681  35.614   6.237
 4014POPC   C2B53696   2.710  35.629   6.723
 4014POPC   C3B53697   2.556  35.689   7.176
 4014POPC   C4B53698   2.337  35.638   7.612
 4015POPC   NC353699  22.455  29.443   5.062
 4015POPC   PO453700  22.160  29.901   5.461
 4015POPC   GL153701  22.184  29.897   5.860
 4015POPC   GL253702  21.827  30.029   5.935
 4015POPC   C1A53703  22.263  30.140   6.200
 4015POPC   D2A53704  22.089  30.297   6.560
 4015POPC   C3A53705  22.193  30.147   6.912
 4015POPC   C4A53706  22.396  29.887   7.211
 4015POPC   C1B53707  21.938  29.718   6.261
 4015POPC   C2B53708  21.971  29.743   6.689
 4015POPC   C3B53709  21.916  29.752   7.110
 4015POPC   C4B53710  21.789  29.519   7.405
 4016POPC   NC353711  38.074  24.585   5.375
 4016POPC   PO453712  37.413  24.326   5.412
 4016POPC   GL153713  37.558  24.441   5.801
 4016POPC   GL253714  37.894  24.448   5.827
 4016POPC   C1A53715  37.527  24.648   6.183
 4016POPC   D2A53716  37.803  24.673   6.519
 4016POPC   C3A53717  37.620  24.538   6.872
 4016POPC   C4A53718  37.704  24.562   7.238
 4016POPC   C1B53719  37.868  24.219   6.213
 4016POPC   C2B53720  37.932  24.194   6.674
 4016POPC   C3B53721  37.910  24.123   7.113
 4016POPC   C4B53722  37.952  24.088   7.585
 4017POPC   NC353723  41.291  35.432   5.249
 4017POPC   PO453724  41.871  35.078   5.415
 4017POPC   GL153725  41.773  35.370   5.762
 4017POPC   GL253726  41.457  35.487   5.734
 4017POPC   C1A53727  41.868  35.495   6.191
 4017POPC   D2A53728  41.662  35.293   6.550
 4017POPC   C3A53729  41.757  35.456   6.946
 4017POPC   C4A53730  41.538  35.773   7.157
 4017POPC   C1B53731  41.362  35.568   6.151
 4017POPC   C2B53732  41.134  35.391   6.478
 4017POPC   C3B53733  41.234  35.349   6.895
 4017POPC   C4B53734  41.042  35.095   7.182
 4018POPC   NC353735  19.924  34.103   5.443
 4018POPC   PO453736  19.685  33.465   5.526
 4018POPC   GL153737  19.600  33.791   5.791
 4018POPC   GL253738  19.944  33.713   5.862
 4018POPC   C1A53739  19.746  34.049   6.166
 4018POPC   D2A53740  19.999  33.940   6.559
 4018POPC   C3A53741  19.782  33.970   6.995
 4018POPC   C4A53742  19.491  34.074   7.379
 4018POPC   C1B53743  19.688  33.538   6.249
 4018POPC   C2B53744  19.778  33.496   6.720
 4018POPC   C3B53745  20.114  33.595   7.054
 4018POPC   C4B53746  20.107  33.469   7.500
 4019POPC   NC353747  24.393  14.607   5.336
 4019POPC   PO453748  24.815  14.138   5.698
 4019POPC   GL153749  24.344  14.240   5.716
 4019POPC   GL253750  24.179  14.595   5.778
 4019POPC   C1A53751  24.136  14.218   6.121
 4019POPC   D2A53752  24.431  14.257   6.482
 4019POPC   C3A53753  24.352  14.200   6.916
 4019POPC   C4A53754  24.295  14.362   7.335
 4019POPC   C1B53755  24.425  14.662   6.125
 4019POPC   C2B53756  24.194  14.720   6.487
 4019POPC   C3B53757  24.208  14.748   6.920
 4019POPC   C4B53758  24.602  14.649   7.058
 4020POPC   NC353759  33.409   4.532   5.476
 4020POPC   PO453760  33.038   4.112   5.159
 4020POPC   GL153761  32.967   4.279   5.602
 4020POPC   GL253762  32.925   4.024   5.831
 4020POPC   C1A53763  32.996   4.482   6.056
 4020POPC   D2A53764  32.852   4.507   6.531
 4020POPC   C3A53765  33.129   4.364   6.877
 4020POPC   C4A53766  33.318   4.669   7.157
 4020POPC   C1B53767  32.721   3.876   6.222
 4020POPC   C2B53768  32.813   3.982   6.639
 4020POPC   C3B53769  32.866   3.903   7.056
 4020POPC   C4B53770  32.932   4.194   7.325
 4021POPC   NC353771  15.773  35.643   5.414
 4021POPC   PO453772  16.202  35.094   5.486
 4021POPC   GL153773  15.990  35.310   5.831
 4021POPC   GL253774  15.945  35.679   5.894
 4021POPC   C1A53775  15.844  35.185   6.236
 4021POPC   D2A53776  15.780  35.389   6.622
 4021POPC   C3A53777  15.854  35.126   6.957
 4021POPC   C4A53778  15.758  35.175   7.372
 4021POPC   C1B53779  16.126  35.620   6.302
 4021POPC   C2B53780  16.181  35.681   6.747
 4021POPC   C3B53781  15.911  35.617   7.118
 4021POPC   C4B53782  15.924  35.757   7.554
 4022POPC   NC353783  34.112  20.508   5.356
 4022POPC   PO453784  33.798  21.100   5.324
 4022POPC   GL153785  34.038  20.904   5.733
 4022POPC   GL253786  34.035  20.512   5.845
 4022POPC   C1A53787  33.943  20.853   6.207
 4022POPC   D2A53788  34.017  21.053   6.618
 4022POPC   C3A53789  33.993  20.796   7.009
 4022POPC   C4A53790  33.693  20.752   7.349
 4022POPC   C1B53791  33.978  20.321   6.265
 4022POPC   C2B53792  33.785  20.434   6.671
 4022POPC   C3B53793  33.798  20.293   7.099
 4022POPC   C4B53794  34.158  20.029   7.192
 4023POPC   NC353795  10.011  19.428   5.303
 4023POPC   PO453796  10.207  18.798   5.437
 4023POPC   GL153797   9.931  18.990   5.804
 4023POPC   GL253798   9.869  19.350   5.815
 4023POPC   C1A53799   9.850  19.096   6.292
 4023POPC   D2A53800   9.854  19.251   6.758
 4023POPC   C3A53801   9.926  18.978   7.130
 4023POPC   C4A53802  10.018  18.690   7.473
 4023POPC   C1B53803   9.587  19.530   6.138
 4023POPC   C2B53804   9.450  19.562   6.619
 4023POPC   C3B53805   9.466  19.426   7.071
 4023POPC   C4B53806   9.258  19.182   7.408
 4024POPC   NC353807  33.423  16.011   5.527
 4024POPC   PO453808  34.089  16.153   5.590
 4024POPC   GL153809  34.063  16.159   6.007
 4024POPC   GL253810  34.094  16.499   6.095
 4024POPC   C1A53811  34.100  16.126   6.452
 4024POPC   D2A53812  34.097  16.253   6.873
 4024POPC   C3A53813  34.138  15.839   7.035
 4024POPC   C4A53814  33.918  15.586   7.325
 4024POPC   C1B53815  33.808  16.536   6.474
 4024POPC   C2B53816  33.774  16.686   6.895
 4024POPC   C3B53817  33.793  16.493   7.276
 4024POPC   C4B53818  33.682  16.344   7.726
 4025POPC   NC353819  16.856  23.286   5.380
 4025POPC   PO453820  16.382  23.650   5.608
 4025POPC   GL153821  16.680  23.540   5.856
 4025POPC   GL253822  16.906  23.808   5.842
 4025POPC   C1A53823  16.676  23.666   6.296
 4025POPC   D2A53824  16.434  23.864   6.618
 4025POPC   C3A53825  16.513  23.633   6.963
 4025POPC   C4A53826  16.823  23.809   7.192
 4025POPC   C1B53827  17.120  23.460   6.097
 4025POPC   C2B53828  17.127  23.370   6.557
 4025POPC   C3B53829  17.134  23.448   7.034
 4025POPC   C4B53830  17.241  23.578   7.489
 4026POPC   NC353831  16.356  15.339   5.393
 4026POPC   PO453832  15.718  15.177   5.376
 4026POPC   GL153833  15.800  15.191   5.793
 4026POPC   GL253834  16.056  15.417   5.787
 4026POPC   C1A53835  16.011  14.968   6.148
 4026POPC   D2A53836  16.293  15.052   6.502
 4026POPC   C3A53837  16.093  15.063   6.910
 4026POPC   C4A53838  15.722  14.984   7.155
 4026POPC   C1B53839  16.074  15.466   6.229
 4026POPC   C2B53840  15.823  15.361   6.612
 4026POPC   C3B53841  15.852  15.492   7.070
 4026POPC   C4B53842  15.836  15.624   7.532
 4027POPC   NC353843  35.629   5.252   5.296
 4027POPC   PO453844  36.028   4.874   5.544
 4027POPC   GL153845  35.897   4.844   5.973
 4027POPC   GL253846  35.682   4.563   5.977
 4027POPC   C1A53847  35.976   5.105   6.368
 4027POPC   D2A53848  35.996   5.117   6.853
 4027POPC   C3A53849  36.311   5.197   7.208
 4027POPC   C4A53850  36.223   5.352   7.636
 4027POPC   C1B53851  35.719   4.656   6.439
 4027POPC   C2B53852  35.845   4.625   6.894
 4027POPC   C3B53853  35.969   4.829   7.296
 4027POPC   C4B53854  35.801   4.975   7.689
 4028POPC   NC353855  26.629  27.320   5.534
 4028POPC   PO453856  26.785  27.909   5.433
 4028POPC   GL153857  26.791  27.674   5.868
 4028POPC   GL253858  26.898  27.303   5.957
 4028POPC   C1A53859  26.792  27.637   6.341
 4028POPC   D2A53860  26.788  27.451   6.765
 4028POPC   C3A53861  26.731  27.739   7.128
 4028POPC   C4A53862  26.780  28.097   7.456
 4028POPC   C1B53863  27.068  27.193   6.386
 4028POPC   C2B53864  27.197  27.160   6.849
 4028POPC   C3B53865  26.892  27.201   7.214
 4028POPC   C4B53866  26.685  27.143   7.618
 4029POPC   NC353867  40.119  31.049   5.463
 4029POPC   PO453868  39.575  30.632   5.507
 4029POPC   GL153869  39.812  30.812   5.842
 4029POPC   GL253870  40.148  30.679   5.863
 4029POPC   C1A53871  39.995  30.971   6.236
 4029POPC   D2A53872  40.167  30.756   6.570
 4029POPC   C3A53873  40.119  30.964   6.923
 4029POPC   C4A53874  39.956  30.746   7.214
 4029POPC   C1B53875  40.350  30.328   6.123
 4029POPC   C2B53876  40.409  30.298   6.547
 4029POPC   C3B53877  40.250  30.391   6.961
 4029POPC   C4B53878  40.230  30.053   7.237
 4030POPC   NC353879  24.270  16.544   5.419
 4030POPC   PO453880  24.800  16.787   5.142
 4030POPC   GL153881  24.673  16.839   5.610
 4030POPC   GL253882  24.330  16.961   5.719
 4030POPC   C1A53883  24.581  16.581   6.019
 4030POPC   D2A53884  24.691  16.401   6.455
 4030POPC   C3A53885  24.468  16.494   6.842
 4030POPC   C4A53886  24.790  16.458   7.167
 4030POPC   C1B53887  24.520  17.074   6.106
 4030POPC   C2B53888  24.696  16.899   6.474
 4030POPC   C3B53889  24.647  16.966   6.916
 4030POPC   C4B53890  24.382  16.831   7.247
 4031POPC   NC353891  20.235  32.356   5.572
 4031POPC   PO453892  19.544  32.089   5.504
 4031POPC   GL153893  19.645  32.302   5.840
 4031POPC   GL253894  19.967  32.257   5.997
 4031POPC   C1A53895  19.546  32.156   6.251
 4031POPC   D2A53896  19.828  32.042   6.536
 4031POPC   C3A53897  19.664  32.136   6.908
 4031POPC   C4A53898  19.796  32.256   7.275
 4031POPC   C1B53899  20.150  32.582   6.226
 4031POPC   C2B53900  20.438  32.516   6.535
 4031POPC   C3B53901  20.142  32.405   6.833
 4031POPC   C4B53902  20.155  32.606   7.184
 4032POPC   NC353903  13.745  43.115   5.320
 4032POPC   PO453904  14.382  43.068   5.206
 4032POPC   GL153905  14.352  43.065   5.655
 4032POPC   GL253906  14.107  43.308   5.765
 4032POPC   C1A53907  14.434  43.004   6.111
 4032POPC   D2A53908  14.246  43.110   6.512
 4032POPC   C3A53909  14.374  42.822   6.812
 4032POPC   C4A53910  14.483  42.822   7.232
 4032POPC   C1B53911  14.363  43.516   6.113
 4032POPC   C2B53912  14.474  43.555   6.552
 4032POPC   C3B53913  14.388  43.326   6.963
 4032POPC   C4B53914  14.348  43.534   7.354
 4033POPC   NC353915  20.230  15.245   5.388
 4033POPC   PO453916  20.910  14.933   5.407
 4033POPC   GL153917  20.602  15.098   5.712
 4033POPC   GL253918  20.404  15.406   5.856
 4033POPC   C1A53919  20.466  14.961   6.096
 4033POPC   D2A53920  20.471  15.197   6.475
 4033POPC   C3A53921  20.720  15.035   6.815
 4033POPC   C4A53922  20.713  14.876   7.230
 4033POPC   C1B53923  20.821  15.362   6.089
 4033POPC   C2B53924  20.977  15.400   6.520
 4033POPC   C3B53925  20.840  15.547   6.918
 4033POPC   C4B53926  20.841  15.415   7.342
 4034POPC   NC353927  39.067  11.673   5.568
 4034POPC   PO453928  39.481  11.168   5.250
 4034POPC   GL153929  39.319  11.228   5.746
 4034POPC   GL253930  39.057  11.378   5.971
 4034POPC   C1A53931  39.472  11.303   6.233
 4034POPC   D2A53932  39.278  11.484   6.609
 4034POPC   C3A53933  39.488  11.352   6.972
 4034POPC   C4A53934  39.659  10.993   7.155
 4034POPC   C1B53935  38.841  11.223   6.307
 4034POPC   C2B53936  38.831  11.081   6.718
 4034POPC   C3B53937  38.973  11.276   7.067
 4034POPC   C4B53938  38.965  11.502   7.482
 4035POPC   NC353939   8.914  39.907   5.377
 4035POPC   PO453940   9.002  40.427   5.712
 4035POPC   GL153941   9.052  40.070   5.978
 4035POPC   GL253942   8.865  39.781   5.881
 4035POPC   C1A53943   9.040  39.919   6.430
 4035POPC   D2A53944   9.261  39.725   6.815
 4035POPC   C3A53945   9.423  40.021   7.068
 4035POPC   C4A53946   9.057  40.179   7.151
 4035POPC   C1B53947   8.590  39.708   6.222
 4035POPC   C2B53948   8.530  39.785   6.678
 4035POPC   C3B53949   8.766  39.713   7.082
 4035POPC   C4B53950   8.744  39.640   7.558
 4036POPC   NC353951  15.568  31.526   5.433
 4036POPC   PO453952  14.957  31.309   5.331
 4036POPC   GL153953  15.210  31.197   5.717
 4036POPC   GL253954  15.529  31.281   5.895
 4036POPC   C1A53955  15.175  31.068   6.185
 4036POPC   D2A53956  15.202  31.240   6.626
 4036POPC   C3A53957  14.943  31.214   7.030
 4036POPC   C4A53958  15.037  31.494   7.390
 4036POPC   C1B53959  15.665  31.125   6.329
 4036POPC   C2B53960  15.623  30.991   6.763
 4036POPC   C3B53961  15.434  31.263   7.097
 4036POPC   C4B53962  15.550  31.376   7.540
 4037POPC   NC353963  27.020  22.254   5.212
 4037POPC   PO453964  26.501  22.129   5.599
 4037POPC   GL153965  26.832  22.096   5.841
 4037POPC   GL253966  26.863  21.768   5.722
 4037POPC   C1A53967  26.698  22.169   6.257
 4037POPC   D2A53968  26.882  22.200   6.630
 4037POPC   C3A53969  26.598  22.253   6.935
 4037POPC   C4A53970  26.778  22.255   7.359
 4037POPC   C1B53971  26.839  21.659   6.175
 4037POPC   C2B53972  27.047  21.714   6.589
 4037POPC   C3B53973  26.894  21.836   7.026
 4037POPC   C4B53974  26.847  21.765   7.511
 4038POPC   NC353975  16.585  33.173   5.323
 4038POPC   PO453976  16.728  32.590   5.183
 4038POPC   GL153977  16.836  32.862   5.627
 4038POPC   GL253978  16.617  33.099   5.822
 4038POPC   C1A53979  16.968  32.865   6.095
 4038POPC   D2A53980  16.955  33.050   6.502
 4038POPC   C3A53981  16.760  32.913   6.840
 4038POPC   C4A53982  16.785  33.020   7.251
 4038POPC   C1B53983  16.726  33.356   6.185
 4038POPC   C2B53984  16.540  33.371   6.613
 4038POPC   C3B53985  16.385  33.252   7.039
 4038POPC   C4B53986  16.430  33.307   7.499
 4039POPC   NC353987  44.210  40.824   5.577
 4039POPC   PO453988  43.551  40.997   5.624
 4039POPC   GL153989  43.822  40.918   5.883
 4039POPC   GL253990  43.883  40.558   5.895
 4039POPC   C1A53991  44.055  41.060   6.190
 4039POPC   D2A53992  44.109  40.922   6.566
 4039POPC   C3A53993  43.855  41.160   6.783
 4039POPC   C4A53994  43.816  41.023   7.154
 4039POPC   C1B53995  43.645  40.682   6.297
 4039POPC   C2B53996  43.682  40.677   6.768
 4039POPC   C3B53997  43.524  40.607   7.190
 4039POPC   C4B53998  43.535  40.507   7.643
 4040POPC   NC353999  41.578  38.068   5.718
 4040POPC   PO454000  41.897  37.553   5.536
 4040POPC   GL154001  41.690  37.583   5.933
 4040POPC   GL254002  41.330  37.485   5.914
 4040POPC   C1A54003  41.663  37.704   6.366
 4040POPC   D2A54004  41.572  37.663   6.809
 4040POPC   C3A54005  41.866  37.782   7.136
 4040POPC   C4A54006  41.911  37.827   7.582
 4040POPC   C1B54007  41.202  37.851   6.178
 4040POPC   C2B54008  41.211  38.156   6.529
 4040POPC   C3B54009  41.196  37.986   6.933
 4040POPC   C4B54010  41.419  37.913   7.325
 4041POPC   NC354011  13.345  42.832   5.653
 4041POPC   PO454012  13.427  43.445   5.406
 4041POPC   GL154013  13.582  43.282   5.781
 4041POPC   GL254014  13.762  42.943   5.901
 4041POPC   C1A54015  13.720  43.373   6.159
 4041POPC   D2A54016  13.721  43.091   6.500
 4041POPC   C3A54017  13.735  43.160   6.923
 4041POPC   C4A54018  14.018  43.031   7.227
 4041POPC   C1B54019  13.507  42.712   6.256
 4041POPC   C2B54020  13.257  42.829   6.599
 4041POPC   C3B54021  13.412  42.730   6.991
 4041POPC   C4B54022  13.657  42.670   7.343
 4042POPC   NC354023  37.484  29.305   5.517
 4042POPC   PO454024  38.079  28.946   5.388
 4042POPC   GL154025  37.933  29.078   5.822
 4042POPC   GL254026  37.918  29.442   5.799
 4042POPC   C1A54027  37.996  28.931   6.316
 4042POPC   D2A54028  37.989  28.753   6.788
 4042POPC   C3A54029  37.587  28.843   7.059
 4042POPC   C4A54030  37.250  29.107   7.248
 4042POPC   C1B54031  37.650  29.302   6.186
 4042POPC   C2B54032  37.629  29.148   6.626
 4042POPC   C3B54033  37.668  29.365   7.008
 4042POPC   C4B54034  37.579  29.758   7.211
 4043POPC   NC354035  10.473  20.741   5.425
 4043POPC   PO454036   9.994  20.180   5.238
 4043POPC   GL154037  10.198  20.183   5.761
 4043POPC   GL254038  10.558  20.336   5.736
 4043POPC   C1A54039  10.280  20.429   6.154
 4043POPC   D2A54040  10.338  20.630   6.532
 4043POPC   C3A54041  10.571  20.389   6.811
 4043POPC   C4A54042  10.411  20.496   7.206
 4043POPC   C1B54043  10.704  20.692   6.055
 4043POPC   C2B54044  10.846  20.762   6.518
 4043POPC   C3B54045  10.701  20.859   6.974
 4043POPC   C4B54046  10.390  21.043   7.270
 4044POPC   NC354047  26.452  29.487   5.442
 4044POPC   PO454048  26.988  28.913   5.226
 4044POPC   GL154049  26.979  29.024   5.674
 4044POPC   GL254050  26.808  29.308   5.773
 4044POPC   C1A54051  26.835  28.953   6.123
 4044POPC   D2A54052  26.574  28.809   6.461
 4044POPC   C3A54053  26.686  28.962   6.865
 4044POPC   C4A54054  26.947  28.905   7.243
 4044POPC   C1B54055  26.889  29.478   6.196
 4044POPC   C2B54056  26.699  29.454   6.627
 4044POPC   C3B54057  26.850  29.390   7.064
 4044POPC   C4B54058  26.785  29.550   7.481
 4045POPC   NC354059   2.399  14.093   5.557
 4045POPC   PO454060   2.830  14.511   5.237
 4045POPC   GL154061   2.905  14.418   5.662
 4045POPC   GL254062   2.613  14.418   5.867
 4045POPC   C1A54063   3.036  14.549   6.079
 4045POPC   D2A54064   2.729  14.740   6.391
 4045POPC   C3A54065   2.714  14.610   6.819
 4045POPC   C4A54066   2.939  14.376   7.168
 4045POPC   C1B54067   2.703  14.223   6.287
 4045POPC   C2B54068   2.780  14.121   6.729
 4045POPC   C3B54069   2.479  14.167   7.085
 4045POPC   C4B54070   2.265  14.250   7.505
 4046POPC   NC354071  21.085  38.833   5.424
 4046POPC   PO454072  21.495  39.347   5.668
 4046POPC   GL154073  21.298  39.030   5.859
 4046POPC   GL254074  21.454  38.768   5.770
 4046POPC   C1A54075  21.256  39.087   6.277
 4046POPC   D2A54076  21.352  38.902   6.624
 4046POPC   C3A54077  21.171  39.159   6.912
 4046POPC   C4A54078  21.038  39.556   7.109
 4046POPC   C1B54079  21.705  38.867   6.133
 4046POPC   C2B54080  21.859  38.731   6.524
 4046POPC   C3B54081  21.728  38.780   6.935
 4046POPC   C4B54082  21.580  39.046   7.216
 4047POPC   NC354083  13.976  36.476   5.444
 4047POPC   PO454084  14.697  36.446   5.558
 4047POPC   GL154085  14.597  36.290   5.905
 4047POPC   GL254086  14.235  36.220   5.845
 4047POPC   C1A54087  14.791  36.227   6.271
 4047POPC   D2A54088  14.639  36.157   6.668
 4047POPC   C3A54089  14.770  36.097   7.067
 4047POPC   C4A54090  14.571  35.831   7.358
 4047POPC   C1B54091  14.311  36.076   6.268
 4047POPC   C2B54092  14.137  36.121   6.645
 4047POPC   C3B54093  14.237  35.961   6.994
 4047POPC   C4B54094  14.121  36.155   7.339
 4048POPC   NC354095  12.660  22.569   5.653
 4048POPC   PO454096  12.159  22.330   5.281
 4048POPC   GL154097  12.168  22.235   5.761
 4048POPC   GL254098  12.299  21.870   5.772
 4048POPC   C1A54099  11.975  22.346   6.217
 4048POPC   D2A54100  11.681  22.401   6.596
 4048POPC   C3A54101  11.869  22.240   6.971
 4048POPC   C4A54102  11.992  22.314   7.377
 4048POPC   C1B54103  12.014  21.840   6.121
 4048POPC   C2B54104  11.843  21.912   6.541
 4048POPC   C3B54105  11.819  21.726   6.946
 4048POPC   C4B54106  12.185  21.710   7.179
 4049POPC   NC354107  17.725  18.483   5.506
 4049POPC   PO454108  17.151  18.395   5.173
 4049POPC   GL154109  17.271  18.128   5.617
 4049POPC   GL254110  17.628  18.070   5.792
 4049POPC   C1A54111  17.197  18.136   6.107
 4049POPC   D2A54112  17.382  18.118   6.555
 4049POPC   C3A54113  17.286  18.436   6.884
 4049POPC   C4A54114  17.546  18.684   7.211
 4049POPC   C1B54115  17.679  18.344   6.166
 4049POPC   C2B54116  17.741  18.508   6.607
 4049POPC   C3B54117  17.755  18.271   7.009
 4049POPC   C4B54118  17.789  18.031   7.393
 4050POPC   NC354119  34.795  43.067   5.563
 4050POPC   PO454120  34.123  42.915   5.635
 4050POPC   GL154121  34.426  43.100   5.946
 4050POPC   GL254122  34.583  43.453   5.890
 4050POPC   C1A54123  34.746  42.922   6.237
 4050POPC   D2A54124  34.834  42.671   6.603
 4050POPC   C3A54125  34.998  42.841   6.938
 4050POPC   C4A54126  34.742  43.142   7.199
 4050POPC   C1B54127  34.614  43.405   6.347
 4050POPC   C2B54128  34.528  43.103   6.708
 4050POPC   C3B54129  34.178  42.902   6.972
 4050POPC   C4B54130  34.148  42.713   7.394
 4051POPC   NC354131  20.847   5.442   5.294
 4051POPC   PO454132  20.528   6.048   5.229
 4051POPC   GL154133  20.505   5.940   5.662
 4051POPC   GL254134  20.379   5.604   5.586
 4051POPC   C1A54135  20.430   6.002   6.132
 4051POPC   D2A54136  20.655   5.929   6.549
 4051POPC   C3A54137  20.504   6.071   6.965
 4051POPC   C4A54138  20.613   5.819   7.296
 4051POPC   C1B54139  20.511   5.500   6.025
 4051POPC   C2B54140  20.533   5.430   6.498
 4051POPC   C3B54141  20.358   5.524   6.928
 4051POPC   C4B54142  20.361   5.411   7.384
 4052POPC   NC354143  36.511  26.580   5.478
 4052POPC   PO454144  36.982  27.041   5.596
 4052POPC   GL154145  36.867  26.667   5.845
 4052POPC   GL254146  36.877  26.894   6.101
 4052POPC   C1A54147  36.882  26.412   6.222
 4052POPC   D2A54148  36.741  26.684   6.570
 4052POPC   C3A54149  36.905  26.594   6.948
 4052POPC   C4A54150  37.128  26.495   7.281
 4052POPC   C1B54151  36.639  27.218   6.272
 4052POPC   C2B54152  36.740  27.412   6.657
 4052POPC   C3B54153  36.731  27.101   6.933
 4052POPC   C4B54154  36.959  27.004   7.272
 4053POPC   NC354155  18.218  39.785   5.513
 4053POPC   PO454156  18.687  40.062   5.146
 4053POPC   GL154157  18.569  40.111   5.642
 4053POPC   GL254158  18.224  40.237   5.768
 4053POPC   C1A54159  18.551  40.052   6.121
 4053POPC   D2A54160  18.462  40.231   6.540
 4053POPC   C3A54161  18.498  40.024   6.941
 4053POPC   C4A54162  18.405  40.016   7.411
 4053POPC   C1B54163  18.045  39.968   6.162
 4053POPC   C2B54164  18.028  39.860   6.623
 4053POPC   C3B54165  18.017  40.073   7.040
 4053POPC   C4B54166  17.792  40.446   7.140
 4054POPC   NC354167  38.387  15.481   5.472
 4054POPC   PO454168  38.495  14.900   5.662
 4054POPC   GL154169  38.458  15.188   5.917
 4054POPC   GL254170  38.115  15.307   5.923
 4054POPC   C1A54171  38.604  15.032   6.280
 4054POPC   D2A54172  38.445  14.796   6.588
 4054POPC   C3A54173  38.251  14.986   6.934
 4054POPC   C4A54174  38.558  14.889   7.231
 4054POPC   C1B54175  38.330  15.491   6.305
 4054POPC   C2B54176  38.523  15.336   6.673
 4054POPC   C3B54177  38.498  15.415   7.068
 4054POPC   C4B54178  38.135  15.612   7.189
 4055POPC   NC354179  26.264  26.560   5.489
 4055POPC   PO454180  25.678  26.316   5.339
 4055POPC   GL154181  25.863  26.226   5.764
 4055POPC   GL254182  26.204  26.193   5.844
 4055POPC   C1A54183  25.913  25.990   6.196
 4055POPC   D2A54184  26.135  26.051   6.595
 4055POPC   C3A54185  25.886  26.128   6.963
 4055POPC   C4A54186  25.789  25.938   7.378
 4055POPC   C1B54187  26.063  26.466   6.155
 4055POPC   C2B54188  25.972  26.527   6.571
 4055POPC   C3B54189  26.246  26.499   6.933
 4055POPC   C4B54190  26.094  26.384   7.362
 4056POPC   NC354191   1.156  41.021   5.498
 4056POPC   PO454192   1.556  40.464   5.502
 4056POPC   GL154193   1.204  40.599   5.784
 4056POPC   GL254194   1.394  40.486   6.031
 4056POPC   C1A54195   1.036  40.834   6.192
 4056POPC   D2A54196   0.793  40.827   6.601
 4056POPC   C3A54197   0.912  41.030   6.989
 4056POPC   C4A54198   1.045  41.047   7.447
 4056POPC   C1B54199   1.530  40.764   6.353
 4056POPC   C2B54200   1.311  40.993   6.650
 4056POPC   C3B54201   1.381  40.823   7.039
 4056POPC   C4B54202   1.724  40.683   7.306
 4057POPC   NC354203  40.643  41.070   5.373
 4057POPC   PO454204  40.801  40.453   5.576
 4057POPC   GL154205  40.624  40.711   5.897
 4057POPC   GL254206  40.618  41.082   5.870
 4057POPC   C1A54207  40.631  40.569   6.320
 4057POPC   D2A54208  40.645  40.451   6.749
 4057POPC   C3A54209  40.982  40.542   7.028
 4057POPC   C4A54210  40.919  40.554   7.497
 4057POPC   C1B54211  40.645  41.096   6.294
 4057POPC   C2B54212  40.549  40.941   6.691
 4057POPC   C3B54213  40.688  40.981   7.103
 4057POPC   C4B54214  40.641  41.297   7.434
 4058POPC   NC354215  17.754  29.479   5.323
 4058POPC   PO454216  17.271  28.996   5.324
 4058POPC   GL154217  17.331  29.147   5.753
 4058POPC   GL254218  17.626  29.347   5.819
 4058POPC   C1A54219  17.423  29.001   6.195
 4058POPC   D2A54220  17.303  28.848   6.638
 4058POPC   C3A54221  17.502  29.110   6.981
 4058POPC   C4A54222  17.466  29.174   7.446
 4058POPC   C1B54223  17.605  29.548   6.247
 4058POPC   C2B54224  17.807  29.602   6.676
 4058POPC   C3B54225  17.759  29.536   7.143
 4058POPC   C4B54226  17.903  29.371   7.574
 4059POPC   NC354227  12.484   9.297   5.441
 4059POPC   PO454228  11.992   8.831   5.547
 4059POPC   GL154229  12.116   9.185   5.805
 4059POPC   GL254230  12.389   8.970   5.898
 4059POPC   C1A54231  12.181   9.305   6.258
 4059POPC   D2A54232  12.310   8.973   6.551
 4059POPC   C3A54233  12.074   8.855   6.922
 4059POPC   C4A54234  12.038   9.212   7.177
 4059POPC   C1B54235  12.222   8.615   6.177
 4059POPC   C2B54236  12.335   8.439   6.603
 4059POPC   C3B54237  12.505   8.547   7.014
 4059POPC   C4B54238  12.378   8.810   7.355
 4060POPC   NC354239  38.691  28.853   5.455
 4060POPC   PO454240  38.415  28.230   5.326
 4060POPC   GL154241  38.480  28.456   5.722
 4060POPC   GL254242  38.850  28.438   5.737
 4060POPC   C1A54243  38.258  28.498   6.155
 4060POPC   D2A54244  38.011  28.246   6.506
 4060POPC   C3A54245  38.200  28.259   6.940
 4060POPC   C4A54246  38.359  28.627   7.189
 4060POPC   C1B54247  38.700  28.178   6.107
 4060POPC   C2B54248  38.557  28.309   6.531
 4060POPC   C3B54249  38.745  28.271   6.927
 4060POPC   C4B54250  38.640  28.215   7.336
 4061POPC   NC354251  22.796   7.342   5.504
 4061POPC   PO454252  23.267   7.789   5.268
 4061POPC   GL154253  23.217   7.606   5.712
 4061POPC   GL254254  23.289   7.278   5.863
 4061POPC   C1A54255  23.155   7.654   6.177
 4061POPC   D2A54256  23.260   7.474   6.587
 4061POPC   C3A54257  22.971   7.574   6.938
 4061POPC   C4A54258  22.993   7.721   7.373
 4061POPC   C1B54259  23.054   7.114   6.240
 4061POPC   C2B54260  23.029   7.014   6.698
 4061POPC   C3B54261  22.967   7.029   7.150
 4061POPC   C4B54262  22.701   7.106   7.499
 4062POPC   NC354263  21.969  30.777   5.446
 4062POPC   PO454264  22.653  30.735   5.214
 4062POPC   GL154265  22.448  30.648   5.648
 4062POPC   GL254266  22.158  30.398   5.738
 4062POPC   C1A54267  22.394  30.633   6.139
 4062POPC   D2A54268  22.183  30.819   6.532
 4062POPC   C3A54269  22.313  30.734   6.985
 4062POPC   C4A54270  22.425  30.835   7.439
 4062POPC   C1B54271  21.887  30.518   6.145
 4062POPC   C2B54272  21.708  30.623   6.612
 4062POPC   C3B54273  21.811  30.556   7.073
 4062POPC   C4B54274  21.793  30.492   7.533
 4063POPC   NC354275  36.145  32.890   5.147
 4063POPC   PO454276  35.980  33.492   5.414
 4063POPC   GL154277  36.238  33.246   5.703
 4063POPC   GL254278  36.167  32.884   5.669
 4063POPC   C1A54279  36.274  33.083   6.130
 4063POPC   D2A54280  36.200  33.227   6.536
 4063POPC   C3A54281  35.857  33.096   6.812
 4063POPC   C4A54282  36.067  33.022   7.214
 4063POPC   C1B54283  35.885  32.723   6.015
 4063POPC   C2B54284  35.801  32.614   6.463
 4063POPC   C3B54285  35.939  32.596   6.904
 4063POPC   C4B54286  35.679  32.681   7.247
 4064POPC   NC354287  33.900  31.778   5.380
 4064POPC   PO454288  33.362  31.394   5.352
 4064POPC   GL154289  33.564  31.466   5.788
 4064POPC   GL254290  33.380  31.698   6.015
 4064POPC   C1A54291  33.855  31.552   6.156
 4064POPC   D2A54292  33.915  31.758   6.566
 4064POPC   C3A54293  34.019  31.477   6.894
 4064POPC   C4A54294  33.995  31.197   7.222
 4064POPC   C1B54295  33.403  31.609   6.432
 4064POPC   C2B54296  33.583  31.323   6.717
 4064POPC   C3B54297  33.525  31.399   7.129
 4064POPC   C4B54298  33.491  31.822   7.196
 4065POPC   NC354299  27.059  21.465   5.364
 4065POPC   PO454300  27.730  21.307   5.413
 4065POPC   GL154301  27.686  21.399   5.842
 4065POPC   GL254302  27.401  21.224   5.875
 4065POPC   C1A54303  27.796  21.726   6.164
 4065POPC   D2A54304  27.829  21.758   6.626
 4065POPC   C3A54305  27.462  21.794   6.893
 4065POPC   C4A54306  27.265  21.532   7.193
 4065POPC   C1B54307  27.448  21.386   6.318
 4065POPC   C2B54308  27.397  21.298   6.737
 4065POPC   C3B54309  27.733  21.354   7.008
 4065POPC   C4B54310  27.893  21.059   7.274
 4066POPC   NC354311  21.838  17.462   5.380
 4066POPC   PO454312  22.482  17.260   5.520
 4066POPC   GL154313  22.171  17.396   5.842
 4066POPC   GL254314  21.867  17.207   5.888
 4066POPC   C1A54315  22.163  17.317   6.295
 4066POPC   D2A54316  22.307  17.280   6.712
 4066POPC   C3A54317  22.240  17.608   7.051
 4066POPC   C4A54318  22.276  17.622   7.503
 4066POPC   C1B54319  21.646  17.091   6.280
 4066POPC   C2B54320  21.605  17.238   6.711
 4066POPC   C3B54321  21.919  17.213   7.032
 4066POPC   C4B54322  21.960  17.224   7.494
 4067POPC   NC354323   2.347  37.651   5.512
 4067POPC   PO454324   1.713  37.381   5.463
 4067POPC   GL154325   1.757  37.690   5.827
 4067POPC   GL254326   2.082  37.671   5.936
 4067POPC   C1A54327   1.756  37.896   6.263
 4067POPC   D2A54328   1.889  37.734   6.665
 4067POPC   C3A54329   1.709  37.887   7.069
 4067POPC   C4A54330   1.756  37.754   7.548
 4067POPC   C1B54331   2.279  37.892   6.261
 4067POPC   C2B54332   2.277  38.054   6.683
 4067POPC   C3B54333   2.219  37.794   7.063
 4067POPC   C4B54334   2.202  37.936   7.453
 4068POPC   NC354335   2.625   8.085   5.184
 4068POPC   PO454336   1.873   8.181   5.336
 4068POPC   GL154337   1.876   8.297   5.779
 4068POPC   GL254338   2.218   8.366   5.828
 4068POPC   C1A54339   1.872   8.375   6.228
 4068POPC   D2A54340   1.816   8.133   6.616
 4068POPC   C3A54341   1.754   8.344   7.015
 4068POPC   C4A54342   1.661   8.089   7.360
 4068POPC   C1B54343   2.417   8.439   6.221
 4068POPC   C2B54344   2.406   8.333   6.661
 4068POPC   C3B54345   2.443   8.428   7.099
 4068POPC   C4B54346   2.145   8.256   7.390
 4069POPC   NC354347  21.227  15.320   5.394
 4069POPC   PO454348  21.614  14.756   5.449
 4069POPC   GL154349  21.440  15.061   5.783
 4069POPC   GL254350  21.375  15.454   5.850
 4069POPC   C1A54351  21.260  15.109   6.202
 4069POPC   D2A54352  21.446  15.011   6.581
 4069POPC   C3A54353  21.220  15.155   6.920
 4069POPC   C4A54354  21.289  15.143   7.339
 4069POPC   C1B54355  21.345  15.641   6.252
 4069POPC   C2B54356  21.478  15.566   6.689
 4069POPC   C3B54357  21.303  15.625   7.127
 4069POPC   C4B54358  21.257  15.606   7.582
 4070POPC   NC354359  27.284  16.615   5.232
 4070POPC   PO454360  26.609  16.837   5.417
 4070POPC   GL154361  26.748  16.752   5.801
 4070POPC   GL254362  27.124  16.789   5.810
 4070POPC   C1A54363  26.563  16.631   6.182
 4070POPC   D2A54364  26.709  16.765   6.566
 4070POPC   C3A54365  26.689  16.554   6.920
 4070POPC   C4A54366  26.698  16.740   7.265
 4070POPC   C1B54367  27.033  16.440   6.135
 4070POPC   C2B54368  27.086  16.406   6.602
 4070POPC   C3B54369  27.166  16.448   7.064
 4070POPC   C4B54370  26.915  16.333   7.486
 4071POPC   NC354371  16.657  28.568   5.412
 4071POPC   PO454372  17.254  28.578   5.699
 4071POPC   GL154373  16.929  28.335   5.852
 4071POPC   GL254374  16.580  28.457   5.901
 4071POPC   C1A54375  16.806  28.155   6.229
 4071POPC   D2A54376  16.586  28.322   6.561
 4071POPC   C3A54377  16.733  28.167   6.935
 4071POPC   C4A54378  16.781  28.324   7.354
 4071POPC   C1B54379  16.371  28.690   6.228
 4071POPC   C2B54380  16.246  28.707   6.655
 4071POPC   C3B54381  16.412  28.571   7.045
 4071POPC   C4B54382  16.274  28.533   7.464
 4072POPC   NC354383  14.287  19.084   5.414
 4072POPC   PO454384  14.833  19.428   5.580
 4072POPC   GL154385  14.651  19.026   5.814
 4072POPC   GL254386  14.337  18.923   5.923
 4072POPC   C1A54387  14.704  19.098   6.255
 4072POPC   D2A54388  14.528  19.120   6.673
 4072POPC   C3A54389  14.659  19.467   6.877
 4072POPC   C4A54390  14.711  19.554   7.288
 4072POPC   C1B54391  14.317  18.782   6.357
 4072POPC   C2B54392  14.035  18.936   6.655
 4072POPC   C3B54393  14.134  19.120   7.038
 4072POPC   C4B54394  14.486  19.102   7.285
 4073POPC   NC354395  12.470   4.447   5.517
 4073POPC   PO454396  11.773   4.335   5.411
 4073POPC   GL154397  12.059   4.274   5.770
 4073POPC   GL254398  12.057   3.954   5.913
 4073POPC   C1A54399  12.178   4.422   6.180
 4073POPC   D2A54400  12.324   4.597   6.589
 4073POPC   C3A54401  12.235   4.430   6.995
 4073POPC   C4A54402  12.090   4.519   7.411
 4073POPC   C1B54403  12.379   3.918   6.208
 4073POPC   C2B54404  12.375   4.068   6.618
 4073POPC   C3B54405  12.413   3.963   7.032
 4073POPC   C4B54406  12.303   4.058   7.465
 4074POPC   NC354407   3.035  11.957   5.087
 4074POPC   PO454408   2.662  12.441   5.514
 4074POPC   GL154409   2.610  12.239   5.865
 4074POPC   GL254410   2.726  11.905   5.796
 4074POPC   C1A54411   2.800  12.255   6.258
 4074POPC   D2A54412   2.919  12.411   6.647
 4074POPC   C3A54413   2.646  12.260   6.941
 4074POPC   C4A54414   2.702  11.987   7.247
 4074POPC   C1B54415   2.971  11.775   6.192
 4074POPC   C2B54416   3.095  11.631   6.646
 4074POPC   C3B54417   3.087  11.689   7.119
 4074POPC   C4B54418   3.083  11.807   7.561
 4075POPC   NC354419  37.523  20.541   5.162
 4075POPC   PO454420  37.839  20.471   5.673
 4075POPC   GL154421  37.419  20.465   5.712
 4075POPC   GL254422  37.426  20.796   5.839
 4075POPC   C1A54423  37.293  20.361   6.150
 4075POPC   D2A54424  37.612  20.322   6.491
 4075POPC   C3A54425  37.498  20.116   6.879
 4075POPC   C4A54426  37.349  20.288   7.278
 4075POPC   C1B54427  37.523  20.837   6.294
 4075POPC   C2B54428  37.486  21.003   6.753
 4075POPC   C3B54429  37.623  20.948   7.199
 4075POPC   C4B54430  37.663  21.045   7.648
 4076POPC   NC354431  42.638  11.581   5.382
 4076POPC   PO454432  42.534  10.929   5.526
 4076POPC   GL154433  42.508  11.176   5.900
 4076POPC   GL254434  42.429  11.502   5.856
 4076POPC   C1A54435  42.485  11.236   6.361
 4076POPC   D2A54436  42.570  10.944   6.696
 4076POPC   C3A54437  42.507  11.168   7.039
 4076POPC   C4A54438  42.515  11.606   7.149
 4076POPC   C1B54439  42.346  11.735   6.243
 4076POPC   C2B54440  42.262  11.662   6.682
 4076POPC   C3B54441  41.996  11.541   7.003
 4076POPC   C4B54442  42.087  11.553   7.441
 4077POPC   NC354443  11.577  27.002   5.382
 4077POPC   PO454444  11.028  26.516   5.397
 4077POPC   GL154445  11.359  26.552   5.727
 4077POPC   GL254446  11.265  26.889   5.802
 4077POPC   C1A54447  11.308  26.527   6.217
 4077POPC   D2A54448  10.952  26.521   6.559
 4077POPC   C3A54449  11.040  26.644   7.004
 4077POPC   C4A54450  11.390  26.617   7.302
 4077POPC   C1B54451  11.349  27.045   6.226
 4077POPC   C2B54452  11.635  26.932   6.544
 4077POPC   C3B54453  11.622  26.985   6.997
 4077POPC   C4B54454  11.201  27.141   7.101
 4078POPC   NC354455   2.949  16.510   5.478
 4078POPC   PO454456   2.361  16.741   5.466
 4078POPC   GL154457   2.672  16.762   5.836
 4078POPC   GL254458   2.782  16.421   5.955
 4078POPC   C1A54459   2.978  16.832   6.210
 4078POPC   D2A54460   3.153  16.764   6.621
 4078POPC   C3A54461   2.938  16.933   6.928
 4078POPC   C4A54462   2.729  16.788   7.284
 4078POPC   C1B54463   2.972  16.343   6.368
 4078POPC   C2B54464   2.883  16.200   6.767
 4078POPC   C3B54465   2.638  16.286   7.133
 4078POPC   C4B54466   2.719  16.354   7.573
 4079POPC   NC354467   0.760  32.681   5.239
 4079POPC   PO454468   1.408  32.589   5.201
 4079POPC   GL154469   1.279  32.613   5.645
 4079POPC   GL254470   0.946  32.701   5.712
 4079POPC   C1A54471   1.146  32.357   6.045
 4079POPC   D2A54472   1.095  32.112   6.450
 4079POPC   C3A54473   1.320  32.207   6.850
 4079POPC   C4A54474   1.336  31.991   7.241
 4079POPC   C1B54475   0.711  32.633   6.110
 4079POPC   C2B54476   0.844  32.545   6.498
 4079POPC   C3B54477   0.829  32.376   6.907
 4079POPC   C4B54478   1.045  32.409   7.304
 4080POPC   NC354479  41.825  17.954   5.752
 4080POPC   PO454480  41.209  17.930   5.537
 4080POPC   GL154481  41.275  18.121   5.946
 4080POPC   GL254482  41.340  18.430   5.836
 4080POPC   C1A54483  41.498  18.244   6.369
 4080POPC   D2A54484  41.663  18.390   6.797
 4080POPC   C3A54485  41.607  18.168   7.216
 4080POPC   C4A54486  41.852  18.111   7.620
 4080POPC   C1B54487  41.313  18.697   6.218
 4080POPC   C2B54488  41.237  18.665   6.697
 4080POPC   C3B54489  41.372  18.632   7.175
 4080POPC   C4B54490  41.457  18.457   7.619
 4081POPC   NC354491   3.997  13.172   5.194
 4081POPC   PO454492   3.594  12.625   5.380
 4081POPC   GL154493   3.443  12.813   5.752
 4081POPC   GL254494   3.337  13.155   5.812
 4081POPC   C1A54495   3.434  12.672   6.171
 4081POPC   D2A54496   3.583  12.804   6.575
 4081POPC   C3A54497   3.373  12.563   6.832
 4081POPC   C4A54498   3.510  12.451   7.192
 4081POPC   C1B54499   3.256  13.146   6.271
 4081POPC   C2B54500   3.172  13.037   6.721
 4081POPC   C3B54501   3.390  12.955   7.164
 4081POPC   C4B54502   3.428  13.242   7.568
 4082POPC   NC354503   4.952  19.319   5.299
 4082POPC   PO454504   5.172  18.727   5.403
 4082POPC   GL154505   5.035  19.045   5.731
 4082POPC   GL254506   5.120  19.421   5.771
 4082POPC   C1A54507   5.133  19.014   6.158
 4082POPC   D2A54508   5.197  19.252   6.516
 4082POPC   C3A54509   5.055  19.102   6.904
 4082POPC   C4A54510   5.343  19.041   7.219
 4082POPC   C1B54511   4.898  19.463   6.160
 4082POPC   C2B54512   4.763  19.497   6.607
 4082POPC   C3B54513   4.832  19.526   7.068
 4082POPC   C4B54514   5.013  19.351   7.424
 4083POPC   NC354515  34.382  15.768   5.619
 4083POPC   PO454516  35.024  15.828   5.451
 4083POPC   GL154517  34.751  16.121   5.748
 4083POPC   GL254518  34.767  15.858   5.949
 4083POPC   C1A54519  34.541  16.209   6.205
 4083POPC   D2A54520  34.549  15.970   6.657
 4083POPC   C3A54521  34.548  16.135   7.115
 4083POPC   C4A54522  34.540  16.196   7.596
 4083POPC   C1B54523  35.131  15.808   6.184
 4083POPC   C2B54524  35.158  15.735   6.625
 4083POPC   C3B54525  34.907  15.783   6.992
 4083POPC   C4B54526  34.871  15.847   7.459
 4084POPC   NC354527  15.545  43.525   5.566
 4084POPC   PO454528  15.039  43.765   5.187
 4084POPC   GL154529  15.224  43.908   5.672
 4084POPC   GL254530  15.267  44.241   5.856
 4084POPC   C1A54531  15.328  43.721   6.151
 4084POPC   D2A54532  15.310  43.536   6.611
 4084POPC   C3A54533  15.231  43.817   6.992
 4084POPC   C4A54534  14.902  44.104   7.045
 4084POPC   C1B54535  15.244  44.180   6.330
 4084POPC   C2B54536  15.550  43.995   6.650
 4084POPC   C3B54537  15.585  44.146   7.120
 4084POPC   C4B54538  15.477  44.357   7.521
 4085POPC   NC354539  26.553  40.059   5.526
 4085POPC   PO454540  27.196  40.258   5.519
 4085POPC   GL154541  26.914  40.179   5.871
 4085POPC   GL254542  26.961  39.856   5.938
 4085POPC   C1A54543  26.857  40.183   6.324
 4085POPC   D2A54544  26.991  40.358   6.725
 4085POPC   C3A54545  26.904  40.180   7.149
 4085POPC   C4A54546  27.145  40.209   7.553
 4085POPC   C1B54547  26.746  39.675   6.299
 4085POPC   C2B54548  26.740  39.845   6.709
 4085POPC   C3B54549  26.511  39.829   7.067
 4085POPC   C4B54550  26.377  40.087   7.325
 4086POPC   NC354551   9.648  28.666   5.445
 4086POPC   PO454552   9.453  28.046   5.375
 4086POPC   GL154553   9.526  28.272   5.773
 4086POPC   GL254554   9.211  28.316   5.962
 4086POPC   C1A54555   9.794  28.379   6.148
 4086POPC   D2A54556   9.884  28.171   6.557
 4086POPC   C3A54557   9.833  28.385   6.967
 4086POPC   C4A54558   9.973  28.339   7.386
 4086POPC   C1B54559   9.295  28.666   6.288
 4086POPC   C2B54560   9.243  28.832   6.736
 4086POPC   C3B54561   9.407  28.661   7.158
 4086POPC   C4B54562   9.437  28.220   7.246
 4087POPC   NC354563  44.730  35.617   5.516
 4087POPC   PO454564  44.430  35.080   5.487
 4087POPC   GL154565  44.425  35.265   5.850
 4087POPC   GL254566  44.755  35.218   5.909
 4087POPC   C1A54567  44.388  35.101   6.269
 4087POPC   D2A54568  44.046  35.096   6.562
 4087POPC   C3A54569  44.265  35.248   6.899
 4087POPC   C4A54570  44.318  35.282   7.319
 4087POPC   C1B54571  44.867  35.396   6.265
 4087POPC   C2B54572  44.702  35.391   6.661
 4087POPC   C3B54573  44.770  35.219   7.060
 4087POPC   C4B54574  44.768  35.426   7.475
 4088POPC   NC354575  38.763  38.502   5.206
 4088POPC   PO454576  39.415  38.667   5.244
 4088POPC   GL154577  39.244  38.437   5.618
 4088POPC   GL254578  39.030  38.147   5.555
 4088POPC   C1A54579  39.308  38.421   6.068
 4088POPC   D2A54580  39.516  38.493   6.467
 4088POPC   C3A54581  39.299  38.521   6.849
 4088POPC   C4A54582  39.402  38.335   7.218
 4088POPC   C1B54583  38.881  38.131   6.011
 4088POPC   C2B54584  39.076  38.100   6.437
 4088POPC   C3B54585  39.081  38.059   6.890
 4088POPC   C4B54586  38.888  38.256   7.210
 4089POPC   NC354587  24.652  17.973   5.362
 4089POPC   PO454588  24.573  18.615   5.378
 4089POPC   GL154589  24.433  18.714   5.799
 4089POPC   GL254590  24.148  18.459   5.790
 4089POPC   C1A54591  24.411  18.596   6.228
 4089POPC   D2A54592  24.571  18.248   6.480
 4089POPC   C3A54593  24.764  18.355   6.858
 4089POPC   C4A54594  24.402  18.330   7.091
 4089POPC   C1B54595  24.230  18.114   6.095
 4089POPC   C2B54596  24.077  17.986   6.511
 4089POPC   C3B54597  24.157  17.863   6.960
 4089POPC   C4B54598  24.311  17.898   7.411
 4090POPC   NC354599  13.791  38.139   5.082
 4090POPC   PO454600  13.571  37.574   5.377
 4090POPC   GL154601  13.771  37.711   5.767
 4090POPC   GL254602  13.931  38.011   5.733
 4090POPC   C1A54603  13.892  37.615   6.206
 4090POPC   D2A54604  13.847  37.567   6.681
 4090POPC   C3A54605  13.577  37.560   7.019
 4090POPC   C4A54606  13.786  37.553   7.388
 4090POPC   C1B54607  13.782  38.127   6.145
 4090POPC   C2B54608  13.591  37.994   6.543
 4090POPC   C3B54609  13.789  38.011   6.941
 4090POPC   C4B54610  13.645  38.047   7.330
 4091POPC   NC354611  25.198  35.924   5.476
 4091POPC   PO454612  25.069  36.604   5.650
 4091POPC   GL154613  25.201  36.284   5.921
 4091POPC   GL254614  25.433  36.034   5.914
 4091POPC   C1A54615  25.211  36.129   6.348
 4091POPC   D2A54616  25.361  35.960   6.722
 4091POPC   C3A54617  25.180  36.204   7.036
 4091POPC   C4A54618  24.942  36.001   7.347
 4091POPC   C1B54619  25.699  35.948   6.294
 4091POPC   C2B54620  25.864  35.803   6.695
 4091POPC   C3B54621  25.686  35.593   7.037
 4091POPC   C4B54622  25.487  35.897   7.283
 4092POPC   NC354623  13.574  35.585   5.400
 4092POPC   PO454624  13.612  35.029   5.634
 4092POPC   GL154625  13.619  35.388   5.942
 4092POPC   GL254626  13.568  35.758   5.914
 4092POPC   C1A54627  13.596  35.459   6.402
 4092POPC   D2A54628  13.687  35.181   6.737
 4092POPC   C3A54629  13.510  35.247   7.150
 4092POPC   C4A54630  13.680  35.393   7.543
 4092POPC   C1B54631  13.931  35.759   6.158
 4092POPC   C2B54632  14.076  35.622   6.582
 4092POPC   C3B54633  13.815  35.625   6.970
 4092POPC   C4B54634  13.367  35.740   7.074
 4093POPC   NC354635  11.453  18.762   5.394
 4093POPC   PO454636  11.601  18.192   5.120
 4093POPC   GL154637  11.540  18.304   5.655
 4093POPC   GL254638  11.549  18.630   5.856
 4093POPC   C1A54639  11.450  18.279   6.179
 4093POPC   D2A54640  11.416  18.465   6.628
 4093POPC   C3A54641  11.264  18.133   6.933
 4093POPC   C4A54642  11.164  17.917   7.353
 4093POPC   C1B54643  11.103  18.643   6.027
 4093POPC   C2B54644  10.940  18.643   6.486
 4093POPC   C3B54645  10.989  18.577   6.963
 4093POPC   C4B54646  11.019  18.849   7.310
 4094POPC   NC354647  23.420  34.900   5.309
 4094POPC   PO454648  22.918  34.373   5.376
 4094POPC   GL154649  23.225  34.570   5.691
 4094POPC   GL254650  23.445  34.310   5.866
 4094POPC   C1A54651  23.140  34.778   6.112
 4094POPC   D2A54652  22.896  34.682   6.506
 4094POPC   C3A54653  23.020  34.831   6.905
 4094POPC   C4A54654  23.188  34.580   7.222
 4094POPC   C1B54655  23.362  34.352   6.332
 4094POPC   C2B54656  23.214  34.300   6.769
 4094POPC   C3B54657  23.131  34.083   7.162
 4094POPC   C4B54658  23.339  34.139   7.568
 4095POPC   NC354659  17.102  36.200   5.400
 4095POPC   PO454660  17.622  35.873   5.545
 4095POPC   GL154661  17.331  36.040   5.850
 4095POPC   GL254662  17.375  36.401   5.884
 4095POPC   C1A54663  17.142  35.847   6.215
 4095POPC   D2A54664  17.219  35.706   6.653
 4095POPC   C3A54665  17.451  35.984   6.905
 4095POPC   C4A54666  17.560  35.996   7.343
 4095POPC   C1B54667  17.414  36.353   6.346
 4095POPC   C2B54668  17.547  36.470   6.776
 4095POPC   C3B54669  17.341  36.422   7.189
 4095POPC   C4B54670  17.357  36.329   7.649
 4096POPC   NC354671  13.726  14.648   5.482
 4096POPC   PO454672  13.373  14.105   5.454
 4096POPC   GL154673  13.471  14.370   5.814
 4096POPC   GL254674  13.705  14.162   5.867
 4096POPC   C1A54675  13.544  14.530   6.245
 4096POPC   D2A54676  13.768  14.643   6.600
 4096POPC   C3A54677  13.572  14.681   6.986
 4096POPC   C4A54678  13.536  14.495   7.391
 4096POPC   C1B54679  13.387  14.052   6.200
 4096POPC   C2B54680  13.523  14.153   6.605
 4096POPC   C3B54681  13.360  14.177   6.981
 4096POPC   C4B54682  13.444  14.000   7.352
 4097POPC   NC354683  12.838   7.733   5.515
 4097POPC   PO454684  12.912   7.084   5.459
 4097POPC   GL154685  12.749   7.172   5.846
 4097POPC   GL254686  12.968   7.462   5.943
 4097POPC   C1A54687  12.837   7.080   6.271
 4097POPC   D2A54688  13.122   7.286   6.522
 4097POPC   C3A54689  13.033   7.178   6.935
 4097POPC   C4A54690  13.031   7.287   7.356
 4097POPC   C1B54691  12.985   7.754   6.300
 4097POPC   C2B54692  13.121   7.827   6.739
 4097POPC   C3B54693  13.127   7.756   7.201
 4097POPC   C4B54694  13.222   7.676   7.678
 4098POPC   NC354695  13.325  36.205   5.120
 4098POPC   PO454696  13.806  35.998   5.483
 4098POPC   GL154697  13.714  36.264   5.836
 4098POPC   GL254698  13.394  36.394   5.840
 4098POPC   C1A54699  13.837  36.241   6.256
 4098POPC   D2A54700  13.676  35.950   6.581
 4098POPC   C3A54701  13.737  36.120   7.000
 4098POPC   C4A54702  13.653  35.952   7.436
 4098POPC   C1B54703  13.347  36.181   6.251
 4098POPC   C2B54704  13.332  36.289   6.732
 4098POPC   C3B54705  13.290  36.263   7.202
 4098POPC   C4B54706  13.360  36.386   7.639
 4099POPC   NC354707   2.653  34.812   5.271
 4099POPC   PO454708   3.092  34.246   5.262
 4099POPC   GL154709   2.919  34.508   5.588
 4099POPC   GL254710   2.618  34.295   5.641
 4099POPC   C1A54711   2.755  34.678   5.981
 4099POPC   D2A54712   2.541  34.567   6.350
 4099POPC   C3A54713   2.875  34.521   6.695
 4099POPC   C4A54714   2.859  34.793   7.090
 4099POPC   C1B54715   2.700  34.144   6.098
 4099POPC   C2B54716   2.529  34.101   6.561
 4099POPC   C3B54717   2.547  34.277   6.991
 4099POPC   C4B54718   2.904  34.368   7.326
 4100POPC   NC354719  27.791  17.548   5.668
 4100POPC   PO454720  27.389  17.079   5.263
 4100POPC   GL154721  27.358  17.251   5.711
 4100POPC   GL254722  27.288  17.586   5.833
 4100POPC   C1A54723  27.240  17.192   6.155
 4100POPC   D2A54724  27.526  17.245   6.489
 4100POPC   C3A54725  27.570  17.339   6.912
 4100POPC   C4A54726  27.344  17.456   7.228
 4100POPC   C1B54727  27.377  17.705   6.279
 4100POPC   C2B54728  27.313  17.933   6.679
 4100POPC   C3B54729  27.564  17.866   7.017
 4100POPC   C4B54730  27.946  17.696   7.107
 4101POPC   NC354731  16.171   1.142   5.337
 4101POPC   PO454732  15.545   1.295   5.327
 4101POPC   GL154733  15.812   1.263   5.718
 4101POPC   GL254734  16.118   1.480   5.739
 4101POPC   C1A54735  15.900   1.281   6.186
 4101POPC   D2A54736  16.026   1.149   6.635
 4101POPC   C3A54737  15.772   1.075   7.073
 4101POPC   C4A54738  15.641   1.114   7.570
 4101POPC   C1B54739  16.326   1.594   6.144
 4101POPC   C2B54740  16.471   1.490   6.571
 4101POPC   C3B54741  16.312   1.460   6.997
 4101POPC   C4B54742  16.076   1.348   7.378
 4102POPC   NC354743  33.424  19.235   5.558
 4102POPC   PO454744  34.060  19.344   5.413
 4102POPC   GL154745  33.870  19.133   5.793
 4102POPC   GL254746  33.937  18.777   5.730
 4102POPC   C1A54747  33.614  19.295   6.193
 4102POPC   D2A54748  33.501  19.505   6.606
 4102POPC   C3A54749  33.651  19.260   6.939
 4102POPC   C4A54750  33.563  18.927   7.206
 4102POPC   C1B54751  33.750  18.778   6.165
 4102POPC   C2B54752  33.761  18.822   6.628
 4102POPC   C3B54753  33.903  18.607   7.013
 4102POPC   C4B54754  33.853  18.619   7.491
 4103POPC   NC354755  15.764  26.235   5.433
 4103POPC   PO454756  16.066  25.655   5.322
 4103POPC   GL154757  16.263  25.900   5.650
 4103POPC   GL254758  16.291  26.266   5.629
 4103POPC   C1A54759  16.041  25.988   6.017
 4103POPC   D2A54760  16.107  26.061   6.436
 4103POPC   C3A54761  16.050  25.824   6.804
 4103POPC   C4A54762  15.888  26.094   7.114
 4103POPC   C1B54763  16.410  26.336   6.074
 4103POPC   C2B54764  16.440  26.411   6.521
 4103POPC   C3B54765  16.105  26.461   6.812
 4103POPC   C4B54766  16.147  26.507   7.256
 4104POPC   NC354767  19.229  33.410   5.634
 4104POPC   PO454768  19.012  32.875   5.191
 4104POPC   GL154769  18.859  33.025   5.631
 4104POPC   GL254770  19.024  32.789   5.868
 4104POPC   C1A54771  18.776  33.153   6.109
 4104POPC   D2A54772  18.842  32.915   6.511
 4104POPC   C3A54773  18.866  33.102   6.918
 4104POPC   C4A54774  18.866  32.880   7.298
 4104POPC   C1B54775  19.263  33.013   6.232
 4104POPC   C2B54776  19.513  33.042   6.635
 4104POPC   C3B54777  19.337  32.983   7.068
 4104POPC   C4B54778  19.214  33.272   7.394
 4105POPC   NC354779  29.877  34.039   5.405
 4105POPC   PO454780  29.921  33.362   5.420
 4105POPC   GL154781  29.888  33.662   5.739
 4105POPC   GL254782  29.546  33.757   5.706
 4105POPC   C1A54783  29.882  33.920   6.115
 4105POPC   D2A54784  29.715  33.937   6.535
 4105POPC   C3A54785  29.960  33.883   6.896
 4105POPC   C4A54786  29.821  33.820   7.298
 4105POPC   C1B54787  29.562  33.503   6.097
 4105POPC   C2B54788  29.851  33.430   6.466
 4105POPC   C3B54789  29.880  33.384   6.944
 4105POPC   C4B54790  29.587  33.368   7.293
 4106POPC   NC354791  14.704   6.067   5.496
 4106POPC   PO454792  14.222   5.568   5.260
 4106POPC   GL154793  14.109   5.836   5.688
 4106POPC   GL254794  14.388   5.952   5.852
 4106POPC   C1A54795  14.065   5.741   6.173
 4106POPC   D2A54796  14.242   5.516   6.548
 4106POPC   C3A54797  14.209   5.783   6.917
 4106POPC   C4A54798  14.472   5.851   7.271
 4106POPC   C1B54799  14.594   6.148   6.163
 4106POPC   C2B54800  14.481   5.991   6.539
 4106POPC   C3B54801  14.601   6.176   6.911
 4106POPC   C4B54802  14.859   6.413   7.214
 4107POPC   NC354803  14.988  19.021   5.433
 4107POPC   PO454804  15.539  19.235   5.285
 4107POPC   GL154805  15.416  19.038   5.767
 4107POPC   GL254806  15.128  19.138   5.901
 4107POPC   C1A54807  15.364  19.254   6.296
 4107POPC   D2A54808  15.063  19.094   6.627
 4107POPC   C3A54809  15.105  19.278   7.033
 4107POPC   C4A54810  15.414  19.220   7.301
 4107POPC   C1B54811  15.275  18.767   6.196
 4107POPC   C2B54812  15.289  18.593   6.625
 4107POPC   C3B54813  15.268  18.772   7.030
 4107POPC   C4B54814  14.903  18.817   7.267
 4108POPC   NC354815  40.012  33.416   5.692
 4108POPC   PO454816  39.655  32.912   5.395
 4108POPC   GL154817  39.845  32.931   5.816
 4108POPC   GL254818  40.199  32.928   5.797
 4108POPC   C1A54819  40.004  33.111   6.256
 4108POPC   D2A54820  40.152  33.298   6.634
 4108POPC   C3A54821  40.025  33.069   6.958
 4108POPC   C4A54822  39.673  33.000   7.222
 4108POPC   C1B54823  40.392  32.769   6.197
 4108POPC   C2B54824  40.242  32.728   6.638
 4108POPC   C3B54825  40.348  32.710   7.108
 4108POPC   C4B54826  40.130  32.837   7.514
 4109POPC   NC354827  11.576   9.521   5.266
 4109POPC   PO454828  11.136  10.062   5.057
 4109POPC   GL154829  11.164   9.838   5.551
 4109POPC   GL254830  11.506   9.862   5.643
 4109POPC   C1A54831  11.108   9.588   6.026
 4109POPC   D2A54832  10.922   9.621   6.483
 4109POPC   C3A54833  11.179   9.569   6.862
 4109POPC   C4A54834  11.037   9.408   7.259
 4109POPC   C1B54835  11.406   9.996   6.050
 4109POPC   C2B54836  11.291   9.969   6.471
 4109POPC   C3B54837  11.247  10.159   6.853
 4109POPC   C4B54838  11.261   9.921   7.215
 4110POPC   NC354839  12.405  27.563   5.373
 4110POPC   PO454840  11.772  27.437   5.471
 4110POPC   GL154841  11.998  27.542   5.836
 4110POPC   GL254842  12.227  27.260   5.817
 4110POPC   C1A54843  12.065  27.815   6.219
 4110POPC   D2A54844  12.224  27.725   6.649
 4110POPC   C3A54845  12.055  27.897   7.018
 4110POPC   C4A54846  11.653  28.010   7.139
 4110POPC   C1B54847  12.189  27.303   6.279
 4110POPC   C2B54848  11.984  27.272   6.694
 4110POPC   C3B54849  12.008  27.333   7.132
 4110POPC   C4B54850  12.214  27.116   7.451
 4111POPC   NC354851  11.784  25.391   5.492
 4111POPC   PO454852  12.448  25.254   5.455
 4111POPC   GL154853  12.269  25.465   5.782
 4111POPC   GL254854  12.077  25.162   5.857
 4111POPC   C1A54855  12.304  25.464   6.231
 4111POPC   D2A54856  12.152  25.120   6.455
 4111POPC   C3A54857  12.318  25.092   6.860
 4111POPC   C4A54858  12.375  25.475   7.113
 4111POPC   C1B54859  11.808  25.400   6.142
 4111POPC   C2B54860  11.868  25.646   6.515
 4111POPC   C3B54861  11.857  25.554   6.961
 4111POPC   C4B54862  11.912  25.157   7.157
 4112POPC   NC354863  32.347  21.543   5.243
 4112POPC   PO454864  32.263  20.924   5.368
 4112POPC   GL154865  32.213  21.174   5.776
 4112POPC   GL254866  32.321  21.530   5.749
 4112POPC   C1A54867  32.058  21.382   6.172
 4112POPC   D2A54868  31.964  21.463   6.593
 4112POPC   C3A54869  32.106  21.211   6.931
 4112POPC   C4A54870  32.327  21.054   7.292
 4112POPC   C1B54871  32.542  21.564   6.155
 4112POPC   C2B54872  32.699  21.518   6.560
 4112POPC   C3B54873  32.626  21.359   6.955
 4112POPC   C4B54874  32.541  21.501   7.354
 4113POPC   NC354875  15.535   5.017   5.215
 4113POPC   PO454876  14.932   4.934   5.568
 4113POPC   GL154877  14.890   5.001   5.982
 4113POPC   GL254878  15.038   5.357   5.964
 4113POPC   C1A54879  15.093   4.734   6.293
 4113POPC   D2A54880  15.334   4.912   6.613
 4113POPC   C3A54881  15.081   5.099   6.928
 4113POPC   C4A54882  15.176   5.060   7.354
 4113POPC   C1B54883  15.012   5.287   6.411
 4113POPC   C2B54884  14.795   5.539   6.727
 4113POPC   C3B54885  14.827   5.499   7.160
 4113POPC   C4B54886  14.941   5.452   7.579
 4114POPC   NC354887  10.313  44.489   5.428
 4114POPC   PO454888  10.942  44.496   5.199
 4114POPC   GL154889  10.689  44.846   5.592
 4114POPC   GL254890  10.400  44.724   5.859
 4114POPC   C1A54891  10.724   0.034   6.079
 4114POPC   D2A54892  10.927  44.905   6.527
 4114POPC   C3A54893  10.652  44.852   6.917
 4114POPC   C4A54894  10.838  44.892   7.330
 4114POPC   C1B54895  10.571  44.586   6.272
 4114POPC   C2B54896  10.754  44.434   6.645
 4114POPC   C3B54897  10.692  44.328   7.068
 4114POPC   C4B54898  10.334  44.555   7.188
 4115POPC   NC354899  34.879  17.934   5.412
 4115POPC   PO454900  34.329  18.414   5.164
 4115POPC   GL154901  34.535  18.271   5.524
 4115POPC   GL254902  34.544  18.534   5.698
 4115POPC   C1A54903  34.553  18.070   5.956
 4115POPC   D2A54904  34.479  18.110   6.400
 4115POPC   C3A54905  34.813  18.136   6.716
 4115POPC   C4A54906  34.705  18.217   7.120
 4115POPC   C1B54907  34.592  18.545   6.139
 4115POPC   C2B54908  34.611  18.612   6.575
 4115POPC   C3B54909  34.599  18.704   7.015
 4115POPC   C4B54910  34.899  18.658   7.338
 4116POPC   NC354911  41.117  37.771   5.342
 4116POPC   PO454912  40.429  37.897   5.378
 4116POPC   GL154913  40.721  38.016   5.691
 4116POPC   GL254914  40.855  37.695   5.783
 4116POPC   C1A54915  40.739  38.065   6.143
 4116POPC   D2A54916  40.827  37.826   6.534
 4116POPC   C3A54917  40.685  37.941   6.945
 4116POPC   C4A54918  40.707  37.741   7.334
 4116POPC   C1B54919  40.874  37.457   6.166
 4116POPC   C2B54920  41.174  37.407   6.505
 4116POPC   C3B54921  41.014  37.507   6.906
 4116POPC   C4B54922  41.123  37.485   7.319
 4117POPC   NC354923  23.125  26.400   5.728
 4117POPC   PO454924  22.977  25.788   5.404
 4117POPC   GL154925  22.681  25.800   5.832
 4117POPC   GL254926  22.680  26.180   5.894
 4117POPC   C1A54927  22.697  25.864   6.319
 4117POPC   D2A54928  23.065  26.091   6.507
 4117POPC   C3A54929  23.075  26.089   6.955
 4117POPC   C4A54930  23.183  26.116   7.410
 4117POPC   C1B54931  22.629  26.389   6.296
 4117POPC   C2B54932  22.642  26.302   6.729
 4117POPC   C3B54933  22.545  26.011   7.032
 4117POPC   C4B54934  22.635  26.154   7.432
 4118POPC   NC354935  14.611  19.945   5.502
 4118POPC   PO454936  14.108  19.765   5.085
 4118POPC   GL154937  14.172  19.686   5.596
 4118POPC   GL254938  14.336  19.420   5.788
 4118POPC   C1A54939  14.234  19.785   6.096
 4118POPC   D2A54940  14.595  19.631   6.373
 4118POPC   C3A54941  14.687  19.957   6.686
 4118POPC   C4A54942  14.555  20.033   7.129
 4118POPC   C1B54943  14.196  19.291   6.254
 4118POPC   C2B54944  14.187  19.518   6.670
 4118POPC   C3B54945  14.228  19.615   7.118
 4118POPC   C4B54946  14.147  19.404   7.525
 4119POPC   NC354947  25.510  17.854   5.602
 4119POPC   PO454948  25.192  17.241   5.494
 4119POPC   GL154949  25.291  17.458   5.836
 4119POPC   GL254950  25.061  17.764   5.852
 4119POPC   C1A54951  25.452  17.487   6.245
 4119POPC   D2A54952  25.286  17.573   6.654
 4119POPC   C3A54953  25.434  17.555   7.076
 4119POPC   C4A54954  25.460  17.127   7.147
 4119POPC   C1B54955  24.818  17.849   6.240
 4119POPC   C2B54956  24.855  17.865   6.692
 4119POPC   C3B54957  24.686  17.867   7.073
 4119POPC   C4B54958  24.865  17.778   7.461
 4120POPC   NC354959   6.786   0.217   5.113
 4120POPC   PO454960   6.618  44.715   5.550
 4120POPC   GL154961   6.975  44.627   5.839
 4120POPC   GL254962   7.106  44.965   5.811
 4120POPC   C1A54963   7.061  44.504   6.308
 4120POPC   D2A54964   7.082  44.465   6.762
 4120POPC   C3A54965   6.793  44.627   7.097
 4120POPC   C4A54966   6.403  44.457   7.271
 4120POPC   C1B54967   6.847  44.959   6.206
 4120POPC   C2B54968   6.691  44.806   6.624
 4120POPC   C3B54969   6.742   0.121   6.990
 4120POPC   C4B54970   6.675   0.486   7.304
 4121POPC   NC354971  13.995  38.474   5.545
 4121POPC   PO454972  13.394  38.309   5.269
 4121POPC   GL154973  13.459  38.197   5.728
 4121POPC   GL254974  13.554  38.493   5.849
 4121POPC   C1A54975  13.271  38.203   6.189
 4121POPC   D2A54976  13.235  38.416   6.609
 4121POPC   C3A54977  13.505  38.447   6.991
 4121POPC   C4A54978  13.358  38.446   7.442
 4121POPC   C1B54979  13.664  38.630   6.265
 4121POPC   C2B54980  13.866  38.412   6.593
 4121POPC   C3B54981  14.092  38.414   6.952
 4121POPC   C4B54982  13.889  38.481   7.343
 4122POPC   NC354983  42.846  14.305   5.607
 4122POPC   PO454984  43.448  14.510   5.486
 4122POPC   GL154985  43.291  14.337   5.860
 4122POPC   GL254986  43.522  14.063   5.863
 4122POPC   C1A54987  42.969  14.284   6.237
 4122POPC   D2A54988  42.867  14.155   6.669
 4122POPC   C3A54989  42.965  14.464   6.988
 4122POPC   C4A54990  43.032  14.499   7.439
 4122POPC   C1B54991  43.470  14.211   6.307
 4122POPC   C2B54992  43.373  14.251   6.708
 4122POPC   C3B54993  43.386  14.251   7.131
 4122POPC   C4B54994  43.510  14.574   7.355
 4123POPC   NC354995  43.627  23.081   5.328
 4123POPC   PO454996  43.991  22.554   5.098
 4123POPC   GL154997  43.932  22.770   5.603
 4123POPC   GL254998  43.655  22.924   5.794
 4123POPC   C1A54999  44.031  22.993   6.096
 4123POPC   D2A55000  44.116  23.255   6.510
 4123POPC   C3A55001  44.160  23.001   6.911
 4123POPC   C4A55002  43.929  22.648   7.084
 4123POPC   C1B55003  43.474  22.786   6.179
 4123POPC   C2B55004  43.290  22.877   6.595
 4123POPC   C3B55005  43.503  22.994   7.002
 4123POPC   C4B55006  43.721  22.949   7.432
 4124POPC   NC355007  37.096  34.988   5.590
 4124POPC   PO455008  36.595  35.458   5.489
 4124POPC   GL155009  36.617  35.505   5.893
 4124POPC   GL255010  36.950  35.382   5.946
 4124POPC   C1A55011  36.548  35.195   6.210
 4124POPC   D2A55012  36.877  35.182   6.493
 4124POPC   C3A55013  36.856  35.185   6.893
 4124POPC   C4A55014  36.915  35.279   7.309
 4124POPC   C1B55015  37.125  35.587   6.315
 4124POPC   C2B55016  37.234  35.515   6.761
 4124POPC   C3B55017  37.349  35.519   7.206
 4124POPC   C4B55018  37.348  35.219   7.582
 4125POPC   NC355019  34.221  16.609   5.597
 4125POPC   PO455020  34.872  16.813   5.530
 4125POPC   GL155021  34.627  16.682   5.900
 4125POPC   GL255022  34.363  16.938   6.008
 4125POPC   C1A55023  34.659  16.686   6.335
 4125POPC   D2A55024  34.536  16.468   6.681
 4125POPC   C3A55025  34.732  16.645   7.007
 4125POPC   C4A55026  34.666  17.020   7.196
 4125POPC   C1B55027  34.191  16.874   6.440
 4125POPC   C2B55028  34.263  16.843   6.895
 4125POPC   C3B55029  34.292  16.560   7.247
 4125POPC   C4B55030  34.117  16.595   7.662
 4126POPC   NC355031  24.040  33.849   5.243
 4126POPC   PO455032  23.698  34.490   5.393
 4126POPC   GL155033  23.892  34.555   5.810
 4126POPC   GL255034  23.962  34.917   5.913
 4126POPC   C1A55035  23.919  34.316   6.186
 4126POPC   D2A55036  24.035  34.157   6.550
 4126POPC   C3A55037  23.934  34.222   6.950
 4126POPC   C4A55038  23.650  34.375   7.222
 4126POPC   C1B55039  23.692  34.754   6.252
 4126POPC   C2B55040  23.674  34.595   6.685
 4126POPC   C3B55041  23.598  34.853   7.043
 4126POPC   C4B55042  23.268  35.100   7.273
 4127POPC   NC355043  35.804   4.497   5.439
 4127POPC   PO455044  35.750   3.906   5.465
 4127POPC   GL155045  35.925   4.131   5.842
 4127POPC   GL255046  36.165   4.418   5.791
 4127POPC   C1A55047  36.047   4.297   6.286
 4127POPC   D2A55048  36.197   4.250   6.739
 4127POPC   C3A55049  36.121   4.307   7.191
 4127POPC   C4A55050  36.382   4.155   7.544
 4127POPC   C1B55051  36.356   4.676   6.118
 4127POPC   C2B55052  36.240   4.721   6.549
 4127POPC   C3B55053  36.349   4.727   6.967
 4127POPC   C4B55054  36.466   4.656   7.381
 4128POPC   NC355055   6.973  44.630   5.284
 4128POPC   PO455056   7.589  44.858   5.359
 4128POPC   GL155057   7.518  44.663   5.759
 4128POPC   GL255058   7.623  44.975   5.883
 4128POPC   C1A55059   7.559  44.475   6.174
 4128POPC   D2A55060   7.576  44.649   6.606
 4128POPC   C3A55061   7.526  44.408   6.967
 4128POPC   C4A55062   7.226  44.382   7.256
 4128POPC   C1B55063   7.374  44.942   6.249
 4128POPC   C2B55064   7.170  44.968   6.638
 4128POPC   C3B55065   7.222  44.902   7.072
 4128POPC   C4B55066   7.017   0.110   7.419
 4129POPC   NC355067   3.651   4.876   5.468
 4129POPC   PO455068   3.233   5.413   5.403
 4129POPC   GL155069   3.490   5.253   5.804
 4129POPC   GL255070   3.772   4.981   5.949
 4129POPC   C1A55071   3.354   5.061   6.206
 4129POPC   D2A55072   3.559   4.954   6.605
 4129POPC   C3A55073   3.376   5.156   6.947
 4129POPC   C4A55074   3.137   5.055   7.294
 4129POPC   C1B55075   3.797   5.296   6.273
 4129POPC   C2B55076   3.894   5.415   6.679
 4129POPC   C3B55077   3.886   5.125   7.017
 4129POPC   C4B55078   3.640   5.191   7.373
 4130POPC   NC355079  19.993  10.784   5.487
 4130POPC   PO455080  20.263  10.274   5.346
 4130POPC   GL155081  20.038  10.368   5.822
 4130POPC   GL255082  19.928  10.704   5.966
 4130POPC   C1A55083  19.942  10.372   6.321
 4130POPC   D2A55084  19.823  10.128   6.681
 4130POPC   C3A55085  19.964  10.344   7.063
 4130POPC   C4A55086  20.203  10.372   7.472
 4130POPC   C1B55087  19.560  10.695   6.237
 4130POPC   C2B55088  19.635  10.610   6.669
 4130POPC   C3B55089  19.580  10.709   7.119
 4130POPC   C4B55090  19.868  10.759   7.474
 4131POPC   NC355091  20.170   7.061   5.006
 4131POPC   PO455092  19.785   7.487   5.436
 4131POPC   GL155093  19.889   7.478   5.846
 4131POPC   GL255094  20.216   7.641   5.871
 4131POPC   C1A55095  19.846   7.160   6.176
 4131POPC   D2A55096  19.630   7.197   6.565
 4131POPC   C3A55097  19.850   7.294   6.977
 4131POPC   C4A55098  19.874   7.233   7.467
 4131POPC   C1B55099  20.053   7.619   6.301
 4131POPC   C2B55100  20.165   7.687   6.703
 4131POPC   C3B55101  20.380   7.807   7.042
 4131POPC   C4B55102  20.097   7.643   7.305
 4132POPC   NC355103  29.740  44.287   5.229
 4132POPC   PO455104  29.742  44.947   5.194
 4132POPC   GL155105  29.770  44.655   5.589
 4132POPC   GL255106  29.460  44.460   5.685
 4132POPC   C1A55107  29.995  44.608   6.025
 4132POPC   D2A55108  30.058  44.447   6.475
 4132POPC   C3A55109  30.338  44.500   6.850
 4132POPC   C4A55110  30.059  44.618   7.218
 4132POPC   C1B55111  29.513  44.811   5.992
 4132POPC   C2B55112  29.699  44.808   6.416
 4132POPC   C3B55113  29.698  44.816   6.874
 4132POPC   C4B55114  29.475  44.806   7.285
 4133POPC   NC355115  39.335  44.692   5.259
 4133POPC   PO455116  38.809  44.387   5.398
 4133POPC   GL155117  39.026  44.643   5.748
 4133POPC   GL255118  39.366  44.585   5.791
 4133POPC   C1A55119  39.071  44.720   6.211
 4133POPC   D2A55120  38.904  44.542   6.606
 4133POPC   C3A55121  38.984  44.666   7.060
 4133POPC   C4A55122  39.095  44.683   7.535
 4133POPC   C1B55123  39.582  44.680   6.169
 4133POPC   C2B55124  39.444  44.777   6.599
 4133POPC   C3B55125  39.502  44.592   7.016
 4133POPC   C4B55126  39.590  44.257   7.318
 4134POPC   NC355127  14.734  41.074   5.466
 4134POPC   PO455128  14.095  40.741   5.452
 4134POPC   GL155129  14.370  40.674   5.810
 4134POPC   GL255130  14.699  40.840   5.922
 4134POPC   C1A55131  14.269  40.534   6.223
 4134POPC   D2A55132  14.235  40.580   6.656
 4134POPC   C3A55133  14.585  40.692   6.903
 4134POPC   C4A55134  14.458  40.617   7.308
 4134POPC   C1B55135  14.410  41.044   6.211
 4134POPC   C2B55136  14.396  41.302   6.582
 4134POPC   C3B55137  14.563  41.308   6.971
 4134POPC   C4B55138  14.538  41.109   7.346
 4135POPC   NC355139   2.123  22.865   5.253
 4135POPC   PO455140   1.469  22.989   5.388
 4135POPC   GL155141   1.726  22.881   5.749
 4135POPC   GL255142   2.070  22.817   5.742
 4135POPC   C1A55143   1.792  23.022   6.171
 4135POPC   D2A55144   1.859  22.913   6.596
 4135POPC   C3A55145   1.822  23.214   6.919
 4135POPC   C4A55146   1.765  23.027   7.322
 4135POPC   C1B55147   2.298  23.043   6.071
 4135POPC   C2B55148   2.310  23.182   6.485
 4135POPC   C3B55149   2.377  23.206   6.909
 4135POPC   C4B55150   2.163  23.390   7.258
 4136POPC   NC355151  19.287  28.327   5.387
 4136POPC   PO455152  18.894  28.812   5.320
 4136POPC   GL155153  18.879  28.565   5.711
 4136POPC   GL255154  18.981  28.189   5.773
 4136POPC   C1A55155  19.107  28.567   6.098
 4136POPC   D2A55156  19.217  28.442   6.499
 4136POPC   C3A55157  19.016  28.627   6.858
 4136POPC   C4A55158  19.047  28.520   7.262
 4136POPC   C1B55159  19.233  28.029   6.143
 4136POPC   C2B55160  19.096  27.943   6.572
 4136POPC   C3B55161  19.171  28.103   6.978
 4136POPC   C4B55162  18.974  28.020   7.381
 4137POPC   NC355163  43.227  16.611   5.341
 4137POPC   PO455164  42.912  17.212   5.296
 4137POPC   GL155165  42.893  16.983   5.725
 4137POPC   GL255166  42.792  17.238   5.957
 4137POPC   C1A55167  43.003  16.805   6.172
 4137POPC   D2A55168  43.297  16.876   6.591
 4137POPC   C3A55169  43.134  16.754   7.040
 4137POPC   C4A55170  42.804  16.523   7.266
 4137POPC   C1B55171  43.067  17.291   6.324
 4137POPC   C2B55172  43.348  17.363   6.664
 4137POPC   C3B55173  43.333  17.230   7.088
 4137POPC   C4B55174  43.051  17.330   7.419
 4138POPC   NC355175  35.533   1.924   5.536
 4138POPC   PO455176  34.870   1.745   5.449
 4138POPC   GL155177  35.069   1.862   5.813
 4138POPC   GL255178  35.274   1.578   5.804
 4138POPC   C1A55179  35.248   2.142   6.146
 4138POPC   D2A55180  35.097   2.290   6.541
 4138POPC   C3A55181  35.128   2.069   6.942
 4138POPC   C4A55182  35.345   2.224   7.292
 4138POPC   C1B55183  35.445   1.676   6.195
 4138POPC   C2B55184  35.466   1.894   6.573
 4138POPC   C3B55185  35.662   1.954   6.972
 4138POPC   C4B55186  35.597   1.800   7.381
 4139POPC   NC355187  33.314  31.832   5.544
 4139POPC   PO455188  32.662  31.801   5.434
 4139POPC   GL155189  32.900  31.716   5.795
 4139POPC   GL255190  33.041  31.386   5.739
 4139POPC   C1A55191  32.931  31.904   6.193
 4139POPC   D2A55192  32.858  31.992   6.631
 4139POPC   C3A55193  33.130  31.725   6.868
 4139POPC   C4A55194  33.059  31.601   7.316
 4139POPC   C1B55195  33.005  31.369   6.171
 4139POPC   C2B55196  33.137  31.182   6.551
 4139POPC   C3B55197  33.043  31.235   6.973
 4139POPC   C4B55198  33.039  31.091   7.415
 4140POPC   NC355199  31.551  41.325   5.485
 4140POPC   PO455200  31.065  41.794   5.430
 4140POPC   GL155201  31.470  41.800   5.624
 4140POPC   GL255202  31.367  41.567   5.908
 4140POPC   C1A55203  31.788  41.829   5.995
 4140POPC   D2A55204  31.704  41.544   6.386
 4140POPC   C3A55205  31.469  41.710   6.785
 4140POPC   C4A55206  31.531  41.584   7.211
 4140POPC   C1B55207  31.183  41.575   6.343
 4140POPC   C2B55208  31.150  41.305   6.732
 4140POPC   C3B55209  31.096  41.091   7.134
 4140POPC   C4B55210  31.312  41.215   7.512
 4141POPC   NC355211  34.687  12.592   5.615
 4141POPC   PO455212  34.892  11.961   5.413
 4141POPC   GL155213  34.900  11.743   5.812
 4141POPC   GL255214  34.974  12.052   5.934
 4141POPC   C1A55215  34.843  11.649   6.278
 4141POPC   D2A55216  34.777  11.608   6.738
 4141POPC   C3A55217  34.549  11.895   7.004
 4141POPC   C4A55218  34.281  12.117   7.316
 4141POPC   C1B55219  34.742  12.149   6.325
 4141POPC   C2B55220  34.829  12.308   6.744
 4141POPC   C3B55221  34.745  12.332   7.195
 4141POPC   C4B55222  34.728  12.586   7.558
 4142POPC   NC355223  13.587  25.569   5.391
 4142POPC   PO455224  13.931  25.003   5.306
 4142POPC   GL155225  13.783  25.163   5.724
 4142POPC   GL255226  13.428  25.268   5.764
 4142POPC   C1A55227  13.706  25.223   6.190
 4142POPC   D2A55228  13.780  25.081   6.610
 4142POPC   C3A55229  13.672  25.263   7.011
 4142POPC   C4A55230  13.668  25.123   7.419
 4142POPC   C1B55231  13.278  25.610   6.041
 4142POPC   C2B55232  13.181  25.642   6.506
 4142POPC   C3B55233  13.289  25.753   6.950
 4142POPC   C4B55234  13.297  25.445   7.293
 4143POPC   NC355235   7.107  29.897   5.477
 4143POPC   PO455236   6.573  30.229   5.150
 4143POPC   GL155237   6.622  30.138   5.639
 4143POPC   GL255238   6.634  29.761   5.727
 4143POPC   C1A55239   6.622  30.097   6.132
 4143POPC   D2A55240   6.511  29.839   6.493
 4143POPC   C3A55241   6.681  29.821   6.904
 4143POPC   C4A55242   6.685  30.180   7.125
 4143POPC   C1B55243   6.933  29.663   6.099
 4143POPC   C2B55244   6.954  29.551   6.544
 4143POPC   C3B55245   7.130  29.587   6.954
 4143POPC   C4B55246   7.027  29.846   7.346
 4144POPC   NC355247  29.765  18.740   5.386
 4144POPC   PO455248  29.943  19.307   5.395
 4144POPC   GL155249  29.950  19.028   5.779
 4144POPC   GL255250  29.628  18.934   5.829
 4144POPC   C1A55251  29.953  19.039   6.231
 4144POPC   D2A55252  30.054  18.872   6.610
 4144POPC   C3A55253  29.972  19.065   6.960
 4144POPC   C4A55254  30.038  18.929   7.373
 4144POPC   C1B55255  29.461  19.154   6.158
 4144POPC   C2B55256  29.502  18.975   6.536
 4144POPC   C3B55257  29.616  18.713   6.815
 4144POPC   C4B55258  29.563  18.858   7.248
 4145POPC   NC355259  14.359  18.068   5.525
 4145POPC   PO455260  14.634  18.716   5.381
 4145POPC   GL155261  14.517  18.492   5.738
 4145POPC   GL255262  14.739  18.222   5.833
 4145POPC   C1A55263  14.310  18.337   6.121
 4145POPC   D2A55264  14.439  18.270   6.533
 4145POPC   C3A55265  14.292  18.542   6.844
 4145POPC   C4A55266  14.176  18.211   7.094
 4145POPC   C1B55267  14.697  17.961   6.175
 4145POPC   C2B55268  14.637  17.768   6.565
 4145POPC   C3B55269  14.638  17.911   6.979
 4145POPC   C4B55270  14.950  17.892   7.301
 4146POPC   NC355271  15.714  30.559   5.462
 4146POPC   PO455272  16.220  31.000   5.327
 4146POPC   GL155273  15.997  30.870   5.759
 4146POPC   GL255274  15.886  30.485   5.929
 4146POPC   C1A55275  16.076  30.848   6.193
 4146POPC   D2A55276  15.971  30.636   6.572
 4146POPC   C3A55277  16.061  30.798   6.965
 4146POPC   C4A55278  15.761  30.961   7.285
 4146POPC   C1B55279  16.254  30.373   6.191
 4146POPC   C2B55280  16.321  30.246   6.622
 4146POPC   C3B55281  16.271  30.332   7.080
 4146POPC   C4B55282  16.139  30.321   7.530
 4147POPC   NC355283  17.041  43.231   5.423
 4147POPC   PO455284  16.342  42.986   5.472
 4147POPC   GL155285  16.644  43.102   5.747
 4147POPC   GL255286  16.891  42.862   5.840
 4147POPC   C1A55287  16.686  43.268   6.133
 4147POPC   D2A55288  16.884  43.354   6.522
 4147POPC   C3A55289  16.664  43.302   6.895
 4147POPC   C4A55290  16.529  43.240   7.290
 4147POPC   C1B55291  16.950  42.862   6.299
 4147POPC   C2B55292  16.937  42.914   6.736
 4147POPC   C3B55293  16.933  42.926   7.181
 4147POPC   C4B55294  17.086  42.730   7.588
 4148POPC   NC355295  27.884   8.629   5.518
 4148POPC   PO455296  27.385   8.066   5.603
 4148POPC   GL155297  27.595   8.316   5.850
 4148POPC   GL255298  27.764   7.995   5.938
 4148POPC   C1A55299  27.721   8.374   6.268
 4148POPC   D2A55300  27.553   8.292   6.659
 4148POPC   C3A55301  27.725   8.439   7.033
 4148POPC   C4A55302  27.445   8.567   7.342
 4148POPC   C1B55303  27.592   7.891   6.312
 4148POPC   C2B55304  27.528   7.751   6.704
 4148POPC   C3B55305  27.512   7.971   7.073
 4148POPC   C4B55306  27.618   8.109   7.461
 4149POPC   NC355307  36.441  24.643   5.559
 4149POPC   PO455308  35.962  24.189   5.491
 4149POPC   GL155309  36.061  24.411   5.812
 4149POPC   GL255310  35.774  24.657   5.766
 4149POPC   C1A55311  36.312  24.339   6.185
 4149POPC   D2A55312  36.360  24.161   6.597
 4149POPC   C3A55313  36.300  24.392   7.004
 4149POPC   C4A55314  36.490  24.432   7.415
 4149POPC   C1B55315  35.700  24.394   6.147
 4149POPC   C2B55316  35.769  24.320   6.576
 4149POPC   C3B55317  35.769  24.444   7.018
 4149POPC   C4B55318  35.996  24.561   7.405
 4150POPC   NC355319  39.085  10.937   5.317
 4150POPC   PO455320  39.452  10.473   5.544
 4150POPC   GL155321  39.250  10.731   5.818
 4150POPC   GL255322  38.966  10.568   5.868
 4150POPC   C1A55323  39.189  10.877   6.235
 4150POPC   D2A55324  39.356  10.973   6.652
 4150POPC   C3A55325  39.186  10.780   7.029
 4150POPC   C4A55326  39.327  10.416   7.248
 4150POPC   C1B55327  39.098  10.378   6.267
 4150POPC   C2B55328  39.088  10.317   6.714
 4150POPC   C3B55329  39.335  10.015   6.925
 4150POPC   C4B55330  39.423   9.920   7.359
 4151POPC   NC355331  21.012  23.806   5.470
 4151POPC   PO455332  21.653  23.458   5.390
 4151POPC   GL155333  21.552  23.298   5.791
 4151POPC   GL255334  21.346  23.563   5.848
 4151POPC   C1A55335  21.704  23.352   6.201
 4151POPC   D2A55336  21.800  23.510   6.594
 4151POPC   C3A55337  21.507  23.582   6.921
 4151POPC   C4A55338  21.450  23.930   7.210
 4151POPC   C1B55339  21.071  23.359   6.154
 4151POPC   C2B55340  20.896  23.451   6.583
 4151POPC   C3B55341  21.036  23.341   6.970
 4151POPC   C4B55342  21.149  23.527   7.330
 4152POPC   NC355343   3.114  20.956   5.507
 4152POPC   PO455344   2.731  21.583   5.255
 4152POPC   GL155345   2.936  21.600   5.698
 4152POPC   GL255346   3.001  21.280   5.905
 4152POPC   C1A55347   2.782  21.700   6.143
 4152POPC   D2A55348   2.818  21.836   6.598
 4152POPC   C3A55349   2.697  21.551   6.949
 4152POPC   C4A55350   2.455  21.191   7.121
 4152POPC   C1B55351   2.995  21.081   6.346
 4152POPC   C2B55352   2.836  21.023   6.807
 4152POPC   C3B55353   2.880  20.921   7.258
 4152POPC   C4B55354   3.129  21.062   7.613
 4153POPC   NC355355  41.859  25.223   5.378
 4153POPC   PO455356  41.274  25.517   5.617
 4153POPC   GL155357  41.472  25.161   5.808
 4153POPC   GL255358  41.781  25.290   5.874
 4153POPC   C1A55359  41.375  25.036   6.245
 4153POPC   D2A55360  41.269  25.339   6.597
 4153POPC   C3A55361  41.440  25.144   6.921
 4153POPC   C4A55362  41.333  25.024   7.298
 4153POPC   C1B55363  41.678  25.442   6.301
 4153POPC   C2B55364  41.743  25.524   6.737
 4153POPC   C3B55365  41.764  25.430   7.180
 4153POPC   C4B55366  41.439  25.473   7.517
 4154POPC   NC355367  29.377  31.555   5.202
 4154POPC   PO455368  28.776  31.320   5.502
 4154POPC   GL155369  29.078  31.346   5.815
 4154POPC   GL255370  29.228  31.612   5.689
 4154POPC   C1A55371  29.173  31.254   6.211
 4154POPC   D2A55372  29.051  31.099   6.586
 4154POPC   C3A55373  29.110  31.248   6.966
 4154POPC   C4A55374  28.952  31.495   7.279
 4154POPC   C1B55375  29.211  31.745   6.131
 4154POPC   C2B55376  29.130  31.620   6.579
 4154POPC   C3B55377  29.331  31.714   6.976
 4154POPC   C4B55378  29.199  31.927   7.351
 4155POPC   NC355379   4.667  11.553   5.511
 4155POPC   PO455380   5.032  10.985   5.188
 4155POPC   GL155381   5.068  11.243   5.600
 4155POPC   GL255382   5.174  11.554   5.633
 4155POPC   C1A55383   4.991  11.299   6.069
 4155POPC   D2A55384   4.842  11.194   6.487
 4155POPC   C3A55385   4.946  11.459   6.860
 4155POPC   C4A55386   4.965  11.147   7.190
 4155POPC   C1B55387   5.476  11.441   5.955
 4155POPC   C2B55388   5.404  11.262   6.382
 4155POPC   C3B55389   5.407  11.233   6.830
 4155POPC   C4B55390   5.350  11.466   7.211
 4156POPC   NC355391  33.207   1.740   5.236
 4156POPC   PO455392  33.242   2.377   5.353
 4156POPC   GL155393  33.262   2.169   5.768
 4156POPC   GL255394  33.160   1.817   5.744
 4156POPC   C1A55395  33.012   2.190   6.182
 4156POPC   D2A55396  32.693   2.111   6.528
 4156POPC   C3A55397  32.873   2.128   6.960
 4156POPC   C4A55398  33.197   2.380   7.160
 4156POPC   C1B55399  33.107   1.677   6.182
 4156POPC   C2B55400  33.209   1.892   6.593
 4156POPC   C3B55401  33.305   1.849   7.048
 4156POPC   C4B55402  33.013   1.754   7.354
 4157POPC   NC355403  42.811  43.671   5.420
 4157POPC   PO455404  43.442  43.437   5.514
 4157POPC   GL155405  43.148  43.676   5.818
 4157POPC   GL255406  42.879  43.931   5.872
 4157POPC   C1A55407  43.053  43.587   6.237
 4157POPC   D2A55408  43.255  43.504   6.646
 4157POPC   C3A55409  43.019  43.482   7.027
 4157POPC   C4A55410  42.857  43.710   7.367
 4157POPC   C1B55411  42.797  44.054   6.290
 4157POPC   C2B55412  43.106  43.987   6.595
 4157POPC   C3B55413  43.149  43.990   7.003
 4157POPC   C4B55414  42.788  44.170   7.129
 4158POPC   NC355415  36.762  31.118   5.323
 4158POPC   PO455416  36.893  31.742   5.147
 4158POPC   GL155417  36.677  31.585   5.640
 4158POPC   GL255418  36.797  31.269   5.829
 4158POPC   C1A55419  36.784  31.657   6.162
 4158POPC   D2A55420  37.114  31.729   6.509
 4158POPC   C3A55421  37.025  31.569   6.934
 4158POPC   C4A55422  36.677  31.429   7.191
 4158POPC   C1B55423  36.868  31.157   6.302
 4158POPC   C2B55424  36.827  31.089   6.768
 4158POPC   C3B55425  37.026  31.072   7.177
 4158POPC   C4B55426  36.894  31.057   7.647
 4159POPC   NC355427  21.577  28.865   5.216
 4159POPC   PO455428  21.314  29.512   5.431
 4159POPC   GL155429  21.156  29.212   5.713
 4159POPC   GL255430  21.140  28.885   5.538
 4159POPC   C1A55431  21.323  29.121   6.117
 4159POPC   D2A55432  21.425  29.143   6.551
 4159POPC   C3A55433  21.154  29.202   6.905
 4159POPC   C4A55434  21.382  29.217   7.286
 4159POPC   C1B55435  21.028  28.747   5.950
 4159POPC   C2B55436  21.089  28.767   6.391
 4159POPC   C3B55437  21.023  28.692   6.801
 4159POPC   C4B55438  21.069  28.783   7.210
 4160POPC   NC355439   7.165  34.482   5.230
 4160POPC   PO455440   7.028  34.829   5.793
 4160POPC   GL155441   7.469  34.655   5.824
 4160POPC   GL255442   7.775  34.841   5.784
 4160POPC   C1A55443   7.551  34.450   6.228
 4160POPC   D2A55444   7.198  34.371   6.523
 4160POPC   C3A55445   7.320  34.502   6.907
 4160POPC   C4A55446   7.338  34.605   7.291
 4160POPC   C1B55447   7.538  35.044   6.160
 4160POPC   C2B55448   7.318  34.925   6.554
 4160POPC   C3B55449   7.430  35.022   6.979
 4160POPC   C4B55450   7.790  34.777   7.127
 4161POPC   NC355451  18.448  11.607   5.398
 4161POPC   PO455452  17.865  11.914   5.245
 4161POPC   GL155453  17.966  11.914   5.725
 4161POPC   GL255454  18.197  12.141   5.897
 4161POPC   C1A55455  17.965  11.828   6.208
 4161POPC   D2A55456  18.136  12.050   6.574
 4161POPC   C3A55457  18.022  12.003   7.035
 4161POPC   C4A55458  18.325  11.958   7.402
 4161POPC   C1B55459  18.485  12.281   6.188
 4161POPC   C2B55460  18.510  12.424   6.591
 4161POPC   C3B55461  18.490  12.226   6.979
 4161POPC   C4B55462  18.705  12.282   7.389
 4162POPC   NC355463  22.163  22.308   5.288
 4162POPC   PO455464  22.674  21.891   5.569
 4162POPC   GL155465  22.274  22.100   5.752
 4162POPC   GL255466  22.236  22.475   5.747
 4162POPC   C1A55467  21.941  22.109   6.097
 4162POPC   D2A55468  22.036  22.158   6.546
 4162POPC   C3A55469  21.932  22.029   6.962
 4162POPC   C4A55470  22.328  22.062   7.203
 4162POPC   C1B55471  22.293  22.484   6.161
 4162POPC   C2B55472  22.188  22.627   6.531
 4162POPC   C3B55473  22.259  22.479   6.919
 4162POPC   C4B55474  22.445  22.589   7.299
 4163POPC   NC355475  44.327  36.192   5.040
 4163POPC   PO455476  44.873  36.262   5.411
 4163POPC   GL155477  44.521  36.078   5.705
 4163POPC   GL255478  44.501  35.775   5.942
 4163POPC   C1A55479  44.507  36.263   6.133
 4163POPC   D2A55480  44.743  36.294   6.522
 4163POPC   C3A55481  44.554  36.024   6.844
 4163POPC   C4A55482  44.589  35.859   7.259
 4163POPC   C1B55483  44.899  35.905   6.142
 4163POPC   C2B55484  44.977  35.830   6.577
 4163POPC   C3B55485   0.013  35.666   6.991
 4163POPC   C4B55486   0.092  35.823   7.385
 4164POPC   NC355487  33.639  32.675   5.677
 4164POPC   PO455488  33.935  32.202   5.215
 4164POPC   GL155489  34.059  32.217   5.678
 4164POPC   GL255490  34.120  32.558   5.806
 4164POPC   C1A55491  33.948  32.145   6.145
 4164POPC   D2A55492  33.724  32.239   6.557
 4164POPC   C3A55493  33.883  32.098   6.995
 4164POPC   C4A55494  33.727  32.155   7.459
 4164POPC   C1B55495  34.130  32.728   6.231
 4164POPC   C2B55496  34.020  32.666   6.656
 4164POPC   C3B55497  33.691  32.580   6.949
 4164POPC   C4B55498  33.963  32.539   7.270
 4165POPC   NC355499  38.132   0.633   5.591
 4165POPC   PO455500  37.749   0.269   5.121
 4165POPC   GL155501  37.738   0.312   5.638
 4165POPC   GL255502  37.428   0.396   5.779
 4165POPC   C1A55503  37.796   0.406   6.150
 4165POPC   D2A55504  37.937   0.575   6.592
 4165POPC   C3A55505  37.711   0.361   6.888
 4165POPC   C4A55506  37.760   0.157   7.276
 4165POPC   C1B55507  37.274   0.613   6.181
 4165POPC   C2B55508  37.253   0.614   6.669
 4165POPC   C3B55509  37.133   0.769   7.079
 4165POPC   C4B55510  37.210   0.974   7.452
 4166POPC   NC355511  44.033  35.348   5.435
 4166POPC   PO455512  43.651  34.806   5.313
 4166POPC   GL155513  43.708  35.024   5.774
 4166POPC   GL255514  43.687  35.383   5.824
 4166POPC   C1A55515  43.611  35.115   6.248
 4166POPC   D2A55516  43.676  35.489   6.543
 4166POPC   C3A55517  43.767  35.359   6.960
 4166POPC   C4A55518  43.927  34.956   7.145
 4166POPC   C1B55519  44.024  35.455   6.144
 4166POPC   C2B55520  44.221  35.615   6.551
 4166POPC   C3B55521  44.142  35.731   7.010
 4166POPC   C4B55522  43.932  35.600   7.389
 4167POPC   NC355523   7.743   4.740   5.184
 4167POPC   PO455524   7.404   5.315   5.348
 4167POPC   GL155525   7.395   5.109   5.733
 4167POPC   GL255526   7.579   4.784   5.676
 4167POPC   C1A55527   7.296   5.214   6.156
 4167POPC   D2A55528   7.482   5.354   6.531
 4167POPC   C3A55529   7.306   5.405   6.932
 4167POPC   C4A55530   7.099   5.182   7.228
 4167POPC   C1B55531   7.426   4.710   6.099
 4167POPC   C2B55532   7.599   4.815   6.508
 4167POPC   C3B55533   7.411   4.883   6.896
 4167POPC   C4B55534   7.441   4.817   7.320
 4168POPC   NC355535  24.855  24.720   5.291
 4168POPC   PO455536  25.468  24.397   5.518
 4168POPC   GL155537  25.261  24.520   5.851
 4168POPC   GL255538  25.086  24.215   5.843
 4168POPC   C1A55539  25.365  24.713   6.253
 4168POPC   D2A55540  25.133  24.795   6.641
 4168POPC   C3A55541  25.389  24.702   6.983
 4168POPC   C4A55542  25.070  24.489   7.168
 4168POPC   C1B55543  25.352  24.154   6.196
 4168POPC   C2B55544  25.366  24.328   6.600
 4168POPC   C3B55545  25.405  24.157   6.972
 4168POPC   C4B55546  25.399  23.988   7.328
 4169POPC   NC355547  43.910  39.897   5.151
 4169POPC   PO455548  44.104  40.430   5.380
 4169POPC   GL155549  44.150  40.128   5.706
 4169POPC   GL255550  43.831  40.025   5.707
 4169POPC   C1A55551  44.123  39.871   6.101
 4169POPC   D2A55552  44.308  39.794   6.513
 4169POPC   C3A55553  44.093  40.023   6.849
 4169POPC   C4A55554  44.144  39.982   7.277
 4169POPC   C1B55555  43.610  40.151   6.074
 4169POPC   C2B55556  43.718  40.203   6.500
 4169POPC   C3B55557  43.542  40.164   6.894
 4169POPC   C4B55558  43.645  40.126   7.299
 4170POPC   NC355559  19.636  36.782   5.141
 4170POPC   PO455560  18.952  36.979   5.338
 4170POPC   GL155561  18.909  36.992   5.734
 4170POPC   GL255562  19.228  36.905   5.807
 4170POPC   C1A55563  18.754  36.824   6.088
 4170POPC   D2A55564  18.722  36.934   6.523
 4170POPC   C3A55565  19.049  36.783   6.791
 4170POPC   C4A55566  18.947  36.693   7.207
 4170POPC   C1B55567  19.253  36.836   6.248
 4170POPC   C2B55568  19.475  37.028   6.581
 4170POPC   C3B55569  19.529  37.312   6.896
 4170POPC   C4B55570  19.262  37.095   7.183
 4171POPC   NC355571   0.405   2.690   5.113
 4171POPC   PO455572   0.801   3.156   5.525
 4171POPC   GL155573   0.390   3.132   5.729
 4171POPC   GL255574   0.513   2.825   5.833
 4171POPC   C1A55575   0.145   3.001   6.129
 4171POPC   D2A55576   0.131   2.740   6.530
 4171POPC   C3A55577   0.104   2.946   6.958
 4171POPC   C4A55578   0.328   2.857   7.360
 4171POPC   C1B55579   0.641   2.941   6.283
 4171POPC   C2B55580   0.550   2.989   6.723
 4171POPC   C3B55581   0.728   2.821   7.085
 4171POPC   C4B55582   0.832   2.996   7.448
 4172POPC   NC355583   0.108  14.860   5.455
 4172POPC   PO455584  44.519  15.212   5.333
 4172POPC   GL155585  44.565  14.992   5.707
 4172POPC   GL255586  44.865  15.149   5.804
 4172POPC   C1A55587  44.592  14.868   6.160
 4172POPC   D2A55588  44.766  14.772   6.604
 4172POPC   C3A55589  44.624  14.893   7.047
 4172POPC   C4A55590  44.563  14.878   7.540
 4172POPC   C1B55591   0.031  15.135   6.223
 4172POPC   C2B55592   0.170  15.117   6.644
 4172POPC   C3B55593   0.112  15.263   7.049
 4172POPC   C4B55594  44.750  15.309   7.304
 4173POPC   NC355595  42.931  36.660   5.536
 4173POPC   PO455596  43.375  37.208   5.452
 4173POPC   GL155597  43.207  36.988   5.840
 4173POPC   GL255598  42.890  36.831   6.033
 4173POPC   C1A55599  43.357  36.668   6.118
 4173POPC   D2A55600  43.161  36.494   6.483
 4173POPC   C3A55601  43.278  36.774   6.814
 4173POPC   C4A55602  43.429  36.859   7.238
 4173POPC   C1B55603  43.064  37.096   6.346
 4173POPC   C2B55604  43.016  37.209   6.767
 4173POPC   C3B55605  42.927  36.956   7.151
 4173POPC   C4B55606  42.800  36.779   7.535
 4174POPC   NC355607  43.774  37.849   5.246
 4174POPC   PO455608  44.198  37.399   5.368
 4174POPC   GL155609  43.957  37.630   5.695
 4174POPC   GL255610  43.604  37.626   5.690
 4174POPC   C1A55611  43.900  37.626   6.155
 4174POPC   D2A55612  43.988  37.380   6.536
 4174POPC   C3A55613  44.163  37.576   6.904
 4174POPC   C4A55614  43.960  37.749   7.259
 4174POPC   C1B55615  43.455  37.888   6.045
 4174POPC   C2B55616  43.517  38.025   6.475
 4174POPC   C3B55617  43.569  37.916   6.924
 4174POPC   C4B55618  43.663  38.161   7.324
 4175POPC   NC355619  32.635  31.111   5.594
 4175POPC   PO455620  32.786  30.450   5.496
 4175POPC   GL155621  32.563  30.637   5.855
 4175POPC   GL255622  32.266  30.858   5.805
 4175POPC   C1A55623  32.424  30.617   6.301
 4175POPC   D2A55624  32.172  30.903   6.597
 4175POPC   C3A55625  32.150  30.759   6.994
 4175POPC   C4A55626  32.489  30.523   7.102
 4175POPC   C1B55627  32.469  31.094   6.200
 4175POPC   C2B55628  32.665  30.995   6.614
 4175POPC   C3B55629  32.553  31.082   7.023
 4175POPC   C4B55630  32.416  30.953   7.421
 4176POPC   NC355631  28.111  33.478   5.571
 4176POPC   PO455632  28.526  34.052   5.366
 4176POPC   GL155633  28.422  33.951   5.820
 4176POPC   GL255634  28.174  34.194   5.957
 4176POPC   C1A55635  28.469  33.900   6.297
 4176POPC   D2A55636  28.484  34.046   6.752
 4176POPC   C3A55637  28.324  33.765   7.080
 4176POPC   C4A55638  28.420  33.708   7.529
 4176POPC   C1B55639  27.949  33.878   6.231
 4176POPC   C2B55640  28.023  33.846   6.655
 4176POPC   C3B55641  27.894  34.037   7.057
 4176POPC   C4B55642  28.061  34.074   7.515
 4177POPC   NC355643   3.249  21.855   5.326
 4177POPC   PO455644   3.497  21.215   5.505
 4177POPC   GL155645   3.693  21.402   5.859
 4177POPC   GL255646   3.417  21.575   5.915
 4177POPC   C1A55647   3.688  21.355   6.306
 4177POPC   D2A55648   3.644  21.656   6.633
 4177POPC   C3A55649   3.600  21.480   7.043
 4177POPC   C4A55650   3.503  21.058   7.188
 4177POPC   C1B55651   3.221  21.547   6.335
 4177POPC   C2B55652   3.235  21.333   6.730
 4177POPC   C3B55653   3.117  21.374   7.170
 4177POPC   C4B55654   3.208  21.613   7.558
 4178POPC   NC355655  21.380  20.785   5.490
 4178POPC   PO455656  20.981  20.303   5.680
 4178POPC   GL155657  21.376  20.506   5.900
 4178POPC   GL255658  21.687  20.363   5.955
 4178POPC   C1A55659  21.540  20.775   6.286
 4178POPC   D2A55660  21.529  21.044   6.703
 4178POPC   C3A55661  21.355  20.823   7.071
 4178POPC   C4A55662  21.373  20.419   7.230
 4178POPC   C1B55663  21.402  20.241   6.327
 4178POPC   C2B55664  21.349  20.148   6.773
 4178POPC   C3B55665  21.733  20.125   7.037
 4178POPC   C4B55666  21.856  20.556   7.148
 4179POPC   NC355667   8.248  39.392   5.475
 4179POPC   PO455668   7.896  38.953   5.717
 4179POPC   GL155669   8.030  39.297   5.955
 4179POPC   GL255670   8.083  39.649   5.889
 4179POPC   C1A55671   7.974  39.325   6.372
 4179POPC   D2A55672   8.193  39.095   6.665
 4179POPC   C3A55673   8.003  38.905   6.995
 4179POPC   C4A55674   8.204  38.971   7.363
 4179POPC   C1B55675   8.110  39.818   6.323
 4179POPC   C2B55676   8.022  39.667   6.752
 4179POPC   C3B55677   8.261  39.511   7.071
 4179POPC   C4B55678   8.276  39.465   7.500
 4180POPC   NC355679  23.839  37.400   5.145
 4180POPC   PO455680  23.781  37.944   5.615
 4180POPC   GL155681  23.969  37.933   5.968
 4180POPC   GL255682  23.758  37.660   6.066
 4180POPC   C1A55683  23.916  37.998   6.432
 4180POPC   D2A55684  23.853  37.728   6.741
 4180POPC   C3A55685  23.608  37.906   7.028
 4180POPC   C4A55686  23.712  37.860   7.433
 4180POPC   C1B55687  23.448  37.703   6.402
 4180POPC   C2B55688  23.394  37.444   6.771
 4180POPC   C3B55689  23.477  37.414   7.219
 4180POPC   C4B55690  23.428  37.419   7.678
 4181POPC   NC355691  33.303  27.088   5.417
 4181POPC   PO455692  32.885  26.722   5.380
 4181POPC   GL155693  33.154  26.750   5.788
 4181POPC   GL255694  32.907  26.688   6.066
 4181POPC   C1A55695  33.370  26.815   6.224
 4181POPC   D2A55696  33.365  27.053   6.639
 4181POPC   C3A55697  33.278  26.811   7.038
 4181POPC   C4A55698  33.365  26.503   7.376
 4181POPC   C1B55699  32.942  26.762   6.544
 4181POPC   C2B55700  32.772  26.898   6.962
 4181POPC   C3B55701  32.528  27.045   7.325
 4181POPC   C4B55702  32.741  27.123   7.724
 4182POPC   NC355703   8.779  20.471   5.356
 4182POPC   PO455704   9.448  20.655   5.323
 4182POPC   GL155705   9.113  20.664   5.720
 4182POPC   GL255706   8.765  20.539   5.843
 4182POPC   C1A55707   9.046  20.751   6.205
 4182POPC   D2A55708   8.863  21.108   6.469
 4182POPC   C3A55709   8.915  21.015   6.892
 4182POPC   C4A55710   9.094  20.624   7.041
 4182POPC   C1B55711   8.572  20.531   6.243
 4182POPC   C2B55712   8.669  20.613   6.672
 4182POPC   C3B55713   8.668  20.317   7.000
 4182POPC   C4B55714   8.711  20.263   7.435
 4183POPC   NC355715  25.954  18.930   5.422
 4183POPC   PO455716  26.282  19.323   5.839
 4183POPC   GL155717  25.925  19.123   5.937
 4183POPC   GL255718  25.687  19.322   5.760
 4183POPC   C1A55719  25.848  18.904   6.357
 4183POPC   D2A55720  26.073  18.727   6.725
 4183POPC   C3A55721  26.199  19.030   7.045
 4183POPC   C4A55722  26.097  19.057   7.485
 4183POPC   C1B55723  25.701  19.446   6.247
 4183POPC   C2B55724  25.850  19.359   6.693
 4183POPC   C3B55725  25.807  19.337   7.154
 4183POPC   C4B55726  25.691  19.353   7.601
 4184POPC   NC355727   5.129  35.848   5.426
 4184POPC   PO455728   4.839  36.534   5.523
 4184POPC   GL155729   5.051  36.206   5.795
 4184POPC   GL255730   4.779  35.973   5.827
 4184POPC   C1A55731   5.238  36.008   6.209
 4184POPC   D2A55732   5.406  35.850   6.636
 4184POPC   C3A55733   5.262  36.120   7.005
 4184POPC   C4A55734   5.019  36.201   7.392
 4184POPC   C1B55735   4.776  36.246   6.212
 4184POPC   C2B55736   4.888  36.115   6.616
 4184POPC   C3B55737   4.806  36.397   6.937
 4184POPC   C4B55738   4.468  36.401   7.204
 4185POPC   NC355739  11.158   0.016   5.381
 4185POPC   PO455740  10.912  44.416   5.702
 4185POPC   GL155741  11.127  44.762   5.889
 4185POPC   GL255742  11.461  44.798   5.777
 4185POPC   C1A55743  11.378  44.739   6.276
 4185POPC   D2A55744  11.434  44.698   6.700
 4185POPC   C3A55745  11.115  44.623   6.964
 4185POPC   C4A55746  11.444  44.597   7.235
 4185POPC   C1B55747  11.734   0.072   6.074
 4185POPC   C2B55748  11.948   0.072   6.502
 4185POPC   C3B55749  11.793  44.980   6.935
 4185POPC   C4B55750  11.683   0.034   7.377
 4186POPC   NC355751  33.140  10.626   5.272
 4186POPC   PO455752  32.724  10.177   5.385
 4186POPC   GL155753  32.977  10.379   5.738
 4186POPC   GL255754  32.963  10.730   5.733
 4186POPC   C1A55755  33.152  10.515   6.168
 4186POPC   D2A55756  33.330  10.435   6.577
 4186POPC   C3A55757  33.117  10.592   6.963
 4186POPC   C4A55758  33.108  10.706   7.431
 4186POPC   C1B55759  32.727  10.819   6.096
 4186POPC   C2B55760  32.833  10.723   6.529
 4186POPC   C3B55761  32.625  10.768   6.935
 4186POPC   C4B55762  32.652  10.978   7.363
 4187POPC   NC355763  34.583  39.704   4.905
 4187POPC   PO455764  34.644  40.281   5.178
 4187POPC   GL155765  34.705  40.430   5.625
 4187POPC   GL255766  34.399  40.328   5.825
 4187POPC   C1A55767  34.839  40.391   6.067
 4187POPC   D2A55768  34.917  40.157   6.464
 4187POPC   C3A55769  34.719  40.146   6.877
 4187POPC   C4A55770  34.403  39.940   7.164
 4187POPC   C1B55771  34.400  40.352   6.328
 4187POPC   C2B55772  34.245  40.332   6.782
 4187POPC   C3B55773  34.111  40.353   7.241
 4187POPC   C4B55774  33.928  40.075   7.572
 4188POPC   NC355775  21.968   5.275   4.939
 4188POPC   PO455776  21.854   4.663   5.288
 4188POPC   GL155777  21.907   5.013   5.647
 4188POPC   GL255778  22.248   5.149   5.725
 4188POPC   C1A55779  21.892   5.266   6.084
 4188POPC   D2A55780  21.662   5.292   6.496
 4188POPC   C3A55781  21.859   5.254   6.890
 4188POPC   C4A55782  21.932   5.102   7.297
 4188POPC   C1B55783  22.421   5.229   6.151
 4188POPC   C2B55784  22.576   5.209   6.565
 4188POPC   C3B55785  22.388   5.172   6.956
 4188POPC   C4B55786  22.420   5.069   7.374
 4189POPC   NC355787  27.969  15.894   5.339
 4189POPC   PO455788  27.336  16.150   5.412
 4189POPC   GL155789  27.477  15.955   5.807
 4189POPC   GL255790  27.742  15.656   5.761
 4189POPC   C1A55791  27.449  16.143   6.256
 4189POPC   D2A55792  27.606  16.354   6.637
 4189POPC   C3A55793  27.590  16.115   7.026
 4189POPC   C4A55794  27.250  16.002   7.294
 4189POPC   C1B55795  27.575  15.646   6.202
 4189POPC   C2B55796  27.597  15.753   6.650
 4189POPC   C3B55797  27.525  15.594   7.087
 4189POPC   C4B55798  27.562  15.710   7.545
 4190POPC   NC355799  28.557  21.627   5.533
 4190POPC   PO455800  28.306  20.960   5.514
 4190POPC   GL155801  28.130  21.146   5.883
 4190POPC   GL255802  28.189  21.500   5.868
 4190POPC   C1A55803  28.022  21.310   6.333
 4190POPC   D2A55804  28.276  21.474   6.689
 4190POPC   C3A55805  28.270  21.373   7.126
 4190POPC   C4A55806  28.394  20.967   7.284
 4190POPC   C1B55807  28.502  21.399   6.215
 4190POPC   C2B55808  28.793  21.561   6.564
 4190POPC   C3B55809  28.673  21.676   7.025
 4190POPC   C4B55810  28.643  21.636   7.484
 4191POPC   NC355811  36.520  44.237   5.369
 4191POPC   PO455812  36.958  44.789   5.281
 4191POPC   GL155813  36.951  44.831   5.718
 4191POPC   GL255814  37.328  44.871   5.731
 4191POPC   C1A55815  36.707  44.890   6.138
 4191POPC   D2A55816  36.935  44.878   6.540
 4191POPC   C3A55817  36.789  44.893   6.986
 4191POPC   C4A55818  36.811  44.637   7.359
 4191POPC   C1B55819  37.168  44.607   6.122
 4191POPC   C2B55820  37.095  44.374   6.494
 4191POPC   C3B55821  37.170  44.543   6.922
 4191POPC   C4B55822  37.294  44.811   7.266
 4192POPC   NC355823   9.160  27.256   5.649
 4192POPC   PO455824   8.738  27.779   5.517
 4192POPC   GL155825   8.965  27.726   5.896
 4192POPC   GL255826   9.306  27.799   5.840
 4192POPC   C1A55827   9.117  27.498   6.270
 4192POPC   D2A55828   9.118  27.244   6.641
 4192POPC   C3A55829   8.955  27.402   7.014
 4192POPC   C4A55830   9.066  27.199   7.397
 4192POPC   C1B55831   9.325  27.957   6.294
 4192POPC   C2B55832   9.170  27.811   6.734
 4192POPC   C3B55833   9.280  27.736   7.208
 4192POPC   C4B55834   9.209  27.962   7.623
 4193POPC   NC355835   9.079  30.834   5.036
 4193POPC   PO455836   8.845  30.292   5.304
 4193POPC   GL155837   8.801  30.177   5.769
 4193POPC   GL255838   9.158  30.247   5.869
 4193POPC   C1A55839   8.566  30.283   6.201
 4193POPC   D2A55840   8.646  30.494   6.626
 4193POPC   C3A55841   8.604  30.229   7.022
 4193POPC   C4A55842   8.705  30.328   7.461
 4193POPC   C1B55843   9.042  30.473   6.268
 4193POPC   C2B55844   9.072  30.765   6.649
 4193POPC   C3B55845   9.159  30.866   7.087
 4193POPC   C4B55846   9.398  31.103   7.421
 4194POPC   NC355847  40.470  19.872   5.277
 4194POPC   PO455848  40.953  19.787   5.670
 4194POPC   GL155849  40.800  20.038   5.925
 4194POPC   GL255850  40.468  19.933   5.815
 4194POPC   C1A55851  40.921  19.938   6.326
 4194POPC   D2A55852  40.843  19.684   6.655
 4194POPC   C3A55853  40.838  19.858   7.037
 4194POPC   C4A55854  40.533  19.908   7.306
 4194POPC   C1B55855  40.550  19.622   6.186
 4194POPC   C2B55856  40.404  19.456   6.601
 4194POPC   C3B55857  40.533  19.432   7.079
 4194POPC   C4B55858  40.331  19.424   7.513
 4195POPC   NC355859  33.461  41.746   5.679
 4195POPC   PO455860  34.018  41.341   5.563
 4195POPC   GL155861  33.998  41.531   5.931
 4195POPC   GL255862  34.141  41.830   5.902
 4195POPC   C1A55863  34.022  41.570   6.387
 4195POPC   D2A55864  33.778  41.831   6.680
 4195POPC   C3A55865  33.607  41.489   6.919
 4195POPC   C4A55866  33.910  41.229   7.113
 4195POPC   C1B55867  34.097  42.052   6.288
 4195POPC   C2B55868  34.306  41.931   6.684
 4195POPC   C3B55869  34.160  41.660   7.025
 4195POPC   C4B55870  34.142  41.776   7.466
 4196POPC   NC355871  22.862  30.344   5.320
 4196POPC   PO455872  22.826  29.691   5.267
 4196POPC   GL155873  22.917  29.737   5.747
 4196POPC   GL255874  23.137  30.022   5.828
 4196POPC   C1A55875  22.643  29.736   6.152
 4196POPC   D2A55876  22.466  29.857   6.570
 4196POPC   C3A55877  22.784  29.857   6.892
 4196POPC   C4A55878  22.885  29.986   7.330
 4196POPC   C1B55879  23.284  30.280   6.175
 4196POPC   C2B55880  23.138  30.424   6.584
 4196POPC   C3B55881  23.182  30.204   6.954
 4196POPC   C4B55882  23.373  30.109   7.331
 4197POPC   NC355883  25.110  38.282   5.375
 4197POPC   PO455884  25.151  37.622   5.422
 4197POPC   GL155885  25.429  37.739   5.764
 4197POPC   GL255886  25.427  38.085   5.770
 4197POPC   C1A55887  25.458  37.826   6.214
 4197POPC   D2A55888  25.237  37.650   6.545
 4197POPC   C3A55889  25.489  37.559   6.848
 4197POPC   C4A55890  25.401  37.405   7.232
 4197POPC   C1B55891  25.008  37.980   5.993
 4197POPC   C2B55892  24.853  37.957   6.431
 4197POPC   C3B55893  24.901  37.927   6.869
 4197POPC   C4B55894  25.236  37.891   7.147
 4198POPC   NC355895  21.966  25.281   5.362
 4198POPC   PO455896  22.516  24.920   5.590
 4198POPC   GL155897  22.236  25.149   5.883
 4198POPC   GL255898  21.885  25.099   5.842
 4198POPC   C1A55899  22.073  25.201   6.330
 4198POPC   D2A55900  22.154  24.963   6.717
 4198POPC   C3A55901  21.958  25.072   7.106
 4198POPC   C4A55902  22.154  25.338   7.405
 4198POPC   C1B55903  21.789  25.483   6.023
 4198POPC   C2B55904  21.813  25.657   6.467
 4198POPC   C3B55905  21.884  25.512   6.886
 4198POPC   C4B55906  21.706  25.543   7.302
 4199POPC   NC355907  35.659   2.890   5.311
 4199POPC   PO455908  35.089   2.600   5.307
 4199POPC   GL155909  35.246   2.692   5.726
 4199POPC   GL255910  35.386   3.002   5.736
 4199POPC   C1A55911  35.318   2.662   6.184
 4199POPC   D2A55912  35.124   2.805   6.570
 4199POPC   C3A55913  35.260   2.617   6.933
 4199POPC   C4A55914  35.091   2.658   7.309
 4199POPC   C1B55915  35.654   3.048   6.099
 4199POPC   C2B55916  35.641   2.885   6.533
 4199POPC   C3B55917  35.607   2.987   6.979
 4199POPC   C4B55918  35.473   3.158   7.369
 4200POPC   NC355919  33.375  30.958   5.152
 4200POPC   PO455920  33.717  30.485   5.133
 4200POPC   GL155921  33.755  30.711   5.571
 4200POPC   GL255922  33.510  30.971   5.654
 4200POPC   C1A55923  33.766  30.670   6.056
 4200POPC   D2A55924  34.076  30.625   6.418
 4200POPC   C3A55925  34.029  30.881   6.795
 4200POPC   C4A55926  33.886  30.707   7.171
 4200POPC   C1B55927  33.419  31.052   6.112
 4200POPC   C2B55928  33.566  30.851   6.526
 4200POPC   C3B55929  33.442  30.897   6.984
 4200POPC   C4B55930  33.559  30.978   7.436
 4201POPC   NC355931  42.450  31.787   5.552
 4201POPC   PO455932  42.710  32.465   5.451
 4201POPC   GL155933  42.404  32.404   5.847
 4201POPC   GL255934  42.335  32.105   5.889
 4201POPC   C1A55935  42.079  32.331   6.229
 4201POPC   D2A55936  42.069  32.123   6.627
 4201POPC   C3A55937  42.271  32.334   6.978
 4201POPC   C4A55938  42.504  32.386   7.347
 4201POPC   C1B55939  42.568  32.157   6.250
 4201POPC   C2B55940  42.557  31.968   6.615
 4201POPC   C3B55941  42.724  32.050   7.003
 4201POPC   C4B55942  42.652  31.899   7.403
 4202POPC   NC355943  40.895  10.194   5.253
 4202POPC   PO455944  40.416   9.870   5.548
 4202POPC   GL155945  40.644   9.920   5.915
 4202POPC   GL255946  40.940  10.007   5.837
 4202POPC   C1A55947  40.770  10.185   6.281
 4202POPC   D2A55948  40.424  10.285   6.545
 4202POPC   C3A55949  40.418   9.988   6.875
 4202POPC   C4A55950  40.716  10.006   7.189
 4202POPC   C1B55951  40.945   9.696   6.254
 4202POPC   C2B55952  40.872   9.768   6.703
 4202POPC   C3B55953  40.841   9.527   7.104
 4202POPC   C4B55954  41.169   9.356   7.344
 4203POPC   NC355955   7.269  33.528   5.510
 4203POPC   PO455956   7.609  34.140   5.359
 4203POPC   GL155957   7.536  34.048   5.866
 4203POPC   GL255958   7.500  33.645   5.937
 4203POPC   C1A55959   7.351  33.925   6.311
 4203POPC   D2A55960   7.054  33.595   6.503
 4203POPC   C3A55961   7.185  33.584   6.927
 4203POPC   C4A55962   7.391  33.985   7.102
 4203POPC   C1B55963   7.756  33.565   6.281
 4203POPC   C2B55964   7.641  33.629   6.710
 4203POPC   C3B55965   7.667  33.561   7.154
 4203POPC   C4B55966   7.556  33.354   7.552
 4204POPC   NC355967  30.999  18.817   5.421
 4204POPC   PO455968  30.768  19.403   5.188
 4204POPC   GL155969  30.708  19.206   5.589
 4204POPC   GL255970  30.406  19.106   5.564
 4204POPC   C1A55971  30.833  19.013   6.012
 4204POPC   D2A55972  30.856  18.825   6.435
 4204POPC   C3A55973  30.987  19.119   6.773
 4204POPC   C4A55974  30.895  18.972   7.184
 4204POPC   C1B55975  30.379  19.231   6.007
 4204POPC   C2B55976  30.612  19.285   6.407
 4204POPC   C3B55977  30.486  19.083   6.784
 4204POPC   C4B55978  30.434  19.185   7.193
 4205POPC   NC355979   2.489  13.347   5.487
 4205POPC   PO455980   2.945  13.861   5.519
 4205POPC   GL155981   2.719  13.698   5.848
 4205POPC   GL255982   2.866  13.384   5.850
 4205POPC   C1A55983   2.562  13.737   6.277
 4205POPC   D2A55984   2.366  13.831   6.675
 4205POPC   C3A55985   2.585  13.685   7.044
 4205POPC   C4A55986   2.573  13.411   7.410
 4205POPC   C1B55987   2.754  13.262   6.257
 4205POPC   C2B55988   2.576  13.362   6.637
 4205POPC   C3B55989   2.817  13.253   6.989
 4205POPC   C4B55990   3.227  13.417   7.111
 4206POPC   NC355991  34.398   3.716   5.169
 4206POPC   PO455992  34.543   3.231   5.636
 4206POPC   GL155993  34.587   3.670   5.673
 4206POPC   GL255994  34.269   3.874   5.641
 4206POPC   C1A55995  34.765   3.683   6.079
 4206POPC   D2A55996  34.839   3.434   6.453
 4206POPC   C3A55997  34.842   3.585   6.870
 4206POPC   C4A55998  34.556   3.391   7.150
 4206POPC   C1B55999  34.309   3.899   6.098
 4206POPC   C2B56000  34.515   3.830   6.505
 4206POPC   C3B56001  34.341   3.773   6.899
 4206POPC   C4B56002  34.076   3.837   7.251
 4207POPC   NC356003  16.332   8.188   5.277
 4207POPC   PO456004  15.716   8.352   5.439
 4207POPC   GL156005  16.033   8.373   5.686
 4207POPC   GL256006  16.083   8.012   5.720
 4207POPC   C1A56007  16.151   8.383   6.099
 4207POPC   D2A56008  16.155   8.151   6.486
 4207POPC   C3A56009  16.076   8.241   6.901
 4207POPC   C4A56010  15.726   8.091   7.138
 4207POPC   C1B56011  16.016   7.755   6.102
 4207POPC   C2B56012  16.223   7.656   6.493
 4207POPC   C3B56013  16.426   7.848   6.836
 4207POPC   C4B56014  16.200   7.848   7.204
 4208POPC   NC356015  18.105  40.790   5.439
 4208POPC   PO456016  18.670  40.597   5.594
 4208POPC   GL156017  18.423  40.905   5.828
 4208POPC   GL256018  18.486  40.691   6.103
 4208POPC   C1A56019  18.073  40.986   6.122
 4208POPC   D2A56020  18.182  40.847   6.536
 4208POPC   C3A56021  17.903  40.863   6.861
 4208POPC   C4A56022  18.010  40.905   7.276
 4208POPC   C1B56023  18.109  40.465   6.209
 4208POPC   C2B56024  17.973  40.384   6.637
 4208POPC   C3B56025  18.290  40.524   6.978
 4208POPC   C4B56026  18.618  40.456   7.301
 4209POPC   NC356027  19.522  20.550   5.034
 4209POPC   PO456028  20.009  20.476   5.518
 4209POPC   GL156029  19.672  20.612   5.799
 4209POPC   GL256030  19.492  20.279   5.846
 4209POPC   C1A56031  19.754  20.920   6.191
 4209POPC   D2A56032  20.137  20.868   6.478
 4209POPC   C3A56033  20.075  20.552   6.811
 4209POPC   C4A56034  19.977  20.640   7.239
 4209POPC   C1B56035  19.696  20.415   6.261
 4209POPC   C2B56036  19.612  20.673   6.638
 4209POPC   C3B56037  19.488  20.678   7.092
 4209POPC   C4B56038  19.554  20.476   7.506
 4210POPC   NC356039  31.732  32.472   5.409
 4210POPC   PO456040  31.359  31.973   5.495
 4210POPC   GL156041  31.609  32.168   5.805
 4210POPC   GL256042  31.951  32.126   5.728
 4210POPC   C1A56043  31.432  32.297   6.194
 4210POPC   D2A56044  31.244  32.446   6.577
 4210POPC   C3A56045  31.317  32.247   6.972
 4210POPC   C4A56046  31.550  31.933   7.187
 4210POPC   C1B56047  31.979  32.266   6.175
 4210POPC   C2B56048  31.770  32.205   6.576
 4210POPC   C3B56049  31.840  32.334   6.987
 4210POPC   C4B56050  31.953  32.193   7.358
 4211POPC   NC356051   4.636  37.934   5.530
 4211POPC   PO456052   3.990  37.698   5.512
 4211POPC   GL156053   4.301  37.710   5.863
 4211POPC   GL256054   4.664  37.611   5.928
 4211POPC   C1A56055   4.301  37.815   6.291
 4211POPC   D2A56056   3.970  37.791   6.553
 4211POPC   C3A56057   4.068  37.554   6.895
 4211POPC   C4A56058   4.241  37.438   7.249
 4211POPC   C1B56059   4.465  37.327   6.167
 4211POPC   C2B56060   4.433  37.372   6.591
 4211POPC   C3B56061   4.696  37.484   6.915
 4211POPC   C4B56062   4.717  37.363   7.315
 4212POPC   NC356063  19.011  35.823   5.727
 4212POPC   PO456064  18.962  35.191   5.446
 4212POPC   GL156065  19.130  35.127   5.869
 4212POPC   GL256066  19.200  35.448   6.050
 4212POPC   C1A56067  19.082  35.052   6.344
 4212POPC   D2A56068  18.909  35.029   6.755
 4212POPC   C3A56069  19.053  35.304   7.075
 4212POPC   C4A56070  19.434  35.517   7.116
 4212POPC   C1B56071  18.933  35.667   6.385
 4212POPC   C2B56072  18.965  35.757   6.836
 4212POPC   C3B56073  18.778  35.737   7.255
 4212POPC   C4B56074  18.741  35.845   7.722
 4213POPC   NC356075  27.454  42.436   5.248
 4213POPC   PO456076  28.087  42.612   5.277
 4213POPC   GL156077  27.775  42.553   5.650
 4213POPC   GL256078  27.417  42.357   5.731
 4213POPC   C1A56079  27.745  42.516   6.094
 4213POPC   D2A56080  27.820  42.182   6.359
 4213POPC   C3A56081  27.870  42.306   6.787
 4213POPC   C4A56082  27.648  42.396   7.207
 4213POPC   C1B56083  27.271  42.266   6.136
 4213POPC   C2B56084  27.410  42.440   6.497
 4213POPC   C3B56085  27.309  42.557   6.872
 4213POPC   C4B56086  27.139  42.307   7.211
 4214POPC   NC356087  14.739  15.957   5.077
 4214POPC   PO456088  15.270  15.952   5.547
 4214POPC   GL156089  15.431  15.912   5.944
 4214POPC   GL256090  15.632  15.637   5.985
 4214POPC   C1A56091  15.242  15.937   6.340
 4214POPC   D2A56092  14.891  16.088   6.566
 4214POPC   C3A56093  15.061  15.993   6.948
 4214POPC   C4A56094  15.128  16.219   7.282
 4214POPC   C1B56095  15.733  15.811   6.398
 4214POPC   C2B56096  15.494  15.752   6.777
 4214POPC   C3B56097  15.493  15.854   7.213
 4214POPC   C4B56098  15.416  16.018   7.642
 4215POPC   NC356099  22.181  28.750   5.424
 4215POPC   PO456100  22.434  28.091   5.410
 4215POPC   GL156101  22.202  28.286   5.786
 4215POPC   GL256102  21.979  28.588   5.881
 4215POPC   C1A56103  22.347  28.473   6.197
 4215POPC   D2A56104  22.118  28.609   6.560
 4215POPC   C3A56105  22.367  28.468   6.918
 4215POPC   C4A56106  22.505  28.574   7.323
 4215POPC   C1B56107  21.865  28.272   6.198
 4215POPC   C2B56108  21.700  28.164   6.602
 4215POPC   C3B56109  21.841  28.412   6.944
 4215POPC   C4B56110  22.032  28.386   7.326
 4216POPC   NC356111  24.325   7.045   5.375
 4216POPC   PO456112  24.645   7.563   5.251
 4216POPC   GL156113  24.625   7.375   5.746
 4216POPC   GL256114  24.373   7.172   5.855
 4216POPC   C1A56115  24.730   7.214   6.213
 4216POPC   D2A56116  24.514   7.352   6.662
 4216POPC   C3A56117  24.533   7.271   7.118
 4216POPC   C4A56118  24.431   7.518   7.477
 4216POPC   C1B56119  24.250   7.365   6.231
 4216POPC   C2B56120  23.973   7.251   6.540
 4216POPC   C3B56121  24.063   7.259   6.948
 4216POPC   C4B56122  24.111   7.123   7.396
 4217POPC   NC356123  12.747  22.571   5.122
 4217POPC   PO456124  12.984  22.046   5.083
 4217POPC   GL156125  13.019  21.993   5.620
 4217POPC   GL256126  12.738  22.102   5.831
 4217POPC   C1A56127  13.090  21.905   6.114
 4217POPC   D2A56128  12.823  21.888   6.513
 4217POPC   C3A56129  12.978  22.006   6.944
 4217POPC   C4A56130  13.147  21.952   7.364
 4217POPC   C1B56131  12.450  22.133   6.212
 4217POPC   C2B56132  12.283  22.219   6.652
 4217POPC   C3B56133  12.417  22.160   7.102
 4217POPC   C4B56134  12.723  22.187   7.446
 4218POPC   NC356135  28.570  42.565   5.186
 4218POPC   PO456136  28.622  41.984   5.561
 4218POPC   GL156137  28.358  42.332   5.698
 4218POPC   GL256138  28.461  42.648   5.672
 4218POPC   C1A56139  28.248  42.441   6.118
 4218POPC   D2A56140  28.324  42.180   6.459
 4218POPC   C3A56141  28.403  42.287   6.879
 4218POPC   C4A56142  28.138  42.402   7.204
 4218POPC   C1B56143  28.658  42.740   6.109
 4218POPC   C2B56144  28.577  42.632   6.536
 4218POPC   C3B56145  28.766  42.642   6.957
 4218POPC   C4B56146  28.619  42.535   7.368
 4219POPC   NC356147  11.951  42.923   5.445
 4219POPC   PO456148  12.365  43.340   5.220
 4219POPC   GL156149  12.183  43.340   5.670
 4219POPC   GL256150  12.296  43.022   5.833
 4219POPC   C1A56151  11.889  43.290   6.060
 4219POPC   D2A56152  11.811  43.089   6.479
 4219POPC   C3A56153  11.864  43.200   6.919
 4219POPC   C4A56154  12.262  43.189   7.163
 4219POPC   C1B56155  12.058  42.775   6.155
 4219POPC   C2B56156  11.944  42.607   6.592
 4219POPC   C3B56157  12.081  42.696   7.027
 4219POPC   C4B56158  12.050  42.841   7.462
 4220POPC   NC356159  13.059  11.612   5.373
 4220POPC   PO456160  12.758  12.213   5.318
 4220POPC   GL156161  12.815  12.070   5.744
 4220POPC   GL256162  12.528  11.859   5.730
 4220POPC   C1A56163  13.022  11.930   6.153
 4220POPC   D2A56164  13.063  11.716   6.607
 4220POPC   C3A56165  13.158  11.971   6.997
 4220POPC   C4A56166  12.980  12.195   7.385
 4220POPC   C1B56167  12.509  11.997   6.164
 4220POPC   C2B56168  12.621  11.998   6.583
 4220POPC   C3B56169  12.639  12.072   7.024
 4220POPC   C4B56170  12.477  12.082   7.462
 4221POPC   NC356171  24.105  30.176   5.304
 4221POPC   PO456172  24.808  30.025   5.434
 4221POPC   GL156173  24.570  30.103   5.804
 4221POPC   GL256174  24.229  30.136   5.790
 4221POPC   C1A56175  24.517  30.159   6.243
 4221POPC   D2A56176  24.684  30.322   6.633
 4221POPC   C3A56177  24.687  29.965   6.863
 4221POPC   C4A56178  24.769  29.897   7.250
 4221POPC   C1B56179  24.176  29.795   6.102
 4221POPC   C2B56180  24.054  29.915   6.536
 4221POPC   C3B56181  24.162  30.073   6.948
 4221POPC   C4B56182  24.289  29.781   7.254
 4222POPC   NC356183  10.626   6.894   5.071
 4222POPC   PO456184  10.303   6.373   5.438
 4222POPC   GL156185  10.576   6.573   5.788
 4222POPC   GL256186  10.651   6.947   5.764
 4222POPC   C1A56187  10.535   6.703   6.243
 4222POPC   D2A56188  10.496   6.667   6.697
 4222POPC   C3A56189  10.644   6.411   7.019
 4222POPC   C4A56190  10.371   6.702   7.239
 4222POPC   C1B56191  10.786   7.170   6.138
 4222POPC   C2B56192  10.820   7.049   6.581
 4222POPC   C3B56193  10.824   6.908   7.021
 4222POPC   C4B56194  10.815   6.916   7.479
 4223POPC   NC356195  20.826  38.126   5.548
 4223POPC   PO456196  20.606  38.808   5.434
 4223POPC   GL156197  20.579  38.561   5.809
 4223POPC   GL256198  20.919  38.588   5.838
 4223POPC   C1A56199  20.652  38.369   6.248
 4223POPC   D2A56200  20.729  38.063   6.620
 4223POPC   C3A56201  20.499  38.210   6.999
 4223POPC   C4A56202  20.484  38.333   7.429
 4223POPC   C1B56203  20.835  38.845   6.171
 4223POPC   C2B56204  20.799  38.900   6.623
 4223POPC   C3B56205  20.759  38.688   7.044
 4223POPC   C4B56206  20.893  38.618   7.521
 4224POPC   NC356207   6.642  19.541   4.939
 4224POPC   PO456208   6.456  19.264   5.325
 4224POPC   GL156209   6.399  19.183   5.788
 4224POPC   GL256210   6.564  18.870   5.848
 4224POPC   C1A56211   6.598  19.246   6.227
 4224POPC   D2A56212   6.602  19.074   6.680
 4224POPC   C3A56213   6.611  19.192   7.143
 4224POPC   C4A56214   6.389  18.911   7.470
 4224POPC   C1B56215   6.821  18.727   6.217
 4224POPC   C2B56216   7.007  18.611   6.628
 4224POPC   C3B56217   6.956  18.817   7.025
 4224POPC   C4B56218   7.153  19.113   7.300
 4225POPC   NC356219  30.716  23.140   5.533
 4225POPC   PO456220  30.432  22.515   5.474
 4225POPC   GL156221  30.635  22.719   5.799
 4225POPC   GL256222  30.960  22.706   5.729
 4225POPC   C1A56223  30.497  22.863   6.219
 4225POPC   D2A56224  30.285  22.879   6.643
 4225POPC   C3A56225  30.610  22.886   6.997
 4225POPC   C4A56226  30.721  23.241   7.307
 4225POPC   C1B56227  31.069  22.853   6.183
 4225POPC   C2B56228  31.122  23.085   6.593
 4225POPC   C3B56229  31.150  22.890   7.024
 4225POPC   C4B56230  30.933  22.801   7.421
 4226POPC   NC356231  30.557  20.504   5.231
 4226POPC   PO456232  31.187  20.707   5.229
 4226POPC   GL156233  31.011  20.628   5.724
 4226POPC   GL256234  30.675  20.431   5.806
 4226POPC   C1A56235  30.940  20.627   6.223
 4226POPC   D2A56236  30.740  20.881   6.558
 4226POPC   C3A56237  30.448  20.728   6.855
 4226POPC   C4A56238  30.645  20.525   7.172
 4226POPC   C1B56239  30.606  20.235   6.261
 4226POPC   C2B56240  30.734  20.206   6.730
 4226POPC   C3B56241  30.674  20.034   7.172
 4226POPC   C4B56242  30.401  20.160   7.553
 4227POPC   NC356243  29.504  33.112   5.449
 4227POPC   PO456244  29.984  32.742   5.122
 4227POPC   GL156245  29.874  32.763   5.619
 4227POPC   GL256246  29.520  32.797   5.844
 4227POPC   C1A56247  29.963  32.672   6.085
 4227POPC   D2A56248  30.001  32.818   6.571
 4227POPC   C3A56249  30.211  32.902   7.002
 4227POPC   C4A56250  30.075  33.183   7.393
 4227POPC   C1B56251  29.617  33.011   6.258
 4227POPC   C2B56252  29.566  33.064   6.719
 4227POPC   C3B56253  29.712  32.913   7.144
 4227POPC   C4B56254  29.649  32.982   7.620
 4228POPC   NC356255  39.759  36.922   5.005
 4228POPC   PO456256  40.293  37.080   5.341
 4228POPC   GL156257  40.239  37.100   5.785
 4228POPC   GL256258  40.496  37.323   5.842
 4228POPC   C1A56259  39.968  36.990   6.135
 4228POPC   D2A56260  39.888  36.653   6.422
 4228POPC   C3A56261  39.712  36.763   6.821
 4228POPC   C4A56262  39.738  36.729   7.268
 4228POPC   C1B56263  40.352  37.331   6.266
 4228POPC   C2B56264  40.201  37.076   6.627
 4228POPC   C3B56265  40.107  37.029   7.070
 4228POPC   C4B56266  40.193  36.880   7.480
 4229POPC   NC356267  13.642  18.641   5.379
 4229POPC   PO456268  13.925  18.066   5.657
 4229POPC   GL156269  13.698  18.382   5.817
 4229POPC   GL256270  13.990  18.610   5.733
 4229POPC   C1A56271  13.527  18.327   6.227
 4229POPC   D2A56272  13.258  18.358   6.581
 4229POPC   C3A56273  13.359  18.261   7.006
 4229POPC   C4A56274  13.697  18.227   7.285
 4229POPC   C1B56275  13.862  18.737   6.139
 4229POPC   C2B56276  13.926  18.467   6.487
 4229POPC   C3B56277  13.762  18.537   6.873
 4229POPC   C4B56278  13.955  18.665   7.226
 4230POPC   NC356279  19.101  37.422   5.409
 4230POPC   PO456280  19.088  37.947   5.127
 4230POPC   GL156281  19.035  37.814   5.702
 4230POPC   GL256282  18.847  37.489   5.846
 4230POPC   C1A56283  19.061  37.804   6.206
 4230POPC   D2A56284  18.909  37.804   6.680
 4230POPC   C3A56285  19.184  37.645   7.048
 4230POPC   C4A56286  19.289  37.859   7.424
 4230POPC   C1B56287  18.964  37.282   6.220
 4230POPC   C2B56288  19.050  37.307   6.670
 4230POPC   C3B56289  18.802  37.300   7.052
 4230POPC   C4B56290  18.763  37.142   7.481
 4231POPC   NC356291  30.624   1.061   5.430
 4231POPC   PO456292  30.495   1.742   5.549
 4231POPC   GL156293  30.577   1.393   5.853
 4231POPC   GL256294  30.846   1.141   5.875
 4231POPC   C1A56295  30.425   1.155   6.227
 4231POPC   D2A56296  30.311   1.254   6.680
 4231POPC   C3A56297  30.528   1.041   7.031
 4231POPC   C4A56298  30.770   0.699   7.249
 4231POPC   C1B56299  30.897   1.351   6.258
 4231POPC   C2B56300  30.848   1.099   6.616
 4231POPC   C3B56301  31.066   1.068   7.003
 4231POPC   C4B56302  31.131   1.043   7.444
 4232POPC   NC356303   5.551  21.331   5.473
 4232POPC   PO456304   6.063  21.815   5.489
 4232POPC   GL156305   5.897  21.582   5.804
 4232POPC   GL256306   5.578  21.707   5.821
 4232POPC   C1A56307   5.958  21.322   6.179
 4232POPC   D2A56308   6.188  21.141   6.537
 4232POPC   C3A56309   5.950  21.233   6.881
 4232POPC   C4A56310   5.920  21.320   7.291
 4232POPC   C1B56311   5.658  21.774   6.230
 4232POPC   C2B56312   5.554  21.751   6.634
 4232POPC   C3B56313   5.769  21.715   7.001
 4232POPC   C4B56314   5.528  21.639   7.330
 4233POPC   NC356315  11.365  20.304   5.326
 4233POPC   PO456316  11.003  20.857   5.449
 4233POPC   GL156317  11.348  20.686   5.754
 4233POPC   GL256318  11.587  20.395   5.753
 4233POPC   C1A56319  11.380  20.545   6.214
 4233POPC   D2A56320  11.338  20.617   6.672
 4233POPC   C3A56321  11.473  20.681   7.102
 4233POPC   C4A56322  11.251  20.649   7.536
 4233POPC   C1B56323  11.795  20.254   6.084
 4233POPC   C2B56324  11.722  20.234   6.518
 4233POPC   C3B56325  11.549  20.208   6.914
 4233POPC   C4B56326  11.652  20.202   7.338
 4234POPC   NC356327  39.872  26.587   5.357
 4234POPC   PO456328  39.375  26.945   5.333
 4234POPC   GL156329  39.651  26.920   5.725
 4234POPC   GL256330  40.016  26.864   5.785
 4234POPC   C1A56331  39.747  27.020   6.182
 4234POPC   D2A56332  39.659  27.131   6.624
 4234POPC   C3A56333  39.745  26.895   6.980
 4234POPC   C4A56334  39.985  26.955   7.364
 4234POPC   C1B56335  40.237  26.875   6.189
 4234POPC   C2B56336  40.179  27.058   6.575
 4234POPC   C3B56337  40.271  26.936   6.953
 4234POPC   C4B56338  40.467  26.820   7.324
 4235POPC   NC356339  12.961  24.153   5.457
 4235POPC   PO456340  12.548  24.598   5.184
 4235POPC   GL156341  12.541  24.507   5.631
 4235POPC   GL256342  12.488  24.833   5.779
 4235POPC   C1A56343  12.680  24.456   6.088
 4235POPC   D2A56344  12.733  24.238   6.499
 4235POPC   C3A56345  12.940  24.413   6.874
 4235POPC   C4A56346  12.806  24.260   7.274
 4235POPC   C1B56347  12.583  24.969   6.179
 4235POPC   C2B56348  12.874  24.823   6.498
 4235POPC   C3B56349  12.814  24.923   6.918
 4235POPC   C4B56350  12.870  24.755   7.309
 4236POPC   NC356351  18.207  25.159   5.293
 4236POPC   PO456352  18.656  25.615   5.521
 4236POPC   GL156353  18.369  25.381   5.789
 4236POPC   GL256354  18.021  25.389   5.720
 4236POPC   C1A56355  18.176  25.476   6.208
 4236POPC   D2A56356  18.354  25.244   6.556
 4236POPC   C3A56357  18.468  25.426   6.943
 4236POPC   C4A56358  18.416  25.243   7.334
 4236POPC   C1B56359  17.946  25.039   6.044
 4236POPC   C2B56360  17.880  25.049   6.512
 4236POPC   C3B56361  18.053  25.075   6.951
 4236POPC   C4B56362  17.893  25.150   7.369
 4237POPC   NC356363  23.441  24.116   5.528
 4237POPC   PO456364  23.848  24.481   5.056
 4237POPC   GL156365  23.684  24.574   5.564
 4237POPC   GL256366  23.377  24.551   5.805
 4237POPC   C1A56367  23.817  24.688   6.038
 4237POPC   D2A56368  23.886  24.472   6.465
 4237POPC   C3A56369  23.866  24.677   6.880
 4237POPC   C4A56370  23.596  24.577   7.236
 4237POPC   C1B56371  23.348  24.657   6.276
 4237POPC   C2B56372  23.373  24.492   6.725
 4237POPC   C3B56373  23.427  24.132   7.049
 4237POPC   C4B56374  23.568  24.148   7.496
 4238POPC   NC356375   7.667  38.099   5.274
 4238POPC   PO456376   7.230  38.522   5.474
 4238POPC   GL156377   7.529  38.479   5.822
 4238POPC   GL256378   7.690  38.164   5.805
 4238POPC   C1A56379   7.413  38.405   6.248
 4238POPC   D2A56380   7.087  38.227   6.524
 4238POPC   C3A56381   7.173  38.399   6.934
 4238POPC   C4A56382   7.570  38.628   6.974
 4238POPC   C1B56383   7.762  38.027   6.231
 4238POPC   C2B56384   7.579  38.102   6.637
 4238POPC   C3B56385   7.605  38.113   7.079
 4238POPC   C4B56386   7.697  38.081   7.523
 4239POPC   NC356387   3.006   8.320   5.582
 4239POPC   PO456388   2.570   7.829   5.558
 4239POPC   GL156389   2.655   8.107   5.891
 4239POPC   GL256390   2.894   8.371   6.062
 4239POPC   C1A56391   2.720   7.977   6.303
 4239POPC   D2A56392   2.884   8.169   6.629
 4239POPC   C3A56393   2.721   7.970   6.995
 4239POPC   C4A56394   2.613   8.039   7.427
 4239POPC   C1B56395   3.155   8.534   6.363
 4239POPC   C2B56396   3.162   8.544   6.812
 4239POPC   C3B56397   2.949   8.405   7.210
 4239POPC   C4B56398   3.025   8.562   7.647
 4240POPC   NC356399  44.911  34.878   5.534
 4240POPC   PO456400   0.607  34.728   5.433
 4240POPC   GL156401   0.495  34.628   5.802
 4240POPC   GL256402   0.690  34.354   5.858
 4240POPC   C1A56403   0.637  34.765   6.201
 4240POPC   D2A56404   0.677  34.661   6.632
 4240POPC   C3A56405   0.409  34.831   6.983
 4240POPC   C4A56406   0.667  34.603   7.266
 4240POPC   C1B56407   0.260  34.299   6.089
 4240POPC   C2B56408   0.097  34.388   6.508
 4240POPC   C3B56409   0.340  34.346   6.888
 4240POPC   C4B56410   0.198  34.316   7.299
 4241POPC   NC356411   7.720   5.710   5.425
 4241POPC   PO456412   7.224   6.282   5.329
 4241POPC   GL156413   7.459   6.070   5.707
 4241POPC   GL256414   7.352   5.697   5.783
 4241POPC   C1A56415   7.536   5.999   6.187
 4241POPC   D2A56416   7.379   5.849   6.617
 4241POPC   C3A56417   7.330   5.886   7.090
 4241POPC   C4A56418   7.097   5.649   7.464
 4241POPC   C1B56419   7.710   5.548   6.078
 4241POPC   C2B56420   7.885   5.734   6.465
 4241POPC   C3B56421   7.844   5.955   6.852
 4241POPC   C4B56422   7.812   5.683   7.167
 4242POPC   NC356423  32.765   9.730   5.474
 4242POPC   PO456424  33.157   9.255   5.240
 4242POPC   GL156425  33.269   9.644   5.600
 4242POPC   GL256426  33.108   9.892   5.791
 4242POPC   C1A56427  33.425   9.566   6.035
 4242POPC   D2A56428  33.154   9.468   6.372
 4242POPC   C3A56429  33.277   9.511   6.823
 4242POPC   C4A56430  33.189   9.682   7.245
 4242POPC   C1B56431  33.358  10.058   6.111
 4242POPC   C2B56432  33.407   9.920   6.522
 4242POPC   C3B56433  33.237  10.052   6.903
 4242POPC   C4B56434  33.120  10.204   7.292
 4243POPC   NC356435  39.676  10.880   5.555
 4243POPC   PO456436  40.407  10.770   5.513
 4243POPC   GL156437  40.108  10.769   5.836
 4243POPC   GL256438  39.838  10.521   5.889
 4243POPC   C1A56439  40.185  10.642   6.258
 4243POPC   D2A56440  40.309  10.825   6.651
 4243POPC   C3A56441  40.027  10.698   6.981
 4243POPC   C4A56442  40.048  10.630   7.428
 4243POPC   C1B56443  39.633  10.622   6.308
 4243POPC   C2B56444  39.580  10.511   6.773
 4243POPC   C3B56445  39.790  10.263   7.114
 4243POPC   C4B56446  39.792  10.206   7.565
 4244POPC   NC356447   0.810  15.145   5.490
 4244POPC   PO456448   0.214  15.341   5.456
 4244POPC   GL156449   0.398  15.093   5.857
 4244POPC   GL256450   0.770  15.048   5.988
 4244POPC   C1A56451   0.430  14.829   6.294
 4244POPC   D2A56452   0.662  14.967   6.718
 4244POPC   C3A56453   0.483  14.931   7.154
 4244POPC   C4A56454   0.072  14.896   7.412
 4244POPC   C1B56455   0.561  15.322   6.320
 4244POPC   C2B56456   0.455  15.543   6.724
 4244POPC   C3B56457   0.491  15.648   7.164
 4244POPC   C4B56458   0.644  15.321   7.469
 4245POPC   NC356459  33.056  20.142   5.352
 4245POPC   PO456460  33.095  19.508   5.372
 4245POPC   GL156461  33.149  19.688   5.764
 4245POPC   GL256462  33.295  20.045   5.800
 4245POPC   C1A56463  33.241  19.697   6.206
 4245POPC   D2A56464  33.028  19.895   6.557
 4245POPC   C3A56465  33.032  19.679   6.947
 4245POPC   C4A56466  32.705  19.670   7.278
 4245POPC   C1B56467  33.472  20.177   6.214
 4245POPC   C2B56468  33.507  20.014   6.641
 4245POPC   C3B56469  33.299  20.114   7.022
 4245POPC   C4B56470  33.329  20.380   7.361
 4246POPC   NC356471  40.672  44.183   5.041
 4246POPC   PO456472  40.679  43.866   5.612
 4246POPC   GL156473  40.831  43.946   5.966
 4246POPC   GL256474  40.986  43.617   5.961
 4246POPC   C1A56475  41.045  44.295   6.181
 4246POPC   D2A56476  40.890  44.276   6.597
 4246POPC   C3A56477  41.006  44.069   6.962
 4246POPC   C4A56478  40.835  44.120   7.328
 4246POPC   C1B56479  40.724  43.639   6.345
 4246POPC   C2B56480  40.886  43.625   6.749
 4246POPC   C3B56481  40.668  43.488   7.103
 4246POPC   C4B56482  40.696  43.597   7.513
 4247POPC   NC356483   5.057  32.752   5.363
 4247POPC   PO456484   5.303  33.369   5.271
 4247POPC   GL156485   5.235  33.073   5.724
 4247POPC   GL256486   5.271  32.698   5.819
 4247POPC   C1A56487   5.170  33.043   6.224
 4247POPC   D2A56488   5.237  33.038   6.716
 4247POPC   C3A56489   4.997  33.213   7.094
 4247POPC   C4A56490   5.251  33.344   7.471
 4247POPC   C1B56491   4.923  32.582   6.094
 4247POPC   C2B56492   4.827  32.733   6.517
 4247POPC   C3B56493   4.977  32.609   6.902
 4247POPC   C4B56494   5.225  32.786   7.200
 4248POPC   NC356495  21.468  31.375   5.174
 4248POPC   PO456496  21.891  31.215   5.638
 4248POPC   GL156497  21.587  31.472   5.824
 4248POPC   GL256498  21.312  31.432   5.659
 4248POPC   C1A56499  21.597  31.664   6.217
 4248POPC   D2A56500  21.458  31.412   6.561
 4248POPC   C3A56501  21.460  31.594   6.956
 4248POPC   C4A56502  21.446  31.344   7.317
 4248POPC   C1B56503  21.157  31.456   6.113
 4248POPC   C2B56504  20.977  31.540   6.525
 4248POPC   C3B56505  21.018  31.352   6.941
 4248POPC   C4B56506  20.978  31.569   7.304
 4249POPC   NC356507   6.100   8.597   5.164
 4249POPC   PO456508   5.816   9.262   5.336
 4249POPC   GL156509   5.994   9.050   5.724
 4249POPC   GL256510   6.229   9.235   5.842
 4249POPC   C1A56511   5.815   8.939   6.159
 4249POPC   D2A56512   5.604   8.814   6.553
 4249POPC   C3A56513   5.752   9.006   6.939
 4249POPC   C4A56514   5.677   8.765   7.315
 4249POPC   C1B56515   6.309   9.010   6.191
 4249POPC   C2B56516   6.143   8.857   6.593
 4249POPC   C3B56517   6.228   8.800   7.036
 4249POPC   C4B56518   6.071   9.080   7.378
 4250POPC   NC356519  42.228  27.742   5.380
 4250POPC   PO456520  41.922  27.191   5.688
 4250POPC   GL156521  42.180  27.522   5.859
 4250POPC   GL256522  42.445  27.743   5.836
 4250POPC   C1A56523  42.110  27.756   6.215
 4250POPC   D2A56524  41.954  27.542   6.577
 4250POPC   C3A56525  42.053  27.534   7.003
 4250POPC   C4A56526  42.472  27.453   7.204
 4250POPC   C1B56527  42.612  27.708   6.256
 4250POPC   C2B56528  42.455  27.664   6.685
 4250POPC   C3B56529  42.365  27.934   7.028
 4250POPC   C4B56530  42.661  28.103   7.288
 4251POPC   NC356531  38.625   1.901   5.364
 4251POPC   PO456532  38.459   2.471   5.547
 4251POPC   GL156533  38.322   2.160   5.865
 4251POPC   GL256534  38.425   1.830   5.843
 4251POPC   C1A56535  38.260   2.085   6.302
 4251POPC   D2A56536  38.500   2.024   6.644
 4251POPC   C3A56537  38.479   2.245   7.029
 4251POPC   C4A56538  38.522   2.114   7.459
 4251POPC   C1B56539  38.284   1.581   6.205
 4251POPC   C2B56540  38.375   1.505   6.645
 4251POPC   C3B56541  38.328   1.755   7.035
 4251POPC   C4B56542  38.119   1.815   7.403
 4252POPC   NC356543  37.256  24.756   5.532
 4252POPC   PO456544  36.731  24.248   5.527
 4252POPC   GL156545  36.757  24.393   5.919
 4252POPC   GL256546  36.841  24.741   5.874
 4252POPC   C1A56547  37.032  24.448   6.262
 4252POPC   D2A56548  37.203  24.652   6.604
 4252POPC   C3A56549  37.131  24.418   6.963
 4252POPC   C4A56550  36.770  24.179   7.098
 4252POPC   C1B56551  36.606  24.765   6.269
 4252POPC   C2B56552  36.688  24.575   6.691
 4252POPC   C3B56553  36.777  24.740   7.114
 4252POPC   C4B56554  36.781  24.838   7.562
 4253POPC   NC356555  31.553   2.311   5.498
 4253POPC   PO456556  31.333   2.950   5.351
 4253POPC   GL156557  31.325   2.696   5.736
 4253POPC   GL256558  31.642   2.636   5.891
 4253POPC   C1A56559  31.203   2.573   6.139
 4253POPC   D2A56560  31.248   2.737   6.551
 4253POPC   C3A56561  31.173   2.512   6.916
 4253POPC   C4A56562  31.127   2.475   7.335
 4253POPC   C1B56563  31.733   2.822   6.293
 4253POPC   C2B56564  31.618   3.114   6.643
 4253POPC   C3B56565  31.442   2.970   7.033
 4253POPC   C4B56566  31.612   2.554   7.177
 4254POPC   NC356567  19.357  42.185   5.531
 4254POPC   PO456568  18.666  42.296   5.600
 4254POPC   GL156569  18.981  42.348   5.819
 4254POPC   GL256570  19.135  42.640   5.635
 4254POPC   C1A56571  19.154  42.214   6.217
 4254POPC   D2A56572  19.372  42.432   6.554
 4254POPC   C3A56573  19.213  42.269   6.939
 4254POPC   C4A56574  19.017  42.184   7.371
 4254POPC   C1B56575  19.126  42.724   6.102
 4254POPC   C2B56576  19.155  42.917   6.489
 4254POPC   C3B56577  19.245  42.819   6.915
 4254POPC   C4B56578  19.006  42.663   7.248
 4255POPC   NC356579   9.625   1.707   5.467
 4255POPC   PO456580   9.928   2.216   5.197
 4255POPC   GL156581   9.940   2.102   5.625
 4255POPC   GL256582   9.582   2.163   5.650
 4255POPC   C1A56583  10.013   2.014   6.097
 4255POPC   D2A56584   9.760   2.022   6.507
 4255POPC   C3A56585   9.904   1.892   6.920
 4255POPC   C4A56586   9.895   1.646   7.300
 4255POPC   C1B56587   9.515   2.176   6.072
 4255POPC   C2B56588   9.484   2.454   6.400
 4255POPC   C3B56589   9.579   2.407   6.831
 4255POPC   C4B56590   9.523   2.101   7.192
 4256POPC   NC356591  44.021   7.558   5.369
 4256POPC   PO456592  44.295   6.941   5.567
 4256POPC   GL156593  44.020   7.274   5.792
 4256POPC   GL256594  44.121   7.622   5.843
 4256POPC   C1A56595  43.816   7.386   6.197
 4256POPC   D2A56596  43.663   7.478   6.618
 4256POPC   C3A56597  43.888   7.325   6.969
 4256POPC   C4A56598  43.805   7.118   7.346
 4256POPC   C1B56599  44.236   7.685   6.226
 4256POPC   C2B56600  44.025   7.829   6.622
 4256POPC   C3B56601  43.820   7.825   7.003
 4256POPC   C4B56602  43.620   7.625   7.356
 4257POPC   NC356603  12.912  21.309   5.392
 4257POPC   PO456604  13.498  21.616   5.580
 4257POPC   GL156605  13.142  21.469   5.839
 4257POPC   GL256606  12.804  21.576   5.832
 4257POPC   C1A56607  12.985  21.438   6.293
 4257POPC   D2A56608  13.196  21.279   6.672
 4257POPC   C3A56609  13.045  21.410   7.071
 4257POPC   C4A56610  13.045  21.421   7.527
 4257POPC   C1B56611  12.507  21.625   6.167
 4257POPC   C2B56612  12.318  21.703   6.554
 4257POPC   C3B56613  12.589  21.588   6.873
 4257POPC   C4B56614  12.683  21.709   7.267
 4258POPC   NC356615  25.784   9.070   5.298
 4258POPC   PO456616  26.297   9.205   5.605
 4258POPC   GL156617  26.081   8.988   5.914
 4258POPC   GL256618  25.851   8.685   5.807
 4258POPC   C1A56619  26.205   9.062   6.362
 4258POPC   D2A56620  26.430   9.322   6.682
 4258POPC   C3A56621  26.279   9.240   7.087
 4258POPC   C4A56622  25.840   9.225   7.173
 4258POPC   C1B56623  26.071   8.568   6.219
 4258POPC   C2B56624  26.212   8.652   6.681
 4258POPC   C3B56625  26.119   8.720   7.150
 4258POPC   C4B56626  26.416   8.761   7.520
 4259POPC   NC356627  20.002  16.720   5.319
 4259POPC   PO456628  20.425  17.221   5.496
 4259POPC   GL156629  20.023  16.984   5.731
 4259POPC   GL256630  19.719  16.718   5.745
 4259POPC   C1A56631  20.090  16.594   6.053
 4259POPC   D2A56632  19.917  16.818   6.422
 4259POPC   C3A56633  19.926  16.748   6.870
 4259POPC   C4A56634  20.179  16.614   7.232
 4259POPC   C1B56635  19.603  16.493   6.137
 4259POPC   C2B56636  19.484  16.588   6.559
 4259POPC   C3B56637  19.498  16.467   6.977
 4259POPC   C4B56638  19.522  16.609   7.373
 4260POPC   NC356639  28.673  19.281   5.452
 4260POPC   PO456640  28.222  18.758   5.441
 4260POPC   GL156641  28.307  18.974   5.815
 4260POPC   GL256642  28.634  18.927   5.806
 4260POPC   C1A56643  28.384  19.205   6.202
 4260POPC   D2A56644  28.582  19.413   6.518
 4260POPC   C3A56645  28.404  19.228   6.867
 4260POPC   C4A56646  28.411  19.456   7.225
 4260POPC   C1B56647  28.624  18.755   6.191
 4260POPC   C2B56648  28.738  18.911   6.560
 4260POPC   C3B56649  28.659  18.776   6.933
 4260POPC   C4B56650  28.529  18.962   7.319
 4261POPC   NC356651  35.497  23.506   5.475
 4261POPC   PO456652  35.220  24.099   5.176
 4261POPC   GL156653  35.195  23.966   5.626
 4261POPC   GL256654  35.531  24.050   5.783
 4261POPC   C1A56655  35.068  23.717   6.024
 4261POPC   D2A56656  35.279  23.488   6.415
 4261POPC   C3A56657  35.209  23.559   6.893
 4261POPC   C4A56658  35.056  23.654   7.333
 4261POPC   C1B56659  35.472  23.937   6.229
 4261POPC   C2B56660  35.347  24.041   6.657
 4261POPC   C3B56661  35.485  23.978   7.061
 4261POPC   C4B56662  35.499  23.860   7.464
 4262POPC   NC356663  11.202   5.554   5.533
 4262POPC   PO456664  11.099   6.095   5.975
 4262POPC   GL156665  11.213   5.668   6.052
 4262POPC   GL256666  11.551   5.630   5.936
 4262POPC   C1A56667  11.129   5.592   6.479
 4262POPC   D2A56668  10.938   5.978   6.702
 4262POPC   C3A56669  11.112   6.030   7.104
 4262POPC   C4A56670  11.465   5.734   7.169
 4262POPC   C1B56671  11.710   5.918   6.261
 4262POPC   C2B56672  11.692   6.282   6.569
 4262POPC   C3B56673  11.585   6.228   7.015
 4262POPC   C4B56674  11.543   6.169   7.459
 4263POPC   NC356675  37.626  37.956   5.538
 4263POPC   PO456676  37.644  37.255   5.701
 4263POPC   GL156677  37.454  37.640   5.900
 4263POPC   GL256678  37.707  37.919   6.030
 4263POPC   C1A56679  37.225  37.921   6.194
 4263POPC   D2A56680  37.312  38.120   6.610
 4263POPC   C3A56681  37.465  37.795   6.940
 4263POPC   C4A56682  37.848  37.725   7.197
 4263POPC   C1B56683  37.678  37.624   6.359
 4263POPC   C2B56684  37.835  37.470   6.744
 4263POPC   C3B56685  37.871  37.230   7.112
 4263POPC   C4B56686  37.776  37.155   7.519
 4264POPC   NC356687   1.483  15.604   5.261
 4264POPC   PO456688   1.480  14.921   5.295
 4264POPC   GL156689   1.450  15.019   5.731
 4264POPC   GL256690   1.221  15.278   5.745
 4264POPC   C1A56691   1.423  15.133   6.182
 4264POPC   D2A56692   1.092  15.030   6.454
 4264POPC   C3A56693   1.188  15.016   6.891
 4264POPC   C4A56694   1.317  15.195   7.319
 4264POPC   C1B56695   1.053  15.473   6.142
 4264POPC   C2B56696   0.974  15.496   6.600
 4264POPC   C3B56697   0.887  15.385   7.025
 4264POPC   C4B56698   1.005  15.670   7.372
 4265POPC   NC356699  37.752  39.565   5.571
 4265POPC   PO456700  37.768  38.832   5.530
 4265POPC   GL156701  37.749  38.979   5.913
 4265POPC   GL256702  37.502  39.236   5.912
 4265POPC   C1A56703  37.846  39.005   6.338
 4265POPC   D2A56704  37.817  39.253   6.716
 4265POPC   C3A56705  37.921  39.166   7.127
 4265POPC   C4A56706  37.934  39.444   7.488
 4265POPC   C1B56707  37.584  39.462   6.308
 4265POPC   C2B56708  37.348  39.482   6.694
 4265POPC   C3B56709  37.403  39.346   7.106
 4265POPC   C4B56710  37.313  39.728   7.300
 4266POPC   NC356711  31.791  43.501   5.361
 4266POPC   PO456712  31.180  43.124   5.410
 4266POPC   GL156713  31.456  43.102   5.748
 4266POPC   GL256714  31.672  42.798   5.697
 4266POPC   C1A56715  31.385  43.286   6.199
 4266POPC   D2A56716  31.118  43.469   6.576
 4266POPC   C3A56717  31.267  43.386   7.034
 4266POPC   C4A56718  31.695  43.361   7.189
 4266POPC   C1B56719  31.575  42.808   6.136
 4266POPC   C2B56720  31.491  42.884   6.555
 4266POPC   C3B56721  31.403  42.718   6.982
 4266POPC   C4B56722  31.512  42.917   7.307
 4267POPC   NC356723  11.926  23.494   5.358
 4267POPC   PO456724  12.594  23.720   5.370
 4267POPC   GL156725  12.210  23.856   5.633
 4267POPC   GL256726  11.817  23.888   5.701
 4267POPC   C1A56727  12.161  23.938   6.080
 4267POPC   D2A56728  12.370  23.723   6.412
 4267POPC   C3A56729  12.465  23.913   6.815
 4267POPC   C4A56730  12.178  23.865   7.149
 4267POPC   C1B56731  11.648  23.834   6.140
 4267POPC   C2B56732  11.821  23.773   6.556
 4267POPC   C3B56733  11.802  23.563   6.955
 4267POPC   C4B56734  11.984  23.445   7.370
 4268POPC   NC356735  37.735  23.140   5.370
 4268POPC   PO456736  37.451  22.591   5.512
 4268POPC   GL156737  37.616  22.895   5.808
 4268POPC   GL256738  37.460  23.240   5.810
 4268POPC   C1A56739  37.841  22.833   6.193
 4268POPC   D2A56740  37.684  22.667   6.570
 4268POPC   C3A56741  37.869  22.578   6.963
 4268POPC   C4A56742  37.715  22.709   7.341
 4268POPC   C1B56743  37.597  23.284   6.260
 4268POPC   C2B56744  37.676  23.177   6.714
 4268POPC   C3B56745  37.701  23.186   7.175
 4268POPC   C4B56746  37.537  23.104   7.608
 4269POPC   NC356747  38.789  15.916   4.777
 4269POPC   PO456748  38.308  15.907   5.264
 4269POPC   GL156749  38.497  15.958   5.670
 4269POPC   GL256750  38.355  16.283   5.810
 4269POPC   C1A56751  38.586  15.921   6.095
 4269POPC   D2A56752  38.317  16.051   6.415
 4269POPC   C3A56753  38.422  15.841   6.772
 4269POPC   C4A56754  38.816  15.831   7.015
 4269POPC   C1B56755  37.991  16.322   6.087
 4269POPC   C2B56756  37.929  16.360   6.531
 4269POPC   C3B56757  38.244  16.359   6.866
 4269POPC   C4B56758  38.402  16.086   7.213
 4270POPC   NC356759  41.395  22.604   5.400
 4270POPC   PO456760  41.697  23.136   5.487
 4270POPC   GL156761  41.504  22.902   5.820
 4270POPC   GL256762  41.768  22.998   6.004
 4270POPC   C1A56763  41.281  22.985   6.215
 4270POPC   D2A56764  41.211  23.160   6.622
 4270POPC   C3A56765  41.533  23.064   6.903
 4270POPC   C4A56766  41.523  22.869   7.302
 4270POPC   C1B56767  41.820  22.861   6.427
 4270POPC   C2B56768  42.035  23.020   6.772
 4270POPC   C3B56769  42.029  22.981   7.220
 4270POPC   C4B56770  41.918  23.023   7.662
 4271POPC   NC356771   3.806  30.429   5.502
 4271POPC   PO456772   3.657  31.026   5.394
 4271POPC   GL156773   3.534  30.853   5.760
 4271POPC   GL256774   3.846  30.766   5.906
 4271POPC   C1A56775   3.451  30.668   6.200
 4271POPC   D2A56776   3.528  30.849   6.622
 4271POPC   C3A56777   3.737  30.681   6.995
 4271POPC   C4A56778   3.637  30.358   7.335
 4271POPC   C1B56779   3.673  31.125   6.182
 4271POPC   C2B56780   3.697  31.319   6.571
 4271POPC   C3B56781   3.597  31.187   7.015
 4271POPC   C4B56782   3.655  31.019   7.447
 4272POPC   NC356783  28.051  41.292   5.525
 4272POPC   PO456784  28.567  40.755   5.288
 4272POPC   GL156785  28.366  40.754   5.721
 4272POPC   GL256786  28.324  41.087   5.873
 4272POPC   C1A56787  28.377  40.742   6.206
 4272POPC   D2A56788  28.412  40.912   6.607
 4272POPC   C3A56789  28.514  40.612   6.887
 4272POPC   C4A56790  28.575  40.466   7.290
 4272POPC   C1B56791  28.406  41.301   6.268
 4272POPC   C2B56792  28.708  41.329   6.610
 4272POPC   C3B56793  28.682  41.112   7.031
 4272POPC   C4B56794  28.363  40.949   7.235
 4273POPC   NC356795  21.931   7.214   5.131
 4273POPC   PO456796  22.408   7.675   5.439
 4273POPC   GL156797  22.155   7.501   5.773
 4273POPC   GL256798  21.967   7.170   5.676
 4273POPC   C1A56799  22.287   7.550   6.218
 4273POPC   D2A56800  22.048   7.558   6.593
 4273POPC   C3A56801  22.247   7.698   6.971
 4273POPC   C4A56802  22.361   7.360   7.230
 4273POPC   C1B56803  21.870   7.235   6.133
 4273POPC   C2B56804  21.902   7.075   6.563
 4273POPC   C3B56805  21.829   7.262   7.001
 4273POPC   C4B56806  21.762   7.334   7.463
 4274POPC   NC356807  12.253  39.974   5.468
 4274POPC   PO456808  12.845  39.833   5.497
 4274POPC   GL156809  12.655  40.117   5.800
 4274POPC   GL256810  12.452  39.868   5.968
 4274POPC   C1A56811  12.592  40.299   6.231
 4274POPC   D2A56812  12.491  40.507   6.632
 4274POPC   C3A56813  12.742  40.320   6.975
 4274POPC   C4A56814  12.745  40.057   7.350
 4274POPC   C1B56815  12.817  39.819   6.295
 4274POPC   C2B56816  12.909  39.845   6.771
 4274POPC   C3B56817  12.804  39.592   7.159
 4274POPC   C4B56818  12.848  39.602   7.649
 4275POPC   NC356819  19.412  21.956   5.564
 4275POPC   PO456820  18.876  22.031   5.206
 4275POPC   GL156821  18.948  22.155   5.719
 4275POPC   GL256822  19.073  22.444   5.838
 4275POPC   C1A56823  19.190  22.072   6.154
 4275POPC   D2A56824  19.466  21.907   6.474
 4275POPC   C3A56825  19.197  21.861   6.825
 4275POPC   C4A56826  19.071  22.001   7.232
 4275POPC   C1B56827  18.737  22.383   6.126
 4275POPC   C2B56828  18.766  22.505   6.543
 4275POPC   C3B56829  18.774  22.269   6.891
 4275POPC   C4B56830  18.662  22.412   7.252
 4276POPC   NC356831  39.668  27.565   5.404
 4276POPC   PO456832  40.279  27.359   5.420
 4276POPC   GL156833  40.001  27.383   5.786
 4276POPC   GL256834  39.919  27.709   5.847
 4276POPC   C1A56835  40.139  27.419   6.223
 4276POPC   D2A56836  40.022  27.549   6.664
 4276POPC   C3A56837  40.265  27.478   7.056
 4276POPC   C4A56838  40.354  27.274   7.487
 4276POPC   C1B56839  39.761  28.023   6.134
 4276POPC   C2B56840  39.629  28.115   6.544
 4276POPC   C3B56841  39.745  27.979   6.975
 4276POPC   C4B56842  40.008  27.857   7.295
 4277POPC   NC356843  19.607  30.964   5.354
 4277POPC   PO456844  19.744  30.356   5.364
 4277POPC   GL156845  19.728  30.717   5.768
 4277POPC   GL256846  20.036  30.771   5.960
 4277POPC   C1A56847  19.613  30.909   6.216
 4277POPC   D2A56848  19.785  31.023   6.668
 4277POPC   C3A56849  19.718  30.721   7.039
 4277POPC   C4A56850  19.533  30.691   7.472
 4277POPC   C1B56851  19.966  30.574   6.378
 4277POPC   C2B56852  19.819  30.231   6.643
 4277POPC   C3B56853  19.795  30.157   7.079
 4277POPC   C4B56854  19.951  30.410   7.436
 4278POPC   NC356855  16.012  27.104   5.518
 4278POPC   PO456856  15.806  27.712   5.230
 4278POPC   GL156857  15.805  27.560   5.712
 4278POPC   GL256858  15.713  27.189   5.914
 4278POPC   C1A56859  16.075  27.507   6.082
 4278POPC   D2A56860  16.014  27.318   6.483
 4278POPC   C3A56861  16.162  27.534   6.838
 4278POPC   C4A56862  16.173  27.501   7.249
 4278POPC   C1B56863  15.481  27.186   6.329
 4278POPC   C2B56864  15.549  27.425   6.696
 4278POPC   C3B56865  15.723  27.379   7.077
 4278POPC   C4B56866  15.768  27.302   7.507
 4279POPC   NC356867   8.190  10.953   5.406
 4279POPC   PO456868   7.787  11.514   5.290
 4279POPC   GL156869   7.933  11.275   5.712
 4279POPC   GL256870   8.299  11.159   5.866
 4279POPC   C1A56871   7.891  11.171   6.164
 4279POPC   D2A56872   8.257  11.198   6.449
 4279POPC   C3A56873   8.161  11.360   6.843
 4279POPC   C4A56874   8.045  11.273   7.251
 4279POPC   C1B56875   8.564  10.891   6.163
 4279POPC   C2B56876   8.515  10.781   6.622
 4279POPC   C3B56877   8.422  10.967   7.039
 4279POPC   C4B56878   8.547  11.301   7.375
 4280POPC   NC356879  22.602  26.052   5.384
 4280POPC   PO456880  21.980  25.818   5.337
 4280POPC   GL156881  21.951  25.872   5.764
 4280POPC   GL256882  22.210  26.036   5.765
 4280POPC   C1A56883  22.213  25.742   6.165
 4280POPC   D2A56884  22.261  26.001   6.553
 4280POPC   C3A56885  21.947  26.003   6.875
 4280POPC   C4A56886  22.102  25.842   7.262
 4280POPC   C1B56887  21.972  26.203   6.178
 4280POPC   C2B56888  21.990  26.431   6.604
 4280POPC   C3B56889  22.201  26.412   7.030
 4280POPC   C4B56890  22.130  26.299   7.462
 4281POPC   NC356891  41.777  23.591   5.509
 4281POPC   PO456892  41.240  23.974   5.470
 4281POPC   GL156893  41.482  23.832   5.837
 4281POPC   GL256894  41.450  23.443   5.912
 4281POPC   C1A56895  41.557  23.828   6.273
 4281POPC   D2A56896  41.385  23.658   6.633
 4281POPC   C3A56897  41.603  23.859   6.949
 4281POPC   C4A56898  41.734  23.842   7.369
 4281POPC   C1B56899  41.642  23.338   6.335
 4281POPC   C2B56900  41.913  23.537   6.633
 4281POPC   C3B56901  41.848  23.433   7.041
 4281POPC   C4B56902  41.629  23.344   7.383
 4282POPC   NC356903  19.263  32.541   5.427
 4282POPC   PO456904  18.585  32.290   5.306
 4282POPC   GL156905  18.848  32.149   5.719
 4282POPC   GL256906  19.141  32.249   5.848
 4282POPC   C1A56907  18.729  32.172   6.190
 4282POPC   D2A56908  18.727  32.389   6.582
 4282POPC   C3A56909  18.736  32.154   6.989
 4282POPC   C4A56910  18.944  32.159   7.441
 4282POPC   C1B56911  19.136  32.474   6.234
 4282POPC   C2B56912  19.236  32.622   6.604
 4282POPC   C3B56913  19.054  32.557   6.953
 4282POPC   C4B56914  19.316  32.444   7.233
 4283POPC   NC356915   3.653  37.005   5.031
 4283POPC   PO456916   3.980  36.698   5.546
 4283POPC   GL156917   3.669  36.765   5.830
 4283POPC   GL256918   3.428  37.015   5.682
 4283POPC   C1A56919   3.788  36.795   6.262
 4283POPC   D2A56920   3.907  36.647   6.651
 4283POPC   C3A56921   3.558  36.798   6.883
 4283POPC   C4A56922   3.457  36.675   7.265
 4283POPC   C1B56923   3.490  37.196   6.108
 4283POPC   C2B56924   3.315  37.217   6.544
 4283POPC   C3B56925   3.415  37.294   6.992
 4283POPC   C4B56926   3.479  37.150   7.439
 4284POPC   NC356927  36.605  15.244   5.113
 4284POPC   PO456928  37.016  14.904   5.456
 4284POPC   GL156929  37.091  15.191   5.796
 4284POPC   GL256930  36.863  15.494   5.724
 4284POPC   C1A56931  37.091  15.094   6.243
 4284POPC   D2A56932  37.297  15.109   6.655
 4284POPC   C3A56933  36.975  15.110   7.021
 4284POPC   C4A56934  36.881  14.899   7.404
 4284POPC   C1B56935  37.025  15.605   6.145
 4284POPC   C2B56936  36.912  15.461   6.569
 4284POPC   C3B56937  36.953  15.604   6.967
 4284POPC   C4B56938  36.754  15.502   7.297
 4285POPC   NC356939  29.324  28.741   5.227
 4285POPC   PO456940  28.871  29.009   5.421
 4285POPC   GL156941  28.883  29.204   5.861
 4285POPC   GL256942  28.633  29.453   5.946
 4285POPC   C1A56943  29.051  29.150   6.290
 4285POPC   D2A56944  29.314  29.110   6.671
 4285POPC   C3A56945  29.149  29.178   7.087
 4285POPC   C4A56946  29.320  29.287   7.499
 4285POPC   C1B56947  28.888  29.629   6.287
 4285POPC   C2B56948  29.018  29.533   6.714
 4285POPC   C3B56949  28.939  29.636   7.157
 4285POPC   C4B56950  29.067  29.731   7.587
 4286POPC   NC356951  36.189  17.462   5.484
 4286POPC   PO456952  35.923  17.966   5.238
 4286POPC   GL156953  35.854  17.794   5.733
 4286POPC   GL256954  35.913  17.445   5.906
 4286POPC   C1A56955  35.972  17.816   6.216
 4286POPC   D2A56956  36.346  17.876   6.481
 4286POPC   C3A56957  36.276  17.804   6.909
 4286POPC   C4A56958  36.224  17.690   7.350
 4286POPC   C1B56959  35.880  17.262   6.290
 4286POPC   C2B56960  35.970  17.462   6.664
 4286POPC   C3B56961  36.094  17.303   7.075
 4286POPC   C4B56962  35.823  17.356   7.440
 4287POPC   NC356963  20.057  15.782   5.488
 4287POPC   PO456964  19.769  16.333   5.354
 4287POPC   GL156965  19.529  16.125   5.699
 4287POPC   GL256966  19.842  16.131   5.828
 4287POPC   C1A56967  19.445  16.005   6.162
 4287POPC   D2A56968  19.596  16.091   6.597
 4287POPC   C3A56969  19.522  15.953   7.037
 4287POPC   C4A56970  19.628  15.804   7.481
 4287POPC   C1B56971  19.961  16.107   6.216
 4287POPC   C2B56972  20.058  16.340   6.556
 4287POPC   C3B56973  19.966  16.234   6.951
 4287POPC   C4B56974  19.866  16.230   7.362
 4288POPC   NC356975  34.909  33.917   5.367
 4288POPC   PO456976  34.231  33.613   5.277
 4288POPC   GL156977  34.519  33.670   5.591
 4288POPC   GL256978  34.438  33.974   5.675
 4288POPC   C1A56979  34.534  33.648   6.059
 4288POPC   D2A56980  34.444  33.600   6.498
 4288POPC   C3A56981  34.706  33.681   6.849
 4288POPC   C4A56982  34.520  33.659   7.287
 4288POPC   C1B56983  34.464  34.140   6.104
 4288POPC   C2B56984  34.474  34.103   6.555
 4288POPC   C3B56985  34.283  33.969   6.941
 4288POPC   C4B56986  34.231  34.208   7.332
 4289POPC   NC356987  16.515  40.085   5.615
 4289POPC   PO456988  16.940  39.556   5.431
 4289POPC   GL156989  16.945  39.736   5.828
 4289POPC   GL256990  16.892  40.061   5.989
 4289POPC   C1A56991  16.917  39.584   6.230
 4289POPC   D2A56992  17.137  39.705   6.610
 4289POPC   C3A56993  16.934  39.949   6.933
 4289POPC   C4A56994  16.664  39.753   7.261
 4289POPC   C1B56995  16.782  40.036   6.404
 4289POPC   C2B56996  16.531  39.734   6.631
 4289POPC   C3B56997  16.357  39.983   6.937
 4289POPC   C4B56998  16.612  40.260   7.241
 4290POPC   NC356999  40.187  34.049   5.462
 4290POPC   PO457000  39.638  33.698   5.624
 4290POPC   GL157001  39.897  33.860   5.938
 4290POPC   GL257002  40.256  33.798   5.929
 4290POPC   C1A57003  39.941  33.667   6.340
 4290POPC   D2A57004  39.851  33.778   6.759
 4290POPC   C3A57005  39.776  33.494   7.076
 4290POPC   C4A57006  40.061  33.335   7.383
 4290POPC   C1B57007  40.206  34.117   6.280
 4290POPC   C2B57008  40.196  34.140   6.752
 4290POPC   C3B57009  40.215  33.800   7.122
 4290POPC   C4B57010  40.350  33.726   7.569
 4291POPC   NC357011  35.420  29.189   5.197
 4291POPC   PO457012  35.388  29.793   5.300
 4291POPC   GL157013  35.296  29.968   5.696
 4291POPC   GL257014  35.544  30.174   5.820
 4291POPC   C1A57015  35.330  29.784   6.111
 4291POPC   D2A57016  35.201  29.989   6.500
 4291POPC   C3A57017  35.323  29.853   6.907
 4291POPC   C4A57018  35.086  29.635   7.215
 4291POPC   C1B57019  35.573  30.208   6.226
 4291POPC   C2B57020  35.690  30.105   6.594
 4291POPC   C3B57021  35.543  30.317   6.903
 4291POPC   C4B57022  35.604  30.118   7.257
 4292POPC   NC357023   9.906  27.014   5.462
 4292POPC   PO457024   9.331  26.698   5.459
 4292POPC   GL157025   9.577  26.788   5.814
 4292POPC   GL257026   9.947  26.725   5.858
 4292POPC   C1A57027   9.618  26.742   6.231
 4292POPC   D2A57028   9.577  27.068   6.489
 4292POPC   C3A57029   9.605  26.934   6.890
 4292POPC   C4A57030   9.720  26.775   7.263
 4292POPC   C1B57031  10.021  27.028   6.179
 4292POPC   C2B57032  10.021  26.823   6.578
 4292POPC   C3B57033  10.154  26.954   7.000
 4292POPC   C4B57034  10.252  26.722   7.372
 4293POPC   NC357035   3.393  32.323   5.090
 4293POPC   PO457036   3.702  32.857   5.340
 4293POPC   GL157037   3.709  32.517   5.623
 4293POPC   GL257038   3.378  32.327   5.670
 4293POPC   C1A57039   3.767  32.432   6.056
 4293POPC   D2A57040   3.610  32.120   6.316
 4293POPC   C3A57041   3.615  32.147   6.746
 4293POPC   C4A57042   3.637  32.121   7.183
 4293POPC   C1B57043   3.249  32.462   6.096
 4293POPC   C2B57044   3.396  32.566   6.519
 4293POPC   C3B57045   3.264  32.453   6.967
 4293POPC   C4B57046   3.291  32.787   7.267
 4294POPC   NC357047  36.261  22.284   5.377
 4294POPC   PO457048  35.966  21.644   5.503
 4294POPC   GL157049  36.177  21.926   5.835
 4294POPC   GL257050  36.118  22.300   5.867
 4294POPC   C1A57051  35.998  22.011   6.269
 4294POPC   D2A57052  35.814  21.901   6.631
 4294POPC   C3A57053  35.899  22.120   6.974
 4294POPC   C4A57054  36.045  21.985   7.387
 4294POPC   C1B57055  36.441  22.225   6.212
 4294POPC   C2B57056  36.368  22.240   6.655
 4294POPC   C3B57057  36.373  22.232   7.098
 4294POPC   C4B57058  36.358  22.357   7.548
 4295POPC   NC357059   8.334   3.154   5.636
 4295POPC   PO457060   8.425   2.522   5.566
 4295POPC   GL157061   8.197   2.609   5.930
 4295POPC   GL257062   7.876   2.782   5.857
 4295POPC   C1A57063   8.201   2.934   6.243
 4295POPC   D2A57064   8.259   3.076   6.646
 4295POPC   C3A57065   8.200   2.698   6.839
 4295POPC   C4A57066   8.255   2.647   7.246
 4295POPC   C1B57067   7.713   3.098   6.145
 4295POPC   C2B57068   7.731   3.075   6.594
 4295POPC   C3B57069   7.883   3.052   7.043
 4295POPC   C4B57070   7.844   2.904   7.463
 4296POPC   NC357071  11.073   1.825   4.939
 4296POPC   PO457072  11.363   1.619   5.515
 4296POPC   GL157073  11.317   1.983   5.783
 4296POPC   GL257074  10.964   1.995   5.926
 4296POPC   C1A57075  11.388   2.022   6.241
 4296POPC   D2A57076  11.230   1.713   6.562
 4296POPC   C3A57077  11.310   1.730   7.000
 4296POPC   C4A57078  11.489   2.011   7.258
 4296POPC   C1B57079  10.941   2.246   6.288
 4296POPC   C2B57080  11.077   2.187   6.720
 4296POPC   C3B57081  10.876   2.127   7.114
 4296POPC   C4B57082  11.032   1.965   7.473
 4297POPC   NC357083  36.322  43.544   5.450
 4297POPC   PO457084  36.102  44.136   5.560
 4297POPC   GL157085  36.172  43.882   5.909
 4297POPC   GL257086  35.939  43.634   5.836
 4297POPC   C1A57087  36.199  44.043   6.350
 4297POPC   D2A57088  36.438  43.995   6.767
 4297POPC   C3A57089  36.163  44.050   7.113
 4297POPC   C4A57090  35.823  44.268   7.313
 4297POPC   C1B57091  36.000  43.567   6.284
 4297POPC   C2B57092  36.002  43.723   6.701
 4297POPC   C3B57093  35.976  43.577   7.092
 4297POPC   C4B57094  35.888  43.757   7.476
 4298POPC   NC357095   7.194  10.957   5.459
 4298POPC   PO457096   7.207  10.272   5.489
 4298POPC   GL157097   7.295  10.614   5.837
 4298POPC   GL257098   7.060  10.819   5.992
 4298POPC   C1A57099   7.597  10.705   6.178
 4298POPC   D2A57100   7.744  10.385   6.470
 4298POPC   C3A57101   7.781  10.357   6.912
 4298POPC   C4A57102   7.627  10.042   7.177
 4298POPC   C1B57103   7.171  10.527   6.371
 4298POPC   C2B57104   7.274  10.212   6.709
 4298POPC   C3B57105   7.184  10.258   7.126
 4298POPC   C4B57106   7.429  10.641   7.186
 4299POPC   NC357107   0.860  38.547   5.473
 4299POPC   PO457108   1.479  38.752   5.544
 4299POPC   GL157109   1.207  38.582   5.851
 4299POPC   GL257110   1.084  38.240   5.872
 4299POPC   C1A57111   0.942  38.609   6.203
 4299POPC   D2A57112   1.183  38.607   6.569
 4299POPC   C3A57113   0.900  38.633   6.889
 4299POPC   C4A57114   1.066  38.708   7.254
 4299POPC   C1B57115   1.166  38.143   6.303
 4299POPC   C2B57116   1.031  38.145   6.726
 4299POPC   C3B57117   1.099  38.197   7.147
 4299POPC   C4B57118   1.449  38.141   7.434
 4300POPC   NC357119  13.393  44.889   5.538
 4300POPC   PO457120  12.755  44.689   5.382
 4300POPC   GL157121  12.774  44.518   5.774
 4300POPC   GL257122  13.124  44.545   5.840
 4300POPC   C1A57123  12.747  44.680   6.201
 4300POPC   D2A57124  12.940  44.713   6.625
 4300POPC   C3A57125  12.712  44.766   6.992
 4300POPC   C4A57126  12.547  44.464   7.277
 4300POPC   C1B57127  13.243  44.826   6.190
 4300POPC   C2B57128  13.264   0.095   6.586
 4300POPC   C3B57129  13.285  44.942   7.041
 4300POPC   C4B57130  13.078  44.595   7.312
 4301POPC   NC357131  15.363  13.374   5.452
 4301POPC   PO457132  14.975  13.942   5.400
 4301POPC   GL157133  15.255  13.790   5.754
 4301POPC   GL257134  15.639  13.828   5.710
 4301POPC   C1A57135  15.215  13.479   6.113
 4301POPC   D2A57136  15.437  13.400   6.508
 4301POPC   C3A57137  15.233  13.591   6.831
 4301POPC   C4A57138  15.036  13.582   7.208
 4301POPC   C1B57139  15.583  13.836   6.182
 4301POPC   C2B57140  15.518  13.990   6.630
 4301POPC   C3B57141  15.666  13.795   7.043
 4301POPC   C4B57142  15.526  13.429   7.245
 4302POPC   NC357143  17.518  27.143   5.159
 4302POPC   PO457144  17.515  26.592   5.440
 4302POPC   GL157145  17.657  26.906   5.756
 4302POPC   GL257146  17.362  27.111   5.846
 4302POPC   C1A57147  17.687  26.801   6.216
 4302POPC   D2A57148  17.989  26.593   6.522
 4302POPC   C3A57149  17.785  26.539   6.933
 4302POPC   C4A57150  17.604  26.834   7.202
 4302POPC   C1B57151  17.186  26.701   6.005
 4302POPC   C2B57152  17.191  26.580   6.411
 4302POPC   C3B57153  17.288  26.785   6.796
 4302POPC   C4B57154  17.071  26.796   7.198
 4303POPC   NC357155  26.969   4.460   5.227
 4303POPC   PO457156  27.635   4.392   5.402
 4303POPC   GL157157  27.706   4.295   5.857
 4303POPC   GL257158  27.706   4.616   5.859
 4303POPC   C1A57159  27.499   4.249   6.297
 4303POPC   D2A57160  27.537   4.153   6.768
 4303POPC   C3A57161  27.388   4.273   7.160
 4303POPC   C4A57162  27.731   4.271   7.451
 4303POPC   C1B57163  27.837   4.626   6.252
 4303POPC   C2B57164  27.683   4.623   6.638
 4303POPC   C3B57165  27.813   4.545   7.013
 4303POPC   C4B57166  27.836   4.848   7.310
 4304POPC   NC357167  40.513  13.721   5.390
 4304POPC   PO457168  40.578  13.073   5.585
 4304POPC   GL157169  40.790  13.371   5.857
 4304POPC   GL257170  40.744  13.728   5.824
 4304POPC   C1A57171  40.861  13.542   6.273
 4304POPC   D2A57172  41.083  13.439   6.600
 4304POPC   C3A57173  40.980  13.564   7.001
 4304POPC   C4A57174  41.154  13.597   7.411
 4304POPC   C1B57175  40.427  13.835   6.128
 4304POPC   C2B57176  40.536  13.887   6.573
 4304POPC   C3B57177  40.488  13.702   6.980
 4304POPC   C4B57178  40.686  13.786   7.366
 4305POPC   NC357179  13.034  10.678   5.127
 4305POPC   PO457180  12.498  10.475   5.402
 4305POPC   GL157181  12.622  10.597   5.839
 4305POPC   GL257182  12.995  10.611   5.856
 4305POPC   C1A57183  12.741  10.509   6.280
 4305POPC   D2A57184  12.535  10.569   6.637
 4305POPC   C3A57185  12.721  10.598   6.965
 4305POPC   C4A57186  12.660  10.305   7.308
 4305POPC   C1B57187  13.238  10.620   6.239
 4305POPC   C2B57188  13.160  10.476   6.653
 4305POPC   C3B57189  13.120  10.319   7.058
 4305POPC   C4B57190  13.076  10.603   7.366
 4306POPC   NC357191   6.227  22.298   5.583
 4306POPC   PO457192   6.889  22.377   5.544
 4306POPC   GL157193   6.682  22.168   5.862
 4306POPC   GL257194   6.487  21.887   5.778
 4306POPC   C1A57195   6.574  22.225   6.299
 4306POPC   D2A57196   6.876  22.206   6.649
 4306POPC   C3A57197   6.635  22.396   6.962
 4306POPC   C4A57198   6.430  22.206   7.313
 4306POPC   C1B57199   6.724  21.767   6.168
 4306POPC   C2B57200   6.600  21.762   6.597
 4306POPC   C3B57201   6.721  21.856   7.018
 4306POPC   C4B57202   6.990  22.161   7.215
 4307POPC   NC357203  16.514  11.837   5.461
 4307POPC   PO457204  16.440  12.483   5.378
 4307POPC   GL157205  16.585  12.388   5.809
 4307POPC   GL257206  16.721  12.063   5.927
 4307POPC   C1A57207  16.770  12.472   6.214
 4307POPC   D2A57208  16.694  12.261   6.595
 4307POPC   C3A57209  16.865  12.269   7.013
 4307POPC   C4A57210  16.622  12.114   7.360
 4307POPC   C1B57211  17.061  12.072   6.250
 4307POPC   C2B57212  17.123  11.945   6.626
 4307POPC   C3B57213  17.105  11.813   7.024
 4307POPC   C4B57214  17.102  11.966   7.418
 4308POPC   NC357215  40.203  16.914   5.457
 4308POPC   PO457216  39.977  17.555   5.393
 4308POPC   GL157217  40.020  17.610   5.822
 4308POPC   GL257218  40.310  17.819   5.878
 4308POPC   C1A57219  39.829  17.448   6.208
 4308POPC   D2A57220  39.784  17.254   6.607
 4308POPC   C3A57221  39.732  17.512   6.983
 4308POPC   C4A57222  39.715  17.432   7.438
 4308POPC   C1B57223  40.318  17.573   6.285
 4308POPC   C2B57224  40.234  17.462   6.759
 4308POPC   C3B57225  40.180  17.536   7.210
 4308POPC   C4B57226  40.399  17.862   7.394
 4309POPC   NC357227  17.647  28.786   5.492
 4309POPC   PO457228  17.800  28.150   5.378
 4309POPC   GL157229  17.646  28.232   5.825
 4309POPC   GL257230  17.691  28.570   5.960
 4309POPC   C1A57231  17.350  28.150   6.199
 4309POPC   D2A57232  17.118  28.346   6.579
 4309POPC   C3A57233  17.242  28.212   7.002
 4309POPC   C4A57234  17.300  28.351   7.415
 4309POPC   C1B57235  17.967  28.686   6.289
 4309POPC   C2B57236  18.040  28.520   6.711
 4309POPC   C3B57237  17.708  28.489   7.037
 4309POPC   C4B57238  17.677  28.715   7.404
 4310POPC   NC357239  36.718  25.601   5.489
 4310POPC   PO457240  36.969  26.296   5.404
 4310POPC   GL157241  36.999  25.966   5.715
 4310POPC   GL257242  37.329  25.849   5.714
 4310POPC   C1A57243  36.848  25.869   6.158
 4310POPC   D2A57244  36.584  26.082   6.490
 4310POPC   C3A57245  36.699  26.110   6.900
 4310POPC   C4A57246  36.671  26.257   7.324
 4310POPC   C1B57247  37.291  26.090   6.117
 4310POPC   C2B57248  37.125  26.052   6.569
 4310POPC   C3B57249  37.180  26.027   7.035
 4310POPC   C4B57250  37.097  26.034   7.495
 4311POPC   NC357251  29.153  31.109   5.381
 4311POPC   PO457252  28.893  30.510   5.417
 4311POPC   GL157253  29.011  30.802   5.756
 4311POPC   GL257254  29.381  30.844   5.767
 4311POPC   C1A57255  28.862  30.855   6.167
 4311POPC   D2A57256  28.967  30.611   6.556
 4311POPC   C3A57257  28.877  30.778   6.993
 4311POPC   C4A57258  28.874  30.588   7.422
 4311POPC   C1B57259  29.366  30.778   6.231
 4311POPC   C2B57260  29.460  30.798   6.704
 4311POPC   C3B57261  29.372  30.693   7.135
 4311POPC   C4B57262  29.187  30.985   7.410
 4312POPC   NC357263  30.196   6.369   5.383
 4312POPC   PO457264  29.717   6.857   5.362
 4312POPC   GL157265  29.830   6.798   5.820
 4312POPC   GL257266  30.202   6.683   5.830
 4312POPC   C1A57267  29.584   6.613   6.198
 4312POPC   D2A57268  29.658   6.478   6.616
 4312POPC   C3A57269  29.837   6.827   6.795
 4312POPC   C4A57270  29.845   6.919   7.195
 4312POPC   C1B57271  30.094   6.730   6.267
 4312POPC   C2B57272  30.233   6.540   6.634
 4312POPC   C3B57273  30.130   6.501   7.067
 4312POPC   C4B57274  30.204   6.414   7.494
 4313POPC   NC357275  15.024  30.851   5.357
 4313POPC   PO457276  15.666  31.063   5.399
 4313POPC   GL157277  15.483  30.789   5.825
 4313POPC   GL257278  15.153  30.666   5.865
 4313POPC   C1A57279  15.539  30.643   6.265
 4313POPC   D2A57280  15.415  30.450   6.667
 4313POPC   C3A57281  15.331  30.672   7.066
 4313POPC   C4A57282  15.329  30.507   7.496
 4313POPC   C1B57283  15.029  30.586   6.319
 4313POPC   C2B57284  14.912  30.520   6.780
 4313POPC   C3B57285  14.890  30.366   7.209
 4313POPC   C4B57286  14.847  30.579   7.625
 4314POPC   NC357287  20.043   3.664   5.227
 4314POPC   PO457288  19.403   3.655   5.297
 4314POPC   GL157289  19.667   3.753   5.705
 4314POPC   GL257290  20.027   3.671   5.750
 4314POPC   C1A57291  19.615   3.707   6.191
 4314POPC   D2A57292  19.512   3.496   6.601
 4314POPC   C3A57293  19.600   3.691   7.019
 4314POPC   C4A57294  19.725   3.339   7.288
 4314POPC   C1B57295  20.129   3.644   6.219
 4314POPC   C2B57296  19.986   3.693   6.663
 4314POPC   C3B57297  20.111   3.663   7.104
 4314POPC   C4B57298  20.237   3.378   7.458
 4315POPC   NC357299   0.021   4.990   5.368
 4315POPC   PO457300  44.401   5.233   5.413
 4315POPC   GL157301  44.631   4.961   5.739
 4315POPC   GL257302  44.808   5.236   5.901
 4315POPC   C1A57303  44.882   4.764   6.121
 4315POPC   D2A57304  44.988   4.705   6.597
 4315POPC   C3A57305  44.704   4.789   6.983
 4315POPC   C4A57306  44.787   5.023   7.400
 4315POPC   C1B57307  44.678   5.185   6.348
 4315POPC   C2B57308  44.739   5.267   6.800
 4315POPC   C3B57309  44.523   5.391   7.172
 4315POPC   C4B57310  44.503   5.458   7.652
 4316POPC   NC357311  17.907   0.911   5.559
 4316POPC   PO457312  18.499   1.266   5.446
 4316POPC   GL157313  18.550   1.520   5.773
 4316POPC   GL257314  18.216   1.289   5.871
 4316POPC   C1A57315  18.415   1.618   6.182
 4316POPC   D2A57316  18.382   1.388   6.511
 4316POPC   C3A57317  18.417   1.528   6.925
 4316POPC   C4A57318  18.183   1.255   7.152
 4316POPC   C1B57319  18.595   1.134   6.100
 4316POPC   C2B57320  18.730   1.025   6.549
 4316POPC   C3B57321  18.651   1.046   7.020
 4316POPC   C4B57322  18.593   0.814   7.421
 4317POPC   NC357323  38.211  38.665   5.515
 4317POPC   PO457324  38.610  38.074   5.254
 4317POPC   GL157325  38.529  38.284   5.677
 4317POPC   GL257326  38.751  38.566   5.711
 4317POPC   C1A57327  38.461  38.515   6.125
 4317POPC   D2A57328  38.439  38.858   6.471
 4317POPC   C3A57329  38.265  38.781   6.886
 4317POPC   C4A57330  38.354  38.400   7.137
 4317POPC   C1B57331  38.920  38.775   6.071
 4317POPC   C2B57332  38.949  38.624   6.494
 4317POPC   C3B57333  38.766  38.673   6.932
 4317POPC   C4B57334  38.687  38.661   7.423
 4318POPC   NC357335   9.286  42.401   5.297
 4318POPC   PO457336   8.963  41.894   5.591
 4318POPC   GL157337   8.995  42.224   5.842
 4318POPC   GL257338   8.728  42.443   5.747
 4318POPC   C1A57339   9.142  42.192   6.279
 4318POPC   D2A57340   9.374  42.320   6.653
 4318POPC   C3A57341   9.163  42.488   7.008
 4318POPC   C4A57342   8.915  42.128   7.132
 4318POPC   C1B57343   8.806  42.565   6.174
 4318POPC   C2B57344   8.860  42.504   6.591
 4318POPC   C3B57345   8.630  42.496   6.944
 4318POPC   C4B57346   8.791  42.568   7.363
 4319POPC   NC357347  15.343  39.244   4.966
 4319POPC   PO457348  14.948  39.323   5.538
 4319POPC   GL157349  15.038  39.398   5.912
 4319POPC   GL257350  15.349  39.341   5.926
 4319POPC   C1A57351  14.943  39.284   6.305
 4319POPC   D2A57352  15.142  39.326   6.693
 4319POPC   C3A57353  15.102  39.551   7.097
 4319POPC   C4A57354  15.085  39.571   7.558
 4319POPC   C1B57355  15.443  39.072   6.265
 4319POPC   C2B57356  15.439  38.912   6.672
 4319POPC   C3B57357  15.235  38.992   7.074
 4319POPC   C4B57358  15.426  39.252   7.361
 4320POPC   NC357359   8.781  24.200   5.167
 4320POPC   PO457360   9.225  23.657   5.425
 4320POPC   GL157361   9.095  23.800   5.833
 4320POPC   GL257362   9.193  24.104   5.862
 4320POPC   C1A57363   8.870  23.544   6.151
 4320POPC   D2A57364   8.986  23.345   6.530
 4320POPC   C3A57365   8.831  23.440   6.901
 4320POPC   C4A57366   8.986  23.612   7.270
 4320POPC   C1B57367   8.881  24.071   6.194
 4320POPC   C2B57368   8.824  23.862   6.553
 4320POPC   C3B57369   8.947  23.961   6.920
 4320POPC   C4B57370   8.893  24.283   7.181
 4321POPC   NC357371  24.982  26.383   5.593
 4321POPC   PO457372  25.203  26.962   5.491
 4321POPC   GL157373  25.348  26.830   5.859
 4321POPC   GL257374  25.428  26.491   5.798
 4321POPC   C1A57375  25.199  26.712   6.262
 4321POPC   D2A57376  24.990  26.562   6.625
 4321POPC   C3A57377  25.050  26.863   6.916
 4321POPC   C4A57378  25.079  26.893   7.324
 4321POPC   C1B57379  25.550  26.345   6.202
 4321POPC   C2B57380  25.500  26.330   6.653
 4321POPC   C3B57381  25.336  26.452   7.076
 4321POPC   C4B57382  25.374  26.527   7.542
 4322POPC   NC357383   3.425  17.756   5.443
 4322POPC   PO457384   3.908  17.220   5.302
 4322POPC   GL157385   3.893  17.352   5.763
 4322POPC   GL257386   3.645  17.607   5.925
 4322POPC   C1A57387   3.742  17.193   6.190
 4322POPC   D2A57388   3.308  17.226   6.433
 4322POPC   C3A57389   3.417  17.370   6.857
 4322POPC   C4A57390   3.786  17.304   7.163
 4322POPC   C1B57391   3.605  17.635   6.383
 4322POPC   C2B57392   3.848  17.656   6.749
 4322POPC   C3B57393   3.669  17.800   7.095
 4322POPC   C4B57394   3.369  17.586   7.322
 4323POPC   NC357395  17.627  19.468   5.361
 4323POPC   PO457396  17.236  19.988   5.088
 4323POPC   GL157397  17.407  19.912   5.609
 4323POPC   GL257398  17.577  19.616   5.829
 4323POPC   C1A57399  17.435  19.986   6.119
 4323POPC   D2A57400  17.507  19.689   6.477
 4323POPC   C3A57401  17.524  19.898   6.863
 4323POPC   C4A57402  17.528  20.227   7.162
 4323POPC   C1B57403  17.177  19.544   6.077
 4323POPC   C2B57404  17.094  19.393   6.486
 4323POPC   C3B57405  17.182  19.490   6.907
 4323POPC   C4B57406  17.343  19.675   7.285
 4324POPC   NC357407  27.858  20.879   5.503
 4324POPC   PO457408  27.365  20.442   5.398
 4324POPC   GL157409  27.642  20.414   5.704
 4324POPC   GL257410  27.559  20.725   5.880
 4324POPC   C1A57411  27.635  20.284   6.105
 4324POPC   D2A57412  27.648  20.501   6.491
 4324POPC   C3A57413  27.648  20.304   6.858
 4324POPC   C4A57414  27.290  20.365   7.077
 4324POPC   C1B57415  27.849  20.859   6.200
 4324POPC   C2B57416  27.818  20.965   6.647
 4324POPC   C3B57417  27.558  20.807   6.931
 4324POPC   C4B57418  27.594  20.642   7.341
 4325POPC   NC357419   1.558  13.767   5.473
 4325POPC   PO457420   2.105  13.447   5.245
 4325POPC   GL157421   2.136  13.637   5.706
 4325POPC   GL257422   1.961  13.921   5.811
 4325POPC   C1A57423   2.119  13.496   6.175
 4325POPC   D2A57424   1.904  13.500   6.590
 4325POPC   C3A57425   2.078  13.550   7.008
 4325POPC   C4A57426   2.220  13.766   7.385
 4325POPC   C1B57427   2.080  14.023   6.234
 4325POPC   C2B57428   1.900  14.007   6.640
 4325POPC   C3B57429   1.975  14.083   7.039
 4325POPC   C4B57430   1.739  13.832   7.275
 4326POPC   NC357431  12.386  15.704   5.046
 4326POPC   PO457432  12.426  16.212   5.467
 4326POPC   GL157433  12.225  16.131   5.901
 4326POPC   GL257434  12.079  15.799   5.944
 4326POPC   C1A57435  12.101  16.091   6.378
 4326POPC   D2A57436  11.949  15.908   6.795
 4326POPC   C3A57437  12.059  15.954   7.255
 4326POPC   C4A57438  12.377  15.744   7.527
 4326POPC   C1B57439  11.776  15.658   6.281
 4326POPC   C2B57440  11.593  15.560   6.714
 4326POPC   C3B57441  11.623  15.696   7.149
 4326POPC   C4B57442  11.584  16.088   7.410
 4327POPC   NC357443   8.457  22.928   5.402
 4327POPC   PO457444   7.853  23.088   5.396
 4327POPC   GL157445   8.119  22.975   5.795
 4327POPC   GL257446   8.410  22.730   5.871
 4327POPC   C1A57447   8.262  23.159   6.175
 4327POPC   D2A57448   8.084  23.172   6.584
 4327POPC   C3A57449   8.292  23.217   6.994
 4327POPC   C4A57450   8.152  22.983   7.386
 4327POPC   C1B57451   8.299  22.653   6.319
 4327POPC   C2B57452   8.211  22.702   6.765
 4327POPC   C3B57453   8.507  22.762   7.110
 4327POPC   C4B57454   8.571  22.788   7.615
 4328POPC   NC357455  36.779   1.656   5.062
 4328POPC   PO457456  36.615   2.157   5.491
 4328POPC   GL157457  36.760   1.933   5.853
 4328POPC   GL257458  37.118   1.987   5.818
 4328POPC   C1A57459  36.927   1.820   6.290
 4328POPC   D2A57460  37.217   1.907   6.640
 4328POPC   C3A57461  37.095   1.770   7.068
 4328POPC   C4A57462  36.851   1.734   7.454
 4328POPC   C1B57463  36.986   2.298   6.143
 4328POPC   C2B57464  36.910   2.350   6.578
 4328POPC   C3B57465  37.082   2.304   6.983
 4328POPC   C4B57466  36.977   2.407   7.389
 4329POPC   NC357467   3.562  23.654   5.366
 4329POPC   PO457468   3.230  23.215   5.736
 4329POPC   GL157469   3.560  23.495   5.924
 4329POPC   GL257470   3.956  23.537   5.957
 4329POPC   C1A57471   3.592  23.575   6.368
 4329POPC   D2A57472   3.283  23.538   6.721
 4329POPC   C3A57473   3.468  23.527   7.126
 4329POPC   C4A57474   3.513  23.838   7.455
 4329POPC   C1B57475   4.074  23.826   6.269
 4329POPC   C2B57476   3.957  23.816   6.697
 4329POPC   C3B57477   3.933  23.748   7.126
 4329POPC   C4B57478   4.000  23.417   7.388
 4330POPC   NC357479  21.422  12.674   5.438
 4330POPC   PO457480  21.892  13.237   5.553
 4330POPC   GL157481  21.560  13.151   5.804
 4330POPC   GL257482  21.294  12.888   5.882
 4330POPC   C1A57483  21.596  13.063   6.228
 4330POPC   D2A57484  21.273  12.842   6.432
 4330POPC   C3A57485  21.283  13.017   6.816
 4330POPC   C4A57486  21.527  12.860   7.135
 4330POPC   C1B57487  21.169  12.451   6.051
 4330POPC   C2B57488  21.104  12.310   6.478
 4330POPC   C3B57489  21.142  12.525   6.889
 4330POPC   C4B57490  21.126  12.663   7.337
 4331POPC   NC357491  21.127  40.937   5.486
 4331POPC   PO457492  20.445  40.738   5.369
 4331POPC   GL157493  20.448  40.659   5.760
 4331POPC   GL257494  20.817  40.625   5.775
 4331POPC   C1A57495  20.482  40.888   6.142
 4331POPC   D2A57496  20.422  41.043   6.554
 4331POPC   C3A57497  20.380  40.812   6.931
 4331POPC   C4A57498  20.567  40.952   7.301
 4331POPC   C1B57499  20.964  40.741   6.224
 4331POPC   C2B57500  20.839  40.763   6.700
 4331POPC   C3B57501  21.028  40.772   7.106
 4331POPC   C4B57502  21.043  40.871   7.555
 4332POPC   NC357503  33.599  41.302   5.376
 4332POPC   PO457504  33.931  40.751   5.248
 4332POPC   GL157505  33.754  40.924   5.709
 4332POPC   GL257506  33.413  40.918   5.881
 4332POPC   C1A57507  33.848  41.079   6.175
 4332POPC   D2A57508  34.055  41.082   6.613
 4332POPC   C3A57509  34.077  40.785   6.975
 4332POPC   C4A57510  33.978  40.823   7.443
 4332POPC   C1B57511  33.433  40.784   6.292
 4332POPC   C2B57512  33.544  41.042   6.639
 4332POPC   C3B57513  33.506  40.918   7.047
 4332POPC   C4B57514  33.606  40.511   7.209
 4333POPC   NC357515   6.562  11.644   5.387
 4333POPC   PO457516   6.556  12.243   5.349
 4333POPC   GL157517   6.676  12.103   5.765
 4333POPC   GL257518   6.606  11.768   5.882
 4333POPC   C1A57519   6.656  12.186   6.209
 4333POPC   D2A57520   6.460  12.147   6.603
 4333POPC   C3A57521   6.652  12.254   6.992
 4333POPC   C4A57522   6.525  12.066   7.360
 4333POPC   C1B57523   6.867  11.721   6.259
 4333POPC   C2B57524   6.915  11.920   6.690
 4333POPC   C3B57525   7.007  11.898   7.152
 4333POPC   C4B57526   7.370  11.909   7.478
 4334POPC   NC357527  44.250   9.633   5.505
 4334POPC   PO457528  43.546   9.693   5.396
 4334POPC   GL157529  43.718   9.529   5.801
 4334POPC   GL257530  43.973   9.800   5.902
 4334POPC   C1A57531  43.701   9.549   6.274
 4334POPC   D2A57532  43.489   9.457   6.669
 4334POPC   C3A57533  43.692   9.510   7.066
 4334POPC   C4A57534  44.165   9.583   7.140
 4334POPC   C1B57535  44.126   9.870   6.328
 4334POPC   C2B57536  43.858   9.850   6.675
 4334POPC   C3B57537  43.871   9.981   7.056
 4334POPC   C4B57538  44.088  10.048   7.448
 4335POPC   NC357539   6.324  40.910   5.524
 4335POPC   PO457540   6.880  40.743   5.331
 4335POPC   GL157541   6.791  40.870   5.743
 4335POPC   GL257542   6.881  41.194   5.750
 4335POPC   C1A57543   6.573  40.828   6.132
 4335POPC   D2A57544   6.598  40.614   6.508
 4335POPC   C3A57545   6.581  40.823   6.856
 4335POPC   C4A57546   6.663  40.765   7.237
 4335POPC   C1B57547   7.076  41.039   6.169
 4335POPC   C2B57548   7.091  40.815   6.579
 4335POPC   C3B57549   7.091  40.989   6.994
 4335POPC   C4B57550   7.038  41.060   7.448
 4336POPC   NC357551  18.998  22.463   5.338
 4336POPC   PO457552  19.409  23.001   5.248
 4336POPC   GL157553  19.269  22.917   5.673
 4336POPC   GL257554  18.897  22.910   5.718
 4336POPC   C1A57555  19.391  23.133   6.067
 4336POPC   D2A57556  19.433  23.298   6.482
 4336POPC   C3A57557  19.231  23.100   6.831
 4336POPC   C4A57558  19.239  23.120   7.289
 4336POPC   C1B57559  19.008  22.814   6.164
 4336POPC   C2B57560  19.267  22.683   6.518
 4336POPC   C3B57561  19.185  22.602   6.972
 4336POPC   C4B57562  18.835  22.859   7.083
 4337POPC   NC357563   3.885  38.506   5.368
 4337POPC   PO457564   4.584  38.495   5.461
 4337POPC   GL157565   4.307  38.576   5.799
 4337POPC   GL257566   4.163  38.227   5.836
 4337POPC   C1A57567   4.186  38.577   6.252
 4337POPC   D2A57568   4.076  38.287   6.607
 4337POPC   C3A57569   4.178  38.356   7.030
 4337POPC   C4A57570   4.268  38.711   7.228
 4337POPC   C1B57571   4.546  38.234   6.123
 4337POPC   C2B57572   4.579  38.196   6.569
 4337POPC   C3B57573   4.425  37.921   6.879
 4337POPC   C4B57574   4.309  37.936   7.333
 4338POPC   NC357575   2.839  14.922   5.476
 4338POPC   PO457576   2.284  15.213   5.255
 4338POPC   GL157577   2.622  15.298   5.712
 4338POPC   GL257578   2.954  15.210   5.866
 4338POPC   C1A57579   2.573  15.187   6.187
 4338POPC   D2A57580   2.613  15.278   6.638
 4338POPC   C3A57581   2.618  15.069   7.025
 4338POPC   C4A57582   2.965  14.878   7.194
 4338POPC   C1B57583   3.041  15.393   6.253
 4338POPC   C2B57584   3.166  15.350   6.660
 4338POPC   C3B57585   3.021  15.375   7.070
 4338POPC   C4B57586   2.801  15.477   7.440
 4339POPC   NC357587  32.102  32.931   5.340
 4339POPC   PO457588  32.595  33.252   5.440
 4339POPC   GL157589  32.439  32.871   5.721
 4339POPC   GL257590  32.169  33.079   5.835
 4339POPC   C1A57591  32.298  32.724   6.175
 4339POPC   D2A57592  32.112  32.922   6.540
 4339POPC   C3A57593  32.294  32.813   6.923
 4339POPC   C4A57594  32.114  32.665   7.267
 4339POPC   C1B57595  31.834  33.153   6.143
 4339POPC   C2B57596  31.652  33.186   6.579
 4339POPC   C3B57597  31.840  33.084   6.988
 4339POPC   C4B57598  32.194  33.243   7.206
 4340POPC   NC357599  40.581   2.812   5.285
 4340POPC   PO457600  40.698   2.176   5.328
 4340POPC   GL157601  40.790   2.465   5.708
 4340POPC   GL257602  40.636   2.803   5.801
 4340POPC   C1A57603  40.863   2.541   6.175
 4340POPC   D2A57604  40.690   2.907   6.433
 4340POPC   C3A57605  40.643   2.846   6.867
 4340POPC   C4A57606  40.676   2.967   7.290
 4340POPC   C1B57607  40.293   2.837   6.134
 4340POPC   C2B57608  40.194   2.902   6.621
 4340POPC   C3B57609  40.188   2.994   7.095
 4340POPC   C4B57610  40.236   2.943   7.571
 4341POPC   NC357611  18.553  43.389   5.397
 4341POPC   PO457612  18.327  44.015   5.397
 4341POPC   GL157613  18.242  43.963   5.813
 4341POPC   GL257614  18.470  43.693   5.825
 4341POPC   C1A57615  18.077  43.891   6.229
 4341POPC   D2A57616  18.247  43.947   6.647
 4341POPC   C3A57617  18.019  43.914   7.048
 4341POPC   C4A57618  18.044  44.104   7.470
 4341POPC   C1B57619  18.598  43.808   6.248
 4341POPC   C2B57620  18.590  43.561   6.645
 4341POPC   C3B57621  18.700  43.563   7.062
 4341POPC   C4B57622  18.423  43.774   7.357
 4342POPC   NC357623  14.467  27.655   5.175
 4342POPC   PO457624  14.409  27.224   5.697
 4342POPC   GL157625  14.478  27.674   5.825
 4342POPC   GL257626  14.710  27.941   5.697
 4342POPC   C1A57627  14.468  27.755   6.267
 4342POPC   D2A57628  14.219  27.654   6.595
 4342POPC   C3A57629  14.460  27.515   6.959
 4342POPC   C4A57630  14.438  27.357   7.389
 4342POPC   C1B57631  14.699  28.166   6.103
 4342POPC   C2B57632  14.836  28.067   6.539
 4342POPC   C3B57633  14.792  27.920   6.976
 4342POPC   C4B57634  14.565  27.909   7.378
 4343POPC   NC357635  10.691  41.727   5.525
 4343POPC   PO457636  10.104  41.645   5.215
 4343POPC   GL157637  10.229  41.655   5.717
 4343POPC   GL257638  10.434  41.874   5.950
 4343POPC   C1A57639  10.367  41.385   6.132
 4343POPC   D2A57640  10.636  41.297   6.533
 4343POPC   C3A57641  10.471  41.381   6.949
 4343POPC   C4A57642  10.357  41.752   7.152
 4343POPC   C1B57643  10.818  41.623   6.164
 4343POPC   C2B57644  11.056  41.604   6.552
 4343POPC   C3B57645  10.982  41.421   6.934
 4343POPC   C4B57646  10.817  41.496   7.353
 4344POPC   NC357647  42.748   1.211   5.484
 4344POPC   PO457648  42.061   1.386   5.437
 4344POPC   GL157649  42.193   1.293   5.850
 4344POPC   GL257650  42.382   1.029   5.869
 4344POPC   C1A57651  42.305   1.379   6.282
 4344POPC   D2A57652  42.172   1.603   6.636
 4344POPC   C3A57653  42.443   1.583   6.978
 4344POPC   C4A57654  42.511   1.238   7.252
 4344POPC   C1B57655  42.234   0.884   6.240
 4344POPC   C2B57656  42.344   0.996   6.676
 4344POPC   C3B57657  42.406   0.737   7.040
 4344POPC   C4B57658  42.399   0.721   7.496
 4345POPC   NC357659  10.407  21.738   5.463
 4345POPC   PO457660  10.270  21.138   5.303
 4345POPC   GL157661  10.515  21.123   5.744
 4345POPC   GL257662  10.406  21.406   5.853
 4345POPC   C1A57663  10.676  21.184   6.212
 4345POPC   D2A57664  10.464  21.157   6.622
 4345POPC   C3A57665  10.586  21.416   6.977
 4345POPC   C4A57666  10.933  21.433   7.235
 4345POPC   C1B57667  10.261  21.475   6.261
 4345POPC   C2B57668  10.386  21.719   6.616
 4345POPC   C3B57669  10.163  21.753   6.980
 4345POPC   C4B57670  10.243  21.535   7.356
 4346POPC   NC357671  11.546   8.800   5.608
 4346POPC   PO457672  11.149   9.350   5.405
 4346POPC   GL157673  11.316   9.229   5.752
 4346POPC   GL257674  11.632   9.357   5.737
 4346POPC   C1A57675  11.182   9.058   6.147
 4346POPC   D2A57676  11.284   9.228   6.512
 4346POPC   C3A57677  11.103   9.039   6.885
 4346POPC   C4A57678  11.112   8.891   7.294
 4346POPC   C1B57679  11.692   9.181   6.133
 4346POPC   C2B57680  11.786   9.078   6.551
 4346POPC   C3B57681  11.590   9.218   6.928
 4346POPC   C4B57682  11.534   9.455   7.300
 4347POPC   NC357683   2.651   7.426   5.310
 4347POPC   PO457684   2.660   6.838   5.458
 4347POPC   GL157685   2.480   7.149   5.730
 4347POPC   GL257686   2.753   7.396   5.805
 4347POPC   C1A57687   2.511   7.207   6.196
 4347POPC   D2A57688   2.819   7.185   6.529
 4347POPC   C3A57689   2.635   7.274   6.897
 4347POPC   C4A57690   2.524   7.071   7.272
 4347POPC   C1B57691   2.977   7.542   6.179
 4347POPC   C2B57692   3.025   7.670   6.632
 4347POPC   C3B57693   3.053   7.512   7.051
 4347POPC   C4B57694   2.692   7.549   7.339
 4348POPC   NC357695  24.575  36.497   5.160
 4348POPC   PO457696  24.323  37.081   5.565
 4348POPC   GL157697  24.550  37.151   5.895
 4348POPC   GL257698  24.305  36.922   6.066
 4348POPC   C1A57699  24.764  36.994   6.277
 4348POPC   D2A57700  24.533  36.782   6.652
 4348POPC   C3A57701  24.543  36.945   7.103
 4348POPC   C4A57702  24.651  36.817   7.527
 4348POPC   C1B57703  24.239  36.459   6.146
 4348POPC   C2B57704  24.349  36.259   6.523
 4348POPC   C3B57705  24.202  36.336   6.936
 4348POPC   C4B57706  24.125  36.566   7.315
 4349POPC   NC357707   0.060   8.820   5.581
 4349POPC   PO457708   0.622   9.117   5.527
 4349POPC   GL157709   0.360   9.085   5.900
 4349POPC   GL257710  44.993   9.198   5.923
 4349POPC   C1A57711   0.447   8.887   6.260
 4349POPC   D2A57712   0.598   9.075   6.601
 4349POPC   C3A57713   0.624   8.843   6.929
 4349POPC   C4A57714   0.350   8.859   7.266
 4349POPC   C1B57715   0.061   9.263   6.378
 4349POPC   C2B57716   0.205   9.334   6.797
 4349POPC   C3B57717   0.121   9.326   7.235
 4349POPC   C4B57718   0.012   9.227   7.694
 4350POPC   NC357719   5.904  28.084   5.215
 4350POPC   PO457720   6.220  28.699   5.402
 4350POPC   GL157721   6.026  28.485   5.769
 4350POPC   GL257722   6.137  28.139   5.814
 4350POPC   C1A57723   5.685  28.363   6.092
 4350POPC   D2A57724   5.652  28.153   6.527
 4350POPC   C3A57725   5.804  28.318   6.957
 4350POPC   C4A57726   5.910  28.275   7.365
 4350POPC   C1B57727   6.127  28.249   6.300
 4350POPC   C2B57728   6.248  28.431   6.689
 4350POPC   C3B57729   6.321  28.471   7.131
 4350POPC   C4B57730   6.354  28.525   7.560
 4351POPC   NC357731  39.591  14.949   5.125
 4351POPC   PO457732  39.014  15.189   5.322
 4351POPC   GL157733  38.958  15.233   5.748
 4351POPC   GL257734  39.297  15.326   5.876
 4351POPC   C1A57735  38.855  15.473   6.111
 4351POPC   D2A57736  38.982  15.335   6.471
 4351POPC   C3A57737  39.013  15.382   6.868
 4351POPC   C4A57738  38.937  15.217   7.227
 4351POPC   C1B57739  39.442  15.328   6.310
 4351POPC   C2B57740  39.423  15.075   6.670
 4351POPC   C3B57741  39.447  15.201   7.099
 4351POPC   C4B57742  39.740  15.136   7.445
 4352POPC   NC357743  15.930   7.537   5.410
 4352POPC   PO457744  15.729   6.886   5.360
 4352POPC   GL157745  15.710   7.158   5.755
 4352POPC   GL257746  16.014   7.312   5.841
 4352POPC   C1A57747  15.684   7.360   6.204
 4352POPC   D2A57748  15.887   7.259   6.603
 4352POPC   C3A57749  15.897   7.555   6.917
 4352POPC   C4A57750  15.815   7.533   7.340
 4352POPC   C1B57751  16.221   7.233   6.207
 4352POPC   C2B57752  16.416   7.197   6.604
 4352POPC   C3B57753  16.362   7.368   7.000
 4352POPC   C4B57754  16.212   7.168   7.370
 4353POPC   NC357755  25.244  32.640   5.380
 4353POPC   PO457756  25.396  33.310   5.370
 4353POPC   GL157757  25.287  33.008   5.740
 4353POPC   GL257758  24.941  32.869   5.795
 4353POPC   C1A57759  25.297  32.893   6.181
 4353POPC   D2A57760  25.172  32.777   6.589
 4353POPC   C3A57761  25.337  33.024   6.909
 4353POPC   C4A57762  25.533  32.846   7.280
 4353POPC   C1B57763  24.776  32.940   6.226
 4353POPC   C2B57764  24.675  32.719   6.592
 4353POPC   C3B57765  24.686  32.889   6.990
 4353POPC   C4B57766  24.955  33.045   7.250
 4354POPC   NC357767  40.839  23.839   5.266
 4354POPC   PO457768  40.269  23.451   5.380
 4354POPC   GL157769  40.561  23.678   5.659
 4354POPC   GL257770  40.943  23.601   5.722
 4354POPC   C1A57771  40.594  23.724   6.098
 4354POPC   D2A57772  40.813  23.403   6.380
 4354POPC   C3A57773  40.803  23.468   6.832
 4354POPC   C4A57774  40.569  23.801   7.016
 4354POPC   C1B57775  41.079  23.789   6.131
 4354POPC   C2B57776  40.915  23.922   6.520
 4354POPC   C3B57777  41.075  23.925   6.925
 4354POPC   C4B57778  41.239  23.572   7.139
 4355POPC   NC357779  35.475  35.447   5.193
 4355POPC   PO457780  35.031  35.260   5.406
 4355POPC   GL157781  35.363  35.235   5.764
 4355POPC   GL257782  35.626  35.478   5.707
 4355POPC   C1A57783  35.281  35.254   6.253
 4355POPC   D2A57784  35.212  35.180   6.716
 4355POPC   C3A57785  35.172  35.431   7.103
 4355POPC   C4A57786  35.145  35.357   7.550
 4355POPC   C1B57787  35.757  35.369   6.166
 4355POPC   C2B57788  35.669  35.467   6.627
 4355POPC   C3B57789  35.579  35.733   7.013
 4355POPC   C4B57790  35.330  35.869   7.381
 4356POPC   NC357791  11.641  11.997   5.395
 4356POPC   PO457792  11.090  11.758   5.337
 4356POPC   GL157793  11.221  11.792   5.771
 4356POPC   GL257794  11.574  11.723   5.811
 4356POPC   C1A57795  11.025  11.942   6.188
 4356POPC   D2A57796  11.102  12.211   6.559
 4356POPC   C3A57797  10.956  12.059   6.962
 4356POPC   C4A57798  11.231  12.063   7.288
 4356POPC   C1B57799  11.516  11.847   6.247
 4356POPC   C2B57800  11.351  11.752   6.655
 4356POPC   C3B57801  11.573  11.710   7.049
 4356POPC   C4B57802  11.562  11.791   7.525
 4357POPC   NC357803  28.139  23.254   5.275
 4357POPC   PO457804  28.653  22.834   5.413
 4357POPC   GL157805  28.454  22.971   5.806
 4357POPC   GL257806  28.627  23.276   5.849
 4357POPC   C1A57807  28.227  22.896   6.230
 4357POPC   D2A57808  28.154  23.070   6.676
 4357POPC   C3A57809  28.323  22.815   7.031
 4357POPC   C4A57810  28.186  22.398   7.165
 4357POPC   C1B57811  28.438  23.344   6.285
 4357POPC   C2B57812  28.521  23.457   6.701
 4357POPC   C3B57813  28.599  23.242   7.075
 4357POPC   C4B57814  28.393  23.208   7.467
 4358POPC   NC357815  44.953  39.148   5.132
 4358POPC   PO457816  44.274  38.861   5.540
 4358POPC   GL157817  44.547  39.030   5.875
 4358POPC   GL257818  44.890  39.005   5.652
 4358POPC   C1A57819  44.417  39.087   6.323
 4358POPC   D2A57820  44.414  39.034   6.789
 4358POPC   C3A57821  44.645  39.247   7.138
 4358POPC   C4A57822  44.632  39.148   7.593
 4358POPC   C1B57823   0.002  38.894   6.068
 4358POPC   C2B57824  44.883  38.996   6.504
 4358POPC   C3B57825  44.848  38.762   6.869
 4358POPC   C4B57826  44.952  38.878   7.255
 4359POPC   NC357827  13.813  13.916   5.442
 4359POPC   PO457828  13.381  13.450   5.348
 4359POPC   GL157829  13.615  13.545   5.717
 4359POPC   GL257830  13.334  13.704   5.840
 4359POPC   C1A57831  13.776  13.731   6.130
 4359POPC   D2A57832  13.872  13.567   6.542
 4359POPC   C3A57833  13.712  13.744   6.943
 4359POPC   C4A57834  14.029  13.787   7.261
 4359POPC   C1B57835  13.471  13.327   6.144
 4359POPC   C2B57836  13.575  13.131   6.538
 4359POPC   C3B57837  13.543  13.256   6.962
 4359POPC   C4B57838  13.397  13.464   7.331
 4360POPC   NC357839  42.646  25.556   5.503
 4360POPC   PO457840  42.314  24.970   5.485
 4360POPC   GL157841  42.302  25.250   5.781
 4360POPC   GL257842  42.635  25.192   5.860
 4360POPC   C1A57843  42.168  25.218   6.200
 4360POPC   D2A57844  41.957  25.077   6.554
 4360POPC   C3A57845  42.163  25.238   6.897
 4360POPC   C4A57846  42.217  25.093   7.289
 4360POPC   C1B57847  42.572  25.535   6.165
 4360POPC   C2B57848  42.535  25.413   6.583
 4360POPC   C3B57849  42.653  25.540   6.956
 4360POPC   C4B57850  42.673  25.330   7.280
 4361POPC   NC357851  17.278  28.184   5.469
 4361POPC   PO457852  17.366  27.561   5.244
 4361POPC   GL157853  17.474  27.713   5.683
 4361POPC   GL257854  17.730  27.469   5.754
 4361POPC   C1A57855  17.353  27.597   6.140
 4361POPC   D2A57856  17.481  27.449   6.579
 4361POPC   C3A57857  17.307  27.681   6.950
 4361POPC   C4A57858  17.470  27.847   7.343
 4361POPC   C1B57859  17.784  27.303   6.164
 4361POPC   C2B57860  17.937  27.128   6.564
 4361POPC   C3B57861  17.894  27.228   6.979
 4361POPC   C4B57862  17.570  27.363   7.247
 4362POPC   NC357863   3.726  36.326   5.464
 4362POPC   PO457864   3.153  36.018   5.428
 4362POPC   GL157865   3.418  36.079   5.797
 4362POPC   GL257866   3.748  35.916   5.825
 4362POPC   C1A57867   3.657  36.304   6.138
 4362POPC   D2A57868   3.479  36.414   6.517
 4362POPC   C3A57869   3.555  36.292   6.931
 4362POPC   C4A57870   3.230  36.232   7.248
 4362POPC   C1B57871   3.530  35.813   6.230
 4362POPC   C2B57872   3.397  35.884   6.680
 4362POPC   C3B57873   3.592  35.811   7.133
 4362POPC   C4B57874   3.797  35.733   7.572
 4363POPC   NC357875  12.686  25.726   5.500
 4363POPC   PO457876  13.045  26.351   5.306
 4363POPC   GL157877  13.048  26.095   5.734
 4363POPC   GL257878  12.678  26.012   5.892
 4363POPC   C1A57879  13.025  26.065   6.226
 4363POPC   D2A57880  12.666  25.858   6.458
 4363POPC   C3A57881  12.736  25.932   6.886
 4363POPC   C4A57882  12.980  26.233   7.113
 4363POPC   C1B57883  12.443  26.264   6.157
 4363POPC   C2B57884  12.472  26.359   6.602
 4363POPC   C3B57885  12.452  26.345   7.033
 4363POPC   C4B57886  12.607  26.232   7.454
 4364POPC   NC357887   5.719  37.337   5.346
 4364POPC   PO457888   6.208  36.870   5.251
 4364POPC   GL157889   6.120  36.848   5.710
 4364POPC   GL257890   5.759  36.922   5.683
 4364POPC   C1A57891   5.973  36.963   6.140
 4364POPC   D2A57892   5.933  37.169   6.510
 4364POPC   C3A57893   6.072  36.987   6.867
 4364POPC   C4A57894   6.146  36.868   7.260
 4364POPC   C1B57895   5.506  37.129   6.014
 4364POPC   C2B57896   5.377  37.066   6.432
 4364POPC   C3B57897   5.534  37.144   6.822
 4364POPC   C4B57898   5.620  36.984   7.177
 4365POPC   NC357899  26.413   5.145   5.451
 4365POPC   PO457900  25.774   5.294   5.504
 4365POPC   GL157901  26.050   5.068   5.844
 4365POPC   GL257902  26.347   4.807   5.858
 4365POPC   C1A57903  26.143   5.052   6.299
 4365POPC   D2A57904  25.988   5.218   6.675
 4365POPC   C3A57905  25.983   4.935   6.988
 4365POPC   C4A57906  26.120   5.013   7.404
 4365POPC   C1B57907  26.481   4.646   6.252
 4365POPC   C2B57908  26.537   4.791   6.678
 4365POPC   C3B57909  26.410   4.676   7.095
 4365POPC   C4B57910  26.444   4.647   7.566
 4366POPC   NC357911  29.266   9.711   5.377
 4366POPC   PO457912  28.569   9.850   5.428
 4366POPC   GL157913  28.867   9.929   5.687
 4366POPC   GL257914  28.932   9.591   5.789
 4366POPC   C1A57915  28.866  10.051   6.105
 4366POPC   D2A57916  29.048   9.954   6.495
 4366POPC   C3A57917  28.896   9.911   6.905
 4366POPC   C4A57918  29.138   9.836   7.280
 4366POPC   C1B57919  28.704   9.568   6.196
 4366POPC   C2B57920  28.838   9.472   6.621
 4366POPC   C3B57921  28.910   9.429   7.072
 4366POPC   C4B57922  28.900   9.413   7.519
 4367POPC   NC357923   8.061   4.406   5.477
 4367POPC   PO457924   8.591   4.813   5.514
 4367POPC   GL157925   8.423   4.489   5.821
 4367POPC   GL257926   8.261   4.119   5.838
 4367POPC   C1A57927   8.261   4.408   6.258
 4367POPC   D2A57928   8.493   4.373   6.662
 4367POPC   C3A57929   8.349   4.602   7.033
 4367POPC   C4A57930   7.923   4.755   7.121
 4367POPC   C1B57931   8.053   3.949   6.218
 4367POPC   C2B57932   8.008   4.121   6.667
 4367POPC   C3B57933   8.048   4.203   7.123
 4367POPC   C4B57934   8.040   3.874   7.439
 4368POPC   NC357935  27.195  43.302   5.545
 4368POPC   PO457936  26.480  43.227   5.379
 4368POPC   GL157937  26.647  43.016   5.774
 4368POPC   GL257938  26.951  43.118   5.928
 4368POPC   C1A57939  26.541  43.071   6.224
 4368POPC   D2A57940  26.553  43.286   6.612
 4368POPC   C3A57941  26.356  43.078   6.930
 4368POPC   C4A57942  26.475  42.932   7.306
 4368POPC   C1B57943  27.180  43.343   6.245
 4368POPC   C2B57944  27.058  43.397   6.696
 4368POPC   C3B57945  26.840  43.242   7.077
 4368POPC   C4B57946  27.092  43.372   7.429
 4369POPC   NC357947  43.675  24.065   5.500
 4369POPC   PO457948  43.813  23.426   5.555
 4369POPC   GL157949  43.778  23.529   5.991
 4369POPC   GL257950  43.825  23.879   5.939
 4369POPC   C1A57951  43.816  23.733   6.426
 4369POPC   D2A57952  43.534  23.618   6.784
 4369POPC   C3A57953  43.842  23.382   7.032
 4369POPC   C4A57954  43.875  23.423   7.491
 4369POPC   C1B57955  43.696  24.210   6.188
 4369POPC   C2B57956  43.880  24.244   6.614
 4369POPC   C3B57957  43.954  23.893   6.888
 4369POPC   C4B57958  43.715  23.824   7.237
 4370POPC   NC357959  17.407   5.603   5.347
 4370POPC   PO457960  17.380   6.239   5.670
 4370POPC   GL157961  17.719   6.038   5.875
 4370POPC   GL257962  17.686   5.657   5.851
 4370POPC   C1A57963  17.858   5.975   6.291
 4370POPC   D2A57964  17.688   5.711   6.629
 4370POPC   C3A57965  17.718   5.916   7.046
 4370POPC   C4A57966  17.773   5.849   7.515
 4370POPC   C1B57967  17.337   5.650   6.160
 4370POPC   C2B57968  17.168   5.606   6.591
 4370POPC   C3B57969  17.269   5.682   7.025
 4370POPC   C4B57970  17.180   5.504   7.404
 4371POPC   NC357971  40.312  43.340   5.440
 4371POPC   PO457972  39.778  42.790   5.462
 4371POPC   GL157973  39.770  43.100   5.813
 4371POPC   GL257974  40.109  43.169   5.883
 4371POPC   C1A57975  39.724  43.281   6.200
 4371POPC   D2A57976  39.964  43.061   6.475
 4371POPC   C3A57977  39.932  43.121   6.897
 4371POPC   C4A57978  39.939  42.764   7.129
 4371POPC   C1B57979  40.228  43.448   6.220
 4371POPC   C2B57980  40.345  43.407   6.649
 4371POPC   C3B57981  40.167  43.563   7.013
 4371POPC   C4B57982  40.204  43.445   7.438
 4372POPC   NC357983   2.497  36.776   5.050
 4372POPC   PO457984   3.154  36.794   5.198
 4372POPC   GL157985   2.930  36.833   5.648
 4372POPC   GL257986   2.573  36.692   5.649
 4372POPC   C1A57987   3.008  37.075   6.049
 4372POPC   D2A57988   2.785  37.162   6.454
 4372POPC   C3A57989   2.927  37.039   6.871
 4372POPC   C4A57990   2.996  37.174   7.295
 4372POPC   C1B57991   2.681  36.707   6.115
 4372POPC   C2B57992   2.600  36.612   6.554
 4372POPC   C3B57993   2.550  36.586   6.999
 4372POPC   C4B57994   2.471  36.579   7.454
 4373POPC   NC357995  24.766  25.511   5.383
 4373POPC   PO457996  24.415  24.878   5.492
 4373POPC   GL157997  24.615  25.177   5.800
 4373POPC   GL257998  24.843  25.438   5.893
 4373POPC   C1A57999  24.512  25.321   6.241
 4373POPC   D2A58000  24.511  24.980   6.538
 4373POPC   C3A58001  24.335  25.061   6.945
 4373POPC   C4A58002  24.493  25.445   7.167
 4373POPC   C1B58003  24.927  25.681   6.247
 4373POPC   C2B58004  24.725  25.698   6.664
 4373POPC   C3B58005  24.997  25.635   7.011
 4373POPC   C4B58006  25.112  25.466   7.383
 4374POPC   NC358007   9.958  35.108   5.485
 4374POPC   PO458008   9.544  35.448   5.381
 4374POPC   GL158009   9.627  35.459   5.838
 4374POPC   GL258010   9.906  35.276   5.980
 4374POPC   C1A58011   9.553  35.532   6.295
 4374POPC   D2A58012   9.609  35.311   6.708
 4374POPC   C3A58013   9.653  35.497   7.131
 4374POPC   C4A58014   9.716  35.529   7.593
 4374POPC   C1B58015  10.082  35.525   6.336
 4374POPC   C2B58016  10.090  35.543   6.808
 4374POPC   C3B58017  10.140  35.267   7.169
 4374POPC   C4B58018  10.177  35.282   7.633
 4375POPC   NC358019   2.318  15.610   5.488
 4375POPC   PO458020   2.770  16.074   5.417
 4375POPC   GL158021   2.594  15.951   5.794
 4375POPC   GL258022   2.866  15.730   5.851
 4375POPC   C1A58023   2.628  15.989   6.246
 4375POPC   D2A58024   2.811  15.735   6.582
 4375POPC   C3A58025   2.714  15.777   7.023
 4375POPC   C4A58026   2.540  15.893   7.455
 4375POPC   C1B58027   3.121  15.878   6.181
 4375POPC   C2B58028   3.303  15.885   6.582
 4375POPC   C3B58029   3.243  15.835   7.018
 4375POPC   C4B58030   3.028  15.978   7.382
 4376POPC   NC358031  41.913  36.183   5.472
 4376POPC   PO458032  42.450  35.856   5.473
 4376POPC   GL158033  42.325  36.139   5.801
 4376POPC   GL258034  42.212  36.529   5.745
 4376POPC   C1A58035  42.216  35.895   6.165
 4376POPC   D2A58036  42.217  35.647   6.539
 4376POPC   C3A58037  42.130  35.830   6.888
 4376POPC   C4A58038  42.360  36.006   7.203
 4376POPC   C1B58039  41.972  36.367   6.104
 4376POPC   C2B58040  42.012  36.204   6.516
 4376POPC   C3B58041  42.252  36.353   6.842
 4376POPC   C4B58042  42.094  36.472   7.224
 4377POPC   NC358043  41.997  28.388   5.287
 4377POPC   PO458044  41.296  28.413   5.199
 4377POPC   GL158045  41.506  28.373   5.611
 4377POPC   GL258046  41.795  28.455   5.750
 4377POPC   C1A58047  41.426  28.452   6.104
 4377POPC   D2A58048  41.649  28.468   6.528
 4377POPC   C3A58049  41.430  28.404   6.916
 4377POPC   C4A58050  41.500  28.269   7.321
 4377POPC   C1B58051  41.925  28.268   6.142
 4377POPC   C2B58052  41.731  27.983   6.459
 4377POPC   C3B58053  41.746  27.983   6.908
 4377POPC   C4B58054  41.923  27.940   7.305
 4378POPC   NC358055  35.500  42.561   5.120
 4378POPC   PO458056  36.070  42.327   5.448
 4378POPC   GL158057  35.985  42.300   5.831
 4378POPC   GL258058  35.781  42.609   5.842
 4378POPC   C1A58059  36.224  42.038   6.101
 4378POPC   D2A58060  36.475  42.049   6.457
 4378POPC   C3A58061  36.225  42.125   6.813
 4378POPC   C4A58062  36.441  42.186   7.166
 4378POPC   C1B58063  35.881  42.510   6.283
 4378POPC   C2B58064  36.289  42.560   6.495
 4378POPC   C3B58065  36.369  42.633   6.933
 4378POPC   C4B58066  36.011  42.517   7.171
 4379POPC   NC358067  10.242   5.671   5.361
 4379POPC   PO458068  10.907   5.827   5.299
 4379POPC   GL158069  10.756   5.759   5.768
 4379POPC   GL258070  10.462   5.973   5.747
 4379POPC   C1A58071  10.605   5.754   6.230
 4379POPC   D2A58072  10.647   5.516   6.621
 4379POPC   C3A58073  10.707   5.666   7.031
 4379POPC   C4A58074  10.580   5.451   7.372
 4379POPC   C1B58075  10.370   6.223   6.119
 4379POPC   C2B58076  10.504   6.184   6.541
 4379POPC   C3B58077  10.317   6.000   6.913
 4379POPC   C4B58078  10.192   6.229   7.286
 4380POPC   NC358079  18.640   2.419   5.377
 4380POPC   PO458080  18.168   2.833   5.175
 4380POPC   GL158081  18.159   2.844   5.641
 4380POPC   GL258082  18.300   2.530   5.778
 4380POPC   C1A58083  18.135   2.954   6.102
 4380POPC   D2A58084  18.108   3.151   6.538
 4380POPC   C3A58085  18.293   2.899   6.892
 4380POPC   C4A58086  18.108   2.505   7.087
 4380POPC   C1B58087  18.533   2.489   6.174
 4380POPC   C2B58088  18.373   2.414   6.600
 4380POPC   C3B58089  18.594   2.448   6.981
 4380POPC   C4B58090  18.696   2.366   7.398
 4381POPC   NC358091  25.341  23.933   5.466
 4381POPC   PO458092  25.247  23.230   5.415
 4381POPC   GL158093  25.044  23.390   5.818
 4381POPC   GL258094  24.918  23.732   5.834
 4381POPC   C1A58095  25.219  23.536   6.236
 4381POPC   D2A58096  25.372  23.428   6.662
 4381POPC   C3A58097  25.196  23.563   7.073
 4381POPC   C4A58098  25.444  23.481   7.474
 4381POPC   C1B58099  24.893  23.931   6.258
 4381POPC   C2B58100  25.044  23.888   6.697
 4381POPC   C3B58101  24.928  24.019   7.149
 4381POPC   C4B58102  25.039  24.227   7.599
 4382POPC   NC358103  18.723  36.497   5.446
 4382POPC   PO458104  19.385  36.093   5.501
 4382POPC   GL158105  19.339  36.222   5.898
 4382POPC   GL258106  19.035  36.426   5.883
 4382POPC   C1A58107  19.207  36.142   6.315
 4382POPC   D2A58108  19.373  36.037   6.707
 4382POPC   C3A58109  19.288  36.331   7.023
 4382POPC   C4A58110  19.236  35.991   7.278
 4382POPC   C1B58111  18.746  36.353   6.254
 4382POPC   C2B58112  18.629  36.443   6.668
 4382POPC   C3B58113  18.797  36.222   7.004
 4382POPC   C4B58114  18.791  36.229   7.418
 4383POPC   NC358115  25.984  30.171   5.367
 4383POPC   PO458116  25.915  29.498   5.483
 4383POPC   GL158117  25.872  29.876   5.762
 4383POPC   GL258118  26.216  30.041   5.872
 4383POPC   C1A58119  25.798  30.234   6.079
 4383POPC   D2A58120  26.066  30.239   6.467
 4383POPC   C3A58121  25.916  30.373   6.868
 4383POPC   C4A58122  25.755  30.118   7.221
 4383POPC   C1B58123  26.016  29.794   6.232
 4383POPC   C2B58124  26.134  29.654   6.608
 4383POPC   C3B58125  26.140  29.880   7.000
 4383POPC   C4B58126  26.165  29.652   7.396
 4384POPC   NC358127  42.206  35.431   5.484
 4384POPC   PO458128  42.712  34.987   5.447
 4384POPC   GL158129  42.508  35.123   5.803
 4384POPC   GL258130  42.169  35.047   5.829
 4384POPC   C1A58131  42.434  35.394   6.148
 4384POPC   D2A58132  42.674  35.370   6.531
 4384POPC   C3A58133  42.622  35.605   6.931
 4384POPC   C4A58134  42.567  35.376   7.318
 4384POPC   C1B58135  41.892  34.998   6.159
 4384POPC   C2B58136  42.152  35.135   6.505
 4384POPC   C3B58137  42.238  35.269   6.909
 4384POPC   C4B58138  42.051  35.054   7.240
 4385POPC   NC358139  23.039  41.481   5.389
 4385POPC   PO458140  22.770  42.120   5.526
 4385POPC   GL158141  22.840  41.733   5.829
 4385POPC   GL258142  23.181  41.557   5.876
 4385POPC   C1A58143  22.635  41.476   6.198
 4385POPC   D2A58144  22.501  41.362   6.663
 4385POPC   C3A58145  22.795  41.497   7.027
 4385POPC   C4A58146  23.261  41.631   7.094
 4385POPC   C1B58147  23.159  41.388   6.296
 4385POPC   C2B58148  23.158  41.246   6.739
 4385POPC   C3B58149  23.145  41.099   7.168
 4385POPC   C4B58150  23.126  41.020   7.630
 4386POPC   NC358151   0.044  13.508   5.385
 4386POPC   PO458152  44.316  13.687   5.372
 4386POPC   GL158153  44.615  13.696   5.685
 4386POPC   GL258154  44.769  14.026   5.795
 4386POPC   C1A58155  44.721  13.569   6.101
 4386POPC   D2A58156  44.527  13.507   6.514
 4386POPC   C3A58157  44.877  13.480   6.788
 4386POPC   C4A58158  44.998  13.550   7.203
 4386POPC   C1B58159  44.440  13.992   6.116
 4386POPC   C2B58160  44.404  14.019   6.574
 4386POPC   C3B58161  44.655  13.919   6.950
 4386POPC   C4B58162  44.526  13.735   7.328
 4387POPC   NC358163   3.019  37.229   5.338
 4387POPC   PO458164   2.792  37.780   5.478
 4387POPC   GL158165   2.693  37.739   5.894
 4387POPC   GL258166   2.674  37.372   5.815
 4387POPC   C1A58167   2.775  38.030   6.254
 4387POPC   D2A58168   2.917  38.185   6.671
 4387POPC   C3A58169   2.693  37.933   6.952
 4387POPC   C4A58170   2.700  37.754   7.375
 4387POPC   C1B58171   2.408  37.379   6.183
 4387POPC   C2B58172   2.428  37.553   6.620
 4387POPC   C3B58173   2.604  37.418   7.003
 4387POPC   C4B58174   2.506  37.060   7.262
 4388POPC   NC358175  22.497  24.442   5.478
 4388POPC   PO458176  22.006  24.819   5.357
 4388POPC   GL158177  22.101  24.625   5.773
 4388POPC   GL258178  22.140  24.250   5.799
 4388POPC   C1A58179  22.109  24.694   6.237
 4388POPC   D2A58180  22.020  24.454   6.649
 4388POPC   C3A58181  22.112  24.579   7.086
 4388POPC   C4A58182  22.388  24.858   7.279
 4388POPC   C1B58183  22.237  24.206   6.211
 4388POPC   C2B58184  22.517  24.389   6.524
 4388POPC   C3B58185  22.584  24.409   6.963
 4388POPC   C4B58186  22.492  24.198   7.328
 4389POPC   NC358187  22.511  19.005   5.452
 4389POPC   PO458188  23.137  18.708   5.610
 4389POPC   GL158189  22.944  19.015   5.832
 4389POPC   GL258190  22.736  19.312   5.789
 4389POPC   C1A58191  22.673  18.938   6.164
 4389POPC   D2A58192  22.686  18.736   6.581
 4389POPC   C3A58193  23.080  18.784   6.794
 4389POPC   C4A58194  23.207  18.936   7.226
 4389POPC   C1B58195  22.967  19.383   6.182
 4389POPC   C2B58196  22.843  19.215   6.560
 4389POPC   C3B58197  22.749  19.106   6.971
 4389POPC   C4B58198  22.853  19.292   7.362
 4390POPC   NC358199   6.176  34.370   5.331
 4390POPC   PO458200   5.778  34.936   5.338
 4390POPC   GL158201   5.748  34.754   5.746
 4390POPC   GL258202   5.795  34.377   5.760
 4390POPC   C1A58203   5.968  34.664   6.127
 4390POPC   D2A58204   5.843  34.522   6.507
 4390POPC   C3A58205   5.944  34.769   6.858
 4390POPC   C4A58206   5.592  34.900   7.117
 4390POPC   C1B58207   5.593  34.222   6.167
 4390POPC   C2B58208   5.650  34.051   6.609
 4390POPC   C3B58209   5.715  34.343   6.967
 4390POPC   C4B58210   6.058  34.448   7.227
 4391POPC   NC358211  25.335   4.062   5.462
 4391POPC   PO458212  25.040   4.622   5.610
 4391POPC   GL158213  25.238   4.327   5.894
 4391POPC   GL258214  25.526   4.478   5.999
 4391POPC   C1A58215  25.295   4.161   6.324
 4391POPC   D2A58216  25.290   4.358   6.724
 4391POPC   C3A58217  25.375   4.231   7.125
 4391POPC   C4A58218  25.156   4.126   7.514
 4391POPC   C1B58219  25.263   4.681   6.301
 4391POPC   C2B58220  25.087   4.816   6.707
 4391POPC   C3B58221  25.058   4.651   7.147
 4391POPC   C4B58222  25.360   4.597   7.513
 4392POPC   NC358223  21.600  19.316   5.184
 4392POPC   PO458224  21.359  18.780   5.482
 4392POPC   GL158225  21.458  19.113   5.746
 4392POPC   GL258226  21.120  19.171   5.834
 4392POPC   C1A58227  21.465  19.244   6.207
 4392POPC   D2A58228  21.262  19.107   6.602
 4392POPC   C3A58229  21.293  19.269   7.033
 4392POPC   C4A58230  21.319  19.266   7.483
 4392POPC   C1B58231  21.220  18.792   6.126
 4392POPC   C2B58232  21.481  18.557   6.412
 4392POPC   C3B58233  21.448  18.562   6.871
 4392POPC   C4B58234  21.465  18.823   7.247
 4393POPC   NC358235  31.261   3.401   5.383
 4393POPC   PO458236  31.516   3.936   5.653
 4393POPC   GL158237  31.601   3.559   5.893
 4393POPC   GL258238  31.492   3.201   5.804
 4393POPC   C1A58239  31.469   3.588   6.323
 4393POPC   D2A58240  31.236   3.722   6.671
 4393POPC   C3A58241  31.523   3.608   6.983
 4393POPC   C4A58242  31.555   3.834   7.351
 4393POPC   C1B58243  31.308   3.113   6.208
 4393POPC   C2B58244  31.121   3.242   6.635
 4393POPC   C3B58245  31.098   3.366   7.095
 4393POPC   C4B58246  31.451   3.347   7.434
 4394POPC   NC358247  30.632  41.200   5.511
 4394POPC   PO458248  30.307  40.609   5.450
 4394POPC   GL158249  30.488  40.797   5.844
 4394POPC   GL258250  30.829  40.872   5.857
 4394POPC   C1A58251  30.513  41.035   6.265
 4394POPC   D2A58252  30.659  41.170   6.684
 4394POPC   C3A58253  30.597  40.973   7.078
 4394POPC   C4A58254  30.701  40.800   7.497
 4394POPC   C1B58255  30.793  40.624   6.245
 4394POPC   C2B58256  30.903  40.729   6.678
 4394POPC   C3B58257  30.957  40.601   7.091
 4394POPC   C4B58258  31.208  40.689   7.470
 4395POPC   NC358259  22.404  33.845   5.002
 4395POPC   PO458260  21.915  33.569   5.409
 4395POPC   GL158261  22.033  33.778   5.759
 4395POPC   GL258262  22.314  33.642   5.911
 4395POPC   C1A58263  22.004  33.994   6.158
 4395POPC   D2A58264  22.025  33.773   6.565
 4395POPC   C3A58265  22.084  33.989   6.992
 4395POPC   C4A58266  22.105  34.078   7.482
 4395POPC   C1B58267  22.545  33.368   6.171
 4395POPC   C2B58268  22.436  33.266   6.597
 4395POPC   C3B58269  22.261  33.486   6.950
 4395POPC   C4B58270  22.235  33.364   7.357
 4396POPC   NC358271  19.720  22.646   5.184
 4396POPC   PO458272  19.740  22.002   5.234
 4396POPC   GL158273  19.876  22.167   5.663
 4396POPC   GL258274  20.040  22.502   5.585
 4396POPC   C1A58275  19.815  22.089   6.124
 4396POPC   D2A58276  20.009  21.819   6.447
 4396POPC   C3A58277  19.848  22.013   6.805
 4396POPC   C4A58278  19.585  21.924   7.163
 4396POPC   C1B58279  20.137  22.460   6.046
 4396POPC   C2B58280  20.132  22.346   6.494
 4396POPC   C3B58281  20.173  22.413   6.951
 4396POPC   C4B58282  19.908  22.468   7.325
 4397POPC   NC358283   7.425  37.231   5.722
 4397POPC   PO458284   7.448  37.576   5.168
 4397POPC   GL158285   7.512  37.728   5.619
 4397POPC   GL258286   7.781  37.636   5.871
 4397POPC   C1A58287   7.313  37.882   6.031
 4397POPC   D2A58288   7.120  37.729   6.429
 4397POPC   C3A58289   7.200  37.850   6.863
 4397POPC   C4A58290   7.256  37.504   7.161
 4397POPC   C1B58291   7.614  37.548   6.329
 4397POPC   C2B58292   7.628  37.570   6.801
 4397POPC   C3B58293   7.744  37.648   7.254
 4397POPC   C4B58294   7.911  37.660   7.707
 4398POPC   NC358295  37.482  19.823   5.478
 4398POPC   PO458296  37.881  20.168   5.115
 4398POPC   GL158297  37.920  19.974   5.669
 4398POPC   GL258298  37.702  20.107   5.975
 4398POPC   C1A58299  37.801  19.644   6.057
 4398POPC   D2A58300  37.554  19.808   6.425
 4398POPC   C3A58301  37.619  19.595   6.791
 4398POPC   C4A58302  37.788  19.577   7.196
 4398POPC   C1B58303  38.009  20.023   6.324
 4398POPC   C2B58304  37.995  19.949   6.781
 4398POPC   C3B58305  37.921  20.091   7.198
 4398POPC   C4B58306  37.715  19.963   7.556
 4399POPC   NC358307   7.102  24.504   5.366
 4399POPC   PO458308   7.679  24.126   5.488
 4399POPC   GL158309   7.412  24.357   5.726
 4399POPC   GL258310   7.097  24.124   5.684
 4399POPC   C1A58311   7.482  24.562   6.130
 4399POPC   D2A58312   7.650  24.752   6.526
 4399POPC   C3A58313   7.521  24.548   6.926
 4399POPC   C4A58314   7.690  24.331   7.287
 4399POPC   C1B58315   7.253  24.095   6.114
 4399POPC   C2B58316   7.304  24.272   6.525
 4399POPC   C3B58317   7.119  24.227   6.923
 4399POPC   C4B58318   7.172  24.320   7.353
 4400POPC   NC358319   2.029   8.635   5.431
 4400POPC   PO458320   2.212   9.340   5.390
 4400POPC   GL158321   2.048   9.200   5.839
 4400POPC   GL258322   1.972   8.824   5.911
 4400POPC   C1A58323   1.848   9.218   6.219
 4400POPC   D2A58324   2.027   9.218   6.617
 4400POPC   C3A58325   1.694   9.140   6.891
 4400POPC   C4A58326   1.806   9.069   7.275
 4400POPC   C1B58327   2.270   8.931   6.207
 4400POPC   C2B58328   2.405   8.846   6.605
 4400POPC   C3B58329   2.233   8.892   7.025
 4400POPC   C4B58330   2.198   8.846   7.488
 4401POPC   NC358331  38.822  14.738   5.390
 4401POPC   PO458332  39.231  14.213   5.319
 4401POPC   GL158333  39.287  14.423   5.715
 4401POPC   GL258334  39.274  14.813   5.707
 4401POPC   C1A58335  39.401  14.320   6.160
 4401POPC   D2A58336  39.314  14.512   6.568
 4401POPC   C3A58337  39.332  14.324   6.965
 4401POPC   C4A58338  39.361  14.048   7.315
 4401POPC   C1B58339  39.126  14.919   6.175
 4401POPC   C2B58340  38.951  14.857   6.612
 4401POPC   C3B58341  39.116  14.794   7.008
 4401POPC   C4B58342  39.457  14.719   7.305
 4402POPC   NC358343   1.752  11.367   5.471
 4402POPC   PO458344   1.122  11.305   5.486
 4402POPC   GL158345   1.117  11.488   5.846
 4402POPC   GL258346   1.467  11.420   5.912
 4402POPC   C1A58347   1.150  11.635   6.246
 4402POPC   D2A58348   1.391  11.437   6.569
 4402POPC   C3A58349   1.236  11.100   6.799
 4402POPC   C4A58350   1.060  11.153   7.184
 4402POPC   C1B58351   1.348  11.094   6.186
 4402POPC   C2B58352   1.619  10.890   6.493
 4402POPC   C3B58353   1.750  11.132   6.853
 4402POPC   C4B58354   1.571  11.205   7.248
 4403POPC   NC358355  37.272  37.422   5.460
 4403POPC   PO458356  37.152  38.105   5.514
 4403POPC   GL158357  36.854  37.871   5.805
 4403POPC   GL258358  36.734  37.506   5.797
 4403POPC   C1A58359  36.702  37.805   6.226
 4403POPC   D2A58360  36.957  37.731   6.599
 4403POPC   C3A58361  36.986  37.957   6.988
 4403POPC   C4A58362  37.033  37.810   7.411
 4403POPC   C1B58363  36.988  37.387   6.170
 4403POPC   C2B58364  36.857  37.237   6.603
 4403POPC   C3B58365  36.917  37.446   7.025
 4403POPC   C4B58366  36.939  37.307   7.448
 4404POPC   NC358367   5.311   5.634   5.359
 4404POPC   PO458368   4.954   6.261   5.528
 4404POPC   GL158369   5.168   5.947   5.771
 4404POPC   GL258370   4.942   5.646   5.739
 4404POPC   C1A58371   5.151   5.901   6.239
 4404POPC   D2A58372   4.771   5.967   6.554
 4404POPC   C3A58373   4.911   6.127   6.969
 4404POPC   C4A58374   5.222   6.044   7.312
 4404POPC   C1B58375   4.776   5.577   6.165
 4404POPC   C2B58376   4.992   5.509   6.567
 4404POPC   C3B58377   4.819   5.578   6.955
 4404POPC   C4B58378   4.780   5.774   7.313
 4405POPC   NC358379  35.501  21.635   5.368
 4405POPC   PO458380  35.194  22.244   5.296
 4405POPC   GL158381  35.443  22.196   5.680
 4405POPC   GL258382  35.389  21.876   5.792
 4405POPC   C1A58383  35.519  22.192   6.153
 4405POPC   D2A58384  35.318  21.992   6.507
 4405POPC   C3A58385  35.371  22.072   6.920
 4405POPC   C4A58386  35.546  22.109   7.327
 4405POPC   C1B58387  35.114  21.758   6.106
 4405POPC   C2B58388  34.975  21.615   6.519
 4405POPC   C3B58389  34.890  21.854   6.895
 4405POPC   C4B58390  35.082  21.855   7.302
 4406POPC   NC358391  38.981  23.736   5.574
 4406POPC   PO458392  39.564  23.432   5.361
 4406POPC   GL158393  39.454  23.586   5.793
 4406POPC   GL258394  39.309  23.928   5.903
 4406POPC   C1A58395  39.248  23.501   6.197
 4406POPC   D2A58396  39.173  23.644   6.599
 4406POPC   C3A58397  39.123  23.415   6.984
 4406POPC   C4A58398  39.245  23.711   7.310
 4406POPC   C1B58399  38.936  23.933   6.192
 4406POPC   C2B58400  38.777  24.038   6.572
 4406POPC   C3B58401  38.888  23.869   6.963
 4406POPC   C4B58402  38.694  23.707   7.287
 4407POPC   NC358403   4.665   1.778   5.410
 4407POPC   PO458404   5.265   1.986   5.297
 4407POPC   GL158405   5.235   2.055   5.746
 4407POPC   GL258406   4.868   2.015   5.841
 4407POPC   C1A58407   5.318   1.892   6.169
 4407POPC   D2A58408   5.203   1.786   6.608
 4407POPC   C3A58409   5.400   2.043   6.924
 4407POPC   C4A58410   5.206   2.206   7.282
 4407POPC   C1B58411   4.826   2.061   6.311
 4407POPC   C2B58412   4.886   2.159   6.764
 4407POPC   C3B58413   4.937   1.846   7.079
 4407POPC   C4B58414   5.106   1.472   7.214
 4408POPC   NC358415  42.565   2.747   5.272
 4408POPC   PO458416  43.184   2.575   5.387
 4408POPC   GL158417  43.141   2.396   5.799
 4408POPC   GL258418  42.784   2.482   5.768
 4408POPC   C1A58419  43.367   2.479   6.205
 4408POPC   D2A58420  43.280   2.666   6.611
 4408POPC   C3A58421  43.390   2.516   7.035
 4408POPC   C4A58422  43.325   2.724   7.466
 4408POPC   C1B58423  42.927   2.727   6.127
 4408POPC   C2B58424  42.797   2.790   6.551
 4408POPC   C3B58425  42.954   2.819   6.972
 4408POPC   C4B58426  42.857   2.881   7.377
 4409POPC   NC358427  40.395   1.847   5.471
 4409POPC   PO458428  39.758   1.945   5.633
 4409POPC   GL158429  39.844   1.679   5.924
 4409POPC   GL258430  40.150   1.566   5.886
 4409POPC   C1A58431  40.026   1.812   6.344
 4409POPC   D2A58432  40.019   2.164   6.647
 4409POPC   C3A58433  39.863   2.125   7.092
 4409POPC   C4A58434  39.716   2.357   7.497
 4409POPC   C1B58435  40.478   1.711   6.159
 4409POPC   C2B58436  40.504   1.976   6.536
 4409POPC   C3B58437  40.396   2.064   6.977
 4409POPC   C4B58438  40.366   1.755   7.275
 4410POPC   NC358439  39.412  36.472   5.500
 4410POPC   PO458440  38.898  36.051   5.236
 4410POPC   GL158441  39.208  36.043   5.675
 4410POPC   GL258442  39.237  36.302   5.940
 4410POPC   C1A58443  39.045  35.877   6.111
 4410POPC   D2A58444  39.027  36.042   6.535
 4410POPC   C3A58445  39.302  35.962   6.900
 4410POPC   C4A58446  39.286  36.032   7.359
 4410POPC   C1B58447  38.907  36.437   6.205
 4410POPC   C2B58448  38.701  36.437   6.589
 4410POPC   C3B58449  38.909  36.299   6.960
 4410POPC   C4B58450  38.816  36.248   7.359
 4411POPC   NC358451  18.606  33.749   5.300
 4411POPC   PO458452  19.213  33.704   5.269
 4411POPC   GL158453  18.993  33.860   5.671
 4411POPC   GL258454  18.753  33.594   5.802
 4411POPC   C1A58455  19.206  34.043   6.040
 4411POPC   D2A58456  19.349  33.904   6.450
 4411POPC   C3A58457  19.270  34.016   6.876
 4411POPC   C4A58458  19.393  33.651   7.111
 4411POPC   C1B58459  18.930  33.641   6.225
 4411POPC   C2B58460  19.021  33.564   6.674
 4411POPC   C3B58461  18.889  33.669   7.082
 4411POPC   C4B58462  18.687  33.379   7.342
 4412POPC   NC358463  39.050  20.222   5.242
 4412POPC   PO458464  39.331  19.585   5.532
 4412POPC   GL158465  39.320  19.840   5.897
 4412POPC   GL258466  39.027  19.995   5.762
 4412POPC   C1A58467  39.310  20.018   6.308
 4412POPC   D2A58468  39.420  19.892   6.711
 4412POPC   C3A58469  39.116  19.984   6.997
 4412POPC   C4A58470  39.137  20.178   7.384
 4412POPC   C1B58471  38.896  19.736   6.147
 4412POPC   C2B58472  38.938  19.701   6.583
 4412POPC   C3B58473  38.714  19.673   6.967
 4412POPC   C4B58474  38.874  19.727   7.385
 4413POPC   NC358475  15.617  21.179   5.439
 4413POPC   PO458476  16.276  21.457   5.558
 4413POPC   GL158477  16.133  21.317   5.946
 4413POPC   GL258478  15.885  21.075   5.893
 4413POPC   C1A58479  15.894  21.311   6.348
 4413POPC   D2A58480  15.978  21.057   6.726
 4413POPC   C3A58481  16.011  21.385   7.037
 4413POPC   C4A58482  15.833  21.757   7.247
 4413POPC   C1B58483  15.670  20.865   6.236
 4413POPC   C2B58484  15.487  21.004   6.628
 4413POPC   C3B58485  15.486  21.137   7.071
 4413POPC   C4B58486  15.491  20.998   7.537
 4414POPC   NC358487  34.395  32.158   5.276
 4414POPC   PO458488  34.748  32.761   5.354
 4414POPC   GL158489  34.609  32.463   5.712
 4414POPC   GL258490  34.664  32.159   5.739
 4414POPC   C1A58491  34.440  32.329   6.169
 4414POPC   D2A58492  34.251  32.206   6.592
 4414POPC   C3A58493  34.369  32.361   7.014
 4414POPC   C4A58494  34.442  32.581   7.462
 4414POPC   C1B58495  34.940  32.379   6.100
 4414POPC   C2B58496  35.060  32.244   6.526
 4414POPC   C3B58497  34.762  32.085   6.825
 4414POPC   C4B58498  34.735  31.991   7.271
 4415POPC   NC358499  11.952   7.647   5.470
 4415POPC   PO458500  12.088   6.982   5.354
 4415POPC   GL158501  11.914   7.163   5.733
 4415POPC   GL258502  12.202   7.385   5.860
 4415POPC   C1A58503  11.856   7.187   6.187
 4415POPC   D2A58504  12.030   7.524   6.434
 4415POPC   C3A58505  12.063   7.454   6.882
 4415POPC   C4A58506  11.818   7.527   7.272
 4415POPC   C1B58507  12.510   7.505   6.206
 4415POPC   C2B58508  12.683   7.503   6.641
 4415POPC   C3B58509  12.590   7.448   7.065
 4415POPC   C4B58510  12.294   7.696   7.280
 4416POPC   NC358511  12.640  41.572   5.100
 4416POPC   PO458512  12.016  41.616   5.351
 4416POPC   GL158513  11.857  41.640   5.751
 4416POPC   GL258514  11.894  41.287   5.807
 4416POPC   C1A58515  12.071  41.814   6.114
 4416POPC   D2A58516  12.402  41.854   6.414
 4416POPC   C3A58517  12.284  41.842   6.857
 4416POPC   C4A58518  11.947  41.769   7.161
 4416POPC   C1B58519  11.744  41.429   6.199
 4416POPC   C2B58520  11.979  41.540   6.561
 4416POPC   C3B58521  12.125  41.350   6.918
 4416POPC   C4B58522  11.925  41.189   7.246
 4417POPC   NC358523   9.275  37.176   5.071
 4417POPC   PO458524   8.681  37.110   5.465
 4417POPC   GL158525   8.840  36.962   5.828
 4417POPC   GL258526   8.670  36.674   5.777
 4417POPC   C1A58527   8.928  37.021   6.274
 4417POPC   D2A58528   9.121  37.013   6.702
 4417POPC   C3A58529   8.862  36.956   7.095
 4417POPC   C4A58530   8.942  36.940   7.561
 4417POPC   C1B58531   8.758  36.547   6.182
 4417POPC   C2B58532   8.688  36.713   6.621
 4417POPC   C3B58533   8.617  36.484   7.005
 4417POPC   C4B58534   8.671  36.543   7.416
 4418POPC   NC358535  36.643   8.214   5.478
 4418POPC   PO458536  37.188   8.630   5.391
 4418POPC   GL158537  36.946   8.490   5.797
 4418POPC   GL258538  36.787   8.196   5.980
 4418POPC   C1A58539  37.050   8.507   6.264
 4418POPC   D2A58540  36.776   8.374   6.616
 4418POPC   C3A58541  36.977   8.282   6.994
 4418POPC   C4A58542  37.043   8.345   7.402
 4418POPC   C1B58543  37.003   7.999   6.340
 4418POPC   C2B58544  36.878   7.841   6.748
 4418POPC   C3B58545  36.782   7.857   7.200
 4418POPC   C4B58546  36.992   7.880   7.626
 4419POPC   NC358547  15.747  38.356   5.423
 4419POPC   PO458548  16.371  38.749   5.426
 4419POPC   GL158549  16.051  38.633   5.742
 4419POPC   GL258550  16.076  38.294   5.815
 4419POPC   C1A58551  15.924  38.579   6.191
 4419POPC   D2A58552  15.701  38.468   6.559
 4419POPC   C3A58553  15.977  38.587   6.923
 4419POPC   C4A58554  15.912  38.655   7.382
 4419POPC   C1B58555  15.901  38.055   6.149
 4419POPC   C2B58556  15.712  37.948   6.535
 4419POPC   C3B58557  15.767  38.104   6.935
 4419POPC   C4B58558  16.068  38.178   7.254
 4420POPC   NC358559  20.587  37.054   4.893
 4420POPC   PO458560  21.097  37.008   5.372
 4420POPC   GL158561  20.870  36.814   5.730
 4420POPC   GL258562  20.591  37.072   5.813
 4420POPC   C1A58563  20.718  36.723   6.182
 4420POPC   D2A58564  20.858  36.665   6.618
 4420POPC   C3A58565  20.684  36.725   7.050
 4420POPC   C4A58566  20.924  36.555   7.409
 4420POPC   C1B58567  20.340  37.091   6.210
 4420POPC   C2B58568  20.398  36.948   6.626
 4420POPC   C3B58569  20.329  37.143   6.999
 4420POPC   C4B58570  20.382  36.994   7.397
 4421POPC   NC358571  18.469  42.547   5.249
 4421POPC   PO458572  18.138  43.128   5.488
 4421POPC   GL158573  18.364  43.193   5.836
 4421POPC   GL258574  18.216  42.962   6.015
 4421POPC   C1A58575  18.299  43.405   6.226
 4421POPC   D2A58576  18.171  43.234   6.580
 4421POPC   C3A58577  18.186  43.431   6.962
 4421POPC   C4A58578  18.350  43.274   7.309
 4421POPC   C1B58579  18.299  42.727   6.370
 4421POPC   C2B58580  18.187  42.742   6.752
 4421POPC   C3B58581  18.330  42.807   7.112
 4421POPC   C4B58582  18.174  42.760   7.506
 4422POPC   NC358583  42.718   8.254   5.281
 4422POPC   PO458584  43.222   8.591   5.498
 4422POPC   GL158585  43.252   8.596   5.958
 4422POPC   GL258586  43.055   8.330   5.997
 4422POPC   C1A58587  43.369   8.618   6.407
 4422POPC   D2A58588  43.274   8.281   6.728
 4422POPC   C3A58589  43.101   8.267   7.162
 4422POPC   C4A58590  43.117   8.406   7.606
 4422POPC   C1B58591  42.874   8.517   6.398
 4422POPC   C2B58592  42.709   8.378   6.823
 4422POPC   C3B58593  42.553   8.288   7.275
 4422POPC   C4B58594  42.635   8.544   7.686
 4423POPC   NC358595  19.960  19.144   5.410
 4423POPC   PO458596  19.619  18.538   5.415
 4423POPC   GL158597  19.861  18.725   5.677
 4423POPC   GL258598  19.626  18.964   5.765
 4423POPC   C1A58599  19.939  18.750   6.112
 4423POPC   D2A58600  19.954  18.990   6.508
 4423POPC   C3A58601  19.901  18.776   6.896
 4423POPC   C4A58602  19.639  18.705   7.256
 4423POPC   C1B58603  19.676  19.197   6.117
 4423POPC   C2B58604  19.469  19.126   6.528
 4423POPC   C3B58605  19.662  19.278   6.892
 4423POPC   C4B58606  19.885  19.182   7.230
 4424POPC   NC358607  36.841  36.523   5.397
 4424POPC   PO458608  36.781  37.188   5.375
 4424POPC   GL158609  36.920  36.984   5.796
 4424POPC   GL258610  36.702  36.679   5.863
 4424POPC   C1A58611  37.016  36.835   6.250
 4424POPC   D2A58612  37.226  36.849   6.662
 4424POPC   C3A58613  36.966  36.928   7.018
 4424POPC   C4A58614  36.921  36.652   7.334
 4424POPC   C1B58615  36.648  36.468   6.257
 4424POPC   C2B58616  36.737  36.570   6.703
 4424POPC   C3B58617  36.485  36.631   7.112
 4424POPC   C4B58618  36.533  36.536   7.624
 4425POPC   NC358619  23.043  12.517   5.483
 4425POPC   PO458620  22.944  11.851   5.442
 4425POPC   GL158621  23.033  12.160   5.830
 4425POPC   GL258622  22.764  12.479   5.925
 4425POPC   C1A58623  23.092  12.292   6.259
 4425POPC   D2A58624  22.871  12.090   6.581
 4425POPC   C3A58625  23.156  12.127   6.904
 4425POPC   C4A58626  23.282  12.028   7.303
 4425POPC   C1B58627  22.622  12.499   6.349
 4425POPC   C2B58628  22.896  12.583   6.708
 4425POPC   C3B58629  22.876  12.468   7.138
 4425POPC   C4B58630  22.626  12.554   7.471
 4426POPC   NC358631  40.497  33.111   5.310
 4426POPC   PO458632  41.084  32.796   5.362
 4426POPC   GL158633  41.023  32.877   5.787
 4426POPC   GL258634  40.692  33.045   5.788
 4426POPC   C1A58635  40.910  32.921   6.233
 4426POPC   D2A58636  40.750  32.722   6.578
 4426POPC   C3A58637  40.835  32.887   6.955
 4426POPC   C4A58638  41.122  32.791   7.265
 4426POPC   C1B58639  40.514  33.272   6.156
 4426POPC   C2B58640  40.667  33.265   6.575
 4426POPC   C3B58641  40.557  33.371   6.998
 4426POPC   C4B58642  40.895  33.284   7.286
 4427POPC   NC358643  31.020  21.378   5.374
 4427POPC   PO458644  30.402  21.391   5.623
 4427POPC   GL158645  30.796  21.505   5.838
 4427POPC   GL258646  31.060  21.776   5.752
 4427POPC   C1A58647  30.739  21.295   6.214
 4427POPC   D2A58648  30.364  21.227   6.485
 4427POPC   C3A58649  30.499  21.245   6.904
 4427POPC   C4A58650  30.573  21.033   7.289
 4427POPC   C1B58651  31.076  21.721   6.229
 4427POPC   C2B58652  30.846  21.582   6.613
 4427POPC   C3B58653  30.874  21.561   7.036
 4427POPC   C4B58654  30.773  21.501   7.452
 4428POPC   NC358655  16.903  17.164   5.380
 4428POPC   PO458656  16.518  17.713   5.383
 4428POPC   GL158657  16.880  17.716   5.706
 4428POPC   GL258658  16.971  17.393   5.808
 4428POPC   C1A58659  16.905  17.714   6.181
 4428POPC   D2A58660  16.603  17.487   6.438
 4428POPC   C3A58661  16.591  17.477   6.896
 4428POPC   C4A58662  16.599  17.661   7.311
 4428POPC   C1B58663  16.969  17.210   6.180
 4428POPC   C2B58664  17.066  17.244   6.590
 4428POPC   C3B58665  17.020  17.031   6.956
 4428POPC   C4B58666  16.763  17.160   7.263
 4429POPC   NC358667  10.620  42.425   5.218
 4429POPC   PO458668  10.147  42.234   5.624
 4429POPC   GL158669  10.490  42.446   5.805
 4429POPC   GL258670  10.735  42.226   5.701
 4429POPC   C1A58671  10.500  42.507   6.269
 4429POPC   D2A58672  10.237  42.718   6.611
 4429POPC   C3A58673  10.217  42.512   7.034
 4429POPC   C4A58674  10.647  42.426   7.162
 4429POPC   C1B58675  10.851  42.122   6.140
 4429POPC   C2B58676  10.674  41.953   6.556
 4429POPC   C3B58677  10.819  41.935   7.010
 4429POPC   C4B58678  10.693  42.005   7.463
 4430POPC   NC358679  27.912   1.707   5.576
 4430POPC   PO458680  28.460   1.221   5.441
 4430POPC   GL158681  28.537   1.227   5.815
 4430POPC   GL258682  28.210   1.407   5.867
 4430POPC   C1A58683  28.495   1.105   6.213
 4430POPC   D2A58684  28.384   1.325   6.566
 4430POPC   C3A58685  28.564   1.215   6.931
 4430POPC   C4A58686  28.561   0.955   7.294
 4430POPC   C1B58687  28.081   1.731   6.202
 4430POPC   C2B58688  28.010   1.731   6.634
 4430POPC   C3B58689  28.074   1.444   6.945
 4430POPC   C4B58690  28.281   1.397   7.303
 4431POPC   NC358691  43.139   9.894   5.309
 4431POPC   PO458692  42.452  10.000   5.519
 4431POPC   GL158693  42.883  10.035   5.741
 4431POPC   GL258694  43.136   9.744   5.811
 4431POPC   C1A58695  43.147  10.137   6.140
 4431POPC   D2A58696  43.363   9.912   6.499
 4431POPC   C3A58697  43.327   9.965   6.982
 4431POPC   C4A58698  43.132   9.830   7.413
 4431POPC   C1B58699  43.029   9.542   6.225
 4431POPC   C2B58700  42.964   9.572   6.674
 4431POPC   C3B58701  43.151   9.477   7.042
 4431POPC   C4B58702  43.058   9.129   7.205
 4432POPC   NC358703  39.365  33.352   5.428
 4432POPC   PO458704  39.165  33.917   5.125
 4432POPC   GL158705  39.078  33.679   5.650
 4432POPC   GL258706  38.812  33.626   5.876
 4432POPC   C1A58707  39.218  33.735   6.129
 4432POPC   D2A58708  39.447  33.928   6.460
 4432POPC   C3A58709  39.358  33.706   6.846
 4432POPC   C4A58710  39.386  33.772   7.285
 4432POPC   C1B58711  38.703  33.619   6.311
 4432POPC   C2B58712  38.868  33.602   6.747
 4432POPC   C3B58713  38.901  33.820   7.154
 4432POPC   C4B58714  38.970  33.949   7.613
 4433POPC   NC358715   5.900  38.208   5.557
 4433POPC   PO458716   5.433  38.758   5.615
 4433POPC   GL158717   5.692  38.565   5.888
 4433POPC   GL258718   5.996  38.694   5.887
 4433POPC   C1A58719   5.699  38.728   6.315
 4433POPC   D2A58720   5.465  38.659   6.672
 4433POPC   C3A58721   5.712  38.482   6.982
 4433POPC   C4A58722   5.868  38.344   7.362
 4433POPC   C1B58723   6.059  38.369   6.243
 4433POPC   C2B58724   6.128  38.317   6.705
 4433POPC   C3B58725   6.269  38.520   7.082
 4433POPC   C4B58726   6.052  38.820   7.365
 4434POPC   NC358727  20.978  16.159   5.384
 4434POPC   PO458728  20.495  15.648   5.416
 4434POPC   GL158729  20.593  15.910   5.797
 4434POPC   GL258730  20.360  16.215   5.770
 4434POPC   C1A58731  20.832  15.864   6.225
 4434POPC   D2A58732  21.089  15.913   6.620
 4434POPC   C3A58733  20.940  16.056   7.031
 4434POPC   C4A58734  20.803  15.915   7.455
 4434POPC   C1B58735  20.457  16.228   6.219
 4434POPC   C2B58736  20.554  16.099   6.653
 4434POPC   C3B58737  20.431  16.079   7.106
 4434POPC   C4B58738  20.371  16.213   7.525
 4435POPC   NC358739  37.411  41.775   5.458
 4435POPC   PO458740  38.008  42.122   5.412
 4435POPC   GL158741  37.856  41.888   5.792
 4435POPC   GL258742  37.664  41.530   5.828
 4435POPC   C1A58743  37.735  41.836   6.217
 4435POPC   D2A58744  37.686  41.636   6.589
 4435POPC   C3A58745  37.559  41.863   6.924
 4435POPC   C4A58746  37.693  41.694   7.263
 4435POPC   C1B58747  37.736  41.264   6.222
 4435POPC   C2B58748  37.574  41.143   6.647
 4435POPC   C3B58749  37.703  41.201   7.092
 4435POPC   C4B58750  37.526  41.275   7.516
 4436POPC   NC358751   4.798  33.326   5.487
 4436POPC   PO458752   4.456  33.930   5.341
 4436POPC   GL158753   4.398  33.812   5.780
 4436POPC   GL258754   4.158  33.552   5.733
 4436POPC   C1A58755   4.423  33.695   6.237
 4436POPC   D2A58756   4.492  33.433   6.622
 4436POPC   C3A58757   4.553  33.648   7.001
 4436POPC   C4A58758   4.487  34.035   7.252
 4436POPC   C1B58759   3.940  33.676   6.086
 4436POPC   C2B58760   3.905  33.804   6.474
 4436POPC   C3B58761   4.126  33.884   6.842
 4436POPC   C4B58762   4.050  33.768   7.250
 4437POPC   NC358763  37.820  44.801   5.233
 4437POPC   PO458764  37.448  44.416   5.548
 4437POPC   GL158765  37.749  44.562   5.825
 4437POPC   GL258766  37.931  44.844   5.728
 4437POPC   C1A58767  37.648  44.803   6.176
 4437POPC   D2A58768  37.458  44.718   6.543
 4437POPC   C3A58769  37.648  44.803   6.900
 4437POPC   C4A58770  37.664  44.415   7.101
 4437POPC   C1B58771  38.108  44.997   6.108
 4437POPC   C2B58772  37.947   0.061   6.521
 4437POPC   C3B58773  38.114   0.013   6.915
 4437POPC   C4B58774  38.056  44.740   7.217
 4438POPC   NC358775   4.710  12.162   5.112
 4438POPC   PO458776   5.330  11.896   5.303
 4438POPC   GL158777   5.226  12.052   5.724
 4438POPC   GL258778   4.855  12.086   5.740
 4438POPC   C1A58779   5.214  11.845   6.151
 4438POPC   D2A58780   5.494  11.752   6.534
 4438POPC   C3A58781   5.317  11.887   6.933
 4438POPC   C4A58782   5.274  12.276   7.167
 4438POPC   C1B58783   4.764  12.184   6.203
 4438POPC   C2B58784   4.790  12.027   6.661
 4438POPC   C3B58785   4.836  11.913   7.128
 4438POPC   C4B58786   4.616  11.886   7.522
 4439POPC   NC358787  23.986  19.839   5.295
 4439POPC   PO458788  23.341  19.672   5.457
 4439POPC   GL158789  23.586  19.694   5.841
 4439POPC   GL258790  23.969  19.760   5.822
 4439POPC   C1A58791  23.669  19.929   6.214
 4439POPC   D2A58792  23.803  19.808   6.617
 4439POPC   C3A58793  23.540  19.801   6.926
 4439POPC   C4A58794  23.589  19.945   7.300
 4439POPC   C1B58795  23.984  19.528   6.230
 4439POPC   C2B58796  24.138  19.436   6.680
 4439POPC   C3B58797  24.001  19.636   7.119
 4439POPC   C4B58798  23.804  19.547   7.557
 4440POPC   NC358799  21.705  10.381   5.535
 4440POPC   PO458800  21.096  10.620   5.472
 4440POPC   GL158801  21.232  10.674   5.861
 4440POPC   GL258802  21.197  11.028   5.936
 4440POPC   C1A58803  21.425  10.491   6.240
 4440POPC   D2A58804  21.223  10.463   6.632
 4440POPC   C3A58805  21.387  10.397   7.032
 4440POPC   C4A58806  21.195  10.714   7.291
 4440POPC   C1B58807  21.632  10.926   6.004
 4440POPC   C2B58808  21.849  10.764   6.356
 4440POPC   C3B58809  21.684  10.706   6.746
 4440POPC   C4B58810  21.697  10.788   7.167
 4441POPC   NC358811  10.963   3.480   5.470
 4441POPC   PO458812  10.360   3.725   5.199
 4441POPC   GL158813  10.433   3.608   5.657
 4441POPC   GL258814  10.306   3.267   5.700
 4441POPC   C1A58815  10.414   3.719   6.138
 4441POPC   D2A58816  10.595   3.731   6.586
 4441POPC   C3A58817  10.343   3.779   6.955
 4441POPC   C4A58818  10.526   3.695   7.346
 4441POPC   C1B58819  10.636   3.261   6.013
 4441POPC   C2B58820  10.686   3.217   6.438
 4441POPC   C3B58821  10.734   3.077   6.854
 4441POPC   C4B58822  10.505   3.204   7.193
 4442POPC   NC358823  36.228  28.802   5.623
 4442POPC   PO458824  35.662  28.788   5.165
 4442POPC   GL158825  35.722  28.939   5.660
 4442POPC   GL258826  35.938  29.245   5.734
 4442POPC   C1A58827  35.911  28.944   6.151
 4442POPC   D2A58828  35.891  29.218   6.545
 4442POPC   C3A58829  35.865  29.053   6.977
 4442POPC   C4A58830  35.850  29.258   7.400
 4442POPC   C1B58831  36.187  29.394   6.146
 4442POPC   C2B58832  36.375  29.350   6.617
 4442POPC   C3B58833  36.257  29.389   7.086
 4442POPC   C4B58834  36.335  29.465   7.567
 4443POPC   NC358835  27.751   2.620   5.436
 4443POPC   PO458836  27.373   3.222   5.454
 4443POPC   GL158837  27.536   3.039   5.836
 4443POPC   GL258838  27.874   3.040   5.777
 4443POPC   C1A58839  27.655   2.824   6.257
 4443POPC   D2A58840  27.459   2.913   6.683
 4443POPC   C3A58841  27.581   2.736   7.087
 4443POPC   C4A58842  27.387   2.387   7.334
 4443POPC   C1B58843  28.044   3.143   6.213
 4443POPC   C2B58844  27.869   3.210   6.650
 4443POPC   C3B58845  28.025   3.147   7.086
 4443POPC   C4B58846  27.944   2.883   7.478
 4444POPC   NC358847  37.578   1.427   5.590
 4444POPC   PO458848  38.125   1.827   5.413
 4444POPC   GL158849  37.869   1.905   5.784
 4444POPC   GL258850  37.615   2.194   5.745
 4444POPC   C1A58851  37.787   1.858   6.234
 4444POPC   D2A58852  37.962   1.807   6.642
 4444POPC   C3A58853  37.621   1.837   6.970
 4444POPC   C4A58854  37.642   1.699   7.392
 4444POPC   C1B58855  37.867   2.332   6.098
 4444POPC   C2B58856  37.841   2.301   6.558
 4444POPC   C3B58857  37.992   2.191   6.972
 4444POPC   C4B58858  37.749   2.194   7.315
 4445POPC   NC358859  10.725  38.221   5.494
 4445POPC   PO458860  10.457  38.862   5.332
 4445POPC   GL158861  10.581  38.857   5.782
 4445POPC   GL258862  10.464  38.532   5.801
 4445POPC   C1A58863  10.432  38.850   6.228
 4445POPC   D2A58864  10.681  38.777   6.595
 4445POPC   C3A58865  10.579  38.640   7.007
 4445POPC   C4A58866  10.806  38.361   7.265
 4445POPC   C1B58867  10.440  38.270   6.155
 4445POPC   C2B58868  10.441  38.319   6.603
 4445POPC   C3B58869  10.395  38.147   7.014
 4445POPC   C4B58870  10.511  37.988   7.409
 4446POPC   NC358871  23.897  22.528   5.502
 4446POPC   PO458872  23.613  23.143   5.554
 4446POPC   GL158873  23.748  22.886   5.843
 4446POPC   GL258874  23.532  22.671   5.859
 4446POPC   C1A58875  23.887  22.773   6.231
 4446POPC   D2A58876  24.034  22.929   6.592
 4446POPC   C3A58877  23.837  22.874   6.931
 4446POPC   C4A58878  23.752  23.178   7.212
 4446POPC   C1B58879  23.319  22.836   6.168
 4446POPC   C2B58880  23.489  22.798   6.563
 4446POPC   C3B58881  23.342  22.801   6.981
 4446POPC   C4B58882  23.469  22.795   7.430
 4447POPC   NC358883   9.867  39.615   5.455
 4447POPC   PO458884   9.365  40.114   5.309
 4447POPC   GL158885   9.526  40.231   5.737
 4447POPC   GL258886   9.717  39.914   5.876
 4447POPC   C1A58887   9.499  40.276   6.197
 4447POPC   D2A58888   9.615  40.032   6.573
 4447POPC   C3A58889   9.842  40.257   6.902
 4447POPC   C4A58890   9.884  40.279   7.345
 4447POPC   C1B58891   9.834  39.656   6.263
 4447POPC   C2B58892   9.877  39.610   6.737
 4447POPC   C3B58893   9.772  39.665   7.191
 4447POPC   C4B58894  10.021  39.822   7.547
 4448POPC   NC358895  24.832  17.249   5.218
 4448POPC   PO458896  24.296  17.655   5.329
 4448POPC   GL158897  24.389  17.468   5.723
 4448POPC   GL258898  24.745  17.352   5.741
 4448POPC   C1A58899  24.245  17.501   6.164
 4448POPC   D2A58900  24.434  17.639   6.536
 4448POPC   C3A58901  24.428  17.429   6.915
 4448POPC   C4A58902  24.209  17.424   7.280
 4448POPC   C1B58903  24.932  17.358   6.181
 4448POPC   C2B58904  24.844  17.354   6.614
 4448POPC   C3B58905  24.937  17.395   7.041
 4448POPC   C4B58906  24.667  17.246   7.367
 4449POPC   NC358907  20.722  28.551   5.287
 4449POPC   PO458908  20.813  28.130   5.810
 4449POPC   GL158909  20.581  28.501   5.923
 4449POPC   GL258910  20.300  28.576   5.682
 4449POPC   C1A58911  20.626  28.532   6.385
 4449POPC   D2A58912  20.558  28.343   6.788
 4449POPC   C3A58913  20.843  28.332   7.131
 4449POPC   C4A58914  20.706  28.555   7.512
 4449POPC   C1B58915  20.122  28.312   6.064
 4449POPC   C2B58916  20.089  28.218   6.521
 4449POPC   C3B58917  20.199  28.000   6.916
 4449POPC   C4B58918  20.417  28.144   7.295
 4450POPC   NC358919  20.191  30.521   5.550
 4450POPC   PO458920  20.742  30.894   5.464
 4450POPC   GL158921  20.586  30.745   5.858
 4450POPC   GL258922  20.740  30.426   5.763
 4450POPC   C1A58923  20.403  30.872   6.286
 4450POPC   D2A58924  20.259  30.793   6.720
 4450POPC   C3A58925  20.194  30.876   7.162
 4450POPC   C4A58926  20.402  30.677   7.476
 4450POPC   C1B58927  20.894  30.470   6.179
 4450POPC   C2B58928  20.736  30.580   6.571
 4450POPC   C3B58929  20.689  30.698   6.999
 4450POPC   C4B58930  20.929  30.710   7.364
 4451POPC   NC358931  41.534  28.836   5.362
 4451POPC   PO458932  41.770  29.515   5.456
 4451POPC   GL158933  41.692  29.215   5.801
 4451POPC   GL258934  41.521  28.895   5.848
 4451POPC   C1A58935  41.552  29.215   6.239
 4451POPC   D2A58936  41.567  29.482   6.584
 4451POPC   C3A58937  41.476  29.238   6.939
 4451POPC   C4A58938  41.531  29.020   7.326
 4451POPC   C1B58939  41.828  28.786   6.143
 4451POPC   C2B58940  41.993  28.858   6.550
 4451POPC   C3B58941  41.767  28.811   6.907
 4451POPC   C4B58942  41.854  28.633   7.277
 4452POPC   NC358943  15.081  23.978   5.273
 4452POPC   PO458944  15.640  23.931   5.593
 4452POPC   GL158945  15.231  23.865   5.805
 4452POPC   GL258946  15.186  23.502   5.810
 4452POPC   C1A58947  14.978  23.920   6.210
 4452POPC   D2A58948  15.078  24.060   6.658
 4452POPC   C3A58949  14.921  23.853   7.042
 4452POPC   C4A58950  15.320  23.787   7.252
 4452POPC   C1B58951  15.288  23.502   6.259
 4452POPC   C2B58952  15.078  23.519   6.681
 4452POPC   C3B58953  15.068  23.352   7.114
 4452POPC   C4B58954  15.341  23.343   7.474
 4453POPC   NC358955   9.934  18.433   5.368
 4453POPC   PO458956   9.792  17.889   5.412
 4453POPC   GL158957   9.727  18.179   5.763
 4453POPC   GL258958   9.393  18.184   5.874
 4453POPC   C1A58959   9.748  18.404   6.178
 4453POPC   D2A58960   9.715  18.304   6.633
 4453POPC   C3A58961   9.933  18.422   7.024
 4453POPC   C4A58962  10.275  18.281   7.323
 4453POPC   C1B58963   9.351  17.969   6.295
 4453POPC   C2B58964   9.501  17.858   6.724
 4453POPC   C3B58965   9.475  18.136   7.093
 4453POPC   C4B58966   9.258  18.272   7.501
 4454POPC   NC358967  21.668  16.468   5.496
 4454POPC   PO458968  21.490  15.746   5.413
 4454POPC   GL158969  21.248  15.957   5.770
 4454POPC   GL258970  21.567  15.957   5.896
 4454POPC   C1A58971  21.244  16.186   6.193
 4454POPC   D2A58972  21.578  16.068   6.481
 4454POPC   C3A58973  21.494  16.038   6.917
 4454POPC   C4A58974  21.330  16.307   7.234
 4454POPC   C1B58975  21.847  15.749   6.191
 4454POPC   C2B58976  22.003  15.800   6.613
 4454POPC   C3B58977  21.880  15.748   7.021
 4454POPC   C4B58978  21.636  15.931   7.404
 4455POPC   NC358979  25.442  19.697   5.399
 4455POPC   PO458980  25.504  20.367   5.577
 4455POPC   GL158981  25.341  20.031   5.832
 4455POPC   GL258982  25.364  19.683   5.919
 4455POPC   C1A58983  25.084  20.022   6.197
 4455POPC   D2A58984  25.096  19.860   6.602
 4455POPC   C3A58985  25.263  20.092   6.956
 4455POPC   C4A58986  25.158  20.052   7.405
 4455POPC   C1B58987  25.073  19.449   6.216
 4455POPC   C2B58988  24.887  19.410   6.656
 4455POPC   C3B58989  25.197  19.433   6.978
 4455POPC   C4B58990  25.450  19.678   7.249
 4456POPC   NC358991  10.097  38.890   5.622
 4456POPC   PO458992   9.535  39.237   5.429
 4456POPC   GL158993   9.620  39.045   5.784
 4456POPC   GL258994   9.858  39.290   5.884
 4456POPC   C1A58995   9.401  39.172   6.137
 4456POPC   D2A58996   9.465  39.377   6.521
 4456POPC   C3A58997   9.477  39.227   6.959
 4456POPC   C4A58998   9.705  38.895   7.174
 4456POPC   C1B58999   9.901  39.025   6.266
 4456POPC   C2B59000  10.090  38.943   6.684
 4456POPC   C3B59001  10.052  39.232   7.045
 4456POPC   C4B59002   9.984  39.298   7.494
 4457POPC   NC359003  31.534   9.086   5.396
 4457POPC   PO459004  31.670   8.401   5.276
 4457POPC   GL159005  31.666   8.659   5.679
 4457POPC   GL259006  31.372   8.849   5.833
 4457POPC   C1A59007  31.850   8.866   6.073
 4457POPC   D2A59008  31.646   9.057   6.459
 4457POPC   C3A59009  31.805   9.074   6.921
 4457POPC   C4A59010  31.684   9.030   7.368
 4457POPC   C1B59011  31.147   8.853   6.244
 4457POPC   C2B59012  31.165   8.661   6.686
 4457POPC   C3B59013  31.277   8.835   7.121
 4457POPC   C4B59014  31.284   8.763   7.601
 4458POPC   NC359015  34.500  19.464   5.532
 4458POPC   PO459016  34.355  20.110   5.247
 4458POPC   GL159017  34.304  19.930   5.676
 4458POPC   GL259018  34.662  19.887   5.783
 4458POPC   C1A59019  34.298  19.917   6.147
 4458POPC   D2A59020  34.434  19.635   6.488
 4458POPC   C3A59021  34.499  19.810   6.884
 4458POPC   C4A59022  34.493  19.614   7.285
 4458POPC   C1B59023  34.842  19.839   6.224
 4458POPC   C2B59024  34.944  19.705   6.624
 4458POPC   C3B59025  34.952  19.647   7.047
 4458POPC   C4B59026  34.831  19.991   7.270
 4459POPC   NC359027  16.265  21.914   5.643
 4459POPC   PO459028  15.722  22.331   5.354
 4459POPC   GL159029  15.851  22.213   5.815
 4459POPC   GL259030  16.162  22.359   5.849
 4459POPC   C1A59031  15.920  21.894   6.212
 4459POPC   D2A59032  15.942  21.816   6.698
 4459POPC   C3A59033  15.847  22.192   6.983
 4459POPC   C4A59034  15.537  22.460   7.160
 4459POPC   C1B59035  16.300  22.247   6.253
 4459POPC   C2B59036  16.182  22.395   6.646
 4459POPC   C3B59037  16.334  22.291   7.042
 4459POPC   C4B59038  16.157  22.148   7.447
 4460POPC   NC359039  42.336  32.781   5.545
 4460POPC   PO459040  42.746  33.251   5.503
 4460POPC   GL159041  42.688  33.031   5.876
 4460POPC   GL259042  42.352  33.166   5.907
 4460POPC   C1A59043  42.606  33.126   6.336
 4460POPC   D2A59044  42.198  33.207   6.558
 4460POPC   C3A59045  42.285  33.332   7.005
 4460POPC   C4A59046  42.708  33.167   7.153
 4460POPC   C1B59047  42.277  32.789   6.178
 4460POPC   C2B59048  42.119  32.686   6.590
 4460POPC   C3B59049  42.350  32.839   6.897
 4460POPC   C4B59050  42.345  32.862   7.294
 4461POPC   NC359051  38.146   0.581   5.055
 4461POPC   PO459052  38.287   0.190   5.536
 4461POPC   GL159053  38.461   0.368   5.878
 4461POPC   GL259054  38.789   0.485   5.834
 4461POPC   C1A59055  38.301   0.415   6.284
 4461POPC   D2A59056  38.446   0.291   6.645
 4461POPC   C3A59057  38.290   0.471   7.008
 4461POPC   C4A59058  38.273   0.248   7.402
 4461POPC   C1B59059  38.658   0.735   6.198
 4461POPC   C2B59060  38.466   0.804   6.621
 4461POPC   C3B59061  38.665   0.839   7.011
 4461POPC   C4B59062  38.653   0.596   7.369
 4462POPC   NC359063   0.482  31.795   5.322
 4462POPC   PO459064   0.931  31.395   5.336
 4462POPC   GL159065   0.644  31.399   5.763
 4462POPC   GL259066   0.448  31.704   5.816
 4462POPC   C1A59067   0.441  31.375   6.200
 4462POPC   D2A59068   0.341  31.558   6.630
 4462POPC   C3A59069   0.506  31.339   7.032
 4462POPC   C4A59070   0.747  31.480   7.426
 4462POPC   C1B59071   0.233  31.884   6.159
 4462POPC   C2B59072  44.962  31.966   6.478
 4462POPC   C3B59073  44.872  31.716   6.804
 4462POPC   C4B59074   0.123  31.644   7.140
 4463POPC   NC359075  34.641  29.453   5.366
 4463POPC   PO459076  34.015  29.208   5.451
 4463POPC   GL159077  34.374  29.289   5.809
 4463POPC   GL259078  34.759  29.402   5.857
 4463POPC   C1A59079  34.501  29.203   6.262
 4463POPC   D2A59080  34.614  29.194   6.713
 4463POPC   C3A59081  34.524  28.976   7.123
 4463POPC   C4A59082  34.465  28.772   7.541
 4463POPC   C1B59083  34.895  29.541   6.296
 4463POPC   C2B59084  34.903  29.609   6.737
 4463POPC   C3B59085  34.620  29.520   7.107
 4463POPC   C4B59086  34.713  29.295   7.502
 4464POPC   NC359087  33.672  17.462   5.449
 4464POPC   PO459088  34.194  17.061   5.541
 4464POPC   GL159089  33.999  17.293   5.845
 4464POPC   GL259090  33.670  17.141   5.889
 4464POPC   C1A59091  33.983  17.344   6.291
 4464POPC   D2A59092  34.150  17.310   6.707
 4464POPC   C3A59093  33.906  17.531   7.018
 4464POPC   C4A59094  33.995  17.917   7.182
 4464POPC   C1B59095  33.618  16.991   6.341
 4464POPC   C2B59096  33.636  17.167   6.768
 4464POPC   C3B59097  33.701  17.097   7.237
 4464POPC   C4B59098  33.663  17.312   7.675
 4465POPC   NC359099   6.656  28.454   5.399
 4465POPC   PO459100   6.311  27.860   5.322
 4465POPC   GL159101   6.635  28.039   5.705
 4465POPC   GL259102   6.869  28.384   5.834
 4465POPC   C1A59103   6.584  28.139   6.142
 4465POPC   D2A59104   6.553  27.950   6.515
 4465POPC   C3A59105   6.645  28.150   6.882
 4465POPC   C4A59106   6.566  27.992   7.278
 4465POPC   C1B59107   7.064  28.317   6.246
 4465POPC   C2B59108   6.825  28.495   6.528
 4465POPC   C3B59109   6.790  28.654   6.905
 4465POPC   C4B59110   6.838  28.441   7.283
 4466POPC   NC359111  41.863  44.917   5.271
 4466POPC   PO459112  41.531  44.367   5.459
 4466POPC   GL159113  41.652  44.668   5.780
 4466POPC   GL259114  41.546   0.013   5.687
 4466POPC   C1A59115  41.527  44.612   6.228
 4466POPC   D2A59116  41.548  44.685   6.670
 4466POPC   C3A59117  41.281  44.495   6.938
 4466POPC   C4A59118  41.315  44.287   7.332
 4466POPC   C1B59119  41.303   0.071   6.081
 4466POPC   C2B59120  41.410   0.228   6.496
 4466POPC   C3B59121  41.511   0.154   6.921
 4466POPC   C4B59122  41.614  44.829   7.184
 4467POPC   NC359123  19.924  26.479   5.508
 4467POPC   PO459124  19.886  27.141   5.583
 4467POPC   GL159125  19.826  26.847   5.881
 4467POPC   GL259126  19.546  26.679   5.770
 4467POPC   C1A59127  19.941  26.856   6.304
 4467POPC   D2A59128  19.817  27.134   6.639
 4467POPC   C3A59129  19.972  26.943   6.988
 4467POPC   C4A59130  20.215  26.603   7.113
 4467POPC   C1B59131  19.503  26.586   6.183
 4467POPC   C2B59132  19.437  26.605   6.611
 4467POPC   C3B59133  19.644  26.520   7.020
 4467POPC   C4B59134  19.444  26.469   7.444
 4468POPC   NC359135  21.249   9.528   5.280
 4468POPC   PO459136  21.783   9.897   5.400
 4468POPC   GL159137  21.501   9.618   5.720
 4468POPC   GL259138  21.084   9.609   5.743
 4468POPC   C1A59139  21.372   9.664   6.153
 4468POPC   D2A59140  21.357   9.999   6.460
 4468POPC   C3A59141  21.151   9.961   6.854
 4468POPC   C4A59142  21.366   9.814   7.214
 4468POPC   C1B59143  20.882   9.476   6.124
 4468POPC   C2B59144  21.052   9.558   6.538
 4468POPC   C3B59145  21.143   9.427   6.914
 4468POPC   C4B59146  20.964   9.487   7.287
 4469POPC   NC359147  36.999  44.326   5.550
 4469POPC   PO459148  36.670  43.803   5.288
 4469POPC   GL159149  36.660  43.994   5.802
 4469POPC   GL259150  36.987  44.124   6.017
 4469POPC   C1A59151  36.656  43.865   6.277
 4469POPC   D2A59152  36.933  43.895   6.668
 4469POPC   C3A59153  36.825  43.694   7.083
 4469POPC   C4A59154  36.812  43.694   7.570
 4469POPC   C1B59155  36.661  44.377   6.237
 4469POPC   C2B59156  36.642  44.458   6.708
 4469POPC   C3B59157  36.834  44.210   7.092
 4469POPC   C4B59158  37.230  44.318   7.391
 4470POPC   NC359159  33.994  29.669   5.395
 4470POPC   PO459160  33.720  30.200   5.586
 4470POPC   GL159161  34.016  29.993   5.813
 4470POPC   GL259162  33.994  29.633   5.892
 4470POPC   C1A59163  34.052  30.047   6.242
 4470POPC   D2A59164  34.216  30.146   6.612
 4470POPC   C3A59165  33.888  30.319   6.822
 4470POPC   C4A59166  33.824  30.200   7.218
 4470POPC   C1B59167  33.990  29.538   6.322
 4470POPC   C2B59168  33.847  29.787   6.690
 4470POPC   C3B59169  33.689  29.722   7.129
 4470POPC   C4B59170  33.832  29.597   7.543
 4471POPC   NC359171  10.352  22.510   5.529
 4471POPC   PO459172  10.797  21.964   5.523
 4471POPC   GL159173  10.547  22.140   5.845
 4471POPC   GL259174  10.367  21.894   5.947
 4471POPC   C1A59175  10.470  22.238   6.288
 4471POPC   D2A59176  10.631  22.493   6.581
 4471POPC   C3A59177  10.707  22.357   6.958
 4471POPC   C4A59178  10.548  22.498   7.362
 4471POPC   C1B59179  10.697  21.765   6.201
 4471POPC   C2B59180  10.839  21.984   6.572
 4471POPC   C3B59181  10.887  21.877   6.975
 4471POPC   C4B59182  10.578  21.918   7.268
 4472POPC   NC359183  16.411  41.794   5.498
 4472POPC   PO459184  16.775  41.247   5.550
 4472POPC   GL159185  16.553  41.360   5.911
 4472POPC   GL259186  16.526  41.733   5.994
 4472POPC   C1A59187  16.405  41.387   6.346
 4472POPC   D2A59188  16.459  41.784   6.542
 4472POPC   C3A59189  16.430  41.748   6.957
 4472POPC   C4A59190  16.706  41.532   7.165
 4472POPC   C1B59191  16.888  41.647   6.244
 4472POPC   C2B59192  17.064  41.792   6.620
 4472POPC   C3B59193  16.906  41.972   7.001
 4472POPC   C4B59194  16.902  41.941   7.442
 4473POPC   NC359195  42.832   8.735   5.699
 4473POPC   PO459196  42.991   9.376   5.497
 4473POPC   GL159197  43.047   9.188   5.842
 4473POPC   GL259198  43.358   9.044   5.746
 4473POPC   C1A59199  43.032   9.010   6.240
 4473POPC   D2A59200  43.135   9.086   6.635
 4473POPC   C3A59201  43.072   8.740   6.859
 4473POPC   C4A59202  42.840   8.684   7.225
 4473POPC   C1B59203  43.520   9.080   6.164
 4473POPC   C2B59204  43.665   8.998   6.581
 4473POPC   C3B59205  43.504   9.009   6.981
 4473POPC   C4B59206  43.372   8.714   7.293
 4474POPC   NC359207  23.338   8.879   5.550
 4474POPC   PO459208  22.704   9.232   5.449
 4474POPC   GL159209  22.884   8.984   5.806
 4474POPC   GL259210  23.214   9.098   5.982
 4474POPC   C1A59211  22.826   8.910   6.266
 4474POPC   D2A59212  23.049   8.750   6.650
 4474POPC   C3A59213  22.865   8.865   7.055
 4474POPC   C4A59214  22.700   9.189   7.314
 4474POPC   C1B59215  23.406   8.873   6.291
 4474POPC   C2B59216  23.506   8.989   6.713
 4474POPC   C3B59217  23.359   8.948   7.135
 4474POPC   C4B59218  23.163   9.146   7.513
 4475POPC   NC359219  32.275  10.133   5.364
 4475POPC   PO459220  31.768  10.457   5.153
 4475POPC   GL159221  32.034  10.470   5.648
 4475POPC   GL259222  32.451  10.469   5.740
 4475POPC   C1A59223  32.164  10.327   6.130
 4475POPC   D2A59224  32.386  10.451   6.563
 4475POPC   C3A59225  32.241  10.413   7.013
 4475POPC   C4A59226  32.169  10.753   7.314
 4475POPC   C1B59227  32.680  10.331   6.168
 4475POPC   C2B59228  32.856  10.209   6.574
 4475POPC   C3B59229  32.731  10.229   6.987
 4475POPC   C4B59230  32.653  10.472   7.338
 4476POPC   NC359231  22.875  17.473   5.393
 4476POPC   PO459232  22.803  18.137   5.433
 4476POPC   GL159233  22.796  17.804   5.786
 4476POPC   GL259234  23.032  17.502   5.857
 4476POPC   C1A59235  22.621  17.570   6.162
 4476POPC   D2A59236  22.801  17.523   6.585
 4476POPC   C3A59237  22.693  17.398   7.009
 4476POPC   C4A59238  22.767  17.551   7.409
 4476POPC   C1B59239  23.195  17.504   6.247
 4476POPC   C2B59240  23.246  17.288   6.637
 4476POPC   C3B59241  23.175  17.528   6.995
 4476POPC   C4B59242  23.281  17.607   7.389
 4477POPC   NC359243  43.861  31.693   5.452
 4477POPC   PO459244  44.304  31.199   5.441
 4477POPC   GL159245  44.215  31.482   5.785
 4477POPC   GL259246  43.875  31.333   5.856
 4477POPC   C1A59247  44.055  31.698   6.179
 4477POPC   D2A59248  44.008  31.580   6.618
 4477POPC   C3A59249  43.947  31.554   7.041
 4477POPC   C4A59250  43.891  31.500   7.454
 4477POPC   C1B59251  43.604  31.170   6.214
 4477POPC   C2B59252  43.597  31.188   6.677
 4477POPC   C3B59253  43.629  31.160   7.132
 4477POPC   C4B59254  43.937  30.981   7.346
 4478POPC   NC359255  22.186  26.910   5.651
 4478POPC   PO459256  21.623  26.750   5.274
 4478POPC   GL159257  21.338  26.650   5.641
 4478POPC   GL259258  21.495  26.926   5.793
 4478POPC   C1A59259  21.115  26.751   6.078
 4478POPC   D2A59260  21.337  26.725   6.489
 4478POPC   C3A59261  21.167  26.806   6.907
 4478POPC   C4A59262  21.251  26.636   7.290
 4478POPC   C1B59263  21.445  27.151   6.179
 4478POPC   C2B59264  21.505  27.305   6.580
 4478POPC   C3B59265  21.694  27.232   6.959
 4478POPC   C4B59266  21.414  27.165   7.257
 4479POPC   NC359267  37.484  11.552   5.461
 4479POPC   PO459268  37.777  10.958   5.351
 4479POPC   GL159269  37.706  11.203   5.776
 4479POPC   GL259270  37.991  11.395   5.925
 4479POPC   C1A59271  37.581  11.373   6.209
 4479POPC   D2A59272  37.578  11.186   6.636
 4479POPC   C3A59273  37.510  11.383   7.047
 4479POPC   C4A59274  37.366  11.642   7.373
 4479POPC   C1B59275  37.957  11.032   6.284
 4479POPC   C2B59276  37.957  10.809   6.725
 4479POPC   C3B59277  37.865  11.011   7.115
 4479POPC   C4B59278  38.021  11.433   7.164
 4480POPC   NC359279  38.590  42.812   5.214
 4480POPC   PO459280  38.787  42.229   5.603
 4480POPC   GL159281  38.482  42.156   5.926
 4480POPC   GL259282  38.208  42.365   5.880
 4480POPC   C1A59283  38.360  42.085   6.370
 4480POPC   D2A59284  38.554  41.997   6.797
 4480POPC   C3A59285  38.801  42.365   6.945
 4480POPC   C4A59286  38.733  42.612   7.296
 4480POPC   C1B59287  38.308  42.593   6.308
 4480POPC   C2B59288  38.306  42.468   6.776
 4480POPC   C3B59289  38.231  42.543   7.242
 4480POPC   C4B59290  37.932  42.471   7.612
 4481POPC   NC359291  26.128  36.978   5.163
 4481POPC   PO459292  25.725  36.476   5.337
 4481POPC   GL159293  25.944  36.777   5.630
 4481POPC   GL259294  25.780  37.095   5.771
 4481POPC   C1A59295  25.972  36.749   6.083
 4481POPC   D2A59296  25.804  36.831   6.491
 4481POPC   C3A59297  26.006  36.667   6.861
 4481POPC   C4A59298  26.150  36.808   7.233
 4481POPC   C1B59299  25.943  37.252   6.188
 4481POPC   C2B59300  25.909  37.344   6.629
 4481POPC   C3B59301  25.718  37.101   6.942
 4481POPC   C4B59302  25.782  37.108   7.375
 4482POPC   NC359303   5.345  27.386   5.333
 4482POPC   PO459304   5.016  26.926   5.400
 4482POPC   GL159305   4.968  27.344   5.698
 4482POPC   GL259306   5.195  27.679   5.709
 4482POPC   C1A59307   4.932  27.441   6.155
 4482POPC   D2A59308   5.019  27.652   6.560
 4482POPC   C3A59309   4.937  27.483   6.963
 4482POPC   C4A59310   5.007  27.672   7.348
 4482POPC   C1B59311   5.367  27.716   6.121
 4482POPC   C2B59312   5.526  27.645   6.532
 4482POPC   C3B59313   5.401  27.711   6.980
 4482POPC   C4B59314   5.421  28.021   7.329
 4483POPC   NC359315  34.624  43.923   5.489
 4483POPC   PO459316  33.944  43.696   5.389
 4483POPC   GL159317  34.200  43.788   5.765
 4483POPC   GL259318  34.344  44.131   5.893
 4483POPC   C1A59319  34.206  43.765   6.215
 4483POPC   D2A59320  34.280  44.119   6.451
 4483POPC   C3A59321  34.341  44.066   6.881
 4483POPC   C4A59322  34.685  44.002   7.190
 4483POPC   C1B59323  34.672  43.908   6.162
 4483POPC   C2B59324  34.734  43.850   6.604
 4483POPC   C3B59325  35.082  43.846   6.880
 4483POPC   C4B59326  35.030  43.606   7.271
 4484POPC   NC359327  15.165  42.628   5.340
 4484POPC   PO459328  15.118  41.872   5.220
 4484POPC   GL159329  15.219  42.098   5.605
 4484POPC   GL259330  15.428  42.383   5.690
 4484POPC   C1A59331  15.132  42.141   6.027
 4484POPC   D2A59332  15.070  42.301   6.427
 4484POPC   C3A59333  15.223  42.119   6.808
 4484POPC   C4A59334  15.129  42.229   7.228
 4484POPC   C1B59335  15.453  42.514   6.147
 4484POPC   C2B59336  15.544  42.506   6.578
 4484POPC   C3B59337  15.365  42.630   6.952
 4484POPC   C4B59338  15.449  42.872   7.296
 4485POPC   NC359339  28.936   5.701   5.498
 4485POPC   PO459340  29.521   5.879   5.334
 4485POPC   GL159341  29.324   6.026   5.749
 4485POPC   GL259342  29.007   5.925   5.937
 4485POPC   C1A59343  29.403   6.099   6.194
 4485POPC   D2A59344  29.108   5.931   6.476
 4485POPC   C3A59345  29.203   6.016   6.868
 4485POPC   C4A59346  29.443   5.797   7.103
 4485POPC   C1B59347  28.703   5.736   6.208
 4485POPC   C2B59348  28.748   5.534   6.616
 4485POPC   C3B59349  28.872   5.677   7.024
 4485POPC   C4B59350  28.908   5.624   7.497
 4486POPC   NC359351  35.862  36.329   5.461
 4486POPC   PO459352  36.471  36.275   5.492
 4486POPC   GL159353  36.312  35.966   5.824
 4486POPC   GL259354  35.955  35.868   5.835
 4486POPC   C1A59355  36.270  36.090   6.259
 4486POPC   D2A59356  36.533  36.103   6.619
 4486POPC   C3A59357  36.327  36.151   6.969
 4486POPC   C4A59358  36.266  35.847   7.256
 4486POPC   C1B59359  35.806  35.878   6.293
 4486POPC   C2B59360  35.874  36.133   6.682
 4486POPC   C3B59361  35.756  36.200   7.111
 4486POPC   C4B59362  35.831  35.958   7.480
 4487POPC   NC359363  22.341  21.682   5.348
 4487POPC   PO459364  22.088  21.087   5.281
 4487POPC   GL159365  22.253  21.264   5.674
 4487POPC   GL259366  22.345  21.603   5.840
 4487POPC   C1A59367  22.276  21.218   6.125
 4487POPC   D2A59368  21.971  21.232   6.434
 4487POPC   C3A59369  22.088  21.172   6.848
 4487POPC   C4A59370  21.771  21.117   7.168
 4487POPC   C1B59371  22.286  21.767   6.276
 4487POPC   C2B59372  22.233  21.662   6.738
 4487POPC   C3B59373  22.159  21.581   7.209
 4487POPC   C4B59374  22.387  21.767   7.631
 4488POPC   NC359375  36.312  14.404   5.157
 4488POPC   PO459376  36.034  14.791   5.604
 4488POPC   GL159377  36.206  14.520   5.851
 4488POPC   GL259378  36.400  14.258   5.670
 4488POPC   C1A59379  36.047  14.285   6.203
 4488POPC   D2A59380  35.889  14.315   6.625
 4488POPC   C3A59381  36.001  14.508   7.027
 4488POPC   C4A59382  35.907  14.144   7.241
 4488POPC   C1B59383  36.551  14.290   6.124
 4488POPC   C2B59384  36.427  14.407   6.527
 4488POPC   C3B59385  36.351  14.188   6.871
 4488POPC   C4B59386  36.434  14.200   7.281
 4489POPC   NC359387  18.577  32.750   5.261
 4489POPC   PO459388  18.433  33.354   5.483
 4489POPC   GL159389  18.378  33.070   5.805
 4489POPC   GL259390  18.152  32.853   5.813
 4489POPC   C1A59391  18.265  33.142   6.240
 4489POPC   D2A59392  18.494  33.278   6.599
 4489POPC   C3A59393  18.353  33.154   7.004
 4489POPC   C4A59394  18.194  33.491   7.187
 4489POPC   C1B59395  18.001  32.708   6.143
 4489POPC   C2B59396  17.856  32.712   6.546
 4489POPC   C3B59397  18.015  32.774   6.935
 4489POPC   C4B59398  18.116  32.637   7.286
 4490POPC   NC359399  43.099  35.095   5.184
 4490POPC   PO459400  43.434  35.678   5.466
 4490POPC   GL159401  43.188  35.527   5.802
 4490POPC   GL259402  43.188  35.159   5.700
 4490POPC   C1A59403  43.233  35.503   6.264
 4490POPC   D2A59404  43.101  35.619   6.704
 4490POPC   C3A59405  43.256  35.576   7.146
 4490POPC   C4A59406  42.989  35.558   7.538
 4490POPC   C1B59407  43.020  35.044   6.104
 4490POPC   C2B59408  43.116  35.084   6.541
 4490POPC   C3B59409  42.940  35.172   6.936
 4490POPC   C4B59410  43.070  35.114   7.323
 4491POPC   NC359411  14.364  25.100   5.172
 4491POPC   PO459412  14.580  25.750   5.160
 4491POPC   GL159413  14.272  25.441   5.536
 4491POPC   GL259414  14.289  25.053   5.664
 4491POPC   C1A59415  14.160  25.388   6.021
 4491POPC   D2A59416  14.178  25.542   6.457
 4491POPC   C3A59417  14.153  25.330   6.871
 4491POPC   C4A59418  14.230  25.429   7.312
 4491POPC   C1B59419  14.353  24.897   6.073
 4491POPC   C2B59420  14.289  25.028   6.475
 4491POPC   C3B59421  14.421  24.859   6.871
 4491POPC   C4B59422  14.443  24.955   7.286
 4492POPC   NC359423  43.818  37.096   5.388
 4492POPC   PO459424  44.108  36.505   5.292
 4492POPC   GL159425  44.056  36.679   5.719
 4492POPC   GL259426  44.072  36.335   5.836
 4492POPC   C1A59427  43.935  37.000   6.061
 4492POPC   D2A59428  43.626  36.983   6.426
 4492POPC   C3A59429  43.755  36.970   6.859
 4492POPC   C4A59430  43.882  37.199   7.240
 4492POPC   C1B59431  44.086  36.531   6.260
 4492POPC   C2B59432  44.149  36.901   6.518
 4492POPC   C3B59433  44.251  37.043   6.919
 4492POPC   C4B59434  44.116  36.729   7.247
 4493POPC   NC359435  29.514   3.443   5.211
 4493POPC   PO459436  29.966   3.898   5.250
 4493POPC   GL159437  29.842   3.790   5.704
 4493POPC   GL259438  29.757   3.438   5.731
 4493POPC   C1A59439  29.946   3.862   6.169
 4493POPC   D2A59440  30.195   3.918   6.577
 4493POPC   C3A59441  30.098   3.763   6.992
 4493POPC   C4A59442  29.943   3.791   7.430
 4493POPC   C1B59443  29.904   3.358   6.183
 4493POPC   C2B59444  30.039   3.398   6.624
 4493POPC   C3B59445  29.937   3.296   7.089
 4493POPC   C4B59446  30.224   3.378   7.451
 4494POPC   NC359447  13.737   6.320   5.498
 4494POPC   PO459448  13.894   6.956   5.498
 4494POPC   GL159449  13.562   6.762   5.796
 4494POPC   GL259450  13.285   7.057   5.888
 4494POPC   C1A59451  13.611   6.490   6.157
 4494POPC   D2A59452  13.820   6.620   6.532
 4494POPC   C3A59453  13.627   6.483   6.926
 4494POPC   C4A59454  13.814   6.571   7.313
 4494POPC   C1B59455  13.467   6.974   6.257
 4494POPC   C2B59456  13.370   6.858   6.658
 4494POPC   C3B59457  13.492   6.965   7.080
 4494POPC   C4B59458  13.364   6.761   7.439
 4495POPC   NC359459  26.241  17.218   5.354
 4495POPC   PO459460  25.971  17.824   5.611
 4495POPC   GL159461  26.031  17.422   5.844
 4495POPC   GL259462  25.774  17.230   5.649
 4495POPC   C1A59463  26.085  17.447   6.329
 4495POPC   D2A59464  26.350  17.584   6.727
 4495POPC   C3A59465  26.116  17.849   7.010
 4495POPC   C4A59466  25.808  17.818   7.330
 4495POPC   C1B59467  25.705  17.050   6.060
 4495POPC   C2B59468  25.699  17.128   6.517
 4495POPC   C3B59469  25.887  17.019   6.903
 4495POPC   C4B59470  25.983  17.342   7.183
 4496POPC   NC359471   7.519  36.300   5.369
 4496POPC   PO459472   7.123  35.741   5.394
 4496POPC   GL159473   7.258  35.981   5.719
 4496POPC   GL259474   7.584  35.873   5.683
 4496POPC   C1A59475   7.204  36.019   6.170
 4496POPC   D2A59476   7.426  36.052   6.560
 4496POPC   C3A59477   7.214  36.104   6.953
 4496POPC   C4A59478   7.268  35.965   7.379
 4496POPC   C1B59479   7.669  36.206   6.033
 4496POPC   C2B59480   7.795  36.396   6.472
 4496POPC   C3B59481   7.694  36.307   6.972
 4496POPC   C4B59482   7.788  36.306   7.452
 4497POPC   NC359483   2.203  11.404   5.035
 4497POPC   PO459484   2.052  11.590   5.720
 4497POPC   GL159485   1.915  11.183   5.926
 4497POPC   GL259486   2.143  10.877   5.923
 4497POPC   C1A59487   1.826  11.317   6.319
 4497POPC   D2A59488   2.164  11.534   6.464
 4497POPC   C3A59489   2.156  11.439   6.855
 4497POPC   C4A59490   1.899  11.640   7.188
 4497POPC   C1B59491   2.253  11.032   6.298
 4497POPC   C2B59492   2.167  10.887   6.679
 4497POPC   C3B59493   2.311  10.990   7.048
 4497POPC   C4B59494   2.084  11.196   7.291
 4498POPC   NC359495  37.280  21.146   5.425
 4498POPC   PO459496  37.931  21.131   5.382
 4498POPC   GL159497  37.672  21.265   5.744
 4498POPC   GL259498  37.466  21.574   5.677
 4498POPC   C1A59499  37.681  21.428   6.175
 4498POPC   D2A59500  37.899  21.618   6.540
 4498POPC   C3A59501  37.863  21.363   6.928
 4498POPC   C4A59502  37.659  21.447   7.312
 4498POPC   C1B59503  37.261  21.716   6.072
 4498POPC   C2B59504  37.386  21.739   6.513
 4498POPC   C3B59505  37.346  21.522   6.900
 4498POPC   C4B59506  37.232  21.752   7.280
 4499POPC   NC359507   8.521   5.276   5.512
 4499POPC   PO459508   8.204   4.719   5.162
 4499POPC   GL159509   8.103   4.900   5.631
 4499POPC   GL259510   7.891   5.216   5.628
 4499POPC   C1A59511   8.292   4.919   6.111
 4499POPC   D2A59512   8.175   4.789   6.570
 4499POPC   C3A59513   8.299   5.079   6.871
 4499POPC   C4A59514   8.539   5.151   7.215
 4499POPC   C1B59515   7.810   5.059   6.064
 4499POPC   C2B59516   7.951   5.221   6.468
 4499POPC   C3B59517   7.810   5.231   6.910
 4499POPC   C4B59518   8.033   5.236   7.292
 4500POPC   NC359519  41.048   2.203   4.991
 4500POPC   PO459520  41.236   1.739   5.406
 4500POPC   GL159521  41.046   1.756   5.819
 4500POPC   GL259522  40.755   1.955   5.812
 4500POPC   C1A59523  40.967   1.908   6.277
 4500POPC   D2A59524  41.124   1.924   6.712
 4500POPC   C3A59525  40.895   1.983   7.104
 4500POPC   C4A59526  41.089   2.240   7.422
 4500POPC   C1B59527  40.449   2.232   6.064
 4500POPC   C2B59528  40.436   2.462   6.464
 4500POPC   C3B59529  40.761   2.364   6.764
 4500POPC   C4B59530  40.681   2.442   7.195
 4501POPC   NC359531  20.526  20.266   5.547
 4501POPC   PO459532  20.991  20.691   5.244
 4501POPC   GL159533  20.733  20.767   5.660
 4501POPC   GL259534  21.001  20.850   5.835
 4501POPC   C1A59535  20.556  20.789   6.148
 4501POPC   D2A59536  20.581  20.553   6.619
 4501POPC   C3A59537  20.476  20.644   7.103
 4501POPC   C4A59538  20.417  20.696   7.574
 4501POPC   C1B59539  21.036  20.663   6.251
 4501POPC   C2B59540  21.112  20.594   6.665
 4501POPC   C3B59541  20.920  20.418   7.017
 4501POPC   C4B59542  20.917  20.661   7.392
 4502POPC   NC359543  26.723   9.235   5.453
 4502POPC   PO459544  26.738   8.590   5.489
 4502POPC   GL159545  26.743   8.888   5.826
 4502POPC   GL259546  27.029   9.183   5.845
 4502POPC   C1A59547  26.584   8.743   6.217
 4502POPC   D2A59548  26.705   8.881   6.604
 4502POPC   C3A59549  26.600   8.808   7.002
 4502POPC   C4A59550  26.763   9.078   7.291
 4502POPC   C1B59551  27.077   8.930   6.213
 4502POPC   C2B59552  27.208   8.705   6.592
 4502POPC   C3B59553  27.146   8.905   6.987
 4502POPC   C4B59554  27.249   9.016   7.424
 4503POPC   NC359555  36.500  10.518   5.492
 4503POPC   PO459556  37.154  10.424   5.582
 4503POPC   GL159557  36.882  10.639   5.912
 4503POPC   GL259558  36.583  10.859   5.841
 4503POPC   C1A59559  36.886  10.579   6.369
 4503POPC   D2A59560  36.767  10.252   6.660
 4503POPC   C3A59561  36.859  10.257   7.089
 4503POPC   C4A59562  36.802  10.385   7.519
 4503POPC   C1B59563  36.375  10.613   6.186
 4503POPC   C2B59564  36.419  10.629   6.626
 4503POPC   C3B59565  36.804  10.712   6.868
 4503POPC   C4B59566  36.760  10.850   7.240
 4504POPC   NC359567   6.128  32.499   5.569
 4504POPC   PO459568   5.492  32.537   5.363
 4504POPC   GL159569   5.711  32.272   5.766
 4504POPC   GL259570   5.904  32.483   6.012
 4504POPC   C1A59571   5.791  32.053   6.223
 4504POPC   D2A59572   5.900  32.252   6.664
 4504POPC   C3A59573   5.783  32.118   7.122
 4504POPC   C4A59574   5.569  32.047   7.549
 4504POPC   C1B59575   6.264  32.278   6.242
 4504POPC   C2B59576   6.405  32.139   6.666
 4504POPC   C3B59577   6.252  32.316   7.090
 4504POPC   C4B59578   6.073  32.284   7.529
 4505POPC   NC359579  21.906  11.013   5.230
 4505POPC   PO459580  21.375  11.294   5.441
 4505POPC   GL159581  21.358  11.513   5.829
 4505POPC   GL259582  21.666  11.652   5.902
 4505POPC   C1A59583  21.430  11.355   6.256
 4505POPC   D2A59584  21.342  10.959   6.467
 4505POPC   C3A59585  21.323  11.072   6.907
 4505POPC   C4A59586  21.160  11.510   6.875
 4505POPC   C1B59587  21.873  11.751   6.314
 4505POPC   C2B59588  21.761  11.968   6.643
 4505POPC   C3B59589  21.702  11.738   7.040
 4505POPC   C4B59590  21.739  11.307   7.166
 4506POPC   NC359591  19.976  13.559   5.128
 4506POPC   PO459592  19.642  13.993   5.438
 4506POPC   GL159593  19.825  13.728   5.796
 4506POPC   GL259594  20.092  13.480   5.741
 4506POPC   C1A59595  19.918  13.628   6.244
 4506POPC   D2A59596  19.783  13.807   6.656
 4506POPC   C3A59597  19.532  13.541   6.946
 4506POPC   C4A59598  19.608  13.452   7.414
 4506POPC   C1B59599  20.344  13.368   6.114
 4506POPC   C2B59600  20.194  13.235   6.530
 4506POPC   C3B59601  20.033  13.411   6.916
 4506POPC   C4B59602  20.189  13.692   7.232
 4507POPC   NC359603  20.888   8.297   5.603
 4507POPC   PO459604  21.551   8.181   5.462
 4507POPC   GL159605  21.365   8.301   5.798
 4507POPC   GL259606  21.260   8.635   5.770
 4507POPC   C1A59607  21.478   8.198   6.180
 4507POPC   D2A59608  21.279   8.251   6.559
 4507POPC   C3A59609  21.508   8.233   6.899
 4507POPC   C4A59610  21.243   8.114   7.238
 4507POPC   C1B59611  21.315   8.678   6.210
 4507POPC   C2B59612  21.072   8.722   6.595
 4507POPC   C3B59613  21.082   8.536   6.998
 4507POPC   C4B59614  21.462   8.567   7.261
 4508POPC   NC359615   0.049   5.710   5.177
 4508POPC   PO459616  44.598   6.002   5.405
 4508POPC   GL159617  44.830   5.767   5.658
 4508POPC   GL259618  44.532   5.665   5.825
 4508POPC   C1A59619  44.921   5.830   6.093
 4508POPC   D2A59620  44.762   5.669   6.466
 4508POPC   C3A59621  44.655   5.852   6.817
 4508POPC   C4A59622  44.931   5.888   7.114
 4508POPC   C1B59623  44.328   5.619   6.237
 4508POPC   C2B59624  44.307   5.507   6.679
 4508POPC   C3B59625  44.188   5.752   7.021
 4508POPC   C4B59626  44.468   5.865   7.328
 4509POPC   NC359627  24.698  16.330   5.037
 4509POPC   PO459628  24.122  16.113   5.434
 4509POPC   GL159629  24.511  16.148   5.670
 4509POPC   GL259630  24.271  16.127   5.937
 4509POPC   C1A59631  24.761  16.105   6.063
 4509POPC   D2A59632  24.928  15.913   6.445
 4509POPC   C3A59633  24.657  16.020   6.818
 4509POPC   C4A59634  24.604  15.895   7.247
 4509POPC   C1B59635  24.338  16.033   6.367
 4509POPC   C2B59636  24.127  15.855   6.685
 4509POPC   C3B59637  24.155  16.086   7.036
 4509POPC   C4B59638  24.333  16.328   7.345
 4510POPC   NC359639  11.729  12.716   5.239
 4510POPC   PO459640  11.082  12.758   5.348
 4510POPC   GL159641  11.411  12.712   5.660
 4510POPC   GL259642  11.600  12.979   5.714
 4510POPC   C1A59643  11.669  12.577   6.026
 4510POPC   D2A59644  11.730  12.662   6.483
 4510POPC   C3A59645  11.393  12.794   6.764
 4510POPC   C4A59646  11.327  12.578   7.150
 4510POPC   C1B59647  11.567  13.097   6.148
 4510POPC   C2B59648  11.724  13.169   6.584
 4510POPC   C3B59649  11.674  13.157   6.985
 4510POPC   C4B59650  11.298  13.110   7.280
 4511POPC   NC359651  27.467  29.094   5.497
 4511POPC   PO459652  27.353  29.661   5.274
 4511POPC   GL159653  27.291  29.491   5.742
 4511POPC   GL259654  27.634  29.449   5.886
 4511POPC   C1A59655  27.293  29.197   6.150
 4511POPC   D2A59656  27.099  29.150   6.575
 4511POPC   C3A59657  27.297  29.178   7.007
 4511POPC   C4A59658  27.362  29.209   7.467
 4511POPC   C1B59659  27.731  29.375   6.342
 4511POPC   C2B59660  27.679  29.107   6.690
 4511POPC   C3B59661  27.672  28.832   7.054
 4511POPC   C4B59662  27.741  28.857   7.499
 4512POPC   NC359663   3.953  21.275   5.435
 4512POPC   PO459664   4.378  21.681   5.584
 4512POPC   GL159665   4.213  21.441   5.871
 4512POPC   GL259666   4.405  21.139   5.770
 4512POPC   C1A59667   4.307  21.383   6.292
 4512POPC   D2A59668   4.533  21.055   6.485
 4512POPC   C3A59669   4.517  21.201   6.914
 4512POPC   C4A59670   4.353  21.592   7.114
 4512POPC   C1B59671   4.122  20.956   6.057
 4512POPC   C2B59672   4.002  20.995   6.450
 4512POPC   C3B59673   4.010  21.278   6.779
 4512POPC   C4B59674   3.999  21.236   7.215
 4513POPC   NC359675  41.741  13.579   5.386
 4513POPC   PO459676  41.012  13.571   5.398
 4513POPC   GL159677  41.253  13.631   5.798
 4513POPC   GL259678  41.582  13.479   5.875
 4513POPC   C1A59679  41.347  13.740   6.252
 4513POPC   D2A59680  41.566  13.609   6.648
 4513POPC   C3A59681  41.428  13.812   7.023
 4513POPC   C4A59682  41.564  13.951   7.429
 4513POPC   C1B59683  41.275  13.235   6.131
 4513POPC   C2B59684  41.444  13.084   6.498
 4513POPC   C3B59685  41.377  13.178   6.924
 4513POPC   C4B59686  41.593  13.376   7.257
 4514POPC   NC359687  26.737  42.732   5.350
 4514POPC   PO459688  27.067  42.157   5.209
 4514POPC   GL159689  26.838  42.260   5.638
 4514POPC   GL259690  26.941  42.580   5.794
 4514POPC   C1A59691  26.754  42.238   6.134
 4514POPC   D2A59692  26.918  42.354   6.579
 4514POPC   C3A59693  26.710  42.203   6.933
 4514POPC   C4A59694  26.359  42.105   7.153
 4514POPC   C1B59695  26.922  42.725   6.239
 4514POPC   C2B59696  26.925  42.892   6.683
 4514POPC   C3B59697  26.840  42.693   7.062
 4514POPC   C4B59698  26.655  42.442   7.419
 4515POPC   NC359699   8.774  44.085   5.436
 4515POPC   PO459700   9.233  43.629   5.583
 4515POPC   GL159701   8.924  43.832   5.859
 4515POPC   GL259702   9.157  44.103   5.912
 4515POPC   C1A59703   8.723  44.169   6.155
 4515POPC   D2A59704   8.887  44.315   6.586
 4515POPC   C3A59705   8.707  44.025   6.892
 4515POPC   C4A59706   8.598  43.618   7.069
 4515POPC   C1B59707   9.120  43.906   6.370
 4515POPC   C2B59708   9.209  43.881   6.834
 4515POPC   C3B59709   9.058  43.943   7.259
 4515POPC   C4B59710   9.125  44.247   7.620
 4516POPC   NC359711  34.980  13.437   5.309
 4516POPC   PO459712  34.476  13.778   5.120
 4516POPC   GL159713  34.603  13.682   5.568
 4516POPC   GL259714  34.604  13.354   5.732
 4516POPC   C1A59715  34.794  13.782   6.013
 4516POPC   D2A59716  34.929  13.989   6.452
 4516POPC   C3A59717  34.702  13.901   6.861
 4516POPC   C4A59718  34.556  13.548   7.129
 4516POPC   C1B59719  34.783  13.297   6.193
 4516POPC   C2B59720  34.864  13.427   6.659
 4516POPC   C3B59721  34.940  13.184   7.063
 4516POPC   C4B59722  34.586  13.073   7.366
 4517POPC   NC359723  14.676  11.456   5.613
 4517POPC   PO459724  14.219  10.927   5.510
 4517POPC   GL159725  14.322  11.158   5.850
 4517POPC   GL259726  14.014  11.126   5.966
 4517POPC   C1A59727  14.447  11.287   6.265
 4517POPC   D2A59728  14.597  11.576   6.586
 4517POPC   C3A59729  14.534  11.459   7.022
 4517POPC   C4A59730  14.687  11.573   7.412
 4517POPC   C1B59731  13.938  11.407   6.270
 4517POPC   C2B59732  14.092  11.349   6.645
 4517POPC   C3B59733  14.026  11.488   7.009
 4517POPC   C4B59734  14.141  11.158   7.291
 4518POPC   NC359735  41.755  11.710   5.328
 4518POPC   PO459736  41.311  12.216   5.418
 4518POPC   GL159737  41.530  12.075   5.749
 4518POPC   GL259738  41.851  12.105   5.661
 4518POPC   C1A59739  41.605  12.243   6.173
 4518POPC   D2A59740  41.350  12.188   6.531
 4518POPC   C3A59741  41.353  12.200   7.004
 4518POPC   C4A59742  41.072  12.165   7.356
 4518POPC   C1B59743  41.889  11.842   6.025
 4518POPC   C2B59744  41.832  11.834   6.442
 4518POPC   C3B59745  41.790  12.003   6.829
 4518POPC   C4B59746  41.668  11.848   7.249
 4519POPC   NC359747  18.339   1.690   5.332
 4519POPC   PO459748  17.857   2.101   5.422
 4519POPC   GL159749  18.160   1.983   5.752
 4519POPC   GL259750  18.500   2.047   5.724
 4519POPC   C1A59751  18.222   2.081   6.191
 4519POPC   D2A59752  18.143   1.862   6.579
 4519POPC   C3A59753  18.249   2.013   6.986
 4519POPC   C4A59754  17.985   1.744   7.250
 4519POPC   C1B59755  18.731   1.988   6.090
 4519POPC   C2B59756  18.635   1.972   6.513
 4519POPC   C3B59757  18.791   1.975   6.912
 4519POPC   C4B59758  18.667   1.874   7.296
 4520POPC   NC359759   4.765  15.401   5.422
 4520POPC   PO459760   4.064  15.362   5.240
 4520POPC   GL159761   4.264  15.256   5.638
 4520POPC   GL259762   4.478  15.497   5.831
 4520POPC   C1A59763   4.254  15.095   6.075
 4520POPC   D2A59764   3.992  15.091   6.450
 4520POPC   C3A59765   4.176  15.119   6.864
 4520POPC   C4A59766   4.011  15.197   7.248
 4520POPC   C1B59767   4.532  15.594   6.274
 4520POPC   C2B59768   4.552  15.475   6.732
 4520POPC   C3B59769   4.547  15.344   7.172
 4520POPC   C4B59770   4.777  15.344   7.596
 4521POPC   NC359771  17.498   1.822   5.500
 4521POPC   PO459772  17.099   2.334   5.352
 4521POPC   GL159773  17.339   2.225   5.773
 4521POPC   GL259774  17.666   2.087   5.917
 4521POPC   C1A59775  17.214   1.892   6.117
 4521POPC   D2A59776  17.332   1.702   6.530
 4521POPC   C3A59777  17.365   1.912   6.949
 4521POPC   C4A59778  17.477   1.705   7.336
 4521POPC   C1B59779  17.594   2.145   6.374
 4521POPC   C2B59780  17.777   2.205   6.794
 4521POPC   C3B59781  17.709   2.197   7.249
 4521POPC   C4B59782  17.767   2.145   7.694
 4522POPC   NC359783  38.219  10.441   5.375
 4522POPC   PO459784  38.657  10.674   4.971
 4522POPC   GL159785  38.603  10.739   5.533
 4522POPC   GL259786  38.468  10.430   5.813
 4522POPC   C1A59787  38.589  10.864   6.034
 4522POPC   D2A59788  38.422  10.872   6.470
 4522POPC   C3A59789  38.475  10.601   6.842
 4522POPC   C4A59790  38.189  10.625   7.203
 4522POPC   C1B59791  38.245  10.334   6.249
 4522POPC   C2B59792  38.298  10.140   6.683
 4522POPC   C3B59793  38.371  10.155   7.146
 4522POPC   C4B59794  38.550  10.161   7.557
 4523POPC   NC359795  41.968  29.953   5.407
 4523POPC   PO459796  42.603  29.646   5.458
 4523POPC   GL159797  42.347  29.848   5.793
 4523POPC   GL259798  42.082  30.109   5.868
 4523POPC   C1A59799  42.463  30.061   6.207
 4523POPC   D2A59800  42.404  30.271   6.609
 4523POPC   C3A59801  42.504  30.003   6.952
 4523POPC   C4A59802  42.277  29.639   7.064
 4523POPC   C1B59803  42.037  29.757   6.186
 4523POPC   C2B59804  42.067  29.872   6.620
 4523POPC   C3B59805  41.995  30.068   7.015
 4523POPC   C4B59806  41.976  29.852   7.417
 4524POPC   NC359807  12.795   5.134   5.412
 4524POPC   PO459808  13.043   4.480   5.559
 4524POPC   GL159809  13.028   4.824   5.835
 4524POPC   GL259810  12.675   4.876   5.863
 4524POPC   C1A59811  12.934   4.978   6.274
 4524POPC   D2A59812  13.017   5.263   6.594
 4524POPC   C3A59813  12.943   5.073   6.994
 4524POPC   C4A59814  13.115   5.213   7.387
 4524POPC   C1B59815  12.609   5.327   6.038
 4524POPC   C2B59816  12.536   5.567   6.423
 4524POPC   C3B59817  12.664   5.563   6.852
 4524POPC   C4B59818  12.635   5.373   7.271
 4525POPC   NC359819  41.163  24.427   5.427
 4525POPC   PO459820  41.732  24.789   5.266
 4525POPC   GL159821  41.770  24.675   5.740
 4525POPC   GL259822  41.892  24.306   5.779
 4525POPC   C1A59823  41.640  24.569   6.206
 4525POPC   D2A59824  41.586  24.718   6.675
 4525POPC   C3A59825  41.723  24.743   7.150
 4525POPC   C4A59826  41.524  24.653   7.578
 4525POPC   C1B59827  41.954  24.133   6.190
 4525POPC   C2B59828  41.743  24.185   6.582
 4525POPC   C3B59829  41.873  24.283   6.987
 4525POPC   C4B59830  41.457  24.289   7.200
 4526POPC   NC359831  24.150  38.181   5.465
 4526POPC   PO459832  24.744  38.618   5.410
 4526POPC   GL159833  24.502  38.494   5.762
 4526POPC   GL259834  24.225  38.677   5.852
 4526POPC   C1A59835  24.673  38.356   6.167
 4526POPC   D2A59836  24.882  38.458   6.561
 4526POPC   C3A59837  24.642  38.367   6.951
 4526POPC   C4A59838  24.736  38.563   7.342
 4526POPC   C1B59839  24.149  38.384   6.138
 4526POPC   C2B59840  24.280  38.383   6.549
 4526POPC   C3B59841  24.081  38.231   6.908
 4526POPC   C4B59842  24.288  38.155   7.300
 4527POPC   NC359843  23.738  26.958   5.432
 4527POPC   PO459844  23.881  26.333   5.315
 4527POPC   GL159845  24.037  26.541   5.702
 4527POPC   GL259846  23.682  26.546   5.810
 4527POPC   C1A59847  24.018  26.721   6.152
 4527POPC   D2A59848  23.676  26.900   6.439
 4527POPC   C3A59849  23.690  26.862   6.900
 4527POPC   C4A59850  23.921  27.149   7.152
 4527POPC   C1B59851  23.586  26.410   6.249
 4527POPC   C2B59852  23.393  26.507   6.650
 4527POPC   C3B59853  23.437  26.433   7.087
 4527POPC   C4B59854  23.392  26.553   7.497
 4528POPC   NC359855   9.817  20.938   5.355
 4528POPC   PO459856   9.379  21.433   5.507
 4528POPC   GL159857   9.645  21.254   5.822
 4528POPC   GL259858   9.987  21.121   5.792
 4528POPC   C1A59859   9.753  21.327   6.243
 4528POPC   D2A59860   9.857  21.532   6.593
 4528POPC   C3A59861   9.576  21.518   6.913
 4528POPC   C4A59862   9.732  21.685   7.262
 4528POPC   C1B59863  10.148  20.968   6.182
 4528POPC   C2B59864   9.971  21.014   6.607
 4528POPC   C3B59865  10.009  21.254   6.992
 4528POPC   C4B59866   9.873  21.210   7.436
 4529POPC   NC359867   3.074  22.803   5.557
 4529POPC   PO459868   2.495  23.111   5.383
 4529POPC   GL159869   2.577  22.785   5.708
 4529POPC   GL259870   2.756  23.044   5.852
 4529POPC   C1A59871   2.643  22.669   6.178
 4529POPC   D2A59872   2.741  22.872   6.618
 4529POPC   C3A59873   2.767  22.755   7.058
 4529POPC   C4A59874   3.067  22.619   7.393
 4529POPC   C1B59875   2.782  23.202   6.222
 4529POPC   C2B59876   2.780  23.381   6.584
 4529POPC   C3B59877   2.889  23.282   6.946
 4529POPC   C4B59878   2.690  23.375   7.287
 4530POPC   NC359879  43.279  13.431   5.340
 4530POPC   PO459880  42.973  14.058   5.244
 4530POPC   GL159881  43.093  13.820   5.684
 4530POPC   GL259882  43.138  13.435   5.827
 4530POPC   C1A59883  43.193  13.801   6.170
 4530POPC   D2A59884  43.467  13.763   6.557
 4530POPC   C3A59885  43.265  13.779   6.964
 4530POPC   C4A59886  43.305  13.672   7.407
 4530POPC   C1B59887  43.154  13.216   6.256
 4530POPC   C2B59888  43.138  13.325   6.716
 4530POPC   C3B59889  43.211  13.237   7.159
 4530POPC   C4B59890  43.281  13.137   7.632
 4531POPC   NC359891   2.964  24.360   5.442
 4531POPC   PO459892   2.570  24.749   5.434
 4531POPC   GL159893   2.632  24.501   5.847
 4531POPC   GL259894   2.751  24.144   5.876
 4531POPC   C1A59895   2.602  24.592   6.308
 4531POPC   D2A59896   2.643  24.861   6.675
 4531POPC   C3A59897   2.556  24.677   7.095
 4531POPC   C4A59898   2.516  24.764   7.554
 4531POPC   C1B59899   2.612  24.081   6.332
 4531POPC   C2B59900   2.511  24.244   6.776
 4531POPC   C3B59901   2.773  24.200   7.166
 4531POPC   C4B59902   3.092  24.131   7.510
 4532POPC   NC359903  11.289  10.342   5.462
 4532POPC   PO459904  10.961  10.943   5.497
 4532POPC   GL159905  11.096  10.663   5.861
 4532POPC   GL259906  11.454  10.574   5.884
 4532POPC   C1A59907  11.196  10.427   6.273
 4532POPC   D2A59908  11.489  10.558   6.621
 4532POPC   C3A59909  11.296  10.712   6.986
 4532POPC   C4A59910  10.977  10.984   7.122
 4532POPC   C1B59911  11.731  10.346   6.226
 4532POPC   C2B59912  11.777  10.109   6.643
 4532POPC   C3B59913  11.741  10.217   7.091
 4532POPC   C4B59914  11.419  10.393   7.345
 4533POPC   NC359915  19.132   3.285   5.468
 4533POPC   PO459916  19.081   2.596   5.410
 4533POPC   GL159917  18.904   2.715   5.834
 4533POPC   GL259918  18.652   2.970   5.723
 4533POPC   C1A59919  19.110   2.830   6.282
 4533POPC   D2A59920  19.334   2.721   6.703
 4533POPC   C3A59921  19.375   2.880   7.154
 4533POPC   C4A59922  19.435   3.051   7.602
 4533POPC   C1B59923  18.641   3.000   6.181
 4533POPC   C2B59924  18.709   2.829   6.593
 4533POPC   C3B59925  18.872   2.891   6.999
 4533POPC   C4B59926  18.592   2.865   7.307
 4534POPC   NC359927  40.868  25.311   5.488
 4534POPC   PO459928  40.502  24.895   5.752
 4534POPC   GL159929  40.603  25.272   5.920
 4534POPC   GL259930  40.468  25.563   5.763
 4534POPC   C1A59931  40.906  25.282   6.236
 4534POPC   D2A59932  40.951  24.938   6.563
 4534POPC   C3A59933  40.926  25.129   6.968
 4534POPC   C4A59934  41.083  25.490   7.137
 4534POPC   C1B59935  40.554  25.675   6.215
 4534POPC   C2B59936  40.741  25.580   6.639
 4534POPC   C3B59937  40.485  25.396   6.956
 4534POPC   C4B59938  40.232  25.022   7.106
 4535POPC   NC359939  44.253   1.211   5.415
 4535POPC   PO459940  44.743   1.461   5.336
 4535POPC   GL159941  44.524   1.503   5.749
 4535POPC   GL259942  44.477   1.141   5.866
 4535POPC   C1A59943  44.443   1.499   6.203
 4535POPC   D2A59944  44.654   1.456   6.610
 4535POPC   C3A59945  44.504   1.454   7.038
 4535POPC   C4A59946  44.671   1.403   7.473
 4535POPC   C1B59947  44.820   1.140   6.213
 4535POPC   C2B59948   0.041   1.128   6.647
 4535POPC   C3B59949  44.925   1.150   7.104
 4535POPC   C4B59950  44.609   0.902   7.365
 4536POPC   NC359951  34.237  10.879   5.486
 4536POPC   PO459952  33.538  10.735   5.493
 4536POPC   GL159953  33.596  10.495   5.923
 4536POPC   GL259954  33.981  10.570   5.918
 4536POPC   C1A59955  33.776  10.302   6.309
 4536POPC   D2A59956  33.840  10.513   6.687
 4536POPC   C3A59957  33.619  10.469   7.092
 4536POPC   C4A59958  33.899  10.411   7.452
 4536POPC   C1B59959  34.170  10.705   6.267
 4536POPC   C2B59960  34.358  10.599   6.636
 4536POPC   C3B59961  34.204  10.525   7.026
 4536POPC   C4B59962  33.987  10.844   7.230
 4537POPC   NC359963  13.041  38.725   5.385
 4537POPC   PO459964  12.727  38.104   5.460
 4537POPC   GL159965  12.728  38.461   5.727
 4537POPC   GL259966  13.040  38.468   5.822
 4537POPC   C1A59967  12.656  38.601   6.131
 4537POPC   D2A59968  12.725  38.383   6.464
 4537POPC   C3A59969  12.737  38.443   6.884
 4537POPC   C4A59970  13.056  38.195   7.122
 4537POPC   C1B59971  13.152  38.715   6.185
 4537POPC   C2B59972  12.920  38.848   6.552
 4537POPC   C3B59973  13.100  38.779   6.959
 4537POPC   C4B59974  12.965  38.790   7.381
 4538POPC   NC359975   7.163  41.381   5.353
 4538POPC   PO459976   7.838  41.628   5.441
 4538POPC   GL159977   7.543  41.519   5.745
 4538POPC   GL259978   7.387  41.204   5.783
 4538POPC   C1A59979   7.579  41.401   6.197
 4538POPC   D2A59980   7.330  41.382   6.577
 4538POPC   C3A59981   7.675  41.408   6.827
 4538POPC   C4A59982   7.887  41.427   7.207
 4538POPC   C1B59983   7.113  41.549   6.047
 4538POPC   C2B59984   6.943  41.682   6.475
 4538POPC   C3B59985   7.008  41.604   6.922
 4538POPC   C4B59986   7.325  41.419   7.198
 4539POPC   NC359987  35.872   0.990   5.427
 4539POPC   PO459988  36.483   1.376   5.283
 4539POPC   GL159989  36.253   1.278   5.738
 4539POPC   GL259990  35.972   1.074   5.908
 4539POPC   C1A59991  36.374   1.120   6.198
 4539POPC   D2A59992  36.101   1.051   6.591
 4539POPC   C3A59993  36.277   1.153   6.999
 4539POPC   C4A59994  36.446   1.527   7.204
 4539POPC   C1B59995  35.848   1.356   6.241
 4539POPC   C2B59996  35.868   1.565   6.657
 4539POPC   C3B59997  35.899   1.470   7.106
 4539POPC   C4B59998  35.897   1.450   7.568
 4540POPC   NC359999  31.520  20.480   4.964
 4540POPC   PO460000  31.728  20.109   5.587
 4540POPC   GL160001  31.634  20.420   5.914
 4540POPC   GL260002  31.535  20.746   5.812
 4540POPC   C1A60003  31.445  20.536   6.266
 4540POPC   D2A60004  31.321  20.716   6.614
 4540POPC   C3A60005  31.064  20.568   6.876
 4540POPC   C4A60006  31.276  20.392   7.197
 4540POPC   C1B60007  31.219  21.009   6.039
 4540POPC   C2B60008  31.155  21.158   6.467
 4540POPC   C3B60009  31.027  21.087   6.936
 4540POPC   C4B60010  31.033  20.810   7.340
 4541POPC   NC360011  30.469  18.096   5.686
 4541POPC   PO460012  29.909  18.310   5.316
 4541POPC   GL160013  29.836  18.449   5.794
 4541POPC   GL260014  30.097  18.284   5.970
 4541POPC   C1A60015  29.794  18.557   6.268
 4541POPC   D2A60016  29.998  18.363   6.663
 4541POPC   C3A60017  29.877  18.422   7.110
 4541POPC   C4A60018  29.689  18.329   7.505
 4541POPC   C1B60019  30.230  18.028   6.320
 4541POPC   C2B60020  30.436  18.032   6.716
 4541POPC   C3B60021  30.323  18.151   7.118
 4541POPC   C4B60022  30.084  17.969   7.459
 4542POPC   NC360023   6.003  36.451   5.400
 4542POPC   PO460024   5.605  35.921   5.359
 4542POPC   GL160025   5.849  36.013   5.745
 4542POPC   GL260026   5.570  36.186   5.861
 4542POPC   C1A60027   5.957  36.139   6.185
 4542POPC   D2A60028   5.799  36.187   6.602
 4542POPC   C3A60029   6.174  36.179   6.834
 4542POPC   C4A60030   6.387  36.429   7.135
 4542POPC   C1B60031   5.621  36.565   6.140
 4542POPC   C2B60032   5.715  36.708   6.571
 4542POPC   C3B60033   5.823  36.559   6.978
 4542POPC   C4B60034   5.747  36.191   7.147
 4543POPC   NC360035  30.037   0.295   5.164
 4543POPC   PO460036  29.442   0.631   5.480
 4543POPC   GL160037  29.708   0.529   5.798
 4543POPC   GL260038  29.695   0.176   5.680
 4543POPC   C1A60039  30.037   0.649   6.136
 4543POPC   D2A60040  30.228   0.789   6.533
 4543POPC   C3A60041  30.065   0.796   6.960
 4543POPC   C4A60042  29.784   0.609   7.242
 4543POPC   C1B60043  29.917   0.134   6.076
 4543POPC   C2B60044  29.880   0.296   6.483
 4543POPC   C3B60045  30.003   0.275   6.888
 4543POPC   C4B60046  29.880   0.107   7.276
 4544POPC   NC360047  17.592   9.395   5.566
 4544POPC   PO460048  17.603   8.799   5.296
 4544POPC   GL160049  17.545   8.797   5.736
 4544POPC   GL260050  17.844   8.636   5.830
 4544POPC   C1A60051  17.472   8.831   6.198
 4544POPC   D2A60052  17.385   9.182   6.510
 4544POPC   C3A60053  17.434   9.097   6.977
 4544POPC   C4A60054  17.198   8.811   7.272
 4544POPC   C1B60055  17.993   8.747   6.239
 4544POPC   C2B60056  17.814   8.832   6.614
 4544POPC   C3B60057  17.749   8.659   6.996
 4544POPC   C4B60058  17.727   8.795   7.402
 4545POPC   NC360059   4.545   6.086   5.359
 4545POPC   PO460060   3.926   5.976   5.360
 4545POPC   GL160061   4.233   5.897   5.736
 4545POPC   GL260062   4.350   5.519   5.752
 4545POPC   C1A60063   4.291   5.877   6.218
 4545POPC   D2A60064   4.127   5.889   6.655
 4545POPC   C3A60065   4.418   5.901   6.971
 4545POPC   C4A60066   4.511   6.205   7.285
 4545POPC   C1B60067   4.296   5.368   6.184
 4545POPC   C2B60068   4.454   5.504   6.590
 4545POPC   C3B60069   4.331   5.391   7.005
 4545POPC   C4B60070   4.055   5.488   7.373
 4546POPC   NC360071  35.084  30.130   5.253
 4546POPC   PO460072  34.408  29.855   5.288
 4546POPC   GL160073  34.744  29.907   5.592
 4546POPC   GL260074  34.504  30.100   5.751
 4546POPC   C1A60075  34.883  29.975   6.031
 4546POPC   D2A60076  34.707  30.029   6.449
 4546POPC   C3A60077  34.649  30.024   6.881
 4546POPC   C4A60078  34.568  30.064   7.275
 4546POPC   C1B60079  34.439  29.746   6.111
 4546POPC   C2B60080  34.388  29.661   6.608
 4546POPC   C3B60081  34.201  29.801   7.054
 4546POPC   C4B60082  34.335  29.691   7.516
 4547POPC   NC360083  44.864  15.600   5.283
 4547POPC   PO460084  44.663  16.162   5.611
 4547POPC   GL160085  44.751  15.719   5.775
 4547POPC   GL260086   0.088  15.624   5.858
 4547POPC   C1A60087  44.648  15.465   6.154
 4547POPC   D2A60088  44.496  15.216   6.517
 4547POPC   C3A60089  44.437  15.389   6.918
 4547POPC   C4A60090  44.417  15.709   7.247
 4547POPC   C1B60091   0.120  15.628   6.317
 4547POPC   C2B60092  44.893  15.568   6.709
 4547POPC   C3B60093  44.948  15.756   7.140
 4547POPC   C4B60094   0.202  15.978   7.473
 4548POPC   NC360095  24.604  21.526   5.296
 4548POPC   PO460096  24.137  21.077   5.409
 4548POPC   GL160097  24.447  21.233   5.714
 4548POPC   GL260098  24.687  20.967   5.713
 4548POPC   C1A60099  24.494  21.394   6.132
 4548POPC   D2A60100  24.465  21.697   6.462
 4548POPC   C3A60101  24.449  21.577   6.910
 4548POPC   C4A60102  24.749  21.768   7.186
 4548POPC   C1B60103  24.621  20.923   6.184
 4548POPC   C2B60104  24.521  21.167   6.587
 4548POPC   C3B60105  24.314  21.086   6.981
 4548POPC   C4B60106  24.149  21.336   7.343
 4549POPC   NC360107  14.776  36.899   5.469
 4549POPC   PO460108  14.067  36.962   5.424
 4549POPC   GL160109  14.350  37.083   5.734
 4549POPC   GL260110  14.350  36.734   5.816
 4549POPC   C1A60111  14.435  37.059   6.192
 4549POPC   D2A60112  14.693  37.179   6.552
 4549POPC   C3A60113  14.532  36.978   6.946
 4549POPC   C4A60114  14.112  36.816   7.130
 4549POPC   C1B60115  14.225  36.586   6.248
 4549POPC   C2B60116  14.304  36.581   6.714
 4549POPC   C3B60117  14.455  36.465   7.136
 4549POPC   C4B60118  14.655  36.321   7.546
 4550POPC   NC360119  21.981  35.614   5.329
 4550POPC   PO460120  22.219  35.067   5.551
 4550POPC   GL160121  22.106  35.406   5.834
 4550POPC   GL260122  22.415  35.480   6.043
 4550POPC   C1A60123  21.948  35.606   6.228
 4550POPC   D2A60124  22.149  35.676   6.617
 4550POPC   C3A60125  22.069  35.366   6.940
 4550POPC   C4A60126  22.205  35.443   7.362
 4550POPC   C1B60127  22.225  35.202   6.395
 4550POPC   C2B60128  22.348  34.953   6.780
 4550POPC   C3B60129  22.232  34.959   7.224
 4550POPC   C4B60130  22.435  35.050   7.638
 4551POPC   NC360131  41.993   1.862   5.401
 4551POPC   PO460132  42.473   2.308   5.390
 4551POPC   GL160133  42.307   2.182   5.788
 4551POPC   GL260134  42.247   1.813   5.861
 4551POPC   C1A60135  42.133   2.187   6.203
 4551POPC   D2A60136  42.043   2.117   6.644
 4551POPC   C3A60137  42.367   2.122   6.953
 4551POPC   C4A60138  42.634   1.987   7.265
 4551POPC   C1B60139  41.914   1.698   6.185
 4551POPC   C2B60140  41.688   1.779   6.619
 4551POPC   C3B60141  41.945   1.796   7.057
 4551POPC   C4B60142  42.209   1.621   7.431
 4552POPC   NC360143  36.595  14.715   5.539
 4552POPC   PO460144  36.967  14.180   5.423
 4552POPC   GL160145  36.911  14.365   5.795
 4552POPC   GL260146  36.926  14.709   5.925
 4552POPC   C1A60147  37.063  14.333   6.221
 4552POPC   D2A60148  37.041  14.631   6.501
 4552POPC   C3A60149  36.849  14.421   6.835
 4552POPC   C4A60150  36.918  14.386   7.268
 4552POPC   C1B60151  36.645  14.798   6.267
 4552POPC   C2B60152  36.641  14.863   6.728
 4552POPC   C3B60153  36.497  14.668   7.122
 4552POPC   C4B60154  36.579  14.568   7.613
 4553POPC   NC360155  39.384  15.545   5.412
 4553POPC   PO460156  38.983  16.127   5.173
 4553POPC   GL160157  38.997  16.161   5.644
 4553POPC   GL260158  39.036  15.799   5.746
 4553POPC   C1A60159  39.108  16.272   6.086
 4553POPC   D2A60160  39.419  16.236   6.420
 4553POPC   C3A60161  39.273  16.212   6.839
 4553POPC   C4A60162  39.132  16.171   7.245
 4553POPC   C1B60163  39.326  15.794   6.115
 4553POPC   C2B60164  39.266  15.760   6.573
 4553POPC   C3B60165  39.346  15.739   7.018
 4553POPC   C4B60166  39.554  15.612   7.389
 4554POPC   NC360167  10.327  25.901   5.155
 4554POPC   PO460168  10.140  26.480   5.471
 4554POPC   GL160169  10.485  26.296   5.805
 4554POPC   GL260170  10.571  25.919   5.838
 4554POPC   C1A60171  10.583  26.255   6.256
 4554POPC   D2A60172  10.264  26.324   6.569
 4554POPC   C3A60173  10.316  26.092   6.947
 4554POPC   C4A60174  10.774  26.053   6.990
 4554POPC   C1B60175  10.322  25.799   6.221
 4554POPC   C2B60176  10.380  25.586   6.629
 4554POPC   C3B60177  10.536  25.623   7.064
 4554POPC   C4B60178  10.374  25.858   7.414
 4555POPC   NC360179   2.256  16.263   5.332
 4555POPC   PO460180   1.860  15.680   5.512
 4555POPC   GL160181   2.001  15.873   5.890
 4555POPC   GL260182   1.742  16.101   6.034
 4555POPC   C1A60183   2.179  15.769   6.304
 4555POPC   D2A60184   2.334  16.034   6.678
 4555POPC   C3A60185   2.229  15.888   7.063
 4555POPC   C4A60186   2.338  15.462   7.232
 4555POPC   C1B60187   1.788  16.030   6.468
 4555POPC   C2B60188   1.867  15.712   6.748
 4555POPC   C3B60189   1.729  15.876   7.111
 4555POPC   C4B60190   1.343  16.040   7.190
 4556POPC   NC360191  19.783  23.053   5.527
 4556POPC   PO460192  19.460  22.463   5.528
 4556POPC   GL160193  19.687  22.700   5.895
 4556POPC   GL260194  20.040  22.911   5.913
 4556POPC   C1A60195  19.765  22.688   6.340
 4556POPC   D2A60196  19.707  22.543   6.770
 4556POPC   C3A60197  19.647  22.854   7.095
 4556POPC   C4A60198  19.541  22.797   7.552
 4556POPC   C1B60199  19.888  23.167   6.221
 4556POPC   C2B60200  19.889  23.098   6.657
 4556POPC   C3B60201  20.014  23.278   7.036
 4556POPC   C4B60202  19.935  23.116   7.449
 4557POPC   NC360203  16.372  30.597   5.521
 4557POPC   PO460204  17.026  30.568   5.547
 4557POPC   GL160205  16.799  30.721   5.888
 4557POPC   GL260206  17.108  30.778   6.024
 4557POPC   C1A60207  16.713  30.597   6.320
 4557POPC   D2A60208  16.493  30.728   6.683
 4557POPC   C3A60209  16.718  30.614   7.052
 4557POPC   C4A60210  16.601  30.512   7.432
 4557POPC   C1B60211  17.040  31.011   6.344
 4557POPC   C2B60212  17.022  30.870   6.734
 4557POPC   C3B60213  16.982  31.079   7.079
 4557POPC   C4B60214  16.888  30.940   7.460
 4558POPC   NC360215  18.423  23.884   5.420
 4558POPC   PO460216  18.019  23.308   5.265
 4558POPC   GL160217  18.135  23.553   5.675
 4558POPC   GL260218  18.093  23.897   5.840
 4558POPC   C1A60219  18.453  23.583   6.020
 4558POPC   D2A60220  18.443  23.446   6.432
 4558POPC   C3A60221  18.210  23.646   6.770
 4558POPC   C4A60222  18.332  23.634   7.187
 4558POPC   C1B60223  18.427  24.113   6.083
 4558POPC   C2B60224  18.489  23.990   6.526
 4558POPC   C3B60225  18.511  24.080   6.974
 4558POPC   C4B60226  18.762  24.368   7.210
 4559POPC   NC360227  11.681  40.578   5.427
 4559POPC   PO460228  11.869  39.943   5.218
 4559POPC   GL160229  11.821  40.130   5.676
 4559POPC   GL260230  11.864  39.827   5.880
 4559POPC   C1A60231  12.066  40.280   6.079
 4559POPC   D2A60232  12.059  40.165   6.532
 4559POPC   C3A60233  12.093  40.360   6.950
 4559POPC   C4A60234  11.836  40.200   7.285
 4559POPC   C1B60235  12.079  39.707   6.283
 4559POPC   C2B60236  12.394  39.782   6.623
 4559POPC   C3B60237  12.354  39.887   7.062
 4559POPC   C4B60238  12.380  39.711   7.494
 4560POPC   NC360239   3.442   3.195   5.430
 4560POPC   PO460240   3.815   3.713   5.349
 4560POPC   GL160241   3.619   3.622   5.775
 4560POPC   GL260242   3.695   3.264   5.870
 4560POPC   C1A60243   3.497   3.808   6.214
 4560POPC   D2A60244   3.426   3.962   6.686
 4560POPC   C3A60245   3.662   3.762   7.078
 4560POPC   C4A60246   3.595   3.469   7.435
 4560POPC   C1B60247   3.500   3.302   6.249
 4560POPC   C2B60248   3.637   3.492   6.623
 4560POPC   C3B60249   3.730   3.260   6.988
 4560POPC   C4B60250   3.493   2.965   7.253
 4561POPC   NC360251  22.710  13.882   5.357
 4561POPC   PO460252  23.179  13.455   5.535
 4561POPC   GL160253  23.030  13.784   5.799
 4561POPC   GL260254  22.670  13.822   5.859
 4561POPC   C1A60255  23.127  13.924   6.223
 4561POPC   D2A60256  22.878  13.836   6.616
 4561POPC   C3A60257  22.988  13.476   6.902
 4561POPC   C4A60258  23.208  13.406   7.244
 4561POPC   C1B60259  22.807  13.505   6.183
 4561POPC   C2B60260  22.588  13.419   6.581
 4561POPC   C3B60261  22.540  13.647   6.993
 4561POPC   C4B60262  22.663  13.365   7.310
 4562POPC   NC360263   8.997  28.160   5.443
 4562POPC   PO460264   9.229  28.745   5.646
 4562POPC   GL160265   8.794  28.504   5.749
 4562POPC   GL260266   8.651  28.161   5.842
 4562POPC   C1A60267   8.703  28.542   6.177
 4562POPC   D2A60268   8.566  28.469   6.585
 4562POPC   C3A60269   8.726  28.784   6.843
 4562POPC   C4A60270   8.941  28.871   7.186
 4562POPC   C1B60271   8.796  28.049   6.265
 4562POPC   C2B60272   9.045  28.312   6.551
 4562POPC   C3B60273   9.006  28.363   6.974
 4562POPC   C4B60274   8.847  27.987   7.128
 4563POPC   NC360275  12.149  13.500   5.333
 4563POPC   PO460276  11.601  13.439   5.520
 4563POPC   GL160277  11.971  13.325   5.796
 4563POPC   GL260278  12.231  13.601   5.841
 4563POPC   C1A60279  11.983  13.403   6.235
 4563POPC   D2A60280  11.786  13.695   6.542
 4563POPC   C3A60281  11.786  13.659   7.001
 4563POPC   C4A60282  11.699  13.429   7.394
 4563POPC   C1B60283  12.365  13.712   6.302
 4563POPC   C2B60284  12.211  13.446   6.707
 4563POPC   C3B60285  12.228  13.447   7.167
 4563POPC   C4B60286  12.107  13.723   7.488
 4564POPC   NC360287   3.999   8.251   5.489
 4564POPC   PO460288   4.709   8.193   5.408
 4564POPC   GL160289   4.435   8.150   5.741
 4564POPC   GL260290   4.351   8.519   5.774
 4564POPC   C1A60291   4.330   8.006   6.152
 4564POPC   D2A60292   4.652   8.133   6.504
 4564POPC   C3A60293   4.502   8.182   6.935
 4564POPC   C4A60294   4.151   7.974   7.174
 4564POPC   C1B60295   4.394   8.485   6.223
 4564POPC   C2B60296   4.137   8.277   6.577
 4564POPC   C3B60297   4.058   8.467   6.995
 4564POPC   C4B60298   4.310   8.426   7.361
 4565POPC   NC360299  20.012  44.728   5.434
 4565POPC   PO460300  19.483   0.120   5.491
 4565POPC   GL160301  19.615  44.706   5.783
 4565POPC   GL260302  19.877  44.392   5.807
 4565POPC   C1A60303  19.778  44.659   6.237
 4565POPC   D2A60304  19.773  44.463   6.675
 4565POPC   C3A60305  19.788  44.719   7.075
 4565POPC   C4A60306  19.422  44.957   7.300
 4565POPC   C1B60307  19.904  44.155   6.252
 4565POPC   C2B60308  20.168  44.157   6.670
 4565POPC   C3B60309  20.215  44.336   7.106
 4565POPC   C4B60310  20.047  44.303   7.541
 4566POPC   NC360311  22.238  12.556   5.424
 4566POPC   PO460312  22.200  11.860   5.448
 4566POPC   GL160313  22.251  12.164   5.755
 4566POPC   GL260314  22.564  12.167   5.615
 4566POPC   C1A60315  22.061  12.249   6.182
 4566POPC   D2A60316  22.111  12.403   6.628
 4566POPC   C3A60317  22.089  12.099   6.981
 4566POPC   C4A60318  22.060  11.927   7.391
 4566POPC   C1B60319  22.579  12.049   6.118
 4566POPC   C2B60320  22.360  11.963   6.505
 4566POPC   C3B60321  22.524  11.865   6.894
 4566POPC   C4B60322  22.524  12.087   7.264
 4567POPC   NC360323   5.390  39.572   5.336
 4567POPC   PO460324   4.930  40.094   5.246
 4567POPC   GL160325   4.933  40.138   5.695
 4567POPC   GL260326   4.905  39.793   5.764
 4567POPC   C1A60327   5.223  40.141   6.085
 4567POPC   D2A60328   5.349  40.021   6.523
 4567POPC   C3A60329   5.166  40.209   6.886
 4567POPC   C4A60330   5.222  40.115   7.332
 4567POPC   C1B60331   4.783  39.873   6.199
 4567POPC   C2B60332   4.836  39.829   6.653
 4567POPC   C3B60333   4.808  39.902   7.090
 4567POPC   C4B60334   4.773  39.899   7.519
 4568POPC   NC360335   9.013  24.732   5.373
 4568POPC   PO460336   8.671  24.170   5.608
 4568POPC   GL160337   8.843  24.485   5.818
 4568POPC   GL260338   9.138  24.619   5.828
 4568POPC   C1A60339   8.778  24.586   6.219
 4568POPC   D2A60340   8.775  24.383   6.616
 4568POPC   C3A60341   8.666  24.670   6.912
 4568POPC   C4A60342   9.062  24.753   7.098
 4568POPC   C1B60343   9.273  24.506   6.205
 4568POPC   C2B60344   9.247  24.229   6.488
 4568POPC   C3B60345   9.280  24.346   6.854
 4568POPC   C4B60346   9.389  24.348   7.236
 4569POPC   NC360347  22.875  14.780   5.486
 4569POPC   PO460348  23.091  14.179   5.087
 4569POPC   GL160349  22.975  14.276   5.541
 4569POPC   GL260350  23.270  14.225   5.739
 4569POPC   C1A60351  22.828  14.286   6.001
 4569POPC   D2A60352  22.775  14.539   6.385
 4569POPC   C3A60353  22.822  14.306   6.792
 4569POPC   C4A60354  22.649  14.122   7.164
 4569POPC   C1B60355  23.263  14.576   6.057
 4569POPC   C2B60356  23.265  14.619   6.513
 4569POPC   C3B60357  23.343  14.410   6.911
 4569POPC   C4B60358  23.106  14.324   7.290
 4570POPC   NC360359  13.957   7.738   5.423
 4570POPC   PO460360  14.520   7.334   5.329
 4570POPC   GL160361  14.287   7.298   5.757
 4570POPC   GL260362  14.127   7.601   5.884
 4570POPC   C1A60363  14.375   7.157   6.203
 4570POPC   D2A60364  14.210   7.027   6.623
 4570POPC   C3A60365  14.411   7.273   6.954
 4570POPC   C4A60366  14.585   7.291   7.370
 4570POPC   C1B60367  14.466   7.667   6.164
 4570POPC   C2B60368  14.602   7.648   6.568
 4570POPC   C3B60369  14.450   7.772   6.919
 4570POPC   C4B60370  14.435   7.768   7.315
 4571POPC   NC360371  27.772  29.802   5.433
 4571POPC   PO460372  27.975  30.426   5.445
 4571POPC   GL160373  27.603  30.323   5.731
 4571POPC   GL260374  27.442  29.973   5.798
 4571POPC   C1A60375  27.525  30.274   6.196
 4571POPC   D2A60376  27.374  30.216   6.625
 4571POPC   C3A60377  27.642  29.965   6.938
 4571POPC   C4A60378  27.934  30.088   7.273
 4571POPC   C1B60379  27.377  29.724   6.228
 4571POPC   C2B60380  27.394  29.571   6.692
 4571POPC   C3B60381  27.709  29.470   7.055
 4571POPC   C4B60382  28.135  29.615   7.172
 4572POPC   NC360383  36.753  18.990   5.353
 4572POPC   PO460384  37.308  19.393   5.382
 4572POPC   GL160385  37.123  19.151   5.709
 4572POPC   GL260386  36.800  19.232   5.788
 4572POPC   C1A60387  37.100  19.016   6.142
 4572POPC   D2A60388  36.898  19.088   6.553
 4572POPC   C3A60389  37.013  18.945   6.978
 4572POPC   C4A60390  37.294  19.008   7.360
 4572POPC   C1B60391  36.771  19.432   6.147
 4572POPC   C2B60392  36.553  19.476   6.506
 4572POPC   C3B60393  36.494  19.278   6.884
 4572POPC   C4B60394  36.686  19.210   7.263
 4573POPC   NC360395  20.726   1.239   5.348
 4573POPC   PO460396  20.422   0.717   5.434
 4573POPC   GL160397  20.421   1.066   5.766
 4573POPC   GL260398  20.687   1.309   5.841
 4573POPC   C1A60399  20.452   1.091   6.247
 4573POPC   D2A60400  20.750   1.139   6.614
 4573POPC   C3A60401  20.592   1.059   7.041
 4573POPC   C4A60402  20.531   1.036   7.501
 4573POPC   C1B60403  20.686   1.540   6.216
 4573POPC   C2B60404  20.536   1.599   6.615
 4573POPC   C3B60405  20.767   1.544   6.988
 4573POPC   C4B60406  20.760   1.746   7.406
 4574POPC   NC360407  13.855  20.034   5.401
 4574POPC   PO460408  13.180  19.800   5.456
 4574POPC   GL160409  13.490  19.771   5.758
 4574POPC   GL260410  13.255  19.625   6.004
 4574POPC   C1A60411  13.688  19.825   6.172
 4574POPC   D2A60412  13.467  19.741   6.549
 4574POPC   C3A60413  13.754  19.735   6.880
 4574POPC   C4A60414  13.748  19.594   7.279
 4574POPC   C1B60415  13.221  20.080   6.142
 4574POPC   C2B60416  13.426  20.249   6.534
 4574POPC   C3B60417  13.396  20.083   6.983
 4574POPC   C4B60418  13.565  20.280   7.391
 4575POPC   NC360419  36.291  41.169   5.371
 4575POPC   PO460420  36.312  40.459   5.488
 4575POPC   GL160421  36.176  40.804   5.718
 4575POPC   GL260422  35.830  40.896   5.652
 4575POPC   C1A60423  36.250  40.858   6.136
 4575POPC   D2A60424  36.383  40.603   6.499
 4575POPC   C3A60425  36.212  40.709   6.907
 4575POPC   C4A60426  36.352  40.796   7.311
 4575POPC   C1B60427  35.790  40.659   6.059
 4575POPC   C2B60428  35.863  40.770   6.496
 4575POPC   C3B60429  35.704  40.659   6.906
 4575POPC   C4B60430  35.828  40.784   7.329
 4576POPC   NC360431  26.992   3.502   5.515
 4576POPC   PO460432  26.501   3.234   5.768
 4576POPC   GL160433  26.945   3.224   5.965
 4576POPC   GL260434  27.217   3.476   5.950
 4576POPC   C1A60435  26.954   3.397   6.384
 4576POPC   D2A60436  26.683   3.742   6.545
 4576POPC   C3A60437  26.550   3.593   6.948
 4576POPC   C4A60438  26.710   3.309   7.290
 4576POPC   C1B60439  27.168   3.834   6.272
 4576POPC   C2B60440  27.128   3.890   6.711
 4576POPC   C3B60441  27.054   3.693   7.108
 4576POPC   C4B60442  27.107   3.798   7.555
 4577POPC   NC360443   8.249  35.147   5.060
 4577POPC   PO460444   7.929  35.619   5.349
 4577POPC   GL160445   8.175  35.522   5.680
 4577POPC   GL260446   8.163  35.192   5.657
 4577POPC   C1A60447   8.325  35.588   6.100
 4577POPC   D2A60448   8.164  35.503   6.526
 4577POPC   C3A60449   8.238  35.622   6.974
 4577POPC   C4A60450   8.366  35.397   7.320
 4577POPC   C1B60451   8.035  35.163   6.106
 4577POPC   C2B60452   7.900  35.055   6.543
 4577POPC   C3B60453   8.173  35.085   6.928
 4577POPC   C4B60454   8.261  34.890   7.347
 4578POPC   NC360455   7.681  42.814   5.453
 4578POPC   PO460456   7.555  43.397   5.194
 4578POPC   GL160457   7.499  43.284   5.644
 4578POPC   GL260458   7.238  43.009   5.658
 4578POPC   C1A60459   7.623  43.361   6.117
 4578POPC   D2A60460   7.682  43.223   6.584
 4578POPC   C3A60461   7.659  43.428   7.017
 4578POPC   C4A60462   7.546  43.157   7.387
 4578POPC   C1B60463   7.183  42.837   6.091
 4578POPC   C2B60464   7.303  42.787   6.537
 4578POPC   C3B60465   7.346  42.984   6.943
 4578POPC   C4B60466   7.099  42.891   7.302
 4579POPC   NC360467  19.653   9.358   5.493
 4579POPC   PO460468  19.485  10.043   5.423
 4579POPC   GL160469  19.783   9.909   5.778
 4579POPC   GL260470  20.005   9.632   5.798
 4579POPC   C1A60471  19.942   9.885   6.232
 4579POPC   D2A60472  20.199   9.737   6.598
 4579POPC   C3A60473  20.037   9.773   6.987
 4579POPC   C4A60474  19.673   9.932   7.153
 4579POPC   C1B60475  19.876   9.391   6.168
 4579POPC   C2B60476  19.808   9.381   6.604
 4579POPC   C3B60477  19.614   9.474   6.970
 4579POPC   C4B60478  19.725   9.475   7.410
 4580POPC   NC360479  31.959   4.024   5.554
 4580POPC   PO460480  32.506   4.446   5.458
 4580POPC   GL160481  32.238   4.374   5.781
 4580POPC   GL260482  32.390   4.037   5.849
 4580POPC   C1A60483  32.018   4.366   6.184
 4580POPC   D2A60484  32.028   4.630   6.531
 4580POPC   C3A60485  32.005   4.437   6.894
 4580POPC   C4A60486  32.141   4.512   7.272
 4580POPC   C1B60487  32.518   4.334   6.187
 4580POPC   C2B60488  32.385   4.269   6.601
 4580POPC   C3B60489  32.521   4.289   7.023
 4580POPC   C4B60490  32.469   4.202   7.498
 4581POPC   NC360491  39.429   1.630   5.555
 4581POPC   PO460492  38.962   1.735   5.093
 4581POPC   GL160493  39.051   1.981   5.644
 4581POPC   GL260494  39.301   1.874   5.960
 4581POPC   C1A60495  38.836   1.925   6.142
 4581POPC   D2A60496  38.926   1.749   6.603
 4581POPC   C3A60497  38.856   1.906   7.061
 4581POPC   C4A60498  38.914   2.356   7.253
 4581POPC   C1B60499  39.544   1.674   6.313
 4581POPC   C2B60500  39.679   1.708   6.718
 4581POPC   C3B60501  39.356   1.842   6.921
 4581POPC   C4B60502  39.344   2.102   7.242
 4582POPC   NC360503  21.348  17.920   5.579
 4582POPC   PO460504  21.411  17.450   5.149
 4582POPC   GL160505  21.448  17.436   5.673
 4582POPC   GL260506  21.704  17.683   5.850
 4582POPC   C1A60507  21.266  17.432   6.107
 4582POPC   D2A60508  21.115  17.374   6.533
 4582POPC   C3A60509  21.225  17.592   6.869
 4582POPC   C4A60510  21.314  17.710   7.278
 4582POPC   C1B60511  21.729  17.585   6.260
 4582POPC   C2B60512  21.923  17.639   6.625
 4582POPC   C3B60513  21.719  17.682   6.971
 4582POPC   C4B60514  21.808  17.685   7.358
 4583POPC   NC360515   8.506  25.161   5.160
 4583POPC   PO460516   7.965  24.865   5.476
 4583POPC   GL160517   8.094  25.203   5.797
 4583POPC   GL260518   8.448  25.338   5.690
 4583POPC   C1A60519   8.028  25.230   6.291
 4583POPC   D2A60520   8.070  25.021   6.690
 4583POPC   C3A60521   8.273  25.103   7.065
 4583POPC   C4A60522   7.977  25.342   7.294
 4583POPC   C1B60523   8.445  25.517   6.124
 4583POPC   C2B60524   8.472  25.409   6.589
 4583POPC   C3B60525   8.344  25.595   7.003
 4583POPC   C4B60526   8.423  25.469   7.475
 4584POPC   NC360527  13.686  17.058   5.217
 4584POPC   PO460528  13.063  16.900   5.328
 4584POPC   GL160529  13.456  16.904   5.676
 4584POPC   GL260530  13.725  16.608   5.706
 4584POPC   C1A60531  13.798  16.953   6.050
 4584POPC   D2A60532  13.895  16.771   6.458
 4584POPC   C3A60533  13.715  17.016   6.789
 4584POPC   C4A60534  13.637  16.973   7.216
 4584POPC   C1B60535  13.872  16.375   6.129
 4584POPC   C2B60536  13.922  16.267   6.600
 4584POPC   C3B60537  13.796  16.543   6.954
 4584POPC   C4B60538  13.654  16.496   7.406
 4585POPC   NC360539  39.751  41.427   5.483
 4585POPC   PO460540  39.637  41.995   5.130
 4585POPC   GL160541  40.026  41.882   5.518
 4585POPC   GL260542  40.211  41.621   5.668
 4585POPC   C1A60543  40.069  41.933   6.038
 4585POPC   D2A60544  39.875  41.647   6.370
 4585POPC   C3A60545  39.935  41.630   6.840
 4585POPC   C4A60546  39.665  41.479   7.215
 4585POPC   C1B60547  40.237  41.384   6.064
 4585POPC   C2B60548  40.239  41.312   6.516
 4585POPC   C3B60549  40.383  41.373   6.932
 4585POPC   C4B60550  40.189  41.505   7.283
 4586POPC   NC360551  41.722  15.503   5.646
 4586POPC   PO460552  41.370  16.154   5.466
 4586POPC   GL160553  41.401  15.887   5.801
 4586POPC   GL260554  41.732  15.959   5.895
 4586POPC   C1A60555  41.269  15.694   6.192
 4586POPC   D2A60556  41.292  15.956   6.519
 4586POPC   C3A60557  41.557  15.876   6.833
 4586POPC   C4A60558  41.592  15.828   7.244
 4586POPC   C1B60559  41.516  16.239   6.175
 4586POPC   C2B60560  41.600  16.376   6.630
 4586POPC   C3B60561  41.506  16.314   7.115
 4586POPC   C4B60562  41.685  16.211   7.565
 4587POPC   NC360563  21.124  36.459   5.365
 4587POPC   PO460564  21.560  35.843   5.261
 4587POPC   GL160565  21.502  35.935   5.729
 4587POPC   GL260566  21.862  35.863   5.788
 4587POPC   C1A60567  21.241  36.091   6.129
 4587POPC   D2A60568  21.033  36.160   6.546
 4587POPC   C3A60569  21.153  36.389   6.944
 4587POPC   C4A60570  21.039  36.075   7.272
 4587POPC   C1B60571  21.745  36.089   6.168
 4587POPC   C2B60572  21.720  35.990   6.573
 4587POPC   C3B60573  21.443  35.983   6.918
 4587POPC   C4B60574  21.526  35.985   7.352
 4588POPC   NC360575   0.798  11.418   5.178
 4588POPC   PO460576   0.206  11.620   5.459
 4588POPC   GL160577   0.306  11.323   5.731
 4588POPC   GL260578   0.653  11.291   5.735
 4588POPC   C1A60579   0.288  11.327   6.159
 4588POPC   D2A60580   0.072  11.563   6.470
 4588POPC   C3A60581   0.245  11.429   6.843
 4588POPC   C4A60582   0.123  11.379   7.275
 4588POPC   C1B60583   0.805  11.202   6.156
 4588POPC   C2B60584   0.849  11.391   6.570
 4588POPC   C3B60585   0.723  11.488   6.970
 4588POPC   C4B60586   0.540  11.125   7.151
 4589POPC   NC360587  35.371  33.308   5.421
 4589POPC   PO460588  35.640  32.721   5.261
 4589POPC   GL160589  35.535  32.846   5.661
 4589POPC   GL260590  35.730  33.144   5.751
 4589POPC   C1A60591  35.310  32.930   6.047
 4589POPC   D2A60592  35.178  32.731   6.421
 4589POPC   C3A60593  35.392  32.822   6.808
 4589POPC   C4A60594  35.214  32.898   7.210
 4589POPC   C1B60595  35.715  33.235   6.195
 4589POPC   C2B60596  35.375  33.266   6.507
 4589POPC   C3B60597  35.338  33.335   6.944
 4589POPC   C4B60598  35.639  33.302   7.267
 4590POPC   NC360599  25.657  20.440   5.154
 4590POPC   PO460600  25.102  20.818   5.384
 4590POPC   GL160601  25.229  20.792   5.813
 4590POPC   GL260602  25.266  20.490   6.024
 4590POPC   C1A60603  25.121  20.923   6.220
 4590POPC   D2A60604  25.280  20.714   6.565
 4590POPC   C3A60605  25.225  20.834   6.965
 4590POPC   C4A60606  25.263  20.546   7.284
 4590POPC   C1B60607  25.507  20.309   6.399
 4590POPC   C2B60608  25.683  20.378   6.846
 4590POPC   C3B60609  25.637  20.203   7.289
 4590POPC   C4B60610  25.457  20.278   7.738
 4591POPC   NC360611   4.326  17.449   5.407
 4591POPC   PO460612   3.856  17.892   5.581
 4591POPC   GL160613   4.179  17.774   5.874
 4591POPC   GL260614   4.395  17.448   5.906
 4591POPC   C1A60615   4.094  17.620   6.288
 4591POPC   D2A60616   4.141  17.263   6.571
 4591POPC   C3A60617   4.270  17.400   6.991
 4591POPC   C4A60618   4.172  17.785   7.155
 4591POPC   C1B60619   4.578  17.732   6.208
 4591POPC   C2B60620   4.642  17.960   6.597
 4591POPC   C3B60621   4.648  17.789   6.998
 4591POPC   C4B60622   4.618  17.608   7.408
 4592POPC   NC360623   9.134   6.982   5.565
 4592POPC   PO460624   9.060   7.706   5.517
 4592POPC   GL160625   8.961   7.439   5.839
 4592POPC   GL260626   8.694   7.230   5.725
 4592POPC   C1A60627   8.795   7.543   6.250
 4592POPC   D2A60628   8.886   7.397   6.674
 4592POPC   C3A60629   8.920   7.635   7.045
 4592POPC   C4A60630   9.142   7.559   7.473
 4592POPC   C1B60631   8.490   7.128   6.141
 4592POPC   C2B60632   8.396   7.256   6.568
 4592POPC   C3B60633   8.556   7.161   6.997
 4592POPC   C4B60634   8.712   7.315   7.427
 4593POPC   NC360635  32.376   2.274   5.394
 4593POPC   PO460636  32.515   1.697   5.173
 4593POPC   GL160637  32.229   1.725   5.614
 4593POPC   GL260638  32.162   2.060   5.815
 4593POPC   C1A60639  32.261   1.686   6.111
 4593POPC   D2A60640  32.220   1.566   6.543
 4593POPC   C3A60641  32.196   1.845   6.891
 4593POPC   C4A60642  32.213   1.672   7.300
 4593POPC   C1B60643  32.393   2.375   6.129
 4593POPC   C2B60644  32.465   2.588   6.554
 4593POPC   C3B60645  32.419   2.359   6.921
 4593POPC   C4B60646  32.438   2.123   7.285
 4594POPC   NC360647  42.591  44.300   5.570
 4594POPC   PO460648  42.314  44.792   5.131
 4594POPC   GL160649  42.199  44.730   5.607
 4594POPC   GL260650  42.054   0.033   5.736
 4594POPC   C1A60651  42.142  44.610   6.080
 4594POPC   D2A60652  42.489  44.482   6.395
 4594POPC   C3A60653  42.566  44.656   6.837
 4594POPC   C4A60654  42.515  44.565   7.292
 4594POPC   C1B60655  41.824   0.041   6.143
 4594POPC   C2B60656  41.900   0.034   6.593
 4594POPC   C3B60657  42.098  44.873   7.006
 4594POPC   C4B60658  42.145  44.844   7.480
 4595POPC   NC360659   4.756  19.942   5.393
 4595POPC   PO460660   4.077  20.022   5.452
 4595POPC   GL160661   4.360  19.839   5.772
 4595POPC   GL260662   4.098  19.692   5.916
 4595POPC   C1A60663   4.467  19.714   6.235
 4595POPC   D2A60664   4.234  19.521   6.592
 4595POPC   C3A60665   4.359  19.641   6.983
 4595POPC   C4A60666   4.432  19.924   7.290
 4595POPC   C1B60667   3.863  19.641   6.263
 4595POPC   C2B60668   3.778  19.828   6.656
 4595POPC   C3B60669   3.862  19.621   7.040
 4595POPC   C4B60670   3.889  19.518   7.506
 4596POPC   NC360671  35.951  12.476   5.550
 4596POPC   PO460672  35.832  13.176   5.436
 4596POPC   GL160673  36.070  12.948   5.798
 4596POPC   GL260674  36.326  12.650   5.878
 4596POPC   C1A60675  36.033  12.864   6.242
 4596POPC   D2A60676  35.774  12.978   6.568
 4596POPC   C3A60677  35.920  12.754   6.904
 4596POPC   C4A60678  36.247  12.847   7.186
 4596POPC   C1B60679  36.457  12.557   6.326
 4596POPC   C2B60680  36.467  12.565   6.802
 4596POPC   C3B60681  36.434  12.390   7.245
 4596POPC   C4B60682  36.452  12.613   7.649
 4597POPC   NC360683  43.477  42.285   5.427
 4597POPC   PO460684  44.087  41.931   5.657
 4597POPC   GL160685  43.830  42.218   5.788
 4597POPC   GL260686  43.571  41.949   5.822
 4597POPC   C1A60687  43.969  42.392   6.155
 4597POPC   D2A60688  44.027  42.462   6.585
 4597POPC   C3A60689  44.154  42.163   6.870
 4597POPC   C4A60690  44.386  42.352   7.143
 4597POPC   C1B60691  43.510  42.194   6.204
 4597POPC   C2B60692  43.714  42.066   6.592
 4597POPC   C3B60693  43.664  42.188   7.040
 4597POPC   C4B60694  43.808  42.178   7.479
 4598POPC   NC360695   7.850  26.087   5.384
 4598POPC   PO460696   8.227  25.547   5.264
 4598POPC   GL160697   8.060  25.707   5.668
 4598POPC   GL260698   8.153  26.025   5.806
 4598POPC   C1A60699   7.948  25.685   6.106
 4598POPC   D2A60700   8.103  25.754   6.549
 4598POPC   C3A60701   7.916  25.891   6.938
 4598POPC   C4A60702   8.102  25.850   7.353
 4598POPC   C1B60703   8.342  26.041   6.216
 4598POPC   C2B60704   8.535  26.129   6.620
 4598POPC   C3B60705   8.373  26.175   7.047
 4598POPC   C4B60706   7.968  26.315   7.203
 4599POPC   NC360707   1.564  39.166   5.346
 4599POPC   PO460708   0.856  39.056   5.421
 4599POPC   GL160709   1.177  39.121   5.721
 4599POPC   GL260710   1.275  39.459   5.715
 4599POPC   C1A60711   1.255  39.027   6.152
 4599POPC   D2A60712   0.960  39.070   6.498
 4599POPC   C3A60713   1.123  39.105   6.891
 4599POPC   C4A60714   1.260  39.183   7.281
 4599POPC   C1B60715   1.039  39.498   6.108
 4599POPC   C2B60716   1.019  39.753   6.506
 4599POPC   C3B60717   1.149  39.628   6.912
 4599POPC   C4B60718   0.911  39.545   7.263
 4600POPC   NC360719   6.198  11.038   5.493
 4600POPC   PO460720   6.883  11.312   5.509
 4600POPC   GL160721   6.534  11.264   5.816
 4600POPC   GL260722   6.523  10.899   5.860
 4600POPC   C1A60723   6.377  11.458   6.219
 4600POPC   D2A60724   6.517  11.630   6.615
 4600POPC   C3A60725   6.500  11.564   7.068
 4600POPC   C4A60726   6.704  11.607   7.467
 4600POPC   C1B60727   6.335  10.959   6.260
 4600POPC   C2B60728   6.362  11.143   6.641
 4600POPC   C3B60729   6.558  11.062   7.002
 4600POPC   C4B60730   6.533  10.769   7.270
 4601POPC   NC360731   5.609  29.773   5.529
 4601POPC   PO460732   4.899  29.866   5.381
 4601POPC   GL160733   5.206  30.049   5.739
 4601POPC   GL260734   5.310  29.744   5.941
 4601POPC   C1A60735   5.324  30.152   6.239
 4601POPC   D2A60736   5.279  29.974   6.707
 4601POPC   C3A60737   5.328  30.142   7.164
 4601POPC   C4A60738   5.092  30.076   7.571
 4601POPC   C1B60739   5.319  29.452   6.319
 4601POPC   C2B60740   5.194  29.470   6.779
 4601POPC   C3B60741   5.037  29.710   7.159
 4601POPC   C4B60742   4.962  29.578   7.612
 4602POPC   NC360743  30.130  32.325   5.263
 4602POPC   PO460744  29.607  31.873   5.443
 4602POPC   GL160745  29.899  32.078   5.677
 4602POPC   GL260746  29.687  32.317   5.803
 4602POPC   C1A60747  30.084  32.100   6.089
 4602POPC   D2A60748  29.923  32.307   6.443
 4602POPC   C3A60749  30.221  32.383   6.755
 4602POPC   C4A60750  29.914  32.455   7.056
 4602POPC   C1B60751  29.596  32.046   6.129
 4602POPC   C2B60752  29.606  31.822   6.495
 4602POPC   C3B60753  29.720  32.021   6.849
 4602POPC   C4B60754  29.671  32.069   7.278
 4603POPC   NC360755  23.615   7.634   5.011
 4603POPC   PO460756  23.710   7.399   5.567
 4603POPC   GL160757  23.872   7.396   5.915
 4603POPC   GL260758  24.156   7.634   5.787
 4603POPC   C1A60759  23.671   7.583   6.261
 4603POPC   D2A60760  23.658   7.858   6.599
 4603POPC   C3A60761  23.660   7.575   6.911
 4603POPC   C4A60762  23.370   7.348   7.160
 4603POPC   C1B60763  24.113   7.843   6.185
 4603POPC   C2B60764  24.139   7.716   6.619
 4603POPC   C3B60765  24.244   7.746   7.034
 4603POPC   C4B60766  23.948   7.594   7.321
 4604POPC   NC360767  26.132  14.118   5.221
 4604POPC   PO460768  25.694  14.614   5.445
 4604POPC   GL160769  26.013  14.636   5.801
 4604POPC   GL260770  26.144  14.266   5.830
 4604POPC   C1A60771  26.261  14.600   6.235
 4604POPC   D2A60772  26.410  14.456   6.677
 4604POPC   C3A60773  26.185  14.522   7.066
 4604POPC   C4A60774  26.138  14.249   7.434
 4604POPC   C1B60775  25.829  14.342   6.209
 4604POPC   C2B60776  25.852  14.358   6.691
 4604POPC   C3B60777  25.726  14.286   7.145
 4604POPC   C4B60778  25.664  14.188   7.581
 4605POPC   NC360779  19.879  39.852   5.626
 4605POPC   PO460780  20.030  39.264   5.256
 4605POPC   GL160781  20.033  39.246   5.709
 4605POPC   GL260782  19.965  38.906   5.858
 4605POPC   C1A60783  20.160  39.345   6.161
 4605POPC   D2A60784  20.037  39.636   6.495
 4605POPC   C3A60785  19.980  39.538   6.924
 4605POPC   C4A60786  20.161  39.205   7.147
 4605POPC   C1B60787  19.678  39.208   6.090
 4605POPC   C2B60788  19.662  39.260   6.546
 4605POPC   C3B60789  19.645  39.137   6.991
 4605POPC   C4B60790  19.416  38.996   7.380
 4606POPC   NC360791   8.955  26.420   5.506
 4606POPC   PO460792   8.736  27.060   5.680
 4606POPC   GL160793   9.031  26.785   5.883
 4606POPC   GL260794   9.193  27.009   6.118
 4606POPC   C1A60795   9.193  26.482   6.181
 4606POPC   D2A60796   9.290  26.614   6.603
 4606POPC   C3A60797   9.405  26.440   6.989
 4606POPC   C4A60798   9.184  26.733   7.235
 4606POPC   C1B60799   8.760  27.101   6.309
 4606POPC   C2B60800   8.597  27.140   6.715
 4606POPC   C3B60801   8.722  26.947   7.087
 4606POPC   C4B60802   8.640  26.942   7.528
 4607POPC   NC360803  12.374   1.011   5.518
 4607POPC   PO460804  13.020   1.264   5.381
 4607POPC   GL160805  12.890   1.311   5.768
 4607POPC   GL260806  12.830   0.960   5.816
 4607POPC   C1A60807  12.531   1.399   6.040
 4607POPC   D2A60808  12.544   1.487   6.486
 4607POPC   C3A60809  12.590   1.246   6.869
 4607POPC   C4A60810  12.829   1.186   7.243
 4607POPC   C1B60811  12.895   1.128   6.253
 4607POPC   C2B60812  13.043   1.067   6.666
 4607POPC   C3B60813  13.080   0.812   7.018
 4607POPC   C4B60814  13.195   0.890   7.473
 4608POPC   NC360815  44.284  34.631   5.485
 4608POPC   PO460816  44.965  34.357   5.468
 4608POPC   GL160817  44.825  34.504   5.889
 4608POPC   GL260818  44.546  34.747   5.907
 4608POPC   C1A60819  44.966  34.819   6.206
 4608POPC   D2A60820   0.022  34.970   6.640
 4608POPC   C3A60821  44.907  34.661   6.956
 4608POPC   C4A60822  44.699  34.446   7.280
 4608POPC   C1B60823  44.512  34.588   6.342
 4608POPC   C2B60824  44.312  34.686   6.729
 4608POPC   C3B60825  44.425  34.825   7.115
 4608POPC   C4B60826  44.254  34.806   7.523
 4609POPC   NC360827   3.928  40.600   5.192
 4609POPC   PO460828   3.322  40.652   5.515
 4609POPC   GL160829   3.658  40.701   5.818
 4609POPC   GL260830   3.991  40.577   5.705
 4609POPC   C1A60831   3.517  40.702   6.238
 4609POPC   D2A60832   3.256  40.937   6.537
 4609POPC   C3A60833   3.249  40.932   6.987
 4609POPC   C4A60834   3.565  41.010   7.281
 4609POPC   C1B60835   3.989  40.508   6.165
 4609POPC   C2B60836   3.873  40.684   6.589
 4609POPC   C3B60837   3.638  40.609   6.950
 4609POPC   C4B60838   3.484  40.517   7.373
 4610POPC   NC360839  37.009  21.737   5.023
 4610POPC   PO460840  36.807  21.171   5.349
 4610POPC   GL160841  36.846  21.314   5.778
 4610POPC   GL260842  37.164  21.232   5.919
 4610POPC   C1A60843  36.743  21.342   6.236
 4610POPC   D2A60844  36.906  21.579   6.593
 4610POPC   C3A60845  36.855  21.459   7.040
 4610POPC   C4A60846  36.527  21.595   7.305
 4610POPC   C1B60847  37.229  21.254   6.362
 4610POPC   C2B60848  36.961  21.072   6.678
 4610POPC   C3B60849  37.044  20.974   7.095
 4610POPC   C4B60850  37.214  21.242   7.380
 4611POPC   NC360851  12.996  13.354   5.568
 4611POPC   PO460852  12.513  13.831   5.402
 4611POPC   GL160853  12.738  13.682   5.844
 4611POPC   GL260854  12.662  13.322   5.972
 4611POPC   C1A60855  13.033  13.582   6.233
 4611POPC   D2A60856  13.367  13.654   6.547
 4611POPC   C3A60857  13.162  13.691   6.952
 4611POPC   C4A60858  12.810  13.532   7.246
 4611POPC   C1B60859  12.639  13.321   6.445
 4611POPC   C2B60860  12.670  13.667   6.767
 4611POPC   C3B60861  12.469  13.896   7.152
 4611POPC   C4B60862  12.587  13.875   7.623
 4612POPC   NC360863  30.474   4.230   5.001
 4612POPC   PO460864  30.876   4.576   5.475
 4612POPC   GL160865  30.629   4.328   5.784
 4612POPC   GL260866  30.420   4.580   5.953
 4612POPC   C1A60867  30.431   4.131   6.166
 4612POPC   D2A60868  30.393   4.400   6.548
 4612POPC   C3A60869  30.688   4.277   6.873
 4612POPC   C4A60870  30.769   4.339   7.290
 4612POPC   C1B60871  30.806   4.508   6.254
 4612POPC   C2B60872  30.840   4.729   6.685
 4612POPC   C3B60873  30.543   4.747   7.066
 4612POPC   C4B60874  30.545   4.705   7.562
 4613POPC   NC360875  20.088  21.744   5.407
 4613POPC   PO460876  20.735  22.076   5.286
 4613POPC   GL160877  20.758  22.179   5.739
 4613POPC   GL260878  20.403  22.158   5.710
 4613POPC   C1A60879  20.894  22.010   6.176
 4613POPC   D2A60880  21.003  22.108   6.626
 4613POPC   C3A60881  20.882  21.913   7.042
 4613POPC   C4A60882  20.552  22.005   7.382
 4613POPC   C1B60883  20.361  22.018   6.114
 4613POPC   C2B60884  20.506  22.000   6.523
 4613POPC   C3B60885  20.366  21.911   6.905
 4613POPC   C4B60886  20.080  21.982   7.242
 4614POPC   NC360887   9.495  21.841   5.652
 4614POPC   PO460888  10.113  22.091   5.537
 4614POPC   GL160889   9.886  22.074   5.882
 4614POPC   GL260890   9.907  21.694   5.931
 4614POPC   C1A60891   9.602  22.187   6.238
 4614POPC   D2A60892   9.527  21.950   6.621
 4614POPC   C3A60893   9.569  22.123   7.028
 4614POPC   C4A60894   9.797  22.396   7.296
 4614POPC   C1B60895  10.027  21.925   6.328
 4614POPC   C2B60896  10.065  22.218   6.656
 4614POPC   C3B60897  10.216  22.251   7.069
 4614POPC   C4B60898  10.116  22.015   7.458
 4615POPC   NC360899  35.873  11.290   5.390
 4615POPC   PO460900  36.396  11.734   5.198
 4615POPC   GL160901  36.259  11.631   5.653
 4615POPC   GL260902  36.235  11.273   5.733
 4615POPC   C1A60903  36.165  11.637   6.122
 4615POPC   D2A60904  36.311  11.553   6.560
 4615POPC   C3A60905  36.072  11.726   6.914
 4615POPC   C4A60906  35.807  11.586   7.272
 4615POPC   C1B60907  36.238  11.106   6.141
 4615POPC   C2B60908  36.051  11.040   6.539
 4615POPC   C3B60909  36.125  11.222   6.926
 4615POPC   C4B60910  36.300  11.026   7.226
 4616POPC   NC360911   6.634  36.758   5.454
 4616POPC   PO460912   6.965  37.330   5.653
 4616POPC   GL160913   6.549  37.142   5.817
 4616POPC   GL260914   6.234  37.356   5.770
 4616POPC   C1A60915   6.456  36.826   6.182
 4616POPC   D2A60916   6.434  36.623   6.637
 4616POPC   C3A60917   6.582  36.903   6.984
 4616POPC   C4A60918   6.700  37.058   7.403
 4616POPC   C1B60919   6.327  37.379   6.232
 4616POPC   C2B60920   6.371  37.372   6.692
 4616POPC   C3B60921   6.376  37.339   7.155
 4616POPC   C4B60922   6.280  37.181   7.638
 4617POPC   NC360923  13.371  21.922   5.275
 4617POPC   PO460924  13.876  22.331   5.434
 4617POPC   GL160925  13.490  22.229   5.672
 4617POPC   GL260926  13.565  21.960   5.935
 4617POPC   C1A60927  13.300  22.368   6.056
 4617POPC   D2A60928  13.574  22.222   6.386
 4617POPC   C3A60929  13.464  22.206   6.787
 4617POPC   C4A60930  13.561  22.201   7.177
 4617POPC   C1B60931  13.874  21.830   6.267
 4617POPC   C2B60932  13.870  21.871   6.705
 4617POPC   C3B60933  13.885  21.809   7.160
 4617POPC   C4B60934  13.879  21.743   7.631
 4618POPC   NC360935   7.868   9.149   5.015
 4618POPC   PO460936   8.095   8.639   5.505
 4618POPC   GL160937   8.245   8.858   5.861
 4618POPC   GL260938   8.585   8.980   5.930
 4618POPC   C1A60939   8.109   8.885   6.293
 4618POPC   D2A60940   8.023   8.619   6.657
 4618POPC   C3A60941   7.979   8.848   7.065
 4618POPC   C4A60942   8.153   8.777   7.501
 4618POPC   C1B60943   8.544   9.126   6.358
 4618POPC   C2B60944   8.418   9.087   6.801
 4618POPC   C3B60945   8.506   9.026   7.238
 4618POPC   C4B60946   8.488   9.194   7.663
 4619POPC   NC360947   6.710  31.880   5.373
 4619POPC   PO460948   6.878  32.517   5.257
 4619POPC   GL160949   6.643  32.480   5.654
 4619POPC   GL260950   6.605  32.156   5.830
 4619POPC   C1A60951   6.673  32.570   6.120
 4619POPC   D2A60952   6.810  32.486   6.548
 4619POPC   C3A60953   6.737  32.386   6.966
 4619POPC   C4A60954   6.822  32.518   7.374
 4619POPC   C1B60955   6.712  31.889   6.171
 4619POPC   C2B60956   6.893  31.972   6.593
 4619POPC   C3B60957   6.751  31.850   7.014
 4619POPC   C4B60958   6.592  32.056   7.410
 4620POPC   NC360959  29.432  18.242   5.367
 4620POPC   PO460960  28.815  18.064   5.218
 4620POPC   GL160961  29.014  18.251   5.659
 4620POPC   GL260962  28.834  18.446   5.860
 4620POPC   C1A60963  29.343  18.343   6.031
 4620POPC   D2A60964  29.460  18.250   6.487
 4620POPC   C3A60965  29.278  18.158   6.876
 4620POPC   C4A60966  29.337  18.430   7.153
 4620POPC   C1B60967  28.907  18.319   6.296
 4620POPC   C2B60968  28.742  18.297   6.716
 4620POPC   C3B60969  28.845  18.326   7.152
 4620POPC   C4B60970  28.777  18.468   7.593
 4621POPC   NC360971   4.176   3.404   5.345
 4621POPC   PO460972   4.460   3.961   5.294
 4621POPC   GL160973   4.352   3.805   5.706
 4621POPC   GL260974   4.134   3.535   5.832
 4621POPC   C1A60975   4.348   3.832   6.170
 4621POPC   D2A60976   4.433   3.620   6.516
 4621POPC   C3A60977   4.112   3.614   6.791
 4621POPC   C4A60978   4.205   3.737   7.134
 4621POPC   C1B60979   4.055   3.367   6.273
 4621POPC   C2B60980   4.276   3.160   6.657
 4621POPC   C3B60981   4.223   3.204   7.124
 4621POPC   C4B60982   3.940   3.091   7.467
 4622POPC   NC360983  40.965  35.870   5.522
 4622POPC   PO460984  40.831  36.493   5.328
 4622POPC   GL160985  40.867  36.347   5.764
 4622POPC   GL260986  40.631  36.100   5.901
 4622POPC   C1A60987  40.776  36.445   6.219
 4622POPC   D2A60988  40.628  36.124   6.516
 4622POPC   C3A60989  40.754  36.216   6.934
 4622POPC   C4A60990  40.950  36.466   7.266
 4622POPC   C1B60991  40.359  35.822   6.157
 4622POPC   C2B60992  40.167  35.761   6.551
 4622POPC   C3B60993  40.327  35.905   6.955
 4622POPC   C4B60994  40.587  35.843   7.311
 4623POPC   NC360995  31.782  18.933   5.391
 4623POPC   PO460996  31.213  19.256   5.498
 4623POPC   GL160997  31.372  19.228   5.851
 4623POPC   GL260998  31.732  19.304   5.744
 4623POPC   C1A60999  31.266  19.097   6.297
 4623POPC   D2A61000  31.399  18.812   6.640
 4623POPC   C3A61001  31.428  19.022   7.025
 4623POPC   C4A61002  31.289  19.093   7.473
 4623POPC   C1B61003  31.740  19.066   6.125
 4623POPC   C2B61004  31.741  19.187   6.542
 4623POPC   C3B61005  31.805  19.340   6.944
 4623POPC   C4B61006  31.761  19.218   7.368
 4624POPC   NC361007  38.761  34.119   5.093
 4624POPC   PO461008  38.295  34.559   5.390
 4624POPC   GL161009  38.330  34.388   5.796
 4624POPC   GL261010  38.691  34.247   5.787
 4624POPC   C1A61011  38.195  34.574   6.200
 4624POPC   D2A61012  38.221  34.404   6.599
 4624POPC   C3A61013  38.296  34.676   6.950
 4624POPC   C4A61014  38.413  34.522   7.356
 4624POPC   C1B61015  38.699  34.580   6.109
 4624POPC   C2B61016  38.660  34.683   6.523
 4624POPC   C3B61017  38.717  34.436   6.873
 4624POPC   C4B61018  38.898  34.320   7.250
 4625POPC   NC361019  29.052  23.101   5.447
 4625POPC   PO461020  29.489  22.614   5.544
 4625POPC   GL161021  29.301  22.863   5.850
 4625POPC   GL261022  28.947  22.860   5.890
 4625POPC   C1A61023  29.391  22.931   6.267
 4625POPC   D2A61024  29.205  22.789   6.634
 4625POPC   C3A61025  29.092  23.135   6.874
 4625POPC   C4A61026  29.188  23.097   7.263
 4625POPC   C1B61027  28.880  23.076   6.280
 4625POPC   C2B61028  28.671  22.960   6.649
 4625POPC   C3B61029  28.824  22.720   6.998
 4625POPC   C4B61030  28.738  22.853   7.394
 4626POPC   NC361031  37.751  17.221   5.514
 4626POPC   PO461032  37.674  17.882   5.508
 4626POPC   GL161033  37.665  17.606   5.857
 4626POPC   GL261034  37.332  17.430   5.846
 4626POPC   C1A61035  37.865  17.528   6.251
 4626POPC   D2A61036  37.929  17.764   6.641
 4626POPC   C3A61037  37.982  17.475   6.993
 4626POPC   C4A61038  37.886  17.503   7.407
 4626POPC   C1B61039  37.260  17.798   6.158
 4626POPC   C2B61040  37.395  17.856   6.619
 4626POPC   C3B61041  37.525  17.715   7.077
 4626POPC   C4B61042  37.459  17.688   7.590
 4627POPC   NC361043  43.954  43.293   5.493
 4627POPC   PO461044  43.678  42.712   5.479
 4627POPC   GL161045  43.657  42.740   5.893
 4627POPC   GL261046  43.681  43.082   5.868
 4627POPC   C1A61047  43.751  42.810   6.328
 4627POPC   D2A61048  44.021  42.966   6.683
 4627POPC   C3A61049  43.849  43.106   7.084
 4627POPC   C4A61050  43.976  43.061   7.545
 4627POPC   C1B61051  43.918  43.277   6.247
 4627POPC   C2B61052  43.851  43.446   6.665
 4627POPC   C3B61053  44.060  43.559   7.080
 4627POPC   C4B61054  43.854  43.550   7.485
 4628POPC   NC361055  34.880   7.473   5.379
 4628POPC   PO461056  35.296   7.027   5.331
 4628POPC   GL161057  35.225   7.313   5.748
 4628POPC   GL261058  35.190   7.714   5.723
 4628POPC   C1A61059  35.314   7.375   6.233
 4628POPC   D2A61060  35.124   7.326   6.659
 4628POPC   C3A61061  35.369   7.373   7.020
 4628POPC   C4A61062  35.692   7.134   7.227
 4628POPC   C1B61063  34.918   7.639   6.079
 4628POPC   C2B61064  34.926   7.768   6.517
 4628POPC   C3B61065  34.951   7.706   6.984
 4628POPC   C4B61066  35.046   7.460   7.398
 4629POPC   NC361067  29.155  24.843   5.106
 4629POPC   PO461068  29.229  24.236   5.234
 4629POPC   GL161069  28.997  24.227   5.630
 4629POPC   GL261070  29.247  24.325   5.842
 4629POPC   C1A61071  28.865  24.118   6.103
 4629POPC   D2A61072  28.711  23.955   6.531
 4629POPC   C3A61073  28.867  24.178   6.945
 4629POPC   C4A61074  29.045  24.393   7.341
 4629POPC   C1B61075  29.340  24.365   6.275
 4629POPC   C2B61076  29.205  24.524   6.683
 4629POPC   C3B61077  29.413  24.600   7.064
 4629POPC   C4B61078  29.582  24.389   7.425
 4630POPC   NC361079  23.874  21.956   5.221
 4630POPC   PO461080  23.437  22.472   5.405
 4630POPC   GL161081  23.573  22.186   5.742
 4630POPC   GL261082  23.919  22.083   5.741
 4630POPC   C1A61083  23.628  22.161   6.181
 4630POPC   D2A61084  23.731  22.325   6.608
 4630POPC   C3A61085  23.572  22.035   6.941
 4630POPC   C4A61086  23.325  21.867   7.329
 4630POPC   C1B61087  24.115  22.334   6.106
 4630POPC   C2B61088  24.243  22.422   6.551
 4630POPC   C3B61089  24.094  22.423   6.976
 4630POPC   C4B61090  23.739  22.422   7.239
 4631POPC   NC361091  29.356   1.908   5.362
 4631POPC   PO461092  28.687   2.011   5.350
 4631POPC   GL161093  29.019   2.116   5.700
 4631POPC   GL261094  29.109   1.801   5.787
 4631POPC   C1A61095  29.384   2.088   6.094
 4631POPC   D2A61096  29.385   1.808   6.515
 4631POPC   C3A61097  29.212   2.033   6.838
 4631POPC   C4A61098  28.827   2.085   7.115
 4631POPC   C1B61099  28.993   1.805   6.196
 4631POPC   C2B61100  28.961   1.512   6.510
 4631POPC   C3B61101  28.891   1.627   6.890
 4631POPC   C4B61102  28.740   1.598   7.242
 4632POPC   NC361103   1.017  36.374   5.439
 4632POPC   PO461104   1.558  36.100   5.399
 4632POPC   GL161105   1.270  36.040   5.774
 4632POPC   GL261106   0.921  36.135   5.873
 4632POPC   C1A61107   1.354  36.121   6.221
 4632POPC   D2A61108   1.522  36.386   6.551
 4632POPC   C3A61109   1.400  36.300   6.996
 4632POPC   C4A61110   1.454  35.877   7.203
 4632POPC   C1B61111   0.824  36.220   6.302
 4632POPC   C2B61112   1.055  36.115   6.663
 4632POPC   C3B61113   0.969  36.043   7.100
 4632POPC   C4B61114   0.747  36.068   7.498
 4633POPC   NC361115   2.866  39.822   5.550
 4633POPC   PO461116   2.418  40.246   5.652
 4633POPC   GL161117   2.467  39.958   5.992
 4633POPC   GL261118   2.588  39.611   6.011
 4633POPC   C1A61119   2.622  40.039   6.391
 4633POPC   D2A61120   2.899  40.028   6.708
 4633POPC   C3A61121   2.705  40.167   7.021
 4633POPC   C4A61122   2.356  39.921   7.090
 4633POPC   C1B61123   2.750  39.549   6.448
 4633POPC   C2B61124   3.066  39.553   6.787
 4633POPC   C3B61125   2.983  39.769   7.182
 4633POPC   C4B61126   2.986  39.656   7.648
 4634POPC   NC361127   2.601   9.938   5.479
 4634POPC   PO461128   3.124   9.474   5.505
 4634POPC   GL161129   2.933   9.672   5.854
 4634POPC   GL261130   2.941  10.029   5.880
 4634POPC   C1A61131   2.963   9.573   6.291
 4634POPC   D2A61132   2.966   9.441   6.706
 4634POPC   C3A61133   2.877   9.718   6.987
 4634POPC   C4A61134   2.655   9.675   7.368
 4634POPC   C1B61135   2.584   9.907   6.175
 4634POPC   C2B61136   2.519   9.817   6.636
 4634POPC   C3B61137   2.506  10.052   7.064
 4634POPC   C4B61138   2.469  10.128   7.529
 4635POPC   NC361139  42.690  30.342   5.120
 4635POPC   PO461140  43.190  29.956   5.402
 4635POPC   GL161141  43.269  29.959   5.837
 4635POPC   GL261142  43.470  30.256   5.895
 4635POPC   C1A61143  43.291  29.736   6.229
 4635POPC   D2A61144  43.037  29.863   6.584
 4635POPC   C3A61145  43.182  29.772   6.975
 4635POPC   C4A61146  42.888  29.867   7.274
 4635POPC   C1B61147  43.278  30.269   6.333
 4635POPC   C2B61148  43.374  30.364   6.798
 4635POPC   C3B61149  43.235  30.278   7.230
 4635POPC   C4B61150  43.294  30.235   7.682
 4636POPC   NC361151  25.486  28.105   5.390
 4636POPC   PO461152  24.931  28.346   5.112
 4636POPC   GL161153  25.068  28.371   5.587
 4636POPC   GL261154  25.366  28.533   5.684
 4636POPC   C1A61155  25.000  28.350   6.072
 4636POPC   D2A61156  25.226  28.350   6.490
 4636POPC   C3A61157  25.069  28.287   6.901
 4636POPC   C4A61158  25.064  28.602   7.203
 4636POPC   C1B61159  25.417  28.660   6.128
 4636POPC   C2B61160  25.605  28.718   6.536
 4636POPC   C3B61161  25.653  28.550   6.964
 4636POPC   C4B61162  25.902  28.553   7.362
 4637POPC   NC361163  23.758  28.682   5.394
 4637POPC   PO461164  24.038  28.080   5.312
 4637POPC   GL161165  23.941  28.280   5.756
 4637POPC   GL261166  23.616  28.449   5.825
 4637POPC   C1A61167  23.786  28.213   6.225
 4637POPC   D2A61168  23.650  28.382   6.631
 4637POPC   C3A61169  23.711  28.087   6.948
 4637POPC   C4A61170  24.100  28.092   7.171
 4637POPC   C1B61171  23.501  28.659   6.192
 4637POPC   C2B61172  23.730  28.969   6.423
 4637POPC   C3B61173  23.766  28.860   6.823
 4637POPC   C4B61174  23.691  28.558   7.164
 4638POPC   NC361175  44.987  11.178   5.338
 4638POPC   PO461176  44.495  11.695   5.488
 4638POPC   GL161177  44.704  11.405   5.714
 4638POPC   GL261178  44.462  11.139   5.742
 4638POPC   C1A61179  44.749  11.314   6.151
 4638POPC   D2A61180  44.526  11.339   6.557
 4638POPC   C3A61181  44.751  11.425   6.932
 4638POPC   C4A61182  44.703  11.628   7.350
 4638POPC   C1B61183  44.297  11.029   6.169
 4638POPC   C2B61184  44.328  10.839   6.590
 4638POPC   C3B61185  44.501  10.932   7.005
 4638POPC   C4B61186  44.692  11.110   7.397
 4639POPC   NC361187  23.881  17.466   5.437
 4639POPC   PO461188  23.325  17.798   5.524
 4639POPC   GL161189  23.550  17.494   5.851
 4639POPC   GL261190  23.782  17.181   5.838
 4639POPC   C1A61191  23.741  17.455   6.270
 4639POPC   D2A61192  23.938  17.500   6.658
 4639POPC   C3A61193  23.684  17.433   7.009
 4639POPC   C4A61194  23.782  17.682   7.345
 4639POPC   C1B61195  24.007  16.998   6.174
 4639POPC   C2B61196  24.230  17.100   6.549
 4639POPC   C3B61197  24.051  17.071   6.950
 4639POPC   C4B61198  23.864  17.070   7.379
 4640POPC   NC361199  23.825  16.336   5.702
 4640POPC   PO461200  23.146  16.283   5.573
 4640POPC   GL161201  23.475  15.985   5.826
 4640POPC   GL261202  23.829  15.800   5.760
 4640POPC   C1A61203  23.487  15.771   6.229
 4640POPC   D2A61204  23.548  16.003   6.623
 4640POPC   C3A61205  23.333  16.045   7.033
 4640POPC   C4A61206  23.681  16.167   7.224
 4640POPC   C1B61207  23.989  15.637   6.183
 4640POPC   C2B61208  23.742  15.504   6.593
 4640POPC   C3B61209  23.744  15.697   7.017
 4640POPC   C4B61210  23.981  15.786   7.402
 4641POPC   NC361211  44.710   7.013   5.355
 4641POPC   PO461212  44.515   7.625   5.448
 4641POPC   GL161213  44.651   7.569   5.874
 4641POPC   GL261214  44.537   7.262   5.874
 4641POPC   C1A61215  44.692   7.458   6.331
 4641POPC   D2A61216  44.996   7.649   6.634
 4641POPC   C3A61217  44.847   7.573   7.024
 4641POPC   C4A61218  44.858   7.171   7.188
 4641POPC   C1B61219  44.278   7.153   6.214
 4641POPC   C2B61220  44.228   7.343   6.580
 4641POPC   C3B61221  44.501   7.258   6.830
 4641POPC   C4B61222  44.311   7.176   7.188
 4642POPC   NC361223  32.620   1.305   5.420
 4642POPC   PO461224  32.029   0.915   5.406
 4642POPC   GL161225  31.998   1.129   5.796
 4642POPC   GL261226  32.335   1.256   5.851
 4642POPC   C1A61227  31.989   1.216   6.212
 4642POPC   D2A61228  32.317   1.076   6.460
 4642POPC   C3A61229  32.384   1.217   6.901
 4642POPC   C4A61230  32.149   1.106   7.306
 4642POPC   C1B61231  32.662   1.377   6.178
 4642POPC   C2B61232  32.760   1.607   6.578
 4642POPC   C3B61233  32.653   1.652   7.012
 4642POPC   C4B61234  32.613   1.337   7.341
 4643POPC   NC361235  24.855   9.278   5.377
 4643POPC   PO461236  25.368   8.889   5.346
 4643POPC   GL161237  25.317   8.862   5.780
 4643POPC   GL261238  25.562   9.121   5.850
 4643POPC   C1A61239  25.164   9.049   6.184
 4643POPC   D2A61240  25.322   9.132   6.593
 4643POPC   C3A61241  25.086   9.116   6.974
 4643POPC   C4A61242  25.297   9.163   7.399
 4643POPC   C1B61243  25.691   8.928   6.259
 4643POPC   C2B61244  25.816   8.976   6.710
 4643POPC   C3B61245  25.527   8.868   7.042
 4643POPC   C4B61246  25.170   8.649   7.184
 4644POPC   NC361247  34.560  27.990   5.439
 4644POPC   PO461248  34.713  27.342   5.306
 4644POPC   GL161249  34.731  27.484   5.752
 4644POPC   GL261250  34.933  27.783   5.801
 4644POPC   C1A61251  34.830  27.444   6.213
 4644POPC   D2A61252  34.869  27.538   6.653
 4644POPC   C3A61253  34.442  27.428   6.849
 4644POPC   C4A61254  34.279  27.367   7.294
 4644POPC   C1B61255  34.776  27.949   6.222
 4644POPC   C2B61256  34.567  27.948   6.675
 4644POPC   C3B61257  34.686  27.793   7.101
 4644POPC   C4B61258  34.457  27.849   7.516
 4645POPC   NC361259  28.555  39.107   5.407
 4645POPC   PO461260  29.072  38.776   5.586
 4645POPC   GL161261  28.778  39.051   5.871
 4645POPC   GL261262  28.732  39.413   5.816
 4645POPC   C1A61263  28.744  39.203   6.307
 4645POPC   D2A61264  28.932  39.449   6.662
 4645POPC   C3A61265  28.967  39.309   7.099
 4645POPC   C4A61266  28.847  39.031   7.441
 4645POPC   C1B61267  28.769  39.724   6.185
 4645POPC   C2B61268  28.766  39.925   6.626
 4645POPC   C3B61269  28.942  39.837   7.053
 4645POPC   C4B61270  29.092  39.879   7.493
 4646POPC   NC361271  28.198  41.915   5.433
 4646POPC   PO461272  28.599  41.319   5.417
 4646POPC   GL161273  28.606  41.506   5.834
 4646POPC   GL261274  28.293  41.620   5.854
 4646POPC   C1A61275  28.629  41.758   6.239
 4646POPC   D2A61276  28.455  41.753   6.669
 4646POPC   C3A61277  28.227  41.385   6.825
 4646POPC   C4A61278  28.233  41.448   7.258
 4646POPC   C1B61279  28.103  41.760   6.232
 4646POPC   C2B61280  27.920  41.768   6.642
 4646POPC   C3B61281  28.080  41.898   7.023
 4646POPC   C4B61282  27.942  41.972   7.436
 4647POPC   NC361283  30.761  22.326   5.213
 4647POPC   PO461284  30.672  21.637   5.179
 4647POPC   GL161285  30.587  21.923   5.606
 4647POPC   GL261286  30.789  22.222   5.735
 4647POPC   C1A61287  30.625  21.942   6.115
 4647POPC   D2A61288  30.804  22.087   6.558
 4647POPC   C3A61289  30.611  21.992   6.978
 4647POPC   C4A61290  30.479  21.916   7.438
 4647POPC   C1B61291  30.772  22.431   6.179
 4647POPC   C2B61292  30.962  22.575   6.601
 4647POPC   C3B61293  30.935  22.422   7.026
 4647POPC   C4B61294  30.591  22.397   7.303
 4648POPC   NC361295  18.058  37.869   5.429
 4648POPC   PO461296  18.687  37.658   5.399
 4648POPC   GL161297  18.484  37.833   5.740
 4648POPC   GL261298  18.301  37.524   5.780
 4648POPC   C1A61299  18.556  37.731   6.187
 4648POPC   D2A61300  18.555  37.436   6.525
 4648POPC   C3A61301  18.449  37.666   6.888
 4648POPC   C4A61302  18.288  37.965   7.177
 4648POPC   C1B61303  18.080  37.559   6.205
 4648POPC   C2B61304  18.027  37.497   6.652
 4648POPC   C3B61305  17.990  37.541   7.135
 4648POPC   C4B61306  18.016  37.448   7.602
 4649POPC   NC361307  16.163  17.171   5.419
 4649POPC   PO461308  15.702  17.694   5.546
 4649POPC   GL161309  16.014  17.508   5.820
 4649POPC   GL261310  16.414  17.455   5.819
 4649POPC   C1A61311  15.839  17.418   6.224
 4649POPC   D2A61312  15.913  17.589   6.600
 4649POPC   C3A61313  15.778  17.393   6.955
 4649POPC   C4A61314  15.793  17.493   7.389
 4649POPC   C1B61315  16.289  17.183   6.152
 4649POPC   C2B61316  16.079  17.098   6.552
 4649POPC   C3B61317  16.165  17.038   6.989
 4649POPC   C4B61318  16.267  17.293   7.325
 4650POPC   NC361319  17.391  39.612   5.520
 4650POPC   PO461320  17.793  39.039   5.505
 4650POPC   GL161321  17.740  39.336   5.868
 4650POPC   GL261322  17.382  39.451   5.995
 4650POPC   C1A61323  17.787  39.294   6.317
 4650POPC   D2A61324  17.684  39.038   6.698
 4650POPC   C3A61325  17.919  39.175   7.020
 4650POPC   C4A61326  17.880  39.602   7.167
 4650POPC   C1B61327  17.294  39.250   6.384
 4650POPC   C2B61328  17.197  38.842   6.543
 4650POPC   C3B61329  17.276  38.814   6.949
 4650POPC   C4B61330  17.450  39.113   7.217
 4651POPC   NC361331  14.565  39.433   5.256
 4651POPC   PO461332  14.122  38.912   5.439
 4651POPC   GL161333  14.304  39.189   5.750
 4651POPC   GL261334  14.630  39.081   5.831
 4651POPC   C1A61335  14.425  39.393   6.176
 4651POPC   D2A61336  14.443  39.233   6.602
 4651POPC   C3A61337  14.197  39.274   7.027
 4651POPC   C4A61338  14.170  39.426   7.483
 4651POPC   C1B61339  14.619  38.878   6.234
 4651POPC   C2B61340  14.854  38.889   6.636
 4651POPC   C3B61341  14.767  39.171   6.989
 4651POPC   C4B61342  14.587  39.170   7.345
 4652POPC   NC361343  39.830  18.368   5.441
 4652POPC   PO461344  40.491  18.115   5.450
 4652POPC   GL161345  40.180  18.326   5.812
 4652POPC   GL261346  39.788  18.404   5.931
 4652POPC   C1A61347  40.160  18.617   6.181
 4652POPC   D2A61348  39.816  18.647   6.464
 4652POPC   C3A61349  39.970  18.695   6.893
 4652POPC   C4A61350  39.968  18.495   7.255
 4652POPC   C1B61351  39.874  17.992   6.139
 4652POPC   C2B61352  39.999  17.853   6.559
 4652POPC   C3B61353  40.018  17.974   7.003
 4652POPC   C4B61354  39.787  17.958   7.396
 4653POPC   NC361355  12.533  26.711   5.425
 4653POPC   PO461356  11.907  26.646   5.250
 4653POPC   GL161357  12.058  26.766   5.705
 4653POPC   GL261358  11.789  26.929   5.905
 4653POPC   C1A61359  12.320  26.800   6.129
 4653POPC   D2A61360  12.479  26.883   6.598
 4653POPC   C3A61361  12.224  26.826   7.004
 4653POPC   C4A61362  12.253  26.607   7.427
 4653POPC   C1B61363  11.851  26.569   6.221
 4653POPC   C2B61364  11.932  26.522   6.691
 4653POPC   C3B61365  11.851  26.474   7.139
 4653POPC   C4B61366  11.840  26.360   7.590
 4654POPC   NC361367   1.451   9.950   5.098
 4654POPC   PO461368   1.184   9.419   5.382
 4654POPC   GL161369   1.344   9.644   5.713
 4654POPC   GL261370   1.431   9.982   5.619
 4654POPC   C1A61371   1.227   9.568   6.132
 4654POPC   D2A61372   1.095   9.803   6.491
 4654POPC   C3A61373   1.115   9.635   6.913
 4654POPC   C4A61374   0.864   9.883   7.128
 4654POPC   C1B61375   1.368  10.071   6.078
 4654POPC   C2B61376   1.554   9.995   6.506
 4654POPC   C3B61377   1.367  10.089   6.904
 4654POPC   C4B61378   1.586  10.273   7.234
 4655POPC   NC361379  43.381   9.278   5.277
 4655POPC   PO461380  43.958   8.867   5.365
 4655POPC   GL161381  43.892   8.993   5.792
 4655POPC   GL261382  43.745   8.699   5.909
 4655POPC   C1A61383  44.031   9.123   6.227
 4655POPC   D2A61384  44.043   9.362   6.639
 4655POPC   C3A61385  43.999   9.120   7.022
 4655POPC   C4A61386  43.769   9.024   7.406
 4655POPC   C1B61387  43.900   8.621   6.314
 4655POPC   C2B61388  44.075   8.721   6.717
 4655POPC   C3B61389  43.939   8.631   7.145
 4655POPC   C4B61390  44.051   8.648   7.601
 4656POPC   NC361391  22.773  36.194   5.466
 4656POPC   PO461392  23.458  36.092   5.464
 4656POPC   GL161393  23.110  35.849   5.683
 4656POPC   GL261394  23.324  35.845   5.951
 4656POPC   C1A61395  22.793  35.904   6.055
 4656POPC   D2A61396  22.978  35.949   6.468
 4656POPC   C3A61397  22.746  35.949   6.836
 4656POPC   C4A61398  22.876  36.057   7.252
 4656POPC   C1B61399  23.166  36.275   6.091
 4656POPC   C2B61400  23.272  36.456   6.504
 4656POPC   C3B61401  23.105  36.328   6.864
 4656POPC   C4B61402  23.145  36.542   7.215
 4657POPC   NC361403  31.275   8.151   5.152
 4657POPC   PO461404  30.544   8.148   5.253
 4657POPC   GL161405  30.413   8.189   5.736
 4657POPC   GL261406  30.698   8.072   5.889
 4657POPC   C1A61407  30.399   8.121   6.270
 4657POPC   D2A61408  30.586   7.963   6.689
 4657POPC   C3A61409  30.439   8.226   7.056
 4657POPC   C4A61410  30.445   8.309   7.530
 4657POPC   C1B61411  30.915   7.934   6.264
 4657POPC   C2B61412  31.124   7.867   6.646
 4657POPC   C3B61413  31.029   8.186   6.955
 4657POPC   C4B61414  30.831   8.067   7.328
 4658POPC   NC361415  20.500  31.307   5.417
 4658POPC   PO461416  21.056  31.561   5.212
 4658POPC   GL161417  20.845  31.603   5.657
 4658POPC   GL261418  20.832  31.250   5.807
 4658POPC   C1A61419  20.681  31.662   6.103
 4658POPC   D2A61420  20.467  31.497   6.480
 4658POPC   C3A61421  20.626  31.705   6.870
 4658POPC   C4A61422  20.452  31.625   7.247
 4658POPC   C1B61423  20.886  31.023   6.196
 4658POPC   C2B61424  20.755  31.079   6.598
 4658POPC   C3B61425  20.520  31.200   6.911
 4658POPC   C4B61426  20.632  31.129   7.299
 4659POPC   NC361427   3.290  11.482   5.475
 4659POPC   PO461428   3.854  11.172   5.440
 4659POPC   GL161429   3.610  11.207   5.797
 4659POPC   GL261430   3.403  10.916   5.745
 4659POPC   C1A61431   3.730  11.318   6.218
 4659POPC   D2A61432   3.536  11.309   6.615
 4659POPC   C3A61433   3.558  11.557   6.948
 4659POPC   C4A61434   3.769  11.508   7.307
 4659POPC   C1B61435   3.445  10.874   6.200
 4659POPC   C2B61436   3.574  10.812   6.632
 4659POPC   C3B61437   3.623  11.004   7.058
 4659POPC   C4B61438   3.463  10.818   7.426
 4660POPC   NC361439  36.277   2.495   5.499
 4660POPC   PO461440  36.071   3.065   5.183
 4660POPC   GL161441  36.022   2.939   5.689
 4660POPC   GL261442  35.795   2.658   5.788
 4660POPC   C1A61443  36.101   2.814   6.189
 4660POPC   D2A61444  36.072   2.617   6.654
 4660POPC   C3A61445  36.135   2.814   7.105
 4660POPC   C4A61446  35.960   3.063   7.478
 4660POPC   C1B61447  35.772   2.398   6.191
 4660POPC   C2B61448  35.598   2.385   6.619
 4660POPC   C3B61449  35.738   2.468   7.049
 4660POPC   C4B61450  35.596   2.675   7.429
 4661POPC   NC361451   3.287  19.111   5.281
 4661POPC   PO461452   3.797  18.890   5.627
 4661POPC   GL161453   3.710  19.229   5.918
 4661POPC   GL261454   3.335  19.288   5.933
 4661POPC   C1A61455   3.732  19.121   6.370
 4661POPC   D2A61456   3.604  18.714   6.616
 4661POPC   C3A61457   3.646  18.798   7.053
 4661POPC   C4A61458   3.597  19.205   7.156
 4661POPC   C1B61459   3.232  19.102   6.375
 4661POPC   C2B61460   3.204  19.004   6.840
 4661POPC   C3B61461   3.054  19.266   7.191
 4661POPC   C4B61462   2.917  19.198   7.637
 4662POPC   NC361463  39.156  12.472   5.646
 4662POPC   PO461464  39.455  11.996   5.720
 4662POPC   GL161465  39.102  12.032   5.981
 4662POPC   GL261466  39.139  12.378   6.133
 4662POPC   C1A61467  39.138  11.974   6.436
 4662POPC   D2A61468  39.433  12.215   6.667
 4662POPC   C3A61469  39.533  11.876   6.908
 4662POPC   C4A61470  39.140  11.742   7.058
 4662POPC   C1B61471  38.731  12.230   6.304
 4662POPC   C2B61472  38.647  12.130   6.709
 4662POPC   C3B61473  38.800  12.111   7.105
 4662POPC   C4B61474  39.244  12.240   7.184
 4663POPC   NC361475  18.644  14.676   5.618
 4663POPC   PO461476  18.275  14.127   5.326
 4663POPC   GL161477  18.215  14.348   5.744
 4663POPC   GL261478  18.295  14.646   5.982
 4663POPC   C1A61479  18.153  14.181   6.174
 4663POPC   D2A61480  18.253  14.006   6.604
 4663POPC   C3A61481  18.441  14.282   6.899
 4663POPC   C4A61482  18.374  14.396   7.320
 4663POPC   C1B61483  18.476  14.917   6.306
 4663POPC   C2B61484  18.508  14.772   6.737
 4663POPC   C3B61485  18.236  14.827   7.095
 4663POPC   C4B61486  18.374  14.890   7.531
 4664POPC   NC361487   0.695  12.528   5.347
 4664POPC   PO461488   0.357  13.146   5.483
 4664POPC   GL161489   0.334  12.870   5.832
 4664POPC   GL261490   0.678  12.799   5.818
 4664POPC   C1A61491   0.399  12.722   6.279
 4664POPC   D2A61492   0.534  12.686   6.726
 4664POPC   C3A61493   0.288  12.847   7.068
 4664POPC   C4A61494   0.364  12.768   7.516
 4664POPC   C1B61495   0.854  12.978   6.220
 4664POPC   C2B61496   0.781  13.153   6.644
 4664POPC   C3B61497   0.771  13.015   7.080
 4664POPC   C4B61498   0.835  12.958   7.555
 4665POPC   NC361499   0.643  11.789   5.584
 4665POPC   PO461500   0.251  12.348   5.491
 4665POPC   GL161501   0.266  12.003   5.855
 4665POPC   GL261502   0.018  11.743   5.942
 4665POPC   C1A61503   0.485  11.811   6.256
 4665POPC   D2A61504   0.785  11.904   6.638
 4665POPC   C3A61505   0.642  12.186   7.004
 4665POPC   C4A61506   0.259  12.351   7.227
 4665POPC   C1B61507   0.010  12.053   6.300
 4665POPC   C2B61508   0.248  12.002   6.697
 4665POPC   C3B61509   0.191  11.857   7.127
 4665POPC   C4B61510   0.120  11.853   7.581
 4666POPC   NC361511  30.297  18.085   5.146
 4666POPC   PO461512  30.790  18.394   5.524
 4666POPC   GL161513  30.699  18.512   5.918
 4666POPC   GL261514  30.381  18.672   5.817
 4666POPC   C1A61515  30.713  18.277   6.324
 4666POPC   D2A61516  30.958  17.965   6.608
 4666POPC   C3A61517  30.933  18.098   7.048
 4666POPC   C4A61518  30.761  18.474   7.228
 4666POPC   C1B61519  30.374  18.702   6.260
 4666POPC   C2B61520  30.477  18.565   6.688
 4666POPC   C3B61521  30.324  18.664   7.078
 4666POPC   C4B61522  30.178  18.463   7.515
 4667POPC   NC361523  18.706  27.517   5.313
 4667POPC   PO461524  19.276  27.873   5.470
 4667POPC   GL161525  19.129  27.604   5.805
 4667POPC   GL261526  19.438  27.565   5.980
 4667POPC   C1A61527  19.015  27.359   6.195
 4667POPC   D2A61528  18.886  27.447   6.618
 4667POPC   C3A61529  18.901  27.196   6.993
 4667POPC   C4A61530  18.833  27.502   7.338
 4667POPC   C1B61531  19.438  27.592   6.427
 4667POPC   C2B61532  19.343  27.575   6.871
 4667POPC   C3B61533  19.310  27.358   7.279
 4667POPC   C4B61534  19.497  27.277   7.661
 4668POPC   NC361535  38.868  19.424   5.534
 4668POPC   PO461536  39.360  18.990   5.247
 4668POPC   GL161537  39.420  18.782   5.653
 4668POPC   GL261538  39.316  19.111   5.780
 4668POPC   C1A61539  39.421  18.742   6.126
 4668POPC   D2A61540  39.122  18.966   6.423
 4668POPC   C3A61541  39.212  18.956   6.859
 4668POPC   C4A61542  39.051  19.012   7.268
 4668POPC   C1B61543  39.247  19.371   6.149
 4668POPC   C2B61544  39.334  19.406   6.591
 4668POPC   C3B61545  39.179  19.460   7.005
 4668POPC   C4B61546  39.327  19.412   7.418
 4669POPC   NC361547  14.755  41.818   5.518
 4669POPC   PO461548  14.363  41.321   5.337
 4669POPC   GL161549  14.435  41.356   5.780
 4669POPC   GL261550  14.169  41.601   5.799
 4669POPC   C1A61551  14.550  41.572   6.178
 4669POPC   D2A61552  14.322  41.815   6.512
 4669POPC   C3A61553  14.518  41.835   6.922
 4669POPC   C4A61554  14.548  41.647   7.328
 4669POPC   C1B61555  14.038  41.398   6.174
 4669POPC   C2B61556  13.895  41.525   6.569
 4669POPC   C3B61557  14.082  41.565   6.940
 4669POPC   C4B61558  14.107  41.380   7.309
 4670POPC   NC361559  30.109   7.970   5.262
 4670POPC   PO461560  29.595   8.406   5.401
 4670POPC   GL161561  29.863   8.196   5.703
 4670POPC   GL261562  29.721   7.892   5.759
 4670POPC   C1A61563  29.913   8.272   6.164
 4670POPC   D2A61564  29.813   8.099   6.578
 4670POPC   C3A61565  29.847   8.324   6.961
 4670POPC   C4A61566  30.118   8.597   7.200
 4670POPC   C1B61567  30.042   7.794   6.064
 4670POPC   C2B61568  30.162   7.708   6.516
 4670POPC   C3B61569  30.113   7.845   6.971
 4670POPC   C4B61570  30.350   7.840   7.384
 4671POPC   NC361571   1.034  34.583   5.325
 4671POPC   PO461572   1.640  34.589   5.546
 4671POPC   GL161573   1.232  34.494   5.802
 4671POPC   GL261574   1.005  34.775   5.802
 4671POPC   C1A61575   1.034  34.428   6.230
 4671POPC   D2A61576   1.191  34.249   6.591
 4671POPC   C3A61577   1.082  34.364   7.018
 4671POPC   C4A61578   1.398  34.369   7.336
 4671POPC   C1B61579   1.173  34.906   6.213
 4671POPC   C2B61580   1.202  34.776   6.653
 4671POPC   C3B61581   1.303  34.813   7.097
 4671POPC   C4B61582   1.070  34.790   7.504
 4672POPC   NC361583  41.754  15.525   5.108
 4672POPC   PO461584  41.270  15.453   5.578
 4672POPC   GL161585  41.380  15.167   5.878
 4672POPC   GL261586  41.621  14.915   5.768
 4672POPC   C1A61587  41.307  15.162   6.318
 4672POPC   D2A61588  41.282  15.435   6.690
 4672POPC   C3A61589  41.371  15.197   7.070
 4672POPC   C4A61590  41.346  14.808   7.301
 4672POPC   C1B61591  41.796  15.051   6.176
 4672POPC   C2B61592  41.705  15.083   6.637
 4672POPC   C3B61593  41.872  15.099   7.041
 4672POPC   C4B61594  41.956  15.456   7.269
 4673POPC   NC361595  11.102   7.960   5.326
 4673POPC   PO461596  11.535   8.430   5.333
 4673POPC   GL161597  11.305   8.341   5.717
 4673POPC   GL261598  11.418   8.039   5.842
 4673POPC   C1A61599  11.186   8.456   6.154
 4673POPC   D2A61600  11.322   8.311   6.579
 4673POPC   C3A61601  11.271   8.561   6.944
 4673POPC   C4A61602  11.401   8.481   7.387
 4673POPC   C1B61603  11.195   7.930   6.249
 4673POPC   C2B61604  11.047   7.889   6.696
 4673POPC   C3B61605  11.200   8.087   7.093
 4673POPC   C4B61606  11.239   8.040   7.580
 4674POPC   NC361607   7.796   1.937   5.437
 4674POPC   PO461608   8.496   1.802   5.475
 4674POPC   GL161609   8.313   1.979   5.870
 4674POPC   GL261610   8.568   2.226   5.962
 4674POPC   C1A61611   8.070   1.830   6.275
 4674POPC   D2A61612   8.062   1.538   6.678
 4674POPC   C3A61613   8.241   1.716   7.077
 4674POPC   C4A61614   8.182   2.133   7.246
 4674POPC   C1B61615   8.411   2.224   6.339
 4674POPC   C2B61616   8.441   1.917   6.644
 4674POPC   C3B61617   8.663   2.012   6.988
 4674POPC   C4B61618   8.660   1.974   7.393
 4675POPC   NC361619   1.091   2.118   5.025
 4675POPC   PO461620   0.527   1.914   5.384
 4675POPC   GL161621   0.518   1.994   5.826
 4675POPC   GL261622   0.566   2.323   5.746
 4675POPC   C1A61623   0.338   2.001   6.255
 4675POPC   D2A61624   0.179   2.175   6.656
 4675POPC   C3A61625   0.344   1.993   7.063
 4675POPC   C4A61626   0.741   1.759   7.113
 4675POPC   C1B61627   0.574   2.443   6.168
 4675POPC   C2B61628   0.584   2.511   6.600
 4675POPC   C3B61629   0.358   2.501   6.988
 4675POPC   C4B61630   0.534   2.385   7.380
 4676POPC   NC361631   6.056   5.656   5.402
 4676POPC   PO461632   5.595   6.033   5.320
 4676POPC   GL161633   5.667   5.784   5.726
 4676POPC   GL261634   5.508   5.460   5.807
 4676POPC   C1A61635   5.874   5.939   6.116
 4676POPC   D2A61636   5.808   6.188   6.474
 4676POPC   C3A61637   5.937   6.086   6.878
 4676POPC   C4A61638   5.707   5.932   7.226
 4676POPC   C1B61639   5.564   5.543   6.235
 4676POPC   C2B61640   5.468   5.752   6.626
 4676POPC   C3B61641   5.313   5.631   7.030
 4676POPC   C4B61642   5.478   5.479   7.426
 4677POPC   NC361643   2.506  19.168   5.596
 4677POPC   PO461644   2.550  19.879   5.445
 4677POPC   GL161645   2.749  19.862   5.893
 4677POPC   GL261646   3.076  19.745   5.886
 4677POPC   C1A61647   2.923  19.915   6.347
 4677POPC   D2A61648   3.146  19.929   6.764
 4677POPC   C3A61649   2.936  20.042   7.197
 4677POPC   C4A61650   2.754  20.404   7.429
 4677POPC   C1B61651   2.894  19.440   6.165
 4677POPC   C2B61652   2.938  19.459   6.626
 4677POPC   C3B61653   2.736  19.623   6.992
 4677POPC   C4B61654   2.592  19.551   7.423
 4678POPC   NC361655  36.565  30.550   5.565
 4678POPC   PO461656  37.141  30.704   5.339
 4678POPC   GL161657  36.985  30.706   5.815
 4678POPC   GL261658  36.644  30.801   5.994
 4678POPC   C1A61659  37.020  30.611   6.273
 4678POPC   D2A61660  37.152  30.460   6.660
 4678POPC   C3A61661  36.946  30.616   6.971
 4678POPC   C4A61662  37.017  30.581   7.379
 4678POPC   C1B61663  36.554  30.406   6.217
 4678POPC   C2B61664  36.659  30.310   6.658
 4678POPC   C3B61665  36.452  30.531   7.007
 4678POPC   C4B61666  36.582  30.843   7.316
 4679POPC   NC361667  33.321  44.000   5.478
 4679POPC   PO461668  32.821  43.647   5.308
 4679POPC   GL161669  32.844  43.950   5.699
 4679POPC   GL261670  33.120  43.940   5.933
 4679POPC   C1A61671  32.666  44.083   6.127
 4679POPC   D2A61672  32.783  43.890   6.518
 4679POPC   C3A61673  32.911  44.045   6.879
 4679POPC   C4A61674  32.937  43.950   7.296
 4679POPC   C1B61675  33.264  43.804   6.341
 4679POPC   C2B61676  33.369  43.699   6.789
 4679POPC   C3B61677  33.407  43.778   7.236
 4679POPC   C4B61678  33.313  44.057   7.622
 4680POPC   NC361679  41.945   8.977   5.370
 4680POPC   PO461680  42.453   8.554   5.497
 4680POPC   GL161681  42.419   9.041   5.683
 4680POPC   GL261682  42.095   9.117   5.850
 4680POPC   C1A61683  42.548   9.198   6.124
 4680POPC   D2A61684  42.623   8.970   6.539
 4680POPC   C3A61685  42.605   9.100   6.965
 4680POPC   C4A61686  42.547   9.032   7.429
 4680POPC   C1B61687  42.054   9.261   6.290
 4680POPC   C2B61688  42.131   9.247   6.745
 4680POPC   C3B61689  42.166   9.309   7.207
 4680POPC   C4B61690  42.045   9.107   7.598
 4681POPC   NC361691  28.968  41.689   5.549
 4681POPC   PO461692  29.355  41.364   5.187
 4681POPC   GL161693  29.243  41.328   5.716
 4681POPC   GL261694  29.356  41.600   5.932
 4681POPC   C1A61695  28.983  41.371   6.156
 4681POPC   D2A61696  29.217  41.366   6.581
 4681POPC   C3A61697  29.021  41.476   6.998
 4681POPC   C4A61698  29.066  41.286   7.436
 4681POPC   C1B61699  29.131  41.869   6.189
 4681POPC   C2B61700  29.036  41.835   6.597
 4681POPC   C3B61701  29.396  41.783   6.900
 4681POPC   C4B61702  29.274  41.790   7.320
 4682POPC   NC361703  35.125  10.965   5.131
 4682POPC   PO461704  35.437  11.480   5.323
 4682POPC   GL161705  35.464  11.387   5.766
 4682POPC   GL261706  35.761  11.588   5.800
 4682POPC   C1A61707  35.321  11.505   6.206
 4682POPC   D2A61708  35.173  11.294   6.593
 4682POPC   C3A61709  35.219  11.509   6.979
 4682POPC   C4A61710  35.335  11.312   7.351
 4682POPC   C1B61711  35.780  11.307   6.155
 4682POPC   C2B61712  35.756  11.463   6.556
 4682POPC   C3B61713  35.644  11.287   6.901
 4682POPC   C4B61714  35.774  11.057   7.258
 4683POPC   NC361715  21.677   6.700   5.475
 4683POPC   PO461716  21.140   6.280   5.525
 4683POPC   GL161717  21.294   6.422   5.908
 4683POPC   GL261718  21.666   6.484   5.937
 4683POPC   C1A61719  21.298   6.776   6.161
 4683POPC   D2A61720  21.435   6.892   6.557
 4683POPC   C3A61721  21.199   6.727   6.864
 4683POPC   C4A61722  21.323   6.465   7.172
 4683POPC   C1B61723  21.807   6.292   6.298
 4683POPC   C2B61724  21.622   6.354   6.704
 4683POPC   C3B61725  21.769   6.636   7.044
 4683POPC   C4B61726  21.657   6.628   7.512
 4684POPC   NC361727  28.713   0.325   5.178
 4684POPC   PO461728  28.064   0.302   5.437
 4684POPC   GL161729  28.420   0.394   5.728
 4684POPC   GL261730  28.636   0.129   5.654
 4684POPC   C1A61731  28.457   0.595   6.176
 4684POPC   D2A61732  28.562   0.791   6.605
 4684POPC   C3A61733  28.461   0.568   6.978
 4684POPC   C4A61734  28.327   0.494   7.420
 4684POPC   C1B61735  28.695   0.147   6.111
 4684POPC   C2B61736  28.771   0.204   6.582
 4684POPC   C3B61737  28.643   0.086   7.043
 4684POPC   C4B61738  28.545  44.989   7.483
 4685POPC   NC361739  28.224  43.061   5.384
 4685POPC   PO461740  28.901  42.888   5.333
 4685POPC   GL161741  28.677  43.097   5.768
 4685POPC   GL261742  28.286  43.071   5.877
 4685POPC   C1A61743  28.577  43.312   6.195
 4685POPC   D2A61744  28.615  43.132   6.589
 4685POPC   C3A61745  28.480  43.256   6.958
 4685POPC   C4A61746  28.629  43.053   7.242
 4685POPC   C1B61747  28.230  42.944   6.297
 4685POPC   C2B61748  28.093  43.143   6.663
 4685POPC   C3B61749  28.247  42.820   6.946
 4685POPC   C4B61750  28.220  42.853   7.397
 4686POPC   NC361751  41.078  43.647   5.461
 4686POPC   PO461752  40.724  43.072   5.395
 4686POPC   GL161753  40.936  43.148   5.774
 4686POPC   GL261754  40.618  43.252   5.929
 4686POPC   C1A61755  40.988  43.201   6.278
 4686POPC   D2A61756  40.791  43.133   6.704
 4686POPC   C3A61757  41.039  43.103   7.096
 4686POPC   C4A61758  41.026  43.227   7.535
 4686POPC   C1B61759  40.450  42.984   6.288
 4686POPC   C2B61760  40.367  42.851   6.733
 4686POPC   C3B61761  40.382  43.052   7.151
 4686POPC   C4B61762  40.522  43.075   7.609
 4687POPC   NC361763  35.812  38.061   5.506
 4687POPC   PO461764  35.877  37.426   5.331
 4687POPC   GL161765  36.191  37.571   5.663
 4687POPC   GL261766  36.331  37.908   5.761
 4687POPC   C1A61767  36.234  37.454   6.085
 4687POPC   D2A61768  36.354  37.443   6.515
 4687POPC   C3A61769  36.076  37.560   6.858
 4687POPC   C4A61770  36.158  37.469   7.285
 4687POPC   C1B61771  36.200  37.937   6.220
 4687POPC   C2B61772  36.411  37.923   6.630
 4687POPC   C3B61773  36.506  37.778   7.027
 4687POPC   C4B61774  36.196  37.999   7.250
 4688POPC   NC361775  19.002   3.840   5.125
 4688POPC   PO461776  18.755   3.489   5.650
 4688POPC   GL161777  18.934   3.673   5.953
 4688POPC   GL261778  19.158   3.849   5.736
 4688POPC   C1A61779  19.030   3.535   6.357
 4688POPC   D2A61780  19.094   3.204   6.660
 4688POPC   C3A61781  19.215   3.348   7.073
 4688POPC   C4A61782  18.989   3.216   7.421
 4688POPC   C1B61783  19.230   4.040   6.160
 4688POPC   C2B61784  19.260   3.926   6.597
 4688POPC   C3B61785  19.114   3.848   7.002
 4688POPC   C4B61786  18.929   3.712   7.361
 4689POPC   NC361787  26.839  34.244   5.348
 4689POPC   PO461788  26.481  34.759   5.596
 4689POPC   GL161789  26.872  34.690   5.815
 4689POPC   GL261790  27.112  34.397   5.755
 4689POPC   C1A61791  26.871  34.842   6.222
 4689POPC   D2A61792  26.753  34.660   6.581
 4689POPC   C3A61793  26.869  34.700   6.990
 4689POPC   C4A61794  26.648  34.459   7.294
 4689POPC   C1B61795  27.226  34.506   6.165
 4689POPC   C2B61796  27.149  34.339   6.567
 4689POPC   C3B61797  26.904  34.197   6.895
 4689POPC   C4B61798  27.131  34.310   7.236
 4690POPC   NC361799  35.652  28.249   5.211
 4690POPC   PO461800  34.991  28.191   5.486
 4690POPC   GL161801  35.331  28.251   5.847
 4690POPC   GL261802  35.706  28.167   5.868
 4690POPC   C1A61803  35.368  28.182   6.295
 4690POPC   D2A61804  35.082  28.025   6.627
 4690POPC   C3A61805  35.233  28.043   7.039
 4690POPC   C4A61806  35.237  28.384   7.329
 4690POPC   C1B61807  35.838  28.390   6.233
 4690POPC   C2B61808  35.691  28.334   6.672
 4690POPC   C3B61809  35.813  28.527   7.036
 4690POPC   C4B61810  35.730  28.364   7.427
 4691POPC   NC361811  23.858   9.310   5.382
 4691POPC   PO461812  23.978   9.918   5.160
 4691POPC   GL161813  23.812   9.712   5.651
 4691POPC   GL261814  23.487   9.735   5.831
 4691POPC   C1A61815  23.951   9.675   6.115
 4691POPC   D2A61816  23.904   9.716   6.579
 4691POPC   C3A61817  24.131   9.579   7.009
 4691POPC   C4A61818  23.966   9.549   7.473
 4691POPC   C1B61819  23.353   9.564   6.250
 4691POPC   C2B61820  23.465   9.518   6.709
 4691POPC   C3B61821  23.486   9.711   7.122
 4691POPC   C4B61822  23.453   9.585   7.548
 4692POPC   NC361823   9.658  20.313   5.556
 4692POPC   PO461824   9.601  19.616   5.395
 4692POPC   GL161825   9.808  19.849   5.704
 4692POPC   GL261826   9.520  19.977   5.908
 4692POPC   C1A61827   9.962  19.928   6.128
 4692POPC   D2A61828   9.934  19.667   6.471
 4692POPC   C3A61829   9.855  19.764   6.917
 4692POPC   C4A61830   9.569  19.897   7.251
 4692POPC   C1B61831   9.503  20.008   6.381
 4692POPC   C2B61832   9.532  20.151   6.814
 4692POPC   C3B61833   9.545  20.414   7.214
 4692POPC   C4B61834   9.535  20.278   7.681
 4693POPC   NC361835  29.365   7.934   5.373
 4693POPC   PO461836  28.931   8.364   5.128
 4693POPC   GL161837  29.005   8.263   5.603
 4693POPC   GL261838  29.344   8.241   5.804
 4693POPC   C1A61839  28.945   8.049   6.030
 4693POPC   D2A61840  28.899   7.758   6.384
 4693POPC   C3A61841  28.919   7.902   6.826
 4693POPC   C4A61842  29.115   8.091   7.178
 4693POPC   C1B61843  29.390   8.197   6.261
 4693POPC   C2B61844  29.241   8.289   6.684
 4693POPC   C3B61845  29.379   8.498   7.068
 4693POPC   C4B61846  29.500   8.350   7.485
 4694POPC   NC361847   3.983  31.674   5.468
 4694POPC   PO461848   4.578  31.398   5.279
 4694POPC   GL161849   4.399  31.432   5.665
 4694POPC   GL261850   4.408  31.763   5.771
 4694POPC   C1A61851   4.530  31.344   6.082
 4694POPC   D2A61852   4.368  31.454   6.511
 4694POPC   C3A61853   4.490  31.330   6.915
 4694POPC   C4A61854   4.368  31.421   7.320
 4694POPC   C1B61855   4.523  31.829   6.188
 4694POPC   C2B61856   4.530  31.919   6.631
 4694POPC   C3B61857   4.536  31.829   7.064
 4694POPC   C4B61858   4.640  31.790   7.490
 4695POPC   NC361859  27.558   6.165   5.554
 4695POPC   PO461860  27.658   5.488   5.388
 4695POPC   GL161861  27.744   5.737   5.771
 4695POPC   GL261862  27.369   5.766   5.810
 4695POPC   C1A61863  27.692   5.912   6.219
 4695POPC   D2A61864  27.841   5.918   6.667
 4695POPC   C3A61865  27.625   5.860   7.063
 4695POPC   C4A61866  27.757   5.916   7.523
 4695POPC   C1B61867  27.237   5.705   6.222
 4695POPC   C2B61868  27.439   5.586   6.622
 4695POPC   C3B61869  27.190   5.616   7.003
 4695POPC   C4B61870  27.340   5.611   7.441
 4696POPC   NC361871  28.750  20.799   5.530
 4696POPC   PO461872  29.368  20.500   5.603
 4696POPC   GL161873  28.998  20.481   5.857
 4696POPC   GL261874  28.918  20.166   5.820
 4696POPC   C1A61875  28.938  20.592   6.296
 4696POPC   D2A61876  29.242  20.824   6.585
 4696POPC   C3A61877  29.235  20.724   7.007
 4696POPC   C4A61878  29.468  20.351   7.119
 4696POPC   C1B61879  29.209  20.151   6.212
 4696POPC   C2B61880  29.183  20.293   6.683
 4696POPC   C3B61881  28.957  20.299   7.118
 4696POPC   C4B61882  28.843  20.312   7.597
 4697POPC   NC361883   8.094  21.839   5.091
 4697POPC   PO461884   8.355  22.449   5.414
 4697POPC   GL161885   8.119  22.305   5.841
 4697POPC   GL261886   7.942  21.939   5.926
 4697POPC   C1A61887   8.283  22.128   6.249
 4697POPC   D2A61888   8.533  22.256   6.603
 4697POPC   C3A61889   8.365  22.270   6.983
 4697POPC   C4A61890   8.482  22.347   7.379
 4697POPC   C1B61891   7.728  22.235   6.156
 4697POPC   C2B61892   7.894  22.327   6.543
 4697POPC   C3B61893   7.805  22.130   6.913
 4697POPC   C4B61894   7.965  22.215   7.298
 4698POPC   NC361895  25.144  11.157   5.430
 4698POPC   PO461896  25.345  10.573   5.068
 4698POPC   GL161897  25.336  10.481   5.575
 4698POPC   GL261898  25.619  10.538   5.805
 4698POPC   C1A61899  25.171  10.437   6.059
 4698POPC   D2A61900  25.246  10.292   6.515
 4698POPC   C3A61901  25.087  10.508   6.884
 4698POPC   C4A61902  24.766  10.385   7.180
 4698POPC   C1B61903  25.659  10.438   6.255
 4698POPC   C2B61904  25.697  10.575   6.705
 4698POPC   C3B61905  25.564  10.588   7.134
 4698POPC   C4B61906  25.619  10.414   7.559
 4699POPC   NC361907   4.793  30.331   5.378
 4699POPC   PO461908   4.189  30.570   5.308
 4699POPC   GL161909   4.419  30.647   5.667
 4699POPC   GL261910   4.298  30.942   5.775
 4699POPC   C1A61911   4.285  30.534   6.107
 4699POPC   D2A61912   4.098  30.599   6.540
 4699POPC   C3A61913   4.389  30.701   6.913
 4699POPC   C4A61914   4.521  30.468   7.310
 4699POPC   C1B61915   4.174  31.025   6.239
 4699POPC   C2B61916   4.098  31.071   6.705
 4699POPC   C3B61917   4.080  31.062   7.147
 4699POPC   C4B61918   4.170  31.068   7.628
 4700POPC   NC361919   8.913  43.310   5.481
 4700POPC   PO461920   8.809  42.640   5.275
 4700POPC   GL161921   9.104  42.807   5.669
 4700POPC   GL261922   9.318  43.142   5.740
 4700POPC   C1A61923   8.956  43.032   6.086
 4700POPC   D2A61924   8.731  43.002   6.491
 4700POPC   C3A61925   8.864  42.955   6.926
 4700POPC   C4A61926   8.588  43.128   7.227
 4700POPC   C1B61927   9.312  43.403   6.178
 4700POPC   C2B61928   9.160  43.375   6.621
 4700POPC   C3B61929   9.094  43.411   7.078
 4700POPC   C4B61930   9.292  43.277   7.477
 4701POPC   NC361931   6.514  30.680   5.295
 4701POPC   PO461932   7.202  30.818   5.353
 4701POPC   GL161933   6.824  30.774   5.670
 4701POPC   GL261934   6.775  30.542   5.942
 4701POPC   C1A61935   6.528  30.977   5.969
 4701POPC   D2A61936   6.429  31.045   6.422
 4701POPC   C3A61937   6.534  30.858   6.828
 4701POPC   C4A61938   6.541  30.968   7.267
 4701POPC   C1B61939   7.026  30.567   6.327
 4701POPC   C2B61940   6.969  30.583   6.747
 4701POPC   C3B61941   6.944  30.630   7.163
 4701POPC   C4B61942   7.038  30.340   7.471
 4702POPC   NC361943  40.486  21.218   5.303
 4702POPC   PO461944  40.962  21.579   5.556
 4702POPC   GL161945  40.722  21.408   5.855
 4702POPC   GL261946  40.450  21.196   5.808
 4702POPC   C1A61947  40.819  21.411   6.269
 4702POPC   D2A61948  40.957  21.646   6.619
 4702POPC   C3A61949  41.108  21.532   7.031
 4702POPC   C4A61950  41.277  21.359   7.436
 4702POPC   C1B61951  40.398  21.132   6.242
 4702POPC   C2B61952  40.365  21.427   6.602
 4702POPC   C3B61953  40.581  21.490   6.995
 4702POPC   C4B61954  40.450  21.298   7.411
 4703POPC   NC361955  38.608  31.582   5.386
 4703POPC   PO461956  38.081  31.261   5.584
 4703POPC   GL161957  38.464  31.310   5.863
 4703POPC   GL261958  38.670  31.617   5.878
 4703POPC   C1A61959  38.467  31.470   6.313
 4703POPC   D2A61960  38.300  31.706   6.665
 4703POPC   C3A61961  38.491  31.440   6.937
 4703POPC   C4A61962  38.290  31.220   7.238
 4703POPC   C1B61963  38.828  31.837   6.216
 4703POPC   C2B61964  38.824  31.799   6.643
 4703POPC   C3B61965  38.961  31.635   7.012
 4703POPC   C4B61966  38.860  31.693   7.395
 4704POPC   NC361967  23.640  31.698   5.366
 4704POPC   PO461968  23.973  31.170   5.393
 4704POPC   GL161969  23.837  31.395   5.761
 4704POPC   GL261970  23.453  31.362   5.775
 4704POPC   C1A61971  23.877  31.658   6.127
 4704POPC   D2A61972  23.785  31.615   6.577
 4704POPC   C3A61973  24.074  31.363   6.828
 4704POPC   C4A61974  23.991  31.272   7.251
 4704POPC   C1B61975  23.592  31.236   6.195
 4704POPC   C2B61976  23.691  31.098   6.617
 4704POPC   C3B61977  23.556  31.308   6.995
 4704POPC   C4B61978  23.593  31.594   7.339
 4705POPC   NC361979   0.723   5.689   5.185
 4705POPC   PO461980   0.277   6.120   5.274
 4705POPC   GL161981   0.535   5.922   5.632
 4705POPC   GL261982   0.899   6.039   5.601
 4705POPC   C1A61983   0.427   5.940   6.124
 4705POPC   D2A61984   0.132   6.036   6.513
 4705POPC   C3A61985   0.287   6.176   6.911
 4705POPC   C4A61986   0.462   5.846   7.184
 4705POPC   C1B61987   0.884   6.185   6.067
 4705POPC   C2B61988   0.649   6.226   6.507
 4705POPC   C3B61989   0.795   6.198   6.949
 4705POPC   C4B61990   0.606   6.325   7.346
 4706POPC   NC361991  42.106  24.556   5.358
 4706POPC   PO461992  42.682  24.283   5.317
 4706POPC   GL161993  42.398  24.420   5.739
 4706POPC   GL261994  42.409  24.197   6.004
 4706POPC   C1A61995  42.162  24.658   6.078
 4706POPC   D2A61996  42.056  24.562   6.499
 4706POPC   C3A61997  42.163  24.713   6.889
 4706POPC   C4A61998  42.241  24.585   7.307
 4706POPC   C1B61999  42.709  24.194   6.332
 4706POPC   C2B62000  42.512  24.400   6.640
 4706POPC   C3B62001  42.436  24.258   7.001
 4706POPC   C4B62002  42.718  24.146   7.271
 4707POPC   NC362003  44.586   2.639   5.409
 4707POPC   PO462004   0.102   3.017   5.261
 4707POPC   GL162005  44.837   3.043   5.668
 4707POPC   GL262006  44.450   3.078   5.675
 4707POPC   C1A62007  44.710   2.771   6.061
 4707POPC   D2A62008  44.661   2.921   6.501
 4707POPC   C3A62009  44.688   2.648   6.855
 4707POPC   C4A62010  44.894   2.567   7.264
 4707POPC   C1B62011  44.270   2.988   6.120
 4707POPC   C2B62012  44.153   2.862   6.517
 4707POPC   C3B62013  44.296   3.025   6.892
 4707POPC   C4B62014  44.565   2.982   7.248
 4708POPC   NC362015  44.451  24.434   5.351
 4708POPC   PO462016   0.027  24.271   5.396
 4708POPC   GL162017  44.751  24.379   5.783
 4708POPC   GL262018  44.460  24.640   5.834
 4708POPC   C1A62019  44.735  24.385   6.254
 4708POPC   D2A62020  44.888  24.609   6.650
 4708POPC   C3A62021  44.718  24.440   7.052
 4708POPC   C4A62022  44.378  24.150   7.004
 4708POPC   C1B62023  44.478  24.817   6.285
 4708POPC   C2B62024  44.372  24.565   6.677
 4708POPC   C3B62025  44.255  24.650   7.128
 4708POPC   C4B62026  44.400  24.798   7.544
 4709POPC   NC362027  31.187   0.788   5.355
 4709POPC   PO462028  30.624   0.377   5.385
 4709POPC   GL162029  30.751   0.647   5.715
 4709POPC   GL262030  31.070   0.646   5.836
 4709POPC   C1A62031  30.641   0.663   6.161
 4709POPC   D2A62032  30.423   0.347   6.420
 4709POPC   C3A62033  30.480   0.466   6.859
 4709POPC   C4A62034  30.310   0.412   7.261
 4709POPC   C1B62035  31.121   0.390   6.212
 4709POPC   C2B62036  30.906   0.314   6.577
 4709POPC   C3B62037  30.886   0.186   7.002
 4709POPC   C4B62038  30.745   0.206   7.417
 4710POPC   NC362039  26.561  30.489   5.397
 4710POPC   PO462040  26.566  31.145   5.495
 4710POPC   GL162041  26.809  30.877   5.793
 4710POPC   GL262042  26.675  30.559   5.864
 4710POPC   C1A62043  26.839  30.774   6.266
 4710POPC   D2A62044  26.818  30.918   6.675
 4710POPC   C3A62045  26.914  30.752   7.066
 4710POPC   C4A62046  26.625  30.927   7.356
 4710POPC   C1B62047  26.626  30.303   6.211
 4710POPC   C2B62048  26.868  30.369   6.596
 4710POPC   C3B62049  26.783  30.283   7.018
 4710POPC   C4B62050  26.705  30.436   7.434
 4711POPC   NC362051   4.392   0.816   5.401
 4711POPC   PO462052   4.347   1.445   5.337
 4711POPC   GL162053   4.169   1.466   5.733
 4711POPC   GL262054   4.305   1.175   5.861
 4711POPC   C1A62055   4.018   1.470   6.174
 4711POPC   D2A62056   4.226   1.408   6.582
 4711POPC   C3A62057   4.118   1.593   6.987
 4711POPC   C4A62058   4.275   1.455   7.415
 4711POPC   C1B62059   4.545   1.458   6.175
 4711POPC   C2B62060   4.660   1.668   6.611
 4711POPC   C3B62061   4.618   1.459   7.037
 4711POPC   C4B62062   4.723   1.222   7.451
 4712POPC   NC362063  18.257  23.010   4.996
 4712POPC   PO462064  18.489  22.504   5.292
 4712POPC   GL162065  18.390  22.768   5.687
 4712POPC   GL262066  18.140  23.045   5.737
 4712POPC   C1A62067  18.506  22.978   6.100
 4712POPC   D2A62068  18.728  23.019   6.536
 4712POPC   C3A62069  18.491  23.192   6.865
 4712POPC   C4A62070  18.405  23.071   7.268
 4712POPC   C1B62071  18.054  23.262   6.134
 4712POPC   C2B62072  18.002  23.158   6.588
 4712POPC   C3B62073  18.007  23.263   7.031
 4712POPC   C4B62074  18.004  23.354   7.472
 4713POPC   NC362075  30.222  21.685   5.307
 4713POPC   PO462076  29.890  22.259   5.182
 4713POPC   GL162077  29.832  22.212   5.696
 4713POPC   GL262078  29.584  21.955   5.770
 4713POPC   C1A62079  29.690  22.377   6.138
 4713POPC   D2A62080  29.494  22.289   6.555
 4713POPC   C3A62081  29.774  22.353   6.917
 4713POPC   C4A62082  30.139  22.144   7.135
 4713POPC   C1B62083  29.756  21.862   6.164
 4713POPC   C2B62084  29.939  22.016   6.538
 4713POPC   C3B62085  29.786  21.849   6.919
 4713POPC   C4B62086  29.500  21.968   7.204
 4714POPC   NC362087  15.450  20.438   5.472
 4714POPC   PO462088  14.960  21.066   5.537
 4714POPC   GL162089  15.032  20.637   5.774
 4714POPC   GL262090  15.358  20.600   5.938
 4714POPC   C1A62091  14.977  20.445   6.217
 4714POPC   D2A62092  15.090  20.671   6.594
 4714POPC   C3A62093  15.312  20.651   6.986
 4714POPC   C4A62094  15.108  20.666   7.370
 4714POPC   C1B62095  15.450  20.279   6.244
 4714POPC   C2B62096  15.327  20.096   6.647
 4714POPC   C3B62097  15.502  20.187   7.037
 4714POPC   C4B62098  15.587  20.508   7.413
 4715POPC   NC362099  26.041  16.255   5.149
 4715POPC   PO462100  25.745  15.588   5.226
 4715POPC   GL162101  25.930  15.805   5.684
 4715POPC   GL262102  26.089  16.101   5.781
 4715POPC   C1A62103  25.785  15.983   6.132
 4715POPC   D2A62104  25.971  16.168   6.534
 4715POPC   C3A62105  25.885  16.010   6.964
 4715POPC   C4A62106  25.923  16.017   7.428
 4715POPC   C1B62107  26.331  16.177   6.148
 4715POPC   C2B62108  26.577  16.244   6.522
 4715POPC   C3B62109  26.373  16.156   6.903
 4715POPC   C4B62110  26.408  16.283   7.292
 4716POPC   NC362111   8.630   0.481   5.509
 4716POPC   PO462112   7.963   0.675   5.485
 4716POPC   GL162113   8.205   0.564   5.862
 4716POPC   GL262114   8.310   0.921   5.961
 4716POPC   C1A62115   8.280   0.223   6.249
 4716POPC   D2A62116   8.537   0.157   6.667
 4716POPC   C3A62117   8.363   0.182   7.109
 4716POPC   C4A62118   8.036   0.038   7.406
 4716POPC   C1B62119   8.108   0.685   6.334
 4716POPC   C2B62120   8.091   0.440   6.707
 4716POPC   C3B62121   8.004   0.539   7.124
 4716POPC   C4B62122   7.850   0.865   7.367
 4717POPC   NC362123  27.353   1.134   5.169
 4717POPC   PO462124  26.765   1.139   5.453
 4717POPC   GL162125  26.842   1.363   5.807
 4717POPC   GL262126  27.186   1.352   5.903
 4717POPC   C1A62127  26.769   1.501   6.243
 4717POPC   D2A62128  26.912   1.389   6.669
 4717POPC   C3A62129  26.652   1.191   7.038
 4717POPC   C4A62130  26.447   1.146   7.467
 4717POPC   C1B62131  27.000   1.051   6.218
 4717POPC   C2B62132  27.169   0.942   6.641
 4717POPC   C3B62133  27.162   1.151   7.041
 4717POPC   C4B62134  27.308   1.370   7.383
 4718POPC   NC362135   1.664  41.877   5.397
 4718POPC   PO462136   1.344  41.441   5.523
 4718POPC   GL162137   1.160  41.285   5.939
 4718POPC   GL262138   1.432  41.038   5.941
 4718POPC   C1A62139   1.001  41.345   6.404
 4718POPC   D2A62140   0.918  41.547   6.858
 4718POPC   C3A62141   1.274  41.833   7.094
 4718POPC   C4A62142   1.318  42.063   7.542
 4718POPC   C1B62143   1.522  41.317   6.299
 4718POPC   C2B62144   1.408  41.516   6.687
 4718POPC   C3B62145   1.313  41.329   7.090
 4718POPC   C4B62146   1.566  41.152   7.400
 4719POPC   NC362147   8.411  35.851   5.339
 4719POPC   PO462148   8.123  36.497   5.059
 4719POPC   GL162149   8.109  36.342   5.540
 4719POPC   GL262150   8.068  36.013   5.756
 4719POPC   C1A62151   8.145  36.457   6.006
 4719POPC   D2A62152   8.335  36.409   6.412
 4719POPC   C3A62153   8.174  36.373   6.806
 4719POPC   C4A62154   8.179  36.106   7.165
 4719POPC   C1B62155   8.065  35.994   6.260
 4719POPC   C2B62156   7.912  35.928   6.706
 4719POPC   C3B62157   7.749  35.838   7.143
 4719POPC   C4B62158   8.009  35.719   7.487
 4720POPC   NC362159  22.663   6.636   5.491
 4720POPC   PO462160  22.088   6.807   5.267
 4720POPC   GL162161  22.147   6.650   5.711
 4720POPC   GL262162  22.370   6.379   5.825
 4720POPC   C1A62163  22.089   6.714   6.165
 4720POPC   D2A62164  22.093   6.578   6.610
 4720POPC   C3A62165  22.200   6.892   6.929
 4720POPC   C4A62166  22.071   6.941   7.359
 4720POPC   C1B62167  22.300   6.227   6.220
 4720POPC   C2B62168  22.167   6.045   6.614
 4720POPC   C3B62169  21.976   6.142   7.022
 4720POPC   C4B62170  22.102   6.431   7.383
 4721POPC   NC362171   9.261   9.823   5.352
 4721POPC   PO462172   8.642   9.532   5.326
 4721POPC   GL162173   8.807   9.725   5.758
 4721POPC   GL262174   9.173   9.767   5.836
 4721POPC   C1A62175   8.845   9.943   6.181
 4721POPC   D2A62176   9.082   9.870   6.578
 4721POPC   C3A62177   8.958   9.773   7.008
 4721POPC   C4A62178   9.093   9.859   7.468
 4721POPC   C1B62179   9.389   9.713   6.203
 4721POPC   C2B62180   9.399   9.408   6.484
 4721POPC   C3B62181   9.376   9.443   6.914
 4721POPC   C4B62182   9.332   9.391   7.356
 4722POPC   NC362183  26.013  10.685   5.519
 4722POPC   PO462184  25.824  10.084   5.667
 4722POPC   GL162185  26.084  10.307   5.950
 4722POPC   GL262186  26.304  10.601   5.935
 4722POPC   C1A62187  26.150  10.379   6.394
 4722POPC   D2A62188  26.187  10.715   6.677
 4722POPC   C3A62189  26.188  10.626   7.123
 4722POPC   C4A62190  26.419  10.685   7.492
 4722POPC   C1B62191  25.971  10.847   6.190
 4722POPC   C2B62192  25.801  11.074   6.575
 4722POPC   C3B62193  25.848  10.999   7.034
 4722POPC   C4B62194  25.884  10.830   7.488
 4723POPC   NC362195  18.208  34.397   5.211
 4723POPC   PO462196  18.010  34.952   5.559
 4723POPC   GL162197  18.320  34.653   5.728
 4723POPC   GL262198  18.442  34.935   5.886
 4723POPC   C1A62199  18.272  34.447   6.164
 4723POPC   D2A62200  18.026  34.503   6.582
 4723POPC   C3A62201  18.227  34.335   6.954
 4723POPC   C4A62202  18.457  34.349   7.322
 4723POPC   C1B62203  18.713  34.737   6.159
 4723POPC   C2B62204  18.651  34.532   6.546
 4723POPC   C3B62205  18.564  34.699   6.931
 4723POPC   C4B62206  18.633  35.013   7.219
 4724POPC   NC362207  27.433  37.494   5.378
 4724POPC   PO462208  27.850  37.985   5.487
 4724POPC   GL162209  27.751  37.643   5.744
 4724POPC   GL262210  27.409  37.737   5.829
 4724POPC   C1A62211  27.732  37.545   6.189
 4724POPC   D2A62212  27.864  37.754   6.557
 4724POPC   C3A62213  27.616  37.745   6.937
 4724POPC   C4A62214  27.840  37.823   7.334
 4724POPC   C1B62215  27.207  37.658   6.217
 4724POPC   C2B62216  27.173  37.563   6.667
 4724POPC   C3B62217  27.350  37.289   6.965
 4724POPC   C4B62218  27.478  37.459   7.350
 4725POPC   NC362219  12.849  16.495   5.446
 4725POPC   PO462220  12.434  17.004   5.637
 4725POPC   GL162221  12.838  16.936   5.804
 4725POPC   GL262222  12.731  16.629   5.928
 4725POPC   C1A62223  13.129  16.957   6.172
 4725POPC   D2A62224  13.241  16.832   6.634
 4725POPC   C3A62225  13.011  17.033   7.002
 4725POPC   C4A62226  12.572  17.168   7.156
 4725POPC   C1B62227  12.541  16.375   6.257
 4725POPC   C2B62228  12.687  16.258   6.676
 4725POPC   C3B62229  12.885  16.441   7.048
 4725POPC   C4B62230  13.281  16.611   7.108
 4726POPC   NC362231  12.746  19.620   5.366
 4726POPC   PO462232  12.545  20.222   5.449
 4726POPC   GL162233  12.588  20.100   5.868
 4726POPC   GL262234  12.816  19.844   5.841
 4726POPC   C1A62235  12.698  20.098   6.317
 4726POPC   D2A62236  13.006  19.937   6.590
 4726POPC   C3A62237  12.909  19.857   6.985
 4726POPC   C4A62238  12.603  20.027   7.254
 4726POPC   C1B62239  12.788  19.612   6.238
 4726POPC   C2B62240  12.727  19.299   6.570
 4726POPC   C3B62241  12.654  19.406   7.007
 4726POPC   C4B62242  12.898  19.527   7.365
 4727POPC   NC362243  22.465  29.559   5.558
 4727POPC   PO462244  21.997  29.133   5.227
 4727POPC   GL162245  21.972  29.138   5.695
 4727POPC   GL262246  21.638  28.947   5.735
 4727POPC   C1A62247  22.266  29.215   6.087
 4727POPC   D2A62248  22.472  28.962   6.419
 4727POPC   C3A62249  22.429  29.021   6.887
 4727POPC   C4A62250  22.275  29.355   7.175
 4727POPC   C1B62251  21.818  28.984   6.178
 4727POPC   C2B62252  21.934  29.248   6.525
 4727POPC   C3B62253  21.813  29.246   6.956
 4727POPC   C4B62254  22.005  28.903   7.220
 4728POPC   NC362255  33.509   5.414   5.516
 4728POPC   PO462256  33.804   4.779   5.364
 4728POPC   GL162257  33.780   4.970   5.801
 4728POPC   GL262258  33.929   5.304   5.819
 4728POPC   C1A62259  33.671   4.862   6.231
 4728POPC   D2A62260  33.475   4.828   6.653
 4728POPC   C3A62261  33.767   4.804   6.983
 4728POPC   C4A62262  34.108   4.843   7.215
 4728POPC   C1B62263  33.696   5.366   6.180
 4728POPC   C2B62264  33.623   5.386   6.633
 4728POPC   C3B62265  33.827   5.332   7.022
 4728POPC   C4B62266  34.080   5.331   7.372
 4729POPC   NC362267  22.856   9.674   5.313
 4729POPC   PO462268  23.411   9.341   5.510
 4729POPC   GL162269  23.029   9.506   5.763
 4729POPC   GL262270  22.933   9.847   5.802
 4729POPC   C1A62271  22.856   9.437   6.185
 4729POPC   D2A62272  23.061   9.250   6.573
 4729POPC   C3A62273  23.070   9.403   7.022
 4729POPC   C4A62274  22.979   9.644   7.404
 4729POPC   C1B62275  22.986   9.935   6.223
 4729POPC   C2B62276  22.948   9.763   6.629
 4729POPC   C3B62277  23.033   9.966   7.007
 4729POPC   C4B62278  22.781  10.166   7.307
 4730POPC   NC362279  43.667  14.097   5.372
 4730POPC   PO462280  44.214  14.506   5.363
 4730POPC   GL162281  43.943  14.401   5.687
 4730POPC   GL262282  44.090  14.097   5.729
 4730POPC   C1A62283  43.748  14.541   6.066
 4730POPC   D2A62284  43.724  14.666   6.495
 4730POPC   C3A62285  43.784  14.525   6.901
 4730POPC   C4A62286  43.991  14.648   7.239
 4730POPC   C1B62287  43.932  14.041   6.142
 4730POPC   C2B62288  43.911  14.173   6.558
 4730POPC   C3B62289  43.783  13.997   6.950
 4730POPC   C4B62290  43.797  14.144   7.420
 4731POPC   NC362291  34.122   3.145   5.477
 4731POPC   PO462292  33.905   3.791   5.246
 4731POPC   GL162293  33.818   3.553   5.654
 4731POPC   GL262294  33.614   3.245   5.678
 4731POPC   C1A62295  33.996   3.411   6.080
 4731POPC   D2A62296  34.035   3.645   6.473
 4731POPC   C3A62297  33.854   3.589   6.865
 4731POPC   C4A62298  34.030   3.326   7.189
 4731POPC   C1B62299  33.493   3.299   6.080
 4731POPC   C2B62300  33.524   3.325   6.537
 4731POPC   C3B62301  33.473   3.302   7.009
 4731POPC   C4B62302  33.568   3.454   7.436
 4732POPC   NC362303  10.797  28.338   5.531
 4732POPC   PO462304  10.114  28.318   5.460
 4732POPC   GL162305  10.386  28.377   5.819
 4732POPC   GL262306  10.449  28.737   5.785
 4732POPC   C1A62307  10.678  28.281   6.179
 4732POPC   D2A62308  10.534  28.244   6.606
 4732POPC   C3A62309  10.767  28.243   6.993
 4732POPC   C4A62310  10.578  28.244   7.408
 4732POPC   C1B62311  10.321  28.648   6.238
 4732POPC   C2B62312  10.175  28.601   6.670
 4732POPC   C3B62313  10.357  28.588   7.090
 4732POPC   C4B62314  10.410  28.684   7.557
 4733POPC   NC362315  31.828  20.991   5.479
 4733POPC   PO462316  31.474  21.525   5.492
 4733POPC   GL162317  31.430  21.454   5.907
 4733POPC   GL262318  31.678  21.225   5.903
 4733POPC   C1A62319  31.534  21.513   6.333
 4733POPC   D2A62320  31.348  21.523   6.730
 4733POPC   C3A62321  31.582  21.469   7.055
 4733POPC   C4A62322  31.292  21.602   7.325
 4733POPC   C1B62323  31.662  21.013   6.292
 4733POPC   C2B62324  31.641  21.086   6.701
 4733POPC   C3B62325  31.497  20.950   7.076
 4733POPC   C4B62326  31.811  21.103   7.333
 4734POPC   NC362327  19.530   4.318   5.318
 4734POPC   PO462328  20.214   4.246   5.194
 4734POPC   GL162329  19.981   4.174   5.585
 4734POPC   GL262330  19.917   4.492   5.750
 4734POPC   C1A62331  19.939   4.086   6.050
 4734POPC   D2A62332  19.789   4.120   6.478
 4734POPC   C3A62333  19.898   4.401   6.833
 4734POPC   C4A62334  19.997   4.169   7.212
 4734POPC   C1B62335  19.618   4.498   6.132
 4734POPC   C2B62336  19.381   4.403   6.528
 4734POPC   C3B62337  19.435   4.254   6.949
 4734POPC   C4B62338  19.583   4.508   7.268
 4735POPC   NC362339  35.526  17.793   5.062
 4735POPC   PO462340  35.049  17.456   5.425
 4735POPC   GL162341  35.386  17.536   5.722
 4735POPC   GL262342  35.326  17.900   5.805
 4735POPC   C1A62343  35.440  17.502   6.171
 4735POPC   D2A62344  35.176  17.433   6.562
 4735POPC   C3A62345  35.401  17.478   6.976
 4735POPC   C4A62346  35.781  17.722   7.076
 4735POPC   C1B62347  35.353  17.997   6.269
 4735POPC   C2B62348  35.368  17.933   6.729
 4735POPC   C3B62349  35.110  17.891   7.094
 4735POPC   C4B62350  35.075  18.176   7.435
 4736POPC   NC362351   5.035  38.640   5.404
 4736POPC   PO462352   5.526  38.234   5.230
 4736POPC   GL162353   5.318  38.264   5.674
 4736POPC   GL262354   4.954  38.298   5.774
 4736POPC   C1A62355   5.312  38.367   6.158
 4736POPC   D2A62356   5.061  38.341   6.543
 4736POPC   C3A62357   5.182  38.381   6.995
 4736POPC   C4A62358   5.409  38.107   7.264
 4736POPC   C1B62359   4.863  38.649   6.088
 4736POPC   C2B62360   4.846  38.801   6.532
 4736POPC   C3B62361   4.701  38.571   6.909
 4736POPC   C4B62362   4.723  38.222   7.185
 4737POPC   NC362363   4.867  16.199   5.434
 4737POPC   PO462364   5.287  15.788   5.459
 4737POPC   GL162365   4.992  15.705   5.791
 4737POPC   GL262366   4.841  16.003   5.917
 4737POPC   C1A62367   5.042  15.676   6.258
 4737POPC   D2A62368   5.289  15.923   6.547
 4737POPC   C3A62369   5.220  15.961   7.012
 4737POPC   C4A62370   4.915  15.713   7.260
 4737POPC   C1B62371   4.721  16.065   6.370
 4737POPC   C2B62372   4.752  15.938   6.814
 4737POPC   C3B62373   4.705  16.186   7.205
 4737POPC   C4B62374   4.727  16.474   7.596
 4738POPC   NC362375  17.795  16.148   5.473
 4738POPC   PO462376  17.208  16.049   5.162
 4738POPC   GL162377  17.362  15.933   5.650
 4738POPC   GL262378  17.192  15.750   5.920
 4738POPC   C1A62379  17.667  15.827   6.046
 4738POPC   D2A62380  17.495  15.825   6.480
 4738POPC   C3A62381  17.713  15.782   6.884
 4738POPC   C4A62382  17.564  15.738   7.288
 4738POPC   C1B62383  17.264  16.150   6.150
 4738POPC   C2B62384  17.116  16.168   6.569
 4738POPC   C3B62385  17.225  15.957   6.930
 4738POPC   C4B62386  17.451  16.222   7.191
 4739POPC   NC362387  20.449  36.129   5.247
 4739POPC   PO462388  21.056  36.017   5.496
 4739POPC   GL162389  20.763  36.191   5.788
 4739POPC   GL262390  20.567  35.891   5.816
 4739POPC   C1A62391  20.586  36.192   6.228
 4739POPC   D2A62392  20.564  35.976   6.614
 4739POPC   C3A62393  20.671  36.231   6.943
 4739POPC   C4A62394  20.459  36.365   7.327
 4739POPC   C1B62395  20.424  35.671   6.214
 4739POPC   C2B62396  20.287  35.536   6.633
 4739POPC   C3B62397  20.243  35.825   6.983
 4739POPC   C4B62398  20.541  35.891   7.277
 4740POPC   NC362399  15.968  39.986   5.197
 4740POPC   PO462400  16.201  40.435   5.654
 4740POPC   GL162401  15.895  40.194   5.847
 4740POPC   GL262402  16.060  39.869   5.852
 4740POPC   C1A62403  15.752  40.042   6.249
 4740POPC   D2A62404  15.952  39.824   6.593
 4740POPC   C3A62405  15.829  40.033   6.936
 4740POPC   C4A62406  16.017  39.986   7.329
 4740POPC   C1B62407  16.269  40.027   6.244
 4740POPC   C2B62408  16.116  40.323   6.587
 4740POPC   C3B62409  16.183  40.447   7.041
 4740POPC   C4B62410  16.176  40.468   7.503
 4741POPC   NC362411  29.135  37.334   5.383
 4741POPC   PO462412  29.612  37.872   5.402
 4741POPC   GL162413  29.196  37.779   5.707
 4741POPC   GL262414  29.022  37.482   5.853
 4741POPC   C1A62415  29.056  37.828   6.209
 4741POPC   D2A62416  29.170  37.670   6.650
 4741POPC   C3A62417  29.034  37.856   7.052
 4741POPC   C4A62418  29.174  37.801   7.494
 4741POPC   C1B62419  29.134  37.286   6.288
 4741POPC   C2B62420  29.342  37.203   6.721
 4741POPC   C3B62421  29.317  37.435   7.118
 4741POPC   C4B62422  29.248  37.294   7.566
 4742POPC   NC362423  21.177   2.053   5.396
 4742POPC   PO462424  20.614   1.695   5.372
 4742POPC   GL162425  20.428   1.749   5.796
 4742POPC   GL262426  20.580   2.065   5.841
 4742POPC   C1A62427  20.320   1.892   6.238
 4742POPC   D2A62428  20.115   1.895   6.615
 4742POPC   C3A62429  20.311   1.825   7.018
 4742POPC   C4A62430  20.365   1.462   7.266
 4742POPC   C1B62431  20.837   2.026   6.225
 4742POPC   C2B62432  20.985   1.827   6.613
 4742POPC   C3B62433  20.936   2.022   7.035
 4742POPC   C4B62434  20.894   2.437   7.198
 4743POPC   NC362435  34.703  22.181   5.281
 4743POPC   PO462436  34.096  21.956   5.419
 4743POPC   GL162437  34.500  21.996   5.751
 4743POPC   GL262438  34.883  22.010   5.719
 4743POPC   C1A62439  34.702  22.062   6.213
 4743POPC   D2A62440  34.614  22.326   6.615
 4743POPC   C3A62441  34.592  22.249   7.073
 4743POPC   C4A62442  34.450  22.500   7.421
 4743POPC   C1B62443  35.058  22.348   5.989
 4743POPC   C2B62444  35.116  22.467   6.430
 4743POPC   C3B62445  35.025  22.517   6.874
 4743POPC   C4B62446  35.103  22.357   7.274
 4744POPC   NC362447  15.873  25.240   5.456
 4744POPC   PO462448  16.488  25.323   5.678
 4744POPC   GL162449  16.198  25.175   5.895
 4744POPC   GL262450  16.031  25.490   5.878
 4744POPC   C1A62451  16.108  25.063   6.320
 4744POPC   D2A62452  16.043  24.909   6.747
 4744POPC   C3A62453  16.080  25.177   7.100
 4744POPC   C4A62454  15.674  25.075   7.284
 4744POPC   C1B62455  16.027  25.564   6.323
 4744POPC   C2B62456  15.801  25.384   6.681
 4744POPC   C3B62457  15.705  25.544   7.081
 4744POPC   C4B62458  16.011  25.675   7.345
 4745POPC   NC362459  15.132  40.291   5.022
 4745POPC   PO462460  15.380  40.914   5.345
 4745POPC   GL162461  15.202  40.834   5.735
 4745POPC   GL262462  15.235  41.131   5.944
 4745POPC   C1A62463  15.311  40.697   6.148
 4745POPC   D2A62464  15.379  40.973   6.453
 4745POPC   C3A62465  15.278  40.780   6.827
 4745POPC   C4A62466  15.460  40.837   7.227
 4745POPC   C1B62467  14.926  41.205   6.259
 4745POPC   C2B62468  14.873  41.059   6.649
 4745POPC   C3B62469  15.061  41.175   7.036
 4745POPC   C4B62470  14.989  40.908   7.389
 4746POPC   NC362471   1.850  36.929   5.427
 4746POPC   PO462472   2.544  37.119   5.356
 4746POPC   GL162473   2.248  37.083   5.739
 4746POPC   GL262474   1.916  37.182   5.877
 4746POPC   C1A62475   2.175  36.790   6.100
 4746POPC   D2A62476   2.013  36.628   6.506
 4746POPC   C3A62477   2.146  36.876   6.860
 4746POPC   C4A62478   2.051  36.836   7.281
 4746POPC   C1B62479   1.714  37.349   6.248
 4746POPC   C2B62480   1.788  37.234   6.676
 4746POPC   C3B62481   1.780  37.378   7.094
 4746POPC   C4B62482   2.046  37.334   7.416
 4747POPC   NC362483  32.678   4.857   5.529
 4747POPC   PO462484  33.347   4.980   5.551
 4747POPC   GL162485  33.206   5.179   5.892
 4747POPC   GL262486  32.905   5.312   5.698
 4747POPC   C1A62487  33.215   5.174   6.349
 4747POPC   D2A62488  33.118   5.404   6.752
 4747POPC   C3A62489  33.339   5.203   7.091
 4747POPC   C4A62490  33.621   5.090   7.422
 4747POPC   C1B62491  32.736   5.215   6.111
 4747POPC   C2B62492  32.727   5.074   6.544
 4747POPC   C3B62493  32.629   5.262   6.944
 4747POPC   C4B62494  32.868   5.183   7.301
 4748POPC   NC362495   5.130   2.433   5.390
 4748POPC   PO462496   4.703   2.971   5.385
 4748POPC   GL162497   4.819   2.893   5.789
 4748POPC   GL262498   5.143   2.792   5.748
 4748POPC   C1A62499   5.041   3.073   6.155
 4748POPC   D2A62500   5.306   3.072   6.534
 4748POPC   C3A62501   5.096   3.080   6.949
 4748POPC   C4A62502   4.859   3.110   7.359
 4748POPC   C1B62503   5.087   2.439   6.063
 4748POPC   C2B62504   5.296   2.320   6.469
 4748POPC   C3B62505   5.246   2.549   6.864
 4748POPC   C4B62506   5.026   2.664   7.239
 4749POPC   NC362507  26.800  39.035   5.469
 4749POPC   PO462508  26.661  39.613   5.629
 4749POPC   GL162509  26.918  39.341   5.911
 4749POPC   GL262510  27.218  39.115   5.814
 4749POPC   C1A62511  26.883  39.025   6.232
 4749POPC   D2A62512  26.686  38.859   6.597
 4749POPC   C3A62513  26.867  39.055   6.977
 4749POPC   C4A62514  26.871  39.501   7.137
 4749POPC   C1B62515  27.341  39.236   6.269
 4749POPC   C2B62516  27.141  39.395   6.652
 4749POPC   C3B62517  27.325  39.337   7.064
 4749POPC   C4B62518  27.224  39.016   7.375
 4750POPC   NC362519  11.945  36.781   4.916
 4750POPC   PO462520  12.027  37.243   5.338
 4750POPC   GL162521  12.177  37.177   5.757
 4750POPC   GL262522  11.988  37.381   5.955
 4750POPC   C1A62523  12.176  36.937   6.175
 4750POPC   D2A62524  12.100  36.874   6.642
 4750POPC   C3A62525  12.232  37.002   7.084
 4750POPC   C4A62526  12.129  36.708   7.448
 4750POPC   C1B62527  11.930  37.316   6.404
 4750POPC   C2B62528  11.875  37.297   6.837
 4750POPC   C3B62529  11.772  37.185   7.233
 4750POPC   C4B62530  12.091  37.187   7.580
 4751POPC   NC362531   5.414  23.738   5.463
 4751POPC   PO462532   4.914  24.052   5.416
 4751POPC   GL162533   4.998  23.811   5.803
 4751POPC   GL262534   5.150  23.447   5.799
 4751POPC   C1A62535   5.150  23.980   6.209
 4751POPC   D2A62536   5.340  24.173   6.589
 4751POPC   C3A62537   5.137  24.047   6.959
 4751POPC   C4A62538   5.289  23.884   7.320
 4751POPC   C1B62539   4.952  23.496   6.221
 4751POPC   C2B62540   4.968  23.680   6.632
 4751POPC   C3B62541   4.981  23.515   7.068
 4751POPC   C4B62542   4.798  23.242   7.407
 4752POPC   NC362543   1.371  14.486   5.181
 4752POPC   PO462544   1.101  13.919   5.343
 4752POPC   GL162545   1.043  14.206   5.693
 4752POPC   GL262546   1.229  14.533   5.670
 4752POPC   C1A62547   1.096  14.207   6.144
 4752POPC   D2A62548   1.439  14.076   6.431
 4752POPC   C3A62549   1.440  14.055   6.886
 4752POPC   C4A62550   1.400  14.199   7.330
 4752POPC   C1B62551   1.179  14.706   6.066
 4752POPC   C2B62552   1.319  14.571   6.481
 4752POPC   C3B62553   1.196  14.508   6.897
 4752POPC   C4B62554   1.355  14.693   7.267
 4753POPC   NC362555  36.154  13.418   5.199
 4753POPC   PO462556  36.001  14.086   5.294
 4753POPC   GL162557  36.178  13.789   5.622
 4753POPC   GL262558  36.302  13.439   5.714
 4753POPC   C1A62559  36.076  13.765   6.061
 4753POPC   D2A62560  36.199  13.895   6.478
 4753POPC   C3A62561  36.399  13.644   6.762
 4753POPC   C4A62562  36.206  13.754   7.112
 4753POPC   C1B62563  36.320  13.308   6.186
 4753POPC   C2B62564  36.277  13.143   6.639
 4753POPC   C3B62565  35.991  13.266   6.970
 4753POPC   C4B62566  35.761  13.044   7.310
 4754POPC   NC362567  43.557  25.601   5.476
 4754POPC   PO462568  43.249  25.075   5.148
 4754POPC   GL162569  43.086  25.057   5.584
 4754POPC   GL262570  43.091  25.399   5.697
 4754POPC   C1A62571  43.062  25.018   6.058
 4754POPC   D2A62572  43.233  25.160   6.471
 4754POPC   C3A62573  43.036  25.205   6.883
 4754POPC   C4A62574  43.072  25.035   7.314
 4754POPC   C1B62575  43.093  25.523   6.124
 4754POPC   C2B62576  42.990  25.627   6.531
 4754POPC   C3B62577  43.138  25.717   6.907
 4754POPC   C4B62578  43.099  25.640   7.321
 4755POPC   NC362579   4.691  13.129   5.366
 4755POPC   PO462580   4.211  12.738   5.155
 4755POPC   GL162581   4.248  12.767   5.647
 4755POPC   GL262582   3.946  12.630   5.805
 4755POPC   C1A62583   4.398  12.685   6.122
 4755POPC   D2A62584   4.557  12.515   6.563
 4755POPC   C3A62585   4.503  12.715   6.981
 4755POPC   C4A62586   4.366  12.937   7.350
 4755POPC   C1B62587   3.933  12.636   6.271
 4755POPC   C2B62588   4.069  12.603   6.716
 4755POPC   C3B62589   3.959  12.677   7.160
 4755POPC   C4B62590   3.867  13.064   7.382
 4756POPC   NC362591  10.171   8.422   5.437
 4756POPC   PO462592  10.643   7.979   5.370
 4756POPC   GL162593  10.513   8.108   5.811
 4756POPC   GL262594  10.885   8.050   5.849
 4756POPC   C1A62595  10.331   8.459   6.171
 4756POPC   D2A62596  10.340   8.671   6.636
 4756POPC   C3A62597  10.265   8.439   7.060
 4756POPC   C4A62598  10.446   8.185   7.446
 4756POPC   C1B62599  10.755   8.194   6.264
 4756POPC   C2B62600  10.511   8.180   6.617
 4756POPC   C3B62601  10.679   8.110   7.004
 4756POPC   C4B62602  10.831   7.866   7.338
 4757POPC   NC362603  14.588  10.611   5.512
 4757POPC   PO462604  14.055  10.177   5.426
 4757POPC   GL162605  14.256  10.323   5.799
 4757POPC   GL262606  14.150  10.623   5.911
 4757POPC   C1A62607  14.390  10.285   6.231
 4757POPC   D2A62608  14.340  10.505   6.630
 4757POPC   C3A62609  14.530  10.300   7.006
 4757POPC   C4A62610  14.419  10.293   7.456
 4757POPC   C1B62611  14.488  10.779   6.171
 4757POPC   C2B62612  14.707  10.899   6.537
 4757POPC   C3B62613  14.553  10.895   6.975
 4757POPC   C4B62614  14.712  10.667   7.314
 4758POPC   NC362615   6.163  39.996   5.463
 4758POPC   PO462616   5.662  39.630   5.708
 4758POPC   GL162617   5.891  39.971   5.896
 4758POPC   GL262618   6.260  39.989   5.944
 4758POPC   C1A62619   5.773  40.173   6.251
 4758POPC   D2A62620   5.821  40.264   6.677
 4758POPC   C3A62621   5.645  40.074   7.033
 4758POPC   C4A62622   5.874  40.257   7.365
 4758POPC   C1B62623   6.306  40.006   6.354
 4758POPC   C2B62624   6.336  40.204   6.697
 4758POPC   C3B62625   6.139  39.998   7.000
 4758POPC   C4B62626   6.087  39.741   7.335
 4759POPC   NC362627  19.501  41.307   5.591
 4759POPC   PO462628  20.029  41.647   5.348
 4759POPC   GL162629  19.877  41.621   5.797
 4759POPC   GL262630  19.591  41.797   5.777
 4759POPC   C1A62631  19.607  41.527   6.206
 4759POPC   D2A62632  19.465  41.370   6.611
 4759POPC   C3A62633  19.834  41.409   6.846
 4759POPC   C4A62634  19.871  41.516   7.260
 4759POPC   C1B62635  19.625  42.046   6.147
 4759POPC   C2B62636  19.459  41.922   6.542
 4759POPC   C3B62637  19.550  41.819   6.934
 4759POPC   C4B62638  19.457  41.993   7.293
 4760POPC   NC362639  11.495  39.781   5.425
 4760POPC   PO462640  11.227  40.411   5.574
 4760POPC   GL162641  11.168  40.187   5.923
 4760POPC   GL262642  11.089  39.874   5.767
 4760POPC   C1A62643  11.119  40.127   6.374
 4760POPC   D2A62644  11.497  39.972   6.620
 4760POPC   C3A62645  11.440  40.134   7.004
 4760POPC   C4A62646  11.119  40.174   7.282
 4760POPC   C1B62647  11.359  39.748   6.118
 4760POPC   C2B62648  11.150  39.630   6.501
 4760POPC   C3B62649  11.100  39.754   6.941
 4760POPC   C4B62650  11.373  39.717   7.334
 4761POPC   NC362651  17.947  33.365   5.384
 4761POPC   PO462652  18.218  33.944   5.184
 4761POPC   GL162653  18.280  33.821   5.688
 4761POPC   GL262654  18.145  33.523   5.865
 4761POPC   C1A62655  18.425  33.812   6.161
 4761POPC   D2A62656  18.325  34.059   6.537
 4761POPC   C3A62657  18.437  33.873   6.949
 4761POPC   C4A62658  18.526  33.850   7.411
 4761POPC   C1B62659  17.908  33.876   6.095
 4761POPC   C2B62660  17.799  34.029   6.520
 4761POPC   C3B62661  17.896  33.815   6.903
 4761POPC   C4B62662  18.040  33.972   7.289
 4762POPC   NC362663   5.681  33.215   5.032
 4762POPC   PO462664   6.196  32.933   5.433
 4762POPC   GL162665   6.031  33.017   5.791
 4762POPC   GL262666   5.727  32.905   5.726
 4762POPC   C1A62667   6.135  33.319   6.103
 4762POPC   D2A62668   5.928  33.258   6.459
 4762POPC   C3A62669   6.157  33.145   6.797
 4762POPC   C4A62670   6.120  33.172   7.230
 4762POPC   C1B62671   5.662  32.869   6.187
 4762POPC   C2B62672   5.827  32.756   6.581
 4762POPC   C3B62673   5.908  32.734   7.020
 4762POPC   C4B62674   5.647  33.034   7.257
 4763POPC   NC362675  17.614  35.443   5.382
 4763POPC   PO462676  17.148  34.992   5.552
 4763POPC   GL162677  17.344  35.309   5.824
 4763POPC   GL262678  17.731  35.320   5.859
 4763POPC   C1A62679  17.334  35.356   6.267
 4763POPC   D2A62680  17.133  35.195   6.634
 4763POPC   C3A62681  17.342  35.181   7.011
 4763POPC   C4A62682  17.458  35.553   7.171
 4763POPC   C1B62683  17.841  35.247   6.294
 4763POPC   C2B62684  17.683  35.388   6.695
 4763POPC   C3B62685  17.856  35.269   7.092
 4763POPC   C4B62686  17.762  35.028   7.451
 4764POPC   NC362687   2.279   6.861   5.202
 4764POPC   PO462688   1.712   6.563   5.305
 4764POPC   GL162689   2.082   6.609   5.650
 4764POPC   GL262690   2.375   6.405   5.836
 4764POPC   C1A62691   2.051   6.630   6.132
 4764POPC   D2A62692   2.040   6.472   6.579
 4764POPC   C3A62693   1.977   6.753   6.947
 4764POPC   C4A62694   1.872   6.860   7.363
 4764POPC   C1B62695   2.388   6.197   6.239
 4764POPC   C2B62696   2.541   6.269   6.654
 4764POPC   C3B62697   2.266   6.330   7.039
 4764POPC   C4B62698   2.331   6.628   7.395
 4765POPC   NC362699  37.251  26.676   5.532
 4765POPC   PO462700  37.881  26.698   5.325
 4765POPC   GL162701  37.743  26.877   5.755
 4765POPC   GL262702  37.446  27.068   5.834
 4765POPC   C1A62703  37.896  26.913   6.195
 4765POPC   D2A62704  37.783  26.658   6.548
 4765POPC   C3A62705  37.933  26.741   6.946
 4765POPC   C4A62706  37.857  26.903   7.347
 4765POPC   C1B62707  37.337  26.978   6.273
 4765POPC   C2B62708  37.187  27.011   6.702
 4765POPC   C3B62709  37.409  26.881   7.076
 4765POPC   C4B62710  37.375  26.899   7.552
 4766POPC   NC362711  39.671  25.549   5.160
 4766POPC   PO462712  40.058  25.084   5.201
 4766POPC   GL162713  40.082  25.171   5.685
 4766POPC   GL262714  39.932  24.900   5.909
 4766POPC   C1A62715  40.127  25.351   6.140
 4766POPC   D2A62716  40.121  25.219   6.602
 4766POPC   C3A62717  39.986  25.475   6.969
 4766POPC   C4A62718  40.082  25.423   7.440
 4766POPC   C1B62719  39.688  25.056   6.299
 4766POPC   C2B62720  39.608  25.142   6.758
 4766POPC   C3B62721  39.711  25.113   7.200
 4766POPC   C4B62722  39.916  24.944   7.538
 4767POPC   NC362723   1.797  10.425   5.140
 4767POPC   PO462724   2.202  10.987   5.267
 4767POPC   GL162725   2.056  10.575   5.536
 4767POPC   GL262726   2.269  10.298   5.620
 4767POPC   C1A62727   1.804  10.323   5.882
 4767POPC   D2A62728   1.799  10.415   6.365
 4767POPC   C3A62729   1.921  10.435   6.838
 4767POPC   C4A62730   1.838  10.744   7.192
 4767POPC   C1B62731   2.268  10.372   6.074
 4767POPC   C2B62732   2.349  10.302   6.515
 4767POPC   C3B62733   2.441  10.507   6.889
 4767POPC   C4B62734   2.291  10.532   7.290
 4768POPC   NC362735   7.310  32.535   5.399
 4768POPC   PO462736   7.202  31.817   5.393
 4768POPC   GL162737   7.098  32.060   5.746
 4768POPC   GL262738   7.422  32.195   5.793
 4768POPC   C1A62739   7.085  32.237   6.178
 4768POPC   D2A62740   7.297  32.365   6.572
 4768POPC   C3A62741   7.183  32.162   6.978
 4768POPC   C4A62742   7.298  32.316   7.394
 4768POPC   C1B62743   7.559  32.015   6.207
 4768POPC   C2B62744   7.486  31.906   6.660
 4768POPC   C3B62745   7.671  32.083   7.077
 4768POPC   C4B62746   8.017  31.973   7.370
 4769POPC   NC362747  16.755  21.542   5.440
 4769POPC   PO462748  16.730  20.878   5.471
 4769POPC   GL162749  16.651  21.202   5.794
 4769POPC   GL262750  16.981  21.248   5.822
 4769POPC   C1A62751  16.560  21.270   6.223
 4769POPC   D2A62752  16.324  21.412   6.602
 4769POPC   C3A62753  16.520  21.280   6.967
 4769POPC   C4A62754  16.732  21.405   7.321
 4769POPC   C1B62755  17.052  21.428   6.228
 4769POPC   C2B62756  16.827  21.515   6.607
 4769POPC   C3B62757  16.843  21.772   6.974
 4769POPC   C4B62758  17.080  21.781   7.346
 4770POPC   NC362759   5.918  35.384   5.346
 4770POPC   PO462760   5.270  35.283   5.392
 4770POPC   GL162761   5.529  35.253   5.716
 4770POPC   GL262762   5.487  35.617   5.761
 4770POPC   C1A62763   5.843  35.217   6.052
 4770POPC   D2A62764   6.030  35.059   6.457
 4770POPC   C3A62765   5.995  35.267   6.893
 4770POPC   C4A62766   5.978  35.408   7.358
 4770POPC   C1B62767   5.667  35.713   6.152
 4770POPC   C2B62768   5.929  35.689   6.517
 4770POPC   C3B62769   5.884  35.751   6.958
 4770POPC   C4B62770   5.545  35.725   7.272
 4771POPC   NC362771   7.775  23.690   5.364
 4771POPC   PO462772   8.395  23.909   5.218
 4771POPC   GL162773   8.241  23.847   5.653
 4771POPC   GL262774   8.108  23.491   5.703
 4771POPC   C1A62775   8.382  23.708   6.100
 4771POPC   D2A62776   8.471  23.496   6.505
 4771POPC   C3A62777   8.424  23.720   6.885
 4771POPC   C4A62778   8.487  23.669   7.285
 4771POPC   C1B62779   7.874  23.738   6.020
 4771POPC   C2B62780   7.943  23.655   6.442
 4771POPC   C3B62781   7.937  23.594   6.861
 4771POPC   C4B62782   8.001  23.924   7.151
 4772POPC   NC362783   6.618  24.857   5.437
 4772POPC   PO462784   6.700  24.202   5.299
 4772POPC   GL162785   6.653  24.403   5.742
 4772POPC   GL262786   6.502  24.727   5.908
 4772POPC   C1A62787   6.615  24.345   6.217
 4772POPC   D2A62788   6.835  24.507   6.594
 4772POPC   C3A62789   6.684  24.495   7.016
 4772POPC   C4A62790   6.399  24.384   7.319
 4772POPC   C1B62791   6.574  24.878   6.347
 4772POPC   C2B62792   6.439  24.904   6.800
 4772POPC   C3B62793   6.656  24.993   7.151
 4772POPC   C4B62794   7.075  24.808   7.179
 4773POPC   NC362795   7.370  29.289   5.288
 4773POPC   PO462796   7.877  28.839   5.162
 4773POPC   GL162797   7.479  28.871   5.580
 4773POPC   GL262798   7.122  28.808   5.677
 4773POPC   C1A62799   7.370  29.135   6.006
 4773POPC   D2A62800   7.609  29.148   6.423
 4773POPC   C3A62801   7.566  29.311   6.861
 4773POPC   C4A62802   7.549  29.154   7.293
 4773POPC   C1B62803   6.953  28.838   6.136
 4773POPC   C2B62804   6.939  29.036   6.568
 4773POPC   C3B62805   7.144  29.023   6.988
 4773POPC   C4B62806   7.112  28.917   7.444
 4774POPC   NC362807  16.721  42.735   5.369
 4774POPC   PO462808  16.451  42.152   5.222
 4774POPC   GL162809  16.626  42.317   5.647
 4774POPC   GL262810  16.418  42.603   5.789
 4774POPC   C1A62811  16.801  42.384   6.066
 4774POPC   D2A62812  16.725  42.229   6.489
 4774POPC   C3A62813  16.940  42.433   6.822
 4774POPC   C4A62814  16.836  42.431   7.248
 4774POPC   C1B62815  16.452  42.753   6.217
 4774POPC   C2B62816  16.439  42.712   6.673
 4774POPC   C3B62817  16.435  42.776   7.118
 4774POPC   C4B62818  16.592  42.810   7.558
 4775POPC   NC362819  17.767  13.269   5.617
 4775POPC   PO462820  17.766  12.589   5.629
 4775POPC   GL162821  17.720  12.860   5.935
 4775POPC   GL262822  17.392  12.968   5.834
 4775POPC   C1A62823  17.624  12.985   6.319
 4775POPC   D2A62824  17.606  12.758   6.666
 4775POPC   C3A62825  17.590  13.012   7.000
 4775POPC   C4A62826  17.531  12.933   7.403
 4775POPC   C1B62827  17.294  12.587   6.127
 4775POPC   C2B62828  17.154  12.516   6.554
 4775POPC   C3B62829  17.183  12.678   6.961
 4775POPC   C4B62830  17.270  12.502   7.317
 4776POPC   NC362831  15.411   6.727   5.647
 4776POPC   PO462832  14.792   6.536   5.374
 4776POPC   GL162833  14.931   6.418   5.820
 4776POPC   GL262834  15.272   6.316   5.935
 4776POPC   C1A62835  14.970   6.500   6.288
 4776POPC   D2A62836  14.970   6.505   6.731
 4776POPC   C3A62837  15.193   6.773   6.973
 4776POPC   C4A62838  14.999   7.072   7.201
 4776POPC   C1B62839  15.412   6.130   6.311
 4776POPC   C2B62840  15.441   6.267   6.738
 4776POPC   C3B62841  15.371   6.320   7.168
 4776POPC   C4B62842  15.511   6.037   7.453
 4777POPC   NC362843  20.166  14.027   5.534
 4777POPC   PO462844  20.041  14.767   5.420
 4777POPC   GL162845  20.077  14.547   5.833
 4777POPC   GL262846  19.818  14.268   5.848
 4777POPC   C1A62847  19.918  14.636   6.276
 4777POPC   D2A62848  19.510  14.676   6.533
 4777POPC   C3A62849  19.557  14.370   6.866
 4777POPC   C4A62850  19.800  14.429   7.233
 4777POPC   C1B62851  20.075  14.133   6.201
 4777POPC   C2B62852  20.113  14.281   6.615
 4777POPC   C3B62853  20.140  14.131   7.002
 4777POPC   C4B62854  19.739  13.936   7.175
 4778POPC   NC362855  36.046  19.153   5.289
 4778POPC   PO462856  35.645  18.756   5.640
 4778POPC   GL162857  36.015  19.072   5.779
 4778POPC   GL262858  36.374  18.965   5.726
 4778POPC   C1A62859  36.242  19.290   6.107
 4778POPC   D2A62860  36.132  19.135   6.505
 4778POPC   C3A62861  35.968  19.258   6.894
 4778POPC   C4A62862  36.151  19.148   7.272
 4778POPC   C1B62863  36.578  18.911   6.170
 4778POPC   C2B62864  36.496  18.808   6.643
 4778POPC   C3B62865  36.459  18.773   7.104
 4778POPC   C4B62866  36.348  18.581   7.529
 4779POPC   NC362867  19.924  20.990   5.569
 4779POPC   PO462868  19.649  21.544   5.530
 4779POPC   GL162869  19.725  21.650   5.900
 4779POPC   GL262870  20.043  21.684   5.911
 4779POPC   C1A62871  19.654  21.455   6.288
 4779POPC   D2A62872  19.825  21.238   6.658
 4779POPC   C3A62873  19.891  21.504   7.034
 4779POPC   C4A62874  19.740  21.538   7.472
 4779POPC   C1B62875  20.142  21.343   6.185
 4779POPC   C2B62876  20.321  21.364   6.595
 4779POPC   C3B62877  20.272  21.095   6.947
 4779POPC   C4B62878  20.113  21.102   7.373
 4780POPC   NC362879  12.731  39.397   5.612
 4780POPC   PO462880  12.515  38.776   5.369
 4780POPC   GL162881  12.505  38.947   5.771
 4780POPC   GL262882  12.870  38.962   5.851
 4780POPC   C1A62883  12.547  39.119   6.203
 4780POPC   D2A62884  12.502  39.271   6.634
 4780POPC   C3A62885  12.650  39.037   7.001
 4780POPC   C4A62886  12.660  39.189   7.442
 4780POPC   C1B62887  13.040  39.238   6.219
 4780POPC   C2B62888  13.013  39.341   6.689
 4780POPC   C3B62889  13.191  39.256   7.099
 4780POPC   C4B62890  13.469  38.926   7.293
 4781POPC   NC362891  28.275  20.011   5.235
 4781POPC   PO462892  28.286  19.468   5.610
 4781POPC   GL162893  28.439  19.920   5.728
 4781POPC   GL262894  28.114  20.076   5.820
 4781POPC   C1A62895  28.541  20.148   6.136
 4781POPC   D2A62896  28.540  19.937   6.515
 4781POPC   C3A62897  28.498  20.138   6.892
 4781POPC   C4A62898  28.256  20.050   7.257
 4781POPC   C1B62899  28.218  19.753   6.162
 4781POPC   C2B62900  28.082  19.536   6.490
 4781POPC   C3B62901  28.196  19.710   6.856
 4781POPC   C4B62902  27.962  19.657   7.246
 4782POPC   NC362903  24.776  22.330   5.439
 4782POPC   PO462904  24.328  21.911   5.183
 4782POPC   GL162905  24.452  21.989   5.627
 4782POPC   GL262906  24.669  21.722   5.787
 4782POPC   C1A62907  24.601  22.135   6.066
 4782POPC   D2A62908  24.867  22.034   6.422
 4782POPC   C3A62909  24.602  22.075   6.784
 4782POPC   C4A62910  24.593  22.393   7.093
 4782POPC   C1B62911  24.213  21.781   6.010
 4782POPC   C2B62912  24.020  21.922   6.392
 4782POPC   C3B62913  24.078  21.935   6.804
 4782POPC   C4B62914  24.283  21.980   7.184
 4783POPC   NC362915   4.476  24.055   5.318
 4783POPC   PO462916   4.088  23.526   5.449
 4783POPC   GL162917   4.472  23.681   5.724
 4783POPC   GL262918   4.649  23.377   5.824
 4783POPC   C1A62919   4.621  23.877   6.159
 4783POPC   D2A62920   4.465  23.767   6.597
 4783POPC   C3A62921   4.639  23.879   6.994
 4783POPC   C4A62922   4.386  23.832   7.335
 4783POPC   C1B62923   4.408  23.429   6.196
 4783POPC   C2B62924   4.089  23.337   6.466
 4783POPC   C3B62925   4.135  23.236   6.888
 4783POPC   C4B62926   4.462  23.407   7.075
 4784POPC   NC362927  13.662  40.633   5.331
 4784POPC   PO462928  13.507  41.220   5.636
 4784POPC   GL162929  13.547  40.775   5.795
 4784POPC   GL262930  13.863  40.549   5.854
 4784POPC   C1A62931  13.462  40.550   6.157
 4784POPC   D2A62932  13.508  40.757   6.517
 4784POPC   C3A62933  13.746  40.683   6.885
 4784POPC   C4A62934  13.585  40.564   7.272
 4784POPC   C1B62935  13.890  40.891   6.153
 4784POPC   C2B62936  13.970  41.021   6.557
 4784POPC   C3B62937  14.169  40.993   6.958
 4784POPC   C4B62938  13.992  40.877   7.338
 4785POPC   NC362939  12.094  20.050   5.392
 4785POPC   PO462940  12.331  19.356   5.428
 4785POPC   GL162941  12.297  19.697   5.736
 4785POPC   GL262942  11.933  19.810   5.807
 4785POPC   C1A62943  12.292  19.789   6.209
 4785POPC   D2A62944  12.502  19.752   6.646
 4785POPC   C3A62945  12.259  19.774   7.016
 4785POPC   C4A62946  12.119  20.008   7.414
 4785POPC   C1B62947  11.775  19.764   6.213
 4785POPC   C2B62948  11.921  19.745   6.617
 4785POPC   C3B62949  11.761  19.756   7.022
 4785POPC   C4B62950  11.949  19.541   7.370
 4786POPC   NC362951  43.640  36.093   5.409
 4786POPC   PO462952  44.252  35.806   5.314
 4786POPC   GL162953  44.023  35.814   5.747
 4786POPC   GL262954  43.671  35.891   5.884
 4786POPC   C1A62955  44.083  35.971   6.201
 4786POPC   D2A62956  43.926  36.046   6.636
 4786POPC   C3A62957  44.092  36.244   7.011
 4786POPC   C4A62958  44.159  36.092   7.432
 4786POPC   C1B62959  43.657  36.258   6.157
 4786POPC   C2B62960  43.664  36.487   6.563
 4786POPC   C3B62961  43.628  36.451   7.008
 4786POPC   C4B62962  43.704  36.467   7.459
 4787POPC   NC362963  35.800  30.837   5.187
 4787POPC   PO462964  36.235  30.280   5.364
 4787POPC   GL162965  36.096  30.586   5.734
 4787POPC   GL262966  35.784  30.590   5.642
 4787POPC   C1A62967  36.165  30.775   6.176
 4787POPC   D2A62968  36.435  30.798   6.555
 4787POPC   C3A62969  36.328  31.072   6.922
 4787POPC   C4A62970  36.092  30.957   7.278
 4787POPC   C1B62971  35.672  30.677   6.059
 4787POPC   C2B62972  35.770  30.612   6.490
 4787POPC   C3B62973  35.955  30.625   6.893
 4787POPC   C4B62974  35.723  30.627   7.273
 4788POPC   NC362975   0.632   6.441   5.364
 4788POPC   PO462976   0.138   6.843   5.441
 4788POPC   GL162977   0.289   6.511   5.733
 4788POPC   GL262978   0.133   6.178   5.782
 4788POPC   C1A62979   0.521   6.541   6.121
 4788POPC   D2A62980   0.662   6.762   6.504
 4788POPC   C3A62981   0.518   6.640   6.914
 4788POPC   C4A62982   0.678   6.818   7.275
 4788POPC   C1B62983   0.026   6.381   6.148
 4788POPC   C2B62984   0.174   6.559   6.524
 4788POPC   C3B62985   0.045   6.832   6.846
 4788POPC   C4B62986   0.072   6.713   7.272
 4789POPC   NC362987  20.443   4.520   4.901
 4789POPC   PO462988  20.898   4.387   5.419
 4789POPC   GL162989  20.731   4.293   5.842
 4789POPC   GL262990  20.368   4.303   5.900
 4789POPC   C1A62991  20.662   4.547   6.221
 4789POPC   D2A62992  20.699   4.393   6.635
 4789POPC   C3A62993  20.961   4.561   6.936
 4789POPC   C4A62994  21.213   4.243   7.202
 4789POPC   C1B62995  20.146   4.514   6.260
 4789POPC   C2B62996  20.287   4.680   6.657
 4789POPC   C3B62997  20.417   4.541   7.060
 4789POPC   C4B62998  20.407   4.351   7.458
 4790POPC   NC362999   2.914  36.409   5.346
 4790POPC   PO463000   2.501  35.961   5.311
 4790POPC   GL163001   2.746  35.994   5.735
 4790POPC   GL263002   2.861  36.315   5.834
 4790POPC   C1A63003   3.033  35.966   6.133
 4790POPC   D2A63004   2.990  36.256   6.462
 4790POPC   C3A63005   2.866  36.111   6.868
 4790POPC   C4A63006   2.715  36.176   7.278
 4790POPC   C1B63007   3.186  36.559   6.048
 4790POPC   C2B63008   3.117  36.756   6.454
 4790POPC   C3B63009   3.096  36.567   6.871
 4790POPC   C4B63010   2.955  36.665   7.288
 4791POPC   NC363011  34.075   5.153   5.361
 4791POPC   PO463012  34.443   4.623   5.378
 4791POPC   GL163013  34.258   4.839   5.755
 4791POPC   GL263014  34.416   5.154   5.757
 4791POPC   C1A63015  34.156   5.054   6.216
 4791POPC   D2A63016  34.147   5.062   6.726
 4791POPC   C3A63017  34.505   5.159   7.049
 4791POPC   C4A63018  34.835   5.276   7.393
 4791POPC   C1B63019  34.630   5.233   6.161
 4791POPC   C2B63020  34.627   5.404   6.583
 4791POPC   C3B63021  34.910   5.515   6.937
 4791POPC   C4B63022  35.307   5.423   7.195
 4792POPC   NC363023  15.248   9.887   5.205
 4792POPC   PO463024  15.049  10.486   5.482
 4792POPC   GL163025  14.910  10.533   5.904
 4792POPC   GL263026  14.878  10.901   5.878
 4792POPC   C1A63027  14.881  10.395   6.351
 4792POPC   D2A63028  15.121  10.155   6.678
 4792POPC   C3A63029  15.049  10.345   7.070
 4792POPC   C4A63030  15.216  10.611   7.369
 4792POPC   C1B63031  15.168  10.803   6.234
 4792POPC   C2B63032  15.188  10.682   6.676
 4792POPC   C3B63033  15.459  10.859   6.965
 4792POPC   C4B63034  15.502  11.056   7.344
 4793POPC   NC363035  14.545  22.301   5.170
 4793POPC   PO463036  14.079  22.834   5.350
 4793POPC   GL163037  14.216  22.924   5.781
 4793POPC   GL263038  14.554  22.828   5.907
 4793POPC   C1A63039  14.139  22.808   6.211
 4793POPC   D2A63040  14.040  22.993   6.605
 4793POPC   C3A63041  13.993  22.798   7.007
 4793POPC   C4A63042  14.184  23.109   7.242
 4793POPC   C1B63043  14.622  22.720   6.374
 4793POPC   C2B63044  14.476  22.779   6.824
 4793POPC   C3B63045  14.622  22.873   7.254
 4793POPC   C4B63046  14.785  22.646   7.619
 4794POPC   NC363047  38.157  26.311   5.315
 4794POPC   PO463048  38.625  25.832   5.434
 4794POPC   GL163049  38.308  25.858   5.782
 4794POPC   GL263050  38.323  26.205   5.819
 4794POPC   C1A63051  38.361  25.922   6.232
 4794POPC   D2A63052  38.568  26.140   6.562
 4794POPC   C3A63053  38.457  25.913   6.944
 4794POPC   C4A63054  38.766  25.738   7.244
 4794POPC   C1B63055  38.092  26.370   6.221
 4794POPC   C2B63056  38.091  26.260   6.666
 4794POPC   C3B63057  38.039  26.247   7.094
 4794POPC   C4B63058  38.011  26.208   7.542
 4795POPC   NC363059  25.956  25.933   5.349
 4795POPC   PO463060  26.086  25.195   5.306
 4795POPC   GL163061  25.970  25.040   5.738
 4795POPC   GL263062  26.238  25.103   6.018
 4795POPC   C1A63063  25.759  25.058   6.142
 4795POPC   D2A63064  25.959  25.175   6.582
 4795POPC   C3A63065  25.859  25.101   7.019
 4795POPC   C4A63066  26.250  25.091   7.233
 4795POPC   C1B63067  26.020  25.496   6.194
 4795POPC   C2B63068  25.825  25.658   6.611
 4795POPC   C3B63069  26.041  25.631   7.021
 4795POPC   C4B63070  26.233  25.565   7.418
 4796POPC   NC363071  44.889  11.971   5.489
 4796POPC   PO463072  44.535  12.582   5.401
 4796POPC   GL163073  44.413  12.389   5.792
 4796POPC   GL263074  44.517  12.058   5.837
 4796POPC   C1A63075  44.581  12.391   6.216
 4796POPC   D2A63076  44.537  12.354   6.656
 4796POPC   C3A63077  44.838  12.201   6.915
 4796POPC   C4A63078  44.776  12.137   7.312
 4796POPC   C1B63079  44.564  11.793   6.192
 4796POPC   C2B63080  44.656  11.840   6.613
 4796POPC   C3B63081  44.424  11.824   6.978
 4796POPC   C4B63082  44.281  11.386   7.102
 4797POPC   NC363083  25.241  26.224   5.188
 4797POPC   PO463084  25.562  25.690   5.430
 4797POPC   GL163085  25.428  25.956   5.768
 4797POPC   GL263086  25.098  25.923   5.823
 4797POPC   C1A63087  25.423  25.846   6.225
 4797POPC   D2A63088  25.318  25.636   6.596
 4797POPC   C3A63089  25.420  25.916   6.950
 4797POPC   C4A63090  25.253  25.999   7.369
 4797POPC   C1B63091  25.038  26.191   6.201
 4797POPC   C2B63092  25.075  26.063   6.584
 4797POPC   C3B63093  24.951  26.138   6.955
 4797POPC   C4B63094  24.804  26.454   7.177
 4798POPC   NC363095  16.092  28.959   5.376
 4798POPC   PO463096  15.624  29.368   5.504
 4798POPC   GL163097  15.941  29.279   5.837
 4798POPC   GL263098  16.020  28.917   5.897
 4798POPC   C1A63099  16.167  29.330   6.256
 4798POPC   D2A63100  16.453  29.209   6.625
 4798POPC   C3A63101  16.179  29.112   6.986
 4798POPC   C4A63102  16.023  29.415   7.282
 4798POPC   C1B63103  15.839  28.740   6.286
 4798POPC   C2B63104  15.787  28.956   6.682
 4798POPC   C3B63105  15.676  29.057   7.128
 4798POPC   C4B63106  15.781  29.060   7.583
 4799POPC   NC363107   2.106  19.834   5.346
 4799POPC   PO463108   2.073  19.292   5.548
 4799POPC   GL163109   2.311  19.603   5.815
 4799POPC   GL263110   2.253  19.986   5.862
 4799POPC   C1A63111   2.412  19.678   6.281
 4799POPC   D2A63112   2.167  19.942   6.626
 4799POPC   C3A63113   1.958  19.788   7.009
 4799POPC   C4A63114   1.611  19.713   7.312
 4799POPC   C1B63115   2.485  20.173   6.267
 4799POPC   C2B63116   2.634  20.077   6.739
 4799POPC   C3B63117   2.427  20.017   7.156
 4799POPC   C4B63118   2.235  20.300   7.471
 4800POPC   NC363119  38.192  20.759   5.554
 4800POPC   PO463120  38.748  20.559   5.266
 4800POPC   GL163121  38.605  20.525   5.731
 4800POPC   GL263122  38.305  20.344   5.826
 4800POPC   C1A63123  38.717  20.747   6.145
 4800POPC   D2A63124  38.771  20.699   6.577
 4800POPC   C3A63125  38.466  20.719   6.916
 4800POPC   C4A63126  38.580  20.964   7.296
 4800POPC   C1B63127  38.355  20.421   6.284
 4800POPC   C2B63128  38.103  20.426   6.644
 4800POPC   C3B63129  37.837  20.536   6.969
 4800POPC   C4B63130  38.113  20.655   7.304
 4801POPC   NC363131   4.009  24.826   5.684
 4801POPC   PO463132   4.450  24.532   5.278
 4801POPC   GL163133   4.522  24.425   5.694
 4801POPC   GL263134   4.653  24.733   5.798
 4801POPC   C1A63135   4.296  24.247   6.051
 4801POPC   D2A63136   4.319  24.298   6.518
 4801POPC   C3A63137   4.231  24.182   6.960
 4801POPC   C4A63138   4.354  24.328   7.382
 4801POPC   C1B63139   4.424  24.721   6.197
 4801POPC   C2B63140   4.512  24.776   6.645
 4801POPC   C3B63141   4.327  24.729   7.062
 4801POPC   C4B63142   4.231  24.830   7.511
 4802POPC   NC363143  20.837  25.028   4.998
 4802POPC   PO463144  20.517  25.434   5.422
 4802POPC   GL163145  20.524  25.369   5.814
 4802POPC   GL263146  20.669  25.070   5.792
 4802POPC   C1A63147  20.705  25.504   6.195
 4802POPC   D2A63148  20.618  25.714   6.559
 4802POPC   C3A63149  20.570  25.377   6.829
 4802POPC   C4A63150  20.843  25.317   7.139
 4802POPC   C1B63151  20.376  25.061   6.169
 4802POPC   C2B63152  20.330  24.895   6.558
 4802POPC   C3B63153  20.158  25.092   6.909
 4802POPC   C4B63154  20.371  25.203   7.308
 4803POPC   NC363155   8.563  42.050   5.444
 4803POPC   PO463156   8.041  42.518   5.318
 4803POPC   GL163157   7.951  42.494   5.766
 4803POPC   GL263158   8.233  42.291   5.825
 4803POPC   C1A63159   7.910  42.433   6.233
 4803POPC   D2A63160   8.106  42.216   6.605
 4803POPC   C3A63161   8.022  42.371   7.032
 4803POPC   C4A63162   7.984  42.371   7.521
 4803POPC   C1B63163   8.547  42.116   6.120
 4803POPC   C2B63164   8.666  42.027   6.533
 4803POPC   C3B63165   8.459  42.001   6.921
 4803POPC   C4B63166   8.421  42.214   7.313
 4804POPC   NC363167  38.478  36.388   5.425
 4804POPC   PO463168  38.447  37.088   5.238
 4804POPC   GL163169  38.394  36.967   5.761
 4804POPC   GL263170  38.556  36.656   5.879
 4804POPC   C1A63171  38.496  37.107   6.238
 4804POPC   D2A63172  38.218  37.124   6.653
 4804POPC   C3A63173  38.319  37.028   7.126
 4804POPC   C4A63174  38.644  37.139   7.476
 4804POPC   C1B63175  38.232  36.686   6.218
 4804POPC   C2B63176  38.110  36.568   6.606
 4804POPC   C3B63177  38.335  36.537   6.941
 4804POPC   C4B63178  38.678  36.698   7.163
 4805POPC   NC363179  18.845  13.120   5.456
 4805POPC   PO463180  19.324  12.698   5.524
 4805POPC   GL163181  19.098  12.608   5.926
 4805POPC   GL263182  18.741  12.541   5.828
 4805POPC   C1A63183  19.134  12.760   6.367
 4805POPC   D2A63184  18.914  12.705   6.750
 4805POPC   C3A63185  19.102  12.775   7.164
 4805POPC   C4A63186  19.341  12.967   7.511
 4805POPC   C1B63187  18.635  12.796   6.215
 4805POPC   C2B63188  18.773  13.147   6.520
 4805POPC   C3B63189  18.701  13.131   6.974
 4805POPC   C4B63190  18.587  12.722   7.146
 4806POPC   NC363191   6.586  32.858   5.217
 4806POPC   PO463192   6.989  33.378   5.172
 4806POPC   GL163193   6.841  33.237   5.651
 4806POPC   GL263194   6.548  32.988   5.814
 4806POPC   C1A63195   6.888  33.200   6.134
 4806POPC   D2A63196   6.693  32.985   6.501
 4806POPC   C3A63197   6.845  33.120   6.941
 4806POPC   C4A63198   6.589  33.356   7.213
 4806POPC   C1B63199   6.255  32.835   6.214
 4806POPC   C2B63200   6.319  32.651   6.640
 4806POPC   C3B63201   6.454  32.803   7.041
 4806POPC   C4B63202   6.337  32.710   7.437
 4807POPC   NC363203  28.639   4.871   5.679
 4807POPC   PO463204  28.203   5.199   5.240
 4807POPC   GL163205  28.231   5.220   5.713
 4807POPC   GL263206  28.030   4.998   5.908
 4807POPC   C1A63207  28.352   5.301   6.177
 4807POPC   D2A63208  28.331   5.144   6.599
 4807POPC   C3A63209  28.718   5.034   6.787
 4807POPC   C4A63210  28.733   5.208   7.172
 4807POPC   C1B63211  28.303   4.788   6.237
 4807POPC   C2B63212  28.212   4.574   6.633
 4807POPC   C3B63213  28.264   4.811   7.002
 4807POPC   C4B63214  28.243   5.130   7.285
 4808POPC   NC363215  15.320  36.228   5.247
 4808POPC   PO463216  15.972  36.063   5.322
 4808POPC   GL163217  16.027  36.170   5.739
 4808POPC   GL263218  15.674  36.285   5.797
 4808POPC   C1A63219  16.028  36.119   6.182
 4808POPC   D2A63220  15.886  36.281   6.593
 4808POPC   C3A63221  15.996  36.109   6.976
 4808POPC   C4A63222  16.145  36.283   7.352
 4808POPC   C1B63223  15.539  36.111   6.215
 4808POPC   C2B63224  15.575  35.870   6.613
 4808POPC   C3B63225  15.519  35.938   7.044
 4808POPC   C4B63226  15.650  36.195   7.365
 4809POPC   NC363227  35.741   6.986   5.236
 4809POPC   PO463228  35.648   6.334   5.436
 4809POPC   GL163229  35.383   6.623   5.638
 4809POPC   GL263230  35.118   6.432   5.717
 4809POPC   C1A63231  35.220   6.844   6.041
 4809POPC   D2A63232  34.955   6.829   6.435
 4809POPC   C3A63233  35.173   6.847   6.836
 4809POPC   C4A63234  35.149   6.974   7.245
 4809POPC   C1B63235  35.057   6.347   6.173
 4809POPC   C2B63236  35.199   6.374   6.610
 4809POPC   C3B63237  35.072   6.388   7.065
 4809POPC   C4B63238  35.405   6.278   7.358
 4810POPC   NC363239  44.883  40.103   5.420
 4810POPC   PO463240  44.653  39.598   5.159
 4810POPC   GL163241  44.600  39.725   5.649
 4810POPC   GL263242  44.786  39.481   5.832
 4810POPC   C1A63243  44.656  39.985   6.084
 4810POPC   D2A63244  44.836  39.943   6.555
 4810POPC   C3A63245  44.616  40.109   6.958
 4810POPC   C4A63246  44.561  40.306   7.376
 4810POPC   C1B63247  44.681  39.513   6.256
 4810POPC   C2B63248  44.682  39.470   6.684
 4810POPC   C3B63249  44.888  39.686   7.036
 4810POPC   C4B63250  44.594  39.715   7.367
 4811POPC   NC363251  42.441  17.197   5.536
 4811POPC   PO463252  42.211  16.531   5.509
 4811POPC   GL163253  42.546  16.584   5.807
 4811POPC   GL263254  42.411  16.896   5.968
 4811POPC   C1A63255  42.527  16.501   6.246
 4811POPC   D2A63256  42.154  16.718   6.459
 4811POPC   C3A63257  42.028  16.586   6.863
 4811POPC   C4A63258  42.304  16.546   7.230
 4811POPC   C1B63259  42.570  17.004   6.399
 4811POPC   C2B63260  42.464  16.876   6.858
 4811POPC   C3B63261  42.655  17.008   7.262
 4811POPC   C4B63262  42.609  17.227   7.679
 4812POPC   NC363263  26.166  34.568   5.330
 4812POPC   PO463264  25.518  34.725   5.329
 4812POPC   GL163265  25.771  34.569   5.714
 4812POPC   GL263266  26.136  34.499   5.851
 4812POPC   C1A63267  25.776  34.634   6.177
 4812POPC   D2A63268  26.044  34.539   6.546
 4812POPC   C3A63269  25.880  34.657   6.934
 4812POPC   C4A63270  25.832  34.427   7.288
 4812POPC   C1B63271  26.314  34.808   6.199
 4812POPC   C2B63272  26.376  34.996   6.585
 4812POPC   C3B63273  26.372  34.777   6.946
 4812POPC   C4B63274  26.198  34.756   7.333
 4813POPC   NC363275  38.447  41.952   5.437
 4813POPC   PO463276  38.484  41.283   5.674
 4813POPC   GL163277  38.423  41.646   5.853
 4813POPC   GL263278  38.143  41.519   6.001
 4813POPC   C1A63279  38.615  41.669   6.247
 4813POPC   D2A63280  38.784  41.358   6.496
 4813POPC   C3A63281  38.593  41.345   6.887
 4813POPC   C4A63282  38.631  41.596   7.241
 4813POPC   C1B63283  38.251  41.303   6.371
 4813POPC   C2B63284  38.219  41.638   6.638
 4813POPC   C3B63285  38.159  41.723   7.049
 4813POPC   C4B63286  38.139  41.358   7.321
 4814POPC   NC363287  38.978  35.664   5.492
 4814POPC   PO463288  39.524  35.680   5.342
 4814POPC   GL163289  39.335  35.329   5.667
 4814POPC   GL263290  39.525  35.100   5.888
 4814POPC   C1A63291  39.081  35.329   6.081
 4814POPC   D2A63292  39.172  35.555   6.483
 4814POPC   C3A63293  39.032  35.518   6.887
 4814POPC   C4A63294  39.112  35.557   7.315
 4814POPC   C1B63295  39.510  35.177   6.334
 4814POPC   C2B63296  39.284  35.102   6.706
 4814POPC   C3B63297  39.237  35.114   7.135
 4814POPC   C4B63298  39.394  35.136   7.533
 4815POPC   NC363299  20.949  11.075   5.493
 4815POPC   PO463300  20.439  11.600   5.291
 4815POPC   GL163301  20.461  11.396   5.694
 4815POPC   GL263302  20.803  11.404   5.852
 4815POPC   C1A63303  20.379  11.200   6.092
 4815POPC   D2A63304  20.355  11.186   6.548
 4815POPC   C3A63305  20.597  11.495   6.792
 4815POPC   C4A63306  20.765  11.549   7.199
 4815POPC   C1B63307  20.887  11.270   6.287
 4815POPC   C2B63308  20.858  11.056   6.683
 4815POPC   C3B63309  20.791  10.985   7.128
 4815POPC   C4B63310  20.853  11.046   7.586
 4816POPC   NC363311   9.661  32.264   5.000
 4816POPC   PO463312   9.599  32.012   5.500
 4816POPC   GL163313   9.661  32.246   5.925
 4816POPC   GL263314   9.783  32.588   5.893
 4816POPC   C1A63315   9.578  32.405   6.383
 4816POPC   D2A63316   9.580  32.469   6.859
 4816POPC   C3A63317   9.791  32.169   7.163
 4816POPC   C4A63318   9.681  31.747   7.308
 4816POPC   C1B63319  10.069  32.436   6.260
 4816POPC   C2B63320  10.087  32.390   6.742
 4816POPC   C3B63321  10.293  32.228   7.127
 4816POPC   C4B63322  10.200  31.850   7.368
 4817POPC   NC363323   3.143  13.440   5.418
 4817POPC   PO463324   3.720  13.606   5.230
 4817POPC   GL163325   3.608  13.658   5.706
 4817POPC   GL263326   3.285  13.667   5.848
 4817POPC   C1A63327   3.637  13.476   6.164
 4817POPC   D2A63328   3.474  13.457   6.627
 4817POPC   C3A63329   3.733  13.520   7.024
 4817POPC   C4A63330   3.955  13.888   7.186
 4817POPC   C1B63331   3.092  13.647   6.264
 4817POPC   C2B63332   2.983  13.653   6.709
 4817POPC   C3B63333   3.061  13.882   7.125
 4817POPC   C4B63334   3.457  13.799   7.398
 4818POPC   NC363335  30.902   5.039   5.404
 4818POPC   PO463336  30.320   5.338   5.595
 4818POPC   GL163337  30.613   5.049   5.847
 4818POPC   GL263338  30.961   4.910   5.900
 4818POPC   C1A63339  30.624   4.977   6.274
 4818POPC   D2A63340  30.680   5.254   6.594
 4818POPC   C3A63341  30.831   5.164   6.981
 4818POPC   C4A63342  30.639   5.159   7.378
 4818POPC   C1B63343  30.941   5.369   6.126
 4818POPC   C2B63344  30.955   5.671   6.522
 4818POPC   C3B63345  31.145   5.583   6.961
 4818POPC   C4B63346  31.077   5.416   7.374
 4819POPC   NC363347  14.400   3.845   5.476
 4819POPC   PO463348  14.062   3.303   5.632
 4819POPC   GL163349  14.433   3.466   5.890
 4819POPC   GL263350  14.329   3.796   5.965
 4819POPC   C1A63351  14.641   3.602   6.324
 4819POPC   D2A63352  14.543   3.886   6.696
 4819POPC   C3A63353  14.574   3.652   7.089
 4819POPC   C4A63354  14.525   3.200   7.147
 4819POPC   C1B63355  14.125   3.573   6.287
 4819POPC   C2B63356  14.231   3.461   6.684
 4819POPC   C3B63357  14.083   3.509   7.064
 4819POPC   C4B63358  14.257   3.471   7.472
 4820POPC   NC363359  34.899  10.569   5.492
 4820POPC   PO463360  34.256  10.363   5.518
 4820POPC   GL163361  34.507  10.468   5.868
 4820POPC   GL263362  34.781  10.223   5.861
 4820POPC   C1A63363  34.701  10.619   6.255
 4820POPC   D2A63364  34.983  10.760   6.614
 4820POPC   C3A63365  34.688  10.736   7.010
 4820POPC   C4A63366  34.475  10.961   7.360
 4820POPC   C1B63367  34.876  10.145   6.297
 4820POPC   C2B63368  34.779  10.312   6.712
 4820POPC   C3B63369  34.993  10.349   7.129
 4820POPC   C4B63370  34.824  10.162   7.531
 4821POPC   NC363371   5.141  42.332   5.368
 4821POPC   PO463372   5.529  42.749   5.494
 4821POPC   GL163373   5.254  42.522   5.846
 4821POPC   GL263374   5.075  42.176   5.858
 4821POPC   C1A63375   5.148  42.444   6.302
 4821POPC   D2A63376   5.305  42.362   6.724
 4821POPC   C3A63377   5.098  42.175   7.103
 4821POPC   C4A63378   5.035  42.400   7.487
 4821POPC   C1B63379   5.261  41.944   6.219
 4821POPC   C2B63380   5.451  41.880   6.660
 4821POPC   C3B63381   5.429  41.748   7.128
 4821POPC   C4B63382   5.366  42.020   7.534
 4822POPC   NC363383  35.298  41.068   5.428
 4822POPC   PO463384  35.454  40.425   5.398
 4822POPC   GL163385  35.244  40.561   5.753
 4822POPC   GL263386  35.376  40.880   5.898
 4822POPC   C1A63387  35.317  40.446   6.186
 4822POPC   D2A63388  35.360  40.652   6.508
 4822POPC   C3A63389  35.121  40.614   6.856
 4822POPC   C4A63390  35.334  40.621   7.250
 4822POPC   C1B63391  35.420  41.092   6.292
 4822POPC   C2B63392  35.423  41.072   6.769
 4822POPC   C3B63393  35.433  41.145   7.207
 4822POPC   C4B63394  35.327  40.982   7.615
 4823POPC   NC363395  19.361   2.233   5.348
 4823POPC   PO463396  18.749   1.907   5.311
 4823POPC   GL163397  19.012   1.877   5.660
 4823POPC   GL263398  19.009   2.210   5.740
 4823POPC   C1A63399  19.287   1.835   6.046
 4823POPC   D2A63400  19.139   1.913   6.485
 4823POPC   C3A63401  19.291   1.843   6.919
 4823POPC   C4A63402  19.143   1.996   7.320
 4823POPC   C1B63403  19.084   2.332   6.177
 4823POPC   C2B63404  18.955   2.380   6.619
 4823POPC   C3B63405  19.110   2.426   7.066
 4823POPC   C4B63406  19.451   2.418   7.412
 4824POPC   NC363407  33.764  33.524   5.312
 4824POPC   PO463408  33.680  34.186   5.435
 4824POPC   GL163409  33.883  33.808   5.722
 4824POPC   GL263410  33.653  33.494   5.824
 4824POPC   C1A63411  34.024  33.650   6.159
 4824POPC   D2A63412  33.972  33.410   6.565
 4824POPC   C3A63413  33.899  33.653   6.947
 4824POPC   C4A63414  33.971  33.773   7.396
 4824POPC   C1B63415  33.534  33.527   6.300
 4824POPC   C2B63416  33.483  33.435   6.763
 4824POPC   C3B63417  33.541  33.438   7.239
 4824POPC   C4B63418  33.507  33.714   7.616
 4825POPC   NC363419  44.121  14.961   5.324
 4825POPC   PO463420  43.524  15.218   5.234
 4825POPC   GL163421  43.677  14.955   5.656
 4825POPC   GL263422  44.044  14.888   5.828
 4825POPC   C1A63423  43.613  15.033   6.125
 4825POPC   D2A63424  43.752  15.182   6.556
 4825POPC   C3A63425  43.664  15.058   6.979
 4825POPC   C4A63426  43.487  15.412   7.234
 4825POPC   C1B63427  44.108  14.933   6.299
 4825POPC   C2B63428  44.149  14.934   6.804
 4825POPC   C3B63429  44.181  15.104   7.265
 4825POPC   C4B63430  44.104  14.989   7.739
 4826POPC   NC363431  36.683  38.231   5.466
 4826POPC   PO463432  37.014  38.755   5.246
 4826POPC   GL163433  36.990  38.574   5.689
 4826POPC   GL263434  36.662  38.648   5.822
 4826POPC   C1A63435  37.018  38.402   6.110
 4826POPC   D2A63436  36.833  38.682   6.372
 4826POPC   C3A63437  36.984  38.652   6.784
 4826POPC   C4A63438  36.941  38.591   7.212
 4826POPC   C1B63439  36.540  38.298   6.133
 4826POPC   C2B63440  36.794  38.216   6.542
 4826POPC   C3B63441  36.614  38.289   6.960
 4826POPC   C4B63442  36.674  38.164   7.355
 4827POPC   NC363443   5.769  11.801   5.404
 4827POPC   PO463444   5.854  12.450   5.232
 4827POPC   GL163445   5.900  12.221   5.640
 4827POPC   GL263446   6.183  11.981   5.667
 4827POPC   C1A63447   5.714  12.018   6.038
 4827POPC   D2A63448   5.831  12.217   6.442
 4827POPC   C3A63449   5.750  12.167   6.898
 4827POPC   C4A63450   5.740  12.478   7.246
 4827POPC   C1B63451   6.205  11.949   6.169
 4827POPC   C2B63452   6.069  11.833   6.646
 4827POPC   C3B63453   6.118  11.897   7.134
 4827POPC   C4B63454   6.230  11.740   7.613
 4828POPC   NC363455  22.392  18.360   5.404
 4828POPC   PO463456  21.798  17.987   5.466
 4828POPC   GL163457  22.037  18.194   5.785
 4828POPC   GL263458  22.266  17.900   5.719
 4828POPC   C1A63459  21.963  18.520   6.138
 4828POPC   D2A63460  21.965  18.531   6.624
 4828POPC   C3A63461  21.927  18.571   7.103
 4828POPC   C4A63462  22.206  18.599   7.483
 4828POPC   C1B63463  22.171  17.847   6.164
 4828POPC   C2B63464  22.387  17.835   6.569
 4828POPC   C3B63465  22.668  17.902   6.909
 4828POPC   C4B63466  22.490  18.049   7.265
 4829POPC   NC363467  39.921  23.183   5.508
 4829POPC   PO463468  40.250  22.712   5.257
 4829POPC   GL163469  40.221  22.858   5.733
 4829POPC   GL263470  40.405  23.167   5.785
 4829POPC   C1A63471  39.961  22.992   6.130
 4829POPC   D2A63472  39.979  23.193   6.537
 4829POPC   C3A63473  39.941  22.984   6.906
 4829POPC   C4A63474  39.884  23.041   7.317
 4829POPC   C1B63475  40.311  23.341   6.187
 4829POPC   C2B63476  40.339  23.586   6.563
 4829POPC   C3B63477  40.220  23.414   6.939
 4829POPC   C4B63478  40.325  23.401   7.323
 4830POPC   NC363479   8.548  25.850   5.410
 4830POPC   PO463480   9.248  26.030   5.509
 4830POPC   GL163481   9.019  26.051   5.877
 4830POPC   GL263482   8.687  25.977   5.874
 4830POPC   C1A63483   8.998  26.027   6.312
 4830POPC   D2A63484   9.337  26.046   6.590
 4830POPC   C3A63485   9.163  25.978   6.979
 4830POPC   C4A63486   9.070  26.200   7.347
 4830POPC   C1B63487   8.692  26.398   6.111
 4830POPC   C2B63488   8.767  26.605   6.509
 4830POPC   C3B63489   8.865  26.448   6.923
 4830POPC   C4B63490   8.676  26.484   7.333
 4831POPC   NC363491  18.253  28.329   5.305
 4831POPC   PO463492  18.215  28.841   5.613
 4831POPC   GL163493  18.172  28.416   5.832
 4831POPC   GL263494  18.456  28.185   5.767
 4831POPC   C1A63495  18.157  28.199   6.258
 4831POPC   D2A63496  18.309  28.014   6.671
 4831POPC   C3A63497  18.115  28.150   7.055
 4831POPC   C4A63498  18.162  28.527   7.294
 4831POPC   C1B63499  18.608  28.432   6.147
 4831POPC   C2B63500  18.570  28.478   6.615
 4831POPC   C3B63501  18.606  28.348   7.086
 4831POPC   C4B63502  18.671  28.397   7.572
 4832POPC   NC363503  34.596  31.140   5.124
 4832POPC   PO463504  34.349  31.702   5.359
 4832POPC   GL163505  34.636  31.475   5.658
 4832POPC   GL263506  34.713  31.702   5.923
 4832POPC   C1A63507  34.557  31.244   6.085
 4832POPC   D2A63508  34.267  31.265   6.474
 4832POPC   C3A63509  34.454  31.201   6.895
 4832POPC   C4A63510  34.427  30.932   7.267
 4832POPC   C1B63511  34.705  31.898   6.325
 4832POPC   C2B63512  34.429  31.737   6.633
 4832POPC   C3B63513  34.337  31.830   7.022
 4832POPC   C4B63514  34.424  31.511   7.324
 4833POPC   NC363515   6.761   7.784   5.425
 4833POPC   PO463516   6.499   8.347   5.326
 4833POPC   GL163517   6.721   8.219   5.702
 4833POPC   GL263518   6.899   8.393   5.826
 4833POPC   C1A63519   6.575   8.246   6.182
 4833POPC   D2A63520   6.668   8.083   6.572
 4833POPC   C3A63521   6.575   8.300   6.957
 4833POPC   C4A63522   6.214   8.263   7.160
 4833POPC   C1B63523   7.014   8.012   6.095
 4833POPC   C2B63524   7.171   7.943   6.536
 4833POPC   C3B63525   6.957   7.891   6.945
 4833POPC   C4B63526   6.843   7.791   7.365
 4834POPC   NC363527  29.195  32.100   5.513
 4834POPC   PO463528  29.132  32.752   5.484
 4834POPC   GL163529  29.047  32.525   5.825
 4834POPC   GL263530  28.770  32.316   5.759
 4834POPC   C1A63531  29.236  32.392   6.171
 4834POPC   D2A63532  29.206  32.123   6.533
 4834POPC   C3A63533  29.279  32.260   6.948
 4834POPC   C4A63534  29.008  32.399   7.236
 4834POPC   C1B63535  28.834  32.087   6.152
 4834POPC   C2B63536  28.720  31.945   6.563
 4834POPC   C3B63537  28.828  31.950   7.012
 4834POPC   C4B63538  28.712  32.021   7.485
 4835POPC   NC363539  14.095  15.234   5.264
 4835POPC   PO463540  14.699  15.132   5.526
 4835POPC   GL163541  14.572  15.149   5.881
 4835POPC   GL263542  14.237  15.016   5.779
 4835POPC   C1A63543  14.726  15.164   6.265
 4835POPC   D2A63544  14.708  14.873   6.587
 4835POPC   C3A63545  14.713  15.131   6.926
 4835POPC   C4A63546  14.652  15.408   7.268
 4835POPC   C1B63547  14.254  14.950   6.231
 4835POPC   C2B63548  14.060  15.095   6.604
 4835POPC   C3B63549  14.054  14.939   6.970
 4835POPC   C4B63550  14.373  14.951   7.254
 4836POPC   NC363551  38.207  12.193   5.501
 4836POPC   PO463552  38.902  12.121   5.488
 4836POPC   GL163553  38.623  12.183   5.818
 4836POPC   GL263554  38.606  12.540   5.716
 4836POPC   C1A63555  38.294  12.017   6.157
 4836POPC   D2A63556  38.297  11.788   6.542
 4836POPC   C3A63557  38.203  12.007   6.921
 4836POPC   C4A63558  38.193  11.866   7.339
 4836POPC   C1B63559  38.325  12.512   6.071
 4836POPC   C2B63560  38.321  12.498   6.524
 4836POPC   C3B63561  38.347  12.513   6.978
 4836POPC   C4B63562  38.398  12.309   7.384
 4837POPC   NC363563  41.387  21.402   5.634
 4837POPC   PO463564  41.554  22.149   5.403
 4837POPC   GL163565  41.518  22.310   5.805
 4837POPC   GL263566  41.232  22.184   5.905
 4837POPC   C1A63567  41.513  22.525   6.195
 4837POPC   D2A63568  41.390  22.613   6.641
 4837POPC   C3A63569  41.758  22.586   6.948
 4837POPC   C4A63570  41.878  22.534   7.431
 4837POPC   C1B63571  41.391  22.030   6.316
 4837POPC   C2B63572  41.361  21.944   6.802
 4837POPC   C3B63573  41.588  21.687   7.146
 4837POPC   C4B63574  41.679  21.619   7.606
 4838POPC   NC363575  11.981   8.449   5.276
 4838POPC   PO463576  12.388   7.934   5.497
 4838POPC   GL163577  12.161   8.194   5.815
 4838POPC   GL263578  11.838   8.362   5.760
 4838POPC   C1A63579  12.143   8.090   6.254
 4838POPC   D2A63580  12.340   7.900   6.609
 4838POPC   C3A63581  12.035   7.967   6.906
 4838POPC   C4A63582  12.156   8.201   7.222
 4838POPC   C1B63583  11.698   8.356   6.183
 4838POPC   C2B63584  11.818   8.515   6.591
 4838POPC   C3B63585  11.755   8.420   7.022
 4838POPC   C4B63586  11.665   8.045   7.292
 4839POPC   NC363587  12.864  23.316   5.374
 4839POPC   PO463588  13.081  22.668   5.471
 4839POPC   GL163589  12.837  23.028   5.789
 4839POPC   GL263590  12.544  23.318   5.748
 4839POPC   C1A63591  12.957  23.089   6.226
 4839POPC   D2A63592  12.998  23.068   6.676
 4839POPC   C3A63593  12.658  22.976   6.971
 4839POPC   C4A63594  12.734  22.585   7.152
 4839POPC   C1B63595  12.451  23.219   6.158
 4839POPC   C2B63596  12.555  23.291   6.572
 4839POPC   C3B63597  12.352  23.417   6.944
 4839POPC   C4B63598  12.496  23.310   7.327
 4840POPC   NC363599   5.481  26.624   5.460
 4840POPC   PO463600   4.950  26.215   5.467
 4840POPC   GL163601   5.085  26.632   5.811
 4840POPC   GL263602   5.317  26.976   5.804
 4840POPC   C1A63603   5.163  26.759   6.299
 4840POPC   D2A63604   4.996  26.754   6.765
 4840POPC   C3A63605   5.173  26.723   7.203
 4840POPC   C4A63606   5.127  26.509   7.644
 4840POPC   C1B63607   5.384  27.205   6.198
 4840POPC   C2B63608   5.275  27.191   6.649
 4840POPC   C3B63609   5.353  27.200   7.107
 4840POPC   C4B63610   5.111  27.216   7.501
 4841POPC   NC363611  44.713  37.470   5.359
 4841POPC   PO463612  44.651  38.104   5.450
 4841POPC   GL163613  44.784  37.791   5.777
 4841POPC   GL263614  44.461  37.620   5.792
 4841POPC   C1A63615  44.780  37.708   6.250
 4841POPC   D2A63616  44.532  37.849   6.630
 4841POPC   C3A63617  44.656  37.899   7.061
 4841POPC   C4A63618  44.800  37.641   7.395
 4841POPC   C1B63619  44.360  37.365   6.154
 4841POPC   C2B63620  44.514  37.323   6.564
 4841POPC   C3B63621  44.658  37.375   6.972
 4841POPC   C4B63622  44.372  37.361   7.335
 4842POPC   NC363623  43.593  28.875   5.559
 4842POPC   PO463624  43.580  29.448   5.536
 4842POPC   GL163625  43.672  29.233   5.942
 4842POPC   GL263626  43.628  28.873   6.066
 4842POPC   C1A63627  43.657  29.270   6.389
 4842POPC   D2A63628  43.479  29.480   6.667
 4842POPC   C3A63629  43.606  29.452   7.102
 4842POPC   C4A63630  43.603  29.109   7.399
 4842POPC   C1B63631  44.049  28.992   6.256
 4842POPC   C2B63632  44.110  29.229   6.653
 4842POPC   C3B63633  44.061  29.100   7.096
 4842POPC   C4B63634  44.361  28.790   7.293
 4843POPC   NC363635  26.771  24.648   5.396
 4843POPC   PO463636  26.679  23.959   5.380
 4843POPC   GL163637  26.732  24.282   5.769
 4843POPC   GL263638  27.077  24.435   5.759
 4843POPC   C1A63639  26.575  24.458   6.204
 4843POPC   D2A63640  26.298  24.312   6.553
 4843POPC   C3A63641  26.485  24.224   6.974
 4843POPC   C4A63642  26.823  24.458   7.147
 4843POPC   C1B63643  27.066  24.641   6.178
 4843POPC   C2B63644  27.080  24.796   6.642
 4843POPC   C3B63645  27.274  24.694   7.063
 4843POPC   C4B63646  27.192  24.572   7.497
 4844POPC   NC363647  23.537  10.160   5.540
 4844POPC   PO463648  23.796  10.836   5.421
 4844POPC   GL163649  23.615  10.672   5.798
 4844POPC   GL263650  23.690  10.398   5.991
 4844POPC   C1A63651  23.409  10.880   6.173
 4844POPC   D2A63652  23.256  10.821   6.598
 4844POPC   C3A63653  23.451  10.492   6.841
 4844POPC   C4A63654  23.625  10.385   7.269
 4844POPC   C1B63655  23.504  10.059   6.213
 4844POPC   C2B63656  23.395  10.021   6.619
 4844POPC   C3B63657  23.740  10.082   6.876
 4844POPC   C4B63658  23.937   9.994   7.219
 4845POPC   NC363659   5.529   7.287   5.660
 4845POPC   PO463660   5.141   7.715   5.287
 4845POPC   GL163661   4.986   7.519   5.747
 4845POPC   GL263662   4.690   7.271   5.775
 4845POPC   C1A63663   5.126   7.371   6.183
 4845POPC   D2A63664   5.283   7.564   6.576
 4845POPC   C3A63665   5.067   7.582   6.954
 4845POPC   C4A63666   5.254   7.279   7.215
 4845POPC   C1B63667   4.730   7.052   6.200
 4845POPC   C2B63668   4.868   7.176   6.636
 4845POPC   C3B63669   4.754   7.201   7.081
 4845POPC   C4B63670   4.873   6.987   7.451
 4846POPC   NC363671  16.479  40.796   5.484
 4846POPC   PO463672  16.928  40.283   5.534
 4846POPC   GL163673  16.687  40.516   5.859
 4846POPC   GL263674  16.784  40.856   5.904
 4846POPC   C1A63675  16.511  40.481   6.263
 4846POPC   D2A63676  16.603  40.408   6.708
 4846POPC   C3A63677  16.594  40.744   6.984
 4846POPC   C4A63678  16.931  40.669   7.220
 4846POPC   C1B63679  16.880  41.128   6.258
 4846POPC   C2B63680  16.817  41.317   6.665
 4846POPC   C3B63681  16.946  41.118   7.021
 4846POPC   C4B63682  16.683  41.069   7.403
 4847POPC   NC363683  25.923  39.512   5.444
 4847POPC   PO463684  26.329  38.931   5.374
 4847POPC   GL163685  26.057  39.078   5.726
 4847POPC   GL263686  26.241  39.382   5.838
 4847POPC   C1A63687  25.914  39.160   6.182
 4847POPC   D2A63688  26.065  39.292   6.620
 4847POPC   C3A63689  25.919  39.108   7.026
 4847POPC   C4A63690  25.841  39.300   7.449
 4847POPC   C1B63691  26.430  39.252   6.243
 4847POPC   C2B63692  26.564  39.364   6.686
 4847POPC   C3B63693  26.414  39.271   7.119
 4847POPC   C4B63694  26.405  39.483   7.554
 4848POPC   NC363695  28.348  35.266   5.566
 4848POPC   PO463696  28.836  35.040   5.900
 4848POPC   GL163697  28.394  35.043   6.082
 4848POPC   GL263698  28.055  35.195   5.971
 4848POPC   C1A63699  28.241  35.208   6.487
 4848POPC   D2A63700  27.957  35.493   6.753
 4848POPC   C3A63701  28.102  35.461   7.192
 4848POPC   C4A63702  28.417  35.343   7.519
 4848POPC   C1B63703  27.781  35.304   6.298
 4848POPC   C2B63704  27.802  34.996   6.649
 4848POPC   C3B63705  28.154  34.981   6.963
 4848POPC   C4B63706  28.103  34.961   7.425
 4849POPC   NC363707   6.281   3.462   5.495
 4849POPC   PO463708   5.559   3.475   5.500
 4849POPC   GL163709   5.832   3.527   5.801
 4849POPC   GL263710   6.052   3.246   5.909
 4849POPC   C1A63711   5.860   3.682   6.196
 4849POPC   D2A63712   6.077   3.539   6.549
 4849POPC   C3A63713   5.879   3.702   6.900
 4849POPC   C4A63714   5.598   3.822   7.210
 4849POPC   C1B63715   5.772   3.175   6.284
 4849POPC   C2B63716   5.766   3.180   6.754
 4849POPC   C3B63717   6.009   3.254   7.136
 4849POPC   C4B63718   6.285   3.222   7.504
 4850POPC   NC363719  21.418  39.665   5.346
 4850POPC   PO463720  21.122  40.255   5.476
 4850POPC   GL163721  21.340  40.053   5.844
 4850POPC   GL263722  21.631  39.845   5.790
 4850POPC   C1A63723  21.194  40.012   6.262
 4850POPC   D2A63724  21.018  40.321   6.521
 4850POPC   C3A63725  21.136  40.276   6.950
 4850POPC   C4A63726  21.321  39.971   7.247
 4850POPC   C1B63727  21.652  39.760   6.240
 4850POPC   C2B63728  21.527  39.833   6.683
 4850POPC   C3B63729  21.555  39.554   7.037
 4850POPC   C4B63730  21.839  39.450   7.336
 4851POPC   NC363731  44.548  33.063   5.164
 4851POPC   PO463732  44.573  33.612   5.468
 4851POPC   GL163733  44.748  33.274   5.741
 4851POPC   GL263734  44.597  32.957   5.690
 4851POPC   C1A63735  44.785  33.108   6.187
 4851POPC   D2A63736  44.589  33.173   6.624
 4851POPC   C3A63737  44.658  32.946   7.045
 4851POPC   C4A63738  44.591  32.897   7.502
 4851POPC   C1B63739  44.377  32.840   6.059
 4851POPC   C2B63740  44.306  32.740   6.474
 4851POPC   C3B63741  44.205  32.896   6.859
 4851POPC   C4B63742  44.163  32.731   7.249
 4852POPC   NC363743  34.102  30.297   5.338
 4852POPC   PO463744  34.654  30.750   5.361
 4852POPC   GL163745  34.529  30.674   5.790
 4852POPC   GL263746  34.188  30.499   5.818
 4852POPC   C1A63747  34.747  30.771   6.196
 4852POPC   D2A63748  34.952  30.932   6.568
 4852POPC   C3A63749  34.810  30.810   6.954
 4852POPC   C4A63750  34.738  30.528   7.273
 4852POPC   C1B63751  34.451  30.360   6.179
 4852POPC   C2B63752  34.577  30.504   6.606
 4852POPC   C3B63753  34.337  30.492   6.982
 4852POPC   C4B63754  34.229  30.432   7.413
 4853POPC   NC363755  16.028  34.676   5.420
 4853POPC   PO463756  15.896  34.140   5.525
 4853POPC   GL163757  16.250  34.232   5.798
 4853POPC   GL263758  16.281  34.627   5.873
 4853POPC   C1A63759  16.175  34.296   6.235
 4853POPC   D2A63760  16.093  34.695   6.477
 4853POPC   C3A63761  15.908  34.605   6.892
 4853POPC   C4A63762  15.679  34.676   7.273
 4853POPC   C1B63763  16.332  35.036   6.144
 4853POPC   C2B63764  16.252  35.185   6.567
 4853POPC   C3B63765  16.313  34.903   6.909
 4853POPC   C4B63766  16.228  34.981   7.310
 4854POPC   NC363767  16.127  12.178   5.225
 4854POPC   PO463768  15.463  12.304   5.222
 4854POPC   GL163769  15.801  12.211   5.640
 4854POPC   GL263770  16.150  12.070   5.763
 4854POPC   C1A63771  15.748  12.115   6.121
 4854POPC   D2A63772  15.676  11.839   6.496
 4854POPC   C3A63773  15.879  11.817   6.888
 4854POPC   C4A63774  15.671  12.088   7.143
 4854POPC   C1B63775  16.296  12.178   6.184
 4854POPC   C2B63776  16.247  12.007   6.582
 4854POPC   C3B63777  16.303  12.192   6.956
 4854POPC   C4B63778  16.105  12.226   7.351
 4855POPC   NC363779   3.386  33.097   5.566
 4855POPC   PO463780   4.124  33.017   5.703
 4855POPC   GL163781   3.783  33.222   5.878
 4855POPC   GL263782   3.640  32.910   5.967
 4855POPC   C1A63783   3.640  33.301   6.308
 4855POPC   D2A63784   3.517  33.064   6.693
 4855POPC   C3A63785   3.678  33.169   7.118
 4855POPC   C4A63786   3.610  33.079   7.562
 4855POPC   C1B63787   3.260  32.976   6.199
 4855POPC   C2B63788   3.025  33.111   6.527
 4855POPC   C3B63789   3.074  33.245   6.927
 4855POPC   C4B63790   3.206  33.274   7.315
 4856POPC   NC363791  15.378  27.702   5.422
 4856POPC   PO463792  14.888  27.318   5.183
 4856POPC   GL163793  14.968  27.480   5.672
 4856POPC   GL263794  15.306  27.483   5.880
 4856POPC   C1A63795  14.954  27.729   6.095
 4856POPC   D2A63796  15.190  27.705   6.475
 4856POPC   C3A63797  15.010  27.428   6.792
 4856POPC   C4A63798  14.906  27.489   7.218
 4856POPC   C1B63799  15.611  27.647   6.189
 4856POPC   C2B63800  15.892  27.824   6.496
 4856POPC   C3B63801  15.745  27.869   6.901
 4856POPC   C4B63802  15.324  27.747   7.060
 4857POPC   NC363803  19.447  18.130   5.546
 4857POPC   PO463804  18.878  18.464   5.555
 4857POPC   GL163805  19.143  18.415   5.868
 4857POPC   GL263806  19.035  18.089   5.883
 4857POPC   C1A63807  18.970  18.449   6.266
 4857POPC   D2A63808  18.880  18.724   6.580
 4857POPC   C3A63809  18.819  18.440   6.895
 4857POPC   C4A63810  18.966  18.406   7.301
 4857POPC   C1B63811  18.984  17.911   6.269
 4857POPC   C2B63812  19.057  18.075   6.635
 4857POPC   C3B63813  18.968  17.956   7.028
 4857POPC   C4B63814  19.003  17.876   7.443
 4858POPC   NC363815   9.074  12.924   5.288
 4858POPC   PO463816   9.546  12.682   5.295
 4858POPC   GL163817   9.305  12.706   5.730
 4858POPC   GL263818   9.067  12.977   5.803
 4858POPC   C1A63819   9.206  12.714   6.226
 4858POPC   D2A63820   8.963  12.749   6.661
 4858POPC   C3A63821   9.034  12.582   7.117
 4858POPC   C4A63822   9.019  12.371   7.566
 4858POPC   C1B63823   8.942  13.190   6.209
 4858POPC   C2B63824   8.920  13.265   6.682
 4858POPC   C3B63825   8.870  13.084   7.134
 4858POPC   C4B63826   8.771  13.180   7.600
 4859POPC   NC363827   1.913  16.894   5.469
 4859POPC   PO463828   1.799  16.210   5.225
 4859POPC   GL163829   1.940  16.413   5.691
 4859POPC   GL263830   2.272  16.362   5.830
 4859POPC   C1A63831   1.849  16.643   6.117
 4859POPC   D2A63832   1.682  16.854   6.539
 4859POPC   C3A63833   1.890  16.853   6.968
 4859POPC   C4A63834   2.276  16.694   7.119
 4859POPC   C1B63835   2.191  16.291   6.256
 4859POPC   C2B63836   1.992  16.452   6.649
 4859POPC   C3B63837   1.926  16.332   7.083
 4859POPC   C4B63838   2.206  16.259   7.452
 4860POPC   NC363839  23.598  25.972   5.344
 4860POPC   PO463840  23.151  25.984   5.902
 4860POPC   GL163841  23.571  25.816   5.959
 4860POPC   GL263842  23.826  26.027   5.800
 4860POPC   C1A63843  23.658  25.750   6.396
 4860POPC   D2A63844  23.579  26.043   6.725
 4860POPC   C3A63845  23.508  25.857   7.126
 4860POPC   C4A63846  23.520  25.782   7.583
 4860POPC   C1B63847  24.040  26.171   6.154
 4860POPC   C2B63848  24.048  26.369   6.554
 4860POPC   C3B63849  23.916  26.378   6.965
 4860POPC   C4B63850  23.800  26.185   7.390
 4861POPC   NC363851  18.937  39.091   5.555
 4861POPC   PO463852  19.329  39.589   5.512
 4861POPC   GL163853  19.096  39.517   5.883
 4861POPC   GL263854  18.727  39.595   5.915
 4861POPC   C1A63855  19.192  39.329   6.278
 4861POPC   D2A63856  18.943  39.338   6.629
 4861POPC   C3A63857  19.138  39.263   7.024
 4861POPC   C4A63858  18.966  39.230   7.444
 4861POPC   C1B63859  18.670  39.217   6.180
 4861POPC   C2B63860  18.462  39.148   6.580
 4861POPC   C3B63861  18.641  39.106   6.979
 4861POPC   C4B63862  18.644  38.857   7.343
 4862POPC   NC363863  17.089  33.875   5.442
 4862POPC   PO463864  17.451  33.314   5.302
 4862POPC   GL163865  17.418  33.586   5.680
 4862POPC   GL263866  17.648  33.474   5.880
 4862POPC   C1A63867  17.362  33.847   6.085
 4862POPC   D2A63868  17.402  33.717   6.528
 4862POPC   C3A63869  17.379  33.904   6.936
 4862POPC   C4A63870  17.496  34.006   7.349
 4862POPC   C1B63871  17.804  33.390   6.287
 4862POPC   C2B63872  17.924  33.239   6.700
 4862POPC   C3B63873  17.666  33.368   7.044
 4862POPC   C4B63874  17.728  33.576   7.398
 4863POPC   NC363875  26.104  36.092   5.408
 4863POPC   PO463876  25.600  35.671   5.607
 4863POPC   GL163877  25.929  35.907   5.839
 4863POPC   GL263878  25.865  36.291   5.830
 4863POPC   C1A63879  26.192  36.090   6.178
 4863POPC   D2A63880  25.995  36.287   6.529
 4863POPC   C3A63881  26.187  36.171   6.932
 4863POPC   C4A63882  26.094  36.310   7.357
 4863POPC   C1B63883  25.599  36.441   6.189
 4863POPC   C2B63884  25.499  36.447   6.637
 4863POPC   C3B63885  25.689  36.282   7.002
 4863POPC   C4B63886  25.588  36.408   7.419
 4864POPC   NC363887  21.712  39.024   5.426
 4864POPC   PO463888  22.404  38.979   5.473
 4864POPC   GL163889  22.172  39.290   5.784
 4864POPC   GL263890  22.246  39.683   5.689
 4864POPC   C1A63891  21.984  39.330   6.245
 4864POPC   D2A63892  21.833  39.243   6.705
 4864POPC   C3A63893  22.092  39.100   7.083
 4864POPC   C4A63894  22.311  39.096   7.507
 4864POPC   C1B63895  22.381  39.657   6.124
 4864POPC   C2B63896  22.368  39.528   6.566
 4864POPC   C3B63897  22.173  39.599   6.953
 4864POPC   C4B63898  22.327  39.563   7.355
 4865POPC   NC363899  42.939   2.185   5.369
 4865POPC   PO463900  43.103   1.532   5.404
 4865POPC   GL163901  43.129   1.858   5.728
 4865POPC   GL263902  42.778   1.939   5.782
 4865POPC   C1A63903  43.189   2.006   6.162
 4865POPC   D2A63904  43.379   2.140   6.620
 4865POPC   C3A63905  43.205   1.966   7.041
 4865POPC   C4A63906  42.940   1.586   7.191
 4865POPC   C1B63907  42.683   2.154   6.148
 4865POPC   C2B63908  42.926   2.313   6.471
 4865POPC   C3B63909  42.857   2.331   6.903
 4865POPC   C4B63910  42.971   2.387   7.325
 4866POPC   NC363911  44.107  30.796   5.548
 4866POPC   PO463912  43.505  31.133   5.549
 4866POPC   GL163913  43.651  30.796   5.836
 4866POPC   GL263914  43.987  30.863   6.024
 4866POPC   C1A63915  43.605  30.645   6.241
 4866POPC   D2A63916  43.863  30.738   6.540
 4866POPC   C3A63917  43.725  30.714   6.930
 4866POPC   C4A63918  43.892  30.466   7.236
 4866POPC   C1B63919  44.093  31.157   6.350
 4866POPC   C2B63920  44.104  31.106   6.824
 4866POPC   C3B63921  44.359  30.854   7.114
 4866POPC   C4B63922  44.373  30.789   7.575
 4867POPC   NC363923   8.924   4.502   5.488
 4867POPC   PO463924   8.734   3.882   5.312
 4867POPC   GL163925   8.767   4.065   5.721
 4867POPC   GL263926   9.127   4.144   5.806
 4867POPC   C1A63927   8.724   4.236   6.143
 4867POPC   D2A63928   8.885   4.078   6.515
 4867POPC   C3A63929   8.883   4.196   6.955
 4867POPC   C4A63930   8.695   4.350   7.308
 4867POPC   C1B63931   9.213   4.368   6.233
 4867POPC   C2B63932   9.060   4.563   6.651
 4867POPC   C3B63933   9.112   4.617   7.152
 4867POPC   C4B63934   9.071   4.441   7.636
 4868POPC   NC363935  38.138  29.415   5.306
 4868POPC   PO463936  38.778  29.302   5.490
 4868POPC   GL163937  38.610  29.226   5.841
 4868POPC   GL263938  38.415  28.945   5.889
 4868POPC   C1A63939  38.697  29.095   6.266
 4868POPC   D2A63940  38.460  28.859   6.542
 4868POPC   C3A63941  38.593  29.001   6.925
 4868POPC   C4A63942  38.514  29.121   7.348
 4868POPC   C1B63943  38.257  29.347   6.152
 4868POPC   C2B63944  38.038  29.444   6.504
 4868POPC   C3B63945  38.146  29.240   6.867
 4868POPC   C4B63946  38.028  29.029   7.245
 4869POPC   NC363947  13.824  39.333   5.519
 4869POPC   PO463948  13.161  39.181   5.504
 4869POPC   GL163949  13.431  39.016   5.859
 4869POPC   GL263950  13.808  38.925   5.835
 4869POPC   C1A63951  13.554  39.281   6.220
 4869POPC   D2A63952  13.340  39.662   6.441
 4869POPC   C3A63953  13.413  39.679   6.904
 4869POPC   C4A63954  13.711  39.423   7.209
 4869POPC   C1B63955  14.031  39.046   6.188
 4869POPC   C2B63956  13.874  39.106   6.615
 4869POPC   C3B63957  13.879  38.874   6.995
 4869POPC   C4B63958  13.949  38.987   7.440
 4870POPC   NC363959  25.718  41.372   5.521
 4870POPC   PO463960  26.396  41.578   5.414
 4870POPC   GL163961  26.109  41.596   5.791
 4870POPC   GL263962  26.079  41.234   5.876
 4870POPC   C1A63963  26.086  41.738   6.233
 4870POPC   D2A63964  26.223  41.896   6.660
 4870POPC   C3A63965  26.006  41.757   7.044
 4870POPC   C4A63966  26.278  41.687   7.416
 4870POPC   C1B63967  25.741  41.296   6.186
 4870POPC   C2B63968  25.641  41.428   6.609
 4870POPC   C3B63969  25.682  41.192   6.986
 4870POPC   C4B63970  25.984  41.289   7.284
 4871POPC   NC363971  16.537  25.611   5.330
 4871POPC   PO463972  16.909  26.186   5.400
 4871POPC   GL163973  16.750  26.078   5.798
 4871POPC   GL263974  16.776  25.733   5.812
 4871POPC   C1A63975  16.880  26.140   6.250
 4871POPC   D2A63976  16.894  26.274   6.691
 4871POPC   C3A63977  16.917  25.970   7.018
 4871POPC   C4A63978  16.830  26.287   7.303
 4871POPC   C1B63979  16.504  25.772   6.189
 4871POPC   C2B63980  16.549  25.888   6.630
 4871POPC   C3B63981  16.428  26.116   7.002
 4871POPC   C4B63982  16.420  25.968   7.422
 4872POPC   NC363983  42.966  10.958   5.346
 4872POPC   PO463984  43.029  10.368   5.390
 4872POPC   GL163985  43.028  10.567   5.806
 4872POPC   GL263986  42.983  10.927   5.844
 4872POPC   C1A63987  43.239  10.647   6.212
 4872POPC   D2A63988  43.250  10.410   6.582
 4872POPC   C3A63989  43.381  10.504   6.985
 4872POPC   C4A63990  43.099  10.334   7.328
 4872POPC   C1B63991  42.721  10.790   6.169
 4872POPC   C2B63992  42.683  10.501   6.482
 4872POPC   C3B63993  42.817  10.506   6.912
 4872POPC   C4B63994  43.047  10.836   7.167
 4873POPC   NC363995  41.385  41.618   4.986
 4873POPC   PO463996  41.744  41.606   5.527
 4873POPC   GL163997  41.457  41.639   5.844
 4873POPC   GL263998  41.459  41.320   5.955
 4873POPC   C1A63999  41.444  41.716   6.295
 4873POPC   D2A64000  41.280  41.638   6.707
 4873POPC   C3A64001  41.562  41.851   6.971
 4873POPC   C4A64002  41.967  41.941   7.071
 4873POPC   C1B64003  41.857  41.398   6.223
 4873POPC   C2B64004  41.969  41.577   6.664
 4873POPC   C3B64005  41.839  41.429   7.068
 4873POPC   C4B64006  41.402  41.383   7.147
 4874POPC   NC364007  19.171  14.065   5.440
 4874POPC   PO464008  18.794  13.567   5.431
 4874POPC   GL164009  19.139  13.612   5.726
 4874POPC   GL264010  18.942  13.846   5.858
 4874POPC   C1A64011  19.421  13.548   6.120
 4874POPC   D2A64012  19.607  13.277   6.491
 4874POPC   C3A64013  19.256  13.125   6.765
 4874POPC   C4A64014  19.150  13.279   7.174
 4874POPC   C1B64015  19.084  13.958   6.249
 4874POPC   C2B64016  19.169  13.654   6.573
 4874POPC   C3B64017  19.005  13.695   6.958
 4874POPC   C4B64018  19.239  13.789   7.301
 4875POPC   NC364019  39.797  29.553   5.666
 4875POPC   PO464020  40.127  28.994   5.457
 4875POPC   GL164021  40.126  29.182   5.866
 4875POPC   GL264022  40.220  29.512   5.946
 4875POPC   C1A64023  39.970  29.072   6.267
 4875POPC   D2A64024  39.673  29.031   6.603
 4875POPC   C3A64025  39.832  28.846   6.963
 4875POPC   C4A64026  40.222  28.868   7.064
 4875POPC   C1B64027  40.268  29.475   6.354
 4875POPC   C2B64028  40.104  29.360   6.764
 4875POPC   C3B64029  39.753  29.332   7.022
 4875POPC   C4B64030  39.840  29.158   7.444
 4876POPC   NC364031  11.796   5.116   5.443
 4876POPC   PO464032  12.391   4.909   5.443
 4876POPC   GL164033  12.155   4.812   5.816
 4876POPC   GL264034  11.792   4.724   5.766
 4876POPC   C1A64035  12.310   4.959   6.232
 4876POPC   D2A64036  12.518   5.086   6.642
 4876POPC   C3A64037  12.238   5.281   6.959
 4876POPC   C4A64038  11.802   5.331   7.099
 4876POPC   C1B64039  11.803   4.842   6.209
 4876POPC   C2B64040  11.957   4.999   6.610
 4876POPC   C3B64041  11.964   4.848   7.031
 4876POPC   C4B64042  11.805   4.941   7.449
 4877POPC   NC364043  40.458  22.282   5.267
 4877POPC   PO464044  39.844  22.047   5.487
 4877POPC   GL164045  40.120  22.076   5.861
 4877POPC   GL264046  40.269  22.354   5.736
 4877POPC   C1A64047  40.071  22.027   6.310
 4877POPC   D2A64048  39.843  22.219   6.641
 4877POPC   C3A64049  39.848  22.042   7.055
 4877POPC   C4A64050  40.035  22.034   7.472
 4877POPC   C1B64051  40.096  22.512   6.126
 4877POPC   C2B64052  40.146  22.674   6.546
 4877POPC   C3B64053  40.116  22.508   6.973
 4877POPC   C4B64054  39.674  22.525   7.035
 4878POPC   NC364055  24.351  31.959   5.504
 4878POPC   PO464056  24.803  32.508   5.450
 4878POPC   GL164057  24.547  32.408   5.795
 4878POPC   GL264058  24.163  32.413   5.800
 4878POPC   C1A64059  24.520  32.200   6.178
 4878POPC   D2A64060  24.349  32.325   6.569
 4878POPC   C3A64061  24.444  32.094   6.927
 4878POPC   C4A64062  24.600  32.403   7.178
 4878POPC   C1B64063  24.007  32.173   6.200
 4878POPC   C2B64064  23.927  32.089   6.665
 4878POPC   C3B64065  23.991  32.291   7.108
 4878POPC   C4B64066  24.250  32.097   7.428
 4879POPC   NC364067   1.302  23.418   5.422
 4879POPC   PO464068   0.867  23.862   5.438
 4879POPC   GL164069   1.083  23.734   5.833
 4879POPC   GL264070   0.946  23.408   5.858
 4879POPC   C1A64071   1.363  23.851   6.247
 4879POPC   D2A64072   1.369  23.956   6.728
 4879POPC   C3A64073   1.628  23.721   7.066
 4879POPC   C4A64074   1.732  23.545   7.477
 4879POPC   C1B64075   1.044  23.471   6.326
 4879POPC   C2B64076   1.360  23.438   6.698
 4879POPC   C3B64077   1.355  23.307   7.160
 4879POPC   C4B64078   1.361  23.227   7.622
 4880POPC   NC364079  43.657  29.889   5.504
 4880POPC   PO464080  43.839  30.440   5.482
 4880POPC   GL164081  43.961  30.353   5.915
 4880POPC   GL264082  43.943  29.981   5.925
 4880POPC   C1A64083  43.813  30.212   6.353
 4880POPC   D2A64084  43.564  29.956   6.621
 4880POPC   C3A64085  43.643  29.995   7.084
 4880POPC   C4A64086  43.766  30.077   7.535
 4880POPC   C1B64087  43.895  29.705   6.313
 4880POPC   C2B64088  43.953  29.687   6.792
 4880POPC   C3B64089  44.044  29.708   7.251
 4880POPC   C4B64090  44.178  29.781   7.695
 4881POPC   NC364091  32.203   3.066   5.412
 4881POPC   PO464092  32.000   2.461   5.571
 4881POPC   GL164093  32.208   2.770   5.837
 4881POPC   GL264094  31.971   3.038   5.874
 4881POPC   C1A64095  32.346   2.976   6.233
 4881POPC   D2A64096  32.271   3.169   6.650
 4881POPC   C3A64097  32.341   2.891   7.015
 4881POPC   C4A64098  32.126   2.576   7.271
 4881POPC   C1B64099  31.898   3.306   6.231
 4881POPC   C2B64100  31.900   3.537   6.629
 4881POPC   C3B64101  32.001   3.387   7.060
 4881POPC   C4B64102  31.873   3.047   7.377
 4882POPC   NC364103  37.402  27.798   5.349
 4882POPC   PO464104  37.905  27.368   5.348
 4882POPC   GL164105  37.773  27.666   5.729
 4882POPC   GL264106  37.464  27.593   5.863
 4882POPC   C1A64107  37.774  27.858   6.186
 4882POPC   D2A64108  37.836  27.666   6.617
 4882POPC   C3A64109  37.776  27.888   7.023
 4882POPC   C4A64110  37.884  27.922   7.474
 4882POPC   C1B64111  37.647  27.365   6.221
 4882POPC   C2B64112  37.693  27.163   6.649
 4882POPC   C3B64113  37.674  27.318   7.094
 4882POPC   C4B64114  37.543  27.538   7.475
 4883POPC   NC364115  42.373  30.984   5.498
 4883POPC   PO464116  42.354  30.251   5.431
 4883POPC   GL164117  42.488  30.504   5.802
 4883POPC   GL264118  42.694  30.835   5.849
 4883POPC   C1A64119  42.332  30.660   6.209
 4883POPC   D2A64120  42.109  30.690   6.600
 4883POPC   C3A64121  42.299  30.617   6.994
 4883POPC   C4A64122  42.255  30.893   7.344
 4883POPC   C1B64123  42.730  30.977   6.273
 4883POPC   C2B64124  42.652  30.841   6.683
 4883POPC   C3B64125  42.717  30.917   7.122
 4883POPC   C4B64126  42.690  31.055   7.553
 4884POPC   NC364127  44.158  42.594   5.510
 4884POPC   PO464128  44.306  42.077   5.167
 4884POPC   GL164129  44.504  42.249   5.624
 4884POPC   GL264130  44.858  42.318   5.739
 4884POPC   C1A64131  44.470  42.274   6.097
 4884POPC   D2A64132  44.450  42.018   6.479
 4884POPC   C3A64133  44.738  42.195   6.789
 4884POPC   C4A64134  44.857  42.211   7.209
 4884POPC   C1B64135  44.941  42.484   6.183
 4884POPC   C2B64136   0.101  42.506   6.625
 4884POPC   C3B64137   0.297  42.221   6.940
 4884POPC   C4B64138   0.288  42.002   7.371
 4885POPC   NC364139  42.797  22.987   5.419
 4885POPC   PO464140  43.336  22.714   5.367
 4885POPC   GL164141  43.151  22.806   5.768
 4885POPC   GL264142  43.220  23.149   5.677
 4885POPC   C1A64143  42.939  22.729   6.205
 4885POPC   D2A64144  42.713  22.865   6.605
 4885POPC   C3A64145  42.969  22.938   6.997
 4885POPC   C4A64146  43.161  23.007   7.425
 4885POPC   C1B64147  43.145  23.187   6.138
 4885POPC   C2B64148  42.999  23.312   6.575
 4885POPC   C3B64149  43.025  23.441   7.014
 4885POPC   C4B64150  43.398  23.431   7.262
 4886POPC   NC364151  27.634  38.719   5.454
 4886POPC   PO464152  27.566  39.434   5.285
 4886POPC   GL164153  27.697  39.479   5.712
 4886POPC   GL264154  27.409  39.577   5.908
 4886POPC   C1A64155  27.812  39.168   6.014
 4886POPC   D2A64156  27.741  38.885   6.362
 4886POPC   C3A64157  27.628  39.081   6.750
 4886POPC   C4A64158  27.732  39.043   7.191
 4886POPC   C1B64159  27.697  39.602   6.238
 4886POPC   C2B64160  27.626  39.597   6.679
 4886POPC   C3B64161  27.763  39.608   7.099
 4886POPC   C4B64162  28.128  39.804   7.261
 4887POPC   NC364163  36.719  35.895   5.527
 4887POPC   PO464164  37.233  36.297   5.475
 4887POPC   GL164165  36.992  36.239   5.838
 4887POPC   GL264166  37.078  35.888   5.896
 4887POPC   C1A64167  37.113  36.262   6.281
 4887POPC   D2A64168  37.028  35.994   6.647
 4887POPC   C3A64169  36.925  36.237   7.043
 4887POPC   C4A64170  36.854  36.144   7.513
 4887POPC   C1B64171  36.741  35.908   6.184
 4887POPC   C2B64172  36.633  35.622   6.499
 4887POPC   C3B64173  36.600  35.629   6.917
 4887POPC   C4B64174  36.910  35.761   7.160
 4888POPC   NC364175  16.172  11.179   5.190
 4888POPC   PO464176  15.965  11.776   5.391
 4888POPC   GL164177  15.981  11.506   5.733
 4888POPC   GL264178  15.732  11.690   5.875
 4888POPC   C1A64179  16.009  11.216   6.143
 4888POPC   D2A64180  16.212  11.003   6.561
 4888POPC   C3A64181  15.968  11.027   6.972
 4888POPC   C4A64182  15.870  11.404   7.221
 4888POPC   C1B64183  16.065  11.722   6.184
 4888POPC   C2B64184  16.184  11.507   6.535
 4888POPC   C3B64185  16.290  11.430   6.931
 4888POPC   C4B64186  16.273  11.754   7.227
 4889POPC   NC364187   3.638   7.583   5.340
 4889POPC   PO464188   2.941   7.747   5.149
 4889POPC   GL164189   3.189   7.580   5.597
 4889POPC   GL264190   3.245   7.220   5.789
 4889POPC   C1A64191   3.467   7.585   6.033
 4889POPC   D2A64192   3.405   7.374   6.458
 4889POPC   C3A64193   3.519   7.621   6.837
 4889POPC   C4A64194   3.536   7.454   7.258
 4889POPC   C1B64195   3.606   7.080   6.084
 4889POPC   C2B64196   3.838   7.066   6.483
 4889POPC   C3B64197   3.690   7.132   6.885
 4889POPC   C4B64198   3.861   7.000   7.262
 4890POPC   NC364199  14.329   9.652   5.397
 4890POPC   PO464200  14.826   9.712   5.859
 4890POPC   GL164201  14.382   9.833   5.907
 4890POPC   GL264202  14.153   9.596   5.876
 4890POPC   C1A64203  14.108   9.873   6.289
 4890POPC   D2A64204  14.344   9.957   6.658
 4890POPC   C3A64205  14.171   9.910   7.065
 4890POPC   C4A64206  14.513   9.795   7.338
 4890POPC   C1B64207  14.045   9.357   6.221
 4890POPC   C2B64208  14.125   9.477   6.629
 4890POPC   C3B64209  14.389   9.461   6.959
 4890POPC   C4B64210  14.263   9.264   7.329
 4891POPC   NC364211  15.231   9.897   5.753
 4891POPC   PO464212  14.809   9.527   5.335
 4891POPC   GL164213  15.163   9.396   5.684
 4891POPC   GL264214  15.488   9.481   5.895
 4891POPC   C1A64215  15.127   9.288   6.204
 4891POPC   D2A64216  14.903   9.536   6.579
 4891POPC   C3A64217  14.902   9.545   7.066
 4891POPC   C4A64218  14.958   9.622   7.535
 4891POPC   C1B64219  15.406   9.694   6.346
 4891POPC   C2B64220  15.501   9.811   6.798
 4891POPC   C3B64221  15.310   9.911   7.208
 4891POPC   C4B64222  15.382  10.197   7.578
 4892POPC   NC364223   5.660   1.823   5.502
 4892POPC   PO464224   6.102   1.443   5.225
 4892POPC   GL164225   5.949   1.450   5.661
 4892POPC   GL264226   6.155   1.292   5.842
 4892POPC   C1A64227   5.782   1.612   6.096
 4892POPC   D2A64228   5.549   1.440   6.450
 4892POPC   C3A64229   5.625   1.516   6.907
 4892POPC   C4A64230   5.545   1.251   7.311
 4892POPC   C1B64231   5.945   1.143   6.243
 4892POPC   C2B64232   5.838   1.090   6.699
 4892POPC   C3B64233   5.970   1.043   7.129
 4892POPC   C4B64234   6.203   0.994   7.530
 4893POPC   NC364235  27.453  12.330   5.417
 4893POPC   PO464236  27.942  12.153   5.696
 4893POPC   GL164237  27.495  12.147   5.913
 4893POPC   GL264238  27.168  12.342   5.902
 4893POPC   C1A64239  27.514  12.071   6.349
 4893POPC   D2A64240  27.419  11.880   6.734
 4893POPC   C3A64241  27.595  12.039   7.111
 4893POPC   C4A64242  27.886  12.362   7.245
 4893POPC   C1B64243  27.048  12.301   6.363
 4893POPC   C2B64244  27.312  12.394   6.739
 4893POPC   C3B64245  27.386  12.523   7.177
 4893POPC   C4B64246  27.603  12.642   7.573
 4894POPC   NC364247   3.168  35.555   5.368
 4894POPC   PO464248   3.757  35.241   5.250
 4894POPC   GL164249   3.791  35.386   5.692
 4894POPC   GL264250   3.460  35.507   5.764
 4894POPC   C1A64251   3.665  35.249   6.143
 4894POPC   D2A64252   3.656  35.436   6.549
 4894POPC   C3A64253   3.747  35.200   6.887
 4894POPC   C4A64254   3.716  35.324   7.284
 4894POPC   C1B64255   3.182  35.467   6.092
 4894POPC   C2B64256   3.142  35.443   6.506
 4894POPC   C3B64257   3.280  35.453   6.927
 4894POPC   C4B64258   3.077  35.757   7.168
 4895POPC   NC364259  41.141  14.011   5.438
 4895POPC   PO464260  41.777  14.182   5.422
 4895POPC   GL164261  41.507  14.394   5.720
 4895POPC   GL264262  41.295  14.152   5.902
 4895POPC   C1A64263  41.465  14.614   6.124
 4895POPC   D2A64264  41.743  14.604   6.456
 4895POPC   C3A64265  41.523  14.628   6.854
 4895POPC   C4A64266  41.355  14.317   7.134
 4895POPC   C1B64267  41.663  14.148   6.178
 4895POPC   C2B64268  41.602  14.134   6.623
 4895POPC   C3B64269  41.820  14.146   6.992
 4895POPC   C4B64270  41.995  14.227   7.381
 4896POPC   NC364271  40.479  30.160   5.481
 4896POPC   PO464272  40.845  29.676   5.593
 4896POPC   GL164273  40.590  29.851   5.892
 4896POPC   GL264274  40.790  30.110   5.913
 4896POPC   C1A64275  40.600  29.865   6.347
 4896POPC   D2A64276  40.620  29.555   6.704
 4896POPC   C3A64277  40.578  29.689   7.116
 4896POPC   C4A64278  40.946  29.825   7.303
 4896POPC   C1B64279  40.877  30.331   6.281
 4896POPC   C2B64280  40.917  30.242   6.713
 4896POPC   C3B64281  40.704  30.210   7.092
 4896POPC   C4B64282  40.620  30.155   7.558
 4897POPC   NC364283  13.797  20.991   5.400
 4897POPC   PO464284  13.531  20.381   5.398
 4897POPC   GL164285  13.607  20.634   5.758
 4897POPC   GL264286  13.263  20.777   5.713
 4897POPC   C1A64287  13.815  20.544   6.189
 4897POPC   D2A64288  13.945  20.263   6.548
 4897POPC   C3A64289  13.753  20.441   6.905
 4897POPC   C4A64290  13.787  20.760   7.180
 4897POPC   C1B64291  13.315  20.690   6.172
 4897POPC   C2B64292  13.396  20.775   6.617
 4897POPC   C3B64293  13.233  20.572   6.989
 4897POPC   C4B64294  13.216  20.642   7.417
 4898POPC   NC364295  29.231  20.109   5.404
 4898POPC   PO464296  29.001  19.541   5.262
 4898POPC   GL164297  28.916  19.680   5.680
 4898POPC   GL264298  29.246  19.754   5.789
 4898POPC   C1A64299  28.866  19.739   6.145
 4898POPC   D2A64300  29.052  19.798   6.569
 4898POPC   C3A64301  28.771  19.711   6.905
 4898POPC   C4A64302  28.739  19.870   7.308
 4898POPC   C1B64303  29.413  19.665   6.215
 4898POPC   C2B64304  29.629  19.457   6.560
 4898POPC   C3B64305  29.509  19.334   6.975
 4898POPC   C4B64306  29.221  19.635   7.148
 4899POPC   NC364307  28.930   1.110   5.413
 4899POPC   PO464308  29.533   1.478   5.364
 4899POPC   GL164309  29.287   1.336   5.727
 4899POPC   GL264310  29.229   0.978   5.813
 4899POPC   C1A64311  29.400   1.427   6.157
 4899POPC   D2A64312  29.440   1.217   6.557
 4899POPC   C3A64313  29.318   1.388   6.970
 4899POPC   C4A64314  29.134   1.374   7.431
 4899POPC   C1B64315  29.026   1.083   6.240
 4899POPC   C2B64316  28.994   1.042   6.728
 4899POPC   C3B64317  29.044   0.951   7.180
 4899POPC   C4B64318  28.923   0.920   7.658
 4900POPC   NC364319  16.830  37.002   5.351
 4900POPC   PO464320  16.439  36.511   5.542
 4900POPC   GL164321  16.533  36.906   5.774
 4900POPC   GL264322  16.691  37.261   5.757
 4900POPC   C1A64323  16.447  36.947   6.184
 4900POPC   D2A64324  16.483  36.648   6.475
 4900POPC   C3A64325  16.556  36.822   6.845
 4900POPC   C4A64326  16.923  36.678   7.034
 4900POPC   C1B64327  16.920  37.110   6.107
 4900POPC   C2B64328  16.793  37.156   6.535
 4900POPC   C3B64329  16.918  37.180   6.970
 4900POPC   C4B64330  17.039  37.176   7.400
 4901POPC   NC364331   9.472   7.698   5.312
 4901POPC   PO464332   9.460   7.041   5.247
 4901POPC   GL164333   9.532   7.289   5.653
 4901POPC   GL264334   9.778   7.585   5.729
 4901POPC   C1A64335   9.746   7.186   6.055
 4901POPC   D2A64336   9.925   7.466   6.375
 4901POPC   C3A64337   9.888   7.291   6.808
 4901POPC   C4A64338   9.957   7.467   7.208
 4901POPC   C1B64339   9.434   7.612   6.059
 4901POPC   C2B64340   9.280   7.691   6.487
 4901POPC   C3B64341   9.409   7.528   6.908
 4901POPC   C4B64342   9.538   7.767   7.256
 4902POPC   NC364343  23.368  29.937   5.354
 4902POPC   PO464344  24.076  29.709   5.364
 4902POPC   GL164345  23.812  29.829   5.719
 4902POPC   GL264346  23.509  29.679   5.776
 4902POPC   C1A64347  23.684  29.941   6.160
 4902POPC   D2A64348  23.548  30.068   6.579
 4902POPC   C3A64349  23.687  29.821   6.931
 4902POPC   C4A64350  23.828  29.939   7.353
 4902POPC   C1B64351  23.258  29.638   6.183
 4902POPC   C2B64352  23.206  29.692   6.648
 4902POPC   C3B64353  23.225  29.688   7.106
 4902POPC   C4B64354  23.354  29.640   7.547
 4903POPC   NC364355  36.136  28.890   5.073
 4903POPC   PO464356  35.903  28.475   5.538
 4903POPC   GL164357  36.253  28.346   5.841
 4903POPC   GL264358  36.484  28.022   5.814
 4903POPC   C1A64359  36.342  28.566   6.230
 4903POPC   D2A64360  36.099  28.742   6.597
 4903POPC   C3A64361  36.321  28.773   6.986
 4903POPC   C4A64362  36.233  28.534   7.346
 4903POPC   C1B64363  36.270  28.035   6.223
 4903POPC   C2B64364  36.173  28.239   6.584
 4903POPC   C3B64365  36.193  28.180   6.997
 4903POPC   C4B64366  36.413  28.054   7.387
 4904POPC   NC364367  28.230  32.535   5.304
 4904POPC   PO464368  28.017  31.896   5.409
 4904POPC   GL164369  28.273  32.152   5.726
 4904POPC   GL264370  28.291  32.535   5.836
 4904POPC   C1A64371  28.335  32.082   6.173
 4904POPC   D2A64372  28.306  32.283   6.565
 4904POPC   C3A64373  28.330  31.969   6.896
 4904POPC   C4A64374  28.191  32.070   7.299
 4904POPC   C1B64375  28.623  32.565   6.197
 4904POPC   C2B64376  28.797  32.462   6.632
 4904POPC   C3B64377  28.548  32.400   7.027
 4904POPC   C4B64378  28.566  32.526   7.466
 4905POPC   NC364379  18.150  26.705   5.494
 4905POPC   PO464380  17.974  27.222   5.187
 4905POPC   GL164381  18.145  27.175   5.687
 4905POPC   GL264382  18.515  27.025   5.739
 4905POPC   C1A64383  18.187  26.985   6.133
 4905POPC   D2A64384  18.453  26.882   6.486
 4905POPC   C3A64385  18.391  27.021   6.891
 4905POPC   C4A64386  18.137  26.805   7.163
 4905POPC   C1B64387  18.623  26.666   6.054
 4905POPC   C2B64388  18.560  26.391   6.421
 4905POPC   C3B64389  18.434  26.483   6.846
 4905POPC   C4B64390  18.623  26.640   7.223
 4906POPC   NC364391  18.060  35.915   5.431
 4906POPC   PO464392  18.644  36.094   5.671
 4906POPC   GL164393  18.247  36.169   5.870
 4906POPC   GL264394  17.899  36.295   5.762
 4906POPC   C1A64395  18.282  36.132   6.296
 4906POPC   D2A64396  18.510  35.937   6.610
 4906POPC   C3A64397  18.309  36.119   6.946
 4906POPC   C4A64398  18.319  35.963   7.339
 4906POPC   C1B64399  17.798  36.061   6.163
 4906POPC   C2B64400  17.888  36.043   6.630
 4906POPC   C3B64401  17.924  35.782   7.010
 4906POPC   C4B64402  17.902  35.645   7.437
 4907POPC   NC364403  11.777  19.407   5.488
 4907POPC   PO464404  11.127  19.092   5.430
 4907POPC   GL164405  11.360  19.116   5.848
 4907POPC   GL264406  11.505  19.450   5.905
 4907POPC   C1A64407  11.416  18.920   6.303
 4907POPC   D2A64408  11.252  18.961   6.746
 4907POPC   C3A64409  11.484  18.796   7.110
 4907POPC   C4A64410  11.426  18.816   7.621
 4907POPC   C1B64411  11.281  19.432   6.285
 4907POPC   C2B64412  11.036  19.444   6.671
 4907POPC   C3B64413  11.097  19.310   7.093
 4907POPC   C4B64414  11.178  19.267   7.544
 4908POPC   NC364415  40.727  36.938   5.258
 4908POPC   PO464416  41.258  37.338   5.398
 4908POPC   GL164417  40.961  37.122   5.738
 4908POPC   GL264418  40.678  36.830   5.765
 4908POPC   C1A64419  40.946  36.957   6.193
 4908POPC   D2A64420  40.750  37.106   6.593
 4908POPC   C3A64421  40.979  37.007   6.988
 4908POPC   C4A64422  40.849  37.064   7.426
 4908POPC   C1B64423  40.450  36.828   6.201
 4908POPC   C2B64424  40.499  36.640   6.646
 4908POPC   C3B64425  40.548  36.766   7.108
 4908POPC   C4B64426  40.618  36.658   7.591
 4909POPC   NC364427  29.937   5.660   5.365
 4909POPC   PO464428  29.842   6.322   5.672
 4909POPC   GL164429  29.818   5.907   5.804
 4909POPC   GL264430  30.068   5.871   6.019
 4909POPC   C1A64431  29.653   5.640   6.153
 4909POPC   D2A64432  29.577   5.746   6.589
 4909POPC   C3A64433  29.848   5.551   6.895
 4909POPC   C4A64434  30.191   5.705   7.104
 4909POPC   C1B64435  29.897   6.101   6.351
 4909POPC   C2B64436  29.994   6.074   6.782
 4909POPC   C3B64437  29.882   6.083   7.213
 4909POPC   C4B64438  29.743   6.210   7.626
 4910POPC   NC364439   8.182   6.970   5.315
 4910POPC   PO464440   8.045   6.378   5.550
 4910POPC   GL164441   8.030   6.688   5.873
 4910POPC   GL264442   8.394   6.756   5.809
 4910POPC   C1A64443   7.974   6.726   6.348
 4910POPC   D2A64444   8.107   6.494   6.718
 4910POPC   C3A64445   8.025   6.590   7.165
 4910POPC   C4A64446   7.873   6.674   7.587
 4910POPC   C1B64447   8.441   6.525   6.228
 4910POPC   C2B64448   8.622   6.431   6.634
 4910POPC   C3B64449   8.524   6.607   7.028
 4910POPC   C4B64450   8.732   6.822   7.338
 4911POPC   NC364451  11.158  36.296   5.397
 4911POPC   PO464452  10.936  35.671   5.444
 4911POPC   GL164453  11.094  35.919   5.785
 4911POPC   GL264454  11.401  36.102   5.830
 4911POPC   C1A64455  10.989  36.138   6.151
 4911POPC   D2A64456  11.020  35.946   6.549
 4911POPC   C3A64457  10.960  36.061   6.967
 4911POPC   C4A64458  11.261  36.304   7.228
 4911POPC   C1B64459  11.464  36.047   6.294
 4911POPC   C2B64460  11.424  36.214   6.733
 4911POPC   C3B64461  11.707  36.120   7.075
 4911POPC   C4B64462  11.879  35.764   7.282
 4912POPC   NC364463  34.705  26.164   5.381
 4912POPC   PO464464  35.403  26.009   5.343
 4912POPC   GL164465  35.574  25.981   5.727
 4912POPC   GL264466  35.671  25.639   5.672
 4912POPC   C1A64467  35.603  26.152   6.169
 4912POPC   D2A64468  35.668  26.388   6.574
 4912POPC   C3A64469  35.345  26.305   6.901
 4912POPC   C4A64470  35.001  26.258   7.229
 4912POPC   C1B64471  35.358  25.628   6.004
 4912POPC   C2B64472  35.323  25.575   6.457
 4912POPC   C3B64473  35.221  25.794   6.843
 4912POPC   C4B64474  35.294  25.819   7.275
 4913POPC   NC364475  15.414  43.536   5.002
 4913POPC   PO464476  15.347  43.091   5.466
 4913POPC   GL164477  15.374  42.892   5.823
 4913POPC   GL264478  15.056  42.680   5.857
 4913POPC   C1A64479  15.556  43.010   6.218
 4913POPC   D2A64480  15.301  42.964   6.564
 4913POPC   C3A64481  15.452  43.143   6.891
 4913POPC   C4A64482  15.224  43.344   7.190
 4913POPC   C1B64483  14.912  42.784   6.270
 4913POPC   C2B64484  14.771  43.092   6.577
 4913POPC   C3B64485  14.881  43.041   6.986
 4913POPC   C4B64486  14.969  42.711   7.296
 4914POPC   NC364487  39.059   0.708   5.444
 4914POPC   PO464488  39.280   0.074   5.497
 4914POPC   GL164489  39.223   0.130   5.898
 4914POPC   GL264490  39.314   0.495   5.880
 4914POPC   C1A64491  39.517   0.184   6.244
 4914POPC   D2A64492  39.707   0.347   6.602
 4914POPC   C3A64493  39.651   0.080   6.960
 4914POPC   C4A64494  39.296   0.044   7.242
 4914POPC   C1B64495  39.070   0.442   6.270
 4914POPC   C2B64496  38.910   0.559   6.647
 4914POPC   C3B64497  39.051   0.464   7.067
 4914POPC   C4B64498  39.155   0.456   7.509
 4915POPC   NC364499  19.126   4.806   5.355
 4915POPC   PO464500  18.732   5.298   5.430
 4915POPC   GL164501  18.914   5.163   5.794
 4915POPC   GL264502  18.840   4.834   5.769
 4915POPC   C1A64503  19.105   5.051   6.206
 4915POPC   D2A64504  19.164   4.840   6.608
 4915POPC   C3A64505  19.245   5.079   6.960
 4915POPC   C4A64506  19.346   5.381   7.248
 4915POPC   C1B64507  18.638   4.820   6.137
 4915POPC   C2B64508  18.684   4.994   6.536
 4915POPC   C3B64509  18.730   4.837   6.914
 4915POPC   C4B64510  18.834   5.069   7.261
 4916POPC   NC364511  44.065   4.901   5.433
 4916POPC   PO464512  43.764   5.491   5.452
 4916POPC   GL164513  43.876   5.244   5.813
 4916POPC   GL264514  44.225   5.254   5.892
 4916POPC   C1A64515  43.673   5.121   6.229
 4916POPC   D2A64516  43.668   5.175   6.700
 4916POPC   C3A64517  43.583   4.898   7.075
 4916POPC   C4A64518  43.745   4.967   7.524
 4916POPC   C1B64519  44.169   5.135   6.335
 4916POPC   C2B64520  44.236   5.003   6.769
 4916POPC   C3B64521  44.013   5.224   7.067
 4916POPC   C4B64522  44.020   5.457   7.397
 4917POPC   NC364523  35.755  32.263   5.182
 4917POPC   PO464524  36.205  31.856   5.561
 4917POPC   GL164525  36.072  32.250   5.714
 4917POPC   GL264526  36.388  32.420   5.663
 4917POPC   C1A64527  35.976  32.216   6.149
 4917POPC   D2A64528  36.071  31.906   6.479
 4917POPC   C3A64529  35.961  32.070   6.877
 4917POPC   C4A64530  36.048  32.026   7.327
 4917POPC   C1B64531  36.366  32.560   6.112
 4917POPC   C2B64532  36.277  32.385   6.548
 4917POPC   C3B64533  36.386  32.345   7.002
 4917POPC   C4B64534  36.237  32.498   7.399
 4918POPC   NC364535  37.053   2.415   5.495
 4918POPC   PO464536  36.515   2.887   5.518
 4918POPC   GL164537  36.669   2.587   5.825
 4918POPC   GL264538  37.001   2.737   5.887
 4918POPC   C1A64539  36.601   2.629   6.275
 4918POPC   D2A64540  36.527   2.859   6.681
 4918POPC   C3A64541  36.638   2.630   7.056
 4918POPC   C4A64542  36.531   2.587   7.487
 4918POPC   C1B64543  37.151   2.758   6.324
 4918POPC   C2B64544  37.035   2.813   6.755
 4918POPC   C3B64545  36.913   3.098   7.057
 4918POPC   C4B64546  36.935   2.921   7.422
 4919POPC   NC364547  39.929  11.751   5.645
 4919POPC   PO464548  39.823  12.207   5.108
 4919POPC   GL164549  39.910  12.260   5.659
 4919POPC   GL264550  40.245  12.125   5.853
 4919POPC   C1A64551  39.852  12.157   6.186
 4919POPC   D2A64552  39.985  12.153   6.638
 4919POPC   C3A64553  39.786  12.309   7.039
 4919POPC   C4A64554  39.691  12.018   7.369
 4919POPC   C1B64555  40.418  12.018   6.297
 4919POPC   C2B64556  40.435  11.936   6.761
 4919POPC   C3B64557  40.219  12.030   7.156
 4919POPC   C4B64558  40.276  11.969   7.602
 4920POPC   NC364559  31.040  15.820   5.334
 4920POPC   PO464560  30.654  16.332   5.204
 4920POPC   GL164561  30.722  16.173   5.684
 4920POPC   GL264562  31.000  15.958   5.848
 4920POPC   C1A64563  30.664  16.172   6.184
 4920POPC   D2A64564  30.724  16.270   6.665
 4920POPC   C3A64565  30.587  16.062   7.089
 4920POPC   C4A64566  30.379  16.025   7.523
 4920POPC   C1B64567  30.995  15.786   6.301
 4920POPC   C2B64568  30.857  15.781   6.743
 4920POPC   C3B64569  31.088  15.888   7.128
 4920POPC   C4B64570  31.210  15.740   7.560
 4921POPC   NC364571  19.051  10.167   5.542
 4921POPC   PO464572  18.734   9.591   5.228
 4921POPC   GL164573  18.882   9.709   5.705
 4921POPC   GL264574  19.267   9.717   5.756
 4921POPC   C1A64575  18.974   9.924   6.144
 4921POPC   D2A64576  18.957   9.824   6.593
 4921POPC   C3A64577  18.897  10.177   6.855
 4921POPC   C4A64578  18.740  10.111   7.257
 4921POPC   C1B64579  19.443   9.684   6.183
 4921POPC   C2B64580  19.291   9.419   6.521
 4921POPC   C3B64581  19.109   9.386   6.906
 4921POPC   C4B64582  19.173   9.792   7.080
 4922POPC   NC364583  11.315  16.524   4.977
 4922POPC   PO464584  11.623  16.848   5.300
 4922POPC   GL164585  11.647  16.800   5.794
 4922POPC   GL264586  11.979  16.858   5.957
 4922POPC   C1A64587  11.598  16.663   6.278
 4922POPC   D2A64588  11.667  16.711   6.759
 4922POPC   C3A64589  11.571  16.593   7.218
 4922POPC   C4A64590  11.516  16.514   7.689
 4922POPC   C1B64591  11.687  17.157   6.175
 4922POPC   C2B64592  11.411  17.107   6.546
 4922POPC   C3B64593  11.313  17.028   6.996
 4922POPC   C4B64594  10.969  17.152   7.293
 4923POPC   NC364595   2.924  18.239   5.274
 4923POPC   PO464596   2.961  18.894   5.562
 4923POPC   GL164597   2.996  18.455   5.839
 4923POPC   GL264598   3.029  18.100   5.750
 4923POPC   C1A64599   2.848  18.162   6.238
 4923POPC   D2A64600   2.709  17.980   6.682
 4923POPC   C3A64601   2.770  18.237   7.080
 4923POPC   C4A64602   2.465  18.415   7.444
 4923POPC   C1B64603   3.240  17.873   6.088
 4923POPC   C2B64604   3.178  17.850   6.532
 4923POPC   C3B64605   3.212  17.961   6.945
 4923POPC   C4B64606   3.204  18.056   7.366
 4924POPC   NC364607  31.053   7.037   5.419
 4924POPC   PO464608  30.639   6.481   5.459
 4924POPC   GL164609  30.755   6.601   5.817
 4924POPC   GL264610  30.677   6.909   5.810
 4924POPC   C1A64611  30.601   6.611   6.217
 4924POPC   D2A64612  30.788   6.490   6.565
 4924POPC   C3A64613  30.628   6.574   6.963
 4924POPC   C4A64614  30.802   6.559   7.365
 4924POPC   C1B64615  30.480   7.100   6.159
 4924POPC   C2B64616  30.545   6.978   6.598
 4924POPC   C3B64617  30.302   6.979   6.954
 4924POPC   C4B64618  30.331   6.903   7.395
 4925POPC   NC364619   1.592  12.963   5.426
 4925POPC   PO464620   0.921  12.936   5.341
 4925POPC   GL164621   1.182  12.903   5.768
 4925POPC   GL264622   1.417  12.617   5.795
 4925POPC   C1A64623   1.357  13.147   6.149
 4925POPC   D2A64624   1.589  13.087   6.515
 4925POPC   C3A64625   1.287  12.959   6.812
 4925POPC   C4A64626   1.251  13.042   7.240
 4925POPC   C1B64627   1.385  12.654   6.258
 4925POPC   C2B64628   1.459  12.459   6.653
 4925POPC   C3B64629   1.449  12.545   7.085
 4925POPC   C4B64630   1.016  12.583   7.117
 4926POPC   NC364631  20.701  22.530   5.335
 4926POPC   PO464632  20.160  22.909   5.273
 4926POPC   GL164633  20.466  22.994   5.622
 4926POPC   GL264634  20.525  22.679   5.800
 4926POPC   C1A64635  20.471  23.127   6.087
 4926POPC   D2A64636  20.277  22.845   6.398
 4926POPC   C3A64637  20.357  22.900   6.851
 4926POPC   C4A64638  20.524  22.964   7.277
 4926POPC   C1B64639  20.630  22.457   6.190
 4926POPC   C2B64640  20.621  22.494   6.620
 4926POPC   C3B64641  20.675  22.376   7.018
 4926POPC   C4B64642  20.912  22.487   7.344
 4927POPC   NC364643  24.988   3.161   5.202
 4927POPC   PO464644  25.147   3.649   5.405
 4927POPC   GL164645  25.305   3.757   5.870
 4927POPC   GL264646  25.615   3.972   5.887
 4927POPC   C1A64647  25.258   3.655   6.331
 4927POPC   D2A64648  25.369   3.812   6.750
 4927POPC   C3A64649  25.157   3.741   7.142
 4927POPC   C4A64650  25.095   3.421   7.481
 4927POPC   C1B64651  25.795   4.108   6.280
 4927POPC   C2B64652  25.752   4.130   6.724
 4927POPC   C3B64653  25.718   3.868   7.125
 4927POPC   C4B64654  25.511   3.729   7.528
 4928POPC   NC364655   0.706  35.424   5.420
 4928POPC   PO464656   0.085  35.323   5.551
 4928POPC   GL164657   0.280  35.094   5.852
 4928POPC   GL264658   0.631  35.123   5.810
 4928POPC   C1A64659   0.338  35.171   6.270
 4928POPC   D2A64660   0.280  35.430   6.599
 4928POPC   C3A64661   0.436  35.346   6.975
 4928POPC   C4A64662   0.212  35.231   7.335
 4928POPC   C1B64663   0.820  35.280   6.163
 4928POPC   C2B64664   0.769  35.183   6.580
 4928POPC   C3B64665   0.873  35.025   6.962
 4928POPC   C4B64666   0.720  35.119   7.332
 4929POPC   NC364667  33.569  20.797   5.581
 4929POPC   PO464668  32.948  20.587   5.266
 4929POPC   GL164669  33.125  20.555   5.685
 4929POPC   GL264670  33.111  20.905   5.806
 4929POPC   C1A64671  33.098  20.518   6.158
 4929POPC   D2A64672  33.211  20.427   6.615
 4929POPC   C3A64673  32.911  20.495   6.976
 4929POPC   C4A64674  32.819  20.925   7.110
 4929POPC   C1B64675  33.397  20.965   6.191
 4929POPC   C2B64676  33.515  20.856   6.611
 4929POPC   C3B64677  33.325  20.794   7.005
 4929POPC   C4B64678  33.246  20.987   7.410
 4930POPC   NC364679   9.174  38.154   5.318
 4930POPC   PO464680   8.779  38.686   5.331
 4930POPC   GL164681   8.875  38.409   5.695
 4930POPC   GL264682   8.624  38.198   5.812
 4930POPC   C1A64683   9.044  38.274   6.128
 4930POPC   D2A64684   9.152  38.480   6.557
 4930POPC   C3A64685   8.951  38.403   7.002
 4930POPC   C4A64686   9.150  38.319   7.434
 4930POPC   C1B64687   8.560  38.434   6.140
 4930POPC   C2B64688   8.666  38.335   6.530
 4930POPC   C3B64689   8.467  38.229   6.862
 4930POPC   C4B64690   8.492  38.272   7.294
 4931POPC   NC364691   0.035   9.590   5.296
 4931POPC   PO464692  44.472   9.890   5.198
 4931POPC   GL164693  44.724   9.822   5.664
 4931POPC   GL264694  44.832  10.142   5.862
 4931POPC   C1A64695  44.879   9.673   6.089
 4931POPC   D2A64696  44.664   9.587   6.500
 4931POPC   C3A64697  44.829   9.659   6.934
 4931POPC   C4A64698  44.624   9.394   7.259
 4931POPC   C1B64699  44.650  10.106   6.242
 4931POPC   C2B64700  44.717  10.074   6.621
 4931POPC   C3B64701  44.377   9.937   6.832
 4931POPC   C4B64702  44.523   9.960   7.217
 4932POPC   NC364703  16.549   0.660   5.125
 4932POPC   PO464704  17.088   0.285   5.154
 4932POPC   GL164705  16.821   0.601   5.543
 4932POPC   GL264706  17.024   0.813   5.750
 4932POPC   C1A64707  16.651   0.632   6.047
 4932POPC   D2A64708  16.328   0.580   6.443
 4932POPC   C3A64709  16.467   0.377   6.867
 4932POPC   C4A64710  16.775   0.276   7.194
 4932POPC   C1B64711  17.109   0.891   6.197
 4932POPC   C2B64712  17.054   0.704   6.601
 4932POPC   C3B64713  16.851   0.732   6.971
 4932POPC   C4B64714  16.971   0.706   7.364
 4933POPC   NC364715   7.155   1.129   5.289
 4933POPC   PO464716   7.536   1.568   5.625
 4933POPC   GL164717   7.435   1.254   5.849
 4933POPC   GL264718   7.569   0.973   5.661
 4933POPC   C1A64719   7.421   1.294   6.287
 4933POPC   D2A64720   7.249   1.144   6.661
 4933POPC   C3A64721   7.519   1.365   6.898
 4933POPC   C4A64722   7.523   1.557   7.271
 4933POPC   C1B64723   7.713   0.906   6.107
 4933POPC   C2B64724   7.748   0.993   6.548
 4933POPC   C3B64725   7.585   0.834   6.940
 4933POPC   C4B64726   7.385   1.045   7.293
 4934POPC   NC364727  19.279   5.793   5.402
 4934POPC   PO464728  18.674   6.006   5.259
 4934POPC   GL164729  18.871   5.935   5.673
 4934POPC   GL264730  18.692   5.691   5.839
 4934POPC   C1A64731  18.899   6.053   6.142
 4934POPC   D2A64732  19.128   5.959   6.501
 4934POPC   C3A64733  19.079   6.199   6.870
 4934POPC   C4A64734  19.103   6.053   7.291
 4934POPC   C1B64735  19.070   5.568   6.109
 4934POPC   C2B64736  19.195   5.448   6.552
 4934POPC   C3B64737  19.054   5.653   6.935
 4934POPC   C4B64738  18.837   5.611   7.354
 4935POPC   NC364739  30.217  33.129   5.170
 4935POPC   PO464740  30.853  32.758   5.139
 4935POPC   GL164741  30.750  32.706   5.648
 4935POPC   GL264742  30.402  32.807   5.818
 4935POPC   C1A64743  30.802  32.763   6.151
 4935POPC   D2A64744  30.540  32.851   6.553
 4935POPC   C3A64745  30.719  33.080   6.878
 4935POPC   C4A64746  30.892  32.995   7.248
 4935POPC   C1B64747  30.255  33.084   6.199
 4935POPC   C2B64748  30.293  33.278   6.646
 4935POPC   C3B64749  30.394  33.419   7.082
 4935POPC   C4B64750  30.593  33.346   7.516
 4936POPC   NC364751  25.071  27.689   5.647
 4936POPC   PO464752  25.640  27.661   5.299
 4936POPC   GL164753  25.464  27.370   5.797
 4936POPC   GL264754  25.112  27.285   5.951
 4936POPC   C1A64755  25.442  27.248   6.301
 4936POPC   D2A64756  25.143  27.292   6.647
 4936POPC   C3A64757  25.349  27.529   6.970
 4936POPC   C4A64758  25.583  27.907   7.095
 4936POPC   C1B64759  25.112  27.654   6.269
 4936POPC   C2B64760  24.869  27.972   6.454
 4936POPC   C3B64761  24.898  27.791   6.835
 4936POPC   C4B64762  25.068  27.871   7.216
 4937POPC   NC364763  34.858  38.425   5.336
 4937POPC   PO464764  35.090  38.890   5.508
 4937POPC   GL164765  34.830  38.699   5.861
 4937POPC   GL264766  34.476  38.722   5.748
 4937POPC   C1A64767  34.814  38.667   6.354
 4937POPC   D2A64768  34.809  38.377   6.748
 4937POPC   C3A64769  34.870  38.529   7.181
 4937POPC   C4A64770  34.897  38.446   7.630
 4937POPC   C1B64771  34.345  38.560   6.170
 4937POPC   C2B64772  34.347  38.583   6.653
 4937POPC   C3B64773  34.390  38.368   7.086
 4937POPC   C4B64774  34.606  38.080   7.397
 4938POPC   NC364775  33.079  41.691   5.008
 4938POPC   PO464776  33.241  41.346   5.660
 4938POPC   GL164777  33.016  41.527   5.950
 4938POPC   GL264778  32.808  41.775   5.863
 4938POPC   C1A64779  33.144  41.622   6.352
 4938POPC   D2A64780  33.137  41.359   6.715
 4938POPC   C3A64781  33.081  41.520   7.135
 4938POPC   C4A64782  33.005  41.308   7.542
 4938POPC   C1B64783  32.671  41.812   6.273
 4938POPC   C2B64784  32.806  41.764   6.704
 4938POPC   C3B64785  32.637  41.796   7.080
 4938POPC   C4B64786  32.761  41.737   7.489
 4939POPC   NC364787   4.072  22.265   5.393
 4939POPC   PO464788   4.711  22.233   5.306
 4939POPC   GL164789   4.430  22.148   5.751
 4939POPC   GL264790   4.049  21.986   5.813
 4939POPC   C1A64791   4.371  22.051   6.215
 4939POPC   D2A64792   4.295  22.316   6.571
 4939POPC   C3A64793   4.261  22.269   7.004
 4939POPC   C4A64794   4.520  22.421   7.336
 4939POPC   C1B64795   3.949  21.769   6.192
 4939POPC   C2B64796   4.149  21.767   6.614
 4939POPC   C3B64797   3.942  21.869   6.991
 4939POPC   C4B64798   3.770  21.802   7.392
 4940POPC   NC364799  37.324  18.184   5.507
 4940POPC   PO464800  37.834  18.589   5.471
 4940POPC   GL164801  37.727  18.300   5.817
 4940POPC   GL264802  37.396  18.385   5.988
 4940POPC   C1A64803  37.708  18.032   6.197
 4940POPC   D2A64804  37.678  18.298   6.540
 4940POPC   C3A64805  37.584  18.210   6.951
 4940POPC   C4A64806  37.604  18.117   7.356
 4940POPC   C1B64807  37.394  18.677   6.363
 4940POPC   C2B64808  37.402  18.658   6.816
 4940POPC   C3B64809  37.201  18.511   7.202
 4940POPC   C4B64810  37.249  18.548   7.666
 4941POPC   NC364811   9.590  20.299   5.049
 4941POPC   PO464812  10.045  20.586   5.544
 4941POPC   GL164813   9.886  20.614   5.904
 4941POPC   GL264814   9.600  20.748   5.822
 4941POPC   C1A64815   9.790  20.415   6.279
 4941POPC   D2A64816   9.689  20.589   6.658
 4941POPC   C3A64817   9.981  20.435   6.930
 4941POPC   C4A64818   9.957  20.790   7.171
 4941POPC   C1B64819   9.558  20.870   6.243
 4941POPC   C2B64820   9.413  21.058   6.639
 4941POPC   C3B64821   9.474  21.030   7.090
 4941POPC   C4B64822   9.516  20.845   7.499
 4942POPC   NC364823  16.173  39.150   5.535
 4942POPC   PO464824  15.617  38.802   5.510
 4942POPC   GL164825  15.769  39.052   5.858
 4942POPC   GL264826  15.827  39.412   5.762
 4942POPC   C1A64827  15.980  39.076   6.261
 4942POPC   D2A64828  16.076  39.304   6.644
 4942POPC   C3A64829  15.920  39.096   7.039
 4942POPC   C4A64830  16.189  39.077   7.406
 4942POPC   C1B64831  15.792  39.534   6.177
 4942POPC   C2B64832  15.603  39.458   6.568
 4942POPC   C3B64833  15.660  39.545   6.994
 4942POPC   C4B64834  15.874  39.479   7.399
 4943POPC   NC364835  39.337  16.519   5.356
 4943POPC   PO464836  38.775  16.753   5.517
 4943POPC   GL164837  38.997  16.913   5.860
 4943POPC   GL264838  39.262  16.699   5.833
 4943POPC   C1A64839  38.948  16.860   6.271
 4943POPC   D2A64840  39.071  16.595   6.585
 4943POPC   C3A64841  39.123  16.664   7.044
 4943POPC   C4A64842  38.944  16.900   7.376
 4943POPC   C1B64843  39.465  16.722   6.232
 4943POPC   C2B64844  39.528  16.814   6.666
 4943POPC   C3B64845  39.632  16.604   7.039
 4943POPC   C4B64846  39.445  16.548   7.462
 4944POPC   NC364847  38.037  37.197   5.459
 4944POPC   PO464848  38.100  36.541   5.607
 4944POPC   GL164849  37.842  36.812   5.903
 4944POPC   GL264850  37.431  36.813   5.914
 4944POPC   C1A64851  37.722  36.749   6.324
 4944POPC   D2A64852  37.729  36.971   6.695
 4944POPC   C3A64853  37.755  36.721   7.058
 4944POPC   C4A64854  37.381  36.492   7.160
 4944POPC   C1B64855  37.424  37.148   6.275
 4944POPC   C2B64856  37.338  37.367   6.629
 4944POPC   C3B64857  37.384  37.257   7.017
 4944POPC   C4B64858  37.419  37.485   7.387
 4945POPC   NC364859  18.487   7.094   5.494
 4945POPC   PO464860  18.705   7.694   5.564
 4945POPC   GL164861  18.551   7.447   5.906
 4945POPC   GL264862  18.236   7.207   5.928
 4945POPC   C1A64863  18.354   7.548   6.288
 4945POPC   D2A64864  18.239   7.353   6.657
 4945POPC   C3A64865  18.259   7.321   7.093
 4945POPC   C4A64866  18.479   7.449   7.439
 4945POPC   C1B64867  18.283   6.946   6.320
 4945POPC   C2B64868  18.064   6.895   6.740
 4945POPC   C3B64869  18.139   6.810   7.166
 4945POPC   C4B64870  18.155   7.056   7.557
 4946POPC   NC364871  15.405  22.678   5.515
 4946POPC   PO464872  14.732  22.746   5.430
 4946POPC   GL164873  14.988  23.030   5.715
 4946POPC   GL264874  15.332  22.984   5.910
 4946POPC   C1A64875  14.924  23.118   6.169
 4946POPC   D2A64876  15.194  23.048   6.515
 4946POPC   C3A64877  14.983  22.897   6.875
 4946POPC   C4A64878  15.129  22.847   7.289
 4946POPC   C1B64879  15.376  22.638   6.232
 4946POPC   C2B64880  15.379  22.603   6.691
 4946POPC   C3B64881  15.497  22.947   6.965
 4946POPC   C4B64882  15.619  22.941   7.379
 4947POPC   NC364883  24.240  26.095   5.494
 4947POPC   PO464884  24.865  25.984   5.372
 4947POPC   GL164885  24.600  25.850   5.757
 4947POPC   GL264886  24.340  25.614   5.766
 4947POPC   C1A64887  24.496  25.912   6.201
 4947POPC   D2A64888  24.581  26.199   6.538
 4947POPC   C3A64889  24.442  26.100   6.944
 4947POPC   C4A64890  24.291  26.322   7.296
 4947POPC   C1B64891  24.087  25.618   6.153
 4947POPC   C2B64892  24.138  25.858   6.559
 4947POPC   C3B64893  23.992  25.868   6.960
 4947POPC   C4B64894  24.167  25.821   7.335
 4948POPC   NC364895  39.709  40.704   5.432
 4948POPC   PO464896  40.168  41.194   5.406
 4948POPC   GL164897  40.142  40.915   5.743
 4948POPC   GL264898  39.819  41.010   5.871
 4948POPC   C1A64899  40.209  40.873   6.191
 4948POPC   D2A64900  39.875  40.937   6.482
 4948POPC   C3A64901  40.055  40.952   6.895
 4948POPC   C4A64902  40.308  40.628   7.105
 4948POPC   C1B64903  39.837  40.573   6.052
 4948POPC   C2B64904  39.693  40.341   6.382
 4948POPC   C3B64905  39.624  40.569   6.758
 4948POPC   C4B64906  39.794  40.604   7.172
 4949POPC   NC364907  16.217  43.441   5.435
 4949POPC   PO464908  15.790  43.969   5.502
 4949POPC   GL164909  15.746  43.919   5.882
 4949POPC   GL264910  15.960  43.607   5.862
 4949POPC   C1A64911  16.082  44.024   6.149
 4949POPC   D2A64912  16.054  44.107   6.570
 4949POPC   C3A64913  16.136  43.748   6.808
 4949POPC   C4A64914  16.056  43.961   7.158
 4949POPC   C1B64915  15.818  43.593   6.280
 4949POPC   C2B64916  15.806  43.391   6.637
 4949POPC   C3B64917  15.693  43.594   7.029
 4949POPC   C4B64918  15.607  43.524   7.457
 4950POPC   NC364919  33.014  16.876   5.234
 4950POPC   PO464920  33.122  16.308   5.390
 4950POPC   GL164921  33.141  16.700   5.708
 4950POPC   GL264922  32.839  16.715   5.917
 4950POPC   C1A64923  33.190  17.053   6.058
 4950POPC   D2A64924  33.157  17.129   6.543
 4950POPC   C3A64925  33.233  16.988   7.027
 4950POPC   C4A64926  33.232  17.168   7.469
 4950POPC   C1B64927  33.140  16.589   6.254
 4950POPC   C2B64928  33.322  16.622   6.670
 4950POPC   C3B64929  33.303  16.474   7.124
 4950POPC   C4B64930  33.198  16.304   7.555
 4951POPC   NC364931  38.593  33.390   5.482
 4951POPC   PO464932  38.349  32.750   5.539
 4951POPC   GL164933  38.314  33.014   5.897
 4951POPC   GL264934  38.673  33.126   5.925
 4951POPC   C1A64935  38.116  32.916   6.311
 4951POPC   D2A64936  38.234  32.654   6.654
 4951POPC   C3A64937  38.456  32.873   6.962
 4951POPC   C4A64938  38.276  33.064   7.305
 4951POPC   C1B64939  38.575  33.113   6.363
 4951POPC   C2B64940  38.439  33.340   6.743
 4951POPC   C3B64941  38.628  33.392   7.185
 4951POPC   C4B64942  38.699  33.095   7.590
 4952POPC   NC364943   6.128   7.132   5.368
 4952POPC   PO464944   6.782   7.347   5.292
 4952POPC   GL164945   6.742   7.361   5.751
 4952POPC   GL264946   6.377   7.297   5.791
 4952POPC   C1A64947   6.968   7.491   6.142
 4952POPC   D2A64948   7.119   7.447   6.577
 4952POPC   C3A64949   6.718   7.420   6.787
 4952POPC   C4A64950   6.570   7.411   7.200
 4952POPC   C1B64951   6.427   7.595   6.126
 4952POPC   C2B64952   6.272   7.635   6.551
 4952POPC   C3B64953   6.394   7.817   6.935
 4952POPC   C4B64954   6.195   7.755   7.312
 4953POPC   NC364955   5.617  30.573   5.581
 4953POPC   PO464956   6.123  30.953   5.359
 4953POPC   GL164957   6.070  30.814   5.780
 4953POPC   GL264958   6.275  30.523   5.747
 4953POPC   C1A64959   5.964  30.948   6.226
 4953POPC   D2A64960   6.037  30.781   6.670
 4953POPC   C3A64961   5.699  30.590   6.930
 4953POPC   C4A64962   5.616  30.515   7.377
 4953POPC   C1B64963   6.337  30.554   6.210
 4953POPC   C2B64964   6.464  30.378   6.628
 4953POPC   C3B64965   6.256  30.465   7.033
 4953POPC   C4B64966   6.038  30.831   7.227
 4954POPC   NC364967   7.602  30.814   5.568
 4954POPC   PO464968   7.134  30.322   5.663
 4954POPC   GL164969   7.276  30.674   5.904
 4954POPC   GL264970   7.218  31.050   5.810
 4954POPC   C1A64971   7.546  30.583   6.234
 4954POPC   D2A64972   7.493  30.338   6.616
 4954POPC   C3A64973   7.432  30.590   6.986
 4954POPC   C4A64974   7.793  30.709   7.166
 4954POPC   C1B64975   7.366  31.085   6.215
 4954POPC   C2B64976   7.460  30.922   6.610
 4954POPC   C3B64977   7.488  31.121   7.008
 4954POPC   C4B64978   7.277  30.990   7.369
 4955POPC   NC364979   9.414  23.215   5.392
 4955POPC   PO464980  10.033  22.864   5.515
 4955POPC   GL164981   9.709  23.066   5.788
 4955POPC   GL264982   9.377  22.855   5.769
 4955POPC   C1A64983   9.779  23.197   6.219
 4955POPC   D2A64984   9.956  22.968   6.570
 4955POPC   C3A64985   9.753  22.999   6.964
 4955POPC   C4A64986   9.718  23.281   7.324
 4955POPC   C1B64987   9.602  22.722   6.178
 4955POPC   C2B64988   9.555  22.550   6.609
 4955POPC   C3B64989   9.392  22.639   7.010
 4955POPC   C4B64990   9.538  22.808   7.400
 4956POPC   NC364991  36.369  23.932   5.501
 4956POPC   PO464992  35.946  23.392   5.430
 4956POPC   GL164993  36.249  23.518   5.779
 4956POPC   GL264994  36.008  23.787   5.828
 4956POPC   C1A64995  36.417  23.665   6.245
 4956POPC   D2A64996  36.505  23.700   6.768
 4956POPC   C3A64997  36.158  23.582   7.106
 4956POPC   C4A64998  35.694  23.496   7.150
 4956POPC   C1B64999  35.977  23.952   6.221
 4956POPC   C2B65000  35.816  23.795   6.599
 4956POPC   C3B65001  35.979  23.995   6.912
 4956POPC   C4B65002  35.952  24.046   7.321
 4957POPC   NC365003  40.496  10.330   5.627
 4957POPC   PO465004  40.966  10.650   5.250
 4957POPC   GL165005  40.950  10.532   5.697
 4957POPC   GL265006  41.145  10.772   5.774
 4957POPC   C1A65007  40.743  10.680   6.154
 4957POPC   D2A65008  40.794  10.625   6.651
 4957POPC   C3A65009  40.482  10.485   7.014
 4957POPC   C4A65010  40.497  10.388   7.479
 4957POPC   C1B65011  41.241  10.530   6.136
 4957POPC   C2B65012  41.292  10.716   6.528
 4957POPC   C3B65013  41.236  10.726   6.943
 4957POPC   C4B65014  40.961  10.446   7.135
 4958POPC   NC365015  28.465  29.150   5.535
 4958POPC   PO465016  27.869  29.322   5.466
 4958POPC   GL165017  28.072  29.066   5.831
 4958POPC   GL265018  28.126  29.318   6.036
 4958POPC   C1A65019  28.485  28.999   6.166
 4958POPC   D2A65020  28.603  29.273   6.532
 4958POPC   C3A65021  28.594  29.214   7.003
 4958POPC   C4A65022  28.518  28.869   7.308
 4958POPC   C1B65023  28.011  28.942   6.330
 4958POPC   C2B65024  28.141  28.879   6.766
 4958POPC   C3B65025  28.084  29.107   7.150
 4958POPC   C4B65026  28.215  29.249   7.553
 4959POPC   NC365027  21.774  36.213   5.426
 4959POPC   PO465028  22.398  35.867   5.472
 4959POPC   GL165029  22.316  36.295   5.690
 4959POPC   GL265030  22.013  36.372   5.852
 4959POPC   C1A65031  22.432  36.493   6.131
 4959POPC   D2A65032  22.752  36.431   6.479
 4959POPC   C3A65033  22.569  36.419   6.925
 4959POPC   C4A65034  22.378  36.071   7.225
 4959POPC   C1B65035  22.248  36.022   6.116
 4959POPC   C2B65036  22.324  36.157   6.533
 4959POPC   C3B65037  22.059  36.238   6.863
 4959POPC   C4B65038  21.930  35.864   7.043
 4960POPC   NC365039  28.150  37.689   5.324
 4960POPC   PO465040  28.749  37.569   5.355
 4960POPC   GL165041  28.534  37.667   5.730
 4960POPC   GL265042  28.518  37.354   5.894
 4960POPC   C1A65043  28.532  37.826   6.175
 4960POPC   D2A65044  28.675  37.700   6.588
 4960POPC   C3A65045  28.515  37.797   7.012
 4960POPC   C4A65046  28.700  37.652   7.400
 4960POPC   C1B65047  28.232  37.421   6.270
 4960POPC   C2B65048  28.246  37.453   6.721
 4960POPC   C3B65049  28.453  37.283   7.070
 4960POPC   C4B65050  28.228  37.014   7.323
 4961POPC   NC365051  21.372  17.003   5.181
 4961POPC   PO465052  21.196  16.529   5.598
 4961POPC   GL165053  21.478  16.633   5.920
 4961POPC   GL265054  21.420  16.958   5.820
 4961POPC   C1A65055  21.571  16.584   6.335
 4961POPC   D2A65056  21.496  16.493   6.753
 4961POPC   C3A65057  21.556  16.763   7.089
 4961POPC   C4A65058  21.248  16.790   7.428
 4961POPC   C1B65059  21.174  16.918   6.192
 4961POPC   C2B65060  21.232  16.895   6.617
 4961POPC   C3B65061  21.179  17.108   7.011
 4961POPC   C4B65062  21.498  17.237   7.274
 4962POPC   NC365063  25.919  24.322   5.571
 4962POPC   PO465064  26.400  24.736   5.649
 4962POPC   GL165065  26.137  24.599   5.965
 4962POPC   GL265066  25.769  24.590   5.964
 4962POPC   C1A65067  26.094  24.742   6.359
 4962POPC   D2A65068  25.822  24.681   6.703
 4962POPC   C3A65069  26.132  24.615   7.014
 4962POPC   C4A65070  26.306  24.473   7.413
 4962POPC   C1B65071  25.812  24.328   6.331
 4962POPC   C2B65072  25.863  24.147   6.759
 4962POPC   C3B65073  25.871  24.225   7.224
 4962POPC   C4B65074  25.870  24.270   7.704
 4963POPC   NC365075   6.538  21.384   5.322
 4963POPC   PO465076   6.884  20.825   5.533
 4963POPC   GL165077   6.663  21.139   5.764
 4963POPC   GL265078   6.765  21.460   5.767
 4963POPC   C1A65079   6.478  21.315   6.162
 4963POPC   D2A65080   6.690  21.255   6.577
 4963POPC   C3A65081   6.461  21.379   6.935
 4963POPC   C4A65082   6.390  21.132   7.290
 4963POPC   C1B65083   6.981  21.329   6.159
 4963POPC   C2B65084   7.092  21.607   6.510
 4963POPC   C3B65085   7.073  21.444   6.932
 4963POPC   C4B65086   7.107  21.665   7.315
 4964POPC   NC365087  13.088  25.953   5.081
 4964POPC   PO465088  13.751  25.987   5.287
 4964POPC   GL165089  13.746  25.988   5.733
 4964POPC   GL265090  13.801  25.673   5.838
 4964POPC   C1A65091  13.681  26.206   6.121
 4964POPC   D2A65092  13.468  26.100   6.513
 4964POPC   C3A65093  13.652  26.216   6.879
 4964POPC   C4A65094  13.477  26.139   7.253
 4964POPC   C1B65095  13.715  25.718   6.265
 4964POPC   C2B65096  13.707  25.628   6.666
 4964POPC   C3B65097  13.818  25.763   7.069
 4964POPC   C4B65098  13.785  25.631   7.474
 4965POPC   NC365099  11.738  37.548   5.523
 4965POPC   PO465100  11.128  37.932   5.477
 4965POPC   GL165101  11.374  37.778   5.784
 4965POPC   GL265102  11.167  37.497   5.831
 4965POPC   C1A65103  11.579  37.629   6.180
 4965POPC   D2A65104  11.463  37.440   6.585
 4965POPC   C3A65105  11.565  37.663   6.996
 4965POPC   C4A65106  11.361  37.699   7.390
 4965POPC   C1B65107  11.050  37.567   6.264
 4965POPC   C2B65108  11.001  37.596   6.704
 4965POPC   C3B65109  11.158  37.356   7.036
 4965POPC   C4B65110  11.062  37.263   7.454
 4966POPC   NC365111   7.601  38.784   5.413
 4966POPC   PO465112   7.758  39.462   5.381
 4966POPC   GL165113   7.538  39.341   5.797
 4966POPC   GL265114   7.177  39.213   5.803
 4966POPC   C1A65115   7.471  39.213   6.230
 4966POPC   D2A65116   7.627  38.988   6.586
 4966POPC   C3A65117   7.637  39.300   6.899
 4966POPC   C4A65118   7.830  39.317   7.277
 4966POPC   C1B65119   7.153  38.831   6.070
 4966POPC   C2B65120   7.050  38.744   6.518
 4966POPC   C3B65121   7.201  38.972   6.893
 4966POPC   C4B65122   7.437  38.999   7.311
 4967POPC   NC365123  25.699  33.684   5.316
 4967POPC   PO465124  26.296  34.103   5.422
 4967POPC   GL165125  25.920  34.051   5.686
 4967POPC   GL265126  25.876  33.712   5.800
 4967POPC   C1A65127  25.874  34.132   6.153
 4967POPC   D2A65128  25.629  34.171   6.574
 4967POPC   C3A65129  25.838  34.003   6.974
 4967POPC   C4A65130  25.941  33.949   7.441
 4967POPC   C1B65131  25.800  33.454   6.147
 4967POPC   C2B65132  25.500  33.306   6.445
 4967POPC   C3B65133  25.560  33.483   6.838
 4967POPC   C4B65134  25.798  33.516   7.223
 4968POPC   NC365135  24.333  38.910   5.421
 4968POPC   PO465136  24.567  39.602   5.366
 4968POPC   GL165137  24.573  39.352   5.785
 4968POPC   GL265138  24.638  38.988   5.835
 4968POPC   C1A65139  24.717  39.293   6.244
 4968POPC   D2A65140  24.731  39.631   6.578
 4968POPC   C3A65141  24.651  39.510   7.012
 4968POPC   C4A65142  24.607  39.451   7.459
 4968POPC   C1B65143  24.490  38.812   6.265
 4968POPC   C2B65144  24.558  38.823   6.733
 4968POPC   C3B65145  24.553  39.023   7.149
 4968POPC   C4B65146  24.469  38.959   7.597
 4969POPC   NC365147  10.123   4.005   5.515
 4969POPC   PO465148  10.055   4.608   5.183
 4969POPC   GL165149   9.956   4.441   5.709
 4969POPC   GL265150   9.671   4.214   5.816
 4969POPC   C1A65151  10.081   4.177   6.140
 4969POPC   D2A65152  10.279   4.140   6.544
 4969POPC   C3A65153   9.925   4.163   6.839
 4969POPC   C4A65154   9.926   4.118   7.285
 4969POPC   C1B65155   9.713   4.527   6.176
 4969POPC   C2B65156   9.584   4.543   6.632
 4969POPC   C3B65157   9.407   4.242   6.931
 4969POPC   C4B65158   9.441   4.251   7.366
 4970POPC   NC365159  29.696   8.867   5.417
 4970POPC   PO465160  30.380   8.994   5.464
 4970POPC   GL165161  30.352   8.705   5.812
 4970POPC   GL265162  29.982   8.674   5.834
 4970POPC   C1A65163  30.302   8.631   6.261
 4970POPC   D2A65164  30.139   8.661   6.694
 4970POPC   C3A65165  30.206   9.055   6.959
 4970POPC   C4A65166  30.079   9.475   7.151
 4970POPC   C1B65167  29.592   8.663   6.109
 4970POPC   C2B65168  29.583   8.659   6.587
 4970POPC   C3B65169  29.715   8.867   6.994
 4970POPC   C4B65170  29.554   8.862   7.426
 4971POPC   NC365171   6.440   1.155   5.116
 4971POPC   PO465172   6.796   1.567   5.432
 4971POPC   GL165173   6.956   1.459   5.814
 4971POPC   GL265174   6.617   1.493   5.908
 4971POPC   C1A65175   6.918   1.341   6.265
 4971POPC   D2A65176   6.619   1.492   6.536
 4971POPC   C3A65177   6.757   1.296   6.846
 4971POPC   C4A65178   7.045   1.358   7.122
 4971POPC   C1B65179   6.456   1.149   6.207
 4971POPC   C2B65180   6.343   1.042   6.645
 4971POPC   C3B65181   6.469   0.980   7.093
 4971POPC   C4B65182   6.560   1.370   7.323
 4972POPC   NC365183   1.868  15.162   5.445
 4972POPC   PO465184   2.413  14.835   5.644
 4972POPC   GL165185   2.160  15.211   5.864
 4972POPC   GL265186   1.829  15.320   5.904
 4972POPC   C1A65187   2.091  15.263   6.320
 4972POPC   D2A65188   2.229  14.917   6.538
 4972POPC   C3A65189   2.145  15.134   6.865
 4972POPC   C4A65190   2.132  14.986   7.239
 4972POPC   C1B65191   1.846  14.875   6.117
 4972POPC   C2B65192   1.699  14.920   6.566
 4972POPC   C3B65193   1.678  15.011   7.000
 4972POPC   C4B65194   1.816  15.387   7.214
 4973POPC   NC365195   5.954  24.123   5.294
 4973POPC   PO465196   6.209  24.663   5.485
 4973POPC   GL165197   6.138  24.334   5.757
 4973POPC   GL265198   5.788  24.299   5.748
 4973POPC   C1A65199   6.075  24.371   6.188
 4973POPC   D2A65200   6.249  24.531   6.533
 4973POPC   C3A65201   6.075  24.472   6.921
 4973POPC   C4A65202   5.959  24.633   7.287
 4973POPC   C1B65203   5.714  24.679   5.979
 4973POPC   C2B65204   5.740  24.697   6.449
 4973POPC   C3B65205   5.580  24.615   6.854
 4973POPC   C4B65206   5.534  24.891   7.218
 4974POPC   NC365207  18.660   9.260   5.556
 4974POPC   PO465208  19.322   9.060   5.338
 4974POPC   GL165209  19.117   8.964   5.722
 4974POPC   GL265210  19.281   9.218   5.953
 4974POPC   C1A65211  19.070   8.737   6.127
 4974POPC   D2A65212  19.033   8.918   6.553
 4974POPC   C3A65213  19.057   8.821   7.004
 4974POPC   C4A65214  18.898   9.136   7.308
 4974POPC   C1B65215  19.517   9.024   6.320
 4974POPC   C2B65216  19.498   9.008   6.795
 4974POPC   C3B65217  19.398   9.120   7.258
 4974POPC   C4B65218  19.336   9.248   7.713
 4975POPC   NC365219  14.973   4.195   5.307
 4975POPC   PO465220  15.469   4.555   5.120
 4975POPC   GL165221  15.382   4.460   5.609
 4975POPC   GL265222  15.052   4.493   5.806
 4975POPC   C1A65223  15.490   4.453   6.084
 4975POPC   D2A65224  15.389   4.277   6.493
 4975POPC   C3A65225  15.432   4.472   6.860
 4975POPC   C4A65226  15.120   4.588   7.141
 4975POPC   C1B65227  15.105   4.104   6.086
 4975POPC   C2B65228  15.034   3.924   6.545
 4975POPC   C3B65229  14.991   4.093   6.984
 4975POPC   C4B65230  14.673   4.101   7.303
 4976POPC   NC365231  41.996  22.001   5.429
 4976POPC   PO465232  41.814  21.522   5.711
 4976POPC   GL165233  41.899  21.968   5.946
 4976POPC   GL265234  42.243  22.106   5.872
 4976POPC   C1A65235  41.949  22.272   6.331
 4976POPC   D2A65236  42.214  22.559   6.607
 4976POPC   C3A65237  42.244  22.453   7.070
 4976POPC   C4A65238  42.352  22.289   7.501
 4976POPC   C1B65239  42.405  22.038   6.288
 4976POPC   C2B65240  42.264  22.056   6.720
 4976POPC   C3B65241  42.381  21.926   7.135
 4976POPC   C4B65242  42.664  21.843   7.497
 4977POPC   NC365243  43.507  34.491   4.990
 4977POPC   PO465244  43.975  34.305   5.339
 4977POPC   GL165245  43.866  34.540   5.728
 4977POPC   GL265246  43.837  34.279   5.911
 4977POPC   C1A65247  44.004  34.725   6.143
 4977POPC   D2A65248  43.908  34.415   6.469
 4977POPC   C3A65249  43.828  34.517   6.894
 4977POPC   C4A65250  44.124  34.418   7.215
 4977POPC   C1B65251  43.712  33.993   6.227
 4977POPC   C2B65252  43.434  34.155   6.527
 4977POPC   C3B65253  43.386  34.242   6.967
 4977POPC   C4B65254  43.650  34.276   7.323
 4978POPC   NC365255   0.507  39.479   5.387
 4978POPC   PO465256   0.247  38.823   5.313
 4978POPC   GL165257   0.413  38.955   5.706
 4978POPC   GL265258   0.282  39.303   5.809
 4978POPC   C1A65259   0.602  39.051   6.122
 4978POPC   D2A65260   0.625  39.439   6.390
 4978POPC   C3A65261   0.678  39.399   6.840
 4978POPC   C4A65262   0.688  39.069   7.189
 4978POPC   C1B65263   0.157  39.338   6.237
 4978POPC   C2B65264   0.185  39.427   6.678
 4978POPC   C3B65265   0.216  39.289   7.113
 4978POPC   C4B65266   0.041  39.452   7.506
 4979POPC   NC365267   3.420  38.637   4.967
 4979POPC   PO465268   3.488  38.342   5.532
 4979POPC   GL165269   3.534  38.075   5.832
 4979POPC   GL265270   3.172  37.984   5.847
 4979POPC   C1A65271   3.769  38.205   6.208
 4979POPC   D2A65272   3.713  38.625   6.448
 4979POPC   C3A65273   3.699  38.629   6.883
 4979POPC   C4A65274   3.746  38.655   7.310
 4979POPC   C1B65275   3.255  38.207   6.252
 4979POPC   C2B65276   3.484  38.201   6.646
 4979POPC   C3B65277   3.379  38.261   7.069
 4979POPC   C4B65278   3.032  38.148   7.293
 4980POPC   NC365279  27.532  43.422   5.097
 4980POPC   PO465280  27.278  42.863   5.399
 4980POPC   GL165281  27.534  42.996   5.764
 4980POPC   GL265282  27.353  42.805   5.994
 4980POPC   C1A65283  27.765  43.041   6.167
 4980POPC   D2A65284  27.817  42.744   6.555
 4980POPC   C3A65285  27.747  42.899   6.998
 4980POPC   C4A65286  27.978  43.260   7.198
 4980POPC   C1B65287  27.363  42.932   6.439
 4980POPC   C2B65288  27.579  43.291   6.631
 4980POPC   C3B65289  27.473  43.360   7.049
 4980POPC   C4B65290  27.261  42.979   7.150
 4981POPC   NC365291  10.215   0.279   5.611
 4981POPC   PO465292  10.864   0.400   5.533
 4981POPC   GL165293  10.559   0.584   5.826
 4981POPC   GL265294  10.360   0.897   5.815
 4981POPC   C1A65295  10.360   0.520   6.245
 4981POPC   D2A65296  10.498   0.195   6.549
 4981POPC   C3A65297  10.807   0.328   6.878
 4981POPC   C4A65298  10.713   0.579   7.243
 4981POPC   C1B65299  10.705   0.917   6.168
 4981POPC   C2B65300  10.689   0.738   6.576
 4981POPC   C3B65301  10.372   0.635   6.846
 4981POPC   C4B65302  10.308   0.887   7.207
 4982POPC   NC365303  24.548  13.748   5.603
 4982POPC   PO465304  24.945  13.161   5.475
 4982POPC   GL165305  24.787  13.334   5.893
 4982POPC   GL265306  24.456  13.373   5.990
 4982POPC   C1A65307  24.774  13.519   6.355
 4982POPC   D2A65308  24.627  13.808   6.702
 4982POPC   C3A65309  24.649  13.765   7.171
 4982POPC   C4A65310  24.902  13.835   7.539
 4982POPC   C1B65311  24.308  13.722   6.227
 4982POPC   C2B65312  24.178  13.550   6.569
 4982POPC   C3B65313  24.220  13.594   6.952
 4982POPC   C4B65314  24.184  13.506   7.351
 4983POPC   NC365315  44.247  38.349   5.466
 4983POPC   PO465316  44.625  38.836   5.166
 4983POPC   GL165317  44.640  38.574   5.688
 4983POPC   GL265318  44.942  38.460   5.797
 4983POPC   C1A65319  44.597  38.580   6.160
 4983POPC   D2A65320  44.703  38.343   6.543
 4983POPC   C3A65321  44.441  38.453   6.890
 4983POPC   C4A65322  44.468  38.745   7.243
 4983POPC   C1B65323   0.078  38.147   6.105
 4983POPC   C2B65324   0.140  38.034   6.540
 4983POPC   C3B65325   0.076  38.259   6.919
 4983POPC   C4B65326  44.803  38.366   7.250
 4984POPC   NC365327  19.107   7.605   5.360
 4984POPC   PO465328  18.936   6.961   5.399
 4984POPC   GL165329  19.035   7.263   5.756
 4984POPC   GL265330  19.074   7.629   5.895
 4984POPC   C1A65331  19.229   7.234   6.184
 4984POPC   D2A65332  19.154   7.470   6.563
 4984POPC   C3A65333  19.286   7.288   6.931
 4984POPC   C4A65334  19.401   7.273   7.325
 4984POPC   C1B65335  18.805   7.824   6.217
 4984POPC   C2B65336  18.677   7.713   6.636
 4984POPC   C3B65337  18.776   7.519   7.003
 4984POPC   C4B65338  19.122   7.739   7.135
 4985POPC   NC365339   4.062  10.802   5.614
 4985POPC   PO465340   4.526  10.456   5.251
 4985POPC   GL165341   4.373  10.335   5.699
 4985POPC   GL265342   4.522  10.616   5.785
 4985POPC   C1A65343   4.198  10.486   6.146
 4985POPC   D2A65344   4.022  10.584   6.557
 4985POPC   C3A65345   4.283  10.637   6.902
 4985POPC   C4A65346   4.333  10.399   7.289
 4985POPC   C1B65347   4.614  10.800   6.193
 4985POPC   C2B65348   4.707  10.628   6.572
 4985POPC   C3B65349   4.831  10.691   6.980
 4985POPC   C4B65350   4.542  10.860   7.272
 4986POPC   NC365351  43.196  27.505   5.301
 4986POPC   PO465352  42.612  27.422   5.464
 4986POPC   GL165353  42.938  27.684   5.745
 4986POPC   GL265354  42.854  28.056   5.860
 4986POPC   C1A65355  43.124  27.714   6.191
 4986POPC   D2A65356  43.223  27.798   6.660
 4986POPC   C3A65357  43.205  27.499   7.039
 4986POPC   C4A65358  43.022  27.236   7.367
 4986POPC   C1B65359  42.875  28.153   6.338
 4986POPC   C2B65360  42.807  28.064   6.788
 4986POPC   C3B65361  43.121  27.995   7.163
 4986POPC   C4B65362  43.047  28.148   7.626
 4987POPC   NC365363  14.692  16.695   5.374
 4987POPC   PO465364  14.070  16.913   5.426
 4987POPC   GL165365  14.250  16.798   5.829
 4987POPC   GL265366  14.317  16.434   5.784
 4987POPC   C1A65367  14.367  16.947   6.266
 4987POPC   D2A65368  14.241  17.051   6.704
 4987POPC   C3A65369  14.468  16.884   7.053
 4987POPC   C4A65370  14.543  17.035   7.512
 4987POPC   C1B65371  14.478  16.431   6.201
 4987POPC   C2B65372  14.366  16.529   6.611
 4987POPC   C3B65373  14.358  16.369   7.009
 4987POPC   C4B65374  14.150  16.593   7.326
 4988POPC   NC365375  41.069  15.801   5.331
 4988POPC   PO465376  40.392  15.770   5.366
 4988POPC   GL165377  40.516  15.723   5.823
 4988POPC   GL265378  40.898  15.750   5.817
 4988POPC   C1A65379  40.678  15.775   6.272
 4988POPC   D2A65380  40.861  15.728   6.638
 4988POPC   C3A65381  40.598  15.886   6.911
 4988POPC   C4A65382  40.607  16.257   7.171
 4988POPC   C1B65383  40.998  16.134   6.095
 4988POPC   C2B65384  40.865  16.239   6.540
 4988POPC   C3B65385  41.061  16.105   6.935
 4988POPC   C4B65386  41.052  15.890   7.286
 4989POPC   NC365387  17.564   2.456   5.324
 4989POPC   PO465388  17.324   3.091   5.433
 4989POPC   GL165389  17.598   2.909   5.790
 4989POPC   GL265390  17.750   2.574   5.794
 4989POPC   C1A65391  17.598   2.879   6.258
 4989POPC   D2A65392  17.385   2.580   6.558
 4989POPC   C3A65393  17.384   2.599   7.010
 4989POPC   C4A65394  17.331   2.967   7.297
 4989POPC   C1B65395  17.941   2.496   6.208
 4989POPC   C2B65396  17.906   2.678   6.625
 4989POPC   C3B65397  17.789   2.907   7.012
 4989POPC   C4B65398  17.753   2.693   7.425
 4990POPC   NC365399  20.065  17.465   5.300
 4990POPC   PO465400  19.548  17.035   5.383
 4990POPC   GL165401  19.643  17.286   5.799
 4990POPC   GL265402  19.914  17.528   5.809
 4990POPC   C1A65403  19.840  17.288   6.238
 4990POPC   D2A65404  19.832  17.534   6.635
 4990POPC   C3A65405  19.787  17.261   6.986
 4990POPC   C4A65406  19.861  17.007   7.353
 4990POPC   C1B65407  20.006  17.780   6.204
 4990POPC   C2B65408  20.317  17.748   6.567
 4990POPC   C3B65409  20.241  17.564   6.964
 4990POPC   C4B65410  19.896  17.747   7.151
 4991POPC   NC365411  12.315  38.354   5.454
 4991POPC   PO465412  11.741  38.706   5.322
 4991POPC   GL165413  11.988  38.687   5.699
 4991POPC   GL265414  11.915  38.365   5.830
 4991POPC   C1A65415  12.173  38.744   6.112
 4991POPC   D2A65416  12.379  38.773   6.529
 4991POPC   C3A65417  12.231  38.451   6.740
 4991POPC   C4A65418  12.228  38.409   7.133
 4991POPC   C1B65419  11.782  38.116   6.184
 4991POPC   C2B65420  11.746  38.292   6.619
 4991POPC   C3B65421  11.732  38.409   7.054
 4991POPC   C4B65422  11.729  38.076   7.371
 4992POPC   NC365423  23.280  16.671   5.346
 4992POPC   PO465424  23.881  16.769   5.535
 4992POPC   GL165425  23.512  16.718   5.841
 4992POPC   GL265426  23.295  17.022   5.765
 4992POPC   C1A65427  23.593  16.592   6.319
 4992POPC   D2A65428  23.987  16.631   6.632
 4992POPC   C3A65429  23.943  16.592   7.099
 4992POPC   C4A65430  23.607  16.621   7.415
 4992POPC   C1B65431  23.424  17.058   6.202
 4992POPC   C2B65432  23.681  17.042   6.582
 4992POPC   C3B65433  23.540  16.924   6.985
 4992POPC   C4B65434  23.351  17.096   7.347
 4993POPC   NC365435  28.297  43.903   5.434
 4993POPC   PO465436  28.594  43.355   5.356
 4993POPC   GL165437  28.444  43.561   5.774
 4993POPC   GL265438  28.083  43.658   5.831
 4993POPC   C1A65439  28.441  43.860   6.147
 4993POPC   D2A65440  28.584  43.995   6.556
 4993POPC   C3A65441  28.406  43.721   6.810
 4993POPC   C4A65442  28.290  43.666   7.219
 4993POPC   C1B65443  27.976  44.064   6.034
 4993POPC   C2B65444  28.150  44.227   6.412
 4993POPC   C3B65445  28.132  44.137   6.855
 4993POPC   C4B65446  28.204  44.249   7.274
 4994POPC   NC365447  38.465  35.908   5.264
 4994POPC   PO465448  38.920  36.447   5.558
 4994POPC   GL165449  38.704  36.141   5.818
 4994POPC   GL265450  38.370  35.974   5.750
 4994POPC   C1A65451  38.433  36.221   6.185
 4994POPC   D2A65452  38.224  36.035   6.522
 4994POPC   C3A65453  38.476  36.037   6.866
 4994POPC   C4A65454  38.308  36.129   7.249
 4994POPC   C1B65455  38.483  35.717   6.116
 4994POPC   C2B65456  38.651  35.679   6.508
 4994POPC   C3B65457  38.546  35.515   6.897
 4994POPC   C4B65458  38.643  35.746   7.275
 4995POPC   NC365459  26.263  42.012   5.519
 4995POPC   PO465460  25.601  41.827   5.468
 4995POPC   GL165461  25.826  42.103   5.781
 4995POPC   GL265462  26.193  42.190   5.972
 4995POPC   C1A65463  25.744  42.264   6.160
 4995POPC   D2A65464  26.071  42.351   6.483
 4995POPC   C3A65465  25.947  42.281   6.901
 4995POPC   C4A65466  25.822  42.172   7.293
 4995POPC   C1B65467  26.388  42.589   6.115
 4995POPC   C2B65468  26.500  42.665   6.544
 4995POPC   C3B65469  26.353  42.576   6.939
 4995POPC   C4B65470  26.143  42.556   7.329
 4996POPC   NC365471   3.881  18.343   5.465
 4996POPC   PO465472   4.475  18.206   5.361
 4996POPC   GL165473   4.244  18.294   5.810
 4996POPC   GL265474   4.201  18.673   5.914
 4996POPC   C1A65475   4.271  18.124   6.250
 4996POPC   D2A65476   4.129  18.086   6.692
 4996POPC   C3A65477   4.403  18.228   7.035
 4996POPC   C4A65478   4.615  18.102   7.429
 4996POPC   C1B65479   4.023  18.554   6.343
 4996POPC   C2B65480   4.080  18.594   6.803
 4996POPC   C3B65481   4.117  18.701   7.226
 4996POPC   C4B65482   4.027  18.528   7.646
 4997POPC   NC365483   4.805  21.797   5.449
 4997POPC   PO465484   5.095  21.154   5.432
 4997POPC   GL165485   5.196  21.342   5.848
 4997POPC   GL265486   5.056  21.669   5.876
 4997POPC   C1A65487   5.225  21.451   6.312
 4997POPC   D2A65488   4.977  21.254   6.661
 4997POPC   C3A65489   5.123  21.059   7.043
 4997POPC   C4A65490   5.034  21.131   7.491
 4997POPC   C1B65491   4.749  21.692   6.232
 4997POPC   C2B65492   4.664  21.658   6.700
 4997POPC   C3B65493   4.875  21.519   7.131
 4997POPC   C4B65494   5.089  21.670   7.530
 4998POPC   NC365495  20.457   4.540   5.476
 4998POPC   PO465496  20.401   5.228   5.217
 4998POPC   GL165497  20.520   5.092   5.675
 4998POPC   GL265498  20.320   4.832   5.865
 4998POPC   C1A65499  20.794   5.073   6.092
 4998POPC   D2A65500  20.775   4.921   6.551
 4998POPC   C3A65501  20.699   5.119   6.953
 4998POPC   C4A65502  20.923   5.391   7.260
 4998POPC   C1B65503  20.321   5.032   6.258
 4998POPC   C2B65504  20.119   5.149   6.644
 4998POPC   C3B65505  20.184   5.035   7.083
 4998POPC   C4B65506  20.496   4.914   7.436
 4999POPC   NC365507   1.780   1.978   5.507
 4999POPC   PO465508   2.309   2.372   5.503
 4999POPC   GL165509   2.125   2.026   5.885
 4999POPC   GL265510   1.808   2.178   5.980
 4999POPC   C1A65511   2.051   1.825   6.344
 4999POPC   D2A65512   2.215   1.941   6.780
 4999POPC   C3A65513   2.028   2.268   7.035
 4999POPC   C4A65514   2.182   2.469   7.429
 4999POPC   C1B65515   1.577   2.052   6.343
 4999POPC   C2B65516   1.709   1.933   6.729
 4999POPC   C3B65517   1.795   1.802   7.112
 4999POPC   C4B65518   1.492   1.716   7.440
 5000POPC   NC365519  27.374  33.816   5.281
 5000POPC   PO465520  27.950  33.903   5.597
 5000POPC   GL165521  27.631  33.682   5.756
 5000POPC   GL265522  27.361  33.912   5.769
 5000POPC   C1A65523  27.502  33.564   6.172
 5000POPC   D2A65524  27.373  33.519   6.598
 5000POPC   C3A65525  27.713  33.554   6.908
 5000POPC   C4A65526  27.904  33.621   7.332
 5000POPC   C1B65527  27.315  34.025   6.167
 5000POPC   C2B65528  27.539  34.003   6.544
 5000POPC   C3B65529  27.352  33.914   6.934
 5000POPC   C4B65530  27.471  33.886   7.343
 5001POPC   NC365531   5.723  15.683   5.459
 5001POPC   PO465532   6.247  15.639   5.574
 5001POPC   GL165533   5.927  15.854   5.908
 5001POPC   GL265534   5.545  15.947   5.875
 5001POPC   C1A65535   5.801  16.004   6.352
 5001POPC   D2A65536   5.721  15.991   6.809
 5001POPC   C3A65537   5.974  15.956   7.158
 5001POPC   C4A65538   5.726  16.096   7.491
 5001POPC   C1B65539   5.540  15.602   6.155
 5001POPC   C2B65540   5.627  15.533   6.596
 5001POPC   C3B65541   5.546  15.569   7.050
 5001POPC   C4B65542   5.782  15.563   7.403
 5002POPC   NC365543  40.416  36.315   5.453
 5002POPC   PO465544  39.779  36.223   5.300
 5002POPC   GL165545  39.999  36.192   5.732
 5002POPC   GL265546  40.164  36.553   5.828
 5002POPC   C1A65547  39.878  36.011   6.146
 5002POPC   D2A65548  39.634  36.131   6.508
 5002POPC   C3A65549  39.817  35.967   6.896
 5002POPC   C4A65550  39.744  36.196   7.238
 5002POPC   C1B65551  40.270  36.340   6.201
 5002POPC   C2B65552  40.135  36.260   6.608
 5002POPC   C3B65553  40.114  36.465   6.986
 5002POPC   C4B65554  40.385  36.322   7.272
 5003POPC   NC365555  39.421  43.121   5.463
 5003POPC   PO465556  38.817  43.024   5.607
 5003POPC   GL165557  39.169  43.059   5.907
 5003POPC   GL265558  39.300  43.393   5.935
 5003POPC   C1A65559  39.445  42.876   6.245
 5003POPC   D2A65560  39.525  42.832   6.715
 5003POPC   C3A65561  39.133  42.810   7.002
 5003POPC   C4A65562  39.115  42.923   7.471
 5003POPC   C1B65563  39.144  43.328   6.367
 5003POPC   C2B65564  39.157  43.277   6.827
 5003POPC   C3B65565  39.482  43.158   7.158
 5003POPC   C4B65566  39.672  43.379   7.518
 5004POPC   NC365567  35.192  18.799   5.669
 5004POPC   PO465568  34.923  19.443   5.729
 5004POPC   GL165569  35.217  19.209   5.979
 5004POPC   GL265570  35.517  19.249   5.765
 5004POPC   C1A65571  35.249  18.870   6.313
 5004POPC   D2A65572  35.056  18.794   6.735
 5004POPC   C3A65573  35.127  19.117   7.051
 5004POPC   C4A65574  35.177  19.067   7.508
 5004POPC   C1B65575  35.705  19.186   6.180
 5004POPC   C2B65576  35.557  19.142   6.600
 5004POPC   C3B65577  35.540  18.838   6.911
 5004POPC   C4B65578  35.630  19.066   7.253
 5005POPC   NC365579  28.174  33.473   5.006
 5005POPC   PO465580  28.303  32.974   5.484
 5005POPC   GL165581  28.286  33.081   5.900
 5005POPC   GL265582  28.501  33.409   5.905
 5005POPC   C1A65583  28.165  32.891   6.323
 5005POPC   D2A65584  28.401  32.799   6.710
 5005POPC   C3A65585  28.204  32.782   7.132
 5005POPC   C4A65586  28.028  32.519   7.458
 5005POPC   C1B65587  28.228  33.431   6.269
 5005POPC   C2B65588  28.405  33.489   6.637
 5005POPC   C3B65589  28.577  33.322   6.980
 5005POPC   C4B65590  28.289  33.276   7.277
 5006POPC   NC365591  16.176   4.918   5.512
 5006POPC   PO465592  16.636   5.223   5.080
 5006POPC   GL165593  16.639   5.282   5.542
 5006POPC   GL265594  16.320   5.439   5.657
 5006POPC   C1A65595  16.774   5.096   5.968
 5006POPC   D2A65596  16.801   5.286   6.397
 5006POPC   C3A65597  16.831   5.087   6.805
 5006POPC   C4A65598  16.766   5.060   7.251
 5006POPC   C1B65599  16.358   5.370   6.116
 5006POPC   C2B65600  16.322   5.351   6.582
 5006POPC   C3B65601  16.499   5.465   6.978
 5006POPC   C4B65602  16.272   5.325   7.315
 5007POPC   NC365603  33.530   1.220   5.336
 5007POPC   PO465604  33.850   0.668   5.423
 5007POPC   GL165605  33.874   0.900   5.791
 5007POPC   GL265606  33.537   0.942   5.831
 5007POPC   C1A65607  33.984   1.120   6.192
 5007POPC   D2A65608  34.129   1.031   6.617
 5007POPC   C3A65609  33.858   0.991   6.979
 5007POPC   C4A65610  33.854   1.340   7.253
 5007POPC   C1B65611  33.587   0.789   6.224
 5007POPC   C2B65612  33.498   0.913   6.617
 5007POPC   C3B65613  33.329   0.843   7.019
 5007POPC   C4B65614  33.546   0.936   7.432
 5008POPC   NC365615   1.291  40.099   5.425
 5008POPC   PO465616   0.640  39.953   5.368
 5008POPC   GL165617   0.914  39.864   5.737
 5008POPC   GL265618   0.894  40.196   5.765
 5008POPC   C1A65619   1.280  39.943   6.069
 5008POPC   D2A65620   1.533  39.874   6.472
 5008POPC   C3A65621   1.338  40.099   6.858
 5008POPC   C4A65622   1.113  40.014   7.263
 5008POPC   C1B65623   0.937  40.327   6.175
 5008POPC   C2B65624   0.818  40.289   6.586
 5008POPC   C3B65625   0.916  40.485   6.976
 5008POPC   C4B65626   1.134  40.527   7.343
 5009POPC   NC365627  12.465  12.563   5.445
 5009POPC   PO465628  12.030  13.052   5.226
 5009POPC   GL165629  12.069  12.814   5.669
 5009POPC   GL265630  12.360  12.932   5.809
 5009POPC   C1A65631  12.040  12.906   6.170
 5009POPC   D2A65632  12.181  12.913   6.630
 5009POPC   C3A65633  11.908  12.698   6.978
 5009POPC   C4A65634  11.730  12.864   7.385
 5009POPC   C1B65635  12.563  12.869   6.225
 5009POPC   C2B65636  12.757  12.850   6.634
 5009POPC   C3B65637  12.563  13.089   6.966
 5009POPC   C4B65638  12.221  12.965   7.288
 5010POPC   NC365639  28.525  18.378   5.400
 5010POPC   PO465640  27.984  17.971   5.557
 5010POPC   GL165641  28.186  18.245   5.822
 5010POPC   GL265642  28.503  18.059   5.818
 5010POPC   C1A65643  28.122  18.564   6.151
 5010POPC   D2A65644  28.310  18.602   6.566
 5010POPC   C3A65645  28.147  18.725   6.958
 5010POPC   C4A65646  28.377  18.493   7.251
 5010POPC   C1B65647  28.433  18.163   6.283
 5010POPC   C2B65648  28.301  18.035   6.714
 5010POPC   C3B65649  28.417  17.999   7.141
 5010POPC   C4B65650  28.692  17.956   7.479
 5011POPC   NC365651  17.597   8.347   5.339
 5011POPC   PO465652  17.006   8.380   5.563
 5011POPC   GL165653  17.400   8.315   5.842
 5011POPC   GL265654  17.743   8.126   5.773
 5011POPC   C1A65655  17.667   8.336   6.231
 5011POPC   D2A65656  17.929   8.327   6.586
 5011POPC   C3A65657  17.744   8.149   6.937
 5011POPC   C4A65658  17.415   8.326   7.236
 5011POPC   C1B65659  17.502   7.851   6.071
 5011POPC   C2B65660  17.540   7.856   6.521
 5011POPC   C3B65661  17.415   7.754   6.964
 5011POPC   C4B65662  17.633   7.880   7.359
 5012POPC   NC365663  14.152   1.200   5.163
 5012POPC   PO465664  14.694   0.954   5.505
 5012POPC   GL165665  14.557   1.294   5.742
 5012POPC   GL265666  14.216   1.273   5.882
 5012POPC   C1A65667  14.615   1.514   6.131
 5012POPC   D2A65668  14.363   1.502   6.498
 5012POPC   C3A65669  14.443   1.219   6.822
 5012POPC   C4A65670  14.343   1.385   7.196
 5012POPC   C1B65671  14.262   1.015   6.289
 5012POPC   C2B65672  14.201   0.790   6.700
 5012POPC   C3B65673  14.048   0.983   7.102
 5012POPC   C4B65674  14.054   1.092   7.547
 5013POPC   NC365675  15.620  15.656   5.459
 5013POPC   PO465676  16.273  15.816   5.432
 5013POPC   GL165677  16.368  15.807   5.905
 5013POPC   GL265678  16.029  15.979   5.984
 5013POPC   C1A65679  16.338  15.886   6.371
 5013POPC   D2A65680  16.078  16.166   6.559
 5013POPC   C3A65681  15.931  15.990   6.929
 5013POPC   C4A65682  16.202  15.830   7.247
 5013POPC   C1B65683  15.712  16.285   6.206
 5013POPC   C2B65684  15.565  16.253   6.652
 5013POPC   C3B65685  15.591  16.342   7.103
 5013POPC   C4B65686  15.856  16.151   7.436
 5014POPC   NC365687  32.524  43.322   5.475
 5014POPC   PO465688  32.091  42.983   5.143
 5014POPC   GL165689  32.192  42.966   5.668
 5014POPC   GL265690  31.959  43.120   5.954
 5014POPC   C1A65691  32.446  43.106   6.112
 5014POPC   D2A65692  32.303  43.043   6.574
 5014POPC   C3A65693  32.427  43.279   6.976
 5014POPC   C4A65694  32.165  43.528   7.295
 5014POPC   C1B65695  32.080  42.743   6.185
 5014POPC   C2B65696  32.098  42.525   6.560
 5014POPC   C3B65697  31.915  42.745   6.885
 5014POPC   C4B65698  32.091  42.956   7.221
 5015POPC   NC365699  44.832   7.958   5.563
 5015POPC   PO465700  44.844   8.550   5.258
 5015POPC   GL165701  44.476   8.345   5.696
 5015POPC   GL265702  44.427   8.035   5.858
 5015POPC   C1A65703  44.493   8.474   6.199
 5015POPC   D2A65704  44.800   8.388   6.564
 5015POPC   C3A65705  44.715   8.177   6.979
 5015POPC   C4A65706   0.006   7.984   7.254
 5015POPC   C1B65707  44.645   7.979   6.263
 5015POPC   C2B65708  44.517   7.799   6.666
 5015POPC   C3B65709  44.327   7.689   7.045
 5015POPC   C4B65710  44.541   7.820   7.406
 5016POPC   NC365711   2.475  22.056   5.365
 5016POPC   PO465712   3.135  22.340   5.427
 5016POPC   GL165713   2.893  22.379   5.802
 5016POPC   GL265714   2.753  22.082   5.808
 5016POPC   C1A65715   3.031  22.300   6.240
 5016POPC   D2A65716   3.120  22.507   6.650
 5016POPC   C3A65717   2.990  22.273   7.014
 5016POPC   C4A65718   2.833  21.915   7.290
 5016POPC   C1B65719   2.549  22.170   6.214
 5016POPC   C2B65720   2.627  22.320   6.645
 5016POPC   C3B65721   2.478  22.278   7.090
 5016POPC   C4B65722   2.573  22.502   7.492
 5017POPC   NC365723  33.856  43.300   5.628
 5017POPC   PO465724  33.509  42.798   5.336
 5017POPC   GL165725  33.597  42.888   5.828
 5017POPC   GL265726  33.898  43.036   6.062
 5017POPC   C1A65727  33.493  42.904   6.294
 5017POPC   D2A65728  33.730  42.815   6.634
 5017POPC   C3A65729  33.535  42.934   6.953
 5017POPC   C4A65730  33.766  43.042   7.302
 5017POPC   C1B65731  34.108  43.283   6.371
 5017POPC   C2B65732  34.277  43.580   6.682
 5017POPC   C3B65733  34.502  43.537   7.016
 5017POPC   C4B65734  34.225  43.291   7.328
 5018POPC   NC365735   7.520  37.122   5.155
 5018POPC   PO465736   7.170  36.611   5.338
 5018POPC   GL165737   7.378  36.593   5.770
 5018POPC   GL265738   7.733  36.639   5.734
 5018POPC   C1A65739   7.363  36.561   6.245
 5018POPC   D2A65740   7.373  36.605   6.708
 5018POPC   C3A65741   7.392  37.024   6.916
 5018POPC   C4A65742   7.162  36.944   7.253
 5018POPC   C1B65743   7.829  36.840   6.135
 5018POPC   C2B65744   7.722  37.035   6.515
 5018POPC   C3B65745   7.834  36.770   6.847
 5018POPC   C4B65746   7.701  36.763   7.232
 5019POPC   NC365747  14.700  14.698   5.701
 5019POPC   PO465748  14.110  14.325   5.489
 5019POPC   GL165749  14.235  14.478   5.857
 5019POPC   GL265750  13.948  14.618   5.970
 5019POPC   C1A65751  14.432  14.468   6.264
 5019POPC   D2A65752  14.265  14.616   6.629
 5019POPC   C3A65753  14.473  14.550   6.967
 5019POPC   C4A65754  14.366  14.161   7.095
 5019POPC   C1B65755  13.972  14.244   6.276
 5019POPC   C2B65756  14.036  14.066   6.680
 5019POPC   C3B65757  13.860  14.236   7.043
 5019POPC   C4B65758  14.027  14.547   7.268
 5020POPC   NC365759   9.540  10.699   5.333
 5020POPC   PO465760  10.143  10.384   5.079
 5020POPC   GL165761   9.946  10.494   5.560
 5020POPC   GL265762   9.973  10.841   5.731
 5020POPC   C1A65763   9.843  10.450   6.060
 5020POPC   D2A65764   9.823  10.609   6.528
 5020POPC   C3A65765   9.666  10.347   6.903
 5020POPC   C4A65766   9.777  10.277   7.350
 5020POPC   C1B65767  10.170  10.862   6.165
 5020POPC   C2B65768  10.154  11.079   6.568
 5020POPC   C3B65769  10.159  10.920   6.985
 5020POPC   C4B65770   9.780  10.761   7.149
 5021POPC   NC365771  22.019  26.888   5.044
 5021POPC   PO465772  22.529  26.642   5.479
 5021POPC   GL165773  22.282  26.505   5.888
 5021POPC   GL265774  21.899  26.469   5.745
 5021POPC   C1A65775  22.238  26.726   6.272
 5021POPC   D2A65776  22.416  26.758   6.663
 5021POPC   C3A65777  22.147  26.909   6.956
 5021POPC   C4A65778  22.179  27.068   7.322
 5021POPC   C1B65779  21.742  26.669   6.142
 5021POPC   C2B65780  21.818  26.907   6.517
 5021POPC   C3B65781  21.678  26.726   6.897
 5021POPC   C4B65782  21.761  26.791   7.302
 5022POPC   NC365783  32.772  32.427   5.495
 5022POPC   PO465784  33.529  32.234   5.569
 5022POPC   GL165785  33.238  32.214   5.905
 5022POPC   GL265786  33.122  32.540   5.885
 5022POPC   C1A65787  33.212  32.282   6.376
 5022POPC   D2A65788  33.291  32.251   6.849
 5022POPC   C3A65789  33.035  32.096   7.210
 5022POPC   C4A65790  33.242  31.994   7.605
 5022POPC   C1B65791  32.830  32.615   6.205
 5022POPC   C2B65792  32.755  32.486   6.642
 5022POPC   C3B65793  32.910  32.548   7.038
 5022POPC   C4B65794  32.630  32.701   7.319
 5023POPC   NC365795   9.063  37.383   5.586
 5023POPC   PO465796   8.752  37.977   5.380
 5023POPC   GL165797   9.057  37.896   5.733
 5023POPC   GL265798   8.813  37.718   5.855
 5023POPC   C1A65799   9.185  37.777   6.178
 5023POPC   D2A65800   8.967  37.503   6.471
 5023POPC   C3A65801   9.010  37.461   6.930
 5023POPC   C4A65802   9.256  37.281   7.278
 5023POPC   C1B65803   8.688  37.885   6.246
 5023POPC   C2B65804   8.544  37.746   6.675
 5023POPC   C3B65805   8.699  37.838   7.112
 5023POPC   C4B65806   8.657  37.864   7.588
 5024POPC   NC365807  31.213  44.951   5.127
 5024POPC   PO465808  31.766  44.552   5.100
 5024POPC   GL165809  31.595  44.652   5.515
 5024POPC   GL265810  31.334  44.870   5.625
 5024POPC   C1A65811  31.469  44.480   5.923
 5024POPC   D2A65812  31.565  44.533   6.362
 5024POPC   C3A65813  31.407  44.431   6.783
 5024POPC   C4A65814  31.706  44.376   7.107
 5024POPC   C1B65815  31.390  44.958   6.098
 5024POPC   C2B65816  31.261  44.935   6.532
 5024POPC   C3B65817  31.313  44.895   6.969
 5024POPC   C4B65818  31.189  44.996   7.384
 5025POPC   NC365819  15.898  24.207   5.307
 5025POPC   PO465820  16.136  24.850   5.456
 5025POPC   GL165821  15.977  24.702   5.860
 5025POPC   GL265822  15.788  24.415   5.770
 5025POPC   C1A65823  16.106  24.559   6.299
 5025POPC   D2A65824  16.087  24.280   6.641
 5025POPC   C3A65825  15.829  24.461   6.915
 5025POPC   C4A65826  16.000  24.667   7.233
 5025POPC   C1B65827  15.757  24.219   6.158
 5025POPC   C2B65828  15.542  24.238   6.517
 5025POPC   C3B65829  15.557  24.025   6.881
 5025POPC   C4B65830  15.757  24.108   7.273
 5026POPC   NC365831  44.111  12.383   5.344
 5026POPC   PO465832  43.786  11.774   5.419
 5026POPC   GL165833  44.007  12.025   5.720
 5026POPC   GL265834  43.902  12.361   5.798
 5026POPC   C1A65835  44.099  12.021   6.159
 5026POPC   D2A65836  44.124  11.786   6.548
 5026POPC   C3A65837  43.911  11.945   6.926
 5026POPC   C4A65838  44.023  11.776   7.296
 5026POPC   C1B65839  44.050  12.528   6.193
 5026POPC   C2B65840  44.042  12.320   6.584
 5026POPC   C3B65841  44.046  12.438   7.021
 5026POPC   C4B65842  43.842  12.281   7.396
 5027POPC   NC365843  15.656  41.205   5.104
 5027POPC   PO465844  15.945  41.730   5.469
 5027POPC   GL165845  16.041  41.724   5.865
 5027POPC   GL265846  16.054  41.383   5.966
 5027POPC   C1A65847  16.005  41.798   6.296
 5027POPC   D2A65848  15.990  41.545   6.649
 5027POPC   C3A65849  15.939  41.645   7.052
 5027POPC   C4A65850  16.061  42.022   7.209
 5027POPC   C1B65851  15.909  41.137   6.358
 5027POPC   C2B65852  15.712  41.137   6.797
 5027POPC   C3B65853  15.578  41.318   7.193
 5027POPC   C4B65854  15.826  41.252   7.563
 5028POPC   NC365855  42.087  37.158   5.339
 5028POPC   PO465856  42.692  37.030   5.622
 5028POPC   GL165857  42.397  37.018   5.944
 5028POPC   GL265858  42.048  37.120   5.893
 5028POPC   C1A65859  42.477  37.014   6.373
 5028POPC   D2A65860  42.227  37.047   6.741
 5028POPC   C3A65861  42.400  36.860   7.119
 5028POPC   C4A65862  42.601  36.455   7.214
 5028POPC   C1B65863  41.991  36.854   6.289
 5028POPC   C2B65864  41.853  36.670   6.710
 5028POPC   C3B65865  41.860  36.901   7.110
 5028POPC   C4B65866  42.041  37.306   7.132
 5029POPC   NC365867  41.949   3.302   5.537
 5029POPC   PO465868  42.253   3.798   5.330
 5029POPC   GL165869  42.363   3.558   5.733
 5029POPC   GL265870  42.619   3.307   5.787
 5029POPC   C1A65871  42.516   3.657   6.167
 5029POPC   D2A65872  42.417   3.690   6.625
 5029POPC   C3A65873  42.681   3.677   7.009
 5029POPC   C4A65874  42.567   3.790   7.434
 5029POPC   C1B65875  42.702   3.186   6.246
 5029POPC   C2B65876  42.641   3.236   6.724
 5029POPC   C3B65877  42.489   3.152   7.149
 5029POPC   C4B65878  42.093   2.907   7.240
 5030POPC   NC365879  21.585  40.283   5.456
 5030POPC   PO465880  21.600  40.945   5.443
 5030POPC   GL165881  21.525  40.856   5.850
 5030POPC   GL265882  21.329  40.577   5.826
 5030POPC   C1A65883  21.438  40.988   6.251
 5030POPC   D2A65884  21.329  40.798   6.612
 5030POPC   C3A65885  21.369  41.088   6.896
 5030POPC   C4A65886  21.484  40.972   7.282
 5030POPC   C1B65887  21.437  40.463   6.239
 5030POPC   C2B65888  21.582  40.357   6.678
 5030POPC   C3B65889  21.583  40.441   7.169
 5030POPC   C4B65890  21.581  40.248   7.616
 5031POPC   NC365891   9.095   3.041   5.390
 5031POPC   PO465892   9.199   2.402   5.394
 5031POPC   GL165893   8.914   2.615   5.755
 5031POPC   GL265894   8.884   2.970   5.839
 5031POPC   C1A65895   8.670   2.678   6.179
 5031POPC   D2A65896   8.791   2.876   6.570
 5031POPC   C3A65897   8.711   2.654   6.970
 5031POPC   C4A65898   8.733   2.815   7.391
 5031POPC   C1B65899   9.183   2.835   6.169
 5031POPC   C2B65900   9.382   2.916   6.562
 5031POPC   C3B65901   9.218   2.768   6.929
 5031POPC   C4B65902   9.427   2.621   7.284
 5032POPC   NC365903  38.493  40.290   5.407
 5032POPC   PO465904  38.090  39.731   5.289
 5032POPC   GL165905  38.272  39.876   5.735
 5032POPC   GL265906  38.633  39.949   5.795
 5032POPC   C1A65907  38.349  39.982   6.224
 5032POPC   D2A65908  38.524  39.819   6.628
 5032POPC   C3A65909  38.338  40.018   6.994
 5032POPC   C4A65910  38.277  39.935   7.457
 5032POPC   C1B65911  38.851  39.892   6.215
 5032POPC   C2B65912  39.011  40.009   6.644
 5032POPC   C3B65913  38.843  40.139   7.067
 5032POPC   C4B65914  38.729  40.195   7.521
 5033POPC   NC365915  36.060  19.905   5.174
 5033POPC   PO465916  36.459  19.361   5.377
 5033POPC   GL165917  36.458  19.621   5.702
 5033POPC   GL265918  36.116  19.621   5.663
 5033POPC   C1A65919  36.460  19.828   6.101
 5033POPC   D2A65920  36.243  19.876   6.468
 5033POPC   C3A65921  36.415  19.833   6.863
 5033POPC   C4A65922  36.309  19.636   7.218
 5033POPC   C1B65923  35.939  19.679   6.065
 5033POPC   C2B65924  35.840  19.579   6.493
 5033POPC   C3B65925  35.892  19.781   6.899
 5033POPC   C4B65926  35.827  19.567   7.294
 5034POPC   NC365927  23.142  25.554   5.763
 5034POPC   PO465928  23.426  25.008   5.567
 5034POPC   GL165929  23.185  25.051   5.957
 5034POPC   GL265930  22.831  25.174   5.919
 5034POPC   C1A65931  23.131  25.332   6.342
 5034POPC   D2A65932  22.884  25.515   6.678
 5034POPC   C3A65933  23.053  25.304   7.008
 5034POPC   C4A65934  23.396  24.958   6.981
 5034POPC   C1B65935  22.577  25.361   6.242
 5034POPC   C2B65936  22.360  25.505   6.628
 5034POPC   C3B65937  22.488  25.490   7.055
 5034POPC   C4B65938  22.689  25.247   7.399
 5035POPC   NC365939  33.271  22.569   5.396
 5035POPC   PO465940  32.710  22.844   5.532
 5035POPC   GL165941  33.080  22.854   5.787
 5035POPC   GL265942  33.364  22.628   5.876
 5035POPC   C1A65943  33.028  22.798   6.217
 5035POPC   D2A65944  33.020  22.998   6.592
 5035POPC   C3A65945  32.851  22.790   6.938
 5035POPC   C4A65946  32.939  23.073   7.267
 5035POPC   C1B65947  33.563  22.815   6.232
 5035POPC   C2B65948  33.699  22.877   6.663
 5035POPC   C3B65949  33.398  22.949   6.989
 5035POPC   C4B65950  33.236  22.614   7.217
 5036POPC   NC365951  41.256  27.798   5.607
 5036POPC   PO465952  41.796  27.972   5.285
 5036POPC   GL165953  41.816  27.875   5.765
 5036POPC   GL265954  41.557  28.002   5.946
 5036POPC   C1A65955  41.640  27.559   6.142
 5036POPC   D2A65956  41.521  27.273   6.494
 5036POPC   C3A65957  41.530  27.529   6.844
 5036POPC   C4A65958  41.573  27.589   7.257
 5036POPC   C1B65959  41.248  27.918   6.257
 5036POPC   C2B65960  41.261  27.981   6.671
 5036POPC   C3B65961  41.236  27.911   7.064
 5036POPC   C4B65962  41.009  28.033   7.368
 5037POPC   NC365963   9.121   0.955   5.429
 5037POPC   PO465964   9.052   0.264   5.392
 5037POPC   GL165965   9.165   0.472   5.780
 5037POPC   GL265966   8.922   0.727   5.855
 5037POPC   C1A65967   9.225   0.600   6.234
 5037POPC   D2A65968   9.400   0.500   6.650
 5037POPC   C3A65969   9.112   0.460   7.020
 5037POPC   C4A65970   9.244   0.472   7.466
 5037POPC   C1B65971   8.650   0.587   6.186
 5037POPC   C2B65972   8.550   0.711   6.600
 5037POPC   C3B65973   8.521   0.659   7.025
 5037POPC   C4B65974   8.799   0.701   7.379
 5038POPC   NC365975   2.022  35.957   5.373
 5038POPC   PO465976   2.115  36.613   5.212
 5038POPC   GL165977   2.073  36.515   5.669
 5038POPC   GL265978   2.292  36.234   5.722
 5038POPC   C1A65979   1.867  36.360   6.071
 5038POPC   D2A65980   1.992  36.106   6.435
 5038POPC   C3A65981   1.823  36.062   6.843
 5038POPC   C4A65982   1.890  36.382   7.137
 5038POPC   C1B65983   2.408  36.274   6.140
 5038POPC   C2B65984   2.501  36.059   6.505
 5038POPC   C3B65985   2.337  36.120   6.912
 5038POPC   C4B65986   2.199  36.035   7.323
 5039POPC   NC365987   2.991  20.046   5.476
 5039POPC   PO465988   3.465  19.509   5.424
 5039POPC   GL165989   3.576  19.726   5.850
 5039POPC   GL265990   3.716  20.053   5.821
 5039POPC   C1A65991   3.366  19.637   6.312
 5039POPC   D2A65992   3.448  19.444   6.732
 5039POPC   C3A65993   3.367  19.687   7.144
 5039POPC   C4A65994   3.430  20.137   7.206
 5039POPC   C1B65995   3.580  20.113   6.255
 5039POPC   C2B65996   3.521  20.303   6.672
 5039POPC   C3B65997   3.845  20.260   6.961
 5039POPC   C4B65998   3.933  20.034   7.318
 5040POPC   NC365999  18.205  19.329   5.274
 5040POPC   PO466000  18.020  18.802   5.644
 5040POPC   GL166001  18.313  19.082   5.765
 5040POPC   GL266002  18.051  19.373   5.761
 5040POPC   C1A66003  18.579  18.877   6.108
 5040POPC   D2A66004  18.473  19.030   6.473
 5040POPC   C3A66005  18.339  18.902   6.834
 5040POPC   C4A66006  18.580  19.114   7.140
 5040POPC   C1B66007  18.115  19.304   6.187
 5040POPC   C2B66008  17.986  19.236   6.597
 5040POPC   C3B66009  18.172  19.353   6.987
 5040POPC   C4B66010  18.233  19.379   7.444
 5041POPC   NC366011  22.506  11.640   5.142
 5041POPC   PO466012  22.912  11.159   5.495
 5041POPC   GL166013  23.158  11.233   5.871
 5041POPC   GL266014  23.157  11.569   5.807
 5041POPC   C1A66015  23.052  11.290   6.319
 5041POPC   D2A66016  22.780  11.551   6.588
 5041POPC   C3A66017  22.681  11.293   6.945
 5041POPC   C4A66018  23.016  10.980   7.031
 5041POPC   C1B66019  23.044  11.782   6.172
 5041POPC   C2B66020  23.265  11.771   6.541
 5041POPC   C3B66021  23.169  11.611   6.915
 5041POPC   C4B66022  22.879  11.712   7.213
 5042POPC   NC366023  24.595  41.012   5.225
 5042POPC   PO466024  24.149  40.597   5.393
 5042POPC   GL166025  24.469  40.702   5.719
 5042POPC   GL266026  24.738  40.471   5.839
 5042POPC   C1A66027  24.632  40.853   6.146
 5042POPC   D2A66028  24.881  40.761   6.507
 5042POPC   C3A66029  24.589  40.764   6.857
 5042POPC   C4A66030  24.426  40.883   7.286
 5042POPC   C1B66031  24.408  40.364   6.138
 5042POPC   C2B66032  24.392  40.177   6.564
 5042POPC   C3B66033  24.350  40.345   6.996
 5042POPC   C4B66034  24.029  40.628   7.146
 5043POPC   NC366035  37.854  22.351   5.429
 5043POPC   PO466036  37.279  21.933   5.330
 5043POPC   GL166037  37.496  22.104   5.756
 5043POPC   GL266038  37.739  22.396   5.911
 5043POPC   C1A66039  37.702  21.973   6.175
 5043POPC   D2A66040  37.718  22.145   6.609
 5043POPC   C3A66041  37.750  21.863   6.973
 5043POPC   C4A66042  38.041  21.770   7.314
 5043POPC   C1B66043  37.379  22.455   6.186
 5043POPC   C2B66044  37.251  22.400   6.606
 5043POPC   C3B66045  37.269  22.093   6.898
 5043POPC   C4B66046  37.535  22.232   7.238
 5044POPC   NC366047  44.838  32.512   5.589
 5044POPC   PO466048  44.627  31.948   5.351
 5044POPC   GL166049  44.559  32.113   5.774
 5044POPC   GL266050  44.838  32.190   6.005
 5044POPC   C1A66051  44.371  32.274   6.181
 5044POPC   D2A66052  44.604  32.322   6.564
 5044POPC   C3A66053  44.460  32.460   6.932
 5044POPC   C4A66054  44.534  32.270   7.301
 5044POPC   C1B66055  44.812  32.601   6.203
 5044POPC   C2B66056  44.884  32.742   6.592
 5044POPC   C3B66057  44.966  32.465   6.912
 5044POPC   C4B66058  44.929  32.585   7.281
 5045POPC   NC366059  12.577   8.419   5.588
 5045POPC   PO466060  13.146   8.044   5.611
 5045POPC   GL166061  12.942   8.231   5.924
 5045POPC   GL266062  13.197   8.481   5.925
 5045POPC   C1A66063  12.678   8.182   6.293
 5045POPC   D2A66064  12.817   8.249   6.717
 5045POPC   C3A66065  12.663   8.044   7.080
 5045POPC   C4A66066  12.565   8.272   7.472
 5045POPC   C1B66067  13.151   8.439   6.361
 5045POPC   C2B66068  13.336   8.317   6.715
 5045POPC   C3B66069  13.186   8.255   7.126
 5045POPC   C4B66070  13.058   8.156   7.537
 5046POPC   NC366071   8.340  21.949   5.569
 5046POPC   PO466072   7.927  21.367   5.397
 5046POPC   GL166073   8.293  21.317   5.740
 5046POPC   GL266074   8.362  21.632   5.954
 5046POPC   C1A66075   8.419  21.214   6.207
 5046POPC   D2A66076   8.121  21.153   6.551
 5046POPC   C3A66077   8.048  21.400   6.907
 5046POPC   C4A66078   8.152  21.334   7.291
 5046POPC   C1B66079   8.093  21.641   6.334
 5046POPC   C2B66080   8.197  21.857   6.720
 5046POPC   C3B66081   8.246  21.814   7.172
 5046POPC   C4B66082   7.912  21.753   7.496
 5047POPC   NC366083   3.236  39.077   5.419
 5047POPC   PO466084   2.710  39.448   5.321
 5047POPC   GL166085   2.887  39.304   5.720
 5047POPC   GL266086   2.548  39.145   5.752
 5047POPC   C1A66087   3.093  39.316   6.152
 5047POPC   D2A66088   2.977  39.080   6.566
 5047POPC   C3A66089   2.863  39.138   7.011
 5047POPC   C4A66090   3.156  39.325   7.291
 5047POPC   C1B66091   2.628  39.091   6.192
 5047POPC   C2B66092   2.469  39.156   6.614
 5047POPC   C3B66093   2.364  38.987   7.016
 5047POPC   C4B66094   2.608  38.776   7.317
 5048POPC   NC366095   6.932   4.225   5.462
 5048POPC   PO466096   7.623   4.329   5.363
 5048POPC   GL166097   7.685   4.287   5.819
 5048POPC   GL266098   7.333   4.195   5.857
 5048POPC   C1A66099   7.705   4.320   6.286
 5048POPC   D2A66100   7.451   4.323   6.674
 5048POPC   C3A66101   7.561   4.362   7.111
 5048POPC   C4A66102   7.784   4.429   7.514
 5048POPC   C1B66103   7.301   3.982   6.250
 5048POPC   C2B66104   7.038   4.021   6.602
 5048POPC   C3B66105   7.172   3.993   7.028
 5048POPC   C4B66106   6.998   3.959   7.444
 5049POPC   NC366107  41.955  40.362   5.519
 5049POPC   PO466108  42.497  39.958   5.313
 5049POPC   GL166109  42.313  40.004   5.733
 5049POPC   GL266110  42.413  40.328   5.798
 5049POPC   C1A66111  42.243  39.969   6.194
 5049POPC   D2A66112  42.499  40.010   6.590
 5049POPC   C3A66113  42.221  40.020   6.949
 5049POPC   C4A66114  41.965  40.243   7.250
 5049POPC   C1B66115  42.684  40.219   6.142
 5049POPC   C2B66116  42.766  40.421   6.501
 5049POPC   C3B66117  42.549  40.468   6.854
 5049POPC   C4B66118  42.635  40.224   7.200
 5050POPC   NC366119  34.892   4.577   5.293
 5050POPC   PO466120  34.794   3.952   5.237
 5050POPC   GL166121  34.773   4.168   5.667
 5050POPC   GL266122  34.447   4.338   5.790
 5050POPC   C1A66123  34.749   4.178   6.137
 5050POPC   D2A66124  34.502   4.335   6.468
 5050POPC   C3A66125  34.678   4.195   6.848
 5050POPC   C4A66126  34.549   4.078   7.255
 5050POPC   C1B66127  34.617   4.680   6.073
 5050POPC   C2B66128  34.547   4.847   6.493
 5050POPC   C3B66129  34.475   4.671   6.895
 5050POPC   C4B66130  34.603   4.600   7.311
 5051POPC   NC366131  13.738  13.169   5.370
 5051POPC   PO466132  13.704  12.523   5.413
 5051POPC   GL166133  13.781  12.850   5.746
 5051POPC   GL266134  13.420  13.017   5.746
 5051POPC   C1A66135  13.948  13.061   6.159
 5051POPC   D2A66136  14.028  12.841   6.572
 5051POPC   C3A66137  13.922  12.910   7.002
 5051POPC   C4A66138  13.914  12.765   7.417
 5051POPC   C1B66139  13.516  12.782   6.151
 5051POPC   C2B66140  13.278  12.639   6.446
 5051POPC   C3B66141  13.263  12.798   6.804
 5051POPC   C4B66142  13.451  12.770   7.181
 5052POPC   NC366143  22.751  32.027   5.493
 5052POPC   PO466144  23.219  32.633   5.457
 5052POPC   GL166145  23.208  32.480   5.874
 5052POPC   GL266146  23.079  32.139   5.884
 5052POPC   C1A66147  23.083  32.414   6.314
 5052POPC   D2A66148  22.863  32.207   6.662
 5052POPC   C3A66149  23.086  32.196   7.015
 5052POPC   C4A66150  23.062  32.580   7.136
 5052POPC   C1B66151  22.805  31.959   6.197
 5052POPC   C2B66152  22.840  31.707   6.580
 5052POPC   C3B66153  22.733  31.750   7.005
 5052POPC   C4B66154  22.625  32.111   7.175
 5053POPC   NC366155  17.015  15.637   5.113
 5053POPC   PO466156  16.704  16.058   5.590
 5053POPC   GL166157  16.824  16.106   5.913
 5053POPC   GL266158  16.833  16.447   5.946
 5053POPC   C1A66159  16.834  15.884   6.254
 5053POPC   D2A66160  17.019  15.649   6.538
 5053POPC   C3A66161  16.734  15.780   6.787
 5053POPC   C4A66162  16.752  16.031   7.124
 5053POPC   C1B66163  16.546  16.334   6.255
 5053POPC   C2B66164  16.609  16.262   6.669
 5053POPC   C3B66165  16.341  16.286   7.001
 5053POPC   C4B66166  16.411  16.243   7.433
 5054POPC   NC366167  33.182  44.707   5.149
 5054POPC   PO466168  32.642  44.423   5.460
 5054POPC   GL166169  32.878  44.440   5.830
 5054POPC   GL266170  33.185  44.456   5.710
 5054POPC   C1A66171  32.878  44.548   6.260
 5054POPC   D2A66172  33.048  44.480   6.673
 5054POPC   C3A66173  33.130  44.767   7.000
 5054POPC   C4A66174  32.814  44.951   7.259
 5054POPC   C1B66175  33.360  44.334   6.159
 5054POPC   C2B66176  33.451  44.192   6.628
 5054POPC   C3B66177  33.320  44.241   7.072
 5054POPC   C4B66178  33.042  44.436   7.383
 5055POPC   NC366179  35.088  30.930   5.376
 5055POPC   PO466180  35.474  30.387   5.283
 5055POPC   GL166181  35.269  30.575   5.676
 5055POPC   GL266182  34.954  30.392   5.689
 5055POPC   C1A66183  35.226  30.910   6.065
 5055POPC   D2A66184  35.404  31.137   6.459
 5055POPC   C3A66185  35.441  30.874   6.862
 5055POPC   C4A66186  35.233  30.621   7.200
 5055POPC   C1B66187  35.117  30.405   6.120
 5055POPC   C2B66188  35.254  30.521   6.507
 5055POPC   C3B66189  35.028  30.347   6.839
 5055POPC   C4B66190  35.076  30.141   7.247
 5056POPC   NC366191  27.379  25.441   5.366
 5056POPC   PO466192  27.795  25.092   5.634
 5056POPC   GL166193  27.437  25.094   5.924
 5056POPC   GL266194  27.322  25.428   5.890
 5056POPC   C1A66195  27.474  24.911   6.336
 5056POPC   D2A66196  27.691  24.914   6.740
 5056POPC   C3A66197  27.535  25.124   7.110
 5056POPC   C4A66198  27.629  25.028   7.546
 5056POPC   C1B66199  27.426  25.403   6.343
 5056POPC   C2B66200  27.222  25.325   6.732
 5056POPC   C3B66201  27.140  25.491   7.153
 5056POPC   C4B66202  27.503  25.528   7.443
 5057POPC   NC366203  37.365  10.852   5.554
 5057POPC   PO466204  38.018  10.677   5.713
 5057POPC   GL166205  37.693  10.722   5.975
 5057POPC   GL266206  37.393  10.557   5.986
 5057POPC   C1A66207  37.681  10.531   6.387
 5057POPC   D2A66208  37.795  10.144   6.566
 5057POPC   C3A66209  37.878  10.239   6.975
 5057POPC   C4A66210  37.684  10.503   7.273
 5057POPC   C1B66211  37.294  10.899   6.248
 5057POPC   C2B66212  37.285  10.768   6.651
 5057POPC   C3B66213  37.318  10.438   6.908
 5057POPC   C4B66214  37.184  10.603   7.262
 5058POPC   NC366215  40.924  42.662   5.376
 5058POPC   PO466216  40.534  42.141   5.547
 5058POPC   GL166217  40.684  42.401   5.798
 5058POPC   GL266218  40.532  42.746   5.763
 5058POPC   C1A66219  40.828  42.260   6.191
 5058POPC   D2A66220  40.991  41.941   6.410
 5058POPC   C3A66221  40.839  41.960   6.810
 5058POPC   C4A66222  40.772  42.190   7.195
 5058POPC   C1B66223  40.859  42.759   6.080
 5058POPC   C2B66224  40.830  42.671   6.495
 5058POPC   C3B66225  40.849  42.623   6.915
 5058POPC   C4B66226  40.724  42.717   7.310
 5059POPC   NC366227  39.969  20.735   5.359
 5059POPC   PO466228  39.423  20.867   5.658
 5059POPC   GL166229  39.782  20.727   5.874
 5059POPC   GL266230  40.074  20.480   5.799
 5059POPC   C1A66231  40.020  20.769   6.238
 5059POPC   D2A66232  40.187  20.497   6.535
 5059POPC   C3A66233  40.021  20.569   6.937
 5059POPC   C4A66234  40.287  20.626   7.267
 5059POPC   C1B66235  39.809  20.253   6.117
 5059POPC   C2B66236  39.703  20.303   6.565
 5059POPC   C3B66237  39.833  20.094   6.937
 5059POPC   C4B66238  39.904  20.214   7.373
 5060POPC   NC366239  40.159  37.518   5.480
 5060POPC   PO466240  39.561  37.849   5.466
 5060POPC   GL166241  39.860  37.743   5.842
 5060POPC   GL266242  40.269  37.790   5.902
 5060POPC   C1A66243  39.878  37.584   6.273
 5060POPC   D2A66244  39.956  37.714   6.689
 5060POPC   C3A66245  39.909  37.504   7.061
 5060POPC   C4A66246  40.209  37.749   7.243
 5060POPC   C1B66247  40.332  37.845   6.367
 5060POPC   C2B66248  40.443  37.544   6.724
 5060POPC   C3B66249  40.547  37.311   7.076
 5060POPC   C4B66250  40.393  37.351   7.491
 5061POPC   NC366251  15.297  12.650   5.522
 5061POPC   PO466252  15.005  12.036   5.289
 5061POPC   GL166253  15.085  12.050   5.745
 5061POPC   GL266254  15.336  12.253   5.812
 5061POPC   C1A66255  15.241  11.968   6.204
 5061POPC   D2A66256  15.097  11.738   6.559
 5061POPC   C3A66257  14.802  12.017   6.812
 5061POPC   C4A66258  14.678  12.075   7.266
 5061POPC   C1B66259  15.390  12.473   6.208
 5061POPC   C2B66260  15.416  12.360   6.621
 5061POPC   C3B66261  15.360  12.509   7.016
 5061POPC   C4B66262  15.171  12.168   7.207
 5062POPC   NC366263   5.042  31.272   5.269
 5062POPC   PO466264   5.183  30.613   5.408
 5062POPC   GL166265   5.064  30.874   5.729
 5062POPC   GL266266   4.775  31.056   5.666
 5062POPC   C1A66267   5.175  30.830   6.167
 5062POPC   D2A66268   4.941  30.595   6.489
 5062POPC   C3A66269   5.158  30.533   6.872
 5062POPC   C4A66270   5.298  30.829   7.151
 5062POPC   C1B66271   4.680  30.868   6.089
 5062POPC   C2B66272   4.659  31.030   6.511
 5062POPC   C3B66273   4.862  30.989   6.921
 5062POPC   C4B66274   4.612  30.972   7.298
 5063POPC   NC366275  20.169   9.812   5.329
 5063POPC   PO466276  20.813   9.676   5.304
 5063POPC   GL166277  20.525   9.636   5.685
 5063POPC   GL266278  20.398   9.991   5.757
 5063POPC   C1A66279  20.417   9.677   6.145
 5063POPC   D2A66280  20.679   9.892   6.481
 5063POPC   C3A66281  20.674   9.685   6.878
 5063POPC   C4A66282  20.448   9.665   7.249
 5063POPC   C1B66283  20.394  10.199   6.180
 5063POPC   C2B66284  20.324  10.230   6.656
 5063POPC   C3B66285  20.455  10.134   7.080
 5063POPC   C4B66286  20.856   9.984   7.280
 5064POPC   NC366287  15.981  36.617   5.500
 5064POPC   PO466288  16.268  37.214   5.439
 5064POPC   GL166289  16.035  37.022   5.814
 5064POPC   GL266290  16.115  36.642   5.975
 5064POPC   C1A66291  15.938  37.049   6.243
 5064POPC   D2A66292  16.023  36.811   6.614
 5064POPC   C3A66293  15.840  37.092   6.891
 5064POPC   C4A66294  15.969  37.231   7.279
 5064POPC   C1B66295  15.735  36.589   6.212
 5064POPC   C2B66296  15.547  36.652   6.631
 5064POPC   C3B66297  15.751  36.598   7.043
 5064POPC   C4B66298  16.156  36.755   7.164
 5065POPC   NC366299  36.604   0.119   5.380
 5065POPC   PO466300  35.999   0.533   5.362
 5065POPC   GL166301  36.061   0.510   5.792
 5065POPC   GL266302  35.744   0.615   5.851
 5065POPC   C1A66303  36.107   0.653   6.221
 5065POPC   D2A66304  36.428   0.646   6.530
 5065POPC   C3A66305  36.286   0.597   6.951
 5065POPC   C4A66306  36.077   0.776   7.294
 5065POPC   C1B66307  35.708   0.294   6.195
 5065POPC   C2B66308  35.829   0.142   6.613
 5065POPC   C3B66309  35.756   0.248   7.050
 5065POPC   C4B66310  36.025   0.284   7.385
 5066POPC   NC366311  44.208   5.661   5.422
 5066POPC   PO466312  43.762   6.202   5.340
 5066POPC   GL166313  43.796   5.983   5.749
 5066POPC   GL266314  44.016   5.745   5.861
 5066POPC   C1A66315  43.674   5.857   6.195
 5066POPC   D2A66316  43.863   5.609   6.491
 5066POPC   C3A66317  43.701   5.670   6.909
 5066POPC   C4A66318  43.760   5.870   7.307
 5066POPC   C1B66319  44.149   6.089   6.129
 5066POPC   C2B66320  44.181   6.029   6.580
 5066POPC   C3B66321  44.296   6.251   6.957
 5066POPC   C4B66322  44.121   6.220   7.380
 5067POPC   NC366323  19.927   5.249   5.352
 5067POPC   PO466324  19.563   4.744   5.469
 5067POPC   GL166325  19.823   4.989   5.780
 5067POPC   GL266326  20.055   5.286   5.833
 5067POPC   C1A66327  19.826   4.988   6.205
 5067POPC   D2A66328  19.601   5.131   6.530
 5067POPC   C3A66329  19.711   4.881   6.873
 5067POPC   C4A66330  19.701   5.013   7.278
 5067POPC   C1B66331  20.032   5.506   6.204
 5067POPC   C2B66332  19.921   5.612   6.589
 5067POPC   C3B66333  19.773   5.409   6.929
 5067POPC   C4B66334  19.862   5.492   7.310
 5068POPC   NC366335  21.689  33.181   5.299
 5068POPC   PO466336  21.340  32.623   5.521
 5068POPC   GL166337  21.413  33.031   5.800
 5068POPC   GL266338  21.101  33.262   5.888
 5068POPC   C1A66339  21.497  33.130   6.255
 5068POPC   D2A66340  21.634  32.843   6.611
 5068POPC   C3A66341  21.429  32.908   6.992
 5068POPC   C4A66342  21.409  33.344   7.168
 5068POPC   C1B66343  20.959  32.978   6.170
 5068POPC   C2B66344  21.128  32.857   6.539
 5068POPC   C3B66345  20.984  32.596   6.824
 5068POPC   C4B66346  21.014  32.736   7.232
 5069POPC   NC366347  13.216   9.172   5.432
 5069POPC   PO466348  12.598   8.849   5.391
 5069POPC   GL166349  12.866   8.823   5.741
 5069POPC   GL266350  12.887   9.133   5.846
 5069POPC   C1A66351  12.753   8.682   6.163
 5069POPC   D2A66352  12.768   8.771   6.596
 5069POPC   C3A66353  13.009   8.700   6.955
 5069POPC   C4A66354  12.911   8.626   7.392
 5069POPC   C1B66355  12.708   9.187   6.244
 5069POPC   C2B66356  12.915   9.286   6.606
 5069POPC   C3B66357  13.054   9.304   6.985
 5069POPC   C4B66358  12.794   9.096   7.254
 5070POPC   NC366359  13.324  37.169   5.386
 5070POPC   PO466360  13.534  36.581   5.269
 5070POPC   GL166361  13.677  36.801   5.702
 5070POPC   GL266362  13.421  36.926   5.903
 5070POPC   C1A66363  13.932  37.005   6.072
 5070POPC   D2A66364  14.060  37.000   6.541
 5070POPC   C3A66365  13.775  37.101   6.884
 5070POPC   C4A66366  13.699  37.050   7.326
 5070POPC   C1B66367  13.595  36.671   6.263
 5070POPC   C2B66368  13.751  36.583   6.707
 5070POPC   C3B66369  13.423  36.746   7.015
 5070POPC   C4B66370  13.241  37.190   7.116
 5071POPC   NC366371  26.967  35.710   5.407
 5071POPC   PO466372  26.962  35.041   5.449
 5071POPC   GL166373  26.844  35.237   5.854
 5071POPC   GL266374  26.762  35.599   5.859
 5071POPC   C1A66375  26.632  35.282   6.247
 5071POPC   D2A66376  26.708  35.427   6.665
 5071POPC   C3A66377  26.601  35.221   7.031
 5071POPC   C4A66378  26.645  34.963   7.375
 5071POPC   C1B66379  26.930  35.709   6.275
 5071POPC   C2B66380  27.051  35.784   6.711
 5071POPC   C3B66381  26.912  35.633   7.161
 5071POPC   C4B66382  26.903  35.339   7.559
 5072POPC   NC366383  10.592  24.200   5.580
 5072POPC   PO466384  10.761  23.546   5.451
 5072POPC   GL166385  10.528  23.720   5.809
 5072POPC   GL266386  10.783  23.912   5.936
 5072POPC   C1A66387  10.331  23.838   6.230
 5072POPC   D2A66388  10.137  23.931   6.655
 5072POPC   C3A66389  10.411  23.744   6.978
 5072POPC   C4A66390  10.616  23.618   7.350
 5072POPC   C1B66391  10.767  24.112   6.331
 5072POPC   C2B66392  10.795  23.783   6.634
 5072POPC   C3B66393  10.959  23.873   7.031
 5072POPC   C4B66394  11.008  23.928   7.464
 5073POPC   NC366395  37.788  13.097   5.419
 5073POPC   PO466396  37.263  12.725   5.353
 5073POPC   GL166397  37.592  12.748   5.766
 5073POPC   GL266398  37.855  12.438   5.842
 5073POPC   C1A66399  37.734  13.097   6.082
 5073POPC   D2A66400  37.924  13.248   6.485
 5073POPC   C3A66401  37.916  12.905   6.783
 5073POPC   C4A66402  37.633  13.018   7.142
 5073POPC   C1B66403  37.860  12.628   6.235
 5073POPC   C2B66404  37.510  12.751   6.443
 5073POPC   C3B66405  37.452  12.634   6.828
 5073POPC   C4B66406  37.348  12.580   7.216
 5074POPC   NC366407  14.613   9.328   5.738
 5074POPC   PO466408  14.457   8.912   5.212
 5074POPC   GL166409  14.529   8.828   5.680
 5074POPC   GL266410  14.446   8.524   5.773
 5074POPC   C1A66411  14.351   8.908   6.140
 5074POPC   D2A66412  14.508   9.163   6.463
 5074POPC   C3A66413  14.479   8.980   6.851
 5074POPC   C4A66414  14.705   9.066   7.203
 5074POPC   C1B66415  14.184   8.441   6.160
 5074POPC   C2B66416  14.338   8.525   6.574
 5074POPC   C3B66417  14.144   8.622   6.959
 5074POPC   C4B66418  14.298   8.753   7.313
 5075POPC   NC366419  16.247  33.850   5.422
 5075POPC   PO466420  16.841  33.483   5.542
 5075POPC   GL166421  16.837  33.764   5.891
 5075POPC   GL266422  16.491  33.725   5.867
 5075POPC   C1A66423  16.916  33.791   6.364
 5075POPC   D2A66424  16.944  33.637   6.801
 5075POPC   C3A66425  16.911  33.945   7.164
 5075POPC   C4A66426  17.059  34.069   7.614
 5075POPC   C1B66427  16.399  33.789   6.296
 5075POPC   C2B66428  16.509  33.907   6.729
 5075POPC   C3B66429  16.430  33.754   7.167
 5075POPC   C4B66430  16.245  33.789   7.592
 5076POPC   NC366431  42.162  43.421   5.363
 5076POPC   PO466432  42.051  42.753   5.458
 5076POPC   GL166433  42.315  42.981   5.783
 5076POPC   GL266434  42.317  43.334   5.826
 5076POPC   C1A66435  42.300  43.094   6.257
 5076POPC   D2A66436  42.176  43.361   6.621
 5076POPC   C3A66437  42.420  43.274   6.993
 5076POPC   C4A66438  42.472  43.253   7.459
 5076POPC   C1B66439  41.983  43.507   6.136
 5076POPC   C2B66440  41.819  43.741   6.513
 5076POPC   C3B66441  41.978  43.744   6.949
 5076POPC   C4B66442  42.004  43.398   7.248
 5077POPC   NC366443  23.695  40.622   5.336
 5077POPC   PO466444  23.317  41.142   5.558
 5077POPC   GL166445  23.647  40.846   5.801
 5077POPC   GL266446  23.899  40.551   5.817
 5077POPC   C1A66447  23.608  40.656   6.219
 5077POPC   D2A66448  23.370  40.812   6.565
 5077POPC   C3A66449  23.596  40.718   6.906
 5077POPC   C4A66450  23.524  40.799   7.322
 5077POPC   C1B66451  24.095  40.862   6.089
 5077POPC   C2B66452  24.198  40.849   6.536
 5077POPC   C3B66453  24.130  41.084   6.939
 5077POPC   C4B66454  23.952  41.088   7.356
 5078POPC   NC366455  43.592   4.077   5.120
 5078POPC   PO466456  43.040   3.998   5.565
 5078POPC   GL166457  43.239   4.009   6.015
 5078POPC   GL266458  43.265   4.359   6.098
 5078POPC   C1A66459  43.458   4.067   6.461
 5078POPC   D2A66460  43.568   4.389   6.813
 5078POPC   C3A66461  43.197   4.480   7.094
 5078POPC   C4A66462  42.864   4.148   7.200
 5078POPC   C1B66463  42.991   4.281   6.485
 5078POPC   C2B66464  42.755   4.494   6.840
 5078POPC   C3B66465  42.752   4.655   7.293
 5078POPC   C4B66466  42.776   5.027   7.560
 5079POPC   NC366467  22.336  20.705   5.281
 5079POPC   PO466468  21.708  20.442   5.435
 5079POPC   GL166469  21.941  20.712   5.667
 5079POPC   GL266470  22.176  20.439   5.706
 5079POPC   C1A66471  22.045  20.761   6.125
 5079POPC   D2A66472  22.448  20.816   6.390
 5079POPC   C3A66473  22.490  20.767   6.831
 5079POPC   C4A66474  22.251  20.855   7.206
 5079POPC   C1B66475  22.404  20.393   6.077
 5079POPC   C2B66476  22.380  20.325   6.544
 5079POPC   C3B66477  22.265  20.214   6.985
 5079POPC   C4B66478  22.224  20.324   7.431
 5080POPC   NC366479  28.292  41.090   5.119
 5080POPC   PO466480  27.655  40.990   5.441
 5080POPC   GL166481  27.576  40.612   5.765
 5080POPC   GL266482  27.365  40.883   5.915
 5080POPC   C1A66483  27.485  40.510   6.231
 5080POPC   D2A66484  27.282  40.767   6.545
 5080POPC   C3A66485  27.464  40.835   6.937
 5080POPC   C4A66486  27.570  40.586   7.247
 5080POPC   C1B66487  27.814  40.893   6.097
 5080POPC   C2B66488  27.834  40.810   6.517
 5080POPC   C3B66489  27.994  40.895   6.888
 5080POPC   C4B66490  27.874  41.062   7.232
 5081POPC   NC366491   4.802   4.120   5.036
 5081POPC   PO466492   4.362   4.549   5.388
 5081POPC   GL166493   4.292   4.442   5.854
 5081POPC   GL266494   4.510   4.247   5.936
 5081POPC   C1A66495   4.225   4.339   6.332
 5081POPC   D2A66496   4.378   4.094   6.701
 5081POPC   C3A66497   4.344   4.339   7.064
 5081POPC   C4A66498   3.963   4.603   7.149
 5081POPC   C1B66499   4.722   4.149   6.329
 5081POPC   C2B66500   4.858   3.873   6.653
 5081POPC   C3B66501   4.690   3.897   7.072
 5081POPC   C4B66502   4.453   4.017   7.482
 5082POPC   NC366503  17.815  36.903   5.343
 5082POPC   PO466504  17.200  37.235   5.512
 5082POPC   GL166505  17.470  36.918   5.755
 5082POPC   GL266506  17.852  37.041   5.815
 5082POPC   C1A66507  17.375  36.865   6.211
 5082POPC   D2A66508  17.297  37.137   6.607
 5082POPC   C3A66509  17.363  36.925   7.030
 5082POPC   C4A66510  17.426  36.835   7.476
 5082POPC   C1B66511  17.815  37.119   6.216
 5082POPC   C2B66512  17.740  36.900   6.579
 5082POPC   C3B66513  17.803  37.118   6.914
 5082POPC   C4B66514  17.968  37.045   7.287
 5083POPC   NC366515   7.652  28.471   5.317
 5083POPC   PO466516   7.046  28.136   5.402
 5083POPC   GL166517   7.213  28.033   5.868
 5083POPC   GL266518   7.404  28.332   5.753
 5083POPC   C1A66519   7.588  28.119   6.170
 5083POPC   D2A66520   7.635  28.338   6.550
 5083POPC   C3A66521   7.271  28.373   6.838
 5083POPC   C4A66522   7.392  28.173   7.212
 5083POPC   C1B66523   7.434  28.628   6.071
 5083POPC   C2B66524   7.333  28.734   6.477
 5083POPC   C3B66525   7.603  28.791   6.832
 5083POPC   C4B66526   7.460  28.662   7.217
 5084POPC   NC366527  37.432  33.680   5.463
 5084POPC   PO466528  38.147  33.583   5.394
 5084POPC   GL166529  37.868  33.722   5.711
 5084POPC   GL266530  37.800  33.388   5.828
 5084POPC   C1A66531  37.826  33.794   6.156
 5084POPC   D2A66532  37.589  33.814   6.555
 5084POPC   C3A66533  37.768  33.990   6.931
 5084POPC   C4A66534  37.989  34.027   7.378
 5084POPC   C1B66535  37.407  33.439   6.096
 5084POPC   C2B66536  37.273  33.366   6.524
 5084POPC   C3B66537  37.467  33.487   6.925
 5084POPC   C4B66538  37.569  33.720   7.315
 5085POPC   NC366539  20.875  21.133   5.322
 5085POPC   PO466540  20.249  21.307   5.494
 5085POPC   GL166541  20.511  21.561   5.752
 5085POPC   GL266542  20.755  21.301   5.800
 5085POPC   C1A66543  20.593  21.582   6.207
 5085POPC   D2A66544  20.818  21.599   6.589
 5085POPC   C3A66545  20.668  21.451   6.962
 5085POPC   C4A66546  20.354  21.529   7.251
 5085POPC   C1B66547  20.930  21.190   6.209
 5085POPC   C2B66548  20.749  21.042   6.579
 5085POPC   C3B66549  20.858  20.964   6.976
 5085POPC   C4B66550  20.630  21.092   7.327
 5086POPC   NC366551   1.568  12.043   5.302
 5086POPC   PO466552   0.949  12.005   5.319
 5086POPC   GL166553   1.177  12.150   5.722
 5086POPC   GL266554   1.403  11.909   5.829
 5086POPC   C1A66555   1.234  12.168   6.213
 5086POPC   D2A66556   1.319  11.958   6.602
 5086POPC   C3A66557   1.171  12.113   6.966
 5086POPC   C4A66558   1.115  12.122   7.389
 5086POPC   C1B66559   1.658  11.802   6.232
 5086POPC   C2B66560   1.760  11.747   6.703
 5086POPC   C3B66561   1.422  11.663   7.043
 5086POPC   C4B66562   1.494  11.720   7.505
 5087POPC   NC366563  13.869  10.613   5.441
 5087POPC   PO466564  13.252  10.326   5.350
 5087POPC   GL166565  13.474  10.483   5.739
 5087POPC   GL266566  13.738  10.264   5.835
 5087POPC   C1A66567  13.691  10.749   6.053
 5087POPC   D2A66568  13.887  10.889   6.419
 5087POPC   C3A66569  13.650  10.640   6.684
 5087POPC   C4A66570  13.516  10.612   7.090
 5087POPC   C1B66571  13.866  10.331   6.276
 5087POPC   C2B66572  13.906  10.201   6.704
 5087POPC   C3B66573  14.035  10.398   7.103
 5087POPC   C4B66574  13.950  10.193   7.546
 5088POPC   NC366575  32.519   9.220   5.502
 5088POPC   PO466576  31.960   8.924   5.320
 5088POPC   GL166577  32.231   8.864   5.733
 5088POPC   GL266578  32.269   9.189   5.939
 5088POPC   C1A66579  32.362   8.771   6.182
 5088POPC   D2A66580  32.186   8.974   6.551
 5088POPC   C3A66581  32.247   8.802   6.958
 5088POPC   C4A66582  32.165   8.877   7.376
 5088POPC   C1B66583  32.509   9.328   6.326
 5088POPC   C2B66584  32.304   9.476   6.710
 5088POPC   C3B66585  32.240   9.322   7.115
 5088POPC   C4B66586  32.507   9.247   7.434
 5089POPC   NC366587  14.937  32.872   4.881
 5089POPC   PO466588  15.258  32.927   5.378
 5089POPC   GL166589  15.202  32.877   5.821
 5089POPC   GL266590  14.875  33.022   5.797
 5089POPC   C1A66591  15.404  32.939   6.265
 5089POPC   D2A66592  15.550  33.127   6.682
 5089POPC   C3A66593  15.387  33.011   7.130
 5089POPC   C4A66594  15.258  32.744   7.499
 5089POPC   C1B66595  14.916  33.092   6.262
 5089POPC   C2B66596  15.031  33.053   6.724
 5089POPC   C3B66597  14.879  32.926   7.149
 5089POPC   C4B66598  14.907  33.105   7.551
 5090POPC   NC366599  11.296  38.837   5.350
 5090POPC   PO466600  11.127  39.492   5.398
 5090POPC   GL166601  11.162  39.352   5.786
 5090POPC   GL266602  11.076  39.034   5.789
 5090POPC   C1A66603  11.313  39.245   6.176
 5090POPC   D2A66604  11.586  39.347   6.459
 5090POPC   C3A66605  11.444  39.390   6.874
 5090POPC   C4A66606  11.735  39.324   7.206
 5090POPC   C1B66607  11.056  38.811   6.197
 5090POPC   C2B66608  11.366  38.859   6.559
 5090POPC   C3B66609  11.528  38.906   6.972
 5090POPC   C4B66610  11.331  39.055   7.390
 5091POPC   NC366611   7.048   6.749   5.317
 5091POPC   PO466612   6.501   6.403   5.117
 5091POPC   GL166613   6.658   6.505   5.556
 5091POPC   GL266614   6.628   6.881   5.582
 5091POPC   C1A66615   6.649   6.404   6.009
 5091POPC   D2A66616   6.640   6.572   6.456
 5091POPC   C3A66617   6.599   6.321   6.837
 5091POPC   C4A66618   6.563   6.407   7.272
 5091POPC   C1B66619   6.647   6.925   6.048
 5091POPC   C2B66620   6.887   7.032   6.426
 5091POPC   C3B66621   6.979   6.969   6.867
 5091POPC   C4B66622   6.665   6.911   7.177
 5092POPC   NC366623  42.219  29.395   5.509
 5092POPC   PO466624  42.020  28.819   5.453
 5092POPC   GL166625  42.172  29.009   5.827
 5092POPC   GL266626  42.531  29.013   5.734
 5092POPC   C1A66627  42.087  29.238   6.214
 5092POPC   D2A66628  42.061  29.364   6.677
 5092POPC   C3A66629  41.974  29.233   7.127
 5092POPC   C4A66630  42.181  29.399   7.508
 5092POPC   C1B66631  42.717  29.023   6.148
 5092POPC   C2B66632  42.488  29.131   6.513
 5092POPC   C3B66633  42.449  29.057   6.939
 5092POPC   C4B66634  42.814  28.951   7.172
 5093POPC   NC366635  36.493  21.530   5.436
 5093POPC   PO466636  36.276  20.869   5.403
 5093POPC   GL166637  36.346  21.079   5.829
 5093POPC   GL266638  35.992  21.013   5.973
 5093POPC   C1A66639  36.257  21.471   6.114
 5093POPC   D2A66640  36.431  21.764   6.459
 5093POPC   C3A66641  36.261  21.765   6.892
 5093POPC   C4A66642  35.861  21.599   7.062
 5093POPC   C1B66643  35.803  21.196   6.293
 5093POPC   C2B66644  36.028  21.428   6.578
 5093POPC   C3B66645  36.450  21.316   6.714
 5093POPC   C4B66646  36.469  21.130   7.100
 5094POPC   NC366647  43.326  11.773   5.447
 5094POPC   PO466648  42.974  12.334   5.527
 5094POPC   GL166649  43.148  12.257   5.895
 5094POPC   GL266650  43.461  12.111   5.799
 5094POPC   C1A66651  43.130  12.105   6.312
 5094POPC   D2A66652  43.076  12.323   6.700
 5094POPC   C3A66653  43.146  12.024   7.013
 5094POPC   C4A66654  42.995  11.826   7.398
 5094POPC   C1B66655  43.609  12.251   6.200
 5094POPC   C2B66656  43.553  12.156   6.627
 5094POPC   C3B66657  43.514  12.386   7.009
 5094POPC   C4B66658  43.306  12.288   7.424
 5095POPC   NC366659  15.084  35.262   4.936
 5095POPC   PO466660  15.294  35.764   5.345
 5095POPC   GL166661  15.434  35.783   5.777
 5095POPC   GL266662  15.104  35.657   5.864
 5095POPC   C1A66663  15.525  35.583   6.187
 5095POPC   D2A66664  15.277  35.419   6.554
 5095POPC   C3A66665  15.420  35.433   6.998
 5095POPC   C4A66666  15.264  35.288   7.409
 5095POPC   C1B66667  14.883  35.436   6.217
 5095POPC   C2B66668  14.726  35.493   6.655
 5095POPC   C3B66669  14.789  35.376   7.110
 5095POPC   C4B66670  14.803  35.431   7.582
 5096POPC   NC366671  25.552  18.413   4.976
 5096POPC   PO466672  25.114  17.994   5.376
 5096POPC   GL166673  25.052  18.305   5.648
 5096POPC   GL266674  25.415  18.419   5.574
 5096POPC   C1A66675  24.848  18.340   6.049
 5096POPC   D2A66676  25.097  18.253   6.435
 5096POPC   C3A66677  25.318  18.058   6.769
 5096POPC   C4A66678  25.172  18.059   7.166
 5096POPC   C1B66679  25.323  18.528   6.023
 5096POPC   C2B66680  25.379  18.677   6.456
 5096POPC   C3B66681  25.247  18.546   6.872
 5096POPC   C4B66682  25.419  18.500   7.264
 5097POPC   NC366683  14.089   2.895   5.440
 5097POPC   PO466684  14.537   2.453   5.406
 5097POPC   GL166685  14.380   2.632   5.757
 5097POPC   GL266686  14.092   2.453   5.724
 5097POPC   C1A66687  14.399   2.862   6.150
 5097POPC   D2A66688  14.538   3.061   6.537
 5097POPC   C3A66689  14.511   2.776   6.881
 5097POPC   C4A66690  14.410   2.698   7.286
 5097POPC   C1B66691  14.178   2.380   6.155
 5097POPC   C2B66692  14.171   2.573   6.546
 5097POPC   C3B66693  14.203   2.357   6.947
 5097POPC   C4B66694  14.099   2.298   7.393
 5098POPC   NC366695   6.895  27.046   5.616
 5098POPC   PO466696   6.884  26.431   5.517
 5098POPC   GL166697   6.853  26.620   5.900
 5098POPC   GL266698   6.525  26.752   5.887
 5098POPC   C1A66699   6.764  26.825   6.308
 5098POPC   D2A66700   6.556  26.602   6.607
 5098POPC   C3A66701   6.645  26.686   6.997
 5098POPC   C4A66702   6.683  27.018   7.304
 5098POPC   C1B66703   6.202  26.574   6.182
 5098POPC   C2B66704   6.081  26.401   6.606
 5098POPC   C3B66705   6.088  26.541   7.029
 5098POPC   C4B66706   6.321  26.646   7.396
 5099POPC   NC366707  37.359  30.191   5.071
 5099POPC   PO466708  37.731  29.666   5.345
 5099POPC   GL166709  37.623  29.858   5.756
 5099POPC   GL266710  37.381  30.058   5.960
 5099POPC   C1A66711  37.751  29.800   6.194
 5099POPC   D2A66712  37.593  29.707   6.608
 5099POPC   C3A66713  37.949  29.804   6.862
 5099POPC   C4A66714  38.001  30.070   7.205
 5099POPC   C1B66715  37.489  30.219   6.372
 5099POPC   C2B66716  37.577  30.201   6.834
 5099POPC   C3B66717  37.391  30.252   7.251
 5099POPC   C4B66718  37.377  30.443   7.720
 5100POPC   NC366719  25.479  15.878   5.467
 5100POPC   PO466720  24.813  15.940   5.242
 5100POPC   GL166721  25.026  15.992   5.661
 5100POPC   GL266722  24.973  15.705   5.866
 5100POPC   C1A66723  25.267  16.147   6.073
 5100POPC   D2A66724  25.448  16.038   6.506
 5100POPC   C3A66725  25.175  16.085   6.890
 5100POPC   C4A66726  25.436  16.074   7.268
 5100POPC   C1B66727  25.301  15.653   6.156
 5100POPC   C2B66728  25.356  15.544   6.551
 5100POPC   C3B66729  25.491  15.695   6.902
 5100POPC   C4B66730  25.321  15.546   7.244
 5101POPC   NC366731  17.761   6.451   5.544
 5101POPC   PO466732  17.247   6.888   5.406
 5101POPC   GL166733  17.583   6.857   5.781
 5101POPC   GL266734  17.600   6.550   6.011
 5101POPC   C1A66735  17.793   6.974   6.165
 5101POPC   D2A66736  17.582   6.934   6.552
 5101POPC   C3A66737  17.666   6.541   6.765
 5101POPC   C4A66738  17.607   6.675   7.174
 5101POPC   C1B66739  17.434   6.263   6.324
 5101POPC   C2B66740  17.346   6.095   6.703
 5101POPC   C3B66741  17.214   6.233   7.075
 5101POPC   C4B66742  17.475   6.236   7.393
 5102POPC   NC366743  10.634  24.595   5.133
 5102POPC   PO466744  10.154  24.349   5.526
 5102POPC   GL166745  10.341  24.703   5.749
 5102POPC   GL266746  10.109  24.982   5.866
 5102POPC   C1A66747  10.542  24.629   6.156
 5102POPC   D2A66748  10.745  24.653   6.579
 5102POPC   C3A66749  10.551  24.654   7.008
 5102POPC   C4A66750  10.484  24.633   7.461
 5102POPC   C1B66751  10.035  24.657   6.208
 5102POPC   C2B66752  10.253  24.451   6.569
 5102POPC   C3B66753  10.555  24.203   6.801
 5102POPC   C4B66754  10.608  24.180   7.242
 5103POPC   NC366755  11.573  24.427   5.431
 5103POPC   PO466756  10.951  24.249   5.277
 5103POPC   GL166757  11.072  24.473   5.699
 5103POPC   GL266758  11.400  24.672   5.829
 5103POPC   C1A66759  11.041  24.572   6.147
 5103POPC   D2A66760  11.264  24.613   6.496
 5103POPC   C3A66761  11.069  24.327   6.804
 5103POPC   C4A66762  11.161  24.359   7.239
 5103POPC   C1B66763  11.651  24.365   6.078
 5103POPC   C2B66764  11.654  24.262   6.496
 5103POPC   C3B66765  11.545  24.468   6.893
 5103POPC   C4B66766  11.670  24.270   7.256
 5104POPC   NC366767  34.672  23.159   5.485
 5104POPC   PO466768  34.427  22.589   5.305
 5104POPC   GL166769  34.646  22.506   5.703
 5104POPC   GL266770  34.887  22.793   5.803
 5104POPC   C1A66771  34.587  22.570   6.157
 5104POPC   D2A66772  34.541  22.909   6.457
 5104POPC   C3A66773  34.586  22.815   6.908
 5104POPC   C4A66774  34.417  22.987   7.305
 5104POPC   C1B66775  35.015  22.951   6.239
 5104POPC   C2B66776  34.911  23.205   6.641
 5104POPC   C3B66777  34.814  23.254   7.086
 5104POPC   C4B66778  34.798  23.282   7.550
 5105POPC   NC366779  27.874  23.874   5.353
 5105POPC   PO466780  27.335  23.467   5.203
 5105POPC   GL166781  27.461  23.626   5.701
 5105POPC   GL266782  27.776  23.745   5.825
 5105POPC   C1A66783  27.467  23.670   6.201
 5105POPC   D2A66784  27.331  23.620   6.636
 5105POPC   C3A66785  27.502  23.664   7.018
 5105POPC   C4A66786  27.629  23.379   7.306
 5105POPC   C1B66787  27.856  24.008   6.216
 5105POPC   C2B66788  27.710  23.990   6.651
 5105POPC   C3B66789  27.923  23.945   7.059
 5105POPC   C4B66790  27.833  24.019   7.495
 5106POPC   NC366791   7.648  10.432   5.524
 5106POPC   PO466792   8.292  10.468   5.380
 5106POPC   GL166793   8.304  10.604   5.807
 5106POPC   GL266794   7.981  10.751   5.851
 5106POPC   C1A66795   8.389  10.331   6.182
 5106POPC   D2A66796   8.237  10.326   6.614
 5106POPC   C3A66797   8.478  10.216   6.953
 5106POPC   C4A66798   8.404  10.500   7.267
 5106POPC   C1B66799   8.096  10.727   6.302
 5106POPC   C2B66800   7.994  10.820   6.747
 5106POPC   C3B66801   7.931  10.758   7.206
 5106POPC   C4B66802   7.766  10.861   7.642
 5107POPC   NC366803  29.435   6.480   5.523
 5107POPC   PO466804  28.845   6.844   5.427
 5107POPC   GL166805  29.020   6.768   5.823
 5107POPC   GL266806  28.937   6.415   5.751
 5107POPC   C1A66807  29.130   6.857   6.277
 5107POPC   D2A66808  29.055   6.912   6.719
 5107POPC   C3A66809  29.367   6.730   6.996
 5107POPC   C4A66810  29.454   6.339   7.187
 5107POPC   C1B66811  28.963   6.374   6.189
 5107POPC   C2B66812  29.129   6.437   6.595
 5107POPC   C3B66813  28.939   6.426   7.018
 5107POPC   C4B66814  28.866   6.101   7.329
 5108POPC   NC366815  42.912  32.864   5.314
 5108POPC   PO466816  43.329  33.167   5.101
 5108POPC   GL166817  43.215  33.021   5.676
 5108POPC   GL266818  43.169  32.654   5.720
 5108POPC   C1A66819  43.114  33.041   6.192
 5108POPC   D2A66820  42.948  33.057   6.691
 5108POPC   C3A66821  43.205  33.279   7.021
 5108POPC   C4A66822  43.438  33.392   7.403
 5108POPC   C1B66823  43.328  32.512   6.128
 5108POPC   C2B66824  43.203  32.656   6.535
 5108POPC   C3B66825  43.253  32.739   6.963
 5108POPC   C4B66826  43.547  32.478   7.195
 5109POPC   NC366827  16.594   2.215   5.370
 5109POPC   PO466828  17.058   1.691   5.434
 5109POPC   GL166829  16.798   1.863   5.773
 5109POPC   GL266830  16.838   2.213   5.824
 5109POPC   C1A66831  16.697   1.954   6.229
 5109POPC   D2A66832  16.611   2.321   6.463
 5109POPC   C3A66833  16.598   2.205   6.899
 5109POPC   C4A66834  16.474   1.901   7.225
 5109POPC   C1B66835  17.071   2.374   6.193
 5109POPC   C2B66836  17.076   2.152   6.583
 5109POPC   C3B66837  16.877   1.778   6.779
 5109POPC   C4B66838  16.945   1.708   7.222
 5110POPC   NC366839   2.147  33.437   5.488
 5110POPC   PO466840   2.013  32.794   5.404
 5110POPC   GL166841   2.052  32.904   5.811
 5110POPC   GL266842   1.718  32.777   5.851
 5110POPC   C1A66843   2.178  32.977   6.253
 5110POPC   D2A66844   2.106  33.208   6.672
 5110POPC   C3A66845   2.138  32.945   7.050
 5110POPC   C4A66846   2.318  33.092   7.442
 5110POPC   C1B66847   1.682  32.926   6.269
 5110POPC   C2B66848   1.759  32.837   6.698
 5110POPC   C3B66849   1.664  33.109   7.048
 5110POPC   C4B66850   1.669  33.075   7.501
 5111POPC   NC366851  34.792   0.824   5.379
 5111POPC   PO466852  34.395   0.280   5.295
 5111POPC   GL166853  34.487   0.226   5.751
 5111POPC   GL266854  34.856   0.229   5.773
 5111POPC   C1A66855  34.573   0.457   6.162
 5111POPC   D2A66856  34.522   0.708   6.555
 5111POPC   C3A66857  34.608   0.635   7.015
 5111POPC   C4A66858  34.379   0.653   7.468
 5111POPC   C1B66859  34.754  44.969   6.143
 5111POPC   C2B66860  34.519   0.061   6.516
 5111POPC   C3B66861  34.531   0.101   6.965
 5111POPC   C4B66862  34.702   0.276   7.367
 5112POPC   NC366863  24.162  33.524   5.632
 5112POPC   PO466864  23.521  33.577   5.328
 5112POPC   GL166865  23.627  33.801   5.730
 5112POPC   GL266866  23.952  33.983   5.788
 5112POPC   C1A66867  23.606  33.921   6.185
 5112POPC   D2A66868  23.724  33.753   6.578
 5112POPC   C3A66869  23.546  33.898   6.965
 5112POPC   C4A66870  23.380  33.659   7.338
 5112POPC   C1B66871  24.109  33.780   6.203
 5112POPC   C2B66872  24.239  33.701   6.626
 5112POPC   C3B66873  24.024  33.673   7.018
 5112POPC   C4B66874  24.104  33.546   7.442
 5113POPC   NC366875  23.596  13.582   5.346
 5113POPC   PO466876  24.174  13.381   5.591
 5113POPC   GL166877  23.923  13.672   5.878
 5113POPC   GL266878  23.554  13.717   5.842
 5113POPC   C1A66879  23.783  13.752   6.329
 5113POPC   D2A66880  23.787  13.848   6.783
 5113POPC   C3A66881  23.685  13.568   7.136
 5113POPC   C4A66882  23.759  13.290   7.497
 5113POPC   C1B66883  23.387  13.450   6.176
 5113POPC   C2B66884  23.348  13.615   6.592
 5113POPC   C3B66885  23.288  13.888   6.959
 5113POPC   C4B66886  23.528  14.035   7.296
 5114POPC   NC366887   7.028  26.166   5.161
 5114POPC   PO466888   7.523  25.763   5.501
 5114POPC   GL166889   7.636  26.010   5.877
 5114POPC   GL266890   7.713  26.352   5.819
 5114POPC   C1A66891   7.855  26.171   6.275
 5114POPC   D2A66892   7.864  26.381   6.686
 5114POPC   C3A66893   7.516  26.235   6.959
 5114POPC   C4A66894   7.585  26.012   7.354
 5114POPC   C1B66895   7.382  26.364   6.181
 5114POPC   C2B66896   7.040  26.430   6.487
 5114POPC   C3B66897   6.956  26.246   6.896
 5114POPC   C4B66898   7.112  25.884   7.145
 5115POPC   NC366899   9.641  43.592   5.372
 5115POPC   PO466900  10.065  44.096   5.393
 5115POPC   GL166901  10.091  43.779   5.758
 5115POPC   GL266902   9.753  43.696   5.832
 5115POPC   C1A66903  10.044  43.800   6.237
 5115POPC   D2A66904   9.814  44.141   6.489
 5115POPC   C3A66905   9.734  44.013   6.931
 5115POPC   C4A66906   9.973  43.793   7.263
 5115POPC   C1B66907   9.557  43.882   6.133
 5115POPC   C2B66908   9.586  43.690   6.525
 5115POPC   C3B66909   9.579  43.516   6.916
 5115POPC   C4B66910   9.486  43.698   7.281
 5116POPC   NC366911  33.278  21.753   5.544
 5116POPC   PO466912  32.850  22.208   5.216
 5116POPC   GL166913  32.954  22.273   5.699
 5116POPC   GL266914  32.739  22.465   5.877
 5116POPC   C1A66915  33.146  22.296   6.170
 5116POPC   D2A66916  33.275  22.510   6.577
 5116POPC   C3A66917  33.057  22.273   6.882
 5116POPC   C4A66918  32.840  22.295   7.277
 5116POPC   C1B66919  32.641  22.134   6.161
 5116POPC   C2B66920  32.708  22.035   6.571
 5116POPC   C3B66921  32.514  22.176   6.917
 5116POPC   C4B66922  32.408  21.977   7.286
 5117POPC   NC366923  39.076  27.017   5.689
 5117POPC   PO466924  39.229  27.683   5.495
 5117POPC   GL166925  39.397  27.731   5.879
 5117POPC   GL266926  39.482  27.377   5.886
 5117POPC   C1A66927  39.196  27.767   6.303
 5117POPC   D2A66928  38.883  27.727   6.645
 5117POPC   C3A66929  39.037  27.611   7.066
 5117POPC   C4A66930  39.062  27.345   7.435
 5117POPC   C1B66931  39.644  27.525   6.276
 5117POPC   C2B66932  39.521  27.626   6.683
 5117POPC   C3B66933  39.690  27.468   7.054
 5117POPC   C4B66934  39.484  27.687   7.351
 5118POPC   NC366935  14.813  21.596   5.563
 5118POPC   PO466936  15.371  21.497   5.136
 5118POPC   GL166937  15.293  21.459   5.687
 5118POPC   GL266938  15.358  21.101   5.854
 5118POPC   C1A66939  15.384  21.476   6.190
 5118POPC   D2A66940  15.498  21.534   6.648
 5118POPC   C3A66941  15.212  21.555   7.018
 5118POPC   C4A66942  15.422  21.515   7.448
 5118POPC   C1B66943  15.116  21.011   6.204
 5118POPC   C2B66944  15.041  21.230   6.592
 5118POPC   C3B66945  14.971  21.031   6.966
 5118POPC   C4B66946  15.045  21.165   7.355
 5119POPC   NC366947   1.621   7.038   5.337
 5119POPC   PO466948   1.119   7.524   5.308
 5119POPC   GL166949   1.057   7.544   5.752
 5119POPC   GL266950   1.096   7.192   5.839
 5119POPC   C1A66951   1.224   7.571   6.178
 5119POPC   D2A66952   1.442   7.764   6.511
 5119POPC   C3A66953   1.335   7.563   6.881
 5119POPC   C4A66954   1.250   7.735   7.273
 5119POPC   C1B66955   1.407   7.073   6.162
 5119POPC   C2B66956   1.560   7.252   6.510
 5119POPC   C3B66957   1.725   7.219   6.897
 5119POPC   C4B66958   1.636   7.384   7.300
 5120POPC   NC366959  27.137  23.852   5.401
 5120POPC   PO466960  26.791  23.383   5.715
 5120POPC   GL166961  26.785  23.774   5.838
 5120POPC   GL266962  27.094  23.909   5.937
 5120POPC   C1A66963  26.666  23.969   6.200
 5120POPC   D2A66964  26.930  23.985   6.570
 5120POPC   C3A66965  26.852  23.616   6.838
 5120POPC   C4A66966  26.645  23.742   7.213
 5120POPC   C1B66967  26.978  23.561   6.284
 5120POPC   C2B66968  27.061  23.178   6.556
 5120POPC   C3B66969  27.080  23.123   7.008
 5120POPC   C4B66970  27.081  23.461   7.274
 5121POPC   NC366971  20.361  27.378   5.491
 5121POPC   PO466972  20.572  28.091   5.290
 5121POPC   GL166973  20.419  27.822   5.737
 5121POPC   GL266974  20.683  27.542   5.861
 5121POPC   C1A66975  20.351  27.710   6.220
 5121POPC   D2A66976  20.664  27.561   6.583
 5121POPC   C3A66977  20.631  27.708   7.042
 5121POPC   C4A66978  20.240  27.664   7.301
 5121POPC   C1B66979  20.830  27.208   6.176
 5121POPC   C2B66980  20.989  27.149   6.583
 5121POPC   C3B66981  20.895  27.227   7.038
 5121POPC   C4B66982  20.976  27.092   7.473
 5122POPC   NC366983   0.464  14.192   5.481
 5122POPC   PO466984   0.576  14.765   5.440
 5122POPC   GL166985   0.392  14.589   5.810
 5122POPC   GL266986   0.706  14.526   5.960
 5122POPC   C1A66987   0.262  14.320   6.154
 5122POPC   D2A66988   0.444  14.179   6.537
 5122POPC   C3A66989   0.436  14.495   6.823
 5122POPC   C4A66990   0.273  14.461   7.229
 5122POPC   C1B66991   0.814  14.520   6.420
 5122POPC   C2B66992   0.960  14.131   6.640
 5122POPC   C3B66993   0.911  14.084   7.070
 5122POPC   C4B66994   0.793  14.501   7.199
 5123POPC   NC366995  44.885  38.477   5.282
 5123POPC   PO466996   0.549  38.420   5.143
 5123POPC   GL166997   0.398  38.399   5.593
 5123POPC   GL266998   0.573  38.131   5.775
 5123POPC   C1A66999   0.400  38.561   6.047
 5123POPC   D2A67000   0.164  38.572   6.471
 5123POPC   C3A67001   0.356  38.700   6.920
 5123POPC   C4A67002   0.287  38.539   7.372
 5123POPC   C1B67003   0.643  38.153   6.228
 5123POPC   C2B67004   0.569  38.314   6.625
 5123POPC   C3B67005   0.585  38.245   7.056
 5123POPC   C4B67006   0.672  38.252   7.485
 5124POPC   NC367007   7.634  21.658   5.604
 5124POPC   PO467008   7.010  21.551   5.306
 5124POPC   GL167009   7.245  21.366   5.705
 5124POPC   GL267010   7.238  21.668   5.914
 5124POPC   C1A67011   7.483  21.223   6.094
 5124POPC   D2A67012   7.345  21.173   6.520
 5124POPC   C3A67013   7.651  21.084   6.814
 5124POPC   C4A67014   7.681  21.011   7.229
 5124POPC   C1B67015   7.554  21.710   6.268
 5124POPC   C2B67016   7.631  21.610   6.716
 5124POPC   C3B67017   7.577  21.511   7.194
 5124POPC   C4B67018   7.444  21.647   7.687
 5125POPC   NC367019  23.652  32.664   5.624
 5125POPC   PO467020  24.083  33.075   5.562
 5125POPC   GL167021  23.854  33.073   5.869
 5125POPC   GL267022  23.573  33.223   5.704
 5125POPC   C1A67023  23.825  33.017   6.282
 5125POPC   D2A67024  23.938  33.272   6.621
 5125POPC   C3A67025  23.785  32.969   6.888
 5125POPC   C4A67026  23.833  32.775   7.264
 5125POPC   C1B67027  23.570  33.430   6.093
 5125POPC   C2B67028  23.446  33.326   6.492
 5125POPC   C3B67029  23.531  33.403   6.910
 5125POPC   C4B67030  23.731  33.284   7.270
 5126POPC   NC367031  19.956  29.963   5.479
 5126POPC   PO467032  20.632  29.931   5.221
 5126POPC   GL167033  20.652  29.899   5.701
 5126POPC   GL267034  20.366  30.066   5.816
 5126POPC   C1A67035  20.715  29.911   6.170
 5126POPC   D2A67036  20.823  30.077   6.578
 5126POPC   C3A67037  20.791  29.876   6.994
 5126POPC   C4A67038  21.041  30.017   7.352
 5126POPC   C1B67039  20.413  30.336   6.199
 5126POPC   C2B67040  20.326  30.268   6.618
 5126POPC   C3B67041  20.276  30.376   7.035
 5126POPC   C4B67042  20.592  30.248   7.301
 5127POPC   NC367043  39.158   1.320   5.050
 5127POPC   PO467044  38.841   1.548   5.601
 5127POPC   GL167045  39.107   1.229   5.746
 5127POPC   GL267046  39.393   1.333   5.948
 5127POPC   C1A67047  39.120   0.933   6.091
 5127POPC   D2A67048  39.381   0.838   6.460
 5127POPC   C3A67049  39.196   0.916   6.868
 5127POPC   C4A67050  39.306   0.890   7.274
 5127POPC   C1B67051  39.112   1.444   6.237
 5127POPC   C2B67052  39.271   1.376   6.644
 5127POPC   C3B67053  39.387   1.344   7.055
 5127POPC   C4B67054  39.190   1.606   7.346
 5128POPC   NC367055  15.561   1.750   5.401
 5128POPC   PO467056  16.126   2.107   5.392
 5128POPC   GL167057  16.207   2.009   5.790
 5128POPC   GL267058  15.852   2.162   5.823
 5128POPC   C1A67059  16.197   2.150   6.210
 5128POPC   D2A67060  15.884   2.197   6.514
 5128POPC   C3A67061  16.026   2.134   6.935
 5128POPC   C4A67062  15.980   1.852   7.247
 5128POPC   C1B67063  15.837   1.796   6.106
 5128POPC   C2B67064  15.981   1.674   6.526
 5128POPC   C3B67065  15.800   1.555   6.897
 5128POPC   C4B67066  15.481   1.745   7.126
 5129POPC   NC367067  35.938  41.836   5.430
 5129POPC   PO467068  36.562  41.530   5.468
 5129POPC   GL167069  36.232  41.456   5.787
 5129POPC   GL267070  35.919  41.635   5.883
 5129POPC   C1A67071  36.274  41.514   6.215
 5129POPC   D2A67072  36.043  41.731   6.491
 5129POPC   C3A67073  36.116  41.619   6.906
 5129POPC   C4A67074  36.151  41.805   7.304
 5129POPC   C1B67075  35.880  41.216   6.096
 5129POPC   C2B67076  35.823  41.280   6.542
 5129POPC   C3B67077  35.908  41.148   6.959
 5129POPC   C4B67078  36.147  41.291   7.307
 5130POPC   NC367079  34.297  26.984   5.432
 5130POPC   PO467080  33.735  27.186   5.404
 5130POPC   GL167081  33.679  26.979   5.810
 5130POPC   GL267082  33.989  26.780   5.858
 5130POPC   C1A67083  33.790  27.105   6.268
 5130POPC   D2A67084  33.932  27.183   6.712
 5130POPC   C3A67085  33.644  27.183   7.060
 5130POPC   C4A67086  33.741  27.275   7.479
 5130POPC   C1B67087  33.856  26.608   6.288
 5130POPC   C2B67088  33.715  26.702   6.732
 5130POPC   C3B67089  33.778  26.718   7.183
 5130POPC   C4B67090  33.883  26.410   7.526
 5131POPC   NC367091  17.082   9.830   5.439
 5131POPC   PO467092  16.387   9.915   5.371
 5131POPC   GL167093  16.563   9.620   5.725
 5131POPC   GL267094  16.807   9.814   5.887
 5131POPC   C1A67095  16.684   9.373   6.142
 5131POPC   D2A67096  16.909   9.440   6.561
 5131POPC   C3A67097  16.681   9.682   6.879
 5131POPC   C4A67098  16.735   9.674   7.336
 5131POPC   C1B67099  16.717   9.868   6.329
 5131POPC   C2B67100  17.040   9.971   6.628
 5131POPC   C3B67101  16.949  10.068   7.050
 5131POPC   C4B67102  16.661  10.162   7.418
 5132POPC   NC367103  39.686  38.284   5.358
 5132POPC   PO467104  40.188  38.656   5.412
 5132POPC   GL167105  40.027  38.467   5.720
 5132POPC   GL267106  39.706  38.668   5.729
 5132POPC   C1A67107  39.994  38.181   6.059
 5132POPC   D2A67108  39.956  38.198   6.494
 5132POPC   C3A67109  40.215  38.153   6.861
 5132POPC   C4A67110  40.099  38.466   7.166
 5132POPC   C1B67111  39.888  38.677   6.150
 5132POPC   C2B67112  39.848  38.910   6.497
 5132POPC   C3B67113  39.769  38.755   6.915
 5132POPC   C4B67114  39.647  38.747   7.368
 5133POPC   NC367115  40.480  29.405   5.521
 5133POPC   PO467116  41.105  29.057   5.368
 5133POPC   GL167117  40.892  29.153   5.748
 5133POPC   GL267118  41.172  29.298   5.878
 5133POPC   C1A67119  40.582  29.065   6.104
 5133POPC   D2A67120  40.449  29.043   6.550
 5133POPC   C3A67121  40.698  28.909   6.891
 5133POPC   C4A67122  40.697  28.934   7.372
 5133POPC   C1B67123  40.946  29.392   6.241
 5133POPC   C2B67124  41.024  29.256   6.651
 5133POPC   C3B67125  40.944  29.304   7.084
 5133POPC   C4B67126  41.230  29.414   7.382
 5134POPC   NC367127   1.828   1.541   4.947
 5134POPC   PO467128   1.948   1.543   5.567
 5134POPC   GL167129   1.947   1.476   5.978
 5134POPC   GL267130   1.698   1.681   6.013
 5134POPC   C1A67131   2.083   1.300   6.372
 5134POPC   D2A67132   2.008   1.473   6.775
 5134POPC   C3A67133   2.270   1.434   7.127
 5134POPC   C4A67134   2.475   1.430   7.557
 5134POPC   C1B67135   1.620   1.523   6.417
 5134POPC   C2B67136   1.502   1.460   6.845
 5134POPC   C3B67137   1.711   1.305   7.217
 5134POPC   C4B67138   1.639   1.264   7.683
 5135POPC   NC367139   3.950  33.253   5.362
 5135POPC   PO467140   4.598  32.940   5.317
 5135POPC   GL167141   4.642  32.916   5.785
 5135POPC   GL267142   4.522  33.250   5.954
 5135POPC   C1A67143   4.438  32.807   6.205
 5135POPC   D2A67144   4.260  32.877   6.624
 5135POPC   C3A67145   4.574  32.989   6.898
 5135POPC   C4A67146   4.694  32.806   7.264
 5135POPC   C1B67147   4.153  33.259   6.285
 5135POPC   C2B67148   3.975  33.364   6.701
 5135POPC   C3B67149   4.177  33.308   7.063
 5135POPC   C4B67150   4.185  32.929   7.238
 5136POPC   NC367151  39.522  30.170   5.428
 5136POPC   PO467152  40.177  29.801   5.513
 5136POPC   GL167153  40.068  30.008   5.854
 5136POPC   GL267154  39.840  30.274   5.813
 5136POPC   C1A67155  40.067  29.943   6.287
 5136POPC   D2A67156  40.199  29.877   6.718
 5136POPC   C3A67157  39.845  29.859   6.976
 5136POPC   C4A67158  39.944  29.652   7.349
 5136POPC   C1B67159  39.866  30.464   6.227
 5136POPC   C2B67160  39.896  30.306   6.613
 5136POPC   C3B67161  39.714  30.376   6.979
 5136POPC   C4B67162  39.482  30.207   7.294
 5137POPC   NC367163   3.923  19.579   5.472
 5137POPC   PO467164   4.553  19.512   5.401
 5137POPC   GL167165   4.557  19.348   5.784
 5137POPC   GL267166   4.218  19.213   5.715
 5137POPC   C1A67167   4.622  19.000   6.081
 5137POPC   D2A67168   4.748  18.948   6.515
 5137POPC   C3A67169   4.519  19.149   6.867
 5137POPC   C4A67170   4.625  19.064   7.273
 5137POPC   C1B67171   4.188  19.249   6.142
 5137POPC   C2B67172   4.228  18.999   6.477
 5137POPC   C3B67173   3.993  19.105   6.825
 5137POPC   C4B67174   4.127  19.206   7.207
 5138POPC   NC367175  42.012   2.527   5.527
 5138POPC   PO467176  42.352   3.129   5.387
 5138POPC   GL167177  42.376   2.840   5.734
 5138POPC   GL267178  42.160   3.004   5.940
 5138POPC   C1A67179  42.440   2.611   6.127
 5138POPC   D2A67180  42.441   2.427   6.537
 5138POPC   C3A67181  42.453   2.669   6.919
 5138POPC   C4A67182  42.463   2.508   7.310
 5138POPC   C1B67183  41.952   2.678   6.233
 5138POPC   C2B67184  41.992   2.613   6.691
 5138POPC   C3B67185  41.975   2.413   7.108
 5138POPC   C4B67186  41.941   2.547   7.577
 5139POPC   NC367187  11.878  22.773   5.305
 5139POPC   PO467188  12.557  22.922   5.366
 5139POPC   GL167189  12.223  22.886   5.717
 5139POPC   GL267190  12.028  23.196   5.762
 5139POPC   C1A67191  12.082  22.865   6.187
 5139POPC   D2A67192  12.309  22.825   6.609
 5139POPC   C3A67193  12.240  22.658   7.049
 5139POPC   C4A67194  12.166  22.949   7.413
 5139POPC   C1B67195  11.978  23.432   6.146
 5139POPC   C2B67196  12.030  23.291   6.560
 5139POPC   C3B67197  11.957  23.075   6.951
 5139POPC   C4B67198  11.750  22.720   7.148
 5140POPC   NC367199  41.921  39.509   5.535
 5140POPC   PO467200  41.315  39.183   5.529
 5140POPC   GL167201  41.414  39.248   5.955
 5140POPC   GL267202  41.749  39.375   5.999
 5140POPC   C1A67203  41.299  39.165   6.379
 5140POPC   D2A67204  41.234  39.284   6.817
 5140POPC   C3A67205  41.292  38.963   7.134
 5140POPC   C4A67206  41.435  38.972   7.610
 5140POPC   C1B67207  41.803  39.314   6.455
 5140POPC   C2B67208  41.724  39.059   6.817
 5140POPC   C3B67209  41.695  39.271   7.210
 5140POPC   C4B67210  41.981  39.537   7.376
 5141POPC   NC367211  20.336   2.066   5.376
 5141POPC   PO467212  19.724   1.877   5.330
 5141POPC   GL167213  19.934   1.852   5.716
 5141POPC   GL267214  20.058   2.153   5.888
 5141POPC   C1A67215  19.815   1.776   6.133
 5141POPC   D2A67216  19.615   1.746   6.522
 5141POPC   C3A67217  19.783   1.686   6.916
 5141POPC   C4A67218  19.869   1.504   7.241
 5141POPC   C1B67219  19.837   2.232   6.339
 5141POPC   C2B67220  19.715   2.187   6.808
 5141POPC   C3B67221  20.007   2.216   7.185
 5141POPC   C4B67222  20.078   2.317   7.650
 5142POPC   NC367223   1.507  22.533   5.435
 5142POPC   PO467224   2.141  22.387   5.325
 5142POPC   GL167225   2.213  22.297   5.784
 5142POPC   GL267226   1.858  22.356   5.830
 5142POPC   C1A67227   2.054  22.096   6.231
 5142POPC   D2A67228   2.106  22.237   6.699
 5142POPC   C3A67229   2.012  21.964   7.078
 5142POPC   C4A67230   1.871  21.705   7.461
 5142POPC   C1B67231   2.069  22.591   6.186
 5142POPC   C2B67232   2.293  22.679   6.534
 5142POPC   C3B67233   2.243  22.715   6.956
 5142POPC   C4B67234   1.937  22.481   7.152
 5143POPC   NC367235  35.848  44.519   5.642
 5143POPC   PO467236  36.483  44.674   5.529
 5143POPC   GL167237  36.230  44.752   5.882
 5143POPC   GL267238  35.906  44.999   5.822
 5143POPC   C1A67239  36.215  44.619   6.332
 5143POPC   D2A67240  36.109  44.390   6.720
 5143POPC   C3A67241  36.307  44.558   7.088
 5143POPC   C4A67242  36.023  44.768   7.342
 5143POPC   C1B67243  36.170   0.119   6.202
 5143POPC   C2B67244  36.433   0.092   6.563
 5143POPC   C3B67245  36.307   0.082   6.995
 5143POPC   C4B67246  36.466   0.009   7.407
 5144POPC   NC367247   0.938   5.051   5.368
 5144POPC   PO467248   0.365   5.375   5.189
 5144POPC   GL167249   0.439   5.266   5.636
 5144POPC   GL267250   0.253   5.506   5.844
 5144POPC   C1A67251   0.500   5.012   6.056
 5144POPC   D2A67252   0.718   4.720   6.393
 5144POPC   C3A67253   0.808   4.810   6.873
 5144POPC   C4A67254   0.557   4.957   7.255
 5144POPC   C1B67255   0.171   5.412   6.304
 5144POPC   C2B67256   0.160   5.565   6.775
 5144POPC   C3B67257   0.154   5.415   7.236
 5144POPC   C4B67258   0.489   5.396   7.582
 5145POPC   NC367259  44.479  41.780   5.460
 5145POPC   PO467260  44.734  41.206   5.408
 5145POPC   GL167261  44.705  41.475   5.839
 5145POPC   GL267262  44.724  41.852   5.926
 5145POPC   C1A67263  44.765  41.531   6.323
 5145POPC   D2A67264  44.996  41.312   6.649
 5145POPC   C3A67265  44.688  41.423   6.959
 5145POPC   C4A67266  44.519  41.814   7.007
 5145POPC   C1B67267  44.939  42.002   6.350
 5145POPC   C2B67268   0.047  41.800   6.768
 5145POPC   C3B67269   0.148  41.551   7.152
 5145POPC   C4B67270   0.246  41.518   7.614
 5146POPC   NC367271   6.800  38.592   5.351
 5146POPC   PO467272   6.117  38.606   5.379
 5146POPC   GL167273   6.400  38.438   5.732
 5146POPC   GL267274   6.739  38.581   5.849
 5146POPC   C1A67275   6.547  38.221   6.141
 5146POPC   D2A67276   6.610  38.397   6.551
 5146POPC   C3A67277   6.712  38.152   6.894
 5146POPC   C4A67278   6.746  38.301   7.263
 5146POPC   C1B67279   6.441  38.708   6.176
 5146POPC   C2B67280   6.439  38.890   6.598
 5146POPC   C3B67281   6.718  38.758   6.949
 5146POPC   C4B67282   6.993  38.745   7.303
 5147POPC   NC367283   1.493  16.168   5.580
 5147POPC   PO467284   1.056  15.802   5.175
 5147POPC   GL167285   1.161  15.803   5.697
 5147POPC   GL267286   1.484  15.699   5.833
 5147POPC   C1A67287   1.254  15.944   6.194
 5147POPC   D2A67288   1.325  15.906   6.650
 5147POPC   C3A67289   0.933  15.904   6.920
 5147POPC   C4A67290   0.733  16.092   7.303
 5147POPC   C1B67291   1.631  15.596   6.266
 5147POPC   C2B67292   1.481  15.386   6.639
 5147POPC   C3B67293   1.362  15.563   7.016
 5147POPC   C4B67294   1.491  15.657   7.514
 5148POPC   NC367295  19.176  17.174   5.653
 5148POPC   PO467296  18.844  16.659   5.456
 5148POPC   GL167297  18.882  16.566   5.880
 5148POPC   GL267298  19.220  16.700   5.880
 5148POPC   C1A67299  18.968  16.662   6.338
 5148POPC   D2A67300  19.027  16.415   6.730
 5148POPC   C3A67301  19.033  16.583   7.184
 5148POPC   C4A67302  19.091  16.586   7.670
 5148POPC   C1B67303  19.413  16.978   6.227
 5148POPC   C2B67304  19.371  17.101   6.677
 5148POPC   C3B67305  19.322  17.050   7.141
 5148POPC   C4B67306  18.994  17.043   7.454
 5149POPC   NC367307  31.396  20.387   5.485
 5149POPC   PO467308  31.502  19.760   5.165
 5149POPC   GL167309  31.456  19.732   5.734
 5149POPC   GL267310  31.793  19.775   5.949
 5149POPC   C1A67311  31.423  20.028   6.163
 5149POPC   D2A67312  31.256  20.157   6.584
 5149POPC   C3A67313  31.462  19.980   6.971
 5149POPC   C4A67314  31.187  19.923   7.354
 5149POPC   C1B67315  31.525  19.537   6.235
 5149POPC   C2B67316  31.348  19.478   6.677
 5149POPC   C3B67317  31.384  19.508   7.151
 5149POPC   C4B67318  31.685  19.743   7.411
 5150POPC   NC367319  11.082  23.788   5.225
 5150POPC   PO467320  11.518  23.482   5.583
 5150POPC   GL167321  11.200  23.682   5.741
 5150POPC   GL267322  11.294  24.016   5.651
 5150POPC   C1A67323  11.121  23.581   6.169
 5150POPC   D2A67324  11.431  23.418   6.476
 5150POPC   C3A67325  11.273  23.498   6.881
 5150POPC   C4A67326  11.091  23.437   7.289
 5150POPC   C1B67327  11.221  24.100   6.088
 5150POPC   C2B67328  11.265  23.937   6.511
 5150POPC   C3B67329  11.458  23.970   6.896
 5150POPC   C4B67330  11.476  23.781   7.288
 5151POPC   NC367331  32.505  30.121   5.656
 5151POPC   PO467332  32.093  30.326   5.256
 5151POPC   GL167333  32.014  30.185   5.743
 5151POPC   GL267334  32.128  29.832   5.868
 5151POPC   C1A67335  32.128  30.203   6.230
 5151POPC   D2A67336  32.243  30.335   6.689
 5151POPC   C3A67337  32.200  30.097   7.093
 5151POPC   C4A67338  32.363  29.747   7.375
 5151POPC   C1B67339  32.074  29.699   6.328
 5151POPC   C2B67340  32.135  29.681   6.792
 5151POPC   C3B67341  31.890  29.684   7.189
 5151POPC   C4B67342  31.937  29.557   7.647
 5152POPC   NC367343  36.357   1.754   5.550
 5152POPC   PO467344  35.875   2.236   5.504
 5152POPC   GL167345  35.992   2.004   5.827
 5152POPC   GL267346  36.293   2.189   5.922
 5152POPC   C1A67347  35.923   1.891   6.243
 5152POPC   D2A67348  36.022   2.104   6.610
 5152POPC   C3A67349  36.180   1.884   6.940
 5152POPC   C4A67350  36.094   1.863   7.367
 5152POPC   C1B67351  36.500   2.110   6.330
 5152POPC   C2B67352  36.678   1.931   6.749
 5152POPC   C3B67353  36.602   2.100   7.167
 5152POPC   C4B67354  36.201   2.325   7.222
 5153POPC   NC367355  20.237  44.091   4.957
 5153POPC   PO467356  20.660  43.760   5.386
 5153POPC   GL167357  20.458  43.889   5.797
 5153POPC   GL267358  20.773  43.814   5.956
 5153POPC   C1A67359  20.401  44.019   6.229
 5153POPC   D2A67360  20.539  43.797   6.607
 5153POPC   C3A67361  20.542  43.967   7.014
 5153POPC   C4A67362  20.549  43.850   7.424
 5153POPC   C1B67363  20.900  44.047   6.335
 5153POPC   C2B67364  21.004  43.967   6.776
 5153POPC   C3B67365  21.024  43.881   7.229
 5153POPC   C4B67366  20.940  44.090   7.638
 5154POPC   NC367367  25.213  31.420   5.270
 5154POPC   PO467368  25.510  31.833   5.664
 5154POPC   GL167369  25.364  31.498   5.870
 5154POPC   GL267370  25.038  31.320   5.741
 5154POPC   C1A67371  25.425  31.541   6.346
 5154POPC   D2A67372  25.210  31.797   6.674
 5154POPC   C3A67373  25.315  31.718   7.097
 5154POPC   C4A67374  25.443  31.530   7.500
 5154POPC   C1B67375  24.934  31.474   6.149
 5154POPC   C2B67376  25.034  31.313   6.564
 5154POPC   C3B67377  25.076  31.261   6.971
 5154POPC   C4B67378  25.243  31.076   7.314
 5155POPC   NC367379  18.298  31.921   5.227
 5155POPC   PO467380  18.504  31.294   5.355
 5155POPC   GL167381  18.241  31.318   5.728
 5155POPC   GL267382  18.509  31.453   5.898
 5155POPC   C1A67383  18.144  31.239   6.197
 5155POPC   D2A67384  18.377  31.175   6.610
 5155POPC   C3A67385  18.142  31.318   6.990
 5155POPC   C4A67386  17.918  31.739   7.033
 5155POPC   C1B67387  18.510  31.699   6.276
 5155POPC   C2B67388  18.767  31.780   6.610
 5155POPC   C3B67389  18.564  31.655   6.973
 5155POPC   C4B67390  18.619  31.663   7.395
 5156POPC   NC367391  42.692  23.967   5.656
 5156POPC   PO467392  42.845  23.425   5.305
 5156POPC   GL167393  43.012  23.596   5.741
 5156POPC   GL267394  43.329  23.776   5.798
 5156POPC   C1A67395  42.874  23.659   6.198
 5156POPC   D2A67396  43.009  23.840   6.611
 5156POPC   C3A67397  42.661  23.802   6.877
 5156POPC   C4A67398  42.601  23.671   7.304
 5156POPC   C1B67399  43.198  24.062   6.152
 5156POPC   C2B67400  43.356  24.223   6.549
 5156POPC   C3B67401  43.470  24.129   6.929
 5156POPC   C4B67402  43.184  23.899   7.170
 5157POPC   NC367403  25.912  32.015   5.517
 5157POPC   PO467404  26.338  32.543   5.531
 5157POPC   GL167405  26.058  32.417   5.855
 5157POPC   GL267406  26.082  32.095   5.986
 5157POPC   C1A67407  25.985  32.494   6.284
 5157POPC   D2A67408  25.942  32.281   6.645
 5157POPC   C3A67409  25.848  32.529   6.981
 5157POPC   C4A67410  25.879  32.463   7.380
 5157POPC   C1B67411  25.845  31.846   6.289
 5157POPC   C2B67412  25.731  31.821   6.736
 5157POPC   C3B67413  25.921  32.000   7.107
 5157POPC   C4B67414  25.772  31.945   7.512
 5158POPC   NC367415   7.909  43.583   5.435
 5158POPC   PO467416   8.573  43.600   5.343
 5158POPC   GL167417   8.384  43.752   5.749
 5158POPC   GL267418   8.107  43.997   5.739
 5158POPC   C1A67419   8.082  43.604   6.081
 5158POPC   D2A67420   7.921  43.669   6.488
 5158POPC   C3A67421   8.199  43.888   6.760
 5158POPC   C4A67422   8.108  43.757   7.158
 5158POPC   C1B67423   8.172  44.101   6.201
 5158POPC   C2B67424   7.935  44.296   6.547
 5158POPC   C3B67425   8.005  44.307   7.008
 5158POPC   C4B67426   8.344  44.203   7.202
 5159POPC   NC367427   8.134   1.114   5.469
 5159POPC   PO467428   7.754   1.583   5.145
 5159POPC   GL167429   8.022   1.556   5.676
 5159POPC   GL267430   8.336   1.455   5.817
 5159POPC   C1A67431   7.982   1.339   6.147
 5159POPC   D2A67432   8.279   1.129   6.469
 5159POPC   C3A67433   8.128   0.994   6.880
 5159POPC   C4A67434   7.956   1.304   7.164
 5159POPC   C1B67435   8.481   1.536   6.252
 5159POPC   C2B67436   8.733   1.453   6.628
 5159POPC   C3B67437   8.720   1.484   7.070
 5159POPC   C4B67438   8.475   1.146   7.225
 5160POPC   NC367439  30.225   4.874   5.566
 5160POPC   PO467440  29.685   5.205   5.345
 5160POPC   GL167441  29.598   4.917   5.731
 5160POPC   GL267442  29.861   4.741   5.888
 5160POPC   C1A67443  29.542   5.011   6.178
 5160POPC   D2A67444  29.751   5.228   6.499
 5160POPC   C3A67445  29.814   5.017   6.880
 5160POPC   C4A67446  29.675   5.152   7.239
 5160POPC   C1B67447  30.104   4.911   6.229
 5160POPC   C2B67448  30.272   4.938   6.643
 5160POPC   C3B67449  30.283   5.199   7.004
 5160POPC   C4B67450  30.129   4.944   7.350
 5161POPC   NC367451  40.078  42.368   5.469
 5161POPC   PO467452  39.555  41.952   5.630
 5161POPC   GL167453  39.739  42.345   5.858
 5161POPC   GL267454  40.025  42.633   5.905
 5161POPC   C1A67455  39.751  42.461   6.295
 5161POPC   D2A67456  39.974  42.506   6.669
 5161POPC   C3A67457  39.913  42.174   6.972
 5161POPC   C4A67458  39.856  42.320   7.372
 5161POPC   C1B67459  40.339  42.458   6.217
 5161POPC   C2B67460  40.475  42.324   6.652
 5161POPC   C3B67461  40.346  42.451   7.071
 5161POPC   C4B67462  40.272  42.596   7.501
 5162POPC   NC367463  17.858  16.917   5.381
 5162POPC   PO467464  17.478  16.488   5.616
 5162POPC   GL167465  17.632  16.813   5.850
 5162POPC   GL267466  17.505  17.112   5.703
 5162POPC   C1A67467  17.886  16.841   6.231
 5162POPC   D2A67468  18.002  16.680   6.631
 5162POPC   C3A67469  17.666  16.626   6.959
 5162POPC   C4A67470  17.744  16.612   7.425
 5162POPC   C1B67471  17.486  17.182   6.168
 5162POPC   C2B67472  17.512  16.984   6.592
 5162POPC   C3B67473  17.515  17.103   7.036
 5162POPC   C4B67474  17.266  17.197   7.404
 5163POPC   NC367475  37.275   0.127   5.238
 5163POPC   PO467476  36.814   0.536   5.269
 5163POPC   GL167477  36.611   0.548   5.673
 5163POPC   GL267478  36.916   0.339   5.771
 5163POPC   C1A67479  36.560   0.400   6.103
 5163POPC   D2A67480  36.867   0.389   6.410
 5163POPC   C3A67481  36.793   0.389   6.810
 5163POPC   C4A67482  36.714   0.395   7.198
 5163POPC   C1B67483  37.162   0.121   6.111
 5163POPC   C2B67484  37.418   0.196   6.450
 5163POPC   C3B67485  37.253   0.123   6.851
 5163POPC   C4B67486  37.278   0.318   7.221
 5164POPC   NC367487  37.528   3.101   5.483
 5164POPC   PO467488  37.516   3.635   5.489
 5164POPC   GL167489  37.650   3.444   5.885
 5164POPC   GL267490  37.917   3.207   5.854
 5164POPC   C1A67491  37.734   3.639   6.289
 5164POPC   D2A67492  37.962   3.602   6.683
 5164POPC   C3A67493  37.687   3.524   7.028
 5164POPC   C4A67494  37.259   3.497   7.206
 5164POPC   C1B67495  38.007   3.209   6.313
 5164POPC   C2B67496  37.843   3.109   6.725
 5164POPC   C3B67497  38.020   3.151   7.130
 5164POPC   C4B67498  38.109   3.486   7.444
 5165POPC   NC367499  38.046   2.302   5.463
 5165POPC   PO467500  37.476   2.636   5.471
 5165POPC   GL167501  37.694   2.736   5.844
 5165POPC   GL267502  37.462   2.962   5.966
 5165POPC   C1A67503  37.759   2.766   6.319
 5165POPC   D2A67504  37.527   2.712   6.691
 5165POPC   C3A67505  37.822   2.667   6.993
 5165POPC   C4A67506  38.232   2.671   7.151
 5165POPC   C1B67507  37.480   3.190   6.343
 5165POPC   C2B67508  37.344   3.219   6.756
 5165POPC   C3B67509  37.476   3.044   7.132
 5165POPC   C4B67510  37.652   3.261   7.466
 5166POPC   NC367511  19.272  10.140   5.032
 5166POPC   PO467512  18.924  10.582   5.328
 5166POPC   GL167513  19.169  10.653   5.730
 5166POPC   GL267514  19.510  10.490   5.731
 5166POPC   C1A67515  19.089  10.500   6.167
 5166POPC   D2A67516  19.155  10.678   6.575
 5166POPC   C3A67517  19.062  10.639   7.014
 5166POPC   C4A67518  19.021  10.925   7.346
 5166POPC   C1B67519  19.505  10.200   6.090
 5166POPC   C2B67520  19.333  10.174   6.497
 5166POPC   C3B67521  19.387  10.261   6.922
 5166POPC   C4B67522  19.228  10.236   7.316
 5167POPC   NC367523   3.995   1.727   5.295
 5167POPC   PO467524   4.452   2.206   5.402
 5167POPC   GL167525   4.326   1.962   5.749
 5167POPC   GL267526   4.145   2.237   5.859
 5167POPC   C1A67527   4.308   1.898   6.217
 5167POPC   D2A67528   4.358   2.121   6.602
 5167POPC   C3A67529   4.459   1.979   6.992
 5167POPC   C4A67530   4.682   2.298   7.240
 5167POPC   C1B67531   4.010   2.320   6.286
 5167POPC   C2B67532   3.880   2.294   6.730
 5167POPC   C3B67533   4.075   2.271   7.124
 5167POPC   C4B67534   4.047   1.918   7.420
 5168POPC   NC367535  28.634  22.374   5.406
 5168POPC   PO467536  28.220  21.953   5.600
 5168POPC   GL167537  28.569  22.094   5.846
 5168POPC   GL267538  28.597  22.472   5.896
 5168POPC   C1A67539  28.433  22.141   6.271
 5168POPC   D2A67540  28.476  21.947   6.644
 5168POPC   C3A67541  28.189  21.915   6.964
 5168POPC   C4A67542  28.246  21.910   7.382
 5168POPC   C1B67543  28.651  22.599   6.308
 5168POPC   C2B67544  28.494  22.447   6.714
 5168POPC   C3B67545  28.655  22.211   7.093
 5168POPC   C4B67546  28.548  22.276   7.557
 5169POPC   NC367547  19.305  29.327   5.359
 5169POPC   PO467548  18.807  29.463   5.101
 5169POPC   GL167549  18.924  29.264   5.653
 5169POPC   GL267550  19.220  28.980   5.707
 5169POPC   C1A67551  18.879  29.044   6.070
 5169POPC   D2A67552  18.757  29.229   6.478
 5169POPC   C3A67553  18.840  29.117   6.892
 5169POPC   C4A67554  18.808  29.319   7.289
 5169POPC   C1B67555  19.397  28.978   6.126
 5169POPC   C2B67556  19.243  28.973   6.538
 5169POPC   C3B67557  19.351  29.130   6.944
 5169POPC   C4B67558  19.194  28.985   7.284
 5170POPC   NC367559  14.810  37.898   5.422
 5170POPC   PO467560  15.382  37.565   5.333
 5170POPC   GL167561  15.143  37.540   5.695
 5170POPC   GL267562  15.102  37.853   5.834
 5170POPC   C1A67563  14.990  37.407   6.116
 5170POPC   D2A67564  15.151  37.434   6.533
 5170POPC   C3A67565  14.986  37.348   6.952
 5170POPC   C4A67566  15.141  37.604   7.295
 5170POPC   C1B67567  14.842  37.903   6.168
 5170POPC   C2B67568  14.669  37.808   6.558
 5170POPC   C3B67569  14.797  37.832   6.973
 5170POPC   C4B67570  14.827  37.999   7.370
 5171POPC   NC367571  41.082  11.110   5.371
 5171POPC   PO467572  40.592  11.568   5.119
 5171POPC   GL167573  40.772  11.375   5.643
 5171POPC   GL267574  41.097  11.364   5.825
 5171POPC   C1A67575  40.640  11.298   6.108
 5171POPC   D2A67576  40.454  11.490   6.497
 5171POPC   C3A67577  40.571  11.396   6.923
 5171POPC   C4A67578  40.384  11.562   7.302
 5171POPC   C1B67579  41.085  11.071   6.187
 5171POPC   C2B67580  40.894  11.134   6.594
 5171POPC   C3B67581  41.071  11.249   7.011
 5171POPC   C4B67582  41.149  10.994   7.361
 5172POPC   NC367583   9.326   8.393   5.200
 5172POPC   PO467584   9.842   7.958   5.367
 5172POPC   GL167585   9.987   8.059   5.786
 5172POPC   GL267586   9.685   8.057   5.999
 5172POPC   C1A67587  10.145   7.991   6.223
 5172POPC   D2A67588   9.978   8.280   6.547
 5172POPC   C3A67589   9.717   8.065   6.850
 5172POPC   C4A67590   9.999   8.012   7.188
 5172POPC   C1B67591   9.467   8.239   6.391
 5172POPC   C2B67592   9.554   8.559   6.731
 5172POPC   C3B67593   9.730   8.490   7.139
 5172POPC   C4B67594   9.560   8.219   7.472
 5173POPC   NC367595   3.311  10.612   5.322
 5173POPC   PO467596   3.886  10.382   5.504
 5173POPC   GL167597   3.676  10.491   5.870
 5173POPC   GL267598   3.325  10.380   5.777
 5173POPC   C1A67599   3.719  10.282   6.272
 5173POPC   D2A67600   3.505  10.280   6.679
 5173POPC   C3A67601   3.765  10.474   7.000
 5173POPC   C4A67602   3.939  10.705   7.338
 5173POPC   C1B67603   3.244  10.412   6.197
 5173POPC   C2B67604   3.109  10.589   6.574
 5173POPC   C3B67605   3.252  10.640   6.996
 5173POPC   C4B67606   3.364  10.310   7.297
 5174POPC   NC367607  26.930  36.633   5.456
 5174POPC   PO467608  26.562  35.948   5.482
 5174POPC   GL167609  26.828  36.135   5.794
 5174POPC   GL267610  27.149  35.986   5.901
 5174POPC   C1A67611  26.738  36.182   6.229
 5174POPC   D2A67612  26.536  35.932   6.558
 5174POPC   C3A67613  26.695  36.068   6.950
 5174POPC   C4A67614  26.595  36.191   7.365
 5174POPC   C1B67615  27.242  36.151   6.357
 5174POPC   C2B67616  27.254  36.239   6.840
 5174POPC   C3B67617  27.114  36.129   7.268
 5174POPC   C4B67618  27.271  36.208   7.702
 5175POPC   NC367619  18.513  35.024   5.391
 5175POPC   PO467620  18.038  35.501   5.223
 5175POPC   GL167621  18.227  35.448   5.663
 5175POPC   GL267622  18.594  35.460   5.695
 5175POPC   C1A67623  18.268  35.614   6.123
 5175POPC   D2A67624  18.159  35.556   6.590
 5175POPC   C3A67625  18.171  35.096   6.735
 5175POPC   C4A67626  18.109  34.825   7.106
 5175POPC   C1B67627  18.704  35.309   6.078
 5175POPC   C2B67628  18.577  35.268   6.463
 5175POPC   C3B67629  18.578  35.418   6.875
 5175POPC   C4B67630  18.325  35.463   7.214
 5176POPC   NC367631  13.894   4.358   5.309
 5176POPC   PO467632  14.524   4.227   5.237
 5176POPC   GL167633  14.608   4.217   5.740
 5176POPC   GL267634  14.280   4.300   5.896
 5176POPC   C1A67635  14.625   4.135   6.224
 5176POPC   D2A67636  14.819   4.376   6.570
 5176POPC   C3A67637  14.533   4.364   6.904
 5176POPC   C4A67638  14.310   4.461   7.296
 5176POPC   C1B67639  14.059   4.093   6.267
 5176POPC   C2B67640  13.901   3.898   6.646
 5176POPC   C3B67641  14.129   4.025   7.013
 5176POPC   C4B67642  14.190   3.960   7.436
 5177POPC   NC367643  14.785   1.646   5.422
 5177POPC   PO467644  15.175   2.120   5.033
 5177POPC   GL167645  15.323   2.184   5.555
 5177POPC   GL267646  15.013   2.189   5.762
 5177POPC   C1A67647  15.419   2.106   6.078
 5177POPC   D2A67648  15.478   1.875   6.507
 5177POPC   C3A67649  15.502   2.174   6.865
 5177POPC   C4A67650  15.385   2.330   7.275
 5177POPC   C1B67651  14.911   1.969   6.195
 5177POPC   C2B67652  14.973   1.881   6.657
 5177POPC   C3B67653  15.014   1.959   7.108
 5177POPC   C4B67654  14.801   1.754   7.471
 5178POPC   NC367655  25.453  16.875   5.402
 5178POPC   PO467656  25.726  16.278   5.472
 5178POPC   GL167657  25.484  16.505   5.768
 5178POPC   GL267658  25.111  16.541   5.718
 5178POPC   C1A67659  25.442  16.621   6.185
 5178POPC   D2A67660  25.213  16.477   6.524
 5178POPC   C3A67661  25.547  16.440   6.856
 5178POPC   C4A67662  25.673  16.643   7.243
 5178POPC   C1B67663  25.021  16.869   6.046
 5178POPC   C2B67664  25.200  17.003   6.463
 5178POPC   C3B67665  25.147  16.823   6.883
 5178POPC   C4B67666  25.016  16.901   7.283
 5179POPC   NC367667  27.462  41.361   5.231
 5179POPC   PO467668  27.843  41.702   5.613
 5179POPC   GL167669  27.764  41.389   5.928
 5179POPC   GL267670  27.397  41.399   5.842
 5179POPC   C1A67671  27.892  41.317   6.371
 5179POPC   D2A67672  27.673  41.275   6.752
 5179POPC   C3A67673  27.739  41.532   7.096
 5179POPC   C4A67674  27.735  41.501   7.518
 5179POPC   C1B67675  27.503  41.757   6.169
 5179POPC   C2B67676  27.400  41.936   6.556
 5179POPC   C3B67677  27.537  41.976   6.955
 5179POPC   C4B67678  27.438  41.913   7.367
 5180POPC   NC367679  20.067   8.662   5.579
 5180POPC   PO467680  20.156   9.326   5.425
 5180POPC   GL167681  19.983   9.105   5.781
 5180POPC   GL267682  19.653   8.913   5.760
 5180POPC   C1A67683  20.007   8.886   6.173
 5180POPC   D2A67684  20.317   8.728   6.430
 5180POPC   C3A67685  20.079   8.832   6.794
 5180POPC   C4A67686  19.907   9.055   7.147
 5180POPC   C1B67687  19.559   8.581   6.089
 5180POPC   C2B67688  19.420   8.503   6.518
 5180POPC   C3B67689  19.624   8.540   6.931
 5180POPC   C4B67690  19.596   8.668   7.340
 5181POPC   NC367691   5.167  14.523   5.163
 5181POPC   PO467692   4.979  14.978   5.367
 5181POPC   GL167693   5.172  14.723   5.704
 5181POPC   GL267694   5.506  14.579   5.748
 5181POPC   C1A67695   5.097  14.541   6.144
 5181POPC   D2A67696   4.900  14.471   6.576
 5181POPC   C3A67697   5.123  14.587   6.958
 5181POPC   C4A67698   5.012  14.509   7.374
 5181POPC   C1B67699   5.572  14.350   6.181
 5181POPC   C2B67700   5.378  14.262   6.633
 5181POPC   C3B67701   5.270  14.110   7.100
 5181POPC   C4B67702   5.424  13.779   7.404
 5182POPC   NC367703   3.703   9.205   5.450
 5182POPC   PO467704   3.212   8.682   5.374
 5182POPC   GL167705   3.188   8.760   5.809
 5182POPC   GL267706   3.563   8.801   5.817
 5182POPC   C1A67707   3.212   9.111   6.111
 5182POPC   D2A67708   3.402   9.272   6.498
 5182POPC   C3A67709   3.274   9.056   6.887
 5182POPC   C4A67710   3.214   8.825   7.237
 5182POPC   C1B67711   3.744   9.119   6.111
 5182POPC   C2B67712   3.919   9.241   6.511
 5182POPC   C3B67713   3.745   9.211   6.906
 5182POPC   C4B67714   3.802   8.882   7.215
 5183POPC   NC367715   2.507  32.639   5.432
 5183POPC   PO467716   2.612  33.377   5.383
 5183POPC   GL167717   2.522  33.111   5.731
 5183POPC   GL267718   2.821  32.905   5.766
 5183POPC   C1A67719   2.621  33.195   6.179
 5183POPC   D2A67720   2.550  32.964   6.599
 5183POPC   C3A67721   2.573  33.177   6.982
 5183POPC   C4A67722   2.724  33.426   7.282
 5183POPC   C1B67723   2.813  32.739   6.188
 5183POPC   C2B67724   2.886  32.581   6.604
 5183POPC   C3B67725   2.858  32.770   7.003
 5183POPC   C4B67726   2.810  32.955   7.435
 5184POPC   NC367727   1.147  33.591   5.386
 5184POPC   PO467728   0.966  34.194   5.046
 5184POPC   GL167729   1.026  34.076   5.547
 5184POPC   GL267730   1.399  33.980   5.670
 5184POPC   C1A67731   1.039  33.967   6.025
 5184POPC   D2A67732   1.045  33.702   6.427
 5184POPC   C3A67733   0.942  33.895   6.852
 5184POPC   C4A67734   1.142  33.911   7.304
 5184POPC   C1B67735   1.511  33.870   6.149
 5184POPC   C2B67736   1.658  34.049   6.542
 5184POPC   C3B67737   1.506  34.008   6.955
 5184POPC   C4B67738   1.679  33.952   7.364
 5185POPC   NC367739   6.150  38.285   5.041
 5185POPC   PO467740   5.815  37.784   5.359
 5185POPC   GL167741   5.845  37.704   5.763
 5185POPC   GL267742   5.626  37.932   5.897
 5185POPC   C1A67743   5.824  37.512   6.159
 5185POPC   D2A67744   5.671  37.594   6.585
 5185POPC   C3A67745   5.925  37.480   6.935
 5185POPC   C4A67746   5.920  37.336   7.332
 5185POPC   C1B67747   5.672  38.024   6.303
 5185POPC   C2B67748   5.495  38.079   6.697
 5185POPC   C3B67749   5.805  37.983   6.967
 5185POPC   C4B67750   5.844  37.828   7.350
 5186POPC   NC367751  31.926  19.723   5.440
 5186POPC   PO467752  32.600  19.983   5.396
 5186POPC   GL167753  32.369  19.841   5.798
 5186POPC   GL267754  32.227  19.545   5.834
 5186POPC   C1A67755  32.370  19.846   6.287
 5186POPC   D2A67756  32.546  19.854   6.761
 5186POPC   C3A67757  32.425  20.116   7.126
 5186POPC   C4A67758  32.400  20.246   7.633
 5186POPC   C1B67759  32.070  19.434   6.219
 5186POPC   C2B67760  32.181  19.500   6.644
 5186POPC   C3B67761  32.076  19.762   7.032
 5186POPC   C4B67762  32.255  19.793   7.470
 5187POPC   NC367763  19.493  14.759   5.430
 5187POPC   PO467764  19.772  15.403   5.379
 5187POPC   GL167765  19.876  15.379   5.770
 5187POPC   GL267766  19.673  15.645   5.838
 5187POPC   C1A67767  19.978  15.126   6.106
 5187POPC   D2A67768  19.827  15.103   6.528
 5187POPC   C3A67769  19.908  14.793   6.859
 5187POPC   C4A67770  19.753  14.937   7.277
 5187POPC   C1B67771  19.802  15.614   6.269
 5187POPC   C2B67772  19.635  15.566   6.687
 5187POPC   C3B67773  19.666  15.444   7.124
 5187POPC   C4B67774  19.931  15.373   7.483
 5188POPC   NC367775  39.232  29.213   5.457
 5188POPC   PO467776  39.462  29.537   5.971
 5188POPC   GL167777  39.363  29.074   5.952
 5188POPC   GL267778  39.010  28.933   5.881
 5188POPC   C1A67779  39.228  28.966   6.355
 5188POPC   D2A67780  39.013  29.279   6.621
 5188POPC   C3A67781  39.074  29.200   7.022
 5188POPC   C4A67782  39.412  28.932   7.212
 5188POPC   C1B67783  38.883  28.630   6.222
 5188POPC   C2B67784  38.932  28.691   6.684
 5188POPC   C3B67785  38.935  28.698   7.147
 5188POPC   C4B67786  39.001  29.012   7.484
 5189POPC   NC367787  43.851  32.540   5.432
 5189POPC   PO467788  44.489  32.627   5.313
 5189POPC   GL167789  44.257  32.508   5.719
 5189POPC   GL267790  44.041  32.174   5.767
 5189POPC   C1A67791  43.942  32.574   6.095
 5189POPC   D2A67792  43.711  32.548   6.503
 5189POPC   C3A67793  43.951  32.409   6.866
 5189POPC   C4A67794  44.019  32.251   7.289
 5189POPC   C1B67795  43.708  32.111   6.123
 5189POPC   C2B67796  43.572  32.002   6.570
 5189POPC   C3B67797  43.652  31.976   7.035
 5189POPC   C4B67798  43.647  31.968   7.492
 5190POPC   NC367799  26.941   6.942   5.429
 5190POPC   PO467800  27.120   6.310   5.574
 5190POPC   GL167801  26.824   6.517   5.850
 5190POPC   GL267802  26.693   6.856   5.895
 5190POPC   C1A67803  26.628   6.416   6.237
 5190POPC   D2A67804  26.804   6.420   6.670
 5190POPC   C3A67805  26.628   6.557   7.084
 5190POPC   C4A67806  26.688   6.575   7.554
 5190POPC   C1B67807  26.860   6.871   6.342
 5190POPC   C2B67808  26.865   6.960   6.810
 5190POPC   C3B67809  26.946   6.956   7.291
 5190POPC   C4B67810  27.129   7.013   7.753
 5191POPC   NC367811  21.660   0.251   5.381
 5191POPC   PO467812  21.100   0.222   5.257
 5191POPC   GL167813  21.261   0.233   5.730
 5191POPC   GL267814  21.620   0.258   5.889
 5191POPC   C1A67815  21.218   0.347   6.194
 5191POPC   D2A67816  21.297   0.635   6.568
 5191POPC   C3A67817  21.297   0.455   6.993
 5191POPC   C4A67818  21.055   0.252   7.334
 5191POPC   C1B67819  21.708   0.516   6.272
 5191POPC   C2B67820  21.769   0.454   6.740
 5191POPC   C3B67821  21.794   0.284   7.170
 5191POPC   C4B67822  21.544   0.064   7.493
 5192POPC   NC367823  37.643  40.553   5.461
 5192POPC   PO467824  37.520  41.250   5.411
 5192POPC   GL167825  37.670  40.992   5.788
 5192POPC   GL267826  37.952  40.720   5.840
 5192POPC   C1A67827  37.559  40.752   6.169
 5192POPC   D2A67828  37.536  40.471   6.528
 5192POPC   C3A67829  37.589  40.692   6.890
 5192POPC   C4A67830  37.318  40.885   7.188
 5192POPC   C1B67831  37.952  40.404   6.207
 5192POPC   C2B67832  38.000  40.228   6.618
 5192POPC   C3B67833  37.926  40.333   7.051
 5192POPC   C4B67834  37.944  40.772   7.259
 5193POPC   NC367835  39.490  12.506   5.212
 5193POPC   PO467836  39.013  12.866   5.460
 5193POPC   GL167837  39.352  12.941   5.763
 5193POPC   GL267838  39.099  12.965   5.951
 5193POPC   C1A67839  39.498  12.836   6.203
 5193POPC   D2A67840  39.364  12.967   6.625
 5193POPC   C3A67841  39.414  12.712   7.005
 5193POPC   C4A67842  39.158  12.755   7.399
 5193POPC   C1B67843  38.922  13.187   6.252
 5193POPC   C2B67844  38.976  13.327   6.611
 5193POPC   C3B67845  38.998  13.080   6.979
 5193POPC   C4B67846  38.852  13.194   7.355
 5194POPC   NC367847  21.139  31.984   5.365
 5194POPC   PO467848  20.541  32.016   5.550
 5194POPC   GL167849  20.809  32.310   5.822
 5194POPC   GL267850  20.568  32.565   5.948
 5194POPC   C1A67851  20.901  32.441   6.287
 5194POPC   D2A67852  20.819  32.141   6.615
 5194POPC   C3A67853  20.583  32.242   6.980
 5194POPC   C4A67854  20.597  32.496   7.375
 5194POPC   C1B67855  20.480  32.155   6.187
 5194POPC   C2B67856  20.326  31.986   6.566
 5194POPC   C3B67857  20.140  31.919   6.969
 5194POPC   C4B67858  20.259  32.114   7.362
 5195POPC   NC367859  34.068   6.903   5.509
 5195POPC   PO467860  33.669   7.426   5.374
 5195POPC   GL167861  33.793   7.481   5.800
 5195POPC   GL267862  33.455   7.438   5.868
 5195POPC   C1A67863  33.915   7.367   6.223
 5195POPC   D2A67864  34.180   7.300   6.562
 5195POPC   C3A67865  34.051   7.363   6.969
 5195POPC   C4A67866  33.655   7.429   7.166
 5195POPC   C1B67867  33.510   7.705   6.218
 5195POPC   C2B67868  33.452   7.585   6.639
 5195POPC   C3B67869  33.355   7.809   6.993
 5195POPC   C4B67870  33.474   7.938   7.357
 5196POPC   NC367871  43.026  31.151   5.548
 5196POPC   PO467872  42.749  31.699   5.222
 5196POPC   GL167873  42.920  31.731   5.725
 5196POPC   GL267874  43.189  31.532   5.886
 5196POPC   C1A67875  42.771  31.681   6.206
 5196POPC   D2A67876  42.994  31.717   6.648
 5196POPC   C3A67877  42.807  31.535   7.065
 5196POPC   C4A67878  42.906  31.503   7.541
 5196POPC   C1B67879  43.114  31.307   6.304
 5196POPC   C2B67880  43.088  31.231   6.755
 5196POPC   C3B67881  43.318  31.540   7.031
 5196POPC   C4B67882  43.399  31.527   7.478
 5197POPC   NC367883  40.396  31.798   5.506
 5197POPC   PO467884  39.801  31.491   5.436
 5197POPC   GL167885  39.901  31.345   5.834
 5197POPC   GL267886  39.554  31.251   5.878
 5197POPC   C1A67887  40.193  31.441   6.187
 5197POPC   D2A67888  40.343  31.652   6.579
 5197POPC   C3A67889  40.213  31.497   6.999
 5197POPC   C4A67890  39.939  31.716   7.266
 5197POPC   C1B67891  39.665  31.386   6.279
 5197POPC   C2B67892  39.910  31.329   6.612
 5197POPC   C3B67893  39.710  31.294   6.976
 5197POPC   C4B67894  39.810  31.211   7.360
 5198POPC   NC367895  20.856  29.537   5.386
 5198POPC   PO467896  20.475  28.952   5.351
 5198POPC   GL167897  20.658  29.003   5.728
 5198POPC   GL267898  20.650  29.355   5.804
 5198POPC   C1A67899  20.648  28.986   6.171
 5198POPC   D2A67900  20.691  29.031   6.598
 5198POPC   C3A67901  20.560  28.834   7.005
 5198POPC   C4A67902  20.661  29.044   7.393
 5198POPC   C1B67903  20.924  29.443   6.146
 5198POPC   C2B67904  20.907  29.534   6.589
 5198POPC   C3B67905  20.634  29.388   6.940
 5198POPC   C4B67906  20.454  29.538   7.278
 5199POPC   NC367907  39.955  23.840   5.371
 5199POPC   PO467908  40.476  24.210   5.450
 5199POPC   GL167909  40.201  24.012   5.804
 5199POPC   GL267910  40.071  23.633   5.825
 5199POPC   C1A67911  40.126  23.932   6.244
 5199POPC   D2A67912  39.906  24.115   6.617
 5199POPC   C3A67913  40.056  23.893   6.941
 5199POPC   C4A67914  40.199  23.913   7.349
 5199POPC   C1B67915  39.797  23.516   6.176
 5199POPC   C2B67916  39.718  23.636   6.611
 5199POPC   C3B67917  39.703  23.487   7.044
 5199POPC   C4B67918  39.850  23.526   7.485
 5200POPC   NC367919  37.552  12.368   5.427
 5200POPC   PO467920  37.957  11.797   5.500
 5200POPC   GL167921  37.864  11.913   5.886
 5200POPC   GL267922  37.532  11.807   5.914
 5200POPC   C1A67923  37.826  11.818   6.329
 5200POPC   D2A67924  37.827  11.633   6.730
 5200POPC   C3A67925  37.750  11.873   7.099
 5200POPC   C4A67926  37.826  12.353   7.121
 5200POPC   C1B67927  37.523  12.213   6.160
 5200POPC   C2B67928  37.593  12.186   6.617
 5200POPC   C3B67929  37.348  12.128   6.996
 5200POPC   C4B67930  37.457  12.138   7.447
 5201POPC   NC367931   8.421  36.729   5.339
 5201POPC   PO467932   7.850  37.090   5.495
 5201POPC   GL167933   8.196  36.935   5.756
 5201POPC   GL267934   8.114  37.235   5.940
 5201POPC   C1A67935   8.402  36.896   6.166
 5201POPC   D2A67936   8.199  36.886   6.527
 5201POPC   C3A67937   8.320  36.889   6.952
 5201POPC   C4A67938   8.180  36.606   7.270
 5201POPC   C1B67939   8.118  37.488   6.321
 5201POPC   C2B67940   8.102  37.369   6.723
 5201POPC   C3B67941   7.919  37.214   7.051
 5201POPC   C4B67942   8.042  37.260   7.431
 5202POPC   NC367943  19.284  11.104   5.295
 5202POPC   PO467944  18.621  11.145   5.298
 5202POPC   GL167945  18.752  11.311   5.712
 5202POPC   GL267946  19.107  11.264   5.751
 5202POPC   C1A67947  18.669  11.215   6.160
 5202POPC   D2A67948  18.847  11.076   6.553
 5202POPC   C3A67949  18.793  11.326   6.912
 5202POPC   C4A67950  18.668  11.274   7.307
 5202POPC   C1B67951  19.161  11.044   6.128
 5202POPC   C2B67952  19.390  11.141   6.480
 5202POPC   C3B67953  19.280  11.105   6.902
 5202POPC   C4B67954  19.233  11.373   7.239
 5203POPC   NC367955  35.966  21.186   5.515
 5203POPC   PO467956  35.354  21.189   5.374
 5203POPC   GL167957  35.279  21.360   5.757
 5203POPC   GL267958  35.628  21.401   5.834
 5203POPC   C1A67959  35.251  21.269   6.179
 5203POPC   D2A67960  35.365  21.030   6.494
 5203POPC   C3A67961  35.136  21.130   6.824
 5203POPC   C4A67962  35.290  21.033   7.218
 5203POPC   C1B67963  35.622  21.661   6.196
 5203POPC   C2B67964  35.496  21.511   6.590
 5203POPC   C3B67965  35.334  21.568   6.966
 5203POPC   C4B67966  35.459  21.506   7.365
 5204POPC   NC367967  39.147  41.945   5.387
 5204POPC   PO467968  38.626  41.585   5.201
 5204POPC   GL167969  38.905  41.551   5.612
 5204POPC   GL267970  38.924  41.834   5.862
 5204POPC   C1A67971  39.079  41.398   6.059
 5204POPC   D2A67972  39.300  41.576   6.459
 5204POPC   C3A67973  39.118  41.476   6.882
 5204POPC   C4A67974  39.066  41.342   7.321
 5204POPC   C1B67975  38.889  42.103   6.253
 5204POPC   C2B67976  39.055  41.991   6.659
 5204POPC   C3B67977  39.006  41.927   7.109
 5204POPC   C4B67978  39.028  42.026   7.538
 5205POPC   NC367979  22.281   6.092   5.424
 5205POPC   PO467980  22.421   5.446   5.325
 5205POPC   GL167981  22.310   5.677   5.759
 5205POPC   GL267982  22.068   5.934   5.874
 5205POPC   C1A67983  22.363   5.724   6.224
 5205POPC   D2A67984  22.160   5.497   6.548
 5205POPC   C3A67985  22.241   5.653   6.949
 5205POPC   C4A67986  22.411   5.945   7.214
 5205POPC   C1B67987  21.839   5.765   6.244
 5205POPC   C2B67988  21.730   5.771   6.693
 5205POPC   C3B67989  21.770   5.681   7.151
 5205POPC   C4B67990  21.709   5.618   7.587
 5206POPC   NC367991  38.515  27.790   5.397
 5206POPC   PO467992  38.630  27.105   5.480
 5206POPC   GL167993  38.615  27.414   5.795
 5206POPC   GL267994  38.264  27.488   5.774
 5206POPC   C1A67995  38.603  27.672   6.203
 5206POPC   D2A67996  38.349  27.823   6.590
 5206POPC   C3A67997  38.537  27.812   7.020
 5206POPC   C4A67998  38.575  27.461   7.287
 5206POPC   C1B67999  38.141  27.447   6.214
 5206POPC   C2B68000  38.213  27.282   6.629
 5206POPC   C3B68001  38.138  27.502   7.016
 5206POPC   C4B68002  38.071  27.435   7.462
 5207POPC   NC368003  18.937  20.490   5.232
 5207POPC   PO468004  19.361  20.983   5.118
 5207POPC   GL168005  19.231  20.788   5.566
 5207POPC   GL268006  18.859  20.738   5.682
 5207POPC   C1A68007  19.231  20.677   6.044
 5207POPC   D2A68008  19.205  20.318   6.336
 5207POPC   C3A68009  19.174  20.428   6.763
 5207POPC   C4A68010  19.274  20.217   7.155
 5207POPC   C1B68011  18.794  20.386   5.989
 5207POPC   C2B68012  18.718  20.366   6.446
 5207POPC   C3B68013  18.699  20.367   6.899
 5207POPC   C4B68014  18.927  20.610   7.209
 5208POPC   NC368015  13.178  12.376   5.467
 5208POPC   PO468016  12.800  12.916   5.579
 5208POPC   GL168017  12.761  12.573   5.867
 5208POPC   GL268018  13.084  12.636   5.951
 5208POPC   C1A68019  12.803  12.411   6.313
 5208POPC   D2A68020  12.949  12.367   6.745
 5208POPC   C3A68021  12.881  12.621   7.099
 5208POPC   C4A68022  12.701  12.882   7.411
 5208POPC   C1B68023  13.051  13.043   6.234
 5208POPC   C2B68024  13.081  13.251   6.676
 5208POPC   C3B68025  13.067  13.120   7.135
 5208POPC   C4B68026  13.036  13.222   7.596
 5209POPC   NC368027  35.289  10.026   5.728
 5209POPC   PO468028  35.315  10.561   5.295
 5209POPC   GL168029  35.335  10.549   5.785
 5209POPC   GL268030  35.069  10.749   5.934
 5209POPC   C1A68031  35.326  10.444   6.257
 5209POPC   D2A68032  35.273  10.195   6.635
 5209POPC   C3A68033  35.481  10.441   6.889
 5209POPC   C4A68034  35.599  10.575   7.259
 5209POPC   C1B68035  35.361  10.971   6.197
 5209POPC   C2B68036  35.526  10.890   6.596
 5209POPC   C3B68037  35.308  10.927   6.986
 5209POPC   C4B68038  35.090  10.821   7.315
 5210POPC   NC368039  40.177  15.412   5.563
 5210POPC   PO468040  39.693  15.391   5.083
 5210POPC   GL168041  39.717  15.173   5.599
 5210POPC   GL268042  40.060  15.036   5.850
 5210POPC   C1A68043  39.635  14.953   6.055
 5210POPC   D2A68044  39.915  15.127   6.429
 5210POPC   C3A68045  39.914  15.096   6.907
 5210POPC   C4A68046  40.164  14.984   7.257
 5210POPC   C1B68047  40.293  15.384   6.183
 5210POPC   C2B68048  40.273  15.549   6.616
 5210POPC   C3B68049  40.338  15.435   7.054
 5210POPC   C4B68050  40.095  15.496   7.477
 5211POPC   NC368051   1.298   7.979   5.244
 5211POPC   PO468052   0.841   8.484   5.297
 5211POPC   GL168053   1.048   8.192   5.648
 5211POPC   GL268054   0.929   8.362   5.924
 5211POPC   C1A68055   1.355   8.076   6.038
 5211POPC   D2A68056   1.336   8.285   6.470
 5211POPC   C3A68057   1.320   8.091   6.897
 5211POPC   C4A68058   1.216   8.281   7.301
 5211POPC   C1B68059   0.870   7.945   6.108
 5211POPC   C2B68060   0.957   7.932   6.535
 5211POPC   C3B68061   0.801   8.161   6.881
 5211POPC   C4B68062   0.792   8.019   7.295
 5212POPC   NC368063  27.273  11.392   5.285
 5212POPC   PO468064  26.631  11.146   5.437
 5212POPC   GL168065  26.699  11.338   5.789
 5212POPC   GL268066  27.033  11.374   5.778
 5212POPC   C1A68067  26.740  11.478   6.213
 5212POPC   D2A68068  26.792  11.256   6.565
 5212POPC   C3A68069  26.665  11.457   6.897
 5212POPC   C4A68070  26.632  11.484   7.299
 5212POPC   C1B68071  27.003  11.032   6.126
 5212POPC   C2B68072  27.154  10.906   6.556
 5212POPC   C3B68073  27.118  11.139   6.952
 5212POPC   C4B68074  27.119  11.583   7.059
 5213POPC   NC368075  34.192  24.028   5.502
 5213POPC   PO468076  33.583  23.723   5.339
 5213POPC   GL168077  33.849  23.654   5.697
 5213POPC   GL268078  33.669  23.908   5.818
 5213POPC   C1A68079  34.106  23.699   6.092
 5213POPC   D2A68080  34.210  23.858   6.517
 5213POPC   C3A68081  34.052  23.642   6.872
 5213POPC   C4A68082  33.986  23.824   7.244
 5213POPC   C1B68083  33.570  23.662   6.152
 5213POPC   C2B68084  33.689  23.784   6.542
 5213POPC   C3B68085  33.608  23.953   6.940
 5213POPC   C4B68086  33.246  23.993   7.179
 5214POPC   NC368087  42.937   0.658   5.680
 5214POPC   PO468088  43.327   0.173   5.516
 5214POPC   GL168089  43.278   0.343   5.899
 5214POPC   GL268090  42.970   0.193   5.961
 5214POPC   C1A68091  43.168   0.580   6.283
 5214POPC   D2A68092  43.162   0.427   6.681
 5214POPC   C3A68093  43.296   0.643   7.040
 5214POPC   C4A68094  43.312   0.377   7.402
 5214POPC   C1B68095  42.678   0.407   6.244
 5214POPC   C2B68096  42.697   0.601   6.637
 5214POPC   C3B68097  42.826   0.473   7.080
 5214POPC   C4B68098  42.807   0.414   7.536
 5215POPC   NC368099  18.064  10.013   5.522
 5215POPC   PO468100  17.527   9.776   5.301
 5215POPC   GL168101  17.543   9.915   5.720
 5215POPC   GL268102  17.834   9.750   5.905
 5215POPC   C1A68103  17.366   9.939   6.148
 5215POPC   D2A68104  17.534   9.722   6.507
 5215POPC   C3A68105  17.439   9.815   6.934
 5215POPC   C4A68106  17.162   9.552   7.101
 5215POPC   C1B68107  18.040   9.715   6.329
 5215POPC   C2B68108  17.965   9.803   6.781
 5215POPC   C3B68109  17.861   9.668   7.190
 5215POPC   C4B68110  17.668   9.962   7.473
 5216POPC   NC368111  10.769  44.095   5.397
 5216POPC   PO468112  10.505  43.455   5.570
 5216POPC   GL168113  10.624  43.839   5.830
 5216POPC   GL268114  10.454  44.157   5.786
 5216POPC   C1A68115  10.699  44.039   6.264
 5216POPC   D2A68116  10.851  43.948   6.709
 5216POPC   C3A68117  10.921  43.514   6.845
 5216POPC   C4A68118  10.836  43.255   7.211
 5216POPC   C1B68119  10.203  44.265   6.111
 5216POPC   C2B68120  10.297  44.240   6.553
 5216POPC   C3B68121  10.260  44.079   6.956
 5216POPC   C4B68122  10.543  43.770   7.129
 5217POPC   NC368123  15.154  37.168   5.234
 5217POPC   PO468124  15.631  36.917   5.499
 5217POPC   GL168125  15.500  36.896   5.873
 5217POPC   GL268126  15.180  37.032   5.771
 5217POPC   C1A68127  15.402  37.047   6.271
 5217POPC   D2A68128  15.128  36.925   6.593
 5217POPC   C3A68129  15.288  36.915   7.002
 5217POPC   C4A68130  15.473  37.231   7.239
 5217POPC   C1B68131  14.902  36.906   6.101
 5217POPC   C2B68132  14.711  36.684   6.430
 5217POPC   C3B68133  14.844  36.586   6.838
 5217POPC   C4B68134  14.904  36.673   7.264
 5218POPC   NC368135  10.387   4.184   5.055
 5218POPC   PO468136  10.474   4.283   5.660
 5218POPC   GL168137  10.491   4.492   5.988
 5218POPC   GL268138  10.619   4.208   6.144
 5218POPC   C1A68139  10.299   4.625   6.341
 5218POPC   D2A68140  10.493   4.603   6.734
 5218POPC   C3A68141  10.359   4.314   7.041
 5218POPC   C4A68142  10.212   4.538   7.400
 5218POPC   C1B68143  10.847   4.456   6.407
 5218POPC   C2B68144  10.861   4.162   6.699
 5218POPC   C3B68145  10.829   3.989   7.081
 5218POPC   C4B68146  10.624   4.182   7.455
 5219POPC   NC368147   7.840   7.500   5.351
 5219POPC   PO468148   8.492   7.291   5.229
 5219POPC   GL168149   8.273   7.481   5.622
 5219POPC   GL268150   8.105   7.210   5.793
 5219POPC   C1A68151   8.297   7.602   6.079
 5219POPC   D2A68152   8.148   7.699   6.508
 5219POPC   C3A68153   8.423   7.685   6.859
 5219POPC   C4A68154   8.295   7.521   7.245
 5219POPC   C1B68155   7.971   7.224   6.260
 5219POPC   C2B68156   7.928   7.082   6.721
 5219POPC   C3B68157   7.944   7.112   7.187
 5219POPC   C4B68158   8.263   6.998   7.488
 5220POPC   NC368159  29.477  19.427   5.348
 5220POPC   PO468160  29.311  18.698   5.426
 5220POPC   GL168161  29.135  18.863   5.798
 5220POPC   GL268162  29.149  19.224   5.749
 5220POPC   C1A68163  29.141  18.765   6.235
 5220POPC   D2A68164  29.142  18.607   6.646
 5220POPC   C3A68165  29.162  18.886   6.931
 5220POPC   C4A68166  29.007  18.809   7.286
 5220POPC   C1B68167  28.945  19.232   6.180
 5220POPC   C2B68168  29.073  19.295   6.646
 5220POPC   C3B68169  28.874  19.263   7.089
 5220POPC   C4B68170  28.780  19.407   7.538
 5221POPC   NC368171  16.873   3.039   5.377
 5221POPC   PO468172  16.432   2.632   5.236
 5221POPC   GL168173  16.702   2.650   5.635
 5221POPC   GL268174  17.080   2.694   5.714
 5221POPC   C1A68175  16.697   2.698   6.090
 5221POPC   D2A68176  16.640   2.833   6.521
 5221POPC   C3A68177  16.896   2.631   6.791
 5221POPC   C4A68178  16.883   2.755   7.194
 5221POPC   C1B68179  17.129   2.980   6.057
 5221POPC   C2B68180  17.147   3.058   6.493
 5221POPC   C3B68181  16.939   3.160   6.856
 5221POPC   C4B68182  16.932   3.313   7.259
 5222POPC   NC368183  41.284   0.510   5.466
 5222POPC   PO468184  41.937   0.379   5.339
 5222POPC   GL168185  41.775   0.483   5.781
 5222POPC   GL268186  41.561   0.790   5.826
 5222POPC   C1A68187  41.763   0.595   6.252
 5222POPC   D2A68188  41.867   0.810   6.634
 5222POPC   C3A68189  41.581   0.665   6.909
 5222POPC   C4A68190  41.620   0.492   7.286
 5222POPC   C1B68191  41.250   0.586   6.139
 5222POPC   C2B68192  41.027   0.573   6.577
 5222POPC   C3B68193  41.093   0.587   7.037
 5222POPC   C4B68194  41.230   0.807   7.384
 5223POPC   NC368195   0.078   1.772   5.335
 5223POPC   PO468196  44.626   2.235   5.205
 5223POPC   GL168197  44.510   2.033   5.624
 5223POPC   GL268198  44.326   2.300   5.806
 5223POPC   C1A68199  44.627   1.988   6.086
 5223POPC   D2A68200  44.694   2.224   6.488
 5223POPC   C3A68201  44.759   1.914   6.818
 5223POPC   C4A68202  44.820   1.834   7.235
 5223POPC   C1B68203  44.240   2.376   6.276
 5223POPC   C2B68204  44.261   2.361   6.746
 5223POPC   C3B68205  44.523   2.238   7.120
 5223POPC   C4B68206  44.544   2.253   7.557
 5224POPC   NC368207   8.107  29.490   5.469
 5224POPC   PO468208   7.921  30.144   5.523
 5224POPC   GL168209   8.040  29.849   5.863
 5224POPC   GL268210   8.374  29.743   5.841
 5224POPC   C1A68211   8.190  29.854   6.301
 5224POPC   D2A68212   8.271  30.150   6.626
 5224POPC   C3A68213   7.949  30.207   6.927
 5224POPC   C4A68214   7.934  29.894   7.207
 5224POPC   C1B68215   8.520  29.438   6.201
 5224POPC   C2B68216   8.500  29.572   6.645
 5224POPC   C3B68217   8.394  29.699   7.086
 5224POPC   C4B68218   8.353  29.502   7.521
 5225POPC   NC368219  41.591  31.599   5.599
 5225POPC   PO468220  41.969  31.118   5.293
 5225POPC   GL168221  41.860  31.191   5.775
 5225POPC   GL268222  41.538  31.243   5.938
 5225POPC   C1A68223  41.838  31.448   6.239
 5225POPC   D2A68224  41.590  31.598   6.611
 5225POPC   C3A68225  41.782  31.619   7.025
 5225POPC   C4A68226  41.574  31.837   7.365
 5225POPC   C1B68227  41.410  31.169   6.369
 5225POPC   C2B68228  41.074  31.360   6.634
 5225POPC   C3B68229  41.194  31.548   7.039
 5225POPC   C4B68230  41.466  31.341   7.338
 5226POPC   NC368231  32.795   3.789   5.376
 5226POPC   PO468232  32.137   3.542   5.415
 5226POPC   GL168233  32.124   3.565   5.830
 5226POPC   GL268234  32.396   3.312   5.849
 5226POPC   C1A68235  31.972   3.835   6.201
 5226POPC   D2A68236  31.806   4.070   6.573
 5226POPC   C3A68237  31.950   3.928   6.972
 5226POPC   C4A68238  32.355   3.814   7.143
 5226POPC   C1B68239  32.366   3.507   6.259
 5226POPC   C2B68240  32.358   3.748   6.604
 5226POPC   C3B68241  32.620   3.513   6.833
 5226POPC   C4B68242  32.546   3.318   7.205
 5227POPC   NC368243  42.588  10.453   5.546
 5227POPC   PO468244  41.918  10.443   5.460
 5227POPC   GL168245  42.125  10.376   5.820
 5227POPC   GL268246  42.283  10.684   5.895
 5227POPC   C1A68247  42.300  10.296   6.210
 5227POPC   D2A68248  42.343  10.058   6.551
 5227POPC   C3A68249  42.316  10.198   6.965
 5227POPC   C4A68250  41.935  10.326   7.160
 5227POPC   C1B68251  42.223  10.816   6.288
 5227POPC   C2B68252  42.189  10.588   6.644
 5227POPC   C3B68253  42.276  10.693   7.056
 5227POPC   C4B68254  42.595  10.723   7.336
 5228POPC   NC368255  38.807  32.530   5.540
 5228POPC   PO468256  39.434  32.241   5.310
 5228POPC   GL168257  39.419  32.109   5.749
 5228POPC   GL268258  39.674  31.838   5.836
 5228POPC   C1A68259  39.167  32.241   6.115
 5228POPC   D2A68260  39.224  32.419   6.538
 5228POPC   C3A68261  39.174  32.113   6.853
 5228POPC   C4A68262  39.188  32.104   7.271
 5228POPC   C1B68263  39.682  32.147   6.191
 5228POPC   C2B68264  39.637  32.072   6.634
 5228POPC   C3B68265  39.653  32.150   7.076
 5228POPC   C4B68266  39.658  32.058   7.531
 5229POPC   NC368267  33.080   8.815   5.417
 5229POPC   PO468268  32.864   9.375   5.752
 5229POPC   GL168269  32.969   9.000   5.875
 5229POPC   GL268270  33.307   9.130   5.768
 5229POPC   C1A68271  32.875   8.719   6.226
 5229POPC   D2A68272  32.656   8.749   6.630
 5229POPC   C3A68273  32.652   9.133   6.844
 5229POPC   C4A68274  32.937   9.261   7.146
 5229POPC   C1B68275  33.350   8.965   6.207
 5229POPC   C2B68276  33.111   9.026   6.597
 5229POPC   C3B68277  33.053   8.807   6.943
 5229POPC   C4B68278  33.281   8.758   7.248
 5230POPC   NC368279  32.907  42.498   5.303
 5230POPC   PO468280  33.093  41.893   5.430
 5230POPC   GL168281  32.898  42.239   5.721
 5230POPC   GL268282  33.002  42.602   5.790
 5230POPC   C1A68283  32.769  42.259   6.116
 5230POPC   D2A68284  32.994  42.177   6.489
 5230POPC   C3A68285  32.845  42.243   6.911
 5230POPC   C4A68286  33.055  42.068   7.242
 5230POPC   C1B68287  33.152  42.564   6.198
 5230POPC   C2B68288  33.057  42.684   6.638
 5230POPC   C3B68289  33.189  42.569   7.058
 5230POPC   C4B68290  33.322  42.782   7.385
 5231POPC   NC368291  22.522  38.546   5.640
 5231POPC   PO468292  21.863  38.568   5.312
 5231POPC   GL168293  22.014  38.718   5.737
 5231POPC   GL268294  22.131  38.429   5.920
 5231POPC   C1A68295  22.218  38.877   6.155
 5231POPC   D2A68296  22.313  38.972   6.614
 5231POPC   C3A68297  22.201  38.624   6.915
 5231POPC   C4A68298  22.107  38.659   7.372
 5231POPC   C1B68299  22.208  38.276   6.323
 5231POPC   C2B68300  22.275  38.097   6.694
 5231POPC   C3B68301  22.530  38.233   7.012
 5231POPC   C4B68302  22.228  38.180   7.314
 5232POPC   NC368303  26.858  13.177   5.457
 5232POPC   PO468304  27.058  12.540   5.436
 5232POPC   GL168305  26.738  12.664   5.775
 5232POPC   GL268306  26.399  12.493   5.743
 5232POPC   C1A68307  26.668  12.986   6.134
 5232POPC   D2A68308  26.539  13.239   6.514
 5232POPC   C3A68309  26.641  13.129   6.941
 5232POPC   C4A68310  26.933  12.977   7.251
 5232POPC   C1B68311  26.446  12.524   6.202
 5232POPC   C2B68312  26.575  12.736   6.594
 5232POPC   C3B68313  26.517  12.619   7.034
 5232POPC   C4B68314  26.778  12.397   7.278
 5233POPC   NC368315  20.918  43.345   5.392
 5233POPC   PO468316  21.511  43.081   5.402
 5233POPC   GL168317  21.273  42.968   5.731
 5233POPC   GL268318  21.538  42.795   5.909
 5233POPC   C1A68319  21.180  43.068   6.183
 5233POPC   D2A68320  21.401  43.171   6.572
 5233POPC   C3A68321  21.176  43.225   6.957
 5233POPC   C4A68322  21.350  43.480   7.300
 5233POPC   C1B68323  21.505  42.696   6.349
 5233POPC   C2B68324  21.552  42.664   6.785
 5233POPC   C3B68325  21.515  42.887   7.167
 5233POPC   C4B68326  21.441  42.663   7.561
 5234POPC   NC368327  22.591  37.847   5.670
 5234POPC   PO468328  23.016  37.536   5.224
 5234POPC   GL168329  23.032  37.596   5.713
 5234POPC   GL268330  22.730  37.404   5.831
 5234POPC   C1A68331  23.020  37.864   6.155
 5234POPC   D2A68332  22.761  37.996   6.540
 5234POPC   C3A68333  22.975  37.930   6.945
 5234POPC   C4A68334  23.087  37.729   7.335
 5234POPC   C1B68335  22.994  37.360   6.181
 5234POPC   C2B68336  22.897  37.485   6.607
 5234POPC   C3B68337  22.956  37.332   7.026
 5234POPC   C4B68338  22.995  37.250   7.484
 5235POPC   NC368339  24.122  42.946   5.306
 5235POPC   PO468340  24.637  43.186   5.344
 5235POPC   GL168341  24.717  43.189   5.824
 5235POPC   GL268342  24.820  42.862   5.812
 5235POPC   C1A68343  24.630  43.310   6.276
 5235POPC   D2A68344  24.378  43.110   6.620
 5235POPC   C3A68345  24.471  43.111   7.081
 5235POPC   C4A68346  24.502  43.298   7.505
 5235POPC   C1B68347  24.596  42.802   6.221
 5235POPC   C2B68348  24.679  42.685   6.655
 5235POPC   C3B68349  24.460  42.598   7.026
 5235POPC   C4B68350  24.429  42.305   7.370
 5236POPC   NC368351  38.946  14.003   5.632
 5236POPC   PO468352  38.460  13.576   5.303
 5236POPC   GL168353  38.463  13.742   5.753
 5236POPC   GL268354  38.229  14.039   5.846
 5236POPC   C1A68355  38.541  13.507   6.175
 5236POPC   D2A68356  38.433  13.386   6.595
 5236POPC   C3A68357  38.656  13.512   6.969
 5236POPC   C4A68358  38.427  13.476   7.324
 5236POPC   C1B68359  38.571  14.013   6.176
 5236POPC   C2B68360  38.641  13.868   6.597
 5236POPC   C3B68361  38.444  13.982   7.002
 5236POPC   C4B68362  38.373  14.196   7.377
 5237POPC   NC368363  35.411   8.778   5.284
 5237POPC   PO468364  35.280   8.071   5.308
 5237POPC   GL168365  35.345   8.258   5.754
 5237POPC   GL268366  35.043   8.168   5.959
 5237POPC   C1A68367  35.470   8.470   6.154
 5237POPC   D2A68368  35.640   8.420   6.574
 5237POPC   C3A68369  35.418   8.414   6.975
 5237POPC   C4A68370  35.567   8.677   7.302
 5237POPC   C1B68371  35.328   7.957   6.214
 5237POPC   C2B68372  35.414   7.956   6.640
 5237POPC   C3B68373  35.415   7.896   7.053
 5237POPC   C4B68374  35.132   7.948   7.416
 5238POPC   NC368375   6.860  22.810   5.385
 5238POPC   PO468376   6.152  22.763   5.505
 5238POPC   GL168377   6.506  22.818   5.746
 5238POPC   GL268378   6.423  22.589   5.956
 5238POPC   C1A68379   6.837  22.826   6.094
 5238POPC   D2A68380   6.716  22.685   6.508
 5238POPC   C3A68381   6.695  22.920   6.892
 5238POPC   C4A68382   6.951  22.757   7.221
 5238POPC   C1B68383   6.361  22.957   6.227
 5238POPC   C2B68384   6.107  23.012   6.562
 5238POPC   C3B68385   6.159  23.018   7.006
 5238POPC   C4B68386   6.194  23.395   7.249
 5239POPC   NC368387  20.485  13.005   5.332
 5239POPC   PO468388  21.177  13.085   5.412
 5239POPC   GL168389  20.826  12.862   5.700
 5239POPC   GL268390  20.471  12.936   5.840
 5239POPC   C1A68391  20.829  12.801   6.162
 5239POPC   D2A68392  20.736  12.656   6.561
 5239POPC   C3A68393  20.446  12.855   6.821
 5239POPC   C4A68394  20.643  12.757   7.224
 5239POPC   C1B68395  20.343  12.642   6.202
 5239POPC   C2B68396  20.351  12.303   6.535
 5239POPC   C3B68397  20.409  12.377   6.986
 5239POPC   C4B68398  20.147  12.671   7.233
 5240POPC   NC368399  38.839  29.870   5.442
 5240POPC   PO468400  39.459  29.696   5.383
 5240POPC   GL168401  39.242  29.938   5.793
 5240POPC   GL268402  38.967  30.018   5.919
 5240POPC   C1A68403  39.121  29.966   6.365
 5240POPC   D2A68404  38.959  29.803   6.770
 5240POPC   C3A68405  39.332  29.753   7.054
 5240POPC   C4A68406  39.390  29.424   7.355
 5240POPC   C1B68407  39.404  30.283   6.098
 5240POPC   C2B68408  39.414  30.432   6.512
 5240POPC   C3B68409  39.222  30.245   6.846
 5240POPC   C4B68410  38.958  30.141   7.190
 5241POPC   NC368411  10.721   4.991   5.268
 5241POPC   PO468412  11.368   4.957   5.472
 5241POPC   GL168413  11.458   5.124   5.868
 5241POPC   GL268414  11.132   5.160   6.003
 5241POPC   C1A68415  11.537   5.274   6.295
 5241POPC   D2A68416  11.467   5.268   6.716
 5241POPC   C3A68417  11.127   5.297   7.019
 5241POPC   C4A68418  11.377   5.274   7.403
 5241POPC   C1B68419  11.265   4.803   6.293
 5241POPC   C2B68420  11.519   4.741   6.650
 5241POPC   C3B68421  11.460   4.884   7.053
 5241POPC   C4B68422  11.119   4.830   7.300
 5242POPC   NC368423  39.485  42.363   5.379
 5242POPC   PO468424  38.899  42.481   5.135
 5242POPC   GL168425  39.107  42.608   5.618
 5242POPC   GL268426  39.228  42.291   5.830
 5242POPC   C1A68427  39.020  42.619   6.135
 5242POPC   D2A68428  39.257  42.448   6.490
 5242POPC   C3A68429  39.358  42.350   6.909
 5242POPC   C4A68430  39.219  42.426   7.306
 5242POPC   C1B68431  39.390  42.052   6.212
 5242POPC   C2B68432  39.608  42.038   6.567
 5242POPC   C3B68433  39.483  41.846   6.906
 5242POPC   C4B68434  39.485  41.996   7.283
 5243POPC   NC368435  18.910  39.781   5.456
 5243POPC   PO468436  19.516  40.099   5.400
 5243POPC   GL168437  19.341  40.026   5.814
 5243POPC   GL268438  19.006  40.043   5.891
 5243POPC   C1A68439  19.323  40.141   6.264
 5243POPC   D2A68440  19.288  40.246   6.679
 5243POPC   C3A68441  18.919  40.335   6.853
 5243POPC   C4A68442  18.926  40.088   7.199
 5243POPC   C1B68443  18.969  39.797   6.312
 5243POPC   C2B68444  18.932  39.826   6.761
 5243POPC   C3B68445  18.761  39.604   7.134
 5243POPC   C4B68446  18.639  39.595   7.590
 5244POPC   NC368447  30.851   6.058   5.443
 5244POPC   PO468448  30.280   5.977   5.155
 5244POPC   GL168449  30.392   5.896   5.632
 5244POPC   GL268450  30.416   6.203   5.843
 5244POPC   C1A68451  30.537   5.713   6.105
 5244POPC   D2A68452  30.345   5.655   6.563
 5244POPC   C3A68453  30.646   5.640   6.937
 5244POPC   C4A68454  30.636   5.683   7.382
 5244POPC   C1B68455  30.402   6.158   6.317
 5244POPC   C2B68456  30.516   6.104   6.755
 5244POPC   C3B68457  30.479   6.127   7.191
 5244POPC   C4B68458  30.611   6.138   7.640
 5245POPC   NC368459   5.390  37.743   5.138
 5245POPC   PO468460   4.853  37.532   5.463
 5245POPC   GL168461   5.119  37.776   5.726
 5245POPC   GL268462   5.363  37.527   5.725
 5245POPC   C1A68463   4.992  37.953   6.136
 5245POPC   D2A68464   4.791  37.744   6.461
 5245POPC   C3A68465   4.971  37.921   6.845
 5245POPC   C4A68466   5.020  37.760   7.255
 5245POPC   C1B68467   5.321  37.582   6.206
 5245POPC   C2B68468   5.185  37.489   6.665
 5245POPC   C3B68469   5.444  37.614   7.044
 5245POPC   C4B68470   5.472  37.492   7.482
 5246POPC   NC368471  23.235  34.044   5.453
 5246POPC   PO468472  22.524  33.891   5.457
 5246POPC   GL168473  22.822  33.692   5.757
 5246POPC   GL268474  23.143  33.547   5.676
 5246POPC   C1A68475  23.105  33.872   6.114
 5246POPC   D2A68476  23.184  33.782   6.585
 5246POPC   C3A68477  22.787  33.862   6.855
 5246POPC   C4A68478  22.550  33.978   7.244
 5246POPC   C1B68479  23.060  33.374   6.110
 5246POPC   C2B68480  22.953  33.274   6.545
 5246POPC   C3B68481  23.034  33.420   6.968
 5246POPC   C4B68482  22.706  33.481   7.223
 5247POPC   NC368483   9.069  29.122   5.417
 5247POPC   PO468484   8.568  28.749   5.339
 5247POPC   GL168485   8.812  28.987   5.824
 5247POPC   GL268486   9.123  29.202   5.906
 5247POPC   C1A68487   8.894  29.010   6.310
 5247POPC   D2A68488   8.943  29.304   6.661
 5247POPC   C3A68489   8.713  29.299   7.051
 5247POPC   C4A68490   8.800  29.266   7.508
 5247POPC   C1B68491   9.231  29.469   6.260
 5247POPC   C2B68492   9.469  29.353   6.629
 5247POPC   C3B68493   9.297  29.280   7.057
 5247POPC   C4B68494   9.287  29.380   7.495
 5248POPC   NC368495  35.770  30.043   5.393
 5248POPC   PO468496  36.273  29.536   5.338
 5248POPC   GL168497  36.070  29.747   5.705
 5248POPC   GL268498  36.063  30.081   5.791
 5248POPC   C1A68499  35.847  29.776   6.126
 5248POPC   D2A68500  36.048  29.745   6.523
 5248POPC   C3A68501  35.835  29.699   6.924
 5248POPC   C4A68502  35.986  29.762   7.314
 5248POPC   C1B68503  36.057  30.277   6.151
 5248POPC   C2B68504  36.171  30.278   6.549
 5248POPC   C3B68505  36.225  30.061   6.908
 5248POPC   C4B68506  36.101  30.265   7.270
 5249POPC   NC368507   6.771  25.295   5.193
 5249POPC   PO468508   6.990  24.820   5.696
 5249POPC   GL168509   6.820  25.158   5.854
 5249POPC   GL268510   6.568  25.351   5.672
 5249POPC   C1A68511   6.919  25.279   6.281
 5249POPC   D2A68512   6.936  25.056   6.693
 5249POPC   C3A68513   7.017  25.351   7.013
 5249POPC   C4A68514   6.894  25.494   7.403
 5249POPC   C1B68515   6.431  25.306   6.111
 5249POPC   C2B68516   6.496  25.365   6.570
 5249POPC   C3B68517   6.277  25.365   6.956
 5249POPC   C4B68518   6.119  25.687   7.203
 5250POPC   NC368519  28.414  40.212   5.419
 5250POPC   PO468520  28.521  39.577   5.376
 5250POPC   GL168521  28.385  39.847   5.815
 5250POPC   GL268522  28.249  40.222   5.895
 5250POPC   C1A68523  28.148  39.886   6.260
 5250POPC   D2A68524  28.073  39.876   6.728
 5250POPC   C3A68525  28.409  40.103   6.977
 5250POPC   C4A68526  28.590  39.964   7.402
 5250POPC   C1B68527  28.022  40.398   6.264
 5250POPC   C2B68528  28.045  40.399   6.741
 5250POPC   C3B68529  28.077  40.488   7.199
 5250POPC   C4B68530  28.175  40.243   7.576
 5251POPC   NC368531  16.575  38.301   5.469
 5251POPC   PO468532  17.040  38.838   5.437
 5251POPC   GL168533  16.790  38.688   5.798
 5251POPC   GL268534  16.479  38.790   5.958
 5251POPC   C1A68535  16.887  38.548   6.233
 5251POPC   D2A68536  16.836  38.330   6.633
 5251POPC   C3A68537  16.868  38.529   7.046
 5251POPC   C4A68538  16.787  38.459   7.512
 5251POPC   C1B68539  16.407  38.366   6.182
 5251POPC   C2B68540  16.204  38.233   6.567
 5251POPC   C3B68541  16.420  38.325   6.946
 5251POPC   C4B68542  16.405  38.650   7.247
 5252POPC   NC368543  42.549  42.706   5.405
 5252POPC   PO468544  42.414  42.053   5.261
 5252POPC   GL168545  42.537  42.164   5.683
 5252POPC   GL268546  42.236  42.339   5.715
 5252POPC   C1A68547  42.505  42.145   6.152
 5252POPC   D2A68548  42.304  41.984   6.532
 5252POPC   C3A68549  42.320  42.268   6.871
 5252POPC   C4A68550  42.412  42.135   7.281
 5252POPC   C1B68551  42.242  42.586   6.092
 5252POPC   C2B68552  42.383  42.640   6.505
 5252POPC   C3B68553  42.145  42.787   6.858
 5252POPC   C4B68554  42.347  42.797   7.246
 5253POPC   NC368555   4.081  41.116   5.816
 5253POPC   PO468556   4.350  40.761   5.292
 5253POPC   GL168557   4.496  40.652   5.716
 5253POPC   GL268558   4.449  40.307   5.640
 5253POPC   C1A68559   4.462  40.752   6.182
 5253POPC   D2A68560   4.286  40.955   6.523
 5253POPC   C3A68561   4.412  40.889   6.923
 5253POPC   C4A68562   4.036  40.930   7.121
 5253POPC   C1B68563   4.434  40.251   6.112
 5253POPC   C2B68564   4.317  40.415   6.546
 5253POPC   C3B68565   4.148  40.449   6.969
 5253POPC   C4B68566   4.336  40.595   7.362
 5254POPC   NC368567  18.403   5.661   5.412
 5254POPC   PO468568  18.190   6.313   5.481
 5254POPC   GL168569  18.234   5.978   5.777
 5254POPC   GL268570  18.494   6.197   5.862
 5254POPC   C1A68571  18.188   5.627   6.115
 5254POPC   D2A68572  18.219   5.738   6.581
 5254POPC   C3A68573  18.071   5.534   6.929
 5254POPC   C4A68574  18.187   5.803   7.242
 5254POPC   C1B68575  18.402   6.074   6.254
 5254POPC   C2B68576  18.632   6.092   6.610
 5254POPC   C3B68577  18.627   5.930   6.994
 5254POPC   C4B68578  18.586   6.092   7.391
 5255POPC   NC368579  38.098  33.120   5.411
 5255POPC   PO468580  37.469  33.210   5.420
 5255POPC   GL168581  37.613  32.911   5.702
 5255POPC   GL268582  37.459  32.604   5.618
 5255POPC   C1A68583  37.645  32.984   6.146
 5255POPC   D2A68584  37.767  33.290   6.459
 5255POPC   C3A68585  37.978  33.121   6.806
 5255POPC   C4A68586  37.831  33.249   7.191
 5255POPC   C1B68587  37.200  32.755   6.010
 5255POPC   C2B68588  37.254  32.836   6.458
 5255POPC   C3B68589  37.467  32.972   6.850
 5255POPC   C4B68590  37.552  32.784   7.257
 5256POPC   NC368591  11.355  42.547   5.375
 5256POPC   PO468592  11.040  41.980   5.358
 5256POPC   GL168593  11.248  42.210   5.776
 5256POPC   GL268594  11.539  42.477   5.828
 5256POPC   C1A68595  11.353  42.264   6.245
 5256POPC   D2A68596  11.132  42.189   6.596
 5256POPC   C3A68597  11.296  42.344   6.964
 5256POPC   C4A68598  11.106  42.287   7.325
 5256POPC   C1B68599  11.541  42.737   6.200
 5256POPC   C2B68600  11.420  42.733   6.622
 5256POPC   C3B68601  11.583  42.758   7.030
 5256POPC   C4B68602  11.396  42.717   7.432
 5257POPC   NC368603  10.741  39.219   5.427
 5257POPC   PO468604  10.081  39.226   5.311
 5257POPC   GL168605  10.348  39.308   5.737
 5257POPC   GL268606  10.662  39.533   5.823
 5257POPC   C1A68607  10.284  39.379   6.189
 5257POPC   D2A68608  10.484  39.277   6.578
 5257POPC   C3A68609  10.523  39.431   6.989
 5257POPC   C4A68610  10.464  39.059   7.288
 5257POPC   C1B68611  10.788  39.251   6.158
 5257POPC   C2B68612  10.984  39.172   6.577
 5257POPC   C3B68613  10.954  39.069   7.005
 5257POPC   C4B68614  10.942  39.413   7.283
 5258POPC   NC368615  20.758  24.305   5.374
 5258POPC   PO468616  20.466  24.864   5.221
 5258POPC   GL168617  20.413  24.643   5.671
 5258POPC   GL268618  20.383  24.278   5.740
 5258POPC   C1A68619  20.633  24.621   6.121
 5258POPC   D2A68620  20.812  24.694   6.582
 5258POPC   C3A68621  20.594  24.799   6.999
 5258POPC   C4A68622  20.808  24.605   7.356
 5258POPC   C1B68623  20.413  24.125   6.144
 5258POPC   C2B68624  20.424  24.361   6.524
 5258POPC   C3B68625  20.560  24.283   6.940
 5258POPC   C4B68626  20.359  24.365   7.318
 5259POPC   NC368627   9.647  44.245   5.533
 5259POPC   PO468628  10.015  44.874   5.497
 5259POPC   GL168629   9.876  44.606   5.812
 5259POPC   GL268630   9.497  44.633   5.855
 5259POPC   C1A68631   9.876  44.634   6.239
 5259POPC   D2A68632  10.154  44.740   6.567
 5259POPC   C3A68633   9.946  44.497   6.841
 5259POPC   C4A68634   9.850  44.426   7.225
 5259POPC   C1B68635   9.393  44.410   6.255
 5259POPC   C2B68636   9.399  44.356   6.705
 5259POPC   C3B68637   9.341  44.356   7.146
 5259POPC   C4B68638   9.483  44.592   7.512
 5260POPC   NC368639  31.900   0.452   5.470
 5260POPC   PO468640  31.225   0.335   5.407
 5260POPC   GL168641  31.491   0.359   5.778
 5260POPC   GL268642  31.762   0.101   5.793
 5260POPC   C1A68643  31.518   0.698   6.108
 5260POPC   D2A68644  31.271   0.819   6.495
 5260POPC   C3A68645  31.201   0.587   6.877
 5260POPC   C4A68646  31.319   0.576   7.284
 5260POPC   C1B68647  31.797   0.277   6.197
 5260POPC   C2B68648  31.554   0.374   6.543
 5260POPC   C3B68649  31.697   0.488   6.936
 5260POPC   C4B68650  31.657   0.183   7.197
 5261POPC   NC368651  14.532  23.159   5.435
 5261POPC   PO468652  14.671  23.786   5.393
 5261POPC   GL168653  14.446  23.678   5.762
 5261POPC   GL268654  14.672  23.426   5.852
 5261POPC   C1A68655  14.419  23.818   6.202
 5261POPC   D2A68656  14.639  23.832   6.593
 5261POPC   C3A68657  14.409  23.796   6.950
 5261POPC   C4A68658  14.062  23.907   7.208
 5261POPC   C1B68659  14.400  23.265   6.149
 5261POPC   C2B68660  14.367  23.392   6.554
 5261POPC   C3B68661  14.577  23.293   6.922
 5261POPC   C4B68662  14.565  23.467   7.315
 5262POPC   NC368663   2.601  31.839   5.462
 5262POPC   PO468664   2.946  32.435   5.365
 5262POPC   GL168665   2.834  32.373   5.775
 5262POPC   GL268666   2.934  32.053   5.776
 5262POPC   C1A68667   2.770  32.251   6.214
 5262POPC   D2A68668   2.631  32.100   6.610
 5262POPC   C3A68669   2.720  32.263   7.000
 5262POPC   C4A68670   2.438  32.559   7.204
 5262POPC   C1B68671   3.168  31.953   6.132
 5262POPC   C2B68672   3.136  32.133   6.546
 5262POPC   C3B68673   3.108  31.932   6.926
 5262POPC   C4B68674   3.134  32.038   7.332
 5263POPC   NC368675  13.529  23.650   5.304
 5263POPC   PO468676  13.892  24.168   5.518
 5263POPC   GL168677  13.556  23.946   5.761
 5263POPC   GL268678  13.712  23.614   5.772
 5263POPC   C1A68679  13.519  23.824   6.208
 5263POPC   D2A68680  13.761  23.985   6.551
 5263POPC   C3A68681  13.625  23.789   6.921
 5263POPC   C4A68682  13.576  23.890   7.337
 5263POPC   C1B68683  13.961  23.553   6.136
 5263POPC   C2B68684  13.845  23.469   6.543
 5263POPC   C3B68685  14.023  23.463   6.936
 5263POPC   C4B68686  13.843  23.460   7.356
 5264POPC   NC368687  22.134  23.305   5.357
 5264POPC   PO468688  22.269  23.968   5.408
 5264POPC   GL168689  22.243  23.712   5.778
 5264POPC   GL268690  21.885  23.699   5.796
 5264POPC   C1A68691  22.242  23.532   6.223
 5264POPC   D2A68692  22.377  23.472   6.674
 5264POPC   C3A68693  22.072  23.400   7.005
 5264POPC   C4A68694  21.896  23.681   7.276
 5264POPC   C1B68695  21.854  23.864   6.204
 5264POPC   C2B68696  22.101  23.916   6.591
 5264POPC   C3B68697  22.112  24.062   6.991
 5264POPC   C4B68698  21.927  24.175   7.346
 5265POPC   NC368699   6.947   5.224   5.417
 5265POPC   PO468700   6.646   4.663   5.396
 5265POPC   GL168701   6.561   4.822   5.785
 5265POPC   GL268702   6.213   4.729   5.793
 5265POPC   C1A68703   6.811   4.907   6.200
 5265POPC   D2A68704   7.011   5.127   6.585
 5265POPC   C3A68705   6.736   5.321   6.904
 5265POPC   C4A68706   6.609   5.004   7.212
 5265POPC   C1B68707   6.288   4.994   6.176
 5265POPC   C2B68708   6.366   5.268   6.545
 5265POPC   C3B68709   6.195   5.171   6.958
 5265POPC   C4B68710   6.161   4.761   7.166
 5266POPC   NC368711  25.160  12.654   5.477
 5266POPC   PO468712  25.712  13.068   5.337
 5266POPC   GL168713  25.542  12.904   5.738
 5266POPC   GL268714  25.234  13.012   5.863
 5266POPC   C1A68715  25.591  12.883   6.221
 5266POPC   D2A68716  25.707  12.752   6.676
 5266POPC   C3A68717  25.351  12.596   6.878
 5266POPC   C4A68718  25.234  13.020   6.980
 5266POPC   C1B68719  25.154  12.622   6.115
 5266POPC   C2B68720  24.965  12.658   6.500
 5266POPC   C3B68721  24.771  12.775   6.854
 5266POPC   C4B68722  24.942  12.682   7.217
 5267POPC   NC368723  40.017  39.746   5.170
 5267POPC   PO468724  39.827  40.255   5.465
 5267POPC   GL168725  40.008  40.091   5.814
 5267POPC   GL268726  39.936  39.736   5.762
 5267POPC   C1A68727  40.226  40.253   6.198
 5267POPC   D2A68728  40.156  40.503   6.572
 5267POPC   C3A68729  39.988  40.215   6.865
 5267POPC   C4A68730  40.102  40.191   7.279
 5267POPC   C1B68731  39.889  39.813   6.219
 5267POPC   C2B68732  40.009  39.693   6.634
 5267POPC   C3B68733  39.813  39.742   7.028
 5267POPC   C4B68734  39.866  39.753   7.427
 5268POPC   NC368735   8.319  29.046   5.087
 5268POPC   PO468736   7.908  29.100   5.621
 5268POPC   GL168737   8.085  29.308   5.945
 5268POPC   GL268738   8.389  29.219   5.768
 5268POPC   C1A68739   8.064  29.360   6.403
 5268POPC   D2A68740   7.998  29.609   6.769
 5268POPC   C3A68741   7.985  29.382   7.186
 5268POPC   C4A68742   7.980  29.151   7.605
 5268POPC   C1B68743   8.389  28.940   6.122
 5268POPC   C2B68744   8.430  29.034   6.533
 5268POPC   C3B68745   8.257  29.038   6.920
 5268POPC   C4B68746   8.402  29.000   7.338
 5269POPC   NC368747   3.133   6.859   5.456
 5269POPC   PO468748   2.677   6.557   5.041
 5269POPC   GL168749   2.878   6.454   5.638
 5269POPC   GL268750   2.883   6.859   5.890
 5269POPC   C1A68751   2.793   6.467   6.149
 5269POPC   D2A68752   2.486   6.736   6.402
 5269POPC   C3A68753   2.497   6.760   6.853
 5269POPC   C4A68754   2.735   6.476   7.089
 5269POPC   C1B68755   3.125   6.859   6.262
 5269POPC   C2B68756   2.962   6.702   6.642
 5269POPC   C3B68757   2.991   6.917   7.020
 5269POPC   C4B68758   3.345   6.951   7.257
 5270POPC   NC368759  38.072  18.969   5.583
 5270POPC   PO468760  37.812  19.504   5.422
 5270POPC   GL168761  37.629  19.245   5.796
 5270POPC   GL268762  37.541  18.861   5.840
 5270POPC   C1A68763  37.658  19.166   6.254
 5270POPC   D2A68764  37.411  19.135   6.621
 5270POPC   C3A68765  37.657  19.083   7.001
 5270POPC   C4A68766  37.863  19.100   7.416
 5270POPC   C1B68767  37.845  18.700   6.146
 5270POPC   C2B68768  37.893  18.772   6.586
 5270POPC   C3B68769  37.944  18.606   7.002
 5270POPC   C4B68770  37.662  18.628   7.340
 5271POPC   NC368771  38.612  13.098   5.370
 5271POPC   PO468772  38.030  12.685   5.448
 5271POPC   GL168773  38.192  12.943   5.827
 5271POPC   GL268774  38.579  13.031   5.880
 5271POPC   C1A68775  38.309  12.976   6.295
 5271POPC   D2A68776  38.626  12.920   6.639
 5271POPC   C3A68777  38.452  13.044   7.006
 5271POPC   C4A68778  38.125  12.895   7.263
 5271POPC   C1B68779  38.761  12.714   6.196
 5271POPC   C2B68780  39.002  12.573   6.589
 5271POPC   C3B68781  38.862  12.596   7.013
 5271POPC   C4B68782  38.622  12.747   7.370
 5272POPC   NC368783  26.271  22.505   5.406
 5272POPC   PO468784  26.277  21.845   5.154
 5272POPC   GL168785  25.986  22.109   5.562
 5272POPC   GL268786  25.696  22.161   5.765
 5272POPC   C1A68787  26.088  22.162   6.081
 5272POPC   D2A68788  26.233  22.292   6.515
 5272POPC   C3A68789  26.135  22.007   6.878
 5272POPC   C4A68790  26.321  22.033   7.305
 5272POPC   C1B68791  25.591  22.289   6.148
 5272POPC   C2B68792  25.747  22.061   6.503
 5272POPC   C3B68793  25.626  22.159   6.913
 5272POPC   C4B68794  25.817  22.135   7.291
 5273POPC   NC368795   4.870  29.406   5.334
 5273POPC   PO468796   5.334  29.046   5.363
 5273POPC   GL168797   5.409  29.030   5.804
 5273POPC   GL268798   5.158  29.276   5.817
 5273POPC   C1A68799   5.466  28.908   6.252
 5273POPC   D2A68800   5.539  29.111   6.657
 5273POPC   C3A68801   5.369  28.960   7.032
 5273POPC   C4A68802   5.285  29.298   7.282
 5273POPC   C1B68803   4.985  29.073   6.176
 5273POPC   C2B68804   5.039  28.998   6.619
 5273POPC   C3B68805   4.877  29.133   7.026
 5273POPC   C4B68806   4.823  29.085   7.466
 5274POPC   NC368807  27.835  21.745   5.488
 5274POPC   PO468808  27.261  21.880   5.328
 5274POPC   GL168809  27.414  21.977   5.757
 5274POPC   GL268810  27.306  21.726   5.960
 5274POPC   C1A68811  27.675  22.212   6.110
 5274POPC   D2A68812  27.950  22.263   6.516
 5274POPC   C3A68813  27.760  22.217   6.945
 5274POPC   C4A68814  27.750  21.958   7.311
 5274POPC   C1B68815  27.200  22.063   6.226
 5274POPC   C2B68816  27.401  22.231   6.575
 5274POPC   C3B68817  27.237  22.248   6.994
 5274POPC   C4B68818  27.246  22.015   7.352
 5275POPC   NC368819   7.054   2.629   5.404
 5275POPC   PO468820   6.433   3.021   5.458
 5275POPC   GL168821   6.472   2.930   5.902
 5275POPC   GL268822   6.839   2.837   5.857
 5275POPC   C1A68823   6.335   3.073   6.359
 5275POPC   D2A68824   6.428   3.257   6.800
 5275POPC   C3A68825   6.496   2.949   7.118
 5275POPC   C4A68826   6.441   2.459   7.152
 5275POPC   C1B68827   6.739   2.665   6.277
 5275POPC   C2B68828   6.655   2.665   6.723
 5275POPC   C3B68829   6.934   2.675   7.117
 5275POPC   C4B68830   6.929   2.566   7.542
 5276POPC   NC368831  43.688   0.481   5.459
 5276POPC   PO468832  43.933  44.911   5.499
 5276POPC   GL168833  43.756   0.140   5.880
 5276POPC   GL268834  43.802  44.993   6.239
 5276POPC   C1A68835  43.657   0.472   6.220
 5276POPC   D2A68836  43.656   0.337   6.669
 5276POPC   C3A68837  43.780   0.462   7.098
 5276POPC   C4A68838  43.821   0.329   7.550
 5276POPC   C1B68839  44.099   0.290   6.382
 5276POPC   C2B68840  44.202   0.416   6.823
 5276POPC   C3B68841  44.266   0.301   7.276
 5276POPC   C4B68842  44.621   0.244   7.561
 5277POPC   NC368843  28.429  21.004   5.078
 5277POPC   PO468844  28.497  20.403   5.325
 5277POPC   GL168845  28.439  20.495   5.787
 5277POPC   GL268846  28.107  20.598   5.840
 5277POPC   C1A68847  28.442  20.815   6.162
 5277POPC   D2A68848  28.322  20.924   6.589
 5277POPC   C3A68849  28.576  20.667   6.883
 5277POPC   C4A68850  28.499  20.471   7.267
 5277POPC   C1B68851  28.113  20.405   6.238
 5277POPC   C2B68852  28.133  20.428   6.670
 5277POPC   C3B68853  28.047  20.622   7.051
 5277POPC   C4B68854  28.059  20.545   7.505
 5278POPC   NC368855  32.442  20.483   5.353
 5278POPC   PO468856  31.786  20.580   5.306
 5278POPC   GL168857  32.042  20.568   5.667
 5278POPC   GL268858  32.131  20.278   5.836
 5278POPC   C1A68859  32.036  20.741   6.090
 5278POPC   D2A68860  32.158  20.981   6.480
 5278POPC   C3A68861  32.353  20.759   6.858
 5278POPC   C4A68862  32.469  20.584   7.271
 5278POPC   C1B68863  31.937  20.257   6.271
 5278POPC   C2B68864  31.840  20.593   6.604
 5278POPC   C3B68865  31.883  20.606   7.069
 5278POPC   C4B68866  31.964  20.226   7.344
 5279POPC   NC368867  33.886  23.377   5.270
 5279POPC   PO468868  33.676  22.766   5.287
 5279POPC   GL168869  33.636  23.015   5.662
 5279POPC   GL268870  33.864  22.770   5.798
 5279POPC   C1A68871  33.825  23.226   6.035
 5279POPC   D2A68872  33.950  23.354   6.449
 5279POPC   C3A68873  34.143  23.131   6.789
 5279POPC   C4A68874  33.929  23.163   7.165
 5279POPC   C1B68875  34.077  22.748   6.204
 5279POPC   C2B68876  34.163  22.627   6.617
 5279POPC   C3B68877  34.106  22.678   7.035
 5279POPC   C4B68878  33.750  22.666   7.238
 5280POPC   NC368879  29.962   2.621   5.563
 5280POPC   PO468880  29.502   3.032   5.439
 5280POPC   GL168881  29.673   2.944   5.850
 5280POPC   GL268882  30.068   2.998   5.890
 5280POPC   C1A68883  29.713   2.881   6.289
 5280POPC   D2A68884  29.783   2.970   6.718
 5280POPC   C3A68885  29.913   2.608   6.963
 5280POPC   C4A68886  29.744   2.349   7.270
 5280POPC   C1B68887  30.273   3.017   6.331
 5280POPC   C2B68888  30.287   2.957   6.800
 5280POPC   C3B68889  30.226   2.911   7.242
 5280POPC   C4B68890  30.155   2.965   7.745
 5281POPC   NC368891  44.260  44.586   5.544
 5281POPC   PO468892  43.684  44.336   5.661
 5281POPC   GL168893  43.651  44.576   5.998
 5281POPC   GL268894  43.372  44.824   5.997
 5281POPC   C1A68895  43.696  44.366   6.389
 5281POPC   D2A68896  43.533  44.374   6.780
 5281POPC   C3A68897  43.861  44.549   7.030
 5281POPC   C4A68898  43.946  44.883   7.316
 5281POPC   C1B68899  43.321   0.065   6.334
 5281POPC   C2B68900  43.415  44.879   6.712
 5281POPC   C3B68901  43.513   0.041   7.099
 5281POPC   C4B68902  43.507  44.930   7.589
 5282POPC   NC368903  24.787  34.320   5.475
 5282POPC   PO468904  25.316  33.953   5.286
 5282POPC   GL168905  25.383  33.839   5.723
 5282POPC   GL268906  25.400  33.502   5.826
 5282POPC   C1A68907  25.463  33.833   6.186
 5282POPC   D2A68908  25.218  33.752   6.532
 5282POPC   C3A68909  25.322  33.921   6.936
 5282POPC   C4A68910  25.465  34.091   7.315
 5282POPC   C1B68911  25.080  33.371   6.119
 5282POPC   C2B68912  24.984  33.281   6.558
 5282POPC   C3B68913  25.041  33.468   6.951
 5282POPC   C4B68914  25.306  33.422   7.274
 5283POPC   NC368915   5.882  42.462   5.538
 5283POPC   PO468916   5.369  41.953   5.490
 5283POPC   GL168917   5.612  42.162   5.864
 5283POPC   GL268918   6.005  42.122   5.941
 5283POPC   C1A68919   5.645  42.282   6.301
 5283POPC   D2A68920   5.835  42.236   6.694
 5283POPC   C3A68921   5.613  42.202   7.110
 5283POPC   C4A68922   5.732  42.391   7.517
 5283POPC   C1B68923   6.231  42.289   6.335
 5283POPC   C2B68924   6.327  42.681   6.610
 5283POPC   C3B68925   6.345  42.823   7.077
 5283POPC   C4B68926   6.106  42.815   7.494
 5284POPC   NC368927   8.158  28.726   5.536
 5284POPC   PO468928   7.843  28.106   5.521
 5284POPC   GL168929   8.121  28.259   5.795
 5284POPC   GL268930   7.887  28.504   5.901
 5284POPC   C1A68931   8.254  28.242   6.222
 5284POPC   D2A68932   8.311  27.968   6.581
 5284POPC   C3A68933   8.378  28.177   6.983
 5284POPC   C4A68934   8.577  28.501   7.248
 5284POPC   C1B68935   7.936  28.712   6.300
 5284POPC   C2B68936   8.080  28.537   6.688
 5284POPC   C3B68937   7.894  28.390   7.047
 5284POPC   C4B68938   7.942  28.784   7.262
 5285POPC   NC368939   4.196  41.211   5.251
 5285POPC   PO468940   4.231  41.538   5.795
 5285POPC   GL168941   4.436  41.744   6.118
 5285POPC   GL268942   4.788  41.743   6.006
 5285POPC   C1A68943   4.338  41.937   6.534
 5285POPC   D2A68944   4.071  41.775   6.872
 5285POPC   C3A68945   4.264  41.405   7.030
 5285POPC   C4A68946   4.700  41.442   7.164
 5285POPC   C1B68947   4.760  42.111   6.274
 5285POPC   C2B68948   4.764  42.208   6.716
 5285POPC   C3B68949   4.506  42.008   7.054
 5285POPC   C4B68950   4.097  42.095   7.274
 5286POPC   NC368951  40.146  21.713   5.522
 5286POPC   PO468952  40.054  21.168   5.480
 5286POPC   GL168953  39.946  21.220   5.911
 5286POPC   GL268954  39.922  21.586   5.956
 5286POPC   C1A68955  39.925  21.289   6.358
 5286POPC   D2A68956  39.866  21.638   6.631
 5286POPC   C3A68957  39.763  21.393   6.960
 5286POPC   C4A68958  40.045  21.086   7.144
 5286POPC   C1B68959  40.366  21.649   6.125
 5286POPC   C2B68960  40.525  21.878   6.479
 5286POPC   C3B68961  40.274  21.904   6.814
 5286POPC   C4B68962  40.140  21.635   7.173
 5287POPC   NC368963  42.907  37.373   5.390
 5287POPC   PO468964  43.324  37.857   5.204
 5287POPC   GL168965  43.120  37.815   5.648
 5287POPC   GL268966  43.126  37.494   5.845
 5287POPC   C1A68967  42.949  37.904   6.099
 5287POPC   D2A68968  43.072  37.633   6.447
 5287POPC   C3A68969  43.060  37.722   6.900
 5287POPC   C4A68970  43.246  37.853   7.320
 5287POPC   C1B68971  43.443  37.390   6.172
 5287POPC   C2B68972  43.488  37.426   6.653
 5287POPC   C3B68973  43.382  37.353   7.093
 5287POPC   C4B68974  43.526  37.456   7.487
 5288POPC   NC368975  10.664  18.943   5.461
 5288POPC   PO468976  10.496  19.525   5.330
 5288POPC   GL168977  10.361  19.285   5.686
 5288POPC   GL268978  10.362  19.535   5.915
 5288POPC   C1A68979  10.344  19.055   6.112
 5288POPC   D2A68980  10.315  19.053   6.595
 5288POPC   C3A68981  10.677  19.005   6.903
 5288POPC   C4A68982  10.517  18.770   7.282
 5288POPC   C1B68983  10.460  19.497   6.361
 5288POPC   C2B68984  10.300  19.535   6.768
 5288POPC   C3B68985  10.319  19.309   7.105
 5288POPC   C4B68986  10.678  19.245   7.380
 5289POPC   NC368987  20.932   7.344   5.302
 5289POPC   PO468988  21.542   7.181   5.365
 5289POPC   GL168989  21.476   7.405   5.772
 5289POPC   GL268990  21.253   7.722   5.857
 5289POPC   C1A68991  21.365   7.304   6.193
 5289POPC   D2A68992  21.513   7.414   6.594
 5289POPC   C3A68993  21.265   7.243   6.916
 5289POPC   C4A68994  21.428   6.999   7.240
 5289POPC   C1B68995  21.227   7.774   6.332
 5289POPC   C2B68996  21.249   7.791   6.813
 5289POPC   C3B68997  21.367   7.626   7.231
 5289POPC   C4B68998  21.209   7.399   7.535
 5290POPC   NC368999   8.269  37.347   5.450
 5290POPC   PO469000   8.084  38.003   5.470
 5290POPC   GL169001   8.172  38.002   5.898
 5290POPC   GL269002   8.317  37.706   5.904
 5290POPC   C1A69003   8.243  38.066   6.360
 5290POPC   D2A69004   8.029  37.879   6.686
 5290POPC   C3A69005   8.108  37.963   7.099
 5290POPC   C4A69006   8.269  37.687   7.337
 5290POPC   C1B69007   8.577  37.379   6.149
 5290POPC   C2B69008   8.576  37.218   6.603
 5290POPC   C3B69009   8.513  37.348   7.041
 5290POPC   C4B69010   8.768  37.408   7.406
 5291POPC   NC369011   7.619   6.559   5.508
 5291POPC   PO469012   7.171   7.032   5.649
 5291POPC   GL169013   7.426   6.817   5.891
 5291POPC   GL269014   7.187   6.521   5.782
 5291POPC   C1A69015   7.556   6.498   6.173
 5291POPC   D2A69016   7.613   6.323   6.583
 5291POPC   C3A69017   7.627   6.652   6.842
 5291POPC   C4A69018   7.523   6.812   7.197
 5291POPC   C1B69019   7.065   6.625   6.181
 5291POPC   C2B69020   7.174   6.587   6.573
 5291POPC   C3B69021   7.181   6.340   6.914
 5291POPC   C4B69022   7.041   6.568   7.227
 5292POPC   NC369023  35.932   3.510   5.282
 5292POPC   PO469024  36.576   3.666   5.148
 5292POPC   GL169025  36.309   3.487   5.615
 5292POPC   GL269026  35.900   3.443   5.761
 5292POPC   C1A69027  36.223   3.628   6.106
 5292POPC   D2A69028  35.984   3.825   6.503
 5292POPC   C3A69029  36.146   3.773   6.949
 5292POPC   C4A69030  36.490   3.461   7.092
 5292POPC   C1B69031  35.726   3.546   6.159
 5292POPC   C2B69032  35.906   3.314   6.516
 5292POPC   C3B69033  36.017   3.284   6.973
 5292POPC   C4B69034  35.844   3.533   7.323
 5293POPC   NC369035  11.405  21.077   5.401
 5293POPC   PO469036  11.540  21.711   5.383
 5293POPC   GL169037  11.347  21.471   5.762
 5293POPC   GL269038  11.023  21.269   5.748
 5293POPC   C1A69039  11.140  21.495   6.188
 5293POPC   D2A69040  10.927  21.476   6.591
 5293POPC   C3A69041  11.262  21.540   6.878
 5293POPC   C4A69042  11.427  21.628   7.282
 5293POPC   C1B69043  11.134  20.990   6.109
 5293POPC   C2B69044  11.263  21.093   6.533
 5293POPC   C3B69045  11.164  21.054   6.973
 5293POPC   C4B69046  11.374  21.119   7.388
 5294POPC   NC369047  28.900  23.902   5.220
 5294POPC   PO469048  28.304  23.707   5.263
 5294POPC   GL169049  28.261  23.631   5.711
 5294POPC   GL269050  28.110  23.349   5.863
 5294POPC   C1A69051  28.365  23.822   6.125
 5294POPC   D2A69052  28.208  23.842   6.559
 5294POPC   C3A69053  28.423  23.906   6.951
 5294POPC   C4A69054  28.508  23.701   7.316
 5294POPC   C1B69055  27.950  23.497   6.252
 5294POPC   C2B69056  27.872  23.502   6.691
 5294POPC   C3B69057  28.107  23.446   7.064
 5294POPC   C4B69058  28.058  23.575   7.486
 5295POPC   NC369059  28.390   1.662   5.278
 5295POPC   PO469060  28.003   2.169   5.519
 5295POPC   GL169061  28.334   1.991   5.770
 5295POPC   GL269062  28.594   1.740   5.762
 5295POPC   C1A69063  28.464   2.119   6.176
 5295POPC   D2A69064  28.252   2.235   6.569
 5295POPC   C3A69065  28.476   2.382   6.906
 5295POPC   C4A69066  28.385   2.276   7.320
 5295POPC   C1B69067  28.556   1.604   6.179
 5295POPC   C2B69068  28.530   1.804   6.586
 5295POPC   C3B69069  28.367   1.863   7.004
 5295POPC   C4B69070  27.991   1.819   7.279
 5296POPC   NC369071   3.682   5.584   5.416
 5296POPC   PO469072   3.455   6.243   5.574
 5296POPC   GL169073   3.541   5.859   5.836
 5296POPC   GL269074   3.838   5.624   5.896
 5296POPC   C1A69075   3.316   5.608   6.134
 5296POPC   D2A69076   3.347   5.460   6.545
 5296POPC   C3A69077   3.504   5.729   6.878
 5296POPC   C4A69078   3.413   6.012   7.232
 5296POPC   C1B69079   3.757   5.810   6.307
 5296POPC   C2B69080   3.670   6.141   6.591
 5296POPC   C3B69081   3.824   6.155   6.987
 5296POPC   C4B69082   4.038   5.988   7.311
 5297POPC   NC369083  41.033  13.096   5.484
 5297POPC   PO469084  40.749  12.543   5.278
 5297POPC   GL169085  40.750  12.540   5.741
 5297POPC   GL269086  40.902  12.835   5.897
 5297POPC   C1A69087  40.498  12.602   6.133
 5297POPC   D2A69088  40.324  12.884   6.457
 5297POPC   C3A69089  40.515  12.785   6.825
 5297POPC   C4A69090  40.415  12.733   7.226
 5297POPC   C1B69091  40.815  13.016   6.267
 5297POPC   C2B69092  40.951  12.962   6.647
 5297POPC   C3B69093  40.885  13.069   7.050
 5297POPC   C4B69094  41.172  13.093   7.399
 5298POPC   NC369095  35.225  32.508   5.236
 5298POPC   PO469096  35.547  31.884   5.367
 5298POPC   GL169097  35.509  32.267   5.632
 5298POPC   GL269098  35.172  32.184   5.685
 5298POPC   C1A69099  35.474  32.384   6.085
 5298POPC   D2A69100  35.566  32.114   6.451
 5298POPC   C3A69101  35.505  32.318   6.828
 5298POPC   C4A69102  35.573  32.179   7.237
 5298POPC   C1B69103  35.181  31.935   6.104
 5298POPC   C2B69104  35.192  31.753   6.546
 5298POPC   C3B69105  35.211  31.917   6.989
 5298POPC   C4B69106  35.087  32.364   7.136
 5299POPC   NC369107  41.274  29.555   5.454
 5299POPC   PO469108  41.588  30.200   5.345
 5299POPC   GL169109  41.562  29.932   5.739
 5299POPC   GL269110  41.309  30.141   5.907
 5299POPC   C1A69111  41.385  29.694   6.131
 5299POPC   D2A69112  41.100  29.806   6.491
 5299POPC   C3A69113  41.217  29.682   6.895
 5299POPC   C4A69114  41.630  29.690   7.093
 5299POPC   C1B69115  41.665  30.109   6.221
 5299POPC   C2B69116  41.570  30.009   6.644
 5299POPC   C3B69117  41.353  30.150   6.987
 5299POPC   C4B69118  41.581  30.167   7.307
 5300POPC   NC369119  36.941  16.641   5.515
 5300POPC   PO469120  36.523  17.144   5.468
 5300POPC   GL169121  36.824  17.041   5.816
 5300POPC   GL269122  36.609  16.791   5.893
 5300POPC   C1A69123  37.076  16.793   6.155
 5300POPC   D2A69124  37.037  16.496   6.507
 5300POPC   C3A69125  37.112  16.640   6.904
 5300POPC   C4A69126  37.142  16.658   7.326
 5300POPC   C1B69127  36.614  16.968   6.311
 5300POPC   C2B69128  36.933  17.037   6.630
 5300POPC   C3B69129  36.920  17.070   7.083
 5300POPC   C4B69130  36.510  16.993   7.123
 5301POPC   NC369131  35.098   9.289   5.596
 5301POPC   PO469132  35.726   9.089   5.406
 5301POPC   GL169133  35.417   8.878   5.778
 5301POPC   GL269134  35.408   9.116   5.974
 5301POPC   C1A69135  35.100   8.803   6.177
 5301POPC   D2A69136  35.166   8.676   6.611
 5301POPC   C3A69137  35.143   8.919   7.024
 5301POPC   C4A69138  35.153   9.355   7.247
 5301POPC   C1B69139  35.569   8.965   6.366
 5301POPC   C2B69140  35.609   8.882   6.807
 5301POPC   C3B69141  35.799   9.125   7.123
 5301POPC   C4B69142  35.606   9.209   7.509
 5302POPC   NC369143  38.149  14.613   5.608
 5302POPC   PO469144  38.640  14.263   5.359
 5302POPC   GL169145  38.603  14.393   5.781
 5302POPC   GL269146  38.835  14.614   5.903
 5302POPC   C1A69147  38.400  14.487   6.189
 5302POPC   D2A69148  38.321  14.271   6.573
 5302POPC   C3A69149  38.311  14.484   6.967
 5302POPC   C4A69150  38.122  14.656   7.359
 5302POPC   C1B69151  38.893  14.406   6.296
 5302POPC   C2B69152  38.798  14.378   6.734
 5302POPC   C3B69153  38.793  14.429   7.180
 5302POPC   C4B69154  38.805  14.328   7.611
 5303POPC   NC369155  24.049  10.378   5.245
 5303POPC   PO469156  24.657  10.597   4.978
 5303POPC   GL169157  24.534  10.356   5.433
 5303POPC   GL269158  24.294  10.568   5.678
 5303POPC   C1A69159  24.638  10.246   5.911
 5303POPC   D2A69160  24.736  10.357   6.370
 5303POPC   C3A69161  24.479  10.492   6.739
 5303POPC   C4A69162  24.490  10.861   7.038
 5303POPC   C1B69163  24.226  10.480   6.156
 5303POPC   C2B69164  23.942  10.406   6.519
 5303POPC   C3B69165  23.991  10.543   6.948
 5303POPC   C4B69166  24.269  10.385   7.226
 5304POPC   NC369167  14.552   5.100   5.379
 5304POPC   PO469168  13.888   4.985   5.381
 5304POPC   GL169169  14.175   4.907   5.769
 5304POPC   GL269170  14.496   4.730   5.742
 5304POPC   C1A69171  14.279   5.081   6.203
 5304POPC   D2A69172  14.201   4.998   6.656
 5304POPC   C3A69173  14.317   5.257   7.027
 5304POPC   C4A69174  14.168   5.057   7.428
 5304POPC   C1B69175  14.579   4.652   6.185
 5304POPC   C2B69176  14.694   4.883   6.579
 5304POPC   C3B69177  14.632   4.842   7.024
 5304POPC   C4B69178  14.666   5.067   7.381
 5305POPC   NC369179  10.696  15.100   5.253
 5305POPC   PO469180  10.173  15.056   5.434
 5305POPC   GL169181  10.525  15.067   5.780
 5305POPC   GL269182  10.844  15.276   5.727
 5305POPC   C1A69183  10.471  15.061   6.276
 5305POPC   D2A69184  10.405  14.891   6.742
 5305POPC   C3A69185  10.278  15.109   7.139
 5305POPC   C4A69186  10.289  14.945   7.575
 5305POPC   C1B69187  10.955  15.208   6.171
 5305POPC   C2B69188  10.864  15.077   6.620
 5305POPC   C3B69189  10.790  15.104   7.086
 5305POPC   C4B69190  10.795  14.863   7.503
 5306POPC   NC369191  34.048   4.398   5.454
 5306POPC   PO469192  33.457   4.114   5.658
 5306POPC   GL169193  33.688   4.424   5.889
 5306POPC   GL269194  33.958   4.209   5.917
 5306POPC   C1A69195  33.661   4.365   6.345
 5306POPC   D2A69196  33.739   4.081   6.695
 5306POPC   C3A69197  33.661   4.274   7.095
 5306POPC   C4A69198  33.701   4.095   7.489
 5306POPC   C1B69199  34.119   4.544   6.164
 5306POPC   C2B69200  34.058   4.572   6.602
 5306POPC   C3B69201  34.160   4.274   6.932
 5306POPC   C4B69202  34.138   4.348   7.361
 5307POPC   NC369203  36.884   9.622   5.431
 5307POPC   PO469204  36.286  10.078   5.392
 5307POPC   GL169205  36.712  10.076   5.697
 5307POPC   GL269206  36.771   9.732   5.905
 5307POPC   C1A69207  36.919  10.125   6.151
 5307POPC   D2A69208  36.767   9.798   6.459
 5307POPC   C3A69209  36.881   9.769   6.909
 5307POPC   C4A69210  36.920   9.829   7.359
 5307POPC   C1B69211  37.154   9.643   6.168
 5307POPC   C2B69212  37.250   9.523   6.602
 5307POPC   C3B69213  37.307   9.414   7.039
 5307POPC   C4B69214  37.419   9.165   7.398
 5308POPC   NC369215   1.227   2.975   5.460
 5308POPC   PO469216   1.312   2.296   5.497
 5308POPC   GL169217   1.048   2.459   5.883
 5308POPC   GL269218   1.016   2.832   5.923
 5308POPC   C1A69219   1.045   2.522   6.351
 5308POPC   D2A69220   1.044   2.813   6.709
 5308POPC   C3A69221   1.216   2.717   7.161
 5308POPC   C4A69222   1.058   2.556   7.569
 5308POPC   C1B69223   1.243   3.044   6.297
 5308POPC   C2B69224   1.381   3.202   6.728
 5308POPC   C3B69225   1.404   3.239   7.164
 5308POPC   C4B69226   1.734   3.132   7.428
 5309POPC   NC369227  42.584  34.534   5.348
 5309POPC   PO469228  41.952  34.406   5.135
 5309POPC   GL169229  42.125  34.629   5.540
 5309POPC   GL269230  41.876  34.622   5.766
 5309POPC   C1A69231  42.424  34.621   5.981
 5309POPC   D2A69232  42.481  34.272   6.346
 5309POPC   C3A69233  42.491  34.349   6.825
 5309POPC   C4A69234  42.434  34.317   7.305
 5309POPC   C1B69235  41.986  34.506   6.184
 5309POPC   C2B69236  41.883  34.690   6.599
 5309POPC   C3B69237  42.082  34.609   6.987
 5309POPC   C4B69238  41.935  34.455   7.361
 5310POPC   NC369239  44.238  13.335   5.067
 5310POPC   PO469240  43.713  13.641   5.328
 5310POPC   GL169241  43.874  13.640   5.737
 5310POPC   GL269242  43.696  13.339   5.755
 5310POPC   C1A69243  44.134  13.568   6.141
 5310POPC   D2A69244  43.977  13.667   6.533
 5310POPC   C3A69245  44.202  13.660   6.904
 5310POPC   C4A69246  43.993  13.683   7.285
 5310POPC   C1B69247  43.615  13.462   6.158
 5310POPC   C2B69248  43.614  13.262   6.543
 5310POPC   C3B69249  43.674  13.455   6.940
 5310POPC   C4B69250  43.674  13.302   7.366
 5311POPC   NC369251  21.472   8.621   5.307
 5311POPC   PO469252  21.136   9.141   5.495
 5311POPC   GL169253  21.179   9.126   5.887
 5311POPC   GL269254  21.524   9.108   5.857
 5311POPC   C1A69255  21.250   9.164   6.308
 5311POPC   D2A69256  21.507   9.053   6.619
 5311POPC   C3A69257  21.349   8.977   7.004
 5311POPC   C4A69258  21.058   8.984   7.318
 5311POPC   C1B69259  21.743   9.324   6.202
 5311POPC   C2B69260  21.632   9.561   6.597
 5311POPC   C3B69261  21.642   9.402   7.023
 5311POPC   C4B69262  21.434   9.343   7.429
 5312POPC   NC369263   5.483  23.023   5.727
 5312POPC   PO469264   4.897  23.040   5.397
 5312POPC   GL169265   4.966  22.951   5.825
 5312POPC   GL269266   5.142  22.647   5.815
 5312POPC   C1A69267   5.052  23.010   6.278
 5312POPC   D2A69268   5.159  23.203   6.680
 5312POPC   C3A69269   5.048  22.974   7.065
 5312POPC   C4A69270   5.248  22.886   7.487
 5312POPC   C1B69271   5.199  22.539   6.240
 5312POPC   C2B69272   5.235  22.695   6.660
 5312POPC   C3B69273   5.351  22.564   7.072
 5312POPC   C4B69274   5.025  22.447   7.282
 5313POPC   NC369275  39.476  21.333   5.697
 5313POPC   PO469276  39.022  21.521   5.271
 5313POPC   GL169277  38.949  21.390   5.777
 5313POPC   GL269278  39.083  21.078   5.968
 5313POPC   C1A69279  38.970  21.468   6.281
 5313POPC   D2A69280  39.328  21.398   6.633
 5313POPC   C3A69281  39.284  21.454   7.108
 5313POPC   C4A69282  39.247  21.505   7.587
 5313POPC   C1B69283  39.474  21.024   6.283
 5313POPC   C2B69284  39.711  20.889   6.654
 5313POPC   C3B69285  39.531  20.943   7.062
 5313POPC   C4B69286  39.622  21.172   7.447
 5314POPC   NC369287  11.282  26.127   5.349
 5314POPC   PO469288  10.694  25.679   5.370
 5314POPC   GL169289  11.051  25.812   5.684
 5314POPC   GL269290  11.415  25.720   5.790
 5314POPC   C1A69291  11.092  26.064   6.066
 5314POPC   D2A69292  11.025  26.006   6.512
 5314POPC   C3A69293  11.251  26.190   6.870
 5314POPC   C4A69294  11.145  26.186   7.310
 5314POPC   C1B69295  11.375  25.658   6.251
 5314POPC   C2B69296  11.394  25.667   6.710
 5314POPC   C3B69297  11.242  25.716   7.123
 5314POPC   C4B69298  11.210  25.721   7.583
 5315POPC   NC369299  36.045  39.615   5.219
 5315POPC   PO469300  36.599  39.452   5.471
 5315POPC   GL169301  36.360  39.408   5.821
 5315POPC   GL269302  36.213  39.100   5.797
 5315POPC   C1A69303  36.235  39.331   6.257
 5315POPC   D2A69304  35.909  39.345   6.523
 5315POPC   C3A69305  36.056  39.506   6.878
 5315POPC   C4A69306  36.401  39.314   7.085
 5315POPC   C1B69307  35.893  38.967   6.137
 5315POPC   C2B69308  35.981  38.849   6.582
 5315POPC   C3B69309  36.000  39.005   7.006
 5315POPC   C4B69310  35.856  39.323   7.316
 5316POPC   NC369311  28.168  11.149   5.029
 5316POPC   PO469312  28.226  10.566   5.330
 5316POPC   GL169313  28.289  10.537   5.766
 5316POPC   GL269314  28.450  10.213   5.825
 5316POPC   C1A69315  28.067  10.666   6.164
 5316POPC   D2A69316  28.044  10.396   6.540
 5316POPC   C3A69317  28.131  10.546   6.957
 5316POPC   C4A69318  28.057  10.239   7.271
 5316POPC   C1B69319  28.501  10.427   6.230
 5316POPC   C2B69320  28.525  10.634   6.640
 5316POPC   C3B69321  28.608  10.550   7.101
 5316POPC   C4B69322  28.912  10.283   7.294
 5317POPC   NC369323   2.202  25.007   5.431
 5317POPC   PO469324   1.758  25.330   5.377
 5317POPC   GL169325   1.982  25.384   5.806
 5317POPC   GL269326   2.249  25.166   5.942
 5317POPC   C1A69327   1.928  25.399   6.290
 5317POPC   D2A69328   1.831  25.127   6.668
 5317POPC   C3A69329   1.949  25.257   7.093
 5317POPC   C4A69330   2.000  25.657   7.312
 5317POPC   C1B69331   2.224  24.962   6.370
 5317POPC   C2B69332   2.153  24.720   6.776
 5317POPC   C3B69333   2.066  24.769   7.240
 5317POPC   C4B69334   1.747  24.981   7.515
 5318POPC   NC369335   3.901  20.459   5.435
 5318POPC   PO469336   3.195  20.484   5.493
 5318POPC   GL169337   3.538  20.721   5.734
 5318POPC   GL269338   3.430  20.984   5.988
 5318POPC   C1A69339   3.781  20.583   6.107
 5318POPC   D2A69340   3.967  20.498   6.507
 5318POPC   C3A69341   3.792  20.761   6.854
 5318POPC   C4A69342   3.805  20.662   7.267
 5318POPC   C1B69343   3.480  20.894   6.456
 5318POPC   C2B69344   3.283  20.759   6.865
 5318POPC   C3B69345   3.271  20.603   7.339
 5318POPC   C4B69346   3.191  20.243   7.653
 5319POPC   NC369347  12.249   5.853   5.349
 5319POPC   PO469348  11.655   5.561   5.432
 5319POPC   GL169349  12.010   5.545   5.714
 5319POPC   GL269350  12.043   5.895   5.845
 5319POPC   C1A69351  12.070   5.440   6.157
 5319POPC   D2A69352  11.948   5.517   6.584
 5319POPC   C3A69353  12.206   5.812   6.817
 5319POPC   C4A69354  12.084   6.106   7.136
 5319POPC   C1B69355  12.217   5.981   6.283
 5319POPC   C2B69356  12.218   6.319   6.623
 5319POPC   C3B69357  12.433   6.478   7.026
 5319POPC   C4B69358  12.486   6.256   7.438
 5320POPC   NC369359  15.902  23.545   5.532
 5320POPC   PO469360  16.284  23.970   5.171
 5320POPC   GL169361  16.172  24.077   5.710
 5320POPC   GL269362  15.982  23.792   5.945
 5320POPC   C1A69363  16.259  24.086   6.193
 5320POPC   D2A69364  15.915  23.831   6.476
 5320POPC   C3A69365  16.013  23.778   6.919
 5320POPC   C4A69366  16.290  24.091   7.091
 5320POPC   C1B69367  15.814  23.409   6.173
 5320POPC   C2B69368  15.659  23.298   6.586
 5320POPC   C3B69369  15.604  23.446   7.002
 5320POPC   C4B69370  15.884  23.403   7.346
 5321POPC   NC369371  40.090   0.903   5.370
 5321POPC   PO469372  39.403   1.055   5.346
 5321POPC   GL169373  39.805   1.194   5.696
 5321POPC   GL269374  40.155   1.043   5.848
 5321POPC   C1A69375  39.856   1.249   6.192
 5321POPC   D2A69376  39.738   1.200   6.628
 5321POPC   C3A69377  39.925   1.360   7.005
 5321POPC   C4A69378  39.702   1.673   7.268
 5321POPC   C1B69379  40.391   1.171   6.239
 5321POPC   C2B69380  40.340   1.179   6.697
 5321POPC   C3B69381  40.251   0.902   7.062
 5321POPC   C4B69382  40.297   0.910   7.529
 5322POPC   NC369383   2.882   9.038   5.440
 5322POPC   PO469384   2.562   8.450   5.462
 5322POPC   GL169385   2.640   8.692   5.771
 5322POPC   GL269386   2.443   8.938   5.694
 5322POPC   C1A69387   2.764   8.845   6.161
 5322POPC   D2A69388   2.930   8.971   6.532
 5322POPC   C3A69389   2.779   8.856   6.939
 5322POPC   C4A69390   2.680   8.878   7.348
 5322POPC   C1B69391   2.570   9.294   5.993
 5322POPC   C2B69392   2.538   9.318   6.457
 5322POPC   C3B69393   2.513   9.323   6.917
 5322POPC   C4B69394   2.293   9.315   7.315
 5323POPC   NC369395  17.261  18.877   5.358
 5323POPC   PO469396  17.826  19.078   5.207
 5323POPC   GL169397  17.602  19.093   5.696
 5323POPC   GL269398  17.498  18.779   5.883
 5323POPC   C1A69399  17.565  19.210   6.180
 5323POPC   D2A69400  17.469  19.096   6.641
 5323POPC   C3A69401  17.677  19.262   7.016
 5323POPC   C4A69402  17.965  18.973   7.280
 5323POPC   C1B69403  17.302  18.658   6.319
 5323POPC   C2B69404  17.031  18.826   6.666
 5323POPC   C3B69405  17.112  18.885   7.069
 5323POPC   C4B69406  17.273  19.178   7.304
 5324POPC   NC369407  26.990  15.699   5.403
 5324POPC   PO469408  26.348  15.995   5.370
 5324POPC   GL169409  26.579  15.934   5.730
 5324POPC   GL269410  26.507  15.604   5.717
 5324POPC   C1A69411  26.774  15.903   6.158
 5324POPC   D2A69412  27.075  15.906   6.531
 5324POPC   C3A69413  26.874  16.034   6.926
 5324POPC   C4A69414  26.751  15.872   7.328
 5324POPC   C1B69415  26.245  15.671   6.090
 5324POPC   C2B69416  26.337  15.802   6.507
 5324POPC   C3B69417  26.466  15.671   6.904
 5324POPC   C4B69418  26.287  15.710   7.276
 5325POPC   NC369419  23.721  41.231   5.287
 5325POPC   PO469420  23.366  41.778   5.236
 5325POPC   GL169421  23.620  41.685   5.639
 5325POPC   GL269422  23.706  41.362   5.784
 5325POPC   C1A69423  23.622  41.694   6.145
 5325POPC   D2A69424  23.522  41.592   6.608
 5325POPC   C3A69425  23.766  41.719   6.993
 5325POPC   C4A69426  24.066  41.986   7.204
 5325POPC   C1B69427  23.619  41.173   6.190
 5325POPC   C2B69428  23.764  41.136   6.593
 5325POPC   C3B69429  23.612  41.229   7.007
 5325POPC   C4B69430  23.510  41.344   7.449
 5326POPC   NC369431   6.820   6.069   5.179
 5326POPC   PO469432   6.499   5.458   5.363
 5326POPC   GL169433   6.670   5.764   5.690
 5326POPC   GL269434   6.921   6.042   5.673
 5326POPC   C1A69435   6.593   5.904   6.135
 5326POPC   D2A69436   6.323   6.035   6.481
 5326POPC   C3A69437   6.363   5.771   6.856
 5326POPC   C4A69438   6.317   5.957   7.242
 5326POPC   C1B69439   7.070   6.116   6.062
 5326POPC   C2B69440   6.947   6.141   6.466
 5326POPC   C3B69441   6.882   5.862   6.790
 5326POPC   C4B69442   6.826   5.982   7.184
 5327POPC   NC369443  17.020  34.615   5.311
 5327POPC   PO469444  16.581  34.180   5.340
 5327POPC   GL169445  16.761  34.315   5.726
 5327POPC   GL269446  16.757  34.697   5.726
 5327POPC   C1A69447  16.686  34.208   6.166
 5327POPC   D2A69448  16.535  34.433   6.553
 5327POPC   C3A69449  16.708  34.371   6.937
 5327POPC   C4A69450  16.645  34.663   7.228
 5327POPC   C1B69451  16.729  34.706   6.139
 5327POPC   C2B69452  17.015  34.579   6.467
 5327POPC   C3B69453  17.079  34.750   6.876
 5327POPC   C4B69454  17.079  34.880   7.313
 5328POPC   NC369455  16.206  13.871   5.247
 5328POPC   PO469456  15.818  13.409   5.475
 5328POPC   GL169457  16.158  13.628   5.701
 5328POPC   GL269458  16.262  13.995   5.738
 5328POPC   C1A69459  16.259  13.552   6.117
 5328POPC   D2A69460  16.240  13.321   6.494
 5328POPC   C3A69461  15.881  13.358   6.798
 5328POPC   C4A69462  16.035  13.366   7.237
 5328POPC   C1B69463  16.125  14.034   6.164
 5328POPC   C2B69464  15.985  13.787   6.517
 5328POPC   C3B69465  16.153  13.777   6.920
 5328POPC   C4B69466  16.103  14.073   7.263
 5329POPC   NC369467  20.733  19.306   5.359
 5329POPC   PO469468  20.293  19.876   5.419
 5329POPC   GL169469  20.402  19.791   5.805
 5329POPC   GL269470  20.380  19.455   5.724
 5329POPC   C1A69471  20.497  19.866   6.261
 5329POPC   D2A69472  20.438  19.800   6.719
 5329POPC   C3A69473  20.380  20.110   7.071
 5329POPC   C4A69474  20.622  20.243   7.443
 5329POPC   C1B69475  20.740  19.475   6.030
 5329POPC   C2B69476  20.903  19.497   6.465
 5329POPC   C3B69477  20.747  19.374   6.853
 5329POPC   C4B69478  20.487  19.576   7.170
 5330POPC   NC369479  27.043  13.977   5.413
 5330POPC   PO469480  26.378  13.735   5.393
 5330POPC   GL169481  26.550  13.870   5.785
 5330POPC   GL269482  26.770  13.614   5.737
 5330POPC   C1A69483  26.875  13.950   6.118
 5330POPC   D2A69484  27.056  13.815   6.509
 5330POPC   C3A69485  26.941  13.864   6.911
 5330POPC   C4A69486  26.689  13.620   7.127
 5330POPC   C1B69487  26.931  13.441   6.126
 5330POPC   C2B69488  27.047  13.287   6.533
 5330POPC   C3B69489  27.101  13.385   6.957
 5330POPC   C4B69490  27.130  13.573   7.374
 5331POPC   NC369491   9.297  40.578   5.387
 5331POPC   PO469492   9.785  40.981   5.042
 5331POPC   GL169493   9.752  40.789   5.535
 5331POPC   GL269494  10.063  40.792   5.768
 5331POPC   C1A69495   9.596  40.778   6.009
 5331POPC   D2A69496   9.604  40.993   6.441
 5331POPC   C3A69497   9.697  40.765   6.848
 5331POPC   C4A69498   9.447  40.544   7.188
 5331POPC   C1B69499  10.070  40.952   6.207
 5331POPC   C2B69500  10.186  41.071   6.621
 5331POPC   C3B69501  10.112  41.001   7.039
 5331POPC   C4B69502   9.719  41.089   7.269
 5332POPC   NC369503  13.180  42.360   4.990
 5332POPC   PO469504  12.838  41.898   5.382
 5332POPC   GL169505  12.953  42.071   5.798
 5332POPC   GL269506  12.911  42.433   5.770
 5332POPC   C1A69507  12.817  42.111   6.248
 5332POPC   D2A69508  12.859  41.888   6.652
 5332POPC   C3A69509  12.718  42.045   7.065
 5332POPC   C4A69510  12.770  42.270   7.460
 5332POPC   C1B69511  13.000  42.586   6.199
 5332POPC   C2B69512  12.846  42.481   6.623
 5332POPC   C3B69513  12.953  42.523   7.058
 5332POPC   C4B69514  13.156  42.685   7.447
 5333POPC   NC369515  36.130   8.857   5.442
 5333POPC   PO469516  36.496   9.362   5.465
 5333POPC   GL169517  36.097   9.285   5.778
 5333POPC   GL269518  35.905   8.953   5.882
 5333POPC   C1A69519  36.094   9.223   6.242
 5333POPC   D2A69520  36.041   9.038   6.621
 5333POPC   C3A69521  36.393   8.950   6.822
 5333POPC   C4A69522  36.395   9.033   7.238
 5333POPC   C1B69523  35.979   8.680   6.251
 5333POPC   C2B69524  36.144   8.503   6.647
 5333POPC   C3B69525  36.037   8.670   7.061
 5333POPC   C4B69526  36.010   8.826   7.508
 5334POPC   NC369527   9.678   2.579   5.324
 5334POPC   PO469528   9.503   3.244   5.340
 5334POPC   GL169529   9.547   2.968   5.719
 5334POPC   GL269530   9.443   2.631   5.790
 5334POPC   C1A69531   9.698   2.909   6.157
 5334POPC   D2A69532   9.915   2.981   6.547
 5334POPC   C3A69533   9.749   2.889   6.963
 5334POPC   C4A69534   9.977   2.917   7.359
 5334POPC   C1B69535   9.884   2.501   5.948
 5334POPC   C2B69536  10.001   2.484   6.386
 5334POPC   C3B69537  10.086   2.361   6.801
 5334POPC   C4B69538   9.922   2.429   7.220
 5335POPC   NC369539  23.833  23.523   5.426
 5335POPC   PO469540  23.895  24.128   5.649
 5335POPC   GL169541  23.642  23.878   5.946
 5335POPC   GL269542  23.572  23.539   5.885
 5335POPC   C1A69543  23.587  23.719   6.382
 5335POPC   D2A69544  23.862  23.484   6.653
 5335POPC   C3A69545  24.049  23.849   6.843
 5335POPC   C4A69546  23.934  24.197   7.125
 5335POPC   C1B69547  23.624  23.236   6.235
 5335POPC   C2B69548  23.365  23.287   6.621
 5335POPC   C3B69549  23.433  23.614   6.921
 5335POPC   C4B69550  23.712  23.705   7.267
 5336POPC   NC369551   6.272   9.442   5.375
 5336POPC   PO469552   6.816   9.766   5.244
 5336POPC   GL169553   6.737   9.705   5.738
 5336POPC   GL269554   6.404   9.720   5.835
 5336POPC   C1A69555   6.666   9.641   6.252
 5336POPC   D2A69556   6.393   9.846   6.585
 5336POPC   C3A69557   6.496   9.800   6.998
 5336POPC   C4A69558   6.814   9.931   7.276
 5336POPC   C1B69559   6.149   9.592   6.188
 5336POPC   C2B69560   6.234   9.360   6.547
 5336POPC   C3B69561   6.179   9.355   6.965
 5336POPC   C4B69562   6.258   9.554   7.374
 5337POPC   NC369563  21.937  27.891   5.423
 5337POPC   PO469564  22.348  27.238   5.360
 5337POPC   GL169565  22.213  27.446   5.774
 5337POPC   GL269566  22.354  27.789   5.841
 5337POPC   C1A69567  22.037  27.316   6.193
 5337POPC   D2A69568  22.210  27.245   6.591
 5337POPC   C3A69569  22.132  27.472   6.992
 5337POPC   C4A69570  22.186  27.545   7.453
 5337POPC   C1B69571  22.150  27.854   6.193
 5337POPC   C2B69572  22.204  28.091   6.554
 5337POPC   C3B69573  22.149  27.994   6.960
 5337POPC   C4B69574  22.359  28.008   7.315
 5338POPC   NC369575   8.659   9.087   5.434
 5338POPC   PO469576   9.143   8.689   5.522
 5338POPC   GL169577   9.104   8.949   5.889
 5338POPC   GL269578   9.024   9.265   5.751
 5338POPC   C1A69579   9.002   8.902   6.340
 5338POPC   D2A69580   9.244   8.981   6.713
 5338POPC   C3A69581   9.164   8.774   7.066
 5338POPC   C4A69582   8.800   8.621   7.126
 5338POPC   C1B69583   8.953   9.417   6.173
 5338POPC   C2B69584   8.892   9.390   6.622
 5338POPC   C3B69585   8.913   9.238   7.025
 5338POPC   C4B69586   8.801   9.453   7.382
 5339POPC   NC369587  32.203  23.982   5.418
 5339POPC   PO469588  32.070  23.391   5.282
 5339POPC   GL169589  32.184  23.545   5.742
 5339POPC   GL269590  31.954  23.768   5.875
 5339POPC   C1A69591  32.501  23.478   6.156
 5339POPC   D2A69592  32.694  23.428   6.626
 5339POPC   C3A69593  32.460  23.560   7.035
 5339POPC   C4A69594  32.232  23.779   7.401
 5339POPC   C1B69595  31.993  23.433   6.204
 5339POPC   C2B69596  32.158  23.399   6.632
 5339POPC   C3B69597  31.954  23.491   7.049
 5339POPC   C4B69598  31.700  23.547   7.443
 5340POPC   NC369599  11.086  23.189   5.527
 5340POPC   PO469600  11.646  23.179   5.156
 5340POPC   GL169601  11.569  22.995   5.642
 5340POPC   GL269602  11.277  22.832   5.810
 5340POPC   C1A69603  11.602  23.061   6.116
 5340POPC   D2A69604  11.402  22.842   6.476
 5340POPC   C3A69605  11.427  23.020   6.870
 5340POPC   C4A69606  11.548  23.212   7.256
 5340POPC   C1B69607  11.065  23.061   6.153
 5340POPC   C2B69608  10.971  23.157   6.565
 5340POPC   C3B69609  10.900  22.852   6.870
 5340POPC   C4B69610  11.081  22.917   7.253
 5341POPC   NC369611   0.353   8.307   5.271
 5341POPC   PO469612  44.956   8.407   5.758
 5341POPC   GL169613   0.411   8.367   5.845
 5341POPC   GL269614   0.548   8.047   5.699
 5341POPC   C1A69615   0.576   8.341   6.301
 5341POPC   D2A69616   0.292   8.251   6.645
 5341POPC   C3A69617   0.341   8.371   7.066
 5341POPC   C4A69618   0.363   8.260   7.492
 5341POPC   C1B69619   0.359   7.909   6.096
 5341POPC   C2B69620   0.477   7.767   6.516
 5341POPC   C3B69621   0.388   7.853   6.960
 5341POPC   C4B69622   0.423   7.724   7.406
 5342POPC   NC369623  16.699  26.585   5.484
 5342POPC   PO469624  16.476  27.173   5.482
 5342POPC   GL169625  16.467  26.907   5.822
 5342POPC   GL269626  16.826  27.046   5.858
 5342POPC   C1A69627  16.660  26.759   6.227
 5342POPC   D2A69628  16.793  26.823   6.647
 5342POPC   C3A69629  16.584  26.629   6.973
 5342POPC   C4A69630  16.592  26.773   7.374
 5342POPC   C1B69631  17.017  27.147   6.296
 5342POPC   C2B69632  17.035  27.272   6.764
 5342POPC   C3B69633  17.030  27.322   7.225
 5342POPC   C4B69634  16.999  27.098   7.643
 5343POPC   NC369635  28.108   5.620   5.382
 5343POPC   PO469636  28.640   6.066   5.480
 5343POPC   GL169637  28.277   5.946   5.749
 5343POPC   GL269638  28.032   6.174   5.900
 5343POPC   C1A69639  28.169   5.766   6.146
 5343POPC   D2A69640  28.315   5.798   6.545
 5343POPC   C3A69641  28.208   5.556   6.877
 5343POPC   C4A69642  28.422   5.605   7.243
 5343POPC   C1B69643  28.451   6.229   6.155
 5343POPC   C2B69644  28.673   6.163   6.565
 5343POPC   C3B69645  28.517   6.052   6.962
 5343POPC   C4B69646  28.113   5.992   7.142
 5344POPC   NC369647  39.316  34.079   5.523
 5344POPC   PO469648  39.183  34.749   5.472
 5344POPC   GL169649  39.116  34.772   5.865
 5344POPC   GL269650  39.166  34.412   5.964
 5344POPC   C1A69651  39.115  34.847   6.276
 5344POPC   D2A69652  39.166  34.538   6.550
 5344POPC   C3A69653  39.164  34.660   6.953
 5344POPC   C4A69654  39.507  34.655   7.231
 5344POPC   C1B69655  38.918  34.140   6.276
 5344POPC   C2B69656  39.026  34.078   6.713
 5344POPC   C3B69657  39.338  34.193   7.015
 5344POPC   C4B69658  39.371  34.243   7.486
 5345POPC   NC369659  28.138   9.876   5.266
 5345POPC   PO469660  28.084   9.216   5.461
 5345POPC   GL169661  28.092   9.455   5.852
 5345POPC   GL269662  28.169   9.785   5.782
 5345POPC   C1A69663  28.194   9.561   6.296
 5345POPC   D2A69664  28.143   9.726   6.675
 5345POPC   C3A69665  28.436   9.583   6.927
 5345POPC   C4A69666  28.355   9.615   7.331
 5345POPC   C1B69667  28.166  10.036   6.178
 5345POPC   C2B69668  28.516   9.982   6.465
 5345POPC   C3B69669  28.448  10.154   6.810
 5345POPC   C4B69670  28.497  10.051   7.180
 5346POPC   NC369671   3.684  16.801   5.299
 5346POPC   PO469672   3.038  16.970   5.485
 5346POPC   GL169673   3.262  16.711   5.823
 5346POPC   GL269674   3.577  16.544   5.749
 5346POPC   C1A69675   3.486  16.763   6.233
 5346POPC   D2A69676   3.670  16.905   6.637
 5346POPC   C3A69677   3.446  16.883   7.038
 5346POPC   C4A69678   3.562  16.948   7.461
 5346POPC   C1B69679   3.886  16.440   6.110
 5346POPC   C2B69680   3.986  16.456   6.570
 5346POPC   C3B69681   3.796  16.521   6.981
 5346POPC   C4B69682   3.861  16.514   7.418
 5347POPC   NC369683  26.348  16.452   5.544
 5347POPC   PO469684  25.912  16.888   5.263
 5347POPC   GL169685  25.933  16.734   5.666
 5347POPC   GL269686  26.211  16.903   5.776
 5347POPC   C1A69687  25.944  16.529   6.076
 5347POPC   D2A69688  25.869  16.660   6.491
 5347POPC   C3A69689  26.190  16.611   6.788
 5347POPC   C4A69690  26.198  16.743   7.217
 5347POPC   C1B69691  26.194  16.970   6.208
 5347POPC   C2B69692  26.313  17.081   6.620
 5347POPC   C3B69693  26.435  17.160   7.049
 5347POPC   C4B69694  26.435  17.132   7.525
 5348POPC   NC369695   4.790  36.967   5.327
 5348POPC   PO469696   5.351  37.274   5.087
 5348POPC   GL169697   5.241  37.047   5.575
 5348POPC   GL269698   4.952  37.165   5.781
 5348POPC   C1A69699   5.143  36.779   6.044
 5348POPC   D2A69700   5.201  36.521   6.457
 5348POPC   C3A69701   5.278  36.682   6.897
 5348POPC   C4A69702   5.036  36.700   7.292
 5348POPC   C1B69703   4.953  37.240   6.205
 5348POPC   C2B69704   4.816  36.981   6.524
 5348POPC   C3B69705   4.848  36.997   6.937
 5348POPC   C4B69706   5.162  37.207   7.175
 5349POPC   NC369707  32.143  15.167   4.958
 5349POPC   PO469708  31.957  15.271   5.369
 5349POPC   GL169709  32.003  15.157   5.842
 5349POPC   GL269710  32.330  15.279   5.966
 5349POPC   C1A69711  31.893  15.097   6.317
 5349POPC   D2A69712  32.097  14.987   6.729
 5349POPC   C3A69713  32.133  15.247   7.095
 5349POPC   C4A69714  31.847  15.255   7.452
 5349POPC   C1B69715  32.330  15.340   6.416
 5349POPC   C2B69716  32.554  15.224   6.781
 5349POPC   C3B69717  32.552  14.940   7.128
 5349POPC   C4B69718  32.745  14.893   7.558
 5350POPC   NC369719  10.705  29.947   5.534
 5350POPC   PO469720  10.268  30.358   5.562
 5350POPC   GL169721  10.343  30.050   5.869
 5350POPC   GL269722  10.142  29.815   5.906
 5350POPC   C1A69723  10.553  29.994   6.275
 5350POPC   D2A69724  10.546  30.232   6.676
 5350POPC   C3A69725  10.447  30.021   7.074
 5350POPC   C4A69726  10.710  29.884   7.429
 5350POPC   C1B69727  10.270  29.571   6.208
 5350POPC   C2B69728  10.495  29.528   6.593
 5350POPC   C3B69729  10.552  29.531   7.017
 5350POPC   C4B69730  10.311  29.564   7.362
 5351POPC   NC369731  22.262  41.916   5.450
 5351POPC   PO469732  22.539  41.286   5.483
 5351POPC   GL169733  22.216  41.449   5.811
 5351POPC   GL269734  22.068  41.760   5.873
 5351POPC   C1A69735  21.895  41.372   6.154
 5351POPC   D2A69736  21.952  41.208   6.554
 5351POPC   C3A69737  21.815  41.352   6.963
 5351POPC   C4A69738  22.152  41.536   7.183
 5351POPC   C1B69739  22.247  41.968   6.196
 5351POPC   C2B69740  22.229  41.999   6.644
 5351POPC   C3B69741  22.430  41.943   7.072
 5351POPC   C4B69742  22.545  41.743   7.485
 5352POPC   NC369743  18.494  14.796   5.161
 5352POPC   PO469744  19.082  14.524   5.485
 5352POPC   GL169745  19.008  14.350   5.855
 5352POPC   GL269746  18.679  14.281   5.930
 5352POPC   C1A69747  19.101  14.513   6.230
 5352POPC   D2A69748  18.961  14.812   6.505
 5352POPC   C3A69749  19.083  14.700   6.879
 5352POPC   C4A69750  19.321  14.649   7.231
 5352POPC   C1B69751  18.606  14.389   6.351
 5352POPC   C2B69752  18.911  14.277   6.648
 5352POPC   C3B69753  19.059  14.215   7.050
 5352POPC   C4B69754  18.735  14.011   7.241
 5353POPC   NC369755   9.491  25.580   5.600
 5353POPC   PO469756   9.003  25.289   5.181
 5353POPC   GL169757   9.097  25.220   5.635
 5353POPC   GL269758   8.950  25.571   5.649
 5353POPC   C1A69759   9.157  25.042   6.095
 5353POPC   D2A69760   9.058  24.877   6.545
 5353POPC   C3A69761   9.165  25.195   6.889
 5353POPC   C4A69762   9.273  25.535   7.211
 5353POPC   C1B69763   8.984  25.545   6.098
 5353POPC   C2B69764   9.023  25.576   6.560
 5353POPC   C3B69765   8.835  25.568   6.957
 5353POPC   C4B69766   8.805  25.766   7.342
 5354POPC   NC369767  28.505   2.419   5.488
 5354POPC   PO469768  28.105   2.890   5.308
 5354POPC   GL169769  28.336   2.851   5.701
 5354POPC   GL269770  28.135   2.581   5.794
 5354POPC   C1A69771  28.544   2.927   6.115
 5354POPC   D2A69772  28.642   2.698   6.495
 5354POPC   C3A69773  28.525   2.910   6.883
 5354POPC   C4A69774  28.433   2.829   7.313
 5354POPC   C1B69775  28.164   2.598   6.210
 5354POPC   C2B69776  28.120   2.769   6.604
 5354POPC   C3B69777  28.067   2.640   7.017
 5354POPC   C4B69778  27.894   2.339   7.286
 5355POPC   NC369779  40.518  35.110   5.583
 5355POPC   PO469780  40.497  35.848   5.498
 5355POPC   GL169781  40.630  35.558   5.810
 5355POPC   GL269782  40.958  35.422   5.845
 5355POPC   C1A69783  40.591  35.354   6.217
 5355POPC   D2A69784  40.419  35.324   6.611
 5355POPC   C3A69785  40.658  35.460   6.948
 5355POPC   C4A69786  40.640  35.349   7.365
 5355POPC   C1B69787  40.899  35.772   6.198
 5355POPC   C2B69788  41.070  35.871   6.622
 5355POPC   C3B69789  41.031  35.786   7.067
 5355POPC   C4B69790  41.172  35.522   7.397
 5356POPC   NC369791  16.852  18.042   5.301
 5356POPC   PO469792  17.066  18.602   5.663
 5356POPC   GL169793  16.768  18.545   5.952
 5356POPC   GL269794  16.749  18.213   5.776
 5356POPC   C1A69795  16.678  18.573   6.409
 5356POPC   D2A69796  16.501  18.507   6.843
 5356POPC   C3A69797  16.822  18.482   7.160
 5356POPC   C4A69798  17.138  18.487   7.497
 5356POPC   C1B69799  16.613  18.122   6.180
 5356POPC   C2B69800  16.850  18.091   6.551
 5356POPC   C3B69801  16.774  17.995   6.959
 5356POPC   C4B69802  16.424  18.133   7.215
 5357POPC   NC369803  19.622  36.613   5.679
 5357POPC   PO469804  19.769  37.180   5.342
 5357POPC   GL169805  19.829  37.073   5.785
 5357POPC   GL269806  20.107  36.822   5.822
 5357POPC   C1A69807  19.806  36.911   6.224
 5357POPC   D2A69808  19.922  36.750   6.613
 5357POPC   C3A69809  19.684  36.827   7.004
 5357POPC   C4A69810  19.867  37.131   7.259
 5357POPC   C1B69811  20.215  36.570   6.219
 5357POPC   C2B69812  20.311  36.437   6.651
 5357POPC   C3B69813  20.169  36.656   7.047
 5357POPC   C4B69814  20.058  36.601   7.493
 5358POPC   NC369815  19.255  24.437   5.444
 5358POPC   PO469816  18.759  24.651   5.152
 5358POPC   GL169817  18.741  24.489   5.633
 5358POPC   GL269818  18.980  24.220   5.823
 5358POPC   C1A69819  18.744  24.565   6.113
 5358POPC   D2A69820  19.090  24.530   6.425
 5358POPC   C3A69821  19.042  24.627   6.870
 5358POPC   C4A69822  19.223  24.628   7.292
 5358POPC   C1B69823  18.918  24.061   6.259
 5358POPC   C2B69824  18.960  24.119   6.713
 5358POPC   C3B69825  19.235  24.144   7.062
 5358POPC   C4B69826  19.159  24.144   7.502
 5359POPC   NC369827  22.990  21.960   5.219
 5359POPC   PO469828  22.671  21.321   5.333
 5359POPC   GL169829  22.742  21.256   5.777
 5359POPC   GL269830  22.881  21.530   5.868
 5359POPC   C1A69831  22.844  20.997   6.129
 5359POPC   D2A69832  22.958  20.911   6.570
 5359POPC   C3A69833  22.862  21.144   6.951
 5359POPC   C4A69834  23.153  21.481   7.057
 5359POPC   C1B69835  22.704  21.483   6.251
 5359POPC   C2B69836  22.798  21.550   6.655
 5359POPC   C3B69837  22.640  21.624   7.059
 5359POPC   C4B69838  22.798  21.535   7.437
 5360POPC   NC369839  24.032  37.426   5.673
 5360POPC   PO469840  23.604  37.010   5.306
 5360POPC   GL169841  23.591  36.975   5.765
 5360POPC   GL269842  23.433  37.291   5.842
 5360POPC   C1A69843  23.797  36.753   6.156
 5360POPC   D2A69844  23.829  36.431   6.531
 5360POPC   C3A69845  23.714  36.566   6.978
 5360POPC   C4A69846  23.828  36.967   7.209
 5360POPC   C1B69847  23.556  37.213   6.270
 5360POPC   C2B69848  23.611  36.931   6.623
 5360POPC   C3B69849  23.352  36.956   6.994
 5360POPC   C4B69850  23.380  36.949   7.434
 5361POPC   NC369851  34.505  37.021   5.435
 5361POPC   PO469852  34.302  36.408   5.538
 5361POPC   GL169853  34.456  36.632   5.893
 5361POPC   GL269854  34.714  36.879   5.881
 5361POPC   C1A69855  34.534  36.718   6.347
 5361POPC   D2A69856  34.722  36.887   6.731
 5361POPC   C3A69857  34.481  36.928   7.094
 5361POPC   C4A69858  34.297  36.834   7.471
 5361POPC   C1B69859  34.916  37.072   6.264
 5361POPC   C2B69860  35.113  37.200   6.690
 5361POPC   C3B69861  34.883  37.285   7.110
 5361POPC   C4B69862  34.774  37.058   7.498
 5362POPC   NC369863  13.876  28.401   5.481
 5362POPC   PO469864  13.356  27.968   5.397
 5362POPC   GL169865  13.546  28.164   5.780
 5362POPC   GL269866  13.513  28.537   5.804
 5362POPC   C1A69867  13.421  28.263   6.208
 5362POPC   D2A69868  13.600  28.410   6.586
 5362POPC   C3A69869  13.478  28.344   6.966
 5362POPC   C4A69870  13.741  28.049   7.116
 5362POPC   C1B69871  13.851  28.545   6.144
 5362POPC   C2B69872  14.030  28.668   6.563
 5362POPC   C3B69873  13.987  28.490   7.002
 5362POPC   C4B69874  13.711  28.570   7.383
 5363POPC   NC369875  35.881  15.218   5.703
 5363POPC   PO469876  35.374  14.976   5.359
 5363POPC   GL169877  35.381  15.236   5.749
 5363POPC   GL269878  35.492  14.935   5.891
 5363POPC   C1A69879  35.303  15.323   6.199
 5363POPC   D2A69880  35.486  15.246   6.611
 5363POPC   C3A69881  35.409  15.482   6.997
 5363POPC   C4A69882  35.092  15.414   7.300
 5363POPC   C1B69883  35.269  14.773   6.242
 5363POPC   C2B69884  35.149  14.807   6.672
 5363POPC   C3B69885  35.282  14.992   7.029
 5363POPC   C4B69886  35.176  14.889   7.395
 5364POPC   NC369887  17.023  44.033   5.455
 5364POPC   PO469888  16.665  43.472   5.368
 5364POPC   GL169889  16.887  43.603   5.780
 5364POPC   GL269890  17.179  43.840   5.900
 5364POPC   C1A69891  16.834  43.758   6.228
 5364POPC   D2A69892  17.188  43.754   6.536
 5364POPC   C3A69893  16.969  43.716   6.926
 5364POPC   C4A69894  16.548  43.746   7.141
 5364POPC   C1B69895  17.112  44.189   6.251
 5364POPC   C2B69896  16.995  44.211   6.728
 5364POPC   C3B69897  17.124  44.124   7.176
 5364POPC   C4B69898  17.171  44.194   7.640
 5365POPC   NC369899   5.186   3.198   5.372
 5365POPC   PO469900   5.058   3.839   5.282
 5365POPC   GL169901   5.046   3.603   5.691
 5365POPC   GL269902   4.710   3.408   5.706
 5365POPC   C1A69903   5.318   3.511   6.109
 5365POPC   D2A69904   5.461   3.727   6.507
 5365POPC   C3A69905   5.368   3.515   6.860
 5365POPC   C4A69906   5.104   3.542   7.195
 5365POPC   C1B69907   4.805   3.575   6.146
 5365POPC   C2B69908   4.872   3.366   6.559
 5365POPC   C3B69909   4.658   3.403   6.959
 5365POPC   C4B69910   4.608   3.541   7.415
 5366POPC   NC369911  31.224   4.292   5.607
 5366POPC   PO469912  31.877   4.507   5.422
 5366POPC   GL169913  31.674   4.408   5.828
 5366POPC   GL269914  31.470   4.702   5.877
 5366POPC   C1A69915  31.441   4.180   6.229
 5366POPC   D2A69916  31.158   4.226   6.597
 5366POPC   C3A69917  31.433   4.109   6.942
 5366POPC   C4A69918  31.657   4.337   7.248
 5366POPC   C1B69919  31.590   4.648   6.295
 5366POPC   C2B69920  31.531   4.569   6.740
 5366POPC   C3B69921  31.189   4.532   7.046
 5366POPC   C4B69922  30.999   4.802   7.308
 5367POPC   NC369923   6.284  12.604   5.394
 5367POPC   PO469924   6.437  13.140   5.660
 5367POPC   GL169925   6.520  12.720   5.904
 5367POPC   GL269926   6.297  12.434   5.888
 5367POPC   C1A69927   6.725  12.671   6.329
 5367POPC   D2A69928   6.760  12.940   6.673
 5367POPC   C3A69929   6.743  12.766   7.069
 5367POPC   C4A69930   6.981  12.905   7.438
 5367POPC   C1B69931   6.242  12.509   6.320
 5367POPC   C2B69932   6.353  12.623   6.745
 5367POPC   C3B69933   6.244  12.516   7.167
 5367POPC   C4B69934   6.129  12.704   7.584
 5368POPC   NC369935  13.256  39.920   5.329
 5368POPC   PO469936  13.950  39.791   5.438
 5368POPC   GL169937  13.772  40.046   5.748
 5368POPC   GL269938  13.486  40.243   5.691
 5368POPC   C1A69939  13.654  40.074   6.174
 5368POPC   D2A69940  13.817  40.354   6.478
 5368POPC   C3A69941  13.900  40.199   6.890
 5368POPC   C4A69942  13.672  40.014   7.199
 5368POPC   C1B69943  13.155  40.163   6.001
 5368POPC   C2B69944  13.205  40.164   6.441
 5368POPC   C3B69945  13.375  40.305   6.834
 5368POPC   C4B69946  13.208  40.195   7.231
 5369POPC   NC369947   5.212  20.900   5.074
 5369POPC   PO469948   5.001  20.403   5.467
 5369POPC   GL169949   5.073  20.453   5.867
 5369POPC   GL269950   5.287  20.762   5.810
 5369POPC   C1A69951   4.959  20.665   6.243
 5369POPC   D2A69952   5.197  20.779   6.587
 5369POPC   C3A69953   5.031  20.517   6.877
 5369POPC   C4A69954   4.729  20.733   7.050
 5369POPC   C1B69955   5.474  20.556   6.169
 5369POPC   C2B69956   5.525  20.395   6.584
 5369POPC   C3B69957   5.533  20.618   6.974
 5369POPC   C4B69958   5.390  20.218   7.101
 5370POPC   NC369959  20.919  18.675   5.538
 5370POPC   PO469960  20.388  18.976   5.343
 5370POPC   GL169961  20.302  18.964   5.754
 5370POPC   GL269962  20.638  19.006   5.825
 5370POPC   C1A69963  20.256  19.153   6.131
 5370POPC   D2A69964  20.391  19.379   6.444
 5370POPC   C3A69965  20.209  19.301   6.833
 5370POPC   C4A69966  20.406  19.056   7.136
 5370POPC   C1B69967  20.782  19.023   6.274
 5370POPC   C2B69968  20.922  18.732   6.609
 5370POPC   C3B69969  20.963  18.878   7.039
 5370POPC   C4B69970  20.840  19.244   7.334
 5371POPC   NC369971  27.819  10.790   5.466
 5371POPC   PO469972  27.228  10.519   5.432
 5371POPC   GL169973  27.492  10.454   5.760
 5371POPC   GL269974  27.504  10.118   5.729
 5371POPC   C1A69975  27.659  10.366   6.167
 5371POPC   D2A69976  27.545  10.576   6.556
 5371POPC   C3A69977  27.659  10.418   6.953
 5371POPC   C4A69978  27.784  10.643   7.350
 5371POPC   C1B69979  27.291  10.009   6.120
 5371POPC   C2B69980  27.454  10.087   6.538
 5371POPC   C3B69981  27.289  10.085   6.941
 5371POPC   C4B69982  27.423  10.181   7.334
 5372POPC   NC369983  13.057  20.320   5.421
 5372POPC   PO469984  12.710  20.925   5.224
 5372POPC   GL169985  12.739  20.747   5.657
 5372POPC   GL269986  12.837  21.036   5.890
 5372POPC   C1A69987  12.820  20.528   6.064
 5372POPC   D2A69988  12.981  20.470   6.508
 5372POPC   C3A69989  12.735  20.326   6.841
 5372POPC   C4A69990  12.702  20.523   7.244
 5372POPC   C1B69991  12.901  20.951   6.370
 5372POPC   C2B69992  12.864  20.912   6.852
 5372POPC   C3B69993  12.868  20.997   7.323
 5372POPC   C4B69994  13.061  20.958   7.777
 5373POPC   NC369995   9.881  29.544   5.587
 5373POPC   PO469996   9.506  29.090   5.274
 5373POPC   GL169997   9.600  29.127   5.705
 5373POPC   GL269998   9.960  29.019   5.726
 5373POPC   C1A69999   9.573  29.107   6.156
 5373POPC   D2A70000   9.748  28.848   6.481
 5373POPC   C3A70001   9.717  28.972   6.897
 5373POPC   C4A70002   9.938  28.833   7.258
 5373POPC   C1B70003  10.078  29.103   6.154
 5373POPC   C2B70004   9.996  29.319   6.559
 5373POPC   C3B70005  10.140  29.229   6.977
 5373POPC   C4B70006   9.804  29.360   7.243
 5374POPC   NC370007  22.532  42.512   5.579
 5374POPC   PO470008  21.929  42.205   5.594
 5374POPC   GL170009  21.868  42.390   5.931
 5374POPC   GL270010  22.225  42.440   5.977
 5374POPC   C1A70011  21.890  42.338   6.352
 5374POPC   D2A70012  22.057  42.521   6.668
 5374POPC   C3A70013  22.049  42.301   7.005
 5374POPC   C4A70014  21.753  42.438   7.206
 5374POPC   C1B70015  22.453  42.409   6.379
 5374POPC   C2B70016  22.534  42.404   6.840
 5374POPC   C3B70017  22.715  42.331   7.261
 5374POPC   C4B70018  22.726  42.331   7.725
 5375POPC   NC370019  21.966  14.071   5.418
 5375POPC   PO470020  22.472  14.568   5.534
 5375POPC   GL170021  22.324  14.233   5.757
 5375POPC   GL270022  21.986  14.398   5.846
 5375POPC   C1A70023  22.334  14.222   6.202
 5375POPC   D2A70024  22.325  14.444   6.622
 5375POPC   C3A70025  22.189  14.216   6.974
 5375POPC   C4A70026  21.925  14.082   7.268
 5375POPC   C1B70027  21.802  14.718   6.153
 5375POPC   C2B70028  21.926  14.796   6.599
 5375POPC   C3B70029  22.070  14.718   7.047
 5375POPC   C4B70030  22.217  14.747   7.501
 5376POPC   NC370031  40.422  17.677   5.354
 5376POPC   PO470032  40.638  17.130   5.351
 5376POPC   GL170033  40.885  17.341   5.657
 5376POPC   GL270034  40.790  17.728   5.733
 5376POPC   C1A70035  40.744  17.354   6.067
 5376POPC   D2A70036  40.699  17.333   6.533
 5376POPC   C3A70037  41.002  17.534   6.776
 5376POPC   C4A70038  40.913  17.422   7.190
 5376POPC   C1B70039  40.765  17.834   6.209
 5376POPC   C2B70040  40.577  17.846   6.656
 5376POPC   C3B70041  40.797  17.903   7.067
 5376POPC   C4B70042  41.273  17.771   7.173
 5377POPC   NC370043  32.480  22.453   5.425
 5377POPC   PO470044  32.067  21.902   5.295
 5377POPC   GL170045  32.125  22.178   5.673
 5377POPC   GL270046  32.438  22.040   5.716
 5377POPC   C1A70047  32.120  22.386   6.130
 5377POPC   D2A70048  31.932  22.474   6.549
 5377POPC   C3A70049  32.005  22.242   6.893
 5377POPC   C4A70050  32.065  22.345   7.277
 5377POPC   C1B70051  32.168  21.888   6.074
 5377POPC   C2B70052  32.197  21.953   6.502
 5377POPC   C3B70053  32.279  21.727   6.875
 5377POPC   C4B70054  32.045  21.604   7.243
 5378POPC   NC370055   3.375  18.809   5.786
 5378POPC   PO470056   3.395  18.280   5.376
 5378POPC   GL170057   3.502  18.244   5.816
 5378POPC   GL270058   3.737  18.456   5.937
 5378POPC   C1A70059   3.338  18.353   6.263
 5378POPC   D2A70060   3.086  18.369   6.658
 5378POPC   C3A70061   3.235  18.496   7.065
 5378POPC   C4A70062   3.536  18.448   7.435
 5378POPC   C1B70063   3.773  18.087   6.213
 5378POPC   C2B70064   3.611  18.099   6.617
 5378POPC   C3B70065   3.685  18.293   6.956
 5378POPC   C4B70066   3.951  18.219   7.259
 5379POPC   NC370067  20.174  25.107   5.496
 5379POPC   PO470068  19.549  25.261   5.241
 5379POPC   GL170069  19.759  25.465   5.653
 5379POPC   GL270070  20.101  25.620   5.670
 5379POPC   C1A70071  19.911  25.329   6.088
 5379POPC   D2A70072  19.853  25.060   6.454
 5379POPC   C3A70073  19.628  25.129   6.845
 5379POPC   C4A70074  19.793  25.246   7.236
 5379POPC   C1B70075  20.232  25.715   6.123
 5379POPC   C2B70076  20.158  25.485   6.536
 5379POPC   C3B70077  20.048  25.618   6.981
 5379POPC   C4B70078  20.073  25.596   7.459
 5380POPC   NC370079  35.062  15.356   5.378
 5380POPC   PO470080  34.467  15.319   5.603
 5380POPC   GL170081  34.808  15.356   5.921
 5380POPC   GL270082  34.953  15.019   5.900
 5380POPC   C1A70083  34.725  15.564   6.380
 5380POPC   D2A70084  34.448  15.485   6.777
 5380POPC   C3A70085  34.523  15.541   7.231
 5380POPC   C4A70086  34.706  15.368   7.632
 5380POPC   C1B70087  34.872  15.087   6.358
 5380POPC   C2B70088  34.925  15.275   6.793
 5380POPC   C3B70089  34.737  15.077   7.177
 5380POPC   C4B70090  34.709  14.832   7.573
 5381POPC   NC370091  10.725  27.363   5.321
 5381POPC   PO470092  10.991  27.919   5.585
 5381POPC   GL170093  10.677  27.851   5.889
 5381POPC   GL270094  10.332  27.867   5.754
 5381POPC   C1A70095  10.665  27.708   6.319
 5381POPC   D2A70096  10.550  27.358   6.573
 5381POPC   C3A70097  10.500  27.510   6.963
 5381POPC   C4A70098  10.670  27.780   7.220
 5381POPC   C1B70099  10.245  28.014   6.194
 5381POPC   C2B70100  10.252  27.825   6.633
 5381POPC   C3B70101  10.257  28.045   7.020
 5381POPC   C4B70102  10.223  27.887   7.430
 5382POPC   NC370103  41.545   6.019   5.487
 5382POPC   PO470104  41.301   5.514   5.560
 5382POPC   GL170105  41.654   5.679   5.880
 5382POPC   GL270106  41.790   6.027   5.933
 5382POPC   C1A70107  41.767   5.720   6.354
 5382POPC   D2A70108  41.897   5.900   6.778
 5382POPC   C3A70109  41.771   5.629   7.115
 5382POPC   C4A70110  41.880   5.482   7.505
 5382POPC   C1B70111  41.846   6.224   6.357
 5382POPC   C2B70112  41.575   6.290   6.739
 5382POPC   C3B70113  41.462   6.038   7.107
 5382POPC   C4B70114  41.652   6.036   7.507
 5383POPC   NC370115  29.243  42.558   5.337
 5383POPC   PO470116  29.380  41.926   5.564
 5383POPC   GL170117  29.036  42.184   5.786
 5383POPC   GL270118  28.952  42.547   5.748
 5383POPC   C1A70119  28.790  42.253   6.186
 5383POPC   D2A70120  29.010  42.361   6.573
 5383POPC   C3A70121  29.073  42.178   6.972
 5383POPC   C4A70122  28.953  42.160   7.378
 5383POPC   C1B70123  29.199  42.587   6.135
 5383POPC   C2B70124  29.467  42.582   6.521
 5383POPC   C3B70125  29.302  42.636   6.947
 5383POPC   C4B70126  29.362  42.443   7.343
 5384POPC   NC370127  11.312   4.308   5.415
 5384POPC   PO470128  10.677   4.537   5.208
 5384POPC   GL170129  10.936   4.446   5.703
 5384POPC   GL270130  11.275   4.609   5.833
 5384POPC   C1A70131  11.131   4.193   6.076
 5384POPC   D2A70132  11.333   4.280   6.489
 5384POPC   C3A70133  11.271   4.369   6.921
 5384POPC   C4A70134  11.315   4.079   7.241
 5384POPC   C1B70135  11.639   4.369   6.100
 5384POPC   C2B70136  11.847   4.335   6.562
 5384POPC   C3B70137  11.756   4.299   7.030
 5384POPC   C4B70138  11.540   4.512   7.384
 5385POPC   NC370139   1.749  35.026   5.640
 5385POPC   PO470140   2.052  35.487   5.326
 5385POPC   GL170141   2.289  35.572   5.677
 5385POPC   GL270142   2.396  35.186   5.612
 5385POPC   C1A70143   2.193  35.734   6.121
 5385POPC   D2A70144   1.931  35.604   6.516
 5385POPC   C3A70145   2.108  35.644   6.937
 5385POPC   C4A70146   1.884  35.606   7.327
 5385POPC   C1B70147   2.339  35.219   6.053
 5385POPC   C2B70148   2.210  35.181   6.474
 5385POPC   C3B70149   2.017  35.152   6.864
 5385POPC   C4B70150   1.799  34.926   7.133
 5386POPC   NC370151  17.231  41.358   5.484
 5386POPC   PO470152  17.644  40.764   5.442
 5386POPC   GL170153  17.493  40.699   5.877
 5386POPC   GL270154  17.202  40.482   5.937
 5386POPC   C1A70155  17.429  40.937   6.274
 5386POPC   D2A70156  17.328  41.290   6.561
 5386POPC   C3A70157  17.483  41.149   6.962
 5386POPC   C4A70158  17.431  40.815   7.219
 5386POPC   C1B70159  17.004  40.618   6.308
 5386POPC   C2B70160  17.133  40.737   6.712
 5386POPC   C3B70161  17.274  40.402   6.972
 5386POPC   C4B70162  17.254  40.349   7.407
 5387POPC   NC370163  37.710  16.483   5.456
 5387POPC   PO470164  37.295  17.033   5.492
 5387POPC   GL170165  37.535  16.824   5.800
 5387POPC   GL270166  37.335  16.508   5.806
 5387POPC   C1A70167  37.728  16.787   6.208
 5387POPC   D2A70168  37.521  16.663   6.590
 5387POPC   C3A70169  37.614  16.837   6.997
 5387POPC   C4A70170  37.471  17.220   7.187
 5387POPC   C1B70171  37.481  16.342   6.175
 5387POPC   C2B70172  37.469  16.146   6.560
 5387POPC   C3B70173  37.497  16.313   6.986
 5387POPC   C4B70174  37.428  16.235   7.444
 5388POPC   NC370175  42.661   9.639   5.308
 5388POPC   PO470176  41.998   9.439   5.396
 5388POPC   GL170177  42.269   9.578   5.727
 5388POPC   GL270178  42.633   9.589   5.823
 5388POPC   C1A70179  42.232   9.721   6.134
 5388POPC   D2A70180  42.472   9.558   6.496
 5388POPC   C3A70181  42.318   9.694   6.896
 5388POPC   C4A70182  42.202   9.817   7.320
 5388POPC   C1B70183  42.688   9.923   6.185
 5388POPC   C2B70184  42.863  10.054   6.601
 5388POPC   C3B70185  42.787   9.947   7.032
 5388POPC   C4B70186  42.670   9.541   7.204
 5389POPC   NC370187   2.534  39.074   5.124
 5389POPC   PO470188   1.904  38.882   5.151
 5389POPC   GL170189   1.975  39.015   5.632
 5389POPC   GL270190   1.810  39.351   5.749
 5389POPC   C1A70191   2.118  39.137   6.093
 5389POPC   D2A70192   1.936  39.321   6.484
 5389POPC   C3A70193   2.138  39.444   6.869
 5389POPC   C4A70194   2.001  39.303   7.232
 5389POPC   C1B70195   1.570  39.468   6.124
 5389POPC   C2B70196   1.394  39.374   6.517
 5389POPC   C3B70197   1.598  39.358   6.905
 5389POPC   C4B70198   1.556  39.590   7.267
 5390POPC   NC370199  37.663  42.424   5.322
 5390POPC   PO470200  38.186  42.789   5.475
 5390POPC   GL170201  37.811  42.712   5.768
 5390POPC   GL270202  37.709  42.371   5.839
 5390POPC   C1A70203  37.615  42.745   6.207
 5390POPC   D2A70204  37.636  42.562   6.652
 5390POPC   C3A70205  37.383  42.343   6.973
 5390POPC   C4A70206  37.573  42.164   7.398
 5390POPC   C1B70207  37.878  42.313   6.257
 5390POPC   C2B70208  37.927  42.095   6.641
 5390POPC   C3B70209  37.892  42.250   7.026
 5390POPC   C4B70210  37.712  42.659   7.193
 5391POPC   NC370211  36.597  25.306   5.018
 5391POPC   PO470212  37.165  25.572   5.311
 5391POPC   GL170213  37.180  25.332   5.710
 5391POPC   GL270214  36.875  25.237   5.799
 5391POPC   C1A70215  37.188  25.199   6.195
 5391POPC   D2A70216  36.909  25.067   6.572
 5391POPC   C3A70217  36.998  25.205   7.003
 5391POPC   C4A70218  36.925  25.628   7.213
 5391POPC   C1B70219  36.694  25.372   6.173
 5391POPC   C2B70220  36.728  25.555   6.573
 5391POPC   C3B70221  36.526  25.407   6.934
 5391POPC   C4B70222  36.439  25.761   7.153
 5392POPC   NC370223   5.891  18.898   5.094
 5392POPC   PO470224   5.958  19.400   5.478
 5392POPC   GL170225   5.900  19.323   5.893
 5392POPC   GL270226   5.573  19.156   5.830
 5392POPC   C1A70227   6.091  19.259   6.293
 5392POPC   D2A70228   6.009  18.960   6.637
 5392POPC   C3A70229   6.138  19.044   7.044
 5392POPC   C4A70230   6.133  19.441   7.250
 5392POPC   C1B70231   5.628  19.008   6.268
 5392POPC   C2B70232   5.501  18.892   6.713
 5392POPC   C3B70233   5.722  18.741   7.090
 5392POPC   C4B70234   5.990  18.565   7.421
 5393POPC   NC370235  10.986  19.614   5.350
 5393POPC   PO470236  11.640  19.902   5.388
 5393POPC   GL170237  11.333  19.937   5.757
 5393POPC   GL270238  11.089  20.232   5.824
 5393POPC   C1A70239  11.338  20.022   6.218
 5393POPC   D2A70240  11.403  19.821   6.606
 5393POPC   C3A70241  11.212  19.830   7.019
 5393POPC   C4A70242  11.435  19.709   7.403
 5393POPC   C1B70243  10.893  20.273   6.259
 5393POPC   C2B70244  11.052  20.207   6.677
 5393POPC   C3B70245  11.095  20.354   7.113
 5393POPC   C4B70246  11.173  20.128   7.528
 5394POPC   NC370247  28.139  44.831   5.536
 5394POPC   PO470248  28.550  44.267   5.592
 5394POPC   GL170249  28.431  44.359   5.971
 5394POPC   GL270250  28.496  44.707   5.912
 5394POPC   C1A70251  28.654  44.466   6.349
 5394POPC   D2A70252  28.740  44.700   6.700
 5394POPC   C3A70253  28.619  44.439   7.023
 5394POPC   C4A70254  28.663  44.026   7.155
 5394POPC   C1B70255  28.210  44.725   6.268
 5394POPC   C2B70256  28.233  44.630   6.718
 5394POPC   C3B70257  28.226  44.750   7.156
 5394POPC   C4B70258  28.030   0.058   7.434
 5395POPC   NC370259  24.525   8.001   5.201
 5395POPC   PO470260  24.766   8.538   5.441
 5395POPC   GL170261  24.662   8.219   5.755
 5395POPC   GL270262  24.731   7.870   5.675
 5395POPC   C1A70263  24.490   8.213   6.178
 5395POPC   D2A70264  24.610   8.380   6.582
 5395POPC   C3A70265  24.538   8.252   7.013
 5395POPC   C4A70266  24.753   8.437   7.405
 5395POPC   C1B70267  24.648   7.727   6.116
 5395POPC   C2B70268  24.610   7.854   6.545
 5395POPC   C3B70269  24.757   7.722   6.963
 5395POPC   C4B70270  24.701   7.903   7.345
 5396POPC   NC370271  38.793  41.014   5.474
 5396POPC   PO470272  39.442  41.077   5.475
 5396POPC   GL170273  39.353  40.771   5.819
 5396POPC   GL270274  39.016  40.607   5.824
 5396POPC   C1A70275  39.410  40.789   6.267
 5396POPC   D2A70276  39.202  41.059   6.552
 5396POPC   C3A70277  39.186  40.961   6.970
 5396POPC   C4A70278  39.492  41.005   7.267
 5396POPC   C1B70279  38.874  40.843   6.213
 5396POPC   C2B70280  38.717  40.866   6.664
 5396POPC   C3B70281  38.795  40.647   7.075
 5396POPC   C4B70282  38.770  40.721   7.524
 5397POPC   NC370283  25.435  36.831   5.473
 5397POPC   PO470284  24.777  36.920   5.260
 5397POPC   GL170285  25.041  37.099   5.713
 5397POPC   GL270286  25.322  36.905   5.967
 5397POPC   C1A70287  25.174  37.362   6.099
 5397POPC   D2A70288  25.418  37.180   6.466
 5397POPC   C3A70289  25.154  37.144   6.850
 5397POPC   C4A70290  25.035  37.053   7.295
 5397POPC   C1B70291  25.140  36.645   6.298
 5397POPC   C2B70292  24.916  36.451   6.615
 5397POPC   C3B70293  24.953  36.654   6.975
 5397POPC   C4B70294  25.394  36.732   7.081
 5398POPC   NC370295   7.291  20.120   5.418
 5398POPC   PO470296   7.763  19.733   5.619
 5398POPC   GL170297   7.514  20.026   5.888
 5398POPC   GL270298   7.143  20.086   5.903
 5398POPC   C1A70299   7.476  20.020   6.338
 5398POPC   D2A70300   7.665  20.198   6.687
 5398POPC   C3A70301   7.347  20.144   7.017
 5398POPC   C4A70302   7.318  20.120   7.468
 5398POPC   C1B70303   6.970  19.894   6.278
 5398POPC   C2B70304   7.143  19.637   6.610
 5398POPC   C3B70305   6.979  19.553   7.017
 5398POPC   C4B70306   6.925  19.945   7.203
 5399POPC   NC370307  26.995  17.834   5.256
 5399POPC   PO470308  26.704  18.408   5.371
 5399POPC   GL170309  26.803  18.161   5.718
 5399POPC   GL270310  26.801  18.511   5.864
 5399POPC   C1A70311  26.671  18.113   6.162
 5399POPC   D2A70312  26.643  18.416   6.507
 5399POPC   C3A70313  26.960  18.333   6.809
 5399POPC   C4A70314  26.977  18.359   7.238
 5399POPC   C1B70315  27.033  18.597   6.226
 5399POPC   C2B70316  27.002  18.814   6.629
 5399POPC   C3B70317  27.137  18.825   7.073
 5399POPC   C4B70318  27.042  18.772   7.548
 5400POPC   NC370319  17.431  25.409   5.225
 5400POPC   PO470320  17.814  24.885   5.377
 5400POPC   GL170321  17.566  25.146   5.662
 5400POPC   GL270322  17.338  24.900   5.779
 5400POPC   C1A70323  17.597  25.406   6.057
 5400POPC   D2A70324  17.435  25.385   6.490
 5400POPC   C3A70325  17.566  25.332   6.903
 5400POPC   C4A70326  17.172  25.499   7.085
 5400POPC   C1B70327  17.446  24.932   6.230
 5400POPC   C2B70328  17.430  24.857   6.710
 5400POPC   C3B70329  17.394  24.943   7.183
 5400POPC   C4B70330  17.522  24.950   7.646
 5401POPC   NC370331  37.066  22.350   5.444
 5401POPC   PO470332  36.615  21.922   5.199
 5401POPC   GL170333  36.782  21.928   5.617
 5401POPC   GL270334  36.637  22.242   5.739
 5401POPC   C1A70335  36.766  21.848   6.075
 5401POPC   D2A70336  36.869  22.083   6.478
 5401POPC   C3A70337  36.755  21.943   6.911
 5401POPC   C4A70338  36.771  22.060   7.353
 5401POPC   C1B70339  36.852  22.504   6.060
 5401POPC   C2B70340  36.819  22.621   6.468
 5401POPC   C3B70341  36.804  22.446   6.872
 5401POPC   C4B70342  37.085  22.460   7.203
 5402POPC   NC370343  24.717  35.129   5.357
 5402POPC   PO470344  24.124  35.354   5.569
 5402POPC   GL170345  24.402  35.186   5.807
 5402POPC   GL270346  24.603  35.471   5.750
 5402POPC   C1A70347  24.322  35.100   6.235
 5402POPC   D2A70348  24.511  35.161   6.609
 5402POPC   C3A70349  24.554  35.048   7.015
 5402POPC   C4A70350  24.475  35.014   7.427
 5402POPC   C1B70351  24.753  35.372   6.153
 5402POPC   C2B70352  24.903  35.474   6.543
 5402POPC   C3B70353  24.677  35.562   6.900
 5402POPC   C4B70354  24.710  35.563   7.311
 5403POPC   NC370355  26.452  25.176   5.571
 5403POPC   PO470356  27.086  25.000   5.401
 5403POPC   GL170357  26.923  25.031   5.817
 5403POPC   GL270358  26.812  25.383   5.851
 5403POPC   C1A70359  26.983  25.152   6.269
 5403POPC   D2A70360  26.726  25.209   6.654
 5403POPC   C3A70361  26.895  25.058   7.047
 5403POPC   C4A70362  27.130  25.072   7.444
 5403POPC   C1B70363  26.544  25.455   6.223
 5403POPC   C2B70364  26.373  25.589   6.628
 5403POPC   C3B70365  26.586  25.548   7.048
 5403POPC   C4B70366  26.681  25.334   7.438
 5404POPC   NC370367  14.591   8.476   5.215
 5404POPC   PO470368  14.009   8.238   5.390
 5404POPC   GL170369  14.092   8.116   5.781
 5404POPC   GL270370  14.427   8.026   5.824
 5404POPC   C1A70371  13.960   7.979   6.189
 5404POPC   D2A70372  14.217   8.018   6.531
 5404POPC   C3A70373  14.082   8.110   6.941
 5404POPC   C4A70374  14.347   8.255   7.259
 5404POPC   C1B70375  14.628   8.195   6.232
 5404POPC   C2B70376  14.706   8.170   6.696
 5404POPC   C3B70377  14.807   8.055   7.131
 5404POPC   C4B70378  14.692   8.104   7.613
 5405POPC   NC370379  15.511   3.344   5.436
 5405POPC   PO470380  14.931   3.770   5.465
 5405POPC   GL170381  15.153   3.576   5.762
 5405POPC   GL270382  15.444   3.740   5.751
 5405POPC   C1A70383  15.158   3.592   6.184
 5405POPC   D2A70384  15.086   3.405   6.564
 5405POPC   C3A70385  15.080   3.584   6.970
 5405POPC   C4A70386  15.046   3.728   7.392
 5405POPC   C1B70387  15.634   3.446   6.090
 5405POPC   C2B70388  15.565   3.199   6.463
 5405POPC   C3B70389  15.516   3.316   6.891
 5405POPC   C4B70390  15.543   3.578   7.263
 5406POPC   NC370391  36.758  42.280   5.570
 5406POPC   PO470392  37.293  42.171   5.234
 5406POPC   GL170393  37.248  42.430   5.663
 5406POPC   GL270394  37.056  42.696   5.849
 5406POPC   C1A70395  37.289  42.356   6.153
 5406POPC   D2A70396  37.347  42.061   6.501
 5406POPC   C3A70397  37.018  42.020   6.830
 5406POPC   C4A70398  37.139  41.944   7.257
 5406POPC   C1B70399  36.772  42.502   6.193
 5406POPC   C2B70400  36.779  42.463   6.642
 5406POPC   C3B70401  36.861  42.492   7.069
 5406POPC   C4B70402  36.781  42.735   7.462
 5407POPC   NC370403  40.374  34.829   5.083
 5407POPC   PO470404  40.939  35.135   5.370
 5407POPC   GL170405  40.917  34.893   5.811
 5407POPC   GL270406  40.607  34.653   5.868
 5407POPC   C1A70407  40.821  34.897   6.276
 5407POPC   D2A70408  40.827  35.041   6.703
 5407POPC   C3A70409  40.583  34.903   7.060
 5407POPC   C4A70410  40.777  34.591   7.297
 5407POPC   C1B70411  40.626  34.420   6.309
 5407POPC   C2B70412  40.623  34.439   6.790
 5407POPC   C3B70413  40.448  34.244   7.181
 5407POPC   C4B70414  40.650  34.178   7.585
 5408POPC   NC370415   4.007  12.361   5.359
 5408POPC   PO470416   3.456  11.873   5.296
 5408POPC   GL170417   3.663  11.742   5.730
 5408POPC   GL270418   3.947  11.963   5.710
 5408POPC   C1A70419   3.500  11.771   6.186
 5408POPC   D2A70420   3.284  12.098   6.445
 5408POPC   C3A70421   3.353  12.057   6.884
 5408POPC   C4A70422   3.524  11.944   7.283
 5408POPC   C1B70423   3.763  12.198   6.070
 5408POPC   C2B70424   3.765  12.223   6.553
 5408POPC   C3B70425   3.895  12.182   7.006
 5408POPC   C4B70426   3.853  12.281   7.512
 5409POPC   NC370427  34.053  18.048   5.029
 5409POPC   PO470428  33.473  17.958   5.452
 5409POPC   GL170429  33.730  18.175   5.756
 5409POPC   GL270430  34.026  18.275   5.566
 5409POPC   C1A70431  33.704  18.256   6.213
 5409POPC   D2A70432  33.809  18.189   6.667
 5409POPC   C3A70433  33.554  17.950   6.925
 5409POPC   C4A70434  33.605  18.223   7.277
 5409POPC   C1B70435  34.139  18.400   5.996
 5409POPC   C2B70436  34.135  18.498   6.442
 5409POPC   C3B70437  34.282  18.302   6.848
 5409POPC   C4B70438  34.239  18.348   7.305
 5410POPC   NC370439   1.775  32.396   5.373
 5410POPC   PO470440   2.324  32.202   5.461
 5410POPC   GL170441   2.111  32.405   5.799
 5410POPC   GL270442   2.392  32.548   5.967
 5410POPC   C1A70443   1.971  32.513   6.260
 5410POPC   D2A70444   2.214  32.573   6.674
 5410POPC   C3A70445   1.958  32.436   7.052
 5410POPC   C4A70446   1.581  32.460   7.321
 5410POPC   C1B70447   2.288  32.131   6.217
 5410POPC   C2B70448   2.128  32.063   6.668
 5410POPC   C3B70449   2.282  32.007   7.106
 5410POPC   C4B70450   2.287  31.744   7.514
 5411POPC   NC370451  36.345  35.079   5.475
 5411POPC   PO470452  35.691  35.058   5.335
 5411POPC   GL170453  35.911  35.048   5.749
 5411POPC   GL270454  36.122  35.371   5.819
 5411POPC   C1A70455  36.076  34.962   6.176
 5411POPC   D2A70456  36.110  35.199   6.569
 5411POPC   C3A70457  36.358  35.121   6.942
 5411POPC   C4A70458  36.423  35.338   7.305
 5411POPC   C1B70459  36.218  35.588   6.215
 5411POPC   C2B70460  36.153  35.705   6.675
 5411POPC   C3B70461  35.996  35.461   7.044
 5411POPC   C4B70462  35.624  35.195   7.088
 5412POPC   NC370463  12.906  14.106   5.341
 5412POPC   PO470464  12.843  14.774   5.367
 5412POPC   GL170465  12.987  14.519   5.740
 5412POPC   GL270466  13.011  14.136   5.827
 5412POPC   C1A70467  13.036  14.475   6.210
 5412POPC   D2A70468  12.705  14.456   6.525
 5412POPC   C3A70469  12.745  14.662   6.926
 5412POPC   C4A70470  13.075  14.554   7.164
 5412POPC   C1B70471  12.804  14.029   6.199
 5412POPC   C2B70472  13.009  14.029   6.566
 5412POPC   C3B70473  12.851  14.149   6.921
 5412POPC   C4B70474  12.946  14.020   7.280
 5413POPC   NC370475  44.274  33.973   5.458
 5413POPC   PO470476  43.607  33.807   5.296
 5413POPC   GL170477  43.841  33.674   5.687
 5413POPC   GL270478  44.063  33.835   5.881
 5413POPC   C1A70479  43.799  33.483   6.111
 5413POPC   D2A70480  43.626  33.569   6.511
 5413POPC   C3A70481  43.808  33.875   6.761
 5413POPC   C4A70482  43.706  33.781   7.177
 5413POPC   C1B70483  44.188  33.818   6.314
 5413POPC   C2B70484  44.285  33.599   6.673
 5413POPC   C3B70485  44.216  33.736   7.072
 5413POPC   C4B70486  44.461  34.018   7.232
 5414POPC   NC370487  34.887   3.003   5.435
 5414POPC   PO470488  35.500   3.334   5.366
 5414POPC   GL170489  35.372   3.523   5.755
 5414POPC   GL270490  35.039   3.400   5.747
 5414POPC   C1A70491  35.252   3.698   6.172
 5414POPC   D2A70492  35.442   3.773   6.559
 5414POPC   C3A70493  35.632   3.581   6.847
 5414POPC   C4A70494  35.377   3.606   7.154
 5414POPC   C1B70495  35.168   3.186   6.163
 5414POPC   C2B70496  35.289   3.273   6.631
 5414POPC   C3B70497  35.088   3.156   7.054
 5414POPC   C4B70498  35.000   3.081   7.557
 5415POPC   NC370499  14.964  25.635   5.411
 5415POPC   PO470500  15.372  25.169   5.348
 5415POPC   GL170501  15.110  25.184   5.743
 5415POPC   GL270502  14.757  25.229   5.709
 5415POPC   C1A70503  15.131  25.304   6.229
 5415POPC   D2A70504  15.231  25.553   6.640
 5415POPC   C3A70505  15.229  25.351   7.055
 5415POPC   C4A70506  15.327  25.358   7.511
 5415POPC   C1B70507  14.632  25.317   6.172
 5415POPC   C2B70508  14.685  25.516   6.581
 5415POPC   C3B70509  14.645  25.361   7.002
 5415POPC   C4B70510  14.847  25.265   7.383
 5416POPC   NC370511  27.782  18.389   5.493
 5416POPC   PO470512  27.451  17.742   5.370
 5416POPC   GL170513  27.488  18.056   5.758
 5416POPC   GL270514  27.721  17.926   5.980
 5416POPC   C1A70515  27.524  18.339   6.186
 5416POPC   D2A70516  27.423  18.538   6.610
 5416POPC   C3A70517  27.450  18.361   7.042
 5416POPC   C4A70518  27.423  18.429   7.495
 5416POPC   C1B70519  27.944  17.989   6.321
 5416POPC   C2B70520  27.825  18.221   6.677
 5416POPC   C3B70521  27.954  18.217   7.088
 5416POPC   C4B70522  27.743  18.060   7.456
 5417POPC   NC370523  29.577   4.145   5.346
 5417POPC   PO470524  30.272   4.399   5.424
 5417POPC   GL170525  30.020   4.263   5.789
 5417POPC   GL270526  29.623   4.289   5.823
 5417POPC   C1A70527  29.969   4.371   6.224
 5417POPC   D2A70528  29.793   4.627   6.533
 5417POPC   C3A70529  30.035   4.543   6.893
 5417POPC   C4A70530  30.190   4.433   7.277
 5417POPC   C1B70531  29.480   4.138   6.213
 5417POPC   C2B70532  29.691   4.089   6.614
 5417POPC   C3B70533  29.699   4.090   7.061
 5417POPC   C4B70534  29.347   4.100   7.378
 5418POPC   NC370535  15.191   0.976   5.439
 5418POPC   PO470536  15.178   1.701   5.644
 5418POPC   GL170537  15.282   1.294   5.825
 5418POPC   GL270538  14.999   1.054   5.904
 5418POPC   C1A70539  15.412   1.082   6.201
 5418POPC   D2A70540  15.542   1.283   6.561
 5418POPC   C3A70541  15.316   1.296   6.920
 5418POPC   C4A70542  15.283   1.007   7.220
 5418POPC   C1B70543  14.792   1.048   6.292
 5418POPC   C2B70544  14.885   1.365   6.604
 5418POPC   C3B70545  14.849   1.465   7.039
 5418POPC   C4B70546  14.781   1.192   7.385
 5419POPC   NC370547  23.156  28.960   5.335
 5419POPC   PO470548  22.537  29.114   5.396
 5419POPC   GL170549  22.773  29.033   5.788
 5419POPC   GL270550  23.078  28.792   5.812
 5419POPC   C1A70551  22.857  29.260   6.176
 5419POPC   D2A70552  22.736  29.422   6.572
 5419POPC   C3A70553  22.912  29.317   6.950
 5419POPC   C4A70554  22.858  28.954   7.215
 5419POPC   C1B70555  22.917  28.749   6.230
 5419POPC   C2B70556  22.912  28.899   6.670
 5419POPC   C3B70557  23.277  28.820   6.964
 5419POPC   C4B70558  23.292  28.737   7.436
 5420POPC   NC370559  39.345  32.668   5.138
 5420POPC   PO470560  38.915  33.027   5.463
 5420POPC   GL170561  39.253  32.957   5.767
 5420POPC   GL270562  39.198  33.263   5.924
 5420POPC   C1A70563  39.504  32.961   6.192
 5420POPC   D2A70564  39.611  33.126   6.618
 5420POPC   C3A70565  39.350  32.857   6.840
 5420POPC   C4A70566  39.287  32.586   7.154
 5420POPC   C1B70567  39.091  33.266   6.378
 5420POPC   C2B70568  38.890  33.096   6.754
 5420POPC   C3B70569  38.936  32.987   7.132
 5420POPC   C4B70570  39.270  33.285   7.118
 5421POPC   NC370571  15.981   2.553   5.322
 5421POPC   PO470572  15.934   3.162   5.577
 5421POPC   GL170573  15.925   2.747   5.801
 5421POPC   GL270574  16.231   2.529   5.795
 5421POPC   C1A70575  15.734   2.537   6.159
 5421POPC   D2A70576  15.589   2.636   6.582
 5421POPC   C3A70577  15.784   2.722   7.000
 5421POPC   C4A70578  15.630   3.042   7.315
 5421POPC   C1B70579  16.217   2.671   6.253
 5421POPC   C2B70580  16.220   2.554   6.699
 5421POPC   C3B70581  16.303   2.540   7.139
 5421POPC   C4B70582  16.219   2.282   7.502
 5422POPC   NC370583  26.168  15.485   5.363
 5422POPC   PO470584  26.830  15.264   5.347
 5422POPC   GL170585  26.665  15.120   5.705
 5422POPC   GL270586  26.946  14.896   5.686
 5422POPC   C1A70587  26.620  15.326   6.127
 5422POPC   D2A70588  26.755  15.511   6.497
 5422POPC   C3A70589  26.713  15.249   6.841
 5422POPC   C4A70590  26.677  15.306   7.236
 5422POPC   C1B70591  27.105  15.150   6.032
 5422POPC   C2B70592  27.053  15.104   6.488
 5422POPC   C3B70593  27.186  15.165   6.964
 5422POPC   C4B70594  27.069  14.980   7.389
 5423POPC   NC370595  43.140  41.171   5.457
 5423POPC   PO470596  43.359  41.819   5.362
 5423POPC   GL170597  43.158  41.629   5.735
 5423POPC   GL270598  43.352  41.392   5.942
 5423POPC   C1A70599  42.824  41.739   6.037
 5423POPC   D2A70600  42.785  41.791   6.465
 5423POPC   C3A70601  43.050  41.514   6.734
 5423POPC   C4A70602  42.987  41.378   7.150
 5423POPC   C1B70603  43.290  41.734   6.275
 5423POPC   C2B70604  43.222  41.994   6.660
 5423POPC   C3B70605  43.271  41.872   7.107
 5423POPC   C4B70606  43.454  41.798   7.552
 5424POPC   NC370607  36.884  19.536   5.389
 5424POPC   PO470608  36.923  20.179   5.399
 5424POPC   GL170609  36.883  19.923   5.766
 5424POPC   GL270610  37.131  19.659   5.801
 5424POPC   C1A70611  36.989  19.918   6.205
 5424POPC   D2A70612  36.772  20.023   6.553
 5424POPC   C3A70613  36.994  19.955   6.912
 5424POPC   C4A70614  36.813  19.675   7.165
 5424POPC   C1B70615  37.277  19.488   6.155
 5424POPC   C2B70616  37.105  19.550   6.582
 5424POPC   C3B70617  37.211  19.421   7.018
 5424POPC   C4B70618  37.334  19.775   7.273
 5425POPC   NC370619  30.927  32.076   5.535
 5425POPC   PO470620  30.348  31.953   5.451
 5425POPC   GL170621  30.416  32.296   5.776
 5425POPC   GL270622  30.742  32.276   5.963
 5425POPC   C1A70623  30.393  32.470   6.252
 5425POPC   D2A70624  30.735  32.400   6.576
 5425POPC   C3A70625  30.664  32.581   6.993
 5425POPC   C4A70626  30.375  32.400   7.260
 5425POPC   C1B70627  30.557  31.992   6.299
 5425POPC   C2B70628  30.608  31.951   6.774
 5425POPC   C3B70629  30.806  32.121   7.157
 5425POPC   C4B70630  31.065  32.092   7.537
 5426POPC   NC370631   7.770  33.747   5.533
 5426POPC   PO470632   8.456  33.999   5.366
 5426POPC   GL170633   8.186  33.996   5.704
 5426POPC   GL270634   8.270  33.707   5.850
 5426POPC   C1A70635   7.978  34.017   6.136
 5426POPC   D2A70636   8.062  33.862   6.559
 5426POPC   C3A70637   7.943  33.982   6.979
 5426POPC   C4A70638   8.114  34.007   7.394
 5426POPC   C1B70639   8.274  33.491   6.254
 5426POPC   C2B70640   8.122  33.372   6.677
 5426POPC   C3B70641   8.179  33.528   7.101
 5426POPC   C4B70642   8.053  33.480   7.545
 5427POPC   NC370643  12.825   0.137   5.335
 5427POPC   PO470644  12.401   0.617   5.261
 5427POPC   GL170645  12.638   0.478   5.695
 5427POPC   GL270646  12.734   0.091   5.828
 5427POPC   C1A70647  12.629   0.632   6.153
 5427POPC   D2A70648  12.568   0.863   6.541
 5427POPC   C3A70649  12.591   0.685   6.930
 5427POPC   C4A70650  12.746   0.602   7.337
 5427POPC   C1B70651  12.981   0.270   6.177
 5427POPC   C2B70652  12.955   0.510   6.575
 5427POPC   C3B70653  12.904   0.282   6.943
 5427POPC   C4B70654  12.883   0.107   7.337
 5428W        W70655  26.328  43.827   2.174
 5429W        W70656  13.281   4.923   0.544
 5430W        W70657  27.497  10.398   0.707
 5431W        W70658  16.541   8.166   3.755
 5432W        W70659  42.358  44.775   0.409
 5433W        W70660  38.160  27.639   2.318
 5434W        W70661  35.600  34.718   4.399
 5435W        W70662  10.272   3.033  12.472
 5436W        W70663  37.904  33.277  13.023
 5437W        W70664  19.198   1.336   0.017
 5438W        W70665  32.459   3.042   4.653
 5439W        W70666  18.149  18.118  14.101
 5440W        W70667  34.920  37.825   2.082
 5441W        W70668  33.590  25.156   0.914
 5442W        W70669  15.284  23.005   1.713
 5443W        W70670  38.983  33.032  13.420
 5444W        W70671  10.220  19.237  14.469
 5445W        W70672  30.173  18.808  14.437
 5446W        W70673  18.585  44.185   2.304
 5447W        W70674  34.624  12.381  14.766
 5448W        W70675  35.051   9.636   4.110
 5449W        W70676  38.785  38.889  13.540
 5450W        W70677   6.489  28.020   0.868
 5451W        W70678  36.160  32.177   0.793
 5452W        W70679  37.625  28.785  12.615
 5453W        W70680  22.667  10.796  11.760
 5454W        W70681  38.386  15.702  11.860
 5455W        W70682   9.634   2.238  14.899
 5456W        W70683  26.877   1.044  13.557
 5457W        W70684  40.545  37.415  12.360
 5458W        W70685  23.132  21.104   0.512
 5459W        W70686  18.137  15.250  11.482
 5460W        W70687  21.986   0.619  11.540
 5461W        W70688   8.864  19.764  11.554
 5462W        W70689  38.323  29.596   0.620
 5463W        W70690  37.292  13.301  13.280
 5464W        W70691  29.696  29.751   4.220
 5465W        W70692  14.250  17.768   0.008
 5466W        W70693  16.962   1.721  11.610
 5467W        W70694  12.182  29.455  10.948
 5468W        W70695   1.186  36.082   5.005
 5469W        W70696  16.707  36.836  12.839
 5470W        W70697  19.968  26.718   2.311
 5471W        W70698  34.543   4.415   4.361
 5472W        W70699   8.245  20.902  11.216
 5473W        W70700  25.285  32.727   0.236
 5474W        W70701  27.774  17.285  12.547
 5475W        W70702  17.797  17.240  14.884
 5476W        W70703  38.688  39.831   1.236
 5477W        W70704  13.053  40.358   2.768
 5478W        W70705   5.549  14.034  11.128
 5479W        W70706   8.890  40.405   5.120
 5480W        W70707  20.444  21.503  11.791
 5481W        W70708  28.077   3.825  10.617
 5482W        W70709  21.678  21.954   3.268
 5483W        W70710  12.225  35.164   4.110
 5484W        W70711   6.808  40.891  11.109
 5485W        W70712  13.815  44.837   1.675
 5486W        W70713  39.870  17.209  11.648
 5487W        W70714  28.092  22.138   2.570
 5488W        W70715   0.183  32.248  14.457
 5489W        W70716  10.299  32.635  13.744
 5490W        W70717   8.463   5.210   4.129
 5491W        W70718  37.670  24.214   0.902
 5492W        W70719  22.750  25.379   0.327
 5493W        W70720  18.851  37.356   4.969
 5494W        W70721  21.513  41.314  10.403
 5495W        W70722   9.161  29.090  11.490
 5496W        W70723   0.402  16.360  12.887
 5497W        W70724   0.345  10.213   0.289
 5498W        W70725   0.711  44.693  14.130
 5499W        W70726  34.213  43.118  13.561
 5500W        W70727  39.032  35.777   3.555
 5501W        W70728  29.025   2.004  13.963
 5502W        W70729  15.595   4.615   0.929
 5503W        W70730  19.012  20.158   1.542
 5504W        W70731  37.416   2.261   0.284
 5505W        W70732  30.424  18.509   3.165
 5506W        W70733  13.864  16.613  11.169
 5507W        W70734  27.473  13.565   0.825
 5508W        W70735   7.315  34.609  12.461
 5509W        W70736   1.671  17.582  12.572
 5510W        W70737  30.491  29.078  11.509
 5511W        W70738   5.498  23.702   2.753
 5512W        W70739  33.429  11.727   3.978
 5513W        W70740  22.711  34.950   2.375
 5514W        W70741  15.760  32.599  10.686
 5515W        W70742  14.283  31.859   4.169
 5516W        W70743   5.000  21.695  10.601
 5517W        W70744  13.811  33.310  13.465
 5518W        W70745  19.941   6.293  13.711
 5519W        W70746   1.409  30.952  12.856
 5520W        W70747   9.297  35.368   0.560
 5521W        W70748   5.768  35.085   4.362
 5522W        W70749  22.149  19.259   4.250
 5523W        W70750   1.002   0.832   3.249
 5524W        W70751  33.632  26.403  11.576
 5525W        W70752  31.686  41.151  11.835
 5526W        W70753  30.421  31.834   2.264
 5527W        W70754   2.774  25.080  13.776
 5528W        W70755  25.664  44.263   0.414
 5529W        W70756  29.372  34.530   1.801
 5530W        W70757   4.826   0.241  12.492
 5531W        W70758  44.315  21.862  11.773
 5532W        W70759  14.188  36.306  13.938
 5533W        W70760  29.213   1.914   3.090
 5534W        W70761  35.532   2.819   3.218
 5535W        W70762  11.628  10.137  12.567
 5536W        W70763  17.786   4.593   3.831
 5537W        W70764  40.108   5.669  12.014
 5538W        W70765   3.834  24.274  13.468
 5539W        W70766   7.913  20.405   4.269
 5540W        W70767  39.003  43.231   5.171
 5541W        W70768  23.152   6.075  12.550
 5542W        W70769  33.507  34.680   4.841
 5543W        W70770  30.590   5.153  13.940
 5544W        W70771   0.715   5.867  12.106
 5545W        W70772  27.439  30.873   0.365
 5546W        W70773  35.460   2.389  14.186
 5547W        W70774   0.993  38.772  10.722
 5548W        W70775  12.136   0.722   1.350
 5549W        W70776  26.013  43.944  13.644
 5550W        W70777  22.061   1.961   4.524
 5551W        W70778  29.768  21.136  12.806
 5552W        W70779   5.912   2.746   2.750
 5553W        W70780   0.102   1.258   0.335
 5554W        W70781  24.811  39.005  12.016
 5555W        W70782  40.294  42.012  12.969
 5556W        W70783  29.586  11.868  14.334
 5557W        W70784   6.221  11.085  11.252
 5558W        W70785  40.886   1.205   3.529
 5559W        W70786  35.483  16.594   4.543
 5560W        W70787  40.279  38.883   1.788
 5561W        W70788  34.988  24.521  11.556
 5562W        W70789  20.213  32.894   1.744
 5563W        W70790  13.070   7.153   0.835
 5564W        W70791  35.947  31.546   1.884
 5565W        W70792  25.802  27.176  10.735
 5566W        W70793  12.945  42.697   2.815
 5567W        W70794  15.680  27.964  11.549
 5568W        W70795  20.137   2.245  13.734
 5569W        W70796  12.732  24.490  11.569
 5570W        W70797  44.953  12.216   2.848
 5571W        W70798   7.451   9.854  13.122
 5572W        W70799   7.699   9.904   1.844
 5573W        W70800  16.788  13.869  14.271
 5574W        W70801   0.569   2.299   0.870
 5575W        W70802   3.402  42.654  12.091
 5576W        W70803  32.679  15.078   3.513
 5577W        W70804  20.500  30.084   2.327
 5578W        W70805  18.383  19.746   0.960
 5579W        W70806  16.892  44.950   0.850
 5580W        W70807  25.658  24.596   2.612
 5581W        W70808  14.344  13.260  12.898
 5582W        W70809   8.252  10.683   4.908
 5583W        W70810  17.677  25.639   4.826
 5584W        W70811  30.408  38.900  11.561
 5585W        W70812  32.229  31.640   4.552
 5586W        W70813  20.150   1.733   5.026
 5587W        W70814  30.528  43.921   0.842
 5588W        W70815  13.463  38.982  13.137
 5589W        W70816  20.097   9.592  14.564
 5590W        W70817  20.467  17.786  13.329
 5591W        W70818  32.940  27.024  13.555
 5592W        W70819  32.108   2.957   1.644
 5593W        W70820  25.210  26.914  13.992
 5594W        W70821   5.533   8.819   0.817
 5595W        W70822  38.456  43.920  12.469
 5596W        W70823  26.127  11.661  14.856
 5597W        W70824  21.275  13.345   3.586
 5598W        W70825   7.352  27.889   2.804
 5599W        W70826  13.580  20.159   2.161
 5600W        W70827  38.997  32.107   0.442
 5601W        W70828  38.124   3.348  14.950
 5602W        W70829  44.420  41.389  14.895
 5603W        W70830  19.207  23.962  13.587
 5604W        W70831   1.220  43.541  13.529
 5605W        W70832  21.745   0.688   2.635
 5606W        W70833  38.673  30.440  13.875
 5607W        W70834  12.899  35.927   1.168
 5608W        W70835  24.069  33.965   3.181
 5609W        W70836   4.804  37.973   4.722
 5610W        W70837   3.329  11.943  12.526
 5611W        W70838  11.147  19.182   4.034
 5612W        W70839  23.054   3.366  12.882
 5613W        W70840  28.410  31.160   0.509
 5614W        W70841  25.732   8.706   1.894
 5615W        W70842  43.293  12.763  12.228
 5616W        W70843  20.980  15.791   1.613
 5617W        W70844  23.979  40.102  11.068
 5618W        W70845  24.351  25.645  14.790
 5619W        W70846  21.709  24.673  13.389
 5620W        W70847  35.913  33.438  10.508
 5621W        W70848  13.718   4.586  14.777
 5622W        W70849  29.177  20.788  13.440
 5623W        W70850   6.360  17.545   3.193
 5624W        W70851   6.779  37.051  13.008
 5625W        W70852  37.773  10.309   4.606
 5626W        W70853  14.740  17.798  14.259
 5627W        W70854  41.874   1.680   2.564
 5628W        W70855  40.984  36.616  14.119
 5629W        W70856  10.722  39.753   4.354
 5630W        W70857  22.288  40.408  10.804
 5631W        W70858  30.963  16.998   3.792
 5632W        W70859   6.239   7.959   2.321
 5633W        W70860   9.634  10.606   4.031
 5634W        W70861  16.435   1.837  12.769
 5635W        W70862  29.994  17.308  13.558
 5636W        W70863  43.113  10.169  10.080
 5637W        W70864  14.244  13.889   0.292
 5638W        W70865  17.028  36.413  12.772
 5639W        W70866   2.510   9.187  13.565
 5640W        W70867  17.544   7.365  10.707
 5641W        W70868  27.663  44.262   1.867
 5642W        W70869  29.579  16.972  11.150
 5643W        W70870   8.647   0.317   4.729
 5644W        W70871  17.314   7.201   2.231
 5645W        W70872  29.052  40.689  11.489
 5646W        W70873  24.165   9.877   4.207
 5647W        W70874  17.314  11.734   3.581
 5648W        W70875  41.338  38.215  11.517
 5649W        W70876  21.844   2.575  14.344
 5650W        W70877  10.709   0.433  14.757
 5651W        W70878  10.229  24.761   2.297
 5652W        W70879  34.161  10.614   0.937
 5653W        W70880  10.681  28.391   1.205
 5654W        W70881  38.663  34.176  13.612
 5655W        W70882  27.403   7.595  11.933
 5656W        W70883  13.178   3.724   2.235
 5657W        W70884   4.695  17.792   1.835
 5658W        W70885  25.350  29.005  10.747
 5659W        W70886  23.662  29.513   4.621
 5660W        W70887  35.610  33.841   1.382
 5661W        W70888  37.939  15.086  14.421
 5662W        W70889  21.085  16.616  12.707
 5663W        W70890   8.534  39.578  11.542
 5664W        W70891  34.109  14.166  11.576
 5665W        W70892  27.774  31.998  12.895
 5666W        W70893  24.486  37.327   2.357
 5667W        W70894  10.239   4.015  14.533
 5668W        W70895  28.241  10.646   1.891
 5669W        W70896  19.255  16.230   3.883
 5670W        W70897  28.086   3.768   2.739
 5671W        W70898  31.491   6.175  14.107
 5672W        W70899  18.012  20.774   1.481
 5673W        W70900   1.065  35.385   2.287
 5674W        W70901   4.778   2.857  10.304
 5675W        W70902  14.237  41.820  12.311
 5676W        W70903  28.139   2.312   4.554
 5677W        W70904   6.940   6.846   1.990
 5678W        W70905  32.035  39.085   4.487
 5679W        W70906  25.113  15.552  11.803
 5680W        W70907  24.747  12.907  13.063
 5681W        W70908  40.831  10.724   4.061
 5682W        W70909   0.293  17.413  11.867
 5683W        W70910  44.904  31.083  11.137
 5684W        W70911  12.757  22.737  13.722
 5685W        W70912  33.018  31.078   3.638
 5686W        W70913  38.623  22.163  12.023
 5687W        W70914  24.380  42.334   2.220
 5688W        W70915  18.359  10.379  10.801
 5689W        W70916  43.698  29.983   2.395
 5690W        W70917  38.458  17.902  11.132
 5691W        W70918  13.223   0.852  13.544
 5692W        W70919  12.793  44.484   2.463
 5693W        W70920  42.138  41.171   3.915
 5694W        W70921  25.198  35.556   1.328
 5695W        W70922  23.218  17.206  13.135
 5696W        W70923  11.527  38.888  12.872
 5697W        W70924  44.900  23.474  10.260
 5698W        W70925   6.922  10.192   3.884
 5699W        W70926  43.388  37.140  13.672
 5700W        W70927  14.212  17.624  14.512
 5701W        W70928  43.774  12.620   2.248
 5702W        W70929  43.514  41.652   2.666
 5703W        W70930  14.850  38.036  13.366
 5704W        W70931  43.206  37.357  11.974
 5705W        W70932  35.420  34.450  13.565
 5706W        W70933  33.611  32.968  14.848
 5707W        W70934  23.260  15.827   1.536
 5708W        W70935  21.051  22.110   0.055
 5709W        W70936  28.950   2.697   3.596
 5710W        W70937  35.037   2.109   1.741
 5711W        W70938  35.932  34.297  13.560
 5712W        W70939  21.557  39.968   0.470
 5713W        W70940   1.456  12.304   0.279
 5714W        W70941  16.559  10.262   3.838
 5715W        W70942  19.710  42.589  13.922
 5716W        W70943   2.880   7.994   2.920
 5717W        W70944  35.422  37.118   1.901
 5718W        W70945  10.969  37.433  12.787
 5719W        W70946  37.436   2.993  11.471
 5720W        W70947   3.713  32.576   3.433
 5721W        W70948   3.322  36.064   3.770
 5722W        W70949  38.776  44.976  11.154
 5723W        W70950  41.800  24.876   1.887
 5724W        W70951  33.429   5.111  12.183
 5725W        W70952   9.613  14.241  11.634
 5726W        W70953   4.503   5.530   1.462
 5727W        W70954  13.559   2.014  14.870
 5728W        W70955  32.186  31.895   3.295
 5729W        W70956  12.078  33.434  11.218
 5730W        W70957  26.504  34.459  11.581
 5731W        W70958  33.593  35.326  13.260
 5732W        W70959   0.104   1.919   0.893
 5733W        W70960  15.758  10.263   0.379
 5734W        W70961  42.294  35.131  11.129
 5735W        W70962  24.791   4.036  10.520
 5736W        W70963   0.126  22.135   0.061
 5737W        W70964  40.751  41.955   2.799
 5738W        W70965  41.030   4.881   0.464
 5739W        W70966  23.957   2.763   0.906
 5740W        W70967  44.018  42.878  14.441
 5741W        W70968   7.764  24.422  12.505
 5742W        W70969  41.260  43.376  14.959
 5743W        W70970  31.910  34.371   2.434
 5744W        W70971  22.179  40.879  14.476
 5745W        W70972  41.778   3.932  14.889
 5746W        W70973  16.791  18.126   0.984
 5747W        W70974  24.695   2.649   4.533
 5748W        W70975  28.094  31.973   0.365
 5749W        W70976  22.859  28.582  14.282
 5750W        W70977  21.732  17.680   3.771
 5751W        W70978   6.615  26.646   1.824
 5752W        W70979  28.474   4.677  11.648
 5753W        W70980  24.450  18.892  13.702
 5754W        W70981  35.584   7.031  12.041
 5755W        W70982   5.703  10.159   1.896
 5756W        W70983   8.346  23.703  13.515
 5757W        W70984  28.165  39.543   4.040
 5758W        W70985  22.841   2.617   4.613
 5759W        W70986   8.644  24.237   4.552
 5760W        W70987  30.340  11.111   2.194
 5761W        W70988   0.387   5.407  14.880
 5762W        W70989   7.940  20.762   0.242
 5763W        W70990   7.417  20.736  14.771
 5764W        W70991  15.179  21.841  13.387
 5765W        W70992  38.303  41.035   4.671
 5766W        W70993  36.191  27.507  11.720
 5767W        W70994  31.515   9.752  11.749
 5768W        W70995   3.939  24.773   3.885
 5769W        W70996   4.387  20.044   3.751
 5770W        W70997  21.070  40.983  10.534
 5771W        W70998   5.979   3.844   4.124
 5772W        W70999   5.213   8.806  12.361
 5773W        W71000  12.434   7.278   2.351
 5774W        W71001  38.905   1.153   3.730
 5775W        W71002  38.388  33.841   4.371
 5776W        W71003  13.995  42.843   2.807
 5777W        W71004  10.084  42.842   1.393
 5778W        W71005   5.385  35.456   3.296
 5779W        W71006   4.104  13.345  12.640
 5780W        W71007  41.001   6.182  13.052
 5781W        W71008  18.674   2.541  14.859
 5782W        W71009  20.505   4.539   2.758
 5783W        W71010   8.181  32.899  12.529
 5784W        W71011  15.478  38.307  12.472
 5785W        W71012  30.678  20.844  12.413
 5786W        W71013  41.563  40.364  12.556
 5787W        W71014  31.640  36.912   0.199
 5788W        W71015  24.110  35.102  11.216
 5789W        W71016  40.090  34.112   4.473
 5790W        W71017  34.388  39.993   2.854
 5791W        W71018  39.851  12.073  14.437
 5792W        W71019  15.810  32.219   4.171
 5793W        W71020  36.771  18.583   0.532
 5794W        W71021   6.394  31.386   0.953
 5795W        W71022  42.560  34.784   0.809
 5796W        W71023   2.870  41.758   9.498
 5797W        W71024  20.702  22.482  13.892
 5798W        W71025   3.176  28.644   0.926
 5799W        W71026  29.909  33.214  10.893
 5800W        W71027  15.177   8.471   1.277
 5801W        W71028  44.445  16.799   3.372
 5802W        W71029  33.859  13.101   3.926
 5803W        W71030  24.711   8.112  11.184
 5804W        W71031   7.844   5.286  14.967
 5805W        W71032  20.022   7.259   3.189
 5806W        W71033  33.092  14.755  12.070
 5807W        W71034  30.942  31.480  14.540
 5808W        W71035  39.422   3.692  14.798
 5809W        W71036   9.309   3.438  12.576
 5810W        W71037  37.502   5.549  13.184
 5811W        W71038  24.754   3.752   2.213
 5812W        W71039  36.515  23.484   3.910
 5813W        W71040  29.618  35.082  14.167
 5814W        W71041  28.115   1.733  12.576
 5815W        W71042   7.223  27.506  10.869
 5816W        W71043  26.725  36.331   4.626
 5817W        W71044  21.554  39.149  10.243
 5818W        W71045  29.515  35.934  11.155
 5819W        W71046  24.702  22.394  12.506
 5820W        W71047  44.761  21.328   3.377
 5821W        W71048  11.921  43.932  14.832
 5822W        W71049  31.592  21.493  13.626
 5823W        W71050  20.558  19.302  11.576
 5824W        W71051   1.480   4.586   3.387
 5825W        W71052  13.157  33.921   2.697
 5826W        W71053  27.939  43.785   3.125
 5827W        W71054  16.797  18.016   3.291
 5828W        W71055  12.336  41.604   1.716
 5829W        W71056  38.341  20.066  13.360
 5830W        W71057  39.487  40.966  14.111
 5831W        W71058  31.506  21.143   2.219
 5832W        W71059   3.696  16.855  10.565
 5833W        W71060  10.656  10.644  13.788
 5834W        W71061  38.348  36.333   1.741
 5835W        W71062   9.802   9.704   2.149
 5836W        W71063  20.902  34.438  11.214
 5837W        W71064  39.058  12.570  10.767
 5838W        W71065  44.425  18.445   2.408
 5839W        W71066  12.381  42.569   3.653
 5840W        W71067  40.285   5.400   1.392
 5841W        W71068   9.234  16.876   2.657
 5842W        W71069  12.183   5.103  12.134
 5843W        W71070   4.296   3.787  13.493
 5844W        W71071   2.315  16.181  12.478
 5845W        W71072  33.493  16.223  12.993
 5846W        W71073   1.806  20.215   2.684
 5847W        W71074  30.561  33.416   3.975
 5848W        W71075  14.644  17.356   3.118
 5849W        W71076  25.849  21.128   3.579
 5850W        W71077   5.367  23.291   3.735
 5851W        W71078  38.756  32.362  13.940
 5852W        W71079   4.148  21.068  13.768
 5853W        W71080  38.041  18.144   0.210
 5854W        W71081  12.415  34.189   2.188
 5855W        W71082   3.100  31.879  13.237
 5856W        W71083   1.025   6.232   4.150
 5857W        W71084  40.956   1.682   3.701
 5858W        W71085   5.725  40.276   1.813
 5859W        W71086  31.818  38.999  11.269
 5860W        W71087  20.423  32.699   3.148
 5861W        W71088  25.245  30.030   3.207
 5862W        W71089   7.230   0.867   1.284
 5863W        W71090  17.586   6.697   0.062
 5864W        W71091   6.251  12.064  10.848
 5865W        W71092   8.622  29.217   2.285
 5866W        W71093  37.920  32.647   2.810
 5867W        W71094  14.453  25.207   0.906
 5868W        W71095  22.291  25.638   0.044
 5869W        W71096   8.302  20.356  13.250
 5870W        W71097  23.770  43.036   1.787
 5871W        W71098  15.731   0.871   1.448
 5872W        W71099  24.845   7.603   1.867
 5873W        W71100  15.796  42.140   2.643
 5874W        W71101  42.970  20.170  14.243
 5875W        W71102  19.448  28.420  12.860
 5876W        W71103  31.532  17.251  13.437
 5877W        W71104  40.118  21.650   4.100
 5878W        W71105  26.994  40.799   4.949
 5879W        W71106  18.641  34.680  10.742
 5880W        W71107   8.006  39.560  11.419
 5881W        W71108   1.872  35.178  12.843
 5882W        W71109  27.155  23.168   1.927
 5883W        W71110  29.994  33.556  12.495
 5884W        W71111  17.104   5.723  10.785
 5885W        W71112   6.285  35.183  10.770
 5886W        W71113  36.315  12.077  12.985
 5887W        W71114  31.006  26.239  11.327
 5888W        W71115  17.208  11.695   1.686
 5889W        W71116  19.834  16.360  14.720
 5890W        W71117   6.296   9.466  14.851
 5891W        W71118  25.158  25.555   2.385
 5892W        W71119  14.156   7.680  12.330
 5893W        W71120  44.576  24.233  11.447
 5894W        W71121  41.389  36.526  12.866
 5895W        W71122  27.934  29.889   3.059
 5896W        W71123  41.752  38.739   0.021
 5897W        W71124  22.398  27.951  13.857
 5898W        W71125  15.820  42.056  13.013
 5899W        W71126  40.471  41.305  10.689
 5900W        W71127  23.231   9.200  11.659
 5901W        W71128  39.039  24.029   4.506
 5902W        W71129   7.107  34.566   2.809
 5903W        W71130  10.138   5.975  11.676
 5904W        W71131  37.302  40.292   4.132
 5905W        W71132   7.690  26.498   3.340
 5906W        W71133   1.021   6.834   0.462
 5907W        W71134   3.784   9.391   2.777
 5908W        W71135   6.139  15.745   2.749
 5909W        W71136  44.447   7.662   1.714
 5910W        W71137  13.827  26.103   2.817
 5911W        W71138  22.071  27.224   3.698
 5912W        W71139  36.165  44.696   1.963
 5913W        W71140  36.784  12.295  12.997
 5914W        W71141  44.736   2.493  14.693
 5915W        W71142   9.906   4.122  12.643
 5916W        W71143  26.276   8.993  11.990
 5917W        W71144   8.767  18.520  14.488
 5918W        W71145   4.808  29.711  11.220
 5919W        W71146   2.886  30.919   4.573
 5920W        W71147  18.670  28.972   0.283
 5921W        W71148  12.592  29.571  10.689
 5922W        W71149   0.047  23.759   2.420
 5923W        W71150  27.766  17.090   0.248
 5924W        W71151  35.147  21.415   3.148
 5925W        W71152   0.095  36.817  13.417
 5926W        W71153   1.395   9.054  13.865
 5927W        W71154  19.780  38.619  13.775
 5928W        W71155   9.044  40.968  11.972
 5929W        W71156  24.573  11.140   4.175
 5930W        W71157  19.761   1.832   2.711
 5931W        W71158  11.353  41.449   2.576
 5932W        W71159   7.907  24.986   4.054
 5933W        W71160  28.877  36.566  11.232
 5934W        W71161  15.272  15.584  11.188
 5935W        W71162  43.140  13.155  11.060
 5936W        W71163  35.673  37.083  11.851
 5937W        W71164  17.661  44.678   3.495
 5938W        W71165   8.131  10.730   1.906
 5939W        W71166  43.304  26.459   4.209
 5940W        W71167  40.816   0.693  12.931
 5941W        W71168  44.904  16.050  13.944
 5942W        W71169   6.067  24.543  10.668
 5943W        W71170  22.203  19.641  11.615
 5944W        W71171  27.296  43.717   0.776
 5945W        W71172  37.532   4.789  10.740
 5946W        W71173  25.205  40.861   2.146
 5947W        W71174  43.433  36.806   0.546
 5948W        W71175  40.004   2.342   3.553
 5949W        W71176  21.793  37.858  14.039
 5950W        W71177  15.989  15.064   0.089
 5951W        W71178  35.644  16.667  12.861
 5952W        W71179  25.572  24.576  11.254
 5953W        W71180   5.045  14.586   3.221
 5954W        W71181  37.066   5.550   9.808
 5955W        W71182   8.689  20.816   2.982
 5956W        W71183   6.338  35.483   3.197
 5957W        W71184   7.456  44.368  11.799
 5958W        W71185  12.513   6.959  10.798
 5959W        W71186  12.229   5.643   3.412
 5960W        W71187  33.074  43.556   4.460
 5961W        W71188  39.476   9.458  12.964
 5962W        W71189  43.399  33.794   1.237
 5963W        W71190   0.471  23.631   9.747
 5964W        W71191  22.005  19.028  12.285
 5965W        W71192  15.585  36.024   0.915
 5966W        W71193  44.159  37.840  13.358
 5967W        W71194  21.332  24.801  14.457
 5968W        W71195   6.458  29.974   2.302
 5969W        W71196  11.390  19.752   0.321
 5970W        W71197  15.400   1.234   4.497
 5971W        W71198  11.799  10.149  12.088
 5972W        W71199  32.277  16.095  10.858
 5973W        W71200  18.652  32.824  12.948
 5974W        W71201   3.130  16.058   3.126
 5975W        W71202  34.092  44.528   4.066
 5976W        W71203   4.952  30.653   4.673
 5977W        W71204  35.250  40.277   3.529
 5978W        W71205  18.583   6.778  12.831
 5979W        W71206  42.911  29.594  11.954
 5980W        W71207  42.486  28.864   0.242
 5981W        W71208   7.907  30.215  14.528
 5982W        W71209  18.523  44.346   3.617
 5983W        W71210  27.150   1.261  14.891
 5984W        W71211  21.554  30.819   1.791
 5985W        W71212  14.589  22.304   1.404
 5986W        W71213  44.048  18.806   4.095
 5987W        W71214   6.750   6.054   1.248
 5988W        W71215  31.716  42.177  11.695
 5989W        W71216  41.438  18.736   4.835
 5990W        W71217  16.260  11.124   0.749
 5991W        W71218  24.504  31.395   1.698
 5992W        W71219  30.667  34.610   1.966
 5993W        W71220   0.271  42.826  12.723
 5994W        W71221  23.378  17.189   4.310
 5995W        W71222  31.880  38.964  13.558
 5996W        W71223  27.433  15.195  11.718
 5997W        W71224  31.056  42.537  13.452
 5998W        W71225  44.746   5.716  11.873
 5999W        W71226  16.130  28.270  11.627
 6000W        W71227  21.227  12.827  12.835
 6001W        W71228  37.299  12.712   3.733
 6002W        W71229  13.249  27.506  13.897
 6003W        W71230  44.809   8.388   4.031
 6004W        W71231  37.520  16.518  11.955
 6005W        W71232   2.908  28.250   3.548
 6006W        W71233   5.155   9.046   2.144
 6007W        W71234  41.537  19.012   3.844
 6008W        W71235  30.797  16.873  10.346
 6009W        W71236   3.783   4.382   0.960
 6010W        W71237  26.165  14.425  11.501
 6011W        W71238  37.900   7.668  13.014
 6012W        W71239  43.941  38.530   4.551
 6013W        W71240   8.268   7.964   2.596
 6014W        W71241  29.181  17.646  11.212
 6015W        W71242  33.391  21.257  11.740
 6016W        W71243  20.321  33.189   1.358
 6017W        W71244  32.995  14.818   4.093
 6018W        W71245  37.056   9.410   4.157
 6019W        W71246  25.176  10.679  14.155
 6020W        W71247  34.297  40.962   0.435
 6021W        W71248  39.421  12.195   0.445
 6022W        W71249  42.459  42.623  13.075
 6023W        W71250  40.554   2.350   3.306
 6024W        W71251  37.821  32.539  13.524
 6025W        W71252   7.275   3.298  11.021
 6026W        W71253   7.874  37.105   4.183
 6027W        W71254   2.153  26.368   2.234
 6028W        W71255  44.218  29.694   0.449
 6029W        W71256  12.460  21.971  14.361
 6030W        W71257   5.738  42.277  12.809
 6031W        W71258  42.281   3.808   2.200
 6032W        W71259   6.684  40.336  10.933
 6033W        W71260  21.594  32.940   1.388
 6034W        W71261   8.328  20.659   3.371
 6035W        W71262  17.097  24.137   0.187
 6036W        W71263  37.117  19.551  12.866
 6037W        W71264  17.520   4.739  10.789
 6038W        W71265   7.815  29.243   4.089
 6039W        W71266  17.993  32.266  12.496
 6040W        W71267  38.799  32.708   5.054
 6041W        W71268   2.009  41.524  12.569
 6042W        W71269   1.534  36.964   0.187
 6043W        W71270  26.551  15.403  10.948
 6044W        W71271  41.850  37.099   4.008
 6045W        W71272   5.919   6.209   3.718
 6046W        W71273  17.074  22.062   2.991
 6047W        W71274  10.583  34.376   2.849
 6048W        W71275  33.954  20.797   1.841
 6049W        W71276  44.081  14.091   5.061
 6050W        W71277  29.451  33.863   5.189
 6051W        W71278  27.945  34.232   4.615
 6052W        W71279   3.037  11.573  12.053
 6053W        W71280  19.573  15.553  11.075
 6054W        W71281  40.866  15.201   2.434
 6055W        W71282  15.915  38.568   3.715
 6056W        W71283  18.850  41.825  14.927
 6057W        W71284   2.426  26.281  13.622
 6058W        W71285  14.748  13.882   4.934
 6059W        W71286   7.305   3.306  12.699
 6060W        W71287  31.167  40.024   1.917
 6061W        W71288  13.620  10.218  12.371
 6062W        W71289  34.650  36.155  11.050
 6063W        W71290  11.303  14.753  10.899
 6064W        W71291   1.068  33.280  13.134
 6065W        W71292  43.823  12.022  12.856
 6066W        W71293  42.313  28.916   1.688
 6067W        W71294   5.140  13.403  13.071
 6068W        W71295  35.101  12.763  13.210
 6069W        W71296  36.145  39.395  12.401
 6070W        W71297   1.773  20.306  14.351
 6071W        W71298  40.329  32.014  11.514
 6072W        W71299   5.763  12.722  14.886
 6073W        W71300  16.127   2.498   1.514
 6074W        W71301   5.436  10.219   0.253
 6075W        W71302  33.861  44.997   0.110
 6076W        W71303   1.381  18.764   0.857
 6077W        W71304   3.201  22.628   1.301
 6078W        W71305   9.127  42.780  12.615
 6079W        W71306  28.385  38.569  10.028
 6080W        W71307  24.910  22.610  12.967
 6081W        W71308  38.352  36.909  11.508
 6082W        W71309  21.294  20.049  12.439
 6083W        W71310   7.586  42.300  13.695
 6084W        W71311  34.964  34.621  11.529
 6085W        W71312   2.281  36.931  11.960
 6086W        W71313  29.432  16.069  14.664
 6087W        W71314  44.062  32.576   1.310
 6088W        W71315  31.585  18.035   0.019
 6089W        W71316   3.857  16.111   0.346
 6090W        W71317  35.797   1.321  11.225
 6091W        W71318  19.221  42.943   2.405
 6092W        W71319  40.260  43.408   0.870
 6093W        W71320   7.166  23.707  10.389
 6094W        W71321  11.939  17.088   1.813
 6095W        W71322  33.310  18.484   0.141
 6096W        W71323   1.204   9.048   1.723
 6097W        W71324   8.985  27.880   4.007
 6098W        W71325  33.170  19.476   0.037
 6099W        W71326  33.666   8.285  14.504
 6100W        W71327   2.477   1.966   4.300
 6101W        W71328  24.618  36.058   0.833
 6102W        W71329  27.205  16.109   1.820
 6103W        W71330  33.909  16.207   4.494
 6104W        W71331  13.169  33.384   2.746
 6105W        W71332  29.791  18.324   4.057
 6106W        W71333  14.208  30.451  10.481
 6107W        W71334   2.162  28.069  13.101
 6108W        W71335   6.946  20.466   0.309
 6109W        W71336   8.602  22.065  11.623
 6110W        W71337   1.902  41.485  13.351
 6111W        W71338  37.945  41.401   4.858
 6112W        W71339  41.940  37.991  14.520
 6113W        W71340  44.592  14.849  13.046
 6114W        W71341  33.791  30.238  10.546
 6115W        W71342  25.166  16.479   4.873
 6116W        W71343  10.958  27.230  11.113
 6117W        W71344  14.086   3.003  11.997
 6118W        W71345  11.157  19.413  10.549
 6119W        W71346  16.641   1.056  11.147
 6120W        W71347   4.205  28.159  12.828
 6121W        W71348  19.632  21.452   1.462
 6122W        W71349  34.117   0.413  12.074
 6123W        W71350  18.030  31.957  13.812
 6124W        W71351  17.268  22.571   0.875
 6125W        W71352  35.036  34.525  13.960
 6126W        W71353  18.707  42.380   4.536
 6127W        W71354  38.532   8.288   3.840
 6128W        W71355  16.400  17.231   4.188
 6129W        W71356   7.387  13.337  11.418
 6130W        W71357  26.282   4.534   4.098
 6131W        W71358  33.901   2.963   2.175
 6132W        W71359  16.552  44.433  12.899
 6133W        W71360  26.623   5.706   4.073
 6134W        W71361  21.018  20.886   1.181
 6135W        W71362   4.492   7.940   3.529
 6136W        W71363   9.221  42.879   5.051
 6137W        W71364  40.076  29.447   4.511
 6138W        W71365  11.646  30.536   0.246
 6139W        W71366  13.259  12.225  13.870
 6140W        W71367  12.278  29.920   2.635
 6141W        W71368  28.198  27.119   0.881
 6142W        W71369  39.019  40.834   0.404
 6143W        W71370  16.613  40.267   0.311
 6144W        W71371  12.541   8.457   3.780
 6145W        W71372  23.642  25.421   3.622
 6146W        W71373  21.970  34.537   2.258
 6147W        W71374  23.276   3.739  12.523
 6148W        W71375  30.447  29.460  12.031
 6149W        W71376  39.879  28.975   3.261
 6150W        W71377  39.540  40.931   0.584
 6151W        W71378  38.851  37.781  12.165
 6152W        W71379  19.908  35.405   0.987
 6153W        W71380  30.319   5.138   0.981
 6154W        W71381   1.935  31.915  13.032
 6155W        W71382  38.090  41.599  10.394
 6156W        W71383   5.255  14.186   1.008
 6157W        W71384   8.811  38.449  13.619
 6158W        W71385  14.306   0.014   3.574
 6159W        W71386  41.522  22.526  11.471
 6160W        W71387  42.285  16.544   4.075
 6161W        W71388  42.429  33.381  12.997
 6162W        W71389  28.703  16.149   2.748
 6163W        W71390  20.770  14.813  10.676
 6164W        W71391  16.526   3.872   2.245
 6165W        W71392   4.141  34.865   2.202
 6166W        W71393   5.647   7.889  12.162
 6167W        W71394  33.999   7.436  13.377
 6168W        W71395  16.833  14.927   3.755
 6169W        W71396  36.813  24.281   3.233
 6170W        W71397   6.446  15.675   2.244
 6171W        W71398  19.604  21.256  14.446
 6172W        W71399  27.031   1.920  10.443
 6173W        W71400   5.574   6.989  14.317
 6174W        W71401  10.845  17.251   2.695
 6175W        W71402  40.862  21.080  13.417
 6176W        W71403  31.538   3.797  10.975
 6177W        W71404  15.044  28.932   0.818
 6178W        W71405  39.020  32.589   3.766
 6179W        W71406  11.954   7.235  13.017
 6180W        W71407  20.140   8.161  13.494
 6181W        W71408   3.749   7.827   2.611
 6182W        W71409  41.833  35.871   4.180
 6183W        W71410  27.257   1.970   3.748
 6184W        W71411  21.073  38.545  13.739
 6185W        W71412  31.160  19.863  13.058
 6186W        W71413   8.359  32.982  11.788
 6187W        W71414  24.161   3.279   3.312
 6188W        W71415  43.472  12.740   0.926
 6189W        W71416  10.194   6.197  12.165
 6190W        W71417  43.876  17.808   2.696
 6191W        W71418   3.827  20.777   3.589
 6192W        W71419  32.863  22.491  12.545
 6193W        W71420  38.119  22.212  13.029
 6194W        W71421  18.804   3.169  11.957
 6195W        W71422  18.170  20.271  13.800
 6196W        W71423  26.537  11.593  11.532
 6197W        W71424  16.216   1.139   4.815
 6198W        W71425  28.397  24.273  14.229
 6199W        W71426  32.604  43.015  11.759
 6200W        W71427   5.234   9.531  11.043
 6201W        W71428  11.420  20.930  11.187
 6202W        W71429  43.948  15.709  12.703
 6203W        W71430   1.482   6.886   4.094
 6204W        W71431  25.941   4.178  10.715
 6205W        W71432  40.944   3.249  11.520
 6206W        W71433  27.254  18.673   1.838
 6207W        W71434   0.982  41.625  14.874
 6208W        W71435   0.938   4.000  11.905
 6209W        W71436  31.477  11.901   0.987
 6210W        W71437  42.420  11.116  12.988
 6211W        W71438  10.758  29.155  11.057
 6212W        W71439  39.057  16.453   0.030
 6213W        W71440   0.272  16.065  11.499
 6214W        W71441  10.426   6.358   2.244
 6215W        W71442  14.528   9.392   4.172
 6216W        W71443  19.057   8.727  14.000
 6217W        W71444  10.136  30.267  13.341
 6218W        W71445  26.256   5.807   1.457
 6219W        W71446  39.606  35.302   3.215
 6220W        W71447  24.171  22.820   3.443
 6221W        W71448  29.407  35.930   4.142
 6222W        W71449  18.548   2.705   1.427
 6223W        W71450  41.467  19.522   4.733
 6224W        W71451  18.126  31.660  10.735
 6225W        W71452   1.680  27.628   1.787
 6226W        W71453   0.199   3.302   1.832
 6227W        W71454   1.960  18.799  14.268
 6228W        W71455  42.908  37.309  12.558
 6229W        W71456  26.453   9.732   1.104
 6230W        W71457  13.614  43.082   0.483
 6231W        W71458  24.063  13.032  14.491
 6232W        W71459  16.243  36.755  12.644
 6233W        W71460  24.434  29.363   3.356
 6234W        W71461  40.831  40.810  14.418
 6235W        W71462  13.580  28.582   1.364
 6236W        W71463   2.369  26.553   1.814
 6237W        W71464  44.592  15.222  10.255
 6238W        W71465   9.160  11.408   0.807
 6239W        W71466  29.920  29.252   1.757
 6240W        W71467  42.367   0.228  12.521
 6241W        W71468  18.654   9.436   2.213
 6242W        W71469  28.523  31.424  13.319
 6243W        W71470  16.826  22.550  11.498
 6244W        W71471  24.251   7.492   3.216
 6245W        W71472  19.076  12.300  14.987
 6246W        W71473  27.753  32.160   0.713
 6247W        W71474  16.238   9.656   4.513
 6248W        W71475   7.784  19.309   4.237
 6249W        W71476  36.843   4.271  14.344
 6250W        W71477  13.449   1.015  12.059
 6251W        W71478   5.629  16.555  13.431
 6252W        W71479  25.230   6.739   1.179
 6253W        W71480  36.966  44.545   3.583
 6254W        W71481  31.088  20.723   4.732
 6255W        W71482   6.321  29.392   2.855
 6256W        W71483  43.374   1.632   3.580
 6257W        W71484  28.719  18.552  13.916
 6258W        W71485  22.589   1.221   0.829
 6259W        W71486  10.644  30.949   4.113
 6260W        W71487  14.348  21.021  14.303
 6261W        W71488  40.334  16.723  12.641
 6262W        W71489  27.980  30.436   3.876
 6263W        W71490  44.253  15.175  13.345
 6264W        W71491  34.946  24.700   4.451
 6265W        W71492  26.269  36.453  12.036
 6266W        W71493   2.211   8.872   0.984
 6267W        W71494  35.830  10.345  12.944
 6268W        W71495   1.483  13.752  14.808
 6269W        W71496  13.567  12.914  14.541
 6270W        W71497   0.804  15.384  14.430
 6271W        W71498  16.624   4.811  12.742
 6272W        W71499  38.459  29.888   3.001
 6273W        W71500  42.867   6.154   0.312
 6274W        W71501   2.946  37.692  11.573
 6275W        W71502   1.870   6.912  14.040
 6276W        W71503  43.399  40.331  14.762
 6277W        W71504   2.872  12.603   1.211
 6278W        W71505  27.252  43.119  12.066
 6279W        W71506  17.410  31.178  11.614
 6280W        W71507  41.001   4.925   0.981
 6281W        W71508  28.992  20.751  13.926
 6282W        W71509  35.627  19.418   1.110
 6283W        W71510  18.357  16.717   2.481
 6284W        W71511  14.812  26.688  10.659
 6285W        W71512  24.164  26.120  14.811
 6286W        W71513  18.281  13.644  11.184
 6287W        W71514  16.247  40.840  10.727
 6288W        W71515  18.777   7.492  12.383
 6289W        W71516  23.921  39.606  10.211
 6290W        W71517  43.746   3.446  12.052
 6291W        W71518  15.756   6.538   2.735
 6292W        W71519  10.149  44.326   4.605
 6293W        W71520  31.552  39.280   4.564
 6294W        W71521  23.275   7.009  14.308
 6295W        W71522  13.923  27.456   3.101
 6296W        W71523  26.647  42.111  10.708
 6297W        W71524  11.365   1.792   1.942
 6298W        W71525  41.881  24.611   4.797
 6299W        W71526   1.096  31.924   4.253
 6300W        W71527   1.392  13.871  12.082
 6301W        W71528  43.272  30.013  12.230
 6302W        W71529   2.057  27.618  13.428
 6303W        W71530   7.552  31.119   1.446
 6304W        W71531  42.728   6.364   1.178
 6305W        W71532  42.321  13.760   3.796
 6306W        W71533  44.658   9.133  11.116
 6307W        W71534  19.140   8.646  11.533
 6308W        W71535  12.567   8.804   0.925
 6309W        W71536   7.575   2.246   4.023
 6310W        W71537   7.620  18.693  14.013
 6311W        W71538   8.269  10.189   4.671
 6312W        W71539  41.044  38.128   0.990
 6313W        W71540  16.888  18.555   0.293
 6314W        W71541  20.312   5.600  12.071
 6315W        W71542  41.690  25.194   3.163
 6316W        W71543  41.882   6.373  13.057
 6317W        W71544  37.860   7.015  11.686
 6318W        W71545  24.911  28.684   1.659
 6319W        W71546  21.891  37.383  13.853
 6320W        W71547  21.162  20.188   4.854
 6321W        W71548   1.850  40.928   5.077
 6322W        W71549   9.589  20.563  12.037
 6323W        W71550  36.355  31.571  11.027
 6324W        W71551  30.185  29.622   4.306
 6325W        W71552   1.539  10.654  10.511
 6326W        W71553  16.929  10.708   3.119
 6327W        W71554  36.614  30.133  14.971
 6328W        W71555  37.583  41.915  12.228
 6329W        W71556  39.159   1.359   4.132
 6330W        W71557  24.790  11.836  14.348
 6331W        W71558  43.833   5.404  13.983
 6332W        W71559   2.232   7.195   0.297
 6333W        W71560  24.113  11.379   4.240
 6334W        W71561  26.900  11.164   0.259
 6335W        W71562  31.456  34.776   1.466
 6336W        W71563  13.904   9.326  12.495
 6337W        W71564   0.658  16.862   2.856
 6338W        W71565  18.980  15.715   2.867
 6339W        W71566  10.326  16.259   4.417
 6340W        W71567   9.797  28.918   2.738
 6341W        W71568  10.856  11.175  11.147
 6342W        W71569  39.618  23.671   0.628
 6343W        W71570  34.578  11.843  14.815
 6344W        W71571  44.717  33.530   4.049
 6345W        W71572  25.191  34.163  12.367
 6346W        W71573  34.631  37.503   1.751
 6347W        W71574  24.780  41.619   2.653
 6348W        W71575  30.044  19.338   3.275
 6349W        W71576  37.901  25.204  14.257
 6350W        W71577  25.377  23.977  13.062
 6351W        W71578  15.358  15.380   4.176
 6352W        W71579  38.679   8.700   3.586
 6353W        W71580  33.506  21.856  11.952
 6354W        W71581  29.507  27.401   0.549
 6355W        W71582  35.058  21.226  14.691
 6356W        W71583  28.076  18.022  13.550
 6357W        W71584  24.203   0.586  14.232
 6358W        W71585   7.591  17.787   1.262
 6359W        W71586  41.809  11.931   3.296
 6360W        W71587   9.718  24.259   3.599
 6361W        W71588  12.993   2.871  14.350
 6362W        W71589  29.619  40.422  13.463
 6363W        W71590   7.804  32.149   1.422
 6364W        W71591  36.258  30.536  11.598
 6365W        W71592  42.982  40.444  12.812
 6366W        W71593  15.230  25.035   3.374
 6367W        W71594  40.536   0.081   4.149
 6368W        W71595  26.572  35.939   0.434
 6369W        W71596  16.224  22.214  12.099
 6370W        W71597   2.055  19.271   2.609
 6371W        W71598  26.791  28.048  13.360
 6372W        W71599  30.445   3.766   0.881
 6373W        W71600  14.303  42.758  11.842
 6374W        W71601   3.413  22.848   4.716
 6375W        W71602  33.791  10.971   0.790
 6376W        W71603  21.597  18.649   3.803
 6377W        W71604  20.480  16.570  11.113
 6378W        W71605   8.310  28.469   4.332
 6379W        W71606  28.433   4.065  13.909
 6380W        W71607  11.109  35.456   1.413
 6381W        W71608   1.718   0.912   0.224
 6382W        W71609  28.746  29.107   1.930
 6383W        W71610  26.011   9.955  12.108
 6384W        W71611  37.518  41.853   0.811
 6385W        W71612  20.009  36.502  11.241
 6386W        W71613  38.664  38.835   4.833
 6387W        W71614  12.292  34.423   0.798
 6388W        W71615  30.806   1.249  12.020
 6389W        W71616   9.736  20.740  11.540
 6390W        W71617   0.661   9.674  12.346
 6391W        W71618  36.025  37.301   1.362
 6392W        W71619  12.428  27.624   3.242
 6393W        W71620  23.657   1.594   0.262
 6394W        W71621  41.798  36.483  12.531
 6395W        W71622  43.340  28.930   1.693
 6396W        W71623  21.978  11.616   1.681
 6397W        W71624  10.721  35.340  11.680
 6398W        W71625  44.981  18.983  12.936
 6399W        W71626  31.217   4.653  12.123
 6400W        W71627  15.179  25.055  13.279
 6401W        W71628  11.412   9.352   0.054
 6402W        W71629   7.358   5.921  14.006
 6403W        W71630   7.325  32.193  14.689
 6404W        W71631   9.370  29.673   4.378
 6405W        W71632  21.462  37.338   1.901
 6406W        W71633  11.200   0.300   0.022
 6407W        W71634  10.723  30.642   0.384
 6408W        W71635  29.931  33.603   0.764
 6409W        W71636  29.007   7.905   1.855
 6410W        W71637  24.956  41.045   0.428
 6411W        W71638  22.155  15.672   3.862
 6412W        W71639  38.611  18.202   0.228
 6413W        W71640  42.848  33.597  10.656
 6414W        W71641  12.640   4.383   2.224
 6415W        W71642   1.879  20.162  10.448
 6416W        W71643   1.074  16.362  10.823
 6417W        W71644  39.924  16.573   3.748
 6418W        W71645  41.367  15.619  14.251
 6419W        W71646   9.668   8.564   3.171
 6420W        W71647  21.120  34.539   1.508
 6421W        W71648  24.461  39.815  13.348
 6422W        W71649  16.964   8.362  10.750
 6423W        W71650  22.481  10.477   4.712
 6424W        W71651   4.433  26.715  12.419
 6425W        W71652   4.322  21.104  14.760
 6426W        W71653  11.878  17.195   2.698
 6427W        W71654  36.613  15.170  11.195
 6428W        W71655  41.403   0.476  14.827
 6429W        W71656  28.621   9.177  12.838
 6430W        W71657  19.225  33.566   1.049
 6431W        W71658   2.937  16.213   1.675
 6432W        W71659  14.966  28.264   4.677
 6433W        W71660   2.678  39.093   3.210
 6434W        W71661  44.513  21.969  14.740
 6435W        W71662  30.807   3.249  12.005
 6436W        W71663  31.575  21.750  13.196
 6437W        W71664  28.813   6.339  11.669
 6438W        W71665  40.821  24.702  14.506
 6439W        W71666   8.367   2.582   3.765
 6440W        W71667  10.780  16.504   4.500
 6441W        W71668  35.925  34.452  14.497
 6442W        W71669  37.111   8.251   1.049
 6443W        W71670  17.751  16.476  10.594
 6444W        W71671   6.862  39.813   2.407
 6445W        W71672  32.188  32.511  12.581
 6446W        W71673   5.815  32.744   4.261
 6447W        W71674  35.824   5.352   0.217
 6448W        W71675  25.173   2.669   3.834
 6449W        W71676  36.076   6.445   4.193
 6450W        W71677  31.050  34.051  13.269
 6451W        W71678  11.693  17.136  11.554
 6452W        W71679  26.223   2.262  10.740
 6453W        W71680  18.291  29.701   1.919
 6454W        W71681  26.508  11.432   1.739
 6455W        W71682  19.225   8.779   0.155
 6456W        W71683  33.495  27.727   3.669
 6457W        W71684  37.597  36.983  13.862
 6458W        W71685  37.888  23.984  11.559
 6459W        W71686  43.014  34.072   4.232
 6460W        W71687  16.279   1.308  11.937
 6461W        W71688  19.026  17.511   3.418
 6462W        W71689  30.490  41.580   4.252
 6463W        W71690  20.426  28.007   4.247
 6464W        W71691  30.515   9.162   3.216
 6465W        W71692  30.152  12.236  13.523
 6466W        W71693  34.268   0.004   3.895
 6467W        W71694  37.661  15.071   2.212
 6468W        W71695  15.292  23.220  13.472
 6469W        W71696  27.989  33.992   4.152
 6470W        W71697  24.936  30.006  12.540
 6471W        W71698  26.668  24.667  11.930
 6472W        W71699  23.269  31.646  10.740
 6473W        W71700  23.224  15.477  12.848
 6474W        W71701   7.618  23.175   4.587
 6475W        W71702  43.753  40.137  10.783
 6476W        W71703   2.740  29.374   3.675
 6477W        W71704   0.032  35.399   2.170
 6478W        W71705   5.886   0.765  14.678
 6479W        W71706   4.386  37.521  13.883
 6480W        W71707  25.250  33.230   0.370
 6481W        W71708  11.369  31.439  13.161
 6482W        W71709  36.541  12.471  11.615
 6483W        W71710   7.023  21.736  10.542
 6484W        W71711  24.477  16.011   1.471
 6485W        W71712  11.651  22.255   5.158
 6486W        W71713  23.295  18.624  11.576
 6487W        W71714  22.597  18.693   1.756
 6488W        W71715  25.792  37.485   0.339
 6489W        W71716  39.753   2.921  13.342
 6490W        W71717  39.075   4.729   4.634
 6491W        W71718   4.522  30.885  13.861
 6492W        W71719   3.300  33.296  11.343
 6493W        W71720  24.162  15.722  14.867
 6494W        W71721   2.905  40.529  11.947
 6495W        W71722  33.812   3.148  13.844
 6496W        W71723   0.861  39.712   3.677
 6497W        W71724  33.241  29.933  14.988
 6498W        W71725  40.784  41.539  11.595
 6499W        W71726  11.265  10.262  13.763
 6500W        W71727  44.812  34.509   0.838
 6501W        W71728   2.011  23.449   0.864
 6502W        W71729  26.471  16.704   2.822
 6503W        W71730  18.081  20.057   2.364
 6504W        W71731   5.385  44.047  12.638
 6505W        W71732  18.844   1.931  11.763
 6506W        W71733  43.311  13.887  10.754
 6507W        W71734  36.494  22.134   3.148
 6508W        W71735   1.654  38.511   3.444
 6509W        W71736   6.833  42.303   3.860
 6510W        W71737   1.829  30.671  12.647
 6511W        W71738   6.212  42.600   1.374
 6512W        W71739  16.688  17.323  10.621
 6513W        W71740  32.666   6.173   4.114
 6514W        W71741  27.437  29.341  10.602
 6515W        W71742   3.270  26.919   3.081
 6516W        W71743  43.185   3.140   5.177
 6517W        W71744  41.821  36.779  12.107
 6518W        W71745  19.813  22.026   2.676
 6519W        W71746  25.482  13.865   2.996
 6520W        W71747  24.709   6.437  13.618
 6521W        W71748  30.674   5.826   4.861
 6522W        W71749  31.847   1.699   2.737
 6523W        W71750  13.748  13.986   0.206
 6524W        W71751  19.988  42.815  13.074
 6525W        W71752  40.802  42.300   1.305
 6526W        W71753  31.688  43.974  10.560
 6527W        W71754  33.862  21.231   4.587
 6528W        W71755  44.790  30.324  10.691
 6529W        W71756  22.173  36.850   3.267
 6530W        W71757  20.340   1.862  10.173
 6531W        W71758  41.014  36.037   2.433
 6532W        W71759   6.192  37.755   4.653
 6533W        W71760   6.769  30.373   3.791
 6534W        W71761  37.979  42.924   0.276
 6535W        W71762  32.048  30.221  12.625
 6536W        W71763  13.543  25.496  13.794
 6537W        W71764  16.211  37.298   3.764
 6538W        W71765  41.348  35.447   0.743
 6539W        W71766  30.431  12.432   9.646
 6540W        W71767  16.109  24.720  12.395
 6541W        W71768  15.663  20.299  13.423
 6542W        W71769  18.090  17.147   2.372
 6543W        W71770  14.088  19.071  13.378
 6544W        W71771  11.312  31.913   0.444
 6545W        W71772  17.196  27.016   3.889
 6546W        W71773   4.836  10.177   2.010
 6547W        W71774  38.939  27.194   2.429
 6548W        W71775  39.896  32.484  12.903
 6549W        W71776  42.314  10.297   0.027
 6550W        W71777   7.055  18.446  12.153
 6551W        W71778  32.489  36.411  13.568
 6552W        W71779  25.428  41.565   1.827
 6553W        W71780  19.399  23.631   4.589
 6554W        W71781   9.941  30.023   1.868
 6555W        W71782  21.541  14.772  13.478
 6556W        W71783  13.121  34.667   1.332
 6557W        W71784  13.315  16.200  11.711
 6558W        W71785  23.966  15.305   2.329
 6559W        W71786  18.648  13.487   0.191
 6560W        W71787  32.539   3.275   2.438
 6561W        W71788  17.733   8.748  10.651
 6562W        W71789   0.350   9.720  11.593
 6563W        W71790  21.645  17.689   2.862
 6564W        W71791  22.931  35.409  11.386
 6565W        W71792  30.837  14.195  12.602
 6566W        W71793   2.526  24.271  13.254
 6567W        W71794  33.176   8.213  14.404
 6568W        W71795   7.116   4.730  13.371
 6569W        W71796  28.366  20.121  11.655
 6570W        W71797  25.017  32.071  12.007
 6571W        W71798  41.242  42.824  12.525
 6572W        W71799  28.152   9.907  14.407
 6573W        W71800  29.671  10.338   4.021
 6574W        W71801  17.007   1.438  11.182
 6575W        W71802  10.641   4.537   0.418
 6576W        W71803  29.186  13.349  13.882
 6577W        W71804  36.344   2.919  10.711
 6578W        W71805  14.764  10.585  12.041
 6579W        W71806  40.381  37.095  13.089
 6580W        W71807   6.344  39.575  12.757
 6581W        W71808  37.046  30.184   0.263
 6582W        W71809  42.080  30.919   2.682
 6583W        W71810   2.246  20.994  11.780
 6584W        W71811  14.681  39.481  11.028
 6585W        W71812  44.621  14.289   9.867
 6586W        W71813  22.702  11.908  14.679
 6587W        W71814  12.464  40.643   4.297
 6588W        W71815   8.227  40.549  12.056
 6589W        W71816  19.197   2.456  14.732
 6590W        W71817  18.251  36.900  11.187
 6591W        W71818  13.749   7.493  13.517
 6592W        W71819  31.417  13.566  13.492
 6593W        W71820  39.839  19.969  13.865
 6594W        W71821   5.988  22.038  11.488
 6595W        W71822  15.793  14.249  14.140
 6596W        W71823  38.956  26.803  12.891
 6597W        W71824  24.283   2.438   1.176
 6598W        W71825  13.056  14.184  14.670
 6599W        W71826  14.357  11.655  12.614
 6600W        W71827  14.826  10.865   1.739
 6601W        W71828   8.653   3.242   2.689
 6602W        W71829  27.519  29.414  11.485
 6603W        W71830  24.173  34.329  12.476
 6604W        W71831   3.448  41.761   0.346
 6605W        W71832  38.431  20.152   1.842
 6606W        W71833  32.479   0.330  10.738
 6607W        W71834  11.097  23.139  11.620
 6608W        W71835   4.016   7.287  12.572
 6609W        W71836   4.995  25.939  11.063
 6610W        W71837  31.028   9.908   3.303
 6611W        W71838  35.324  20.588  11.996
 6612W        W71839  20.133  34.011   0.734
 6613W        W71840   0.444  23.623  12.993
 6614W        W71841  40.002  28.975  14.032
 6615W        W71842   0.021   5.887  11.474
 6616W        W71843  23.508  36.787  12.433
 6617W        W71844  10.579  18.800   4.970
 6618W        W71845   3.382  33.684   1.117
 6619W        W71846   9.819  24.936  14.900
 6620W        W71847  35.886  20.162  13.635
 6621W        W71848  40.330   0.265   1.785
 6622W        W71849  12.337  41.785  14.111
 6623W        W71850  31.041   4.148   3.693
 6624W        W71851  33.637   4.110  11.205
 6625W        W71852  41.211  10.562  14.380
 6626W        W71853  15.309  21.794   1.176
 6627W        W71854   7.449  13.642  12.555
 6628W        W71855   7.044  16.668   0.581
 6629W        W71856   4.072  23.159  12.636
 6630W        W71857  31.452  12.854   1.868
 6631W        W71858  22.560  25.945  11.672
 6632W        W71859  23.656  41.472   1.618
 6633W        W71860  44.416  20.748   2.683
 6634W        W71861  41.545  23.630  11.917
 6635W        W71862   2.937  12.246  12.705
 6636W        W71863  28.895  31.738  13.525
 6637W        W71864  36.216  28.000  10.631
 6638W        W71865  27.055  29.594   1.897
 6639W        W71866  24.876  41.252  13.363
 6640W        W71867   2.173  37.062  13.247
 6641W        W71868  43.544   8.693  13.071
 6642W        W71869  39.685  32.368  12.231
 6643W        W71870   5.740  10.778  13.196
 6644W        W71871  20.658  19.401   3.109
 6645W        W71872  22.583  21.192   4.500
 6646W        W71873   6.879  44.839   4.479
 6647W        W71874  20.991  19.270   4.896
 6648W        W71875  18.480  36.183   1.184
 6649W        W71876  43.894  22.562  14.439
 6650W        W71877  32.192  20.074  10.688
 6651W        W71878   5.207  24.143   0.361
 6652W        W71879  16.713  37.302   2.142
 6653W        W71880  17.520   3.226  12.436
 6654W        W71881  39.764  39.072   1.045
 6655W        W71882  30.416  38.872  14.615
 6656W        W71883  24.302  21.956   1.424
 6657W        W71884  31.588   0.533  14.344
 6658W        W71885  10.187   6.930  14.784
 6659W        W71886  40.042  30.945   0.317
 6660W        W71887  19.972  21.759   2.247
 6661W        W71888  42.593  14.455   4.200
 6662W        W71889  31.406   9.061   4.533
 6663W        W71890   0.359  32.426   4.162
 6664W        W71891   5.684   0.494  13.495
 6665W        W71892  39.030  23.249  11.308
 6666W        W71893   4.767  31.745  12.847
 6667W        W71894  30.040  26.005  13.882
 6668W        W71895  16.365  17.820   0.986
 6669W        W71896  17.640  34.489   0.031
 6670W        W71897  20.460  37.391  13.495
 6671W        W71898  27.249  14.385   3.745
 6672W        W71899  29.209   8.111  14.984
 6673W        W71900   3.515  26.411  12.600
 6674W        W71901  43.845  34.084   0.724
 6675W        W71902  27.495  25.206  11.152
 6676W        W71903   1.461  43.298   0.946
 6677W        W71904   2.711  18.745  12.552
 6678W        W71905  16.170  39.909   1.295
 6679W        W71906  17.652  41.027  14.932
 6680W        W71907  10.559  11.687  14.756
 6681W        W71908  25.992  44.950  14.753
 6682W        W71909  28.044  11.981  14.509
 6683W        W71910   8.803   6.597   3.678
 6684W        W71911   9.710  43.015   2.272
 6685W        W71912  15.165   7.281  13.360
 6686W        W71913  15.852   7.772   3.313
 6687W        W71914  32.108  40.012   3.098
 6688W        W71915  25.702   7.384  13.474
 6689W        W71916  31.455   6.591   1.349
 6690W        W71917  25.136  21.998   0.586
 6691W        W71918  42.959  36.377  14.716
 6692W        W71919  27.461  44.342   3.668
 6693W        W71920  44.270  44.937   3.203
 6694W        W71921  16.112  13.179  10.621
 6695W        W71922  41.307  23.609  12.381
 6696W        W71923  35.450  10.761  14.562
 6697W        W71924  22.156  42.927  11.625
 6698W        W71925  25.195   7.255   1.340
 6699W        W71926   9.173  40.185  11.067
 6700W        W71927  20.261  17.854   1.125
 6701W        W71928  30.575  28.396   5.067
 6702W        W71929  20.686  11.691  12.437
 6703W        W71930  27.530  27.232   0.386
 6704W        W71931  26.473  11.804   3.850
 6705W        W71932   3.574   2.943  10.677
 6706W        W71933   0.124  18.258  14.195
 6707W        W71934   2.219  31.216   4.399
 6708W        W71935   3.698  34.651  13.549
 6709W        W71936  22.959  19.504  10.655
 6710W        W71937   2.798  31.210   2.372
 6711W        W71938  22.698   6.820   1.229
 6712W        W71939   8.623   1.651  11.472
 6713W        W71940  43.656  11.026  11.912
 6714W        W71941  28.501  33.560  12.380
 6715W        W71942  23.841  30.571   1.750
 6716W        W71943  10.892  26.477   0.336
 6717W        W71944  34.685  19.593   3.045
 6718W        W71945   5.264  35.415  11.523
 6719W        W71946  44.315   9.487  12.356
 6720W        W71947  31.097   3.158  14.515
 6721W        W71948   7.809  18.800   3.547
 6722W        W71949  29.177  33.509   0.454
 6723W        W71950   4.881  13.293  13.965
 6724W        W71951   1.767  20.002   0.865
 6725W        W71952  17.604  13.263  12.671
 6726W        W71953  39.297  40.137  13.817
 6727W        W71954  27.899  35.240  14.446
 6728W        W71955   4.747  29.195   0.861
 6729W        W71956  36.658  32.520   1.925
 6730W        W71957  37.846  33.551   2.754
 6731W        W71958   5.758  21.583  14.287
 6732W        W71959  23.180  12.547   0.685
 6733W        W71960  30.330  35.049   5.084
 6734W        W71961  38.717  25.737   1.262
 6735W        W71962  20.559  25.427  14.926
 6736W        W71963  27.759  28.971  14.512
 6737W        W71964  38.552  12.438  10.754
 6738W        W71965  40.440  21.170   2.727
 6739W        W71966  35.056  10.829   1.726
 6740W        W71967   4.837  10.321   2.502
 6741W        W71968  40.590  34.318  12.516
 6742W        W71969  29.910   3.693   3.579
 6743W        W71970  29.789  42.993  12.389
 6744W        W71971  41.659  26.632   0.472
 6745W        W71972  33.555   8.910   0.934
 6746W        W71973  41.957  18.695   3.643
 6747W        W71974  28.590  32.405   1.834
 6748W        W71975  30.155  41.366  14.318
 6749W        W71976  29.038  31.425  13.163
 6750W        W71977  33.614  39.501  13.391
 6751W        W71978   5.015  23.525   2.806
 6752W        W71979   4.884  29.745   1.893
 6753W        W71980  44.701   6.353   2.410
 6754W        W71981   6.834  27.172   3.700
 6755W        W71982  40.498   7.255  14.345
 6756W        W71983  15.192  15.645   0.986
 6757W        W71984  39.351  22.551   4.337
 6758W        W71985  29.049  41.076   2.297
 6759W        W71986  18.722  41.896   3.143
 6760W        W71987  14.388   3.483   1.969
 6761W        W71988   7.196  30.627  14.384
 6762W        W71989  40.847  37.794   0.032
 6763W        W71990  36.450  31.678   1.691
 6764W        W71991  26.615   7.382  10.620
 6765W        W71992  21.117   6.666  14.301
 6766W        W71993  40.735  26.471   4.120
 6767W        W71994  24.585  17.008   2.282
 6768W        W71995  18.574  10.133   3.308
 6769W        W71996  35.963  38.685   2.804
 6770W        W71997  14.732  20.260   2.423
 6771W        W71998  36.891   5.872   5.344
 6772W        W71999  15.359  36.919  11.155
 6773W        W72000  39.390  38.584   0.419
 6774W        W72001  19.125  31.050  12.149
 6775W        W72002  36.096   6.827  13.814
 6776W        W72003  42.597  43.246  13.479
 6777W        W72004  10.403  16.954  10.713
 6778W        W72005   6.723  33.117  10.653
 6779W        W72006  17.740  27.343  11.069
 6780W        W72007  21.258  13.394  11.672
 6781W        W72008  31.942  35.122  14.383
 6782W        W72009  39.444  44.825   2.349
 6783W        W72010   5.162  14.734   9.894
 6784W        W72011  37.476  25.814  14.979
 6785W        W72012  28.152   0.365   1.343
 6786W        W72013   7.239  30.079  12.569
 6787W        W72014  26.508  27.100   1.651
 6788W        W72015  31.583  31.994  14.451
 6789W        W72016  31.880  28.244   2.832
 6790W        W72017  22.464   4.217   2.823
 6791W        W72018  13.457  13.124   0.375
 6792W        W72019   0.473  43.760  12.488
 6793W        W72020   6.618  37.175   1.891
 6794W        W72021  37.224  44.794  11.102
 6795W        W72022  25.454  27.922   0.742
 6796W        W72023   8.961  41.559  14.976
 6797W        W72024  15.860  44.489   1.463
 6798W        W72025  40.673   4.678  11.139
 6799W        W72026  14.692   4.157   1.427
 6800W        W72027  41.902   9.634  13.422
 6801W        W72028  13.074   9.768  12.636
 6802W        W72029   1.429  25.690   2.838
 6803W        W72030  42.956   2.750  13.525
 6804W        W72031  26.069  31.522  14.114
 6805W        W72032   4.152  27.824  11.117
 6806W        W72033  27.923  12.346   3.250
 6807W        W72034  12.811  35.972  11.573
 6808W        W72035   9.678  32.535  11.876
 6809W        W72036  21.482   8.773   2.581
 6810W        W72037  24.311  25.671   4.575
 6811W        W72038   0.694  13.674   4.081
 6812W        W72039  35.478  39.982   3.890
 6813W        W72040   9.280   6.694   0.735
 6814W        W72041   9.876  43.289   1.878
 6815W        W72042  32.628   1.120   4.670
 6816W        W72043   3.376  34.823  12.735
 6817W        W72044  21.173  38.439  14.220
 6818W        W72045   3.634  21.544   0.369
 6819W        W72046  23.664  22.683  10.630
 6820W        W72047  41.143  29.220  11.249
 6821W        W72048  28.806  28.008   5.115
 6822W        W72049  10.381   6.352   3.601
 6823W        W72050  12.190  43.675  14.439
 6824W        W72051  31.047  27.552   1.745
 6825W        W72052  33.590  25.979  14.943
 6826W        W72053   8.364  31.990   2.191
 6827W        W72054  11.215  23.199   3.160
 6828W        W72055  20.079  20.232   0.263
 6829W        W72056  37.387  33.864   0.936
 6830W        W72057  28.816   0.662  11.720
 6831W        W72058  11.146  44.963  14.502
 6832W        W72059  38.376  42.793   1.971
 6833W        W72060  10.621  14.881   0.908
 6834W        W72061  43.982  18.202   9.865
 6835W        W72062  40.447  21.077   4.553
 6836W        W72063  14.272  25.454  14.876
 6837W        W72064  35.209  16.660   1.332
 6838W        W72065  20.060  36.774   2.669
 6839W        W72066  12.374  30.652   0.064
 6840W        W72067  25.101  43.364   4.052
 6841W        W72068  30.188  29.190   3.979
 6842W        W72069  41.536  14.780   2.167
 6843W        W72070  38.919  16.213   3.705
 6844W        W72071  34.499  19.509   0.064
 6845W        W72072  29.073   2.923   4.097
 6846W        W72073   9.496  42.982   2.732
 6847W        W72074  10.769   9.156  14.272
 6848W        W72075   8.276  19.631   4.310
 6849W        W72076   6.813  10.596   1.228
 6850W        W72077  33.227   1.700   3.677
 6851W        W72078  24.160   6.912  11.125
 6852W        W72079  14.111  43.871   4.438
 6853W        W72080  42.922  27.554  12.502
 6854W        W72081  14.127  19.277  11.336
 6855W        W72082  32.595  39.920   0.233
 6856W        W72083  39.802  35.387  13.875
 6857W        W72084   5.873  20.176   2.766
 6858W        W72085  18.050  26.825   4.730
 6859W        W72086  10.638   1.639   3.257
 6860W        W72087  17.236  32.542   0.992
 6861W        W72088  24.190  39.051   1.798
 6862W        W72089   1.558   8.905  11.354
 6863W        W72090  44.441  10.819   3.688
 6864W        W72091   0.540  42.898  14.735
 6865W        W72092  17.268  11.917  10.211
 6866W        W72093  31.057  33.201   0.683
 6867W        W72094  16.154   6.232   4.516
 6868W        W72095  39.791  39.113   0.006
 6869W        W72096  23.286   9.392  12.843
 6870W        W72097   3.272   3.934   2.671
 6871W        W72098  25.369  34.028   4.262
 6872W        W72099  21.227  36.108  12.563
 6873W        W72100  25.666  44.394  12.671
 6874W        W72101  40.278   9.084  13.923
 6875W        W72102   6.719  30.945   1.718
 6876W        W72103  12.315   1.491   3.590
 6877W        W72104  40.576  37.829  12.023
 6878W        W72105   1.354  33.696   4.831
 6879W        W72106   8.353  14.234   2.171
 6880W        W72107  15.482  26.985  13.517
 6881W        W72108  24.365  41.575  14.760
 6882W        W72109  12.282  14.101  10.660
 6883W        W72110   7.280  36.938   3.742
 6884W        W72111  30.159  22.591   2.651
 6885W        W72112  36.811  43.870   2.184
 6886W        W72113  23.697  27.694   3.906
 6887W        W72114  12.126  10.245  12.529
 6888W        W72115   1.610  10.593  14.775
 6889W        W72116  30.958  36.369  12.068
 6890W        W72117   0.967  18.539  11.258
 6891W        W72118   1.405  26.502   2.854
 6892W        W72119  34.173  39.325  10.994
 6893W        W72120  42.388   7.182   1.229
 6894W        W72121   0.494  31.101   4.375
 6895W        W72122  17.265  31.177   4.243
 6896W        W72123  39.275   1.933  14.332
 6897W        W72124  15.051  14.243   4.645
 6898W        W72125  35.464   3.366  13.935
 6899W        W72126  22.143  28.986   1.181
 6900W        W72127  41.302  39.844   3.195
 6901W        W72128  44.856  16.136  11.852
 6902W        W72129  21.094  18.179  14.384
 6903W        W72130  13.564  12.175   4.637
 6904W        W72131  26.721  27.092   4.031
 6905W        W72132  21.709  25.634   4.057
 6906W        W72133  12.488  36.031   1.757
 6907W        W72134  27.424  13.623  14.419
 6908W        W72135  20.781  35.791   2.727
 6909W        W72136  20.946  26.725   3.250
 6910W        W72137   7.841   4.721  13.828
 6911W        W72138  26.452   3.287   0.403
 6912W        W72139  43.468  18.060   5.353
 6913W        W72140  12.790  34.955   5.228
 6914W        W72141  30.624  40.560   4.594
 6915W        W72142  44.317  18.080  10.698
 6916W        W72143  22.989  33.487   2.941
 6917W        W72144  33.404  27.707  12.039
 6918W        W72145  22.772  26.973   4.366
 6919W        W72146  24.566  14.800   3.117
 6920W        W72147  44.562   7.004  14.368
 6921W        W72148  28.638  41.774  11.108
 6922W        W72149  12.203  16.852   1.101
 6923W        W72150  24.962  15.100  11.632
 6924W        W72151   4.197   1.947   1.329
 6925W        W72152  14.147   3.673  13.411
 6926W        W72153  31.863   4.426   1.350
 6927W        W72154  20.493  21.400  14.042
 6928W        W72155  19.155  11.734   2.159
 6929W        W72156  19.306  25.910   2.312
 6930W        W72157  16.533  40.985  14.049
 6931W        W72158   7.365  12.035  13.703
 6932W        W72159  22.167   8.461  14.973
 6933W        W72160  24.752  14.254   2.405
 6934W        W72161  16.021  21.595  14.833
 6935W        W72162  31.006  12.854   1.078
 6936W        W72163  27.754   8.240  12.594
 6937W        W72164  22.492  44.877  11.056
 6938W        W72165  38.874  23.814   3.490
 6939W        W72166  35.328  34.956  13.484
 6940W        W72167  32.478  42.378   0.750
 6941W        W72168   9.705  39.489   2.840
 6942W        W72169  23.640  14.863  11.083
 6943W        W72170  11.837   3.001   4.362
 6944W        W72171  27.953  10.141  14.855
 6945W        W72172  20.173  43.464  11.111
 6946W        W72173  43.793  19.655  12.108
 6947W        W72174  29.571   8.612  13.799
 6948W        W72175  38.990  34.454  10.749
 6949W        W72176  17.615   3.776  12.409
 6950W        W72177  37.473   2.724   3.223
 6951W        W72178  23.893  37.825  12.769
 6952W        W72179  19.306  33.920   2.063
 6953W        W72180  23.767  32.875  13.931
 6954W        W72181  31.464  42.370   1.305
 6955W        W72182  34.180  16.038   0.573
 6956W        W72183  12.283   1.511  10.796
 6957W        W72184   9.636  38.999  13.323
 6958W        W72185  28.662  21.992  14.425
 6959W        W72186  20.013  36.396   1.822
 6960W        W72187  44.896   8.704  11.310
 6961W        W72188  44.183   2.953   0.957
 6962W        W72189   2.466   0.888  14.524
 6963W        W72190  23.146  19.246   0.365
 6964W        W72191  33.494  35.131   1.927
 6965W        W72192  12.178  33.879  14.263
 6966W        W72193   8.255  13.021  11.945
 6967W        W72194  15.705  26.021   4.616
 6968W        W72195  14.537   2.124  14.982
 6969W        W72196   4.761   9.468   0.462
 6970W        W72197  34.590  11.665  13.812
 6971W        W72198   9.318  37.341   0.219
 6972W        W72199  30.370  41.562   2.348
 6973W        W72200  37.001  15.502   3.953
 6974W        W72201  15.276   8.467   0.370
 6975W        W72202   4.854  10.187  11.519
 6976W        W72203   2.492  22.685   3.404
 6977W        W72204  39.232   4.666  14.313
 6978W        W72205  28.456  32.528  14.448
 6979W        W72206  28.616  43.331   4.125
 6980W        W72207  31.097  28.397  13.302
 6981W        W72208  19.740  35.948   1.802
 6982W        W72209  11.615   3.543  10.457
 6983W        W72210  33.031  18.682  13.848
 6984W        W72211  20.092  39.241  11.576
 6985W        W72212  13.643   0.994   3.738
 6986W        W72213  30.472  19.696  13.820
 6987W        W72214  17.142   0.446   2.572
 6988W        W72215  30.527  43.055  13.401
 6989W        W72216  26.054  23.146   1.661
 6990W        W72217  32.555  26.196  14.861
 6991W        W72218  28.188  17.274  10.558
 6992W        W72219  40.067  19.314   0.176
 6993W        W72220  32.107  11.255  12.498
 6994W        W72221   2.201   3.224   0.913
 6995W        W72222  28.486  40.116  10.316
 6996W        W72223   4.850  20.327   3.777
 6997W        W72224   7.440   2.357  14.389
 6998W        W72225   5.620  19.727   2.924
 6999W        W72226  36.843   6.419   2.793
 7000W        W72227   6.315  15.396   1.250
 7001W        W72228  28.541  36.620  14.699
 7002W        W72229   3.104  29.336   0.144
 7003W        W72230  32.656   6.450  14.268
 7004W        W72231  44.859   4.611  12.092
 7005W        W72232  24.268   5.826  10.885
 7006W        W72233  36.044   0.946   1.446
 7007W        W72234   8.727  40.804  10.637
 7008W        W72235  34.628  17.832   1.807
 7009W        W72236  41.369  17.118   2.295
 7010W        W72237  13.078  34.444   2.873
 7011W        W72238  32.105   3.172   0.314
 7012W        W72239  16.484  35.528   2.908
 7013W        W72240  35.237   7.192   4.079
 7014W        W72241   2.398   2.331   4.968
 7015W        W72242  40.380  24.394  12.033
 7016W        W72243  28.174  11.233   2.468
 7017W        W72244  31.634  35.859   1.714
 7018W        W72245  35.415  41.041  10.677
 7019W        W72246   6.883  34.905  14.858
 7020W        W72247  27.050  25.753  11.563
 7021W        W72248   3.878  28.915   2.761
 7022W        W72249  36.293  20.141   3.838
 7023W        W72250  22.506  16.234   3.822
 7024W        W72251  30.052   7.649   1.646
 7025W        W72252  26.052  25.465   2.617
 7026W        W72253  12.338  16.866   2.094
 7027W        W72254  33.071   4.909   1.842
 7028W        W72255  14.085   9.345   4.513
 7029W        W72256  28.397  25.427   4.035
 7030W        W72257  14.071  27.196   3.513
 7031W        W72258  15.226  36.428  12.609
 7032W        W72259  37.132  36.425   0.181
 7033W        W72260  27.560  30.014  14.800
 7034W        W72261  20.529  43.116   4.570
 7035W        W72262   0.148   1.569   4.076
 7036W        W72263   2.262  38.006  12.507
 7037W        W72264  33.470  42.021  12.442
 7038W        W72265  32.212  25.658   3.631
 7039W        W72266  15.858  39.934  14.900
 7040W        W72267  26.801  31.444  12.425
 7041W        W72268   1.898   7.324  11.172
 7042W        W72269  13.022  29.552   0.273
 7043W        W72270   7.749  31.916   4.596
 7044W        W72271  10.470  18.252  11.963
 7045W        W72272  14.068  19.252   3.452
 7046W        W72273  40.805  17.164  12.161
 7047W        W72274   2.918   8.167   3.751
 7048W        W72275  37.240   4.180   1.185
 7049W        W72276  26.600  10.282   5.007
 7050W        W72277   8.010  27.923  12.841
 7051W        W72278  17.999  26.919  13.517
 7052W        W72279   2.744  13.631   0.415
 7053W        W72280  33.993  19.072  11.597
 7054W        W72281  19.361   4.138   1.781
 7055W        W72282  22.706  12.106  14.132
 7056W        W72283  18.119  38.919  12.316
 7057W        W72284   2.831  34.766  14.280
 7058W        W72285   6.994  33.601   0.026
 7059W        W72286  16.994  36.275  12.117
 7060W        W72287   8.929  42.868  11.131
 7061W        W72288  18.376   9.935  12.514
 7062W        W72289  26.478   1.910   0.901
 7063W        W72290  22.796  34.078   1.266
 7064W        W72291  36.553  44.254  12.066
 7065W        W72292   9.612  34.362  10.734
 7066W        W72293  32.967   1.852   4.074
 7067W        W72294  31.524  22.502   4.316
 7068W        W72295   8.413  37.285   2.419
 7069W        W72296  29.585  10.123   4.483
 7070W        W72297  16.094   9.220  14.297
 7071W        W72298  39.287  15.483   1.760
 7072W        W72299  39.043  15.194   0.271
 7073W        W72300  36.261  28.426   1.666
 7074W        W72301  25.052  12.213   0.536
 7075W        W72302  36.801  32.884  13.126
 7076W        W72303   6.505  44.938   4.121
 7077W        W72304  35.339  29.023   2.850
 7078W        W72305  24.935   7.524  11.698
 7079W        W72306  25.191   4.054  12.966
 7080W        W72307  13.131  17.072   2.205
 7081W        W72308  33.385   7.630   2.805
 7082W        W72309  27.661  35.461  12.364
 7083W        W72310   9.983  40.745   1.922
 7084W        W72311  17.612  11.337   2.241
 7085W        W72312  32.159  13.812   2.602
 7086W        W72313  16.346  22.114  13.047
 7087W        W72314   1.180  30.186   2.697
 7088W        W72315  43.786  33.514   1.929
 7089W        W72316  30.058  14.286   0.367
 7090W        W72317  32.402  37.389   0.215
 7091W        W72318   2.478  11.327   3.771
 7092W        W72319  21.290   0.358  10.210
 7093W        W72320  14.752  31.864   3.046
 7094W        W72321  16.648  12.892   3.308
 7095W        W72322  12.635   6.156  13.528
 7096W        W72323  14.122  28.631  13.416
 7097W        W72324  26.782  42.460   4.324
 7098W        W72325  25.490  29.651  11.194
 7099W        W72326  41.120  19.133   4.656
 7100W        W72327  25.155  12.131   3.219
 7101W        W72328  37.272  41.301   0.276
 7102W        W72329   1.554  19.688   0.509
 7103W        W72330  37.573   9.809  11.535
 7104W        W72331  40.323  20.733  10.221
 7105W        W72332  38.235  32.618  11.206
 7106W        W72333  15.910  23.029   3.621
 7107W        W72334  40.252  38.367   1.000
 7108W        W72335  37.278  12.939   2.370
 7109W        W72336  28.084  22.085   0.164
 7110W        W72337  22.556   5.315  10.348
 7111W        W72338  43.012  28.993  11.255
 7112W        W72339  11.837  38.037   3.322
 7113W        W72340   2.445  32.955   1.547
 7114W        W72341  19.727  34.491  13.306
 7115W        W72342  15.336  40.838   2.430
 7116W        W72343  19.314  38.449   4.493
 7117W        W72344  37.003   9.243  14.561
 7118W        W72345  24.163  41.745   0.791
 7119W        W72346  12.408  25.514   1.342
 7120W        W72347   9.281  26.581  13.911
 7121W        W72348  21.679  33.273  10.951
 7122W        W72349  36.169  28.495   1.147
 7123W        W72350  12.381  35.019  12.848
 7124W        W72351  13.635  34.399  12.627
 7125W        W72352  25.552  14.368   2.616
 7126W        W72353  33.120  41.852   0.384
 7127W        W72354  18.628  33.252  11.122
 7128W        W72355  15.758  27.958   2.032
 7129W        W72356  31.223  27.080   1.071
 7130W        W72357  33.948  36.361  13.868
 7131W        W72358  27.841  21.609   2.332
 7132W        W72359   7.963  26.474  12.035
 7133W        W72360  21.549   5.443   3.539
 7134W        W72361  33.993   3.641  10.925
 7135W        W72362  42.509   2.830   2.180
 7136W        W72363  33.683  12.203   4.767
 7137W        W72364  29.037   0.889   2.156
 7138W        W72365  23.873   3.838  12.071
 7139W        W72366  26.920  12.707  14.508
 7140W        W72367   0.811  37.437  11.127
 7141W        W72368  25.104  29.823  11.490
 7142W        W72369  10.779  34.690   1.877
 7143W        W72370  12.579  18.513  12.595
 7144W        W72371  20.252  21.182  14.730
 7145W        W72372  21.951  15.630  11.068
 7146W        W72373   7.429  39.904  12.921
 7147W        W72374  42.464  33.338  10.881
 7148W        W72375  13.489  18.262  14.870
 7149W        W72376  10.719  19.458   2.712
 7150W        W72377  42.979   8.701  13.951
 7151W        W72378  11.784  31.896   2.720
 7152W        W72379  22.740  35.355  10.302
 7153W        W72380  40.297  20.125   2.356
 7154W        W72381  25.168  19.546  10.639
 7155W        W72382  43.029  12.176  14.222
 7156W        W72383  35.901  40.546   3.648
 7157W        W72384  11.564   9.738   3.705
 7158W        W72385  16.731  44.726  12.037
 7159W        W72386  43.501   7.660   1.274
 7160W        W72387  13.096  18.033   3.116
 7161W        W72388   8.351  34.791   3.752
 7162W        W72389  19.612  11.678  13.251
 7163W        W72390   0.181  17.288   5.062
 7164W        W72391  37.758  10.322  14.729
 7165W        W72392  17.502  12.313   3.377
 7166W        W72393  20.234  40.466  13.030
 7167W        W72394  16.824  28.360  12.520
 7168W        W72395   8.416  26.673  14.493
 7169W        W72396   7.456   6.880  13.411
 7170W        W72397   8.236  22.083   3.822
 7171W        W72398  37.724  25.216   0.837
 7172W        W72399  40.467   1.425   3.762
 7173W        W72400  15.808  12.410   4.874
 7174W        W72401  42.556  31.456   0.532
 7175W        W72402  10.835  35.891  14.912
 7176W        W72403   7.890   5.603  10.729
 7177W        W72404  25.564  23.575  13.315
 7178W        W72405  31.271  27.662  11.158
 7179W        W72406   3.507  22.031   0.223
 7180W        W72407   2.497   9.661  13.345
 7181W        W72408   0.700  18.077   2.469
 7182W        W72409  37.532   9.462   2.731
 7183W        W72410  27.197   1.334   0.448
 7184W        W72411  29.222  29.889   2.273
 7185W        W72412   9.842   3.567  10.865
 7186W        W72413  32.048  28.581  11.780
 7187W        W72414  32.595  22.193   2.771
 7188W        W72415   9.931  40.041   4.172
 7189W        W72416   5.112  39.013   0.359
 7190W        W72417  24.124   1.089  11.254
 7191W        W72418   9.140  42.426  12.999
 7192W        W72419  13.180   3.488  12.474
 7193W        W72420  43.708  23.051  11.736
 7194W        W72421  23.916  39.876  14.246
 7195W        W72422  15.069  28.587   2.817
 7196W        W72423  43.670  16.549   0.768
 7197W        W72424   3.675  21.097   1.496
 7198W        W72425  38.731   8.676  11.190
 7199W        W72426  30.070  44.467  11.356
 7200W        W72427  40.566  41.391  13.565
 7201W        W72428  26.593  30.262   3.282
 7202W        W72429   5.895  33.320  11.776
 7203W        W72430   6.825   5.965   2.666
 7204W        W72431   6.987  30.695  11.531
 7205W        W72432  23.628   3.151  13.619
 7206W        W72433  11.298  20.350   1.782
 7207W        W72434  38.902   8.282   0.333
 7208W        W72435  18.493  28.040   4.764
 7209W        W72436  20.589  32.443   4.630
 7210W        W72437  25.179  10.584  11.114
 7211W        W72438  38.426  22.723   2.785
 7212W        W72439  15.630  24.697   5.361
 7213W        W72440   5.514   4.942  12.825
 7214W        W72441  18.895  21.503  12.489
 7215W        W72442   8.242  35.949   4.370
 7216W        W72443  25.057   2.631  11.157
 7217W        W72444  17.035  25.664  14.164
 7218W        W72445  12.044  19.061   4.068
 7219W        W72446  35.455  27.876  14.952
 7220W        W72447   5.231  28.880  12.010
 7221W        W72448  19.560   6.505  11.165
 7222W        W72449  43.714  21.302   1.904
 7223W        W72450  15.350  23.499   2.437
 7224W        W72451   2.462  13.605   0.944
 7225W        W72452  29.405  40.942   1.919
 7226W        W72453   0.934  19.359  12.083
 7227W        W72454   6.421   8.517  10.502
 7228W        W72455  33.872  27.647   2.882
 7229W        W72456  35.641  38.979  11.889
 7230W        W72457   0.807  33.155   3.280
 7231W        W72458  27.586  17.769   2.781
 7232W        W72459  13.532  15.305  14.822
 7233W        W72460  13.948  33.671   3.225
 7234W        W72461  33.472   6.398   3.553
 7235W        W72462   9.598  41.409  10.413
 7236W        W72463  32.997  27.879   5.321
 7237W        W72464  31.468  22.841  14.425
 7238W        W72465   0.178  23.507   1.043
 7239W        W72466  15.675  31.533   2.244
 7240W        W72467  30.168   4.716   3.410
 7241W        W72468  20.585  26.891  14.558
 7242W        W72469  34.736  34.118  13.856
 7243W        W72470  13.929   9.280   3.672
 7244W        W72471  41.894   6.674   4.171
 7245W        W72472  35.765  28.158   3.844
 7246W        W72473  36.830  10.086   2.428
 7247W        W72474  31.607  25.117  14.822
 7248W        W72475  22.961   6.214   0.863
 7249W        W72476  31.125   8.322   0.999
 7250W        W72477  29.318  16.473  14.384
 7251W        W72478  37.221   5.751  13.574
 7252W        W72479  38.904   7.763   2.194
 7253W        W72480  10.832  18.091   0.156
 7254W        W72481  19.321  12.652   3.673
 7255W        W72482  34.219  30.981  10.431
 7256W        W72483  36.135  37.738  13.167
 7257W        W72484  41.466  33.343   3.477
 7258W        W72485   1.226  40.103   0.220
 7259W        W72486   3.843  42.841   1.187
 7260W        W72487   5.418  38.853  10.912
 7261W        W72488  29.643   1.997   4.078
 7262W        W72489   3.421   7.376   4.628
 7263W        W72490   1.404  22.793  11.979
 7264W        W72491  30.950   5.169  12.816
 7265W        W72492  27.151  27.260  11.603
 7266W        W72493   7.818   4.480   1.265
 7267W        W72494   6.887   3.299  12.386
 7268W        W72495  20.822  19.989  12.227
 7269W        W72496  30.251  16.638   4.526
 7270W        W72497  20.019  39.150  14.541
 7271W        W72498  13.540  44.831  11.570
 7272W        W72499  24.972  31.342   3.433
 7273W        W72500  18.606   9.945  10.684
 7274W        W72501  17.297  10.880  11.643
 7275W        W72502   8.181  24.674   0.404
 7276W        W72503   6.294  26.172   2.198
 7277W        W72504  21.331   2.242  12.345
 7278W        W72505  42.916  31.759   0.261
 7279W        W72506  22.156  11.156   1.483
 7280W        W72507   2.756  17.699   1.947
 7281W        W72508   7.899  24.057   2.301
 7282W        W72509  43.438  39.266   4.748
 7283W        W72510  28.843  23.054   4.905
 7284W        W72511  21.965  43.901   2.186
 7285W        W72512  35.328  25.979  10.466
 7286W        W72513  11.953  33.522  14.961
 7287W        W72514  20.402  23.689   2.924
 7288W        W72515  20.288  43.633  12.390
 7289W        W72516  34.103  39.305  13.359
 7290W        W72517  21.374  34.877   1.219
 7291W        W72518   1.142   2.010   0.789
 7292W        W72519  31.781   2.306   3.182
 7293W        W72520  36.081  24.064  13.937
 7294W        W72521  35.732   5.919   1.034
 7295W        W72522  29.675  39.493   0.526
 7296W        W72523   2.913  13.605  13.661
 7297W        W72524  38.556  17.304  11.174
 7298W        W72525  11.402   0.217  14.135
 7299W        W72526  18.629  16.507   0.896
 7300W        W72527  11.283  39.367   3.642
 7301W        W72528  27.376   5.386   0.163
 7302W        W72529   5.498  30.052  12.161
 7303W        W72530  35.666   1.410  12.096
 7304W        W72531  32.418  19.113   1.969
 7305W        W72532  16.425  31.731   2.264
 7306W        W72533  16.086  12.038   4.657
 7307W        W72534  23.413  26.398  12.460
 7308W        W72535   1.989  28.430   1.787
 7309W        W72536  23.529  44.457  13.150
 7310W        W72537  16.262   0.147   4.487
 7311W        W72538  39.415   0.519  10.690
 7312W        W72539   2.324  33.961   4.062
 7313W        W72540  24.393  18.674  11.121
 7314W        W72541  22.850  16.318   4.220
 7315W        W72542  25.530   7.222  12.987
 7316W        W72543  28.521   7.306   0.440
 7317W        W72544  28.601  17.612  10.539
 7318W        W72545  24.448  11.365   0.459
 7319W        W72546   0.258  37.120  13.015
 7320W        W72547  24.103  41.357   3.304
 7321W        W72548  36.046  14.875   0.231
 7322W        W72549  24.001  33.409  11.618
 7323W        W72550  32.742  43.625   2.018
 7324W        W72551  44.207   4.307  10.443
 7325W        W72552  43.606  24.206  12.814
 7326W        W72553  44.018   2.745  12.628
 7327W        W72554  33.382  35.174  12.835
 7328W        W72555  44.282  22.195   3.755
 7329W        W72556  36.323  19.421  14.013
 7330W        W72557  28.135  10.680  10.291
 7331W        W72558  41.471  11.285   3.109
 7332W        W72559  13.212  19.440   9.941
 7333W        W72560   6.483  26.115   1.678
 7334W        W72561  25.473  40.772  13.893
 7335W        W72562  17.084  18.177   2.370
 7336W        W72563  13.877  29.666   4.250
 7337W        W72564  13.769  34.616   1.671
 7338W        W72565  29.339  31.116  12.039
 7339W        W72566  35.154  30.927   4.548
 7340W        W72567  31.763  32.448   2.686
 7341W        W72568  41.898   3.874   0.834
 7342W        W72569  14.875  37.515  12.902
 7343W        W72570  31.463  30.165  11.780
 7344W        W72571  38.420  43.076  12.105
 7345W        W72572  41.060   0.375   3.603
 7346W        W72573   0.031   4.134  11.386
 7347W        W72574  35.486   6.286   4.799
 7348W        W72575  44.937  28.597   3.068
 7349W        W72576  42.960  35.464  12.612
 7350W        W72577   1.268   7.930  12.375
 7351W        W72578  40.328   0.275   2.327
 7352W        W72579  35.095  19.318  14.297
 7353W        W72580  12.475  27.073  14.338
 7354W        W72581  25.020  35.335   3.673
 7355W        W72582  26.732  28.884   3.689
 7356W        W72583  10.896  11.740   0.791
 7357W        W72584   2.493  32.832  12.577
 7358W        W72585  43.551  13.446   3.533
 7359W        W72586  14.256  25.215   3.662
 7360W        W72587  35.268  10.141  10.398
 7361W        W72588  32.500  26.174  12.990
 7362W        W72589   3.306  28.942  13.331
 7363W        W72590   2.330  23.741   2.734
 7364W        W72591  15.324   7.960   1.291
 7365W        W72592   6.959  35.645   1.796
 7366W        W72593  32.683  26.005   3.976
 7367W        W72594   2.783   4.831  14.696
 7368W        W72595  42.948  12.506  14.606
 7369W        W72596  44.453   8.402   0.898
 7370W        W72597   3.531  23.224   3.785
 7371W        W72598   0.777  18.133  11.660
 7372W        W72599  25.475  22.623   2.147
 7373W        W72600   6.005   0.018   4.139
 7374W        W72601  27.972  36.671   9.790
 7375W        W72602  39.854   4.045   2.826
 7376W        W72603  30.940   7.148   0.485
 7377W        W72604   8.112   8.342  12.499
 7378W        W72605   1.938  20.276  11.002
 7379W        W72606  40.605  40.635  11.651
 7380W        W72607  35.103   1.012   1.192
 7381W        W72608   7.965   9.067   2.175
 7382W        W72609  13.987  18.784   3.687
 7383W        W72610  27.510  22.695  14.259
 7384W        W72611  42.309  26.621  12.082
 7385W        W72612  31.100  12.555  11.193
 7386W        W72613  17.477  22.700  10.659
 7387W        W72614  41.687  23.653   4.148
 7388W        W72615  14.826  24.637   1.459
 7389W        W72616   2.186   1.003   4.377
 7390W        W72617  18.622  33.358  14.231
 7391W        W72618  15.643  30.213  13.042
 7392W        W72619   3.897  23.632   1.584
 7393W        W72620  37.552  30.362   3.723
 7394W        W72621  12.391  26.531   3.742
 7395W        W72622  36.006   0.638   3.596
 7396W        W72623  26.811  31.009  13.144
 7397W        W72624  34.394  30.690  14.980
 7398W        W72625  14.605  29.431   3.724
 7399W        W72626  11.807  18.288   2.255
 7400W        W72627  18.626  35.285  12.548
 7401W        W72628  40.432  15.655   4.039
 7402W        W72629  22.611  29.484   0.037
 7403W        W72630  11.437  11.270  14.126
 7404W        W72631  23.938  28.006  12.095
 7405W        W72632  17.735  20.954  14.799
 7406W        W72633  25.811  23.111   2.140
 7407W        W72634  12.993   3.354  10.814
 7408W        W72635  22.064  24.121  11.389
 7409W        W72636  12.562  23.444   0.662
 7410W        W72637  29.437   7.018   2.794
 7411W        W72638  25.603  15.231   2.267
 7412W        W72639  11.696  36.483   2.261
 7413W        W72640  19.994   8.304   0.795
 7414W        W72641  43.890  38.801   1.722
 7415W        W72642  44.734  43.419   0.354
 7416W        W72643  23.024  28.051  11.127
 7417W        W72644  24.656  18.149   3.499
 7418W        W72645  38.035   0.248   0.732
 7419W        W72646  24.997  27.024  11.142
 7420W        W72647  36.781  34.663   2.227
 7421W        W72648  26.221  17.906  12.795
 7422W        W72649   3.136  38.859   3.123
 7423W        W72650  34.936  30.865  14.353
 7424W        W72651   8.132  39.405   3.241
 7425W        W72652  16.822   7.358   0.021
 7426W        W72653  41.193   7.774   1.688
 7427W        W72654  22.456   1.950   3.152
 7428W        W72655  34.035   5.415  14.419
 7429W        W72656  35.733   0.857  14.316
 7430W        W72657   7.921  30.996   2.823
 7431W        W72658  43.013  35.371  14.547
 7432W        W72659   9.159  32.858   1.226
 7433W        W72660  32.468   9.044  11.136
 7434W        W72661  32.851   7.756   3.616
 7435W        W72662   9.764   5.373  14.809
 7436W        W72663  16.624  27.163  12.179
 7437W        W72664  11.712  17.816   1.189
 7438W        W72665  10.857  12.329  13.432
 7439W        W72666  44.408  30.325  11.038
 7440W        W72667  12.812  38.054  12.212
 7441W        W72668   1.276  29.177  14.034
 7442W        W72669  13.427  39.441  13.749
 7443W        W72670   1.208  29.072   3.660
 7444W        W72671  40.533  43.288   3.676
 7445W        W72672  20.370  28.423  11.089
 7446W        W72673  27.192  23.108  12.044
 7447W        W72674  33.159  20.569  13.439
 7448W        W72675  23.506  41.946   1.429
 7449W        W72676   0.655  18.357  14.164
 7450W        W72677  31.447  12.226  12.978
 7451W        W72678  41.740  40.144   3.933
 7452W        W72679  19.553  25.710   2.850
 7453W        W72680  17.525  11.678   0.852
 7454W        W72681  41.329  43.186   3.135
 7455W        W72682   5.374   9.776   4.594
 7456W        W72683  34.546  40.013  12.711
 7457W        W72684  36.520   2.932   0.702
 7458W        W72685  25.516  17.501  10.086
 7459W        W72686  24.415  18.211   1.773
 7460W        W72687  41.080  12.895   4.150
 7461W        W72688  27.606  40.360   0.833
 7462W        W72689  29.613  17.661   3.660
 7463W        W72690  16.178  31.604   1.794
 7464W        W72691  40.658  43.305  12.088
 7465W        W72692  33.058  15.938  11.444
 7466W        W72693   1.278  22.008  13.813
 7467W        W72694  34.402  24.469  11.589
 7468W        W72695  22.516  12.842   0.137
 7469W        W72696  43.725  20.022   0.155
 7470W        W72697  43.457  14.697  14.775
 7471W        W72698  31.509  18.482  12.925
 7472W        W72699  38.098   7.442  10.504
 7473W        W72700  26.689  42.849   2.147
 7474W        W72701  22.252  30.457   2.198
 7475W        W72702   4.417  29.679   4.147
 7476W        W72703   5.326  17.682  12.744
 7477W        W72704  29.746   7.102  12.041
 7478W        W72705   9.667  13.346   2.804
 7479W        W72706  14.083  29.615   0.326
 7480W        W72707  27.536   4.229   3.846
 7481W        W72708  36.553  17.139  11.071
 7482W        W72709   4.151  34.161   3.924
 7483W        W72710  41.332  31.352  12.627
 7484W        W72711  44.709  21.618   5.195
 7485W        W72712  37.032  14.281   1.034
 7486W        W72713  41.861   5.364   0.502
 7487W        W72714  24.651  23.101   2.224
 7488W        W72715   2.525   6.553  11.429
 7489W        W72716  34.084   8.024  14.382
 7490W        W72717   6.278  31.004  12.246
 7491W        W72718  10.170  30.909   1.868
 7492W        W72719  38.157  30.816  14.746
 7493W        W72720   3.670  10.209  14.372
 7494W        W72721   0.748  25.678   2.043
 7495W        W72722  37.781  22.186   1.236
 7496W        W72723  31.534  19.527  13.044
 7497W        W72724  28.481  10.633   1.417
 7498W        W72725  37.075   1.998  13.912
 7499W        W72726  11.899  19.116   0.781
 7500W        W72727  31.550   9.210   2.275
 7501W        W72728  22.169  12.908  12.550
 7502W        W72729  21.057   7.197   4.103
 7503W        W72730  19.717  27.488  10.459
 7504W        W72731  39.602  20.118  12.841
 7505W        W72732  28.566   3.934   2.613
 7506W        W72733  42.702   7.256   2.066
 7507W        W72734  23.074  15.540  14.480
 7508W        W72735   3.307  36.897   0.451
 7509W        W72736  14.490  11.765   4.624
 7510W        W72737  34.175  32.211   1.374
 7511W        W72738  42.557  24.764  14.014
 7512W        W72739  18.630   1.838   3.367
 7513W        W72740  14.114  28.417  12.017
 7514W        W72741  16.173  42.522   3.702
 7515W        W72742  44.455  27.325  14.394
 7516W        W72743   5.164  31.763  11.477
 7517W        W72744  30.569   6.652   1.278
 7518W        W72745   2.693  30.581  11.522
 7519W        W72746  31.164  32.061   3.531
 7520W        W72747  17.830  41.712  10.585
 7521W        W72748  36.863  38.119  13.366
 7522W        W72749  25.941  20.566   1.279
 7523W        W72750  15.748  15.569  14.301
 7524W        W72751  11.654  11.283   1.852
 7525W        W72752  43.716  43.818  14.821
 7526W        W72753  10.839  41.850  12.967
 7527W        W72754  17.259  24.457  13.840
 7528W        W72755  28.128  28.511   0.300
 7529W        W72756  12.714  44.741   3.299
 7530W        W72757  35.941  20.817  10.746
 7531W        W72758  22.790   0.459  13.451
 7532W        W72759  40.957  39.140  14.499
 7533W        W72760  32.471  24.232   0.523
 7534W        W72761  17.227  26.725   4.353
 7535W        W72762  13.320  43.323   3.279
 7536W        W72763  29.115  15.634  12.147
 7537W        W72764   6.054   7.093  13.553
 7538W        W72765  24.951  17.272   4.115
 7539W        W72766  11.866  37.307  11.899
 7540W        W72767  22.023  40.923  10.934
 7541W        W72768  11.323  33.707   2.679
 7542W        W72769  24.602  15.091  11.262
 7543W        W72770  23.549  13.003  11.587
 7544W        W72771  34.456   1.681  10.705
 7545W        W72772  19.140   4.913  13.307
 7546W        W72773  39.420  10.160  10.620
 7547W        W72774  11.153   5.208  11.144
 7548W        W72775   8.510  30.544  10.569
 7549W        W72776  22.273  23.214   3.789
 7550W        W72777  15.742  18.122   0.004
 7551W        W72778  40.692  28.655  12.354
 7552W        W72779  37.357  39.422  11.568
 7553W        W72780  44.703  12.748  10.670
 7554W        W72781  38.192  24.941  13.442
 7555W        W72782  18.703  12.180   3.662
 7556W        W72783  11.747  40.330   3.097
 7557W        W72784  11.868  35.545   0.924
 7558W        W72785  12.981   4.840   1.428
 7559W        W72786  26.244   8.640  12.701
 7560W        W72787  32.498  41.770   4.300
 7561W        W72788   0.900  21.307  11.594
 7562W        W72789   2.629   3.492  10.262
 7563W        W72790   7.242   7.263   2.251
 7564W        W72791  39.574  14.706  12.965
 7565W        W72792   4.310  44.608  11.967
 7566W        W72793  34.453  10.742   4.584
 7567W        W72794  31.871  25.809  14.309
 7568W        W72795   0.709  37.465   3.612
 7569W        W72796   2.564  25.054  11.518
 7570W        W72797  27.288  24.560   3.789
 7571W        W72798  10.763  12.522  14.596
 7572W        W72799  28.172  16.623   2.207
 7573W        W72800  44.564  35.172  13.873
 7574W        W72801  10.924  38.761   0.340
 7575W        W72802  27.490   0.318  11.456
 7576W        W72803  14.518  30.691  10.800
 7577W        W72804   5.743  29.064   4.159
 7578W        W72805  12.357  42.178   3.310
 7579W        W72806   8.468  22.023  12.534
 7580W        W72807  11.273  29.475  12.238
 7581W        W72808   2.500  25.974   0.171
 7582W        W72809  20.817  22.131   3.361
 7583W        W72810   0.990  13.074  11.534
 7584W        W72811  11.322  10.396  12.015
 7585W        W72812  35.377  16.022  13.793
 7586W        W72813   5.979  25.179   2.655
 7587W        W72814  26.504  13.589  12.569
 7588W        W72815  20.740  44.853   3.042
 7589W        W72816  36.600  14.029  11.655
 7590W        W72817  43.098   3.343   4.705
 7591W        W72818  41.087   3.663   1.189
 7592W        W72819   4.131  42.113  13.831
 7593W        W72820  19.579  21.756  12.932
 7594W        W72821  42.896   9.300  10.465
 7595W        W72822  34.899  19.627  11.802
 7596W        W72823  36.856  26.526   1.802
 7597W        W72824  39.939   1.526  10.845
 7598W        W72825  16.300  16.118   2.705
 7599W        W72826  12.296  44.321   2.425
 7600W        W72827  18.332  11.331   0.694
 7601W        W72828  24.011  43.911   0.462
 7602W        W72829  33.652  28.144   3.096
 7603W        W72830   1.042   4.213  10.548
 7604W        W72831  29.898   1.558   0.376
 7605W        W72832  31.398  31.049  11.224
 7606W        W72833  32.666  16.813  10.290
 7607W        W72834  38.367  40.824  13.484
 7608W        W72835   8.937  12.580   0.925
 7609W        W72836  39.189  36.603  13.980
 7610W        W72837  39.477  10.147  14.002
 7611W        W72838  38.978  40.489   1.293
 7612W        W72839   8.867   6.103  10.623
 7613W        W72840  40.391   0.933   3.584
 7614W        W72841  27.672  12.330   2.358
 7615W        W72842  35.003  39.779   0.346
 7616W        W72843  43.337   5.553  13.986
 7617W        W72844   6.929  22.148   3.320
 7618W        W72845  19.081   0.804  13.768
 7619W        W72846  32.403   4.392  11.537
 7620W        W72847   6.449  13.276  12.788
 7621W        W72848   1.290  33.626  12.820
 7622W        W72849  21.147   6.787   0.954
 7623W        W72850  28.605  11.877   2.145
 7624W        W72851  16.051  43.853  14.381
 7625W        W72852  31.421   1.521  13.082
 7626W        W72853  25.869  32.494  12.352
 7627W        W72854   4.283  26.951   1.205
 7628W        W72855  33.237  19.368  11.124
 7629W        W72856  12.389  19.004  12.764
 7630W        W72857   5.374  27.645   4.592
 7631W        W72858  32.004  35.256   0.750
 7632W        W72859   9.800  11.249   2.275
 7633W        W72860  19.109  28.874   3.457
 7634W        W72861  26.453  38.102  12.499
 7635W        W72862  27.724  26.939  10.550
 7636W        W72863  29.637   4.241  14.381
 7637W        W72864  12.849  10.175  12.884
 7638W        W72865  15.040   1.710   0.824
 7639W        W72866  42.678  31.201   5.144
 7640W        W72867  25.670   6.819   3.204
 7641W        W72868   5.036  37.945  13.544
 7642W        W72869  34.439   5.896  12.838
 7643W        W72870  21.242  38.311  12.343
 7644W        W72871  36.746  24.924   1.218
 7645W        W72872  31.642  24.877  13.375
 7646W        W72873  25.542   6.743   0.293
 7647W        W72874  39.865  29.757  11.193
 7648W        W72875   7.209  21.236   2.316
 7649W        W72876  10.223   5.309   2.230
 7650W        W72877  33.656   4.358   1.807
 7651W        W72878  40.236  39.879   3.305
 7652W        W72879  39.852   8.839   4.801
 7653W        W72880  32.066  16.270  12.787
 7654W        W72881  10.598  26.203  14.980
 7655W        W72882  38.629   4.858   0.475
 7656W        W72883  37.748  30.940   0.893
 7657W        W72884  13.352  35.259   5.022
 7658W        W72885  16.832  19.272  13.056
 7659W        W72886  32.363  22.680   3.218
 7660W        W72887  37.947   2.505   3.259
 7661W        W72888  26.804  42.994  13.846
 7662W        W72889  13.345  34.925  11.622
 7663W        W72890  15.002  44.550  11.115
 7664W        W72891  42.440  20.484  13.003
 7665W        W72892  30.958  36.121   3.813
 7666W        W72893  31.656   1.690  11.975
 7667W        W72894   7.306  36.578   3.088
 7668W        W72895  42.431  35.862  14.969
 7669W        W72896  35.809  24.329  12.498
 7670W        W72897  41.513  21.799   4.467
 7671W        W72898   5.833  28.239   2.214
 7672W        W72899   5.205  40.081  14.106
 7673W        W72900  18.695   5.236  12.086
 7674W        W72901  13.339  10.128  10.103
 7675W        W72902  40.843  39.702  13.318
 7676W        W72903   0.884  38.246  10.789
 7677W        W72904  24.247  28.595   0.946
 7678W        W72905  36.033  13.287  12.846
 7679W        W72906  19.721  11.479  10.590
 7680W        W72907  26.882  11.519   0.922
 7681W        W72908   7.130  44.192   3.650
 7682W        W72909  18.479  31.415  11.609
 7683W        W72910  20.713   9.184   1.867
 7684W        W72911   9.729  44.080  12.968
 7685W        W72912  23.253   4.680  12.514
 7686W        W72913  10.279  16.047  13.163
 7687W        W72914  35.110  39.031   1.326
 7688W        W72915   0.477  15.253   3.160
 7689W        W72916  24.089  22.102   2.722
 7690W        W72917  11.074  33.895   0.817
 7691W        W72918  43.188  28.249   9.938
 7692W        W72919  43.768  21.235  11.959
 7693W        W72920  38.529  19.133   0.966
 7694W        W72921  39.377  44.968  13.371
 7695W        W72922  14.725  23.171   4.148
 7696W        W72923  31.269  22.549   0.484
 7697W        W72924  33.362  23.556   1.446
 7698W        W72925  15.302  16.774   0.949
 7699W        W72926  44.818  28.645   1.453
 7700W        W72927  21.224   7.315  14.829
 7701W        W72928  30.328  26.178  14.458
 7702W        W72929   5.105  37.104   1.405
 7703W        W72930  17.277   1.559   2.181
 7704W        W72931  44.289  19.359   3.317
 7705W        W72932  38.487   1.517  10.707
 7706W        W72933  33.291  38.058   2.338
 7707W        W72934  37.092  35.993  14.814
 7708W        W72935   0.228  13.249   1.772
 7709W        W72936  40.728   7.886   3.294
 7710W        W72937  23.520   0.847  14.563
 7711W        W72938  27.694  24.233   2.436
 7712W        W72939  21.520  22.143  11.363
 7713W        W72940   9.358  26.044  13.952
 7714W        W72941  14.712  19.509   4.098
 7715W        W72942  34.340  40.380  10.982
 7716W        W72943  24.745  20.543  11.558
 7717W        W72944   7.454  19.317   4.627
 7718W        W72945   7.014  34.041   0.444
 7719W        W72946  33.523  31.293   1.165
 7720W        W72947  13.262   5.470   4.731
 7721W        W72948   8.276  27.577   0.074
 7722W        W72949  28.141  17.369  14.347
 7723W        W72950  25.674  10.906  13.506
 7724W        W72951  38.780  37.469  14.251
 7725W        W72952  36.033   6.172  14.560
 7726W        W72953  18.653   4.948   1.798
 7727W        W72954  25.573   3.239   1.152
 7728W        W72955  20.159  14.271   3.647
 7729W        W72956  21.094  36.359  11.107
 7730W        W72957  20.162   7.385   4.608
 7731W        W72958   6.161  23.676   2.248
 7732W        W72959  27.229  31.473   4.022
 7733W        W72960  18.883  20.791   4.780
 7734W        W72961  16.104   4.925   1.377
 7735W        W72962  14.638  18.766   0.347
 7736W        W72963  16.316  11.450   2.198
 7737W        W72964  31.995  18.132   3.486
 7738W        W72965  39.165  44.263   3.125
 7739W        W72966  39.416  40.823  10.586
 7740W        W72967  23.585  22.834  13.118
 7741W        W72968   1.680   6.018  14.832
 7742W        W72969   2.764  38.870  10.889
 7743W        W72970  42.448  34.687  12.591
 7744W        W72971  32.487  38.110   5.602
 7745W        W72972  35.582  14.111   0.322
 7746W        W72973  43.769  23.112   1.710
 7747W        W72974  28.469  22.235   3.875
 7748W        W72975   1.319  32.107   1.699
 7749W        W72976  29.890  17.816   1.447
 7750W        W72977   5.687  20.188  12.901
 7751W        W72978  42.766   5.643   0.400
 7752W        W72979   1.564   3.495  13.012
 7753W        W72980  19.165  18.020   2.199
 7754W        W72981  31.913  16.292   2.796
 7755W        W72982  18.175  43.546   2.426
 7756W        W72983   3.972   3.313   1.329
 7757W        W72984  31.425   5.327  10.796
 7758W        W72985   1.071  19.059   2.786
 7759W        W72986  27.636   6.901  13.414
 7760W        W72987  31.037  30.469   3.342
 7761W        W72988   8.247  36.973   0.511
 7762W        W72989  24.966  16.224   2.320
 7763W        W72990   7.598   1.916  12.124
 7764W        W72991  11.144  34.358   3.649
 7765W        W72992  25.491  36.710   4.599
 7766W        W72993   3.509   9.805   4.116
 7767W        W72994  31.976  23.492   3.744
 7768W        W72995  31.512  23.619   0.775
 7769W        W72996   3.461   4.166  14.997
 7770W        W72997  35.090  25.119   4.104
 7771W        W72998  37.924  37.947   0.410
 7772W        W72999   3.847  31.421   3.543
 7773W        W73000  28.069  35.064  13.980
 7774W        W73001  43.837  10.434  12.586
 7775W        W73002   9.873   8.692  13.956
 7776W        W73003  14.808  37.209   0.942
 7777W        W73004  12.373  38.631   2.395
 7778W        W73005  17.510   1.013   1.257
 7779W        W73006  32.414  43.408  13.084
 7780W        W73007  27.529  22.686  11.978
 7781W        W73008  33.978  10.681  11.294
 7782W        W73009  26.673  32.952   1.310
 7783W        W73010  32.059  32.594  14.914
 7784W        W73011  21.789  11.055  13.417
 7785W        W73012   1.529   6.772   0.392
 7786W        W73013   8.929  30.388  12.550
 7787W        W73014  31.253  44.609  13.591
 7788W        W73015   7.961  28.498  11.673
 7789W        W73016  13.091   7.160  11.562
 7790W        W73017  33.108  25.278   0.774
 7791W        W73018  24.923  21.659  14.758
 7792W        W73019  11.915  34.343   3.073
 7793W        W73020  25.507  21.184  11.403
 7794W        W73021   1.241   7.835  14.890
 7795W        W73022  28.368  26.101   1.332
 7796W        W73023  42.456   3.349  12.325
 7797W        W73024  35.537  20.111   2.144
 7798W        W73025  19.200  25.598  11.560
 7799W        W73026   9.787  20.493  14.835
 7800W        W73027   5.795  32.561  14.052
 7801W        W73028  38.582  43.856  11.578
 7802W        W73029  40.014  31.567  10.609
 7803W        W73030   3.777  19.584  14.195
 7804W        W73031  17.288  33.433   3.558
 7805W        W73032  17.878  16.212   2.170
 7806W        W73033  29.457  23.495   3.756
 7807W        W73034  31.330  10.224   2.465
 7808W        W73035  44.375  38.635   0.767
 7809W        W73036  29.691   6.020  14.750
 7810W        W73037  43.661  16.335   2.864
 7811W        W73038  22.753  37.092  12.010
 7812W        W73039   1.149  26.433  11.553
 7813W        W73040  28.115  40.713  11.528
 7814W        W73041   9.276  12.693   0.292
 7815W        W73042   3.476   6.986  14.404
 7816W        W73043   8.745  15.616  13.534
 7817W        W73044  18.057  40.261  12.977
 7818W        W73045  24.047  20.454  12.684
 7819W        W73046  18.509   6.482  12.412
 7820W        W73047  14.180   6.737   0.705
 7821W        W73048   6.829  42.848  11.239
 7822W        W73049  34.008  31.845  10.726
 7823W        W73050   4.663   4.257   0.732
 7824W        W73051   3.011  27.170   1.763
 7825W        W73052  40.389  44.802  13.553
 7826W        W73053   6.953  36.393  14.788
 7827W        W73054   8.996  28.064   0.927
 7828W        W73055  35.644   7.451   3.171
 7829W        W73056   6.831   6.873   4.592
 7830W        W73057  30.396  29.031  10.628
 7831W        W73058   5.508  26.319  12.708
 7832W        W73059  37.063  17.762   2.261
 7833W        W73060  25.298  27.816   2.895
 7834W        W73061  12.624  23.451   2.831
 7835W        W73062  17.630  24.419  12.955
 7836W        W73063   1.891  22.172   0.403
 7837W        W73064  20.275  10.199   3.021
 7838W        W73065  15.504  14.340   1.990
 7839W        W73066  14.804   1.770   4.136
 7840W        W73067  33.377  30.467  11.626
 7841W        W73068  15.764  44.469   1.980
 7842W        W73069   7.932  28.261  12.471
 7843W        W73070   1.819  11.135  10.532
 7844W        W73071   2.960  14.293   2.194
 7845W        W73072  11.748  33.447  12.928
 7846W        W73073   5.863  13.746  14.925
 7847W        W73074   3.854  31.987  10.435
 7848W        W73075  17.851   8.393   4.157
 7849W        W73076  20.002  36.031   2.260
 7850W        W73077  26.236  43.504  12.445
 7851W        W73078  24.480  20.633  12.468
 7852W        W73079  14.054   5.715   3.240
 7853W        W73080  44.467  17.753  11.565
 7854W        W73081  35.401  14.670  11.919
 7855W        W73082  42.524   1.345  12.517
 7856W        W73083  32.489  16.888   1.639
 7857W        W73084  28.733   2.270  12.119
 7858W        W73085  19.104  30.124   3.216
 7859W        W73086   8.283  40.928  13.819
 7860W        W73087  31.117  41.989  13.597
 7861W        W73088  18.771  40.112  11.029
 7862W        W73089   6.716  43.781  12.642
 7863W        W73090  41.435  24.044   0.017
 7864W        W73091   3.932  28.733  14.769
 7865W        W73092  38.574  30.358  12.777
 7866W        W73093  39.563   7.107   4.552
 7867W        W73094  44.924  16.125   0.758
 7868W        W73095  20.049  13.125  11.206
 7869W        W73096  29.726  34.362  12.068
 7870W        W73097  43.032  21.667  11.576
 7871W        W73098  37.543  23.221  14.201
 7872W        W73099  36.158   4.437  11.579
 7873W        W73100  33.270  18.152  12.479
 7874W        W73101  17.397   8.222  13.448
 7875W        W73102  16.575  18.744   2.581
 7876W        W73103  18.747   6.307   2.830
 7877W        W73104  33.364  38.202   0.011
 7878W        W73105   3.288  20.902   1.800
 7879W        W73106   1.201  35.353  14.420
 7880W        W73107   9.341  43.835  11.456
 7881W        W73108  37.498  29.432   2.355
 7882W        W73109  31.271  41.622  11.145
 7883W        W73110  41.832  13.734   4.019
 7884W        W73111  40.809  13.771  13.126
 7885W        W73112  38.575   4.662   2.809
 7886W        W73113   2.710  14.222  10.817
 7887W        W73114   8.845   0.196  11.517
 7888W        W73115   1.387   5.088   3.605
 7889W        W73116  15.376   1.966   2.400
 7890W        W73117   4.481  32.712   0.821
 7891W        W73118  36.849  43.311   0.209
 7892W        W73119  42.785  22.520   2.295
 7893W        W73120   8.894  18.254  13.160
 7894W        W73121  42.716   6.265   4.651
 7895W        W73122   9.160  36.457  12.973
 7896W        W73123  35.429  14.604   4.769
 7897W        W73124  37.406   6.736  10.986
 7898W        W73125  36.551  20.069   1.899
 7899W        W73126   8.796  25.893  13.546
 7900W        W73127  19.124  42.286  14.835
 7901W        W73128  38.318  35.465  14.410
 7902W        W73129  16.638  32.010   2.724
 7903W        W73130  34.270  34.990  12.929
 7904W        W73131  33.489  18.663  11.985
 7905W        W73132   7.876   9.809  14.060
 7906W        W73133  38.898  37.559   3.277
 7907W        W73134  36.957   9.581  11.866
 7908W        W73135  12.297  37.039  12.032
 7909W        W73136  16.009  38.088   4.279
 7910W        W73137  36.530  19.049   0.803
 7911W        W73138  25.179  20.561  14.015
 7912W        W73139  35.392  38.346  14.037
 7913W        W73140  24.393   6.776   3.653
 7914W        W73141  26.271   1.633   1.329
 7915W        W73142  40.358   2.896   1.327
 7916W        W73143  18.331   2.767  13.913
 7917W        W73144  31.002  12.245   2.309
 7918W        W73145   5.392  11.261  11.464
 7919W        W73146  38.902  24.331  10.043
 7920W        W73147  26.861  21.115   1.078
 7921W        W73148  29.120  14.978  12.806
 7922W        W73149  23.277  29.095  10.656
 7923W        W73150  40.831  18.054  12.704
 7924W        W73151  30.736  20.122  13.912
 7925W        W73152   1.255  17.657  14.255
 7926W        W73153  26.614   2.715  12.615
 7927W        W73154   2.272  35.526  13.020
 7928W        W73155  15.579   2.898  11.211
 7929W        W73156   8.753  22.465  13.997
 7930W        W73157   2.369   3.909  14.712
 7931W        W73158  33.071  29.414   3.294
 7932W        W73159  17.627  26.291  14.480
 7933W        W73160  25.805  26.255   1.371
 7934W        W73161   5.828  24.570  11.116
 7935W        W73162  32.649  36.211  14.934
 7936W        W73163  12.839  35.476   5.106
 7937W        W73164  32.921   0.760   3.075
 7938W        W73165  36.389  24.482   1.253
 7939W        W73166  21.339  26.176   0.340
 7940W        W73167   5.727   6.158   4.203
 7941W        W73168   3.483   2.849  11.610
 7942W        W73169  20.955   2.465   2.566
 7943W        W73170  10.941  34.530   3.180
 7944W        W73171  33.819  29.042   3.593
 7945W        W73172  21.081  31.082  10.406
 7946W        W73173   2.405  10.453  10.869
 7947W        W73174  35.822  19.263  11.924
 7948W        W73175   6.816  38.362   1.469
 7949W        W73176   3.417  22.266  14.299
 7950W        W73177  30.550  10.830  12.939
 7951W        W73178  33.277  28.649   4.595
 7952W        W73179  21.287  42.653   5.167
 7953W        W73180  38.006  24.613  13.078
 7954W        W73181  42.455   1.599   3.716
 7955W        W73182  44.733  31.426   1.298
 7956W        W73183  10.367  40.814   0.411
 7957W        W73184   3.214  32.871  11.053
 7958W        W73185  18.733   9.416  14.702
 7959W        W73186  24.530  30.353   3.638
 7960W        W73187   9.062  25.600   4.678
 7961W        W73188  33.361  40.403  10.770
 7962W        W73189  42.083   4.448  12.936
 7963W        W73190  19.343  26.373  13.066
 7964W        W73191  11.546  16.072   9.714
 7965W        W73192  20.437   3.540   4.911
 7966W        W73193  42.573  22.717   1.866
 7967W        W73194  13.624  33.179   2.122
 7968W        W73195   8.670  32.332   4.106
 7969W        W73196  17.534  37.339  13.554
 7970W        W73197  34.831   3.958  14.937
 7971W        W73198   5.821  40.598  14.403
 7972W        W73199  15.708  34.729  10.680
 7973W        W73200  28.580  44.072   0.922
 7974W        W73201  12.474  27.771  12.563
 7975W        W73202  26.295  15.274  10.510
 7976W        W73203  26.961  21.045  14.343
 7977W        W73204  22.673  24.426  11.618
 7978W        W73205  20.836   1.330   1.286
 7979W        W73206  39.408  26.559   1.908
 7980W        W73207  33.261  26.593   0.175
 7981W        W73208   8.612  34.445   5.147
 7982W        W73209   4.821  32.924   2.224
 7983W        W73210  15.233  41.969  13.805
 7984W        W73211  14.162  32.405  14.464
 7985W        W73212  12.778  31.138   1.506
 7986W        W73213  29.496  13.043  12.348
 7987W        W73214  20.869  21.237  10.862
 7988W        W73215   2.195   0.341  11.911
 7989W        W73216  13.485  25.799  12.941
 7990W        W73217  31.061  40.782   0.800
 7991W        W73218   3.719   9.327  11.350
 7992W        W73219   5.981  10.974  10.574
 7993W        W73220  14.013   6.257   0.888
 7994W        W73221   9.680  32.150   3.659
 7995W        W73222   4.523  10.102  10.043
 7996W        W73223  34.293  19.805  12.972
 7997W        W73224  43.763  12.670  14.269
 7998W        W73225  23.463  13.996  10.748
 7999W        W73226  34.898  35.547   2.424
 8000W        W73227  39.828   2.745   3.246
 8001W        W73228  36.130   8.616   1.242
 8002W        W73229   0.233   2.467  14.498
 8003W        W73230  23.454  28.230  12.373
 8004W        W73231  27.886  13.073  12.810
 8005W        W73232   3.168  21.110   1.348
 8006W        W73233   8.482  43.952  10.586
 8007W        W73234  37.622  16.893  13.469
 8008W        W73235  22.774  21.021  11.924
 8009W        W73236  33.495   9.959   0.906
 8010W        W73237  37.083   2.067   2.176
 8011W        W73238  34.090  43.942   3.942
 8012W        W73239  25.753  30.244  12.923
 8013W        W73240   9.748   1.501   2.596
 8014W        W73241  17.281  11.500  11.180
 8015W        W73242  31.374  19.608  14.911
 8016W        W73243  17.046  11.948  13.767
 8017W        W73244  23.768  15.811   0.809
 8018W        W73245  20.753  10.694  14.383
 8019W        W73246   0.533   9.693   4.318
 8020W        W73247  41.391  22.683  11.970
 8021W        W73248   8.347  34.373  13.984
 8022W        W73249  37.466  33.290  10.713
 8023W        W73250   5.200  38.483   0.407
 8024W        W73251  28.162   0.643  10.976
 8025W        W73252  13.332  17.331   1.685
 8026W        W73253  15.391  15.437   5.072
 8027W        W73254  19.873  19.115  14.706
 8028W        W73255  20.062  19.567  12.592
 8029W        W73256   2.976   3.243   3.738
 8030W        W73257  24.726  27.115  12.376
 8031W        W73258  14.265  31.658  12.549
 8032W        W73259  27.470  24.436   4.248
 8033W        W73260  21.515  28.931  14.403
 8034W        W73261  30.080  16.317  13.930
 8035W        W73262  34.909  11.745  13.298
 8036W        W73263  25.149  33.619   3.629
 8037W        W73264  41.319  35.642  11.270
 8038W        W73265  34.904   1.402  12.456
 8039W        W73266  21.188  15.605  10.623
 8040W        W73267  40.325  43.506  12.427
 8041W        W73268  18.754   8.342   0.326
 8042W        W73269   7.051  20.222   2.175
 8043W        W73270  41.149  33.708  11.608
 8044W        W73271  19.083  25.002   0.457
 8045W        W73272  13.303  38.089   4.553
 8046W        W73273  35.089  44.220   1.902
 8047W        W73274  27.450  44.252  12.211
 8048W        W73275   2.990  39.299  14.360
 8049W        W73276  35.278  34.953   0.945
 8050W        W73277  32.243  17.312   5.062
 8051W        W73278  13.323  20.105   4.868
 8052W        W73279  28.062   6.469  14.025
 8053W        W73280  24.996   8.648   0.406
 8054W        W73281  18.215  34.912  14.785
 8055W        W73282  30.982  17.756   4.327
 8056W        W73283  12.593  22.663   0.282
 8057W        W73284   1.892  22.476   4.585
 8058W        W73285   7.821  41.231   3.742
 8059W        W73286  35.651  28.549  12.854
 8060W        W73287  20.750  28.492  14.540
 8061W        W73288  42.056  27.772  13.303
 8062W        W73289  11.312   6.195   1.237
 8063W        W73290   0.981  21.741  11.342
 8064W        W73291  14.655  30.181  10.655
 8065W        W73292  33.890   3.390   3.741
 8066W        W73293  34.529   1.792   3.201
 8067W        W73294  12.023  41.360  12.263
 8068W        W73295   5.962  36.529  14.876
 8069W        W73296  37.597  32.929  10.266
 8070W        W73297  13.417  15.294  11.730
 8071W        W73298  20.017  23.946   4.522
 8072W        W73299  40.588  15.199   4.304
 8073W        W73300  39.896   4.688  13.060
 8074W        W73301  38.830  20.504   3.200
 8075W        W73302  27.210  35.801  12.406
 8076W        W73303   7.846  24.763  14.812
 8077W        W73304   4.583  24.609   2.703
 8078W        W73305  17.134  42.431   0.826
 8079W        W73306  19.339  23.023   0.307
 8080W        W73307   4.598  15.333   3.514
 8081W        W73308  41.835  15.594  14.027
 8082W        W73309  35.480  20.537   2.965
 8083W        W73310  17.357  32.128   1.295
 8084W        W73311  31.851  37.297   0.946
 8085W        W73312   5.929  31.183  14.803
 8086W        W73313   6.665  22.764  11.706
 8087W        W73314  31.162  25.772  13.280
 8088W        W73315  12.554  40.556   0.983
 8089W        W73316  10.299  37.805   1.438
 8090W        W73317  23.144   3.436  14.396
 8091W        W73318  17.820  14.011  11.364
 8092W        W73319  39.778  34.156  11.307
 8093W        W73320  21.623  43.442   2.259
 8094W        W73321  20.062  10.604  13.006
 8095W        W73322  12.202  38.643  11.195
 8096W        W73323  34.449   4.940   4.537
 8097W        W73324  39.391  22.373  14.815
 8098W        W73325  32.622  32.155  12.958
 8099W        W73326  38.627  17.164  13.364
 8100W        W73327  44.695  41.640  11.680
 8101W        W73328  11.282  44.426   1.505
 8102W        W73329  15.778  10.292  13.410
 8103W        W73330  44.886  41.839   0.414
 8104W        W73331  43.534  33.988   1.886
 8105W        W73332   4.388   5.133   2.270
 8106W        W73333  35.449   9.272  10.792
 8107W        W73334   8.695   9.210  12.159
 8108W        W73335  27.021  38.383  11.893
 8109W        W73336   7.230  41.003   0.360
 8110W        W73337  26.744  22.239   3.732
 8111W        W73338   0.301  14.059  11.997
 8112W        W73339  27.068  26.651   3.314
 8113W        W73340   1.594  36.302   2.863
 8114W        W73341  39.932   0.648  14.014
 8115W        W73342   7.909  13.164  13.220
 8116W        W73343  40.255  41.753  12.481
 8117W        W73344   2.396   9.359   1.419
 8118W        W73345   7.340  16.515  10.379
 8119W        W73346  39.959  27.503  13.715
 8120W        W73347  17.108  27.904  11.627
 8121W        W73348  11.624   0.855  11.215
 8122W        W73349  21.101  28.612  13.601
 8123W        W73350  14.144   1.725   4.642
 8124W        W73351  24.152  14.855   1.207
 8125W        W73352  40.815  39.069   2.141
 8126W        W73353  37.752  25.654  13.433
 8127W        W73354  22.694  24.650   4.322
 8128W        W73355  37.969  33.072   3.119
 8129W        W73356  17.017  41.668   4.476
 8130W        W73357   8.009  19.611   0.550
 8131W        W73358  34.941  19.083  13.056
 8132W        W73359  18.759  23.131  10.672
 8133W        W73360  20.765  32.646  12.505
 8134W        W73361  36.534  35.665   3.267
 8135W        W73362  17.034  37.899  10.726
 8136W        W73363   8.671   2.947   4.460
 8137W        W73364  29.698  41.577  14.076
 8138W        W73365   5.331  41.819   1.312
 8139W        W73366  44.649  21.231   4.209
 8140W        W73367  25.017  42.040  10.761
 8141W        W73368  33.378  13.130   3.654
 8142W        W73369  15.536   2.212   4.234
 8143W        W73370  38.536  28.686  12.100
 8144W        W73371  27.263  19.128   2.791
 8145W        W73372  23.741  26.860  12.364
 8146W        W73373   0.115  22.455   3.624
 8147W        W73374  22.498  43.077  10.220
 8148W        W73375   5.228  26.218   9.745
 8149W        W73376  31.629  15.877  13.841
 8150W        W73377  10.751  38.979  11.546
 8151W        W73378   5.896  25.466   1.098
 8152W        W73379  17.659  38.332  12.415
 8153W        W73380  27.498  30.632  14.095
 8154W        W73381  35.955   1.523  10.777
 8155W        W73382  28.237  12.529   4.537
 8156W        W73383  25.976  34.538   4.763
 8157W        W73384  35.077   2.967  11.476
 8158W        W73385  40.587   2.879  12.017
 8159W        W73386  17.010  18.454  13.361
 8160W        W73387  37.331  14.305   4.600
 8161W        W73388   8.659  40.579  14.862
 8162W        W73389  31.372  41.427  10.694
 8163W        W73390  36.324  28.140   2.471
 8164W        W73391  11.334   9.131  12.529
 8165W        W73392   3.924   9.686   1.381
 8166W        W73393  40.453   6.415   1.313
 8167W        W73394  16.257  28.427  10.795
 8168W        W73395  27.505  27.060   9.513
 8169W        W73396  28.743  22.006   3.078
 8170W        W73397   8.756  29.925   2.714
 8171W        W73398   0.805  41.136  14.802
 8172W        W73399   4.408  32.403  11.666
 8173W        W73400  13.299   9.917   0.924
 8174W        W73401  40.275   4.738  14.342
 8175W        W73402   6.443  15.256  12.020
 8176W        W73403  38.499  26.369  12.497
 8177W        W73404  23.000  35.548   0.360
 8178W        W73405  41.719  26.260  12.488
 8179W        W73406  16.515  16.632   3.195
 8180W        W73407   4.240  27.399  14.770
 8181W        W73408  37.315  43.264   0.691
 8182W        W73409  17.090  29.055  14.275
 8183W        W73410  26.392  39.856   1.375
 8184W        W73411  18.197  39.965  12.144
 8185W        W73412   2.725  32.987  13.824
 8186W        W73413  41.920  24.820  13.461
 8187W        W73414   5.176  17.844   0.508
 8188W        W73415   4.426  34.850  12.684
 8189W        W73416  34.593   6.467  11.997
 8190W        W73417  27.680  17.769   3.946
 8191W        W73418   3.483  24.515   0.316
 8192W        W73419  15.417  20.236  11.066
 8193W        W73420   6.652  33.709   4.607
 8194W        W73421  31.517   7.873  14.339
 8195W        W73422  27.477  35.887   4.290
 8196W        W73423   8.038  22.653   1.011
 8197W        W73424  42.729  43.720  14.320
 8198W        W73425   3.251  37.068   1.322
 8199W        W73426  38.305  22.257   1.316
 8200W        W73427  17.758  30.937   1.742
 8201W        W73428  37.936   0.799   4.624
 8202W        W73429  30.488  31.361   4.100
 8203W        W73430  35.101  39.505  13.525
 8204W        W73431  11.841  13.602  14.966
 8205W        W73432  14.859   3.268  11.062
 8206W        W73433   0.383  44.759  11.478
 8207W        W73434   3.238  24.590   2.839
 8208W        W73435  15.166   9.276  11.179
 8209W        W73436  19.026   3.906  11.193
 8210W        W73437  25.969  41.767   1.167
 8211W        W73438  39.930  16.366   4.207
 8212W        W73439  40.709  14.707   1.778
 8213W        W73440  37.704   8.535  13.221
 8214W        W73441  11.253  35.324  11.770
 8215W        W73442  15.011   4.914  14.250
 8216W        W73443  30.966   1.314   2.035
 8217W        W73444  25.000  10.268  14.948
 8218W        W73445  36.887  27.468  13.732
 8219W        W73446  35.530  26.082   0.320
 8220W        W73447  18.194  30.401  14.031
 8221W        W73448   0.030  11.714   2.180
 8222W        W73449  38.880  30.598   4.685
 8223W        W73450  39.385  13.682  11.101
 8224W        W73451  15.112  38.999  12.023
 8225W        W73452  31.178  44.776  11.880
 8226W        W73453  16.333  18.845   0.908
 8227W        W73454   6.068  25.667   2.448
 8228W        W73455  19.065  31.472  10.938
 8229W        W73456   3.834  17.175   3.382
 8230W        W73457  21.105  25.200   4.570
 8231W        W73458  44.427  44.773   1.369
 8232W        W73459  25.655  33.115   3.175
 8233W        W73460  31.652   5.726  13.835
 8234W        W73461  11.555  42.470   3.295
 8235W        W73462  27.574   0.679  13.107
 8236W        W73463  25.750  44.263  14.508
 8237W        W73464  41.820   1.822  13.540
 8238W        W73465  44.429   8.614   1.384
 8239W        W73466  31.025  36.044  10.441
 8240W        W73467  34.097  24.048  11.561
 8241W        W73468  25.985   5.216   3.690
 8242W        W73469   7.594  31.335   3.795
 8243W        W73470   3.739   6.951   0.853
 8244W        W73471  34.063  40.405   4.919
 8245W        W73472   9.300  40.941   1.818
 8246W        W73473   9.248  32.056  12.393
 8247W        W73474  26.715  30.128   4.189
 8248W        W73475   6.940   1.473   2.639
 8249W        W73476  27.406  33.055   0.287
 8250W        W73477  26.354  22.643  14.063
 8251W        W73478  23.200  36.489   3.347
 8252W        W73479   4.305  20.764  12.924
 8253W        W73480  11.572  10.679   0.768
 8254W        W73481  22.716   9.259   4.910
 8255W        W73482  41.988  14.194   2.679
 8256W        W73483  37.680  33.459  11.205
 8257W        W73484  14.218   8.329   0.220
 8258W        W73485  32.793  39.516  13.838
 8259W        W73486  20.181  38.850   1.362
 8260W        W73487  17.714  21.147  13.879
 8261W        W73488   7.678  22.687  12.037
 8262W        W73489  36.397  22.519  13.594
 8263W        W73490  21.611  30.316  14.609
 8264W        W73491  24.399   3.956  13.993
 8265W        W73492  26.042  27.022   1.812
 8266W        W73493  41.205  20.815  12.518
 8267W        W73494  38.218  14.455   1.308
 8268W        W73495   8.921   4.252  12.440
 8269W        W73496  18.323  35.884  11.645
 8270W        W73497   3.222  37.306   0.804
 8271W        W73498  25.284  28.391  11.138
 8272W        W73499   6.995   3.692  13.631
 8273W        W73500  12.095   1.040  10.501
 8274W        W73501  23.665  20.895  10.902
 8275W        W73502  35.176  10.631  11.110
 8276W        W73503   9.352  30.973   0.918
 8277W        W73504  23.662  12.144  11.313
 8278W        W73505  28.469  24.306  10.961
 8279W        W73506  18.399  21.603  11.569
 8280W        W73507  42.063  10.223   2.828
 8281W        W73508  36.129   7.782   3.195
 8282W        W73509  29.961  29.055  14.225
 8283W        W73510   3.822   6.913   2.155
 8284W        W73511  21.133  13.154  12.115
 8285W        W73512   1.800   6.823  11.409
 8286W        W73513  23.696   5.193  13.787
 8287W        W73514   7.895  12.484   0.007
 8288W        W73515   0.235  38.507  11.386
 8289W        W73516   5.519  34.455  11.856
 8290W        W73517  43.822  28.697   3.280
 8291W        W73518  17.311  10.765   1.746
 8292W        W73519  37.370   4.701   3.388
 8293W        W73520  19.706  38.878  14.847
 8294W        W73521  31.653   8.957  12.512
 8295W        W73522  26.368  36.428   5.032
 8296W        W73523  10.788  29.447   0.883
 8297W        W73524   2.712  30.941  12.413
 8298W        W73525  29.719  17.789   0.218
 8299W        W73526   5.392  34.729   2.550
 8300W        W73527  36.618  27.435   3.684
 8301W        W73528  41.258   0.676  12.452
 8302W        W73529  38.796  12.269   2.482
 8303W        W73530  42.479  10.127  10.420
 8304W        W73531  10.909  42.363   4.772
 8305W        W73532  14.444  25.381   2.713
 8306W        W73533  22.041  16.062   1.496
 8307W        W73534  27.172   7.148   3.205
 8308W        W73535  11.675  20.122  10.780
 8309W        W73536  24.020  38.297   0.244
 8310W        W73537   4.737   5.458  11.195
 8311W        W73538  19.874  36.096   3.738
 8312W        W73539  20.177  32.377   1.686
 8313W        W73540   7.621  17.276   1.244
 8314W        W73541  11.645  23.923   3.500
 8315W        W73542  36.047  28.903   0.813
 8316W        W73543   7.362   3.494  14.946
 8317W        W73544  24.903  36.511   0.828
 8318W        W73545  32.642  12.225   4.503
 8319W        W73546  14.719  24.974   3.526
 8320W        W73547  39.050  32.292  14.461
 8321W        W73548  39.503  25.885  11.242
 8322W        W73549  27.031  29.847   3.211
 8323W        W73550   0.453  24.544   5.149
 8324W        W73551   8.150   4.327   4.827
 8325W        W73552  14.860  25.213   5.180
 8326W        W73553  13.138  40.015  14.234
 8327W        W73554   9.300  12.785  14.325
 8328W        W73555  11.316  22.467  13.714
 8329W        W73556  21.087  22.514  10.807
 8330W        W73557  41.021  10.150   1.854
 8331W        W73558  44.966  25.114  11.787
 8332W        W73559  14.471  21.271   4.147
 8333W        W73560  36.001  42.598  12.140
 8334W        W73561  36.387  14.366  11.266
 8335W        W73562  37.484  16.603  14.319
 8336W        W73563  29.074  16.629   3.208
 8337W        W73564  19.769  11.189   3.403
 8338W        W73565  20.881  19.117   1.217
 8339W        W73566  13.226   8.429   4.988
 8340W        W73567  26.447  37.009  13.612
 8341W        W73568  37.926  17.879  12.030
 8342W        W73569   2.470   0.822  11.692
 8343W        W73570  12.741  37.852  10.870
 8344W        W73571   5.453  11.170  12.959
 8345W        W73572  28.650  17.256  13.401
 8346W        W73573  35.849   0.874  12.910
 8347W        W73574  21.299   0.474  11.109
 8348W        W73575  32.881   9.672   0.903
 8349W        W73576  25.290   7.822   3.205
 8350W        W73577  22.162  43.835   4.177
 8351W        W73578  21.180  30.139   0.908
 8352W        W73579  42.350  23.644   3.798
 8353W        W73580  24.487  23.203   1.351
 8354W        W73581  18.110   5.661  12.574
 8355W        W73582  16.452   1.281   0.785
 8356W        W73583   3.907  12.667   2.833
 8357W        W73584  18.564  43.369  14.925
 8358W        W73585  36.482  34.665   4.248
 8359W        W73586   8.726  15.296   1.385
 8360W        W73587  29.004  19.847  10.981
 8361W        W73588  16.712  18.804   1.264
 8362W        W73589   0.764  41.953  11.018
 8363W        W73590  36.492  42.485   1.853
 8364W        W73591   7.459  34.129   3.324
 8365W        W73592  24.035  16.597  14.644
 8366W        W73593  19.318  24.247  10.976
 8367W        W73594  39.332  29.003  11.528
 8368W        W73595   0.566  22.339   1.088
 8369W        W73596   0.912  43.151   1.796
 8370W        W73597  28.977  12.753   0.763
 8371W        W73598  23.431  20.251  13.935
 8372W        W73599  20.200   6.125  11.251
 8373W        W73600  22.733  27.764   4.976
 8374W        W73601  11.558   4.935   1.132
 8375W        W73602   0.976  38.234   1.655
 8376W        W73603  10.707  18.700  13.149
 8377W        W73604  32.137   5.807  11.601
 8378W        W73605   5.247  14.426   2.728
 8379W        W73606  28.171   5.757   2.194
 8380W        W73607  35.130  36.045  13.234
 8381W        W73608  12.072  38.897  14.899
 8382W        W73609  38.815   4.265   4.561
 8383W        W73610  18.165  39.983   2.377
 8384W        W73611   8.160  33.159   4.011
 8385W        W73612  38.934  28.954   0.472
 8386W        W73613  16.826  39.062  14.003
 8387W        W73614  21.717  17.172  12.388
 8388W        W73615  30.995  14.161  13.083
 8389W        W73616  38.754  36.591  10.707
 8390W        W73617  44.574  40.470   5.182
 8391W        W73618  16.240  29.351  10.671
 8392W        W73619  22.766  13.120  13.944
 8393W        W73620  33.522  33.503  14.643
 8394W        W73621   1.239   8.168  14.482
 8395W        W73622  15.827  24.534   4.906
 8396W        W73623  16.133  11.157   1.759
 8397W        W73624  17.183  37.431  13.149
 8398W        W73625  26.169  23.041  12.005
 8399W        W73626  17.836   0.169  14.019
 8400W        W73627  37.413   2.690  11.012
 8401W        W73628   3.178   4.300   3.711
 8402W        W73629  37.399  37.881  12.518
 8403W        W73630   6.176  30.871  12.725
 8404W        W73631   4.684   3.977  13.824
 8405W        W73632  19.510   6.361  13.440
 8406W        W73633  10.657  39.275   2.655
 8407W        W73634   6.327   9.848   0.210
 8408W        W73635  35.674  14.497   3.240
 8409W        W73636  20.015  28.503  14.618
 8410W        W73637  24.032  28.956  14.082
 8411W        W73638  27.263  16.661  11.031
 8412W        W73639  30.440  12.801   0.435
 8413W        W73640   9.395  33.224   4.201
 8414W        W73641  17.666  44.883  10.843
 8415W        W73642  22.132  12.651  11.934
 8416W        W73643  37.234  36.489   4.292
 8417W        W73644  21.090  22.737   1.219
 8418W        W73645   1.397  13.649  12.572
 8419W        W73646  24.075  15.670  13.348
 8420W        W73647  16.118   4.060   1.873
 8421W        W73648  13.819  27.102   0.832
 8422W        W73649  29.179   5.868  14.747
 8423W        W73650  33.587   8.878   5.210
 8424W        W73651  40.011  36.747   2.901
 8425W        W73652  20.609   0.967   2.192
 8426W        W73653   6.747  35.870  10.636
 8427W        W73654   1.382  30.627   4.640
 8428W        W73655  15.075  13.471   4.040
 8429W        W73656  31.770   7.647  14.987
 8430W        W73657  42.872  13.671  12.501
 8431W        W73658   6.219  13.677   1.666
 8432W        W73659  33.511   1.498  10.248
 8433W        W73660  23.916  32.196   3.205
 8434W        W73661   2.518   5.244  14.521
 8435W        W73662  36.549   4.589   3.764
 8436W        W73663   9.968   7.589  12.098
 8437W        W73664  39.881   4.617  14.021
 8438W        W73665   4.670  16.516   9.780
 8439W        W73666  36.942  15.754   2.184
 8440W        W73667  40.238  36.635  11.624
 8441W        W73668  10.910  33.867  12.897
 8442W        W73669  12.934  25.673   1.348
 8443W        W73670  11.432   9.664  10.703
 8444W        W73671  11.742   6.461   1.360
 8445W        W73672   8.381  39.636  10.633
 8446W        W73673   6.903   5.231  10.742
 8447W        W73674   5.190  22.817  14.235
 8448W        W73675   1.991  39.373  11.307
 8449W        W73676  44.089   7.369   0.085
 8450W        W73677  43.860   7.702  13.419
 8451W        W73678  29.864  25.578   2.302
 8452W        W73679  36.883  35.943   3.608
 8453W        W73680  23.766  32.904  13.156
 8454W        W73681   8.862  16.816   5.456
 8455W        W73682  36.876  18.235   3.723
 8456W        W73683  14.672  31.966  12.032
 8457W        W73684  39.179   3.842   4.641
 8458W        W73685  16.229   1.238   1.960
 8459W        W73686  29.107  20.204   0.717
 8460W        W73687   5.447  42.427  11.016
 8461W        W73688  39.022   0.508  12.939
 8462W        W73689  20.977  28.654   1.819
 8463W        W73690  29.861   5.576   4.829
 8464W        W73691  21.735  36.473  10.848
 8465W        W73692  15.930  15.958   4.740
 8466W        W73693   6.091   9.787   4.093
 8467W        W73694  11.838  38.291  11.084
 8468W        W73695  21.024  14.115   2.246
 8469W        W73696   5.393  16.639   3.233
 8470W        W73697  32.408   3.274   1.917
 8471W        W73698  16.078   8.233  12.925
 8472W        W73699  14.656   3.782   0.400
 8473W        W73700  37.321   9.622   3.182
 8474W        W73701  24.587  41.054   1.432
 8475W        W73702   6.679  20.574  14.262
 8476W        W73703  15.282  22.770  14.817
 8477W        W73704   7.667  27.829  12.287
 8478W        W73705  13.325   8.992   4.953
 8479W        W73706  23.080  38.976   3.612
 8480W        W73707  19.093  43.403  12.001
 8481W        W73708  44.730  37.563   1.378
 8482W        W73709  21.631   3.646  13.437
 8483W        W73710   2.964  29.225  11.957
 8484W        W73711  44.462  18.008  13.529
 8485W        W73712   0.440  34.714   3.696
 8486W        W73713  29.032  29.378   3.544
 8487W        W73714  32.719  24.815   2.306
 8488W        W73715  34.576  15.632  14.514
 8489W        W73716  10.874   7.194  14.807
 8490W        W73717  34.809  41.207   0.317
 8491W        W73718   4.389  17.870  14.189
 8492W        W73719  34.834   8.887  11.115
 8493W        W73720  10.692  12.817  14.157
 8494W        W73721  36.446   8.098   1.802
 8495W        W73722   5.189   1.809   1.235
 8496W        W73723  10.284  30.158   4.623
 8497W        W73724   2.996  10.725   0.857
 8498W        W73725  11.898  41.354   4.406
 8499W        W73726  38.843  19.985  14.066
 8500W        W73727  17.973  37.438   2.649
 8501W        W73728  21.983  17.235   4.480
 8502W        W73729  16.478  10.401  11.660
 8503W        W73730  20.999  29.222  11.323
 8504W        W73731  43.638  24.804   2.311
 8505W        W73732  23.174  18.741   0.913
 8506W        W73733   4.853  10.093  12.650
 8507W        W73734  26.499  20.792   3.704
 8508W        W73735   4.517   0.003   4.723
 8509W        W73736  14.047  30.449   1.412
 8510W        W73737  36.862  31.542  12.482
 8511W        W73738  30.147   8.800  14.279
 8512W        W73739  39.609  11.829   4.564
 8513W        W73740  37.804  41.899   3.661
 8514W        W73741  25.725  11.631   0.266
 8515W        W73742   0.499  37.602  13.057
 8516W        W73743  32.891   1.922  13.029
 8517W        W73744  37.651  21.612   3.797
 8518W        W73745   8.907  44.949  11.064
 8519W        W73746   1.936  42.543  11.617
 8520W        W73747   2.383  26.555   3.203
 8521W        W73748  25.086  32.690   3.646
 8522W        W73749  22.040  13.670  14.012
 8523W        W73750  33.989  41.493   4.055
 8524W        W73751  15.365  17.015  13.772
 8525W        W73752  24.762  20.932  10.785
 8526W        W73753  39.098   4.264   2.877
 8527W        W73754  27.390  36.004  10.286
 8528W        W73755  41.983  12.736   2.881
 8529W        W73756  42.281  39.836  14.600
 8530W        W73757  16.042  41.913   4.535
 8531W        W73758  35.516  34.450  14.855
 8532W        W73759  28.668  26.790  12.045
 8533W        W73760  34.479  44.057   2.362
 8534W        W73761  22.744  16.709   4.542
 8535W        W73762   9.928  35.439   4.191
 8536W        W73763  28.997  41.420  12.789
 8537W        W73764  39.841  26.596  14.885
 8538W        W73765   5.751   5.205  13.660
 8539W        W73766  15.418  44.174   1.343
 8540W        W73767   5.094  33.975  13.442
 8541W        W73768  42.083  27.110   4.120
 8542W        W73769   7.449  25.252  11.549
 8543W        W73770  14.296  39.669  14.871
 8544W        W73771  11.429  29.358   4.071
 8545W        W73772  21.418  26.952   3.204
 8546W        W73773  17.099  19.207   0.826
 8547W        W73774  41.473  31.720  10.779
 8548W        W73775  30.611  40.267  11.357
 8549W        W73776  17.347  43.802  14.511
 8550W        W73777  42.580  40.500  13.755
 8551W        W73778  34.449  21.443  13.493
 8552W        W73779   1.292  37.246   1.383
 8553W        W73780   3.431  24.957   3.158
 8554W        W73781  29.066  17.741  10.736
 8555W        W73782  28.585  35.065  13.944
 8556W        W73783   3.008  27.076   2.667
 8557W        W73784  39.095  30.207   2.213
 8558W        W73785  38.355  12.616  12.049
 8559W        W73786  20.734  18.865  12.941
 8560W        W73787   9.771   6.276   1.419
 8561W        W73788  27.864  38.590   2.903
 8562W        W73789  22.567  12.613  14.076
 8563W        W73790  12.728  11.893   2.578
 8564W        W73791   7.845   2.853  11.296
 8565W        W73792  25.786  41.333   0.857
 8566W        W73793  35.029  40.580   3.177
 8567W        W73794   9.626   3.292  14.321
 8568W        W73795  37.906   9.339  12.149
 8569W        W73796  36.440  34.167  13.335
 8570W        W73797  32.975  36.971  14.678
 8571W        W73798  44.274   7.775  11.603
 8572W        W73799   5.898  42.032  11.018
 8573W        W73800  31.117   7.336  13.829
 8574W        W73801  16.849  27.337  11.168
 8575W        W73802  38.684   2.926  13.071
 8576W        W73803  11.384   8.609   4.783
 8577W        W73804  19.754  16.468  13.226
 8578W        W73805  12.412   8.555  14.994
 8579W        W73806  31.102  25.430  14.169
 8580W        W73807  38.084  44.985   2.408
 8581W        W73808   6.336  19.947  11.041
 8582W        W73809  31.878  41.309  12.477
 8583W        W73810   0.877   1.524   1.482
 8584W        W73811  37.392  44.992   0.138
 8585W        W73812  21.286  13.392  12.556
 8586W        W73813   9.895  38.140   1.613
 8587W        W73814  37.084  44.618   1.731
 8588W        W73815   1.759  15.872   2.263
 8589W        W73816  26.392   2.947   4.287
 8590W        W73817  23.858  11.627   2.002
 8591W        W73818   9.673  40.084   2.877
 8592W        W73819  19.630  15.114   4.538
 8593W        W73820  31.865  36.183  13.999
 8594W        W73821  38.149  22.737   0.356
 8595W        W73822   9.802  38.465   4.405
 8596W        W73823  31.022  23.413  12.531
 8597W        W73824  31.599   3.341  10.697
 8598W        W73825  20.778  31.025  13.096
 8599W        W73826   2.253  21.542  13.960
 8600W        W73827   9.044  10.789   1.806
 8601W        W73828  12.048  29.926   0.377
 8602W        W73829   1.176  26.322  14.118
 8603W        W73830  23.520  25.082  11.106
 8604W        W73831   1.801  18.607   2.875
 8605W        W73832  19.444  34.891  12.382
 8606W        W73833   5.306  12.039   3.929
 8607W        W73834  21.259   8.562  13.426
 8608W        W73835  16.742  24.562   2.847
 8609W        W73836  21.125  35.402   3.644
 8610W        W73837   9.195  11.323  13.960
 8611W        W73838  29.437  14.301   0.387
 8612W        W73839  25.882  33.074   1.831
 8613W        W73840  27.501  34.421   2.153
 8614W        W73841  25.718  26.379  14.439
 8615W        W73842  28.382  18.885   3.684
 8616W        W73843   1.473   5.215  14.005
 8617W        W73844   7.813  21.177  11.174
 8618W        W73845  37.463  17.684   4.588
 8619W        W73846   9.844  44.282  12.509
 8620W        W73847  28.521  21.858   0.368
 8621W        W73848  15.526   9.118   4.210
 8622W        W73849  28.880  23.564  13.322
 8623W        W73850  24.696  32.289   2.769
 8624W        W73851  22.812  22.023   4.125
 8625W        W73852  22.172  43.754  11.984
 8626W        W73853   0.707  11.107   3.170
 8627W        W73854  15.908  41.540   3.295
 8628W        W73855  42.445  34.241   2.407
 8629W        W73856  33.094  33.812  14.544
 8630W        W73857  23.445  27.397   1.398
 8631W        W73858   5.226  31.938  13.752
 8632W        W73859  37.823   5.925  14.057
 8633W        W73860   8.893  38.522  14.974
 8634W        W73861  23.631  15.825  13.555
 8635W        W73862  28.598  24.417   2.887
 8636W        W73863  13.806  25.160   1.426
 8637W        W73864   6.909  32.176   2.230
 8638W        W73865   4.793   1.855  12.475
 8639W        W73866   3.193  17.983  13.267
 8640W        W73867  10.393  18.232  11.266
 8641W        W73868  30.831  41.568  10.701
 8642W        W73869  41.441  43.626   4.947
 8643W        W73870   8.280   1.705   3.180
 8644W        W73871  20.006  39.004  11.109
 8645W        W73872   4.318   0.860  11.415
 8646W        W73873  40.375  24.300  11.111
 8647W        W73874  15.108  16.650   4.100
 8648W        W73875  28.468   0.836  13.949
 8649W        W73876  33.925   4.900   4.508
 8650W        W73877   1.845  42.226  10.297
 8651W        W73878  31.908  11.955  12.001
 8652W        W73879  36.206  38.516  14.348
 8653W        W73880  14.019  12.152   1.353
 8654W        W73881  40.144   4.246   3.205
 8655W        W73882   9.249  29.562  14.019
 8656W        W73883  10.700   3.546   1.294
 8657W        W73884  42.991  40.573   4.470
 8658W        W73885  40.520  39.116  13.949
 8659W        W73886  22.516  26.154  14.875
 8660W        W73887  30.631  41.371  12.074
 8661W        W73888  37.409  29.022  14.845
 8662W        W73889  44.819  20.508  13.829
 8663W        W73890   0.219  15.169  12.481
 8664W        W73891  14.421  33.710   3.893
 8665W        W73892  43.441   4.548  14.263
 8666W        W73893  32.323  27.710  10.344
 8667W        W73894   9.393  31.493   0.932
 8668W        W73895  11.120  13.108  13.949
 8669W        W73896  12.229  21.474  10.938
 8670W        W73897  35.902  39.860   2.129
 8671W        W73898  25.127   2.505   2.956
 8672W        W73899  38.009  14.474   1.792
 8673W        W73900  23.961  41.068   2.855
 8674W        W73901  20.667  43.537   3.760
 8675W        W73902   5.371  32.531   3.525
 8676W        W73903  10.685  24.716  12.479
 8677W        W73904   4.347  19.057   0.080
 8678W        W73905  44.439  15.239   0.787
 8679W        W73906  14.050  24.954  11.215
 8680W        W73907   2.329  17.031   1.385
 8681W        W73908  16.843   2.968   3.413
 8682W        W73909  11.139   0.769   1.219
 8683W        W73910  14.146   0.879  12.835
 8684W        W73911  32.424  18.191   4.762
 8685W        W73912   6.673   1.459   1.279
 8686W        W73913  28.845  16.703  13.428
 8687W        W73914  37.446  41.313  14.385
 8688W        W73915  27.019  10.803   4.664
 8689W        W73916  32.826  15.826   4.274
 8690W        W73917  37.279   8.194   2.768
 8691W        W73918  31.470  40.026  11.091
 8692W        W73919  44.033  38.487  13.949
 8693W        W73920  15.610   0.521  11.157
 8694W        W73921   7.307   0.236  11.490
 8695W        W73922   7.773  41.741  10.689
 8696W        W73923  20.151   4.168  13.566
 8697W        W73924  37.601  38.928   3.532
 8698W        W73925  10.012   7.701   0.494
 8699W        W73926  18.104   3.597  14.524
 8700W        W73927  13.889  38.857   1.660
 8701W        W73928  33.555  28.266   2.231
 8702W        W73929  17.166  28.225  12.922
 8703W        W73930   3.686  34.636   4.955
 8704W        W73931  30.380  31.586   5.084
 8705W        W73932  32.988   7.811  14.087
 8706W        W73933  30.052   2.953  11.177
 8707W        W73934  44.639  20.704  14.499
 8708W        W73935  39.827  31.147  14.398
 8709W        W73936  27.960   0.403  12.833
 8710W        W73937  24.544  20.527  11.064
 8711W        W73938   6.052  20.478   3.922
 8712W        W73939   0.102   0.352  13.811
 8713W        W73940   1.572  17.359   5.017
 8714W        W73941  14.172  38.843  12.125
 8715W        W73942  36.581  44.592  13.368
 8716W        W73943  44.247  20.438   0.747
 8717W        W73944   5.386   5.942  13.808
 8718W        W73945  42.304   5.750   0.941
 8719W        W73946  20.762  36.409  12.577
 8720W        W73947  26.976  27.481   5.176
 8721W        W73948  34.444  23.632  11.667
 8722W        W73949  28.578  28.093   3.096
 8723W        W73950  28.192  38.913   1.949
 8724W        W73951  21.225  40.925  14.524
 8725W        W73952  37.968  34.808   0.832
 8726W        W73953   6.466  39.503   2.570
 8727W        W73954  12.924  24.017  12.076
 8728W        W73955  23.761  40.819  11.543
 8729W        W73956  15.876  22.397  13.024
 8730W        W73957  42.460  31.649  14.560
 8731W        W73958   9.681  26.391   1.829
 8732W        W73959  42.731  34.569  13.473
 8733W        W73960  17.302  11.194   0.763
 8734W        W73961  27.995  26.480   0.283
 8735W        W73962   6.781   0.856   0.511
 8736W        W73963  30.503  27.928  14.883
 8737W        W73964   0.700   3.511  13.964
 8738W        W73965  25.069  16.311  11.134
 8739W        W73966   2.340   9.159  14.914
 8740W        W73967  30.949  42.326   0.167
 8741W        W73968  17.477  44.230  13.958
 8742W        W73969  41.493  35.506   1.758
 8743W        W73970  36.375   6.249  12.808
 8744W        W73971  34.269  41.827   3.772
 8745W        W73972   0.616  44.389   4.543
 8746W        W73973  35.067  34.929  11.966
 8747W        W73974  19.423  21.720  11.695
 8748W        W73975  12.779  18.584  12.133
 8749W        W73976  12.616  11.836   4.441
 8750W        W73977  19.719  10.724   3.596
 8751W        W73978  14.628  21.942  11.975
 8752W        W73979   3.337  27.919   3.565
 8753W        W73980  18.649  21.753  14.360
 8754W        W73981  15.203  38.088   1.772
 8755W        W73982   8.129  42.557   2.391
 8756W        W73983  19.801  31.524  11.596
 8757W        W73984   9.446  40.593  11.246
 8758W        W73985  23.510  27.370  12.158
 8759W        W73986  41.311  16.507   4.140
 8760W        W73987  43.991   7.233   3.620
 8761W        W73988   2.505  18.717   1.619
 8762W        W73989  31.395  10.826   0.789
 8763W        W73990  14.333  30.595  11.866
 8764W        W73991  25.507   0.308   1.762
 8765W        W73992   9.669  29.054  14.320
 8766W        W73993   8.337  38.621   2.708
 8767W        W73994  44.895  38.223   0.138
 8768W        W73995  39.018  15.323   2.188
 8769W        W73996   2.413  39.885   4.098
 8770W        W73997   1.717  37.012  14.199
 8771W        W73998   6.654  30.286   0.834
 8772W        W73999  36.484  22.705   3.148
 8773W        W74000  21.278  36.949   3.244
 8774W        W74001  42.521  13.811  12.161
 8775W        W74002  31.041  36.573  14.243
 8776W        W74003  27.975  44.432   2.299
 8777W        W74004  14.340  30.344   2.704
 8778W        W74005  23.776   7.477   4.080
 8779W        W74006   8.814   6.515  13.391
 8780W        W74007   4.849  16.658  14.582
 8781W        W74008  15.596  36.538  13.880
 8782W        W74009  14.556  12.751   4.883
 8783W        W74010   1.384  22.245   2.404
 8784W        W74011  14.599  26.633   3.023
 8785W        W74012  33.474  16.538  13.399
 8786W        W74013  21.245   4.651   3.872
 8787W        W74014  39.053  38.011  13.043
 8788W        W74015  29.432  22.018   1.417
 8789W        W74016  10.240  38.039  13.912
 8790W        W74017  26.420  18.233   4.608
 8791W        W74018  42.010  15.591   1.267
 8792W        W74019   2.413  12.516  13.075
 8793W        W74020  35.313  14.100   3.036
 8794W        W74021   7.349  35.313  11.566
 8795W        W74022  41.521   0.875  12.049
 8796W        W74023   2.084   7.969   2.600
 8797W        W74024  41.282   5.227   1.296
 8798W        W74025  22.104  36.327   3.271
 8799W        W74026  26.857   1.914   1.867
 8800W        W74027  23.210  15.605  12.333
 8801W        W74028  18.418  15.130  11.895
 8802W        W74029  34.173  13.496   4.111
 8803W        W74030  10.718   5.992  11.011
 8804W        W74031  19.020  14.775  13.063
 8805W        W74032   4.822  44.564   3.760
 8806W        W74033  40.463   5.722  14.457
 8807W        W74034  37.303  35.542   4.052
 8808W        W74035  20.157  10.927   3.761
 8809W        W74036  16.867   2.463   3.604
 8810W        W74037   7.440  22.208   3.148
 8811W        W74038  15.046  10.698  14.280
 8812W        W74039  21.218  33.337   3.098
 8813W        W74040  24.804  33.087  13.020
 8814W        W74041  28.102  37.435  10.200
 8815W        W74042  40.427  44.293  12.024
 8816W        W74043   9.208  13.334   0.920
 8817W        W74044  17.808  10.826  13.091
 8818W        W74045  15.285  16.790   4.568
 8819W        W74046  34.068  14.181   2.202
 8820W        W74047  16.694  19.320   1.151
 8821W        W74048   0.150   5.778  12.855
 8822W        W74049  20.109  11.378  12.562
 8823W        W74050  15.671   3.329  11.518
 8824W        W74051   3.324  25.726   0.315
 8825W        W74052  24.205  32.050  12.643
 8826W        W74053  24.770   6.700  13.186
 8827W        W74054  28.709   6.426  13.244
 8828W        W74055  27.694  26.647  14.822
 8829W        W74056   2.273  31.431   1.310
 8830W        W74057  43.439  14.568  11.522
 8831W        W74058  17.046  13.617   4.113
 8832W        W74059  29.043   2.925  14.290
 8833W        W74060  25.221  27.569   4.662
 8834W        W74061  14.371  26.213   0.876
 8835W        W74062  42.305  11.767   4.628
 8836W        W74063  41.483   3.798   3.321
 8837W        W74064  14.548  14.753  13.649
 8838W        W74065   8.842  11.770  13.973
 8839W        W74066  43.600   8.682   4.589
 8840W        W74067  13.885  44.891   0.765
 8841W        W74068  39.075  25.491   0.306
 8842W        W74069   1.867  31.417  14.960
 8843W        W74070  31.015  12.699   0.102
 8844W        W74071  17.842  26.089   4.257
 8845W        W74072  43.861  42.671  12.916
 8846W        W74073   8.380  19.763  12.432
 8847W        W74074  27.540  29.163  14.057
 8848W        W74075  21.047  27.231  13.962
 8849W        W74076  30.293  42.263  13.878
 8850W        W74077  15.983  33.668   5.828
 8851W        W74078  18.279  15.782  13.432
 8852W        W74079   5.275   2.469  11.434
 8853W        W74080  33.388  37.182   1.879
 8854W        W74081  10.341  43.536  12.593
 8855W        W74082   9.793  36.518   0.271
 8856W        W74083  38.505  33.229  13.260
 8857W        W74084  26.487   6.662  11.120
 8858W        W74085  44.424  40.811  14.962
 8859W        W74086  37.883  26.646  13.392
 8860W        W74087  15.808   9.552   4.226
 8861W        W74088  13.275  12.750  12.489
 8862W        W74089  38.277   0.819  12.506
 8863W        W74090   7.366  30.937   4.322
 8864W        W74091  33.117   0.141   0.832
 8865W        W74092   0.257  21.780  12.621
 8866W        W74093  28.288  10.581  11.131
 8867W        W74094  25.736  26.237  13.400
 8868W        W74095   3.649  14.583  12.904
 8869W        W74096  15.525  36.312   2.273
 8870W        W74097  20.267  32.889  14.238
 8871W        W74098   9.167  37.729  14.462
 8872W        W74099  35.802  38.429   9.690
 8873W        W74100  13.361   2.905   2.953
 8874W        W74101  20.354   8.318  12.051
 8875W        W74102  35.741   5.342  13.431
 8876W        W74103  43.980  40.476  13.981
 8877W        W74104  31.116  23.639  14.846
 8878W        W74105  13.922   4.879  11.723
 8879W        W74106  19.844   9.231  11.115
 8880W        W74107   2.972  18.827  13.389
 8881W        W74108  43.053  42.309  12.415
 8882W        W74109  19.528  41.920  13.064
 8883W        W74110   7.707   9.002   4.103
 8884W        W74111   2.091  42.410   3.695
 8885W        W74112  27.637  15.687   0.356
 8886W        W74113   0.999  35.980  13.935
 8887W        W74114  32.634  23.142   1.266
 8888W        W74115   7.327  25.611   0.718
 8889W        W74116  20.245  33.693  11.253
 8890W        W74117  22.796  29.127  13.497
 8891W        W74118  24.688  16.008   3.750
 8892W        W74119  23.600  29.226   3.634
 8893W        W74120   5.951  40.900  12.820
 8894W        W74121  21.744  30.625   2.382
 8895W        W74122  28.431  18.635   0.655
 8896W        W74123  23.227  31.595   2.767
 8897W        W74124  12.446  35.114  13.883
 8898W        W74125  28.472  10.636  12.967
 8899W        W74126  15.528  22.419  12.108
 8900W        W74127  40.367  41.569   4.135
 8901W        W74128  41.773  31.630   3.107
 8902W        W74129  11.350  29.543   1.240
 8903W        W74130  43.753  13.187   0.903
 8904W        W74131  34.645  35.535   0.694
 8905W        W74132  11.696  20.147  11.610
 8906W        W74133  24.985   2.936   2.247
 8907W        W74134   4.513  38.474   3.659
 8908W        W74135  32.188   8.195   4.710
 8909W        W74136   3.748  36.399  10.348
 8910W        W74137  17.651  31.468  10.635
 8911W        W74138  14.994  37.044   0.433
 8912W        W74139   1.752   2.989   0.713
 8913W        W74140  40.987  18.403   0.617
 8914W        W74141   9.151   3.721   2.218
 8915W        W74142  33.976  44.840  13.279
 8916W        W74143  16.542  31.843   3.774
 8917W        W74144   7.081   5.101   4.317
 8918W        W74145  41.834  28.598  14.536
 8919W        W74146  14.120   3.298  12.428
 8920W        W74147   5.362   5.868   4.425
 8921W        W74148  43.024  36.743  13.384
 8922W        W74149   5.386  38.334  12.482
 8923W        W74150  38.394  36.977   2.788
 8924W        W74151  37.059   3.365  11.620
 8925W        W74152  24.968  41.954   1.287
 8926W        W74153  10.436  18.635   3.762
 8927W        W74154  41.936   1.178  11.918
 8928W        W74155  35.167  27.181   0.858
 8929W        W74156  43.780  15.048   3.150
 8930W        W74157  37.393  15.164   1.780
 8931W        W74158  19.483  41.299  12.446
 8932W        W74159  19.346  44.596   1.795
 8933W        W74160  10.435   8.692  10.305
 8934W        W74161  29.558  37.360   3.163
 8935W        W74162  12.103  31.847  12.489
 8936W        W74163   9.307   9.274   3.218
 8937W        W74164  14.757  32.451   3.732
 8938W        W74165  41.747  39.138   0.861
 8939W        W74166  21.160  26.739   4.569
 8940W        W74167   2.972  25.013  14.294
 8941W        W74168   6.377  37.019  13.345
 8942W        W74169  16.029  15.694  12.515
 8943W        W74170   0.079   0.901   0.703
 8944W        W74171   9.682  36.389   4.573
 8945W        W74172   3.881  10.666  14.080
 8946W        W74173  36.566  31.843   0.774
 8947W        W74174  19.217  44.134  13.633
 8948W        W74175  12.323  20.117   4.517
 8949W        W74176   3.461  24.320   4.602
 8950W        W74177   5.206   5.432   4.110
 8951W        W74178   7.674  32.944  14.998
 8952W        W74179  10.106  40.069  14.948
 8953W        W74180  34.322  29.738   3.709
 8954W        W74181  35.309  23.555   2.901
 8955W        W74182  14.062  33.137  14.939
 8956W        W74183  21.084  32.848  10.702
 8957W        W74184  38.543  11.489  11.025
 8958W        W74185  15.923  36.379  14.269
 8959W        W74186  20.711  29.475  11.737
 8960W        W74187  12.022  40.466   2.663
 8961W        W74188  43.934  20.957  11.572
 8962W        W74189  43.784  16.791   1.234
 8963W        W74190  40.132  22.769  11.772
 8964W        W74191   1.335  11.881  14.308
 8965W        W74192  34.007  17.296   3.575
 8966W        W74193  34.466  28.491  13.498
 8967W        W74194  36.073   9.585  13.513
 8968W        W74195   4.933   7.797   0.742
 8969W        W74196   3.739   7.697   3.621
 8970W        W74197  39.419  23.684  14.182
 8971W        W74198   8.717  40.930  11.574
 8972W        W74199  39.518   3.913   0.814
 8973W        W74200  17.559  15.698   3.752
 8974W        W74201  19.553  35.550   4.550
 8975W        W74202  24.008   7.777  12.930
 8976W        W74203  38.606  27.855   3.429
 8977W        W74204   0.080  22.436   1.271
 8978W        W74205  36.609  23.668   0.175
 8979W        W74206  34.511  21.574   0.837
 8980W        W74207  43.886   1.825  10.333
 8981W        W74208  38.989   0.006  12.061
 8982W        W74209   1.330  24.417   0.163
 8983W        W74210   3.808  33.003  10.720
 8984W        W74211  26.963  21.326  13.900
 8985W        W74212  36.155  39.835  12.669
 8986W        W74213  42.338   0.371  14.027
 8987W        W74214  12.527  12.859  10.925
 8988W        W74215  17.004  44.458  13.901
 8989W        W74216  12.824   2.813  10.702
 8990W        W74217  24.017  44.880   1.756
 8991W        W74218  10.805  17.720   2.941
 8992W        W74219  29.438  14.864  10.366
 8993W        W74220   2.562  19.337   2.696
 8994W        W74221  43.282  26.319  10.143
 8995W        W74222   2.262  14.286   2.697
 8996W        W74223  24.638  10.320  14.032
 8997W        W74224   5.304  26.757   2.724
 8998W        W74225  11.771  29.985   4.251
 8999W        W74226  11.509   2.320   4.579
 9000W        W74227  39.296  27.672  11.129
 9001W        W74228  40.836  39.819   3.442
 9002W        W74229   2.272  34.347  12.531
 9003W        W74230  44.301   2.428   0.709
 9004W        W74231  12.181  40.581  12.984
 9005W        W74232  28.448  39.881  12.415
 9006W        W74233  44.255  30.651   3.086
 9007W        W74234  44.921  23.731  13.825
 9008W        W74235  14.370  37.082  11.552
 9009W        W74236  36.124  41.256   3.186
 9010W        W74237  37.980   4.599   4.612
 9011W        W74238  36.061  37.422   0.550
 9012W        W74239  28.508   6.742  11.500
 9013W        W74240  18.856  20.017  11.850
 9014W        W74241   4.220  40.358   3.732
 9015W        W74242   9.944  43.380   3.347
 9016W        W74243  25.936  31.074  12.681
 9017W        W74244  20.864  12.769   0.011
 9018W        W74245   5.698  10.467   1.476
 9019W        W74246  42.734  16.219  11.488
 9020W        W74247  19.630   2.529  11.691
 9021W        W74248  19.560  15.147   1.767
 9022W        W74249  17.524  40.455   2.065
 9023W        W74250  44.953  31.256   5.023
 9024W        W74251  14.362  27.125   0.850
 9025W        W74252  33.899  14.842   1.831
 9026W        W74253  33.546  40.101   3.204
 9027W        W74254  37.617  20.583   1.745
 9028W        W74255  31.004  32.478  14.260
 9029W        W74256   0.421  34.153  10.541
 9030W        W74257  33.637  16.787   1.003
 9031W        W74258  40.271  10.359  14.488
 9032W        W74259  13.300   7.752  13.426
 9033W        W74260  30.671  12.252  12.537
 9034W        W74261  31.833  31.485   3.231
 9035W        W74262  19.828  21.079   1.784
 9036W        W74263  43.362  27.864  13.822
 9037W        W74264   6.998  24.664  12.139
 9038W        W74265  37.971  21.992  13.465
 9039W        W74266  10.179  35.427   1.683
 9040W        W74267  18.135  16.400  12.639
 9041W        W74268   5.265  20.288   3.483
 9042W        W74269  44.241  13.782  10.758
 9043W        W74270   8.527  12.909  10.737
 9044W        W74271  13.708  19.672   2.915
 9045W        W74272  23.013  33.180  11.610
 9046W        W74273  14.480  13.645  13.919
 9047W        W74274  28.380   8.870   0.492
 9048W        W74275   7.856   4.974   0.370
 9049W        W74276  34.447   7.417  13.671
 9050W        W74277  30.984   1.165   0.375
 9051W        W74278  35.347   1.476   1.356
 9052W        W74279  20.993   5.968   1.542
 9053W        W74280  44.193  33.428   1.561
 9054W        W74281  29.624  32.482  11.601
 9055W        W74282  18.563  31.572   1.736
 9056W        W74283  24.732  28.090  11.565
 9057W        W74284  37.871  38.531  11.054
 9058W        W74285  19.753   9.967   3.692
 9059W        W74286  25.258  13.138   1.347
 9060W        W74287  17.390  36.434  12.418
 9061W        W74288   1.323  13.870  11.214
 9062W        W74289  24.589  28.620  13.137
 9063W        W74290  43.415  23.495  11.182
 9064W        W74291  11.491  20.377  11.176
 9065W        W74292  26.673  28.405   4.751
 9066W        W74293  25.110   5.874  10.433
 9067W        W74294   0.956  27.015   1.818
 9068W        W74295  36.160  40.491   0.457
 9069W        W74296  10.224  40.937  11.647
 9070W        W74297  19.282   9.881   0.886
 9071W        W74298  37.567  20.149   2.794
 9072W        W74299   4.327  11.350  13.455
 9073W        W74300  44.632  32.500   1.348
 9074W        W74301  44.503  35.562  11.150
 9075W        W74302  21.685  42.225   1.323
 9076W        W74303  14.609  17.711  10.800
 9077W        W74304  12.678  41.897   4.130
 9078W        W74305  38.604  44.925   3.371
 9079W        W74306   0.409   5.321   3.567
 9080W        W74307  16.322   3.383  11.273
 9081W        W74308   3.487  20.962   3.207
 9082W        W74309  22.903   7.769   1.450
 9083W        W74310   4.486  14.241   1.327
 9084W        W74311  28.416   7.888  14.440
 9085W        W74312  40.751  15.941  12.595
 9086W        W74313   1.261  14.196  10.827
 9087W        W74314  29.629  42.024   3.289
 9088W        W74315  10.757  39.379  13.089
 9089W        W74316  35.714  35.373  12.408
 9090W        W74317  11.181  37.593  13.964
 9091W        W74318  37.828  34.184  14.874
 9092W        W74319  27.759  28.439   1.104
 9093W        W74320  34.564   5.742   3.846
 9094W        W74321  44.471   7.673   1.176
 9095W        W74322   5.860  32.531   0.930
 9096W        W74323  39.585  28.432   1.484
 9097W        W74324   2.978  42.868   0.840
 9098W        W74325   6.374  34.980  14.988
 9099W        W74326  31.092  21.148  12.134
 9100W        W74327  28.405  38.919  11.461
 9101W        W74328   9.834   4.003   0.464
 9102W        W74329   9.727   2.944   1.264
 9103W        W74330  43.197  43.012  11.312
 9104W        W74331  21.065  39.922  10.813
 9105W        W74332  19.065  27.694  14.698
 9106W        W74333  30.852  21.705   4.282
 9107W        W74334   0.897   6.193   1.814
 9108W        W74335  11.383  28.247   4.430
 9109W        W74336  26.196  21.533  14.367
 9110W        W74337  17.273  24.707  12.052
 9111W        W74338   7.723   5.765   0.753
 9112W        W74339  14.310  38.795   3.350
 9113W        W74340   8.766   5.798   4.164
 9114W        W74341  24.229  39.979  12.919
 9115W        W74342  33.685   1.913   3.692
 9116W        W74343  42.944  42.043   1.955
 9117W        W74344   0.498   3.349   0.906
 9118W        W74345  22.326  33.124  12.690
 9119W        W74346   9.097  14.195   2.751
 9120W        W74347  34.348   7.676  12.528
 9121W        W74348   7.245  24.880   1.453
 9122W        W74349   1.750   4.673  12.539
 9123W        W74350  38.520   1.517   4.599
 9124W        W74351  44.081  24.507   2.231
 9125W        W74352  44.936  36.344  13.536
 9126W        W74353  36.935  12.775  13.231
 9127W        W74354   9.328  38.411  13.841
 9128W        W74355  42.309  41.729  12.002
 9129W        W74356  15.571  38.728   1.493
 9130W        W74357  12.399   7.436  13.325
 9131W        W74358  21.576  29.010   2.416
 9132W        W74359   1.120  14.143  14.743
 9133W        W74360   7.542   1.586  12.624
 9134W        W74361  14.518  23.287  14.606
 9135W        W74362  15.788  26.946  12.776
 9136W        W74363  33.546  44.711  13.830
 9137W        W74364  24.536  43.588   1.779
 9138W        W74365  10.859   8.416  10.424
 9139W        W74366  31.867  18.268   2.002
 9140W        W74367   2.446  15.734   3.767
 9141W        W74368  32.133  22.950   2.799
 9142W        W74369  40.139  29.690  11.656
 9143W        W74370  10.362  10.409  14.482
 9144W        W74371  19.770  12.281   2.183
 9145W        W74372  43.612  41.649  12.107
 9146W        W74373  35.003   2.039   4.145
 9147W        W74374  24.583  10.639   3.225
 9148W        W74375   2.414  33.958   1.283
 9149W        W74376  44.611  38.421  14.765
 9150W        W74377   0.500  35.102  11.984
 9151W        W74378   1.280  19.537   2.834
 9152W        W74379  12.740  23.915   4.888
 9153W        W74380  21.659  29.195   1.035
 9154W        W74381  36.043   6.322   0.926
 9155W        W74382  16.081   8.683   0.904
 9156W        W74383  22.948  23.214  12.029
 9157W        W74384  31.010   3.645   1.811
 9158W        W74385  18.746  34.114   2.005
 9159W        W74386  39.710  33.725   2.709
 9160W        W74387  37.829  24.080   1.381
 9161W        W74388  38.983   3.212   4.324
 9162W        W74389  28.669  36.998  14.292
 9163W        W74390  10.707  31.618   0.393
 9164W        W74391  36.504   3.913  10.527
 9165W        W74392   4.456  34.574   0.532
 9166W        W74393  26.981  12.744   1.922
 9167W        W74394  39.571  13.253  14.265
 9168W        W74395  11.167   7.669   4.353
 9169W        W74396  10.087  42.581  14.846
 9170W        W74397   8.843   1.871   4.248
 9171W        W74398  20.237   7.197  11.125
 9172W        W74399   9.727  36.054   0.504
 9173W        W74400  18.750  21.123  10.743
 9174W        W74401  34.946  12.318   3.353
 9175W        W74402  23.249   5.480  13.839
 9176W        W74403  22.768  42.797   4.128
 9177W        W74404  30.763  20.112  12.613
 9178W        W74405  31.631  23.424   5.025
 9179W        W74406   1.287  17.067   3.276
 9180W        W74407  24.066  13.820  11.919
 9181W        W74408   0.973  10.752   0.632
 9182W        W74409   5.496  22.714  13.792
 9183W        W74410   7.743  28.595   2.360
 9184W        W74411  19.278   3.466   3.131
 9185W        W74412  14.743  35.648   4.175
 9186W        W74413  24.656  14.711  12.031
 9187W        W74414  31.910  17.283  13.814
 9188W        W74415  11.381   3.012  13.791
 9189W        W74416  43.737  12.754   1.364
 9190W        W74417  34.914  12.087  11.044
 9191W        W74418   2.881  10.357  12.892
 9192W        W74419  27.899  10.228  11.141
 9193W        W74420  17.020  17.640   1.948
 9194W        W74421  20.513  24.915   1.416
 9195W        W74422  43.902  26.145  11.725
 9196W        W74423  23.460  23.276  12.203
 9197W        W74424   8.282  27.049   1.343
 9198W        W74425   7.320  42.168  11.083
 9199W        W74426  25.551   1.856   2.854
 9200W        W74427  34.416   9.992   0.841
 9201W        W74428  44.202  30.544   0.836
 9202W        W74429  37.636   4.855   0.249
 9203W        W74430  17.710   9.674   3.628
 9204W        W74431  26.571  30.512  10.768
 9205W        W74432   7.805  43.420   1.848
 9206W        W74433   2.915  39.787   4.142
 9207W        W74434   9.787  24.733   2.661
 9208W        W74435  18.977  13.860   4.493
 9209W        W74436   2.909  16.589  12.420
 9210W        W74437  17.406  17.633  14.430
 9211W        W74438  19.233  23.439   2.738
 9212W        W74439   4.154  42.432  11.093
 9213W        W74440  11.943  11.066  14.847
 9214W        W74441  28.028   4.927   4.787
 9215W        W74442   6.653  42.949   1.423
 9216W        W74443  37.645  34.439   1.128
 9217W        W74444  29.915   4.198   4.297
 9218W        W74445   0.949  20.963   4.774
 9219W        W74446  13.336   0.271  11.437
 9220W        W74447  35.629  19.534   0.586
 9221W        W74448  19.057  12.666  13.706
 9222W        W74449  22.898   7.616  12.370
 9223W        W74450  29.236  32.971   3.344
 9224W        W74451  21.819  21.435   2.789
 9225W        W74452   8.437  21.565   4.013
 9226W        W74453  16.518   6.699   0.761
 9227W        W74454  38.608  20.992  12.405
 9228W        W74455  11.157  36.086   3.129
 9229W        W74456  36.841  17.340  11.576
 9230W        W74457  21.185   7.659  14.299
 9231W        W74458  34.609  20.922  14.565
 9232W        W74459  31.711  17.462   2.288
 9233W        W74460  20.269  42.741  12.169
 9234W        W74461  44.246  15.318  10.665
 9235W        W74462  15.299  14.242  13.960
 9236W        W74463  27.229  11.583   0.428
 9237W        W74464  44.179  39.758  10.705
 9238W        W74465   9.773   0.759   3.779
 9239W        W74466   3.313  36.390  12.814
 9240W        W74467  24.435   2.707   0.328
 9241W        W74468  31.583  26.194  14.080
 9242W        W74469  22.522  38.134  11.105
 9243W        W74470  11.079  26.434  10.600
 9244W        W74471   1.480  26.979   2.672
 9245W        W74472  42.196   4.737   1.927
 9246W        W74473  14.803  20.474  13.022
 9247W        W74474  14.375   7.766   4.509
 9248W        W74475  12.278   7.799   3.238
 9249W        W74476  32.544  16.629  13.840
 9250W        W74477  23.520  19.573   1.851
 9251W        W74478  43.932  27.148   0.463
 9252W        W74479  43.765  29.521   2.683
 9253W        W74480  35.835  23.717   1.818
 9254W        W74481  31.031  17.151  14.864
 9255W        W74482   4.955  29.535   2.895
 9256W        W74483  41.936  14.833  14.397
 9257W        W74484  41.446  17.561   2.548
 9258W        W74485   2.687  21.346  12.566
 9259W        W74486   1.732  32.542   1.984
 9260W        W74487  42.569  40.017   2.363
 9261W        W74488   9.202  18.710  13.903
 9262W        W74489  32.761  28.679   4.533
 9263W        W74490  42.763  33.610   4.130
 9264W        W74491  18.956  16.773   2.630
 9265W        W74492   4.216  28.535   0.979
 9266W        W74493  42.742  11.341   2.418
 9267W        W74494  25.034  26.893   2.380
 9268W        W74495  17.300  19.683  14.981
 9269W        W74496  16.598  32.377   1.747
 9270W        W74497  31.242  16.228   4.119
 9271W        W74498  21.074   9.378  11.545
 9272W        W74499   0.298   7.416  13.288
 9273W        W74500  29.855  16.304   4.546
 9274W        W74501  44.368  22.054   1.616
 9275W        W74502  42.516  19.306  14.909
 9276W        W74503  27.424  27.087  13.828
 9277W        W74504  31.948  29.164   1.883
 9278W        W74505   0.758   5.789   3.753
 9279W        W74506  44.550  38.127   2.774
 9280W        W74507   0.343  21.029   1.270
 9281W        W74508  14.890   1.921   9.669
 9282W        W74509  44.223  17.565  13.559
 9283W        W74510   5.477  44.022   3.884
 9284W        W74511   5.044   6.876   2.706
 9285W        W74512  18.224  22.068   1.972
 9286W        W74513  44.583  40.092   1.209
 9287W        W74514  15.280  24.778   4.248
 9288W        W74515  43.848  10.900  11.175
 9289W        W74516   2.839  20.641   2.172
 9290W        W74517  22.137   6.895   0.817
 9291W        W74518  22.592  34.397   4.618
 9292W        W74519  19.756  40.062  14.495
 9293W        W74520   0.152   5.753   1.321
 9294W        W74521  27.344   2.632  12.658
 9295W        W74522  12.573  32.458   2.650
 9296W        W74523  34.052  33.499  11.872
 9297W        W74524  42.948  25.656   2.232
 9298W        W74525   3.316   4.733   1.823
 9299W        W74526   7.655   0.579   4.666
 9300W        W74527  12.341  11.311  12.571
 9301W        W74528  39.545  38.629   2.384
 9302W        W74529   3.149  36.952  10.373
 9303W        W74530  13.717   0.673   2.958
 9304W        W74531   2.868  12.735  10.710
 9305W        W74532  38.100  27.094  13.386
 9306W        W74533  32.386  38.149   5.086
 9307W        W74534  40.479   6.741  14.422
 9308W        W74535  24.160  15.711   4.640
 9309W        W74536  37.113  42.983  12.088
 9310W        W74537  28.961  38.955  14.676
 9311W        W74538  10.603  19.434   1.355
 9312W        W74539  37.138  16.199  14.872
 9313W        W74540  36.801  27.344   0.709
 9314W        W74541  11.905  16.142   0.576
 9315W        W74542  44.415  40.439   4.117
 9316W        W74543  33.935  11.868   4.042
 9317W        W74544  17.542  35.121   1.798
 9318W        W74545  40.399  30.454  12.385
 9319W        W74546  37.689  37.909  10.215
 9320W        W74547   9.590   4.878  14.952
 9321W        W74548  12.245  31.260  13.325
 9322W        W74549  15.759   8.351  14.233
 9323W        W74550  41.575  19.858  11.637
 9324W        W74551  37.551  24.781   3.242
 9325W        W74552  42.020  12.138  12.054
 9326W        W74553   1.028  41.985   2.214
 9327W        W74554  36.480  32.100  13.407
 9328W        W74555  18.972   2.670  11.743
 9329W        W74556  25.276  40.210  12.326
 9330W        W74557  36.332  18.411   3.551
 9331W        W74558  22.077  29.521  13.848
 9332W        W74559  42.148  10.482   1.007
 9333W        W74560  44.879  36.388   2.251
 9334W        W74561  28.410  40.191  11.074
 9335W        W74562  20.722  28.981   2.224
 9336W        W74563  30.138  27.370  12.623
 9337W        W74564  43.811   0.477   4.824
 9338W        W74565  44.896  16.388   0.293
 9339W        W74566  22.985  30.917   2.389
 9340W        W74567  36.516  44.229  10.717
 9341W        W74568  23.633  34.260  12.430
 9342W        W74569  19.476  26.125  12.188
 9343W        W74570  25.676  10.896  12.467
 9344W        W74571  13.810   8.385  11.646
 9345W        W74572  12.812  30.209   3.804
 9346W        W74573   7.674  17.433   2.806
 9347W        W74574  14.577  38.753   2.844
 9348W        W74575   9.298  12.529   2.216
 9349W        W74576  27.012  39.528   3.192
 9350W        W74577   7.664  21.196   1.413
 9351W        W74578  16.816  37.831  11.581
 9352W        W74579  14.881  36.980  11.573
 9353W        W74580   8.410  30.056  14.782
 9354W        W74581  19.633  26.584   1.786
 9355W        W74582  36.047   2.168  14.141
 9356W        W74583  38.357  43.321   0.713
 9357W        W74584  35.507  39.343   4.664
 9358W        W74585  28.531  37.986  14.432
 9359W        W74586  39.300   1.467   1.272
 9360W        W74587  28.259  39.218   4.424
 9361W        W74588  18.130  37.056  12.480
 9362W        W74589  35.597  34.846  12.385
 9363W        W74590  31.232  27.471  12.534
 9364W        W74591  14.966  37.151  13.294
 9365W        W74592  44.618   5.292  14.370
 9366W        W74593  39.892  11.570  12.496
 9367W        W74594   3.068  24.052  11.937
 9368W        W74595  30.722   6.112  10.829
 9369W        W74596  38.061  37.333  12.352
 9370W        W74597  35.613  41.227   3.255
 9371W        W74598  21.331   4.344  14.773
 9372W        W74599  29.647  37.291  11.649
 9373W        W74600  28.647  32.297   3.873
 9374W        W74601  13.334  25.744   2.202
 9375W        W74602  22.789  30.913   3.234
 9376W        W74603  37.057  20.201   3.208
 9377W        W74604  34.606  36.035   5.348
 9378W        W74605  32.227   6.471  10.477
 9379W        W74606  27.298  23.538   4.130
 9380W        W74607  43.905  44.024  10.908
 9381W        W74608   7.412  16.627  14.997
 9382W        W74609  33.790  37.968  10.363
 9383W        W74610  26.899  15.790  11.017
 9384W        W74611  41.713   1.924   2.115
 9385W        W74612  35.442  41.497  14.303
 9386W        W74613  40.966  12.173   3.779
 9387W        W74614  32.627   9.310   4.140
 9388W        W74615  42.717  38.467   0.326
 9389W        W74616   4.870   9.213   4.882
 9390W        W74617  42.955  27.486   1.816
 9391W        W74618  11.074  35.035  11.380
 9392W        W74619  44.993  32.937  12.021
 9393W        W74620  40.198  37.040   4.313
 9394W        W74621  42.745  31.607   2.921
 9395W        W74622   2.465  29.111   1.521
 9396W        W74623  28.623  14.212   5.013
 9397W        W74624  16.698  44.185   0.219
 9398W        W74625  13.874   2.997   3.149
 9399W        W74626  22.179  34.786   4.084
 9400W        W74627  28.214  10.311   4.044
 9401W        W74628  27.545   9.384   0.797
 9402W        W74629  22.462  12.352  14.513
 9403W        W74630   7.214  13.819  12.092
 9404W        W74631   6.352  30.934   0.009
 9405W        W74632  14.349  40.610   2.260
 9406W        W74633  26.680  28.761   0.255
 9407W        W74634  10.847  14.220  13.857
 9408W        W74635  23.937  29.497  10.469
 9409W        W74636  21.476   8.825   4.641
 9410W        W74637  43.878  14.725   1.735
 9411W        W74638  27.976   1.692  13.954
 9412W        W74639  18.034  20.774   1.984
 9413W        W74640   3.798  18.303  12.147
 9414W        W74641  28.961  40.030  13.327
 9415W        W74642  31.474  37.480   4.177
 9416W        W74643  30.972  28.157   0.475
 9417W        W74644  15.192  13.974  14.982
 9418W        W74645   7.102  26.506  10.004
 9419W        W74646   2.970  22.561   3.281
 9420W        W74647  44.640  11.294  11.904
 9421W        W74648  20.568  35.668   4.521
 9422W        W74649  22.003  17.138  13.870
 9423W        W74650  18.013  37.996   1.397
 9424W        W74651   8.824   5.800  14.799
 9425W        W74652  39.489   9.670   0.404
 9426W        W74653   3.878  27.874  11.574
 9427W        W74654   7.759   2.600  10.870
 9428W        W74655  40.849  22.578  13.992
 9429W        W74656  39.388  26.517  12.111
 9430W        W74657  36.369  18.341   3.045
 9431W        W74658  10.046  27.174  12.930
 9432W        W74659  13.734   2.321   1.848
 9433W        W74660   5.531  42.323   1.203
 9434W        W74661  23.631   9.586   3.440
 9435W        W74662  39.423  10.435   3.794
 9436W        W74663   9.281  10.826   4.893
 9437W        W74664  11.204  26.931   4.112
 9438W        W74665  18.683  24.569  13.729
 9439W        W74666   8.894  11.297   0.345
 9440W        W74667  38.396  34.025   1.048
 9441W        W74668   5.327  13.847   2.741
 9442W        W74669  26.500  12.875   0.316
 9443W        W74670   8.348  42.545   0.003
 9444W        W74671  23.900  17.199  11.164
 9445W        W74672  43.642  38.587   2.220
 9446W        W74673  21.104  13.617   3.180
 9447W        W74674  43.689  38.448  11.061
 9448W        W74675  18.126  38.138  11.929
 9449W        W74676   7.309  23.685  13.309
 9450W        W74677  35.473  31.678  11.221
 9451W        W74678  37.063  15.726   0.643
 9452W        W74679  30.220   3.510  13.078
 9453W        W74680  10.383   2.519   2.424
 9454W        W74681   1.846  25.432  11.864
 9455W        W74682  21.443  28.160   0.770
 9456W        W74683  35.354  32.081   0.366
 9457W        W74684  24.097  18.584   0.718
 9458W        W74685   3.208  27.905   1.536
 9459W        W74686  16.815  17.752   2.413
 9460W        W74687  14.292  23.005   2.217
 9461W        W74688  13.200   8.833  10.894
 9462W        W74689  40.562  17.157   0.431
 9463W        W74690  41.962  28.520   1.694
 9464W        W74691  21.645   4.285  12.116
 9465W        W74692  35.017  36.534   1.869
 9466W        W74693   1.048  11.218  14.826
 9467W        W74694   0.698   6.917   3.688
 9468W        W74695  26.579  43.492   3.098
 9469W        W74696  43.608   5.752   4.277
 9470W        W74697   3.913  13.107   4.231
 9471W        W74698  17.909   1.290  13.468
 9472W        W74699  43.333  14.164   4.732
 9473W        W74700  35.853  12.105  14.534
 9474W        W74701   9.771  32.647  14.915
 9475W        W74702  15.157  38.313   2.262
 9476W        W74703  11.457  26.542  12.036
 9477W        W74704  31.554   8.130   1.214
 9478W        W74705  39.057  16.692   1.360
 9479W        W74706   4.373  10.751   4.683
 9480W        W74707  34.789  11.854  12.364
 9481W        W74708   6.654  17.343  13.034
 9482W        W74709  35.492  44.089  13.108
 9483W        W74710  10.303   6.264   1.379
 9484W        W74711   7.761  23.400   1.866
 9485W        W74712   5.324  10.800   4.665
 9486W        W74713   3.979  21.599   0.767
 9487W        W74714  30.029  10.128  14.488
 9488W        W74715   4.030  39.948   1.285
 9489W        W74716  16.668  43.769  12.115
 9490W        W74717  34.211  40.634  13.878
 9491W        W74718  41.148   0.765   1.368
 9492W        W74719  13.098  29.111   3.174
 9493W        W74720  34.767  24.430   1.778
 9494W        W74721  28.996  17.189   5.069
 9495W        W74722  44.829  13.860   4.449
 9496W        W74723   2.808   3.828  14.984
 9497W        W74724   6.945  23.208   3.124
 9498W        W74725  18.887  10.011  12.580
 9499W        W74726   2.780  25.799   2.352
 9500W        W74727  15.189  33.950  13.062
 9501W        W74728  28.472  40.677   0.135
 9502W        W74729  23.376  36.859  14.069
 9503W        W74730   8.573   2.399   1.912
 9504W        W74731  34.818  12.185  10.464
 9505W        W74732  36.381  12.106   1.915
 9506W        W74733   4.493  38.501  12.349
 9507W        W74734  36.547  34.742  11.301
 9508W        W74735   3.108  41.217   5.002
 9509W        W74736  22.691  26.383  10.485
 9510W        W74737  15.696  43.441  12.896
 9511W        W74738  31.567  13.844  11.306
 9512W        W74739   8.823   0.847   1.904
 9513W        W74740  29.927  12.739  12.403
 9514W        W74741  35.173   7.142   3.292
 9515W        W74742   8.118  41.021  13.334
 9516W        W74743  35.056  14.667   0.810
 9517W        W74744  26.749  14.051  12.590
 9518W        W74745  24.039  15.232   4.867
 9519W        W74746  31.721  28.269   3.339
 9520W        W74747  40.562  24.245  12.608
 9521W        W74748   7.724  28.213  11.302
 9522W        W74749   9.982  19.159  12.045
 9523W        W74750  23.143  38.452   3.582
 9524W        W74751  29.115  19.753  13.251
 9525W        W74752  26.196  28.621  10.704
 9526W        W74753  17.196  19.540   9.929
 9527W        W74754  17.653  18.108   1.672
 9528W        W74755  42.885   3.718  13.478
 9529W        W74756  25.039  21.298  13.559
 9530W        W74757  18.623  13.778  14.779
 9531W        W74758   6.314   4.621   4.977
 9532W        W74759  18.289  40.781   2.795
 9533W        W74760  27.639  38.909   3.636
 9534W        W74761  17.760  23.536   4.132
 9535W        W74762   2.985  28.144   0.992
 9536W        W74763  40.287  12.348  14.470
 9537W        W74764  40.856   6.593  10.740
 9538W        W74765  22.390  44.720  12.355
 9539W        W74766  44.117  41.450  13.478
 9540W        W74767  11.720  25.204  14.837
 9541W        W74768   7.301  40.923  11.876
 9542W        W74769  43.283   4.951  14.593
 9543W        W74770  13.224  16.750  13.036
 9544W        W74771  22.035  37.977  14.987
 9545W        W74772  19.193   5.197   4.527
 9546W        W74773  17.152  39.500   0.881
 9547W        W74774  28.601  14.778  14.113
 9548W        W74775   9.305  17.330   2.387
 9549W        W74776  32.832   6.788   0.289
 9550W        W74777   0.718  39.509   1.404
 9551W        W74778   4.696  44.450  13.371
 9552W        W74779   0.038  20.663   2.248
 9553W        W74780  26.663  10.462   3.675
 9554W        W74781  41.114  37.834  14.175
 9555W        W74782  14.773  27.481   3.255
 9556W        W74783  12.353  14.690  11.494
 9557W        W74784   0.952   7.925   1.774
 9558W        W74785  34.570   0.833  11.208
 9559W        W74786   0.610  37.985   3.688
 9560W        W74787  31.622  27.904   0.411
 9561W        W74788  19.629  12.314   3.391
 9562W        W74789  34.937  27.525   3.924
 9563W        W74790  28.217  34.462  11.985
 9564W        W74791  36.088   4.472   2.651
 9565W        W74792   1.038  25.920  11.435
 9566W        W74793   7.772  42.402   2.801
 9567W        W74794  24.441   9.201  13.740
 9568W        W74795   6.207  11.300  14.238
 9569W        W74796  34.277  26.290   2.675
 9570W        W74797  40.931  23.739   0.900
 9571W        W74798  13.603  17.193  14.161
 9572W        W74799   2.393  35.133  13.524
 9573W        W74800  31.919   1.893  14.365
 9574W        W74801   8.082  18.713  12.888
 9575W        W74802   2.001  38.884   3.731
 9576W        W74803  31.016  19.685  13.911
 9577W        W74804  36.619  40.822  14.308
 9578W        W74805  36.749  29.738  14.661
 9579W        W74806  15.310  12.182  12.485
 9580W        W74807  12.594  27.001  10.632
 9581W        W74808  28.889   6.325   4.214
 9582W        W74809  29.251  44.468  11.083
 9583W        W74810  19.897  28.849  14.108
 9584W        W74811  33.093  42.232  12.752
 9585W        W74812  21.085  30.685   0.292
 9586W        W74813  30.523  27.666  11.789
 9587W        W74814  24.581   8.308  10.729
 9588W        W74815  38.933  27.309  12.943
 9589W        W74816  20.054  16.907  11.157
 9590W        W74817   8.390  33.788   4.883
 9591W        W74818  22.470   8.723  14.645
 9592W        W74819   7.320  16.535   4.922
 9593W        W74820   9.825  19.190   3.602
 9594W        W74821  23.550   9.122  14.768
 9595W        W74822   8.145  16.768  12.042
 9596W        W74823  17.070  22.389  10.691
 9597W        W74824  27.078  40.207  13.668
 9598W        W74825  14.746  22.625  11.187
 9599W        W74826  20.823  31.388   2.475
 9600W        W74827  17.052  25.592   4.108
 9601W        W74828  23.449  38.022   3.566
 9602W        W74829  21.068   5.714  12.645
 9603W        W74830  43.197  44.167  10.618
 9604W        W74831  31.538  25.645  13.924
 9605W        W74832   3.818   8.386  14.385
 9606W        W74833  19.109  12.278  11.782
 9607W        W74834  38.918  38.792   1.201
 9608W        W74835  37.830   1.816  14.411
 9609W        W74836  39.076   7.647   1.726
 9610W        W74837   6.850  14.113  14.331
 9611W        W74838  16.577   9.276   0.328
 9612W        W74839  33.719  19.570   0.933
 9613W        W74840  28.100  26.046  14.338
 9614W        W74841  35.463  41.032   1.214
 9615W        W74842  29.017  17.407   9.870
 9616W        W74843  17.660  31.172  12.107
 9617W        W74844  26.200  33.816  13.763
 9618W        W74845  38.039  26.525   3.886
 9619W        W74846  11.592  18.907  13.266
 9620W        W74847  38.514  30.560   0.918
 9621W        W74848  17.698   3.646  11.160
 9622W        W74849  41.852  38.813  10.815
 9623W        W74850  21.700  25.164  14.525
 9624W        W74851  44.498  14.035   4.095
 9625W        W74852   3.220  22.326  12.809
 9626W        W74853  13.912  26.254  12.606
 9627W        W74854  33.078   2.498  13.899
 9628W        W74855  24.600  29.645   0.843
 9629W        W74856  23.983  43.848   3.654
 9630W        W74857  23.367  38.457  11.182
 9631W        W74858  25.214  41.388   2.754
 9632W        W74859   8.331  32.569   2.276
 9633W        W74860   0.985  44.287  13.958
 9634W        W74861  12.240   6.503  13.457
 9635W        W74862  35.876  10.642  14.330
 9636W        W74863   3.434  11.261   0.043
 9637W        W74864  15.361  34.284   3.304
 9638W        W74865  26.516  21.072  14.047
 9639W        W74866  42.919  20.130   1.646
 9640W        W74867   8.762   1.749   2.909
 9641W        W74868   6.409  22.112   3.319
 9642W        W74869  39.093  13.339  12.950
 9643W        W74870  14.824  18.586   3.685
 9644W        W74871   5.182  40.094   3.668
 9645W        W74872  12.918  42.535   3.768
 9646W        W74873  23.266  36.977  11.973
 9647W        W74874  26.508  38.535  11.141
 9648W        W74875  40.015  31.950   0.758
 9649W        W74876  11.681  32.844   2.829
 9650W        W74877   1.467   5.753   1.242
 9651W        W74878  10.197  23.538  10.713
 9652W        W74879  33.555  33.143   3.874
 9653W        W74880  13.831  13.803  11.719
 9654W        W74881  36.383  18.818   0.321
 9655W        W74882  19.373  20.114  11.913
 9656W        W74883  42.595  25.695  11.490
 9657W        W74884  13.248  37.091   1.369
 9658W        W74885  21.611  21.476  10.749
 9659W        W74886  11.353  15.608  14.554
 9660W        W74887   6.257  19.794  14.813
 9661W        W74888  30.414   8.413  13.481
 9662W        W74889  11.271  35.607  12.639
 9663W        W74890  15.129   5.824   3.617
 9664W        W74891  33.923   7.577   0.806
 9665W        W74892   7.472  40.532   0.252
 9666W        W74893  38.778  40.814   2.810
 9667W        W74894  30.066  24.961   2.793
 9668W        W74895  15.745  25.308  10.718
 9669W        W74896  42.347  29.616   0.010
 9670W        W74897  38.950  36.638   4.590
 9671W        W74898  22.255   2.244  14.356
 9672W        W74899   4.523  21.787   1.053
 9673W        W74900  32.209   8.926  13.946
 9674W        W74901   3.878  17.258   0.365
 9675W        W74902   2.886  16.622   2.096
 9676W        W74903  13.419  20.107   2.888
 9677W        W74904  22.707  21.359   1.441
 9678W        W74905  30.109  21.270  13.173
 9679W        W74906  25.987  36.421   1.744
 9680W        W74907  30.445   7.242   2.243
 9681W        W74908  15.586  31.127  12.159
 9682W        W74909  13.370   9.150   2.800
 9683W        W74910  20.157  18.214  13.238
 9684W        W74911  41.044  44.052  14.206
 9685W        W74912  22.165   9.426  14.974
 9686W        W74913  32.617   3.213  14.452
 9687W        W74914  11.668  25.469  11.860
 9688W        W74915   7.677  36.280  13.544
 9689W        W74916  11.578   6.264  11.931
 9690W        W74917  19.367  44.380   1.285
 9691W        W74918  26.404  18.041   4.124
 9692W        W74919  26.535  30.152  11.596
 9693W        W74920  35.812   4.822  10.705
 9694W        W74921  38.882  21.120   1.870
 9695W        W74922  37.023   2.879   4.305
 9696W        W74923  36.862   4.682  11.972
 9697W        W74924  10.199   0.991  12.523
 9698W        W74925   8.446  20.147   3.593
 9699W        W74926  18.501  36.891   1.067
 9700W        W74927   2.761   7.007  12.934
 9701W        W74928  15.162  33.400   3.675
 9702W        W74929  38.192  15.824   1.719
 9703W        W74930  29.582  33.058  11.690
 9704W        W74931  34.665  28.909  13.773
 9705W        W74932  43.985  43.382  13.940
 9706W        W74933  38.989  40.546   4.187
 9707W        W74934  22.988  39.943   0.719
 9708W        W74935  17.174  38.424   3.241
 9709W        W74936   3.093  27.879  11.218
 9710W        W74937  34.925  14.203   1.461
 9711W        W74938  27.556  40.022   0.217
 9712W        W74939  23.192  25.110   0.435
 9713W        W74940  38.339  13.754  14.675
 9714W        W74941  42.974  41.582   4.519
 9715W        W74942  38.327  26.003   2.706
 9716W        W74943   0.874   0.013  11.227
 9717W        W74944  44.475  33.955   2.364
 9718W        W74945   3.451  17.465  13.929
 9719W        W74946   3.794   6.636  12.385
 9720W        W74947  17.323   4.832   1.267
 9721W        W74948  14.456   9.701  10.253
 9722W        W74949  37.027  14.077   3.787
 9723W        W74950  19.138  39.675   4.079
 9724W        W74951  12.452  36.259  13.498
 9725W        W74952  42.911  28.376   5.110
 9726W        W74953   1.379  42.401   2.812
 9727W        W74954  41.423  30.211   3.431
 9728W        W74955  14.988  10.837   4.134
 9729W        W74956  41.387  41.116   4.100
 9730W        W74957   4.769  35.142  14.630
 9731W        W74958  42.031  43.082   9.831
 9732W        W74959  24.354  23.375   2.549
 9733W        W74960  40.499   1.742  12.045
 9734W        W74961   9.698   4.407   4.838
 9735W        W74962  29.770  19.735  10.850
 9736W        W74963  26.718   9.056   2.741
 9737W        W74964  24.895  15.616   4.059
 9738W        W74965   1.301  12.651  13.915
 9739W        W74966  19.035  14.597   1.461
 9740W        W74967  39.588  35.461   2.726
 9741W        W74968  13.657   9.009  12.842
 9742W        W74969  11.176  28.850   0.330
 9743W        W74970  23.008  42.332  10.668
 9744W        W74971  25.739  18.061   0.269
 9745W        W74972  26.884   6.450  12.512
 9746W        W74973  37.067  28.576   2.252
 9747W        W74974  12.685   6.649   1.329
 9748W        W74975  40.527  34.824   0.783
 9749W        W74976   4.387  17.190   0.369
 9750W        W74977   6.561  15.919  13.808
 9751W        W74978  38.835  13.378  10.399
 9752W        W74979   5.631  39.873   3.750
 9753W        W74980   7.250  39.318   1.169
 9754W        W74981  11.407  42.355   4.903
 9755W        W74982  42.936  44.217  13.338
 9756W        W74983   7.408  10.949   3.646
 9757W        W74984  31.079  44.394   0.314
 9758W        W74985  30.669  33.163  13.956
 9759W        W74986  34.636  18.511   1.388
 9760W        W74987  15.928  32.127  11.507
 9761W        W74988  41.364  10.581  12.797
 9762W        W74989  41.439  22.520   1.664
 9763W        W74990  12.511   0.122   3.555
 9764W        W74991  35.816  18.993   2.413
 9765W        W74992   4.350   9.171  10.229
 9766W        W74993  21.555  29.615   4.850
 9767W        W74994   7.381  41.386  11.541
 9768W        W74995   4.905   5.943  11.221
 9769W        W74996   2.054  41.414  11.189
 9770W        W74997  11.224  19.844   1.741
 9771W        W74998  15.629  12.278   0.402
 9772W        W74999  36.918  19.554   0.255
 9773W        W75000  11.117  32.600  11.981
 9774W        W75001  16.141  24.989   3.299
 9775W        W75002  38.413  43.283   2.810
 9776W        W75003  39.340   1.301   2.063
 9777W        W75004  36.083  40.801   0.018
 9778W        W75005  41.552   8.710   1.798
 9779W        W75006   8.121  35.573  12.959
 9780W        W75007  27.639  14.520   4.088
 9781W        W75008   4.144  13.608  12.004
 9782W        W75009  29.901  36.075   1.249
 9783W        W75010   9.176   1.306  12.065
 9784W        W75011  43.709  23.983   2.902
 9785W        W75012  17.036   3.283   1.795
 9786W        W75013  21.000  36.008   2.279
 9787W        W75014  37.808  37.582  11.980
 9788W        W75015  16.445  23.784   1.763
 9789W        W75016  33.070   8.233   3.524
 9790W        W75017  20.424  20.216   0.652
 9791W        W75018  40.402  29.647   2.189
 9792W        W75019  40.533  36.274  11.169
 9793W        W75020  14.410  35.810   1.635
 9794W        W75021   9.725  11.429  10.711
 9795W        W75022  43.316  28.479  10.642
 9796W        W75023  43.986   3.239  14.515
 9797W        W75024   2.373  44.998   1.094
 9798W        W75025  42.044  22.493  13.545
 9799W        W75026  14.841  33.078   0.791
 9800W        W75027   9.772  29.368  11.545
 9801W        W75028  10.299   0.520   1.486
 9802W        W75029  42.000  32.037  12.421
 9803W        W75030  36.031  19.510  11.471
 9804W        W75031  37.735  44.835   0.891
 9805W        W75032   7.465  15.226  12.825
 9806W        W75033  44.650  10.320   3.416
 9807W        W75034   3.825  12.163  12.433
 9808W        W75035  30.670  19.228  12.610
 9809W        W75036   3.859  44.844  11.859
 9810W        W75037  34.541  27.914   1.385
 9811W        W75038   8.973   6.238  14.518
 9812W        W75039  43.308   4.252  11.398
 9813W        W75040  12.629  25.568   2.315
 9814W        W75041  18.350   6.687   1.738
 9815W        W75042  16.059  29.849  13.161
 9816W        W75043  33.111  41.718  12.647
 9817W        W75044  21.958  36.552  14.523
 9818W        W75045  40.879  20.995  12.895
 9819W        W75046  20.951  17.577   2.295
 9820W        W75047  43.228  20.752  10.481
 9821W        W75048  25.083  22.168  12.766
 9822W        W75049  12.226  16.960   0.318
 9823W        W75050  25.957  34.933  10.841
 9824W        W75051  32.925  15.336  13.746
 9825W        W75052  14.706  32.187   4.198
 9826W        W75053   4.156   2.932   2.931
 9827W        W75054   3.002  33.510  12.972
 9828W        W75055  23.847  41.687   5.073
 9829W        W75056  30.402  29.099  13.349
 9830W        W75057   2.916  31.364  12.094
 9831W        W75058  44.211   3.961  12.368
 9832W        W75059  25.183  31.251   0.382
 9833W        W75060   3.422  30.842   4.609
 9834W        W75061  25.755  27.614  12.045
 9835W        W75062  42.283   2.366  12.470
 9836W        W75063  38.732  10.550   4.053
 9837W        W75064  42.872  28.866   4.187
 9838W        W75065  35.812   0.700   4.623
 9839W        W75066  38.366  16.863   0.356
 9840W        W75067  24.912   4.313  11.543
 9841W        W75068   9.390  13.734   3.697
 9842W        W75069  41.519  31.974  12.195
 9843W        W75070  22.113  11.715   3.851
 9844W        W75071   4.827   8.278  13.143
 9845W        W75072  16.118  32.149  10.173
 9846W        W75073  19.098  40.203   2.655
 9847W        W75074  34.463  38.506  12.615
 9848W        W75075  16.613   2.401   1.681
 9849W        W75076  33.694  26.509  13.385
 9850W        W75077  35.019  24.729   2.311
 9851W        W75078   7.461  41.386  14.739
 9852W        W75079  16.890  25.029  12.075
 9853W        W75080   5.385  10.922   4.143
 9854W        W75081   3.805  33.889   3.134
 9855W        W75082  23.640  28.690   2.180
 9856W        W75083  38.797  26.608   3.173
 9857W        W75084  20.289  16.288   2.774
 9858W        W75085  20.240  23.042  10.968
 9859W        W75086  38.508  38.526   0.371
 9860W        W75087   2.948  35.548   4.648
 9861W        W75088  35.494  44.112  12.038
 9862W        W75089  23.767  31.703  11.446
 9863W        W75090  36.162  16.106   2.735
 9864W        W75091  35.382  41.866  11.618
 9865W        W75092  15.554   1.701  12.400
 9866W        W75093  28.383  17.616  14.825
 9867W        W75094  21.046  18.453  11.529
 9868W        W75095  28.566  14.827   1.663
 9869W        W75096  42.522   4.346   0.346
 9870W        W75097  12.824  28.136  12.511
 9871W        W75098   8.579   0.804  14.660
 9872W        W75099  38.485   7.390  13.289
 9873W        W75100  39.569  29.067   1.862
 9874W        W75101  33.630   5.693   4.194
 9875W        W75102  22.087  24.370   5.118
 9876W        W75103  34.014   7.205  14.837
 9877W        W75104  34.084  20.202   2.848
 9878W        W75105  17.852   2.073   3.293
 9879W        W75106   1.349   5.449   3.220
 9880W        W75107  24.282  30.846  14.923
 9881W        W75108  44.336   6.434   4.649
 9882W        W75109   6.446  43.325  10.729
 9883W        W75110  44.108  42.778   4.572
 9884W        W75111  36.574  41.765  14.400
 9885W        W75112  22.013  17.554   1.432
 9886W        W75113  16.089  13.258  12.353
 9887W        W75114  36.923  11.849  12.059
 9888W        W75115  19.661  23.672  14.462
 9889W        W75116   8.866  17.853   2.275
 9890W        W75117   6.610   4.686   3.269
 9891W        W75118   6.411  24.980   9.870
 9892W        W75119  14.185  11.071  12.842
 9893W        W75120  30.630  32.918  10.775
 9894W        W75121  36.461   1.244   3.190
 9895W        W75122  23.116  21.781  12.058
 9896W        W75123  42.837  16.218   1.284
 9897W        W75124   4.302  12.836  14.453
 9898W        W75125  22.563  12.869  13.080
 9899W        W75126  22.807  22.393  10.735
 9900W        W75127  15.100  11.299   3.340
 9901W        W75128  29.725  39.519   0.026
 9902W        W75129  31.638  38.623  13.996
 9903W        W75130  21.788   9.633   2.745
 9904W        W75131   8.780  29.676   3.190
 9905W        W75132  12.148  41.173   3.153
 9906W        W75133   6.437  32.891  11.036
 9907W        W75134  24.209  15.332   1.393
 9908W        W75135  43.320   4.862   3.749
 9909W        W75136  37.454  17.340   1.407
 9910W        W75137   3.174  38.540  11.003
 9911W        W75138   0.618  36.755  12.096
 9912W        W75139  44.578   2.273   2.636
 9913W        W75140  38.550  35.858   2.278
 9914W        W75141  11.876   7.623  12.001
 9915W        W75142   9.935  15.077   1.952
 9916W        W75143  22.254   1.908   2.655
 9917W        W75144  25.135  39.925  14.310
 9918W        W75145   4.824   4.412   1.212
 9919W        W75146   6.777  18.849  11.547
 9920W        W75147  14.170   0.785   1.310
 9921W        W75148  39.826  26.795  14.280
 9922W        W75149  40.572  23.735  14.414
 9923W        W75150  20.146  41.085  12.603
 9924W        W75151  40.502  27.979   0.297
 9925W        W75152  15.945  33.677  12.105
 9926W        W75153  34.525   5.804  11.425
 9927W        W75154  12.618  27.873  14.767
 9928W        W75155   3.077  42.367  13.725
 9929W        W75156  36.163  11.578   4.734
 9930W        W75157  18.052  28.898   3.712
 9931W        W75158  40.053  38.119   3.563
 9932W        W75159  32.386  23.698   5.001
 9933W        W75160  26.606  15.178   0.092
 9934W        W75161   6.749  24.580   4.454
 9935W        W75162  11.135  30.162   4.987
 9936W        W75163  43.299   2.486   0.672
 9937W        W75164   0.379  41.940  10.672
 9938W        W75165  43.844  32.958  14.769
 9939W        W75166  21.357  29.354   4.094
 9940W        W75167  41.015  14.047  13.982
 9941W        W75168  42.998  30.374   4.685
 9942W        W75169  23.066  13.630  13.009
 9943W        W75170  12.549  11.164   3.260
 9944W        W75171  27.916  32.170  12.426
 9945W        W75172  40.642  43.471  13.566
 9946W        W75173  30.573  23.025  13.564
 9947W        W75174  40.348  20.183  13.857
 9948W        W75175  39.097  24.669  11.618
 9949W        W75176  33.384  39.537  12.868
 9950W        W75177  43.576  25.023   0.618
 9951W        W75178  23.734  29.721   0.806
 9952W        W75179  15.961  23.337  12.073
 9953W        W75180   5.752  12.177  11.624
 9954W        W75181   2.693  16.315   3.223
 9955W        W75182   8.287  13.586  10.276
 9956W        W75183  15.134  20.707   4.546
 9957W        W75184  16.557  41.318  13.480
 9958W        W75185  25.616  12.136  13.861
 9959W        W75186  21.739  27.231  12.807
 9960W        W75187  41.974  39.763  13.839
 9961W        W75188  33.126  16.785   4.217
 9962W        W75189  42.175  41.231  12.042
 9963W        W75190  18.538  10.673  10.390
 9964W        W75191  37.119  28.974  11.971
 9965W        W75192  28.150  31.108  12.503
 9966W        W75193  40.035  31.434   2.838
 9967W        W75194  19.491  27.154  13.637
 9968W        W75195  14.883  14.693   1.474
 9969W        W75196   9.194  17.563  13.704
 9970W        W75197   2.358   7.687   1.481
 9971W        W75198  22.063   4.997   0.028
 9972W        W75199  17.976  22.881   3.103
 9973W        W75200  22.326  23.563  14.503
 9974W        W75201  41.027  42.433  14.787
 9975W        W75202   6.936  14.400  14.784
 9976W        W75203  44.774   3.468  13.358
 9977W        W75204  17.308  30.397  13.780
 9978W        W75205  12.283   0.950   0.898
 9979W        W75206  42.492   3.511  14.408
 9980W        W75207   8.731  41.485   3.246
 9981W        W75208  27.170  22.001  10.700
 9982W        W75209  24.240   6.230  13.493
 9983W        W75210  22.219  15.687   4.381
 9984W        W75211  10.733  26.969   1.121
 9985W        W75212  14.973  35.645   0.278
 9986W        W75213  25.990  13.208   1.941
 9987W        W75214  13.873  13.018   1.462
 9988W        W75215  21.954  14.777  14.404
 9989W        W75216  33.542   8.446   0.022
 9990W        W75217   9.025   7.642  13.951
 9991W        W75218   7.842  43.824  12.399
 9992W        W75219  39.911  42.767   1.403
 9993W        W75220  35.606  14.609  14.269
 9994W        W75221  36.834   4.686  11.081
 9995W        W75222  38.069  30.455  12.903
 9996W        W75223  40.978   4.288  13.365
 9997W        W75224   0.764  28.646   1.112
 9998W        W75225   2.294  10.849   2.202
 9999W        W75226   7.826   6.874   4.912
10000W        W75227  34.449  30.611   0.900
10001W        W75228  28.002  19.510  13.034
10002W        W75229  43.956  11.074   2.680
10003W        W75230  38.411  14.789  12.127
10004W        W75231  33.306  18.867  14.752
10005W        W75232  30.420  33.987   0.144
10006W        W75233  30.688  25.661  13.426
10007W        W75234   6.743  21.301   1.285
10008W        W75235  14.778  15.015  12.830
10009W        W75236  34.686   8.182   2.137
10010W        W75237  17.697  17.015   4.319
10011W        W75238   2.445  42.322   2.329
10012W        W75239  36.850  18.212   4.240
10013W        W75240  15.445  24.886  13.728
10014W        W75241  42.514  44.727  14.426
10015W        W75242  18.361   3.310   3.660
10016W        W75243  35.403  21.238  13.929
10017W        W75244  42.711  36.589   1.690
10018W        W75245   2.831   4.066  14.519
10019W        W75246  19.158  29.276   3.854
10020W        W75247   8.566   9.232  12.670
10021W        W75248  35.979   3.160  13.915
10022W        W75249  12.042  30.940   4.613
10023W        W75250  32.897  15.785  13.457
10024W        W75251  28.966   7.144   5.027
10025W        W75252   3.337  23.101  14.762
10026W        W75253  34.570  26.601   1.743
10027W        W75254  38.875   0.532  10.645
10028W        W75255  16.056  31.850   3.931
10029W        W75256  35.894  44.091   2.581
10030W        W75257   2.705  33.397   3.468
10031W        W75258  16.156  25.670   4.349
10032W        W75259  26.490  24.496   1.564
10033W        W75260   6.759  32.225  13.971
10034W        W75261   7.672  28.273  12.026
10035W        W75262  26.122  35.401  14.767
10036W        W75263   2.409  33.336  12.558
10037W        W75264  42.467  17.195  12.510
10038W        W75265  28.630  24.664  12.141
10039W        W75266  44.217  32.972   2.427
10040W        W75267  37.985  26.165  12.471
10041W        W75268  42.392   2.107   3.700
10042W        W75269  19.611   8.619  14.847
10043W        W75270  44.723  35.642  14.598
10044W        W75271  10.173  42.784   2.233
10045W        W75272  11.192  12.469  10.856
10046W        W75273   9.436  30.057  12.238
10047W        W75274  40.565  21.088   0.915
10048W        W75275  11.602  19.254   0.368
10049W        W75276  36.445  33.671   4.251
10050W        W75277   7.897   7.751   4.884
10051W        W75278  42.242  22.260  13.972
10052W        W75279  15.559  10.295   1.978
10053W        W75280  27.442  29.511   1.358
10054W        W75281  13.325   9.806  12.190
10055W        W75282  41.403  26.162   0.356
10056W        W75283  42.552   4.913  11.589
10057W        W75284  34.187  43.252   1.830
10058W        W75285  36.579  37.004  12.933
10059W        W75286  42.881  33.062  10.617
10060W        W75287   0.221   2.434  13.073
10061W        W75288   0.854  12.015  12.028
10062W        W75289   9.667  16.106  12.587
10063W        W75290  23.164  15.083  11.982
10064W        W75291  32.489  37.393   2.127
10065W        W75292  27.568  35.410   3.428
10066W        W75293  10.357  30.866   0.740
10067W        W75294  14.852  39.927  10.823
10068W        W75295  17.575  14.686  11.105
10069W        W75296  31.386  25.052  14.000
10070W        W75297  24.444   4.231   4.644
10071W        W75298  17.799   5.426  13.245
10072W        W75299  24.911   1.898   0.885
10073W        W75300  16.160  40.797   0.963
10074W        W75301   1.275   0.816  12.598
10075W        W75302   8.279  37.625   1.334
10076W        W75303  41.080   3.609   2.047
10077W        W75304  42.041   7.046   4.540
10078W        W75305   7.911   8.800  12.635
10079W        W75306  38.737  16.823   4.324
10080W        W75307  40.756  37.004   4.710
10081W        W75308  39.256   6.105   3.564
10082W        W75309  21.786  26.623   4.053
10083W        W75310  33.986  31.238   0.927
10084W        W75311  28.464  26.960   9.756
10085W        W75312  21.235  28.888  12.620
10086W        W75313  36.874  39.061  13.328
10087W        W75314  41.515  31.072   5.084
10088W        W75315  34.018  23.832  12.024
10089W        W75316  19.853  28.892   2.213
10090W        W75317  26.453  10.942   3.693
10091W        W75318  12.833  17.167   1.743
10092W        W75319  16.850   5.291  12.530
10093W        W75320   9.072  18.199  12.686
10094W        W75321  22.066  22.939   2.172
10095W        W75322  32.250   1.185   2.222
10096W        W75323   4.358  39.364  14.461
10097W        W75324   8.747  30.134   1.302
10098W        W75325  24.779  19.239   3.600
10099W        W75326  42.312   2.661  11.088
10100W        W75327   8.706  40.567   3.677
10101W        W75328  31.491  22.673  12.983
10102W        W75329  17.130  11.201  14.257
10103W        W75330  42.484  41.505  14.825
10104W        W75331  13.957  18.747  14.018
10105W        W75332  20.987  29.411   3.497
10106W        W75333  16.239   0.682  12.614
10107W        W75334  15.152   3.952  14.271
10108W        W75335  32.896  32.768   1.621
10109W        W75336  25.628  30.959   4.552
10110W        W75337  12.974  42.160   1.860
10111W        W75338   4.315  35.525   3.239
10112W        W75339  17.675  24.049   1.969
10113W        W75340  41.023  43.794  14.709
10114W        W75341  20.710   1.498  12.836
10115W        W75342  26.334  16.325   1.167
10116W        W75343  27.165  38.013   3.914
10117W        W75344  12.221   5.945  11.629
10118W        W75345  32.568  22.778  11.244
10119W        W75346  21.969  32.473   1.259
10120W        W75347  37.346  39.087  13.533
10121W        W75348   9.602  44.185   1.691
10122W        W75349  43.758  22.620  12.031
10123W        W75350   8.989  15.731   1.192
10124W        W75351  11.712  27.631  14.338
10125W        W75352  29.214  36.361  10.344
10126W        W75353  24.536  29.424   1.306
10127W        W75354  37.986  12.693  13.278
10128W        W75355  41.552  10.279   4.194
10129W        W75356  44.420   1.285  10.628
10130W        W75357  35.045  21.062   1.381
10131W        W75358  10.627  43.642  12.062
10132W        W75359   7.122  29.963  14.929
10133W        W75360  33.279  23.276  13.553
10134W        W75361  36.448  30.019   0.474
10135W        W75362  31.750  20.281  14.049
10136W        W75363  22.203  27.248   0.515
10137W        W75364  32.940  34.530  13.329
10138W        W75365   2.777  14.576   4.240
10139W        W75366  44.813  37.446  14.170
10140W        W75367  25.843  40.521  11.140
10141W        W75368  15.842  19.755  12.928
10142W        W75369  33.997  25.687   3.025
10143W        W75370  36.491  11.687  11.286
10144W        W75371  17.660  33.159  11.541
10145W        W75372  37.342  30.986   1.455
10146W        W75373  36.855   9.838   3.262
10147W        W75374  26.157  22.936  12.902
10148W        W75375  24.424  10.137   4.945
10149W        W75376  14.432  15.341   0.039
10150W        W75377  14.957  22.326   0.585
10151W        W75378  37.109  12.696   1.859
10152W        W75379  15.325   0.410   0.352
10153W        W75380  27.929  23.804   1.758
10154W        W75381  40.519  11.293  10.714
10155W        W75382  37.989   1.962   2.614
10156W        W75383  27.248  10.004   2.322
10157W        W75384  31.706  19.817  10.766
10158W        W75385   8.269  27.950   3.252
10159W        W75386  18.011   1.030   1.294
10160W        W75387  29.060  24.514   3.117
10161W        W75388  27.052  31.988  13.969
10162W        W75389   9.583  42.341  14.801
10163W        W75390   8.607  27.460   3.371
10164W        W75391  40.407  34.341  11.864
10165W        W75392   0.305   3.740   2.788
10166W        W75393  10.876  10.658  11.139
10167W        W75394  24.659  23.022   3.588
10168W        W75395  25.773  20.496   0.489
10169W        W75396  43.217  35.588   1.067
10170W        W75397  26.210  23.628   0.047
10171W        W75398  35.076   4.601   1.233
10172W        W75399  40.445   2.350   3.820
10173W        W75400  29.185   2.443  11.926
10174W        W75401  34.151  38.814   0.726
10175W        W75402  14.557  17.294  14.322
10176W        W75403  37.981  32.984   0.393
10177W        W75404   8.211  33.650  13.495
10178W        W75405  24.506  36.005   3.298
10179W        W75406  35.194  24.953  12.621
10180W        W75407  24.699  14.858  12.595
10181W        W75408  44.780  14.058   0.940
10182W        W75409  19.508   9.779   4.664
10183W        W75410  30.535  16.200  10.611
10184W        W75411  16.186  39.449   0.326
10185W        W75412  14.224  36.065   3.047
10186W        W75413  43.008  34.442  13.945
10187W        W75414  16.522  18.544  10.499
10188W        W75415  26.641   5.919  13.544
10189W        W75416   0.181  18.588   0.394
10190W        W75417  43.793  44.322   0.016
10191W        W75418  37.586   8.060   4.136
10192W        W75419  43.588  39.848   0.249
10193W        W75420  34.943  38.828   2.596
10194W        W75421   5.738   4.305   4.099
10195W        W75422  19.785  18.785  14.305
10196W        W75423  11.882   3.901   4.764
10197W        W75424   4.649   2.320  11.154
10198W        W75425  29.538  37.544  12.101
10199W        W75426   3.475   6.385   1.670
10200W        W75427  44.791  30.840  10.689
10201W        W75428  28.598   1.825  11.335
10202W        W75429  20.713  34.412  14.365
10203W        W75430   7.028   7.363  10.754
10204W        W75431   4.248  28.111  14.571
10205W        W75432  14.702   1.460  11.116
10206W        W75433  23.652  21.772   1.194
10207W        W75434  28.971  15.041  13.294
10208W        W75435   7.698   9.983  12.685
10209W        W75436  25.143  26.371   2.215
10210W        W75437  32.025   9.238   1.814
10211W        W75438   6.124  27.700  14.262
10212W        W75439  44.812  43.071   2.931
10213W        W75440   3.724  15.258   0.037
10214W        W75441  28.666  31.643   2.267
10215W        W75442  16.063  26.437   0.939
10216W        W75443  37.357  35.996   2.001
10217W        W75444  30.313   8.303   2.067
10218W        W75445  38.925  34.110   3.065
10219W        W75446   8.189  37.567  14.369
10220W        W75447  44.805  27.385   0.067
10221W        W75448  28.215  42.088  13.835
10222W        W75449  20.755   0.848   3.579
10223W        W75450  17.169  36.896  13.044
10224W        W75451  18.991  31.942  10.714
10225W        W75452  33.497   4.576   4.534
10226W        W75453   1.766   9.708   0.015
10227W        W75454  11.251  17.730   2.672
10228W        W75455  44.668   1.347  11.896
10229W        W75456  24.490   0.364  13.864
10230W        W75457  33.463  15.122  12.954
10231W        W75458  30.105  10.597   4.169
10232W        W75459  15.643   9.391   2.361
10233W        W75460  17.257  14.714   1.863
10234W        W75461  18.554   4.741   2.255
10235W        W75462  26.459   5.969  11.791
10236W        W75463  43.947  23.810   0.898
10237W        W75464  39.054  12.810  11.229
10238W        W75465  24.666  31.445  13.533
10239W        W75466  15.145  22.544  14.335
10240W        W75467  10.069   3.799   0.003
10241W        W75468   1.423  28.181  13.920
10242W        W75469  43.412  35.320  13.505
10243W        W75470  23.083  41.944   4.149
10244W        W75471   2.403  29.276   4.040
10245W        W75472  16.811  30.169   3.027
10246W        W75473  34.793  18.674   5.246
10247W        W75474  34.463  10.285   1.261
10248W        W75475   5.892  36.859   2.295
10249W        W75476  15.660  36.051  11.191
10250W        W75477  19.584   6.697  13.038
10251W        W75478  21.061  17.857  11.102
10252W        W75479  38.036  14.350  11.543
10253W        W75480   3.392  18.794  11.259
10254W        W75481  14.731  10.480  14.643
10255W        W75482  38.431  23.547  13.072
10256W        W75483  18.271  35.820   0.161
10257W        W75484   4.165   5.813  12.611
10258W        W75485  22.589  18.815   2.872
10259W        W75486  10.250  35.117  11.651
10260W        W75487  29.325  10.872  11.015
10261W        W75488  20.105  15.388   4.526
10262W        W75489  41.480  32.085   0.716
10263W        W75490  25.891  14.893  14.650
10264W        W75491  27.756  43.360  12.907
10265W        W75492  26.501  23.146  13.979
10266W        W75493  44.654  18.747  13.452
10267W        W75494  38.059  37.655   1.774
10268W        W75495  44.661  14.638   5.124
10269W        W75496  26.248  25.513  13.394
10270W        W75497  24.406  41.414  13.240
10271W        W75498  29.633  23.431   1.191
10272W        W75499  14.141  44.924  12.936
10273W        W75500   0.264  34.917  10.730
10274W        W75501  29.426  40.973   0.966
10275W        W75502   7.847   0.425   3.300
10276W        W75503  32.089  19.188   2.382
10277W        W75504  35.038  18.855  12.502
10278W        W75505  31.020  42.128  14.670
10279W        W75506   8.863   9.659   2.191
10280W        W75507  25.243  40.097  12.824
10281W        W75508  42.479  16.510  12.889
10282W        W75509  26.413  17.868   0.741
10283W        W75510  41.803  35.027  14.227
10284W        W75511   1.554  28.514  13.084
10285W        W75512  42.984  26.098  11.916
10286W        W75513   1.221  27.053   0.105
10287W        W75514   7.907   4.188   3.983
10288W        W75515  33.717  32.884  13.992
10289W        W75516  21.572  21.250   2.381
10290W        W75517  20.438  35.457   3.090
10291W        W75518  31.332   6.723   0.849
10292W        W75519   2.016  15.710  12.530
10293W        W75520  36.036   8.149   2.367
10294W        W75521  38.983  34.544  13.895
10295W        W75522  21.109  21.277   0.192
10296W        W75523  19.230  25.538   1.174
10297W        W75524  36.405  40.376   0.920
10298W        W75525   2.354  39.565  12.633
10299W        W75526  28.988  38.070   0.818
10300W        W75527  29.663   6.604  14.716
10301W        W75528  38.916  16.232  14.224
10302W        W75529  34.096  18.485   1.338
10303W        W75530  32.115  25.006  14.767
10304W        W75531  24.060  13.537   5.095
10305W        W75532   5.588  29.173  12.608
10306W        W75533  34.220  39.976   5.160
10307W        W75534   7.905  44.913   0.802
10308W        W75535  10.071   8.392  11.551
10309W        W75536   8.944  10.138  10.700
10310W        W75537  44.774  24.632  12.168
10311W        W75538  33.573   6.237  10.688
10312W        W75539  22.899  28.724  11.728
10313W        W75540  38.554  18.186   4.101
10314W        W75541  34.908  17.277  14.280
10315W        W75542  33.010   2.897  13.389
10316W        W75543  40.558  42.370   0.492
10317W        W75544  16.509  18.652   4.087
10318W        W75545   3.896   6.829  14.923
10319W        W75546   0.258  22.704   4.955
10320W        W75547  29.361   3.829  12.895
10321W        W75548  38.086  15.557  11.136
10322W        W75549  35.105  18.732  12.005
10323W        W75550  44.931  10.307   2.907
10324W        W75551  43.534  39.404  14.875
10325W        W75552   8.305  12.551  11.775
10326W        W75553   2.251  36.031   2.159
10327W        W75554  23.410  14.344  11.265
10328W        W75555  17.689  13.743   3.352
10329W        W75556  36.117  42.557   3.742
10330W        W75557  35.332   0.901   3.722
10331W        W75558  10.411  44.014   0.807
10332W        W75559  44.075   7.136  14.129
10333W        W75560  29.985  24.007  11.309
10334W        W75561  38.424  26.933  11.626
10335W        W75562  27.169   2.492  11.410
10336W        W75563  13.905  40.537  14.527
10337W        W75564  24.439  10.186  12.094
10338W        W75565  12.649  35.982   2.737
10339W        W75566  43.021  37.470  13.898
10340W        W75567  27.597   9.380   1.742
10341W        W75568  10.183  41.787  12.503
10342W        W75569   7.199  31.628  13.065
10343W        W75570  38.967  36.526  13.438
10344W        W75571   0.331  42.751  13.226
10345W        W75572  14.515   3.996  13.618
10346W        W75573  37.007   6.176  14.361
10347W        W75574  18.065  14.234   4.491
10348W        W75575  20.764  19.963   0.347
10349W        W75576   2.974  10.394   1.791
10350W        W75577  20.604  20.689  11.695
10351W        W75578   1.298   3.349  14.292
10352W        W75579  17.619  12.806  11.453
10353W        W75580  31.205   7.157  10.812
10354W        W75581  21.545  21.108  14.382
10355W        W75582  26.394  12.761   4.163
10356W        W75583  19.511   5.509  14.614
10357W        W75584  30.144  18.014  13.980
10358W        W75585  27.893   2.770  12.826
10359W        W75586   7.151  32.641   1.872
10360W        W75587  32.178   4.841  14.345
10361W        W75588  19.225  39.842  11.735
10362W        W75589  38.575  33.499   3.597
10363W        W75590  40.016  12.292  10.583
10364W        W75591  27.186  15.364  10.829
10365W        W75592  37.163   5.938   1.034
10366W        W75593   9.627  42.002  13.517
10367W        W75594   9.451  19.045   2.546
10368W        W75595  25.687   1.424   2.552
10369W        W75596  13.380  23.933   0.294
10370W        W75597  18.342   8.645   1.707
10371W        W75598  10.916  34.313  14.745
10372W        W75599   0.004  40.755   1.771
10373W        W75600  32.596  18.181  10.986
10374W        W75601  37.513  14.288  10.518
10375W        W75602  31.854  40.783   0.455
10376W        W75603   2.892  29.651   3.262
10377W        W75604  17.787  31.008  13.488
10378W        W75605   8.451  43.392   2.335
10379W        W75606  25.020  35.723  13.939
10380W        W75607  41.460  26.030  14.804
10381W        W75608  31.329  34.925   4.808
10382W        W75609  11.851  28.049   0.205
10383W        W75610  26.063  39.789  13.287
10384W        W75611  10.574  12.986  14.665
10385W        W75612  39.549  12.578   0.039
10386W        W75613  34.181  19.681  11.242
10387W        W75614  36.120  41.416   1.390
10388W        W75615   2.471  26.109   0.682
10389W        W75616  25.385  32.698   4.084
10390W        W75617   8.333   5.176   0.109
10391W        W75618   6.288  21.533   0.501
10392W        W75619  37.422  18.317  13.366
10393W        W75620   8.370  15.566   3.531
10394W        W75621  37.343   7.446  12.214
10395W        W75622  14.191   0.730   2.547
10396W        W75623  23.766  44.930   4.505
10397W        W75624  43.234   5.448   2.245
10398W        W75625  32.391  15.562   2.789
10399W        W75626  30.965  39.967  11.574
10400W        W75627  31.263  41.950  12.455
10401W        W75628  33.455   6.936  11.621
10402W        W75629  44.727  26.021  12.116
10403W        W75630   6.330  22.281  13.420
10404W        W75631  22.089  44.796   4.999
10405W        W75632  43.041   8.904  12.952
10406W        W75633  25.644  42.804  13.097
10407W        W75634   5.892  40.825   1.333
10408W        W75635  17.460  35.088  11.999
10409W        W75636  17.570  24.965   1.322
10410W        W75637   0.351  44.048   1.446
10411W        W75638  25.125   9.857   3.147
10412W        W75639  37.452   7.697   2.890
10413W        W75640   7.104  35.483  10.679
10414W        W75641  11.163   6.356   0.297
10415W        W75642   8.723  21.239  11.101
10416W        W75643   7.424  43.852   3.385
10417W        W75644   7.558  18.288  11.031
10418W        W75645  33.124  11.226  11.552
10419W        W75646  42.450  37.792   3.720
10420W        W75647  20.256  29.220   1.360
10421W        W75648  28.259  24.036  12.814
10422W        W75649  10.784  23.065  11.211
10423W        W75650  43.601  12.243  11.046
10424W        W75651  23.935  28.738  11.608
10425W        W75652  34.934   8.214  13.280
10426W        W75653  41.982   8.141  11.655
10427W        W75654  22.776  14.872  12.219
10428W        W75655  28.646  31.843   3.585
10429W        W75656  22.194  23.983   3.207
10430W        W75657  38.336  24.679  13.898
10431W        W75658  29.991  14.790   1.573
10432W        W75659  16.280  15.627  14.556
10433W        W75660  15.183   3.867   0.317
10434W        W75661  15.640  32.356  13.553
10435W        W75662  24.191  34.267   0.752
10436W        W75663  33.148  14.304   1.704
10437W        W75664  12.205   8.202  14.698
10438W        W75665   5.839  44.205  13.369
10439W        W75666  29.373   5.048  10.294
10440W        W75667   8.410  22.565   3.557
10441W        W75668  31.391  40.154  13.813
10442W        W75669  21.938  38.865   0.906
10443W        W75670  25.092  21.729  11.093
10444W        W75671   3.694  30.371   4.063
10445W        W75672  24.307   9.759   0.230
10446W        W75673  25.584  22.648  11.427
10447W        W75674   0.999  37.912  11.165
10448W        W75675   2.046  20.966   2.031
10449W        W75676  24.289  37.537   2.827
10450W        W75677  36.016  26.040  12.518
10451W        W75678  18.062  36.820   4.070
10452W        W75679  10.472  15.107   2.158
10453W        W75680   5.180  15.197  14.128
10454W        W75681  29.574  35.075   0.171
10455W        W75682   1.756  20.191   0.369
10456W        W75683  15.582  39.094   4.063
10457W        W75684  13.511  40.818   1.734
10458W        W75685   7.211  14.187  13.517
10459W        W75686   7.626  43.390  12.569
10460W        W75687  12.363  26.144  14.187
10461W        W75688  30.563  36.751  12.199
10462W        W75689  44.692  41.493   4.970
10463W        W75690   6.864  22.541   4.836
10464W        W75691  23.531  35.510  12.105
10465W        W75692  34.825  24.604  13.472
10466W        W75693  37.413  36.484   2.229
10467W        W75694   7.059  20.730   3.722
10468W        W75695  34.607  13.210   4.139
10469W        W75696  15.680  10.099  12.050
10470W        W75697   8.874  10.132   3.460
10471W        W75698  44.195  28.325   1.744
10472W        W75699   7.188   1.029   2.707
10473W        W75700  18.147  40.831  12.388
10474W        W75701  14.856  26.094  14.778
10475W        W75702   8.055  16.518  11.582
10476W        W75703  37.995  37.351  14.772
10477W        W75704  40.740  21.863   0.381
10478W        W75705   9.253  22.818  12.926
10479W        W75706   0.730  25.057  12.033
10480W        W75707  43.472  21.418   0.512
10481W        W75708  27.956   4.838   0.845
10482W        W75709  31.123  28.550   4.529
10483W        W75710  39.319  41.875   3.456
10484W        W75711  13.813  41.827  14.557
10485W        W75712  23.927  22.410  12.035
10486W        W75713  39.904   8.848   0.609
10487W        W75714  38.412  28.170  13.146
10488W        W75715  42.137  37.946   1.869
10489W        W75716  25.267   9.739  13.772
10490W        W75717  27.951   1.691   1.798
10491W        W75718  43.807  13.750  11.076
10492W        W75719  22.499   5.634  11.659
10493W        W75720   0.159   6.763  13.737
10494W        W75721   0.234  16.786   5.212
10495W        W75722   2.344  14.053   1.687
10496W        W75723  38.612   3.331   3.116
10497W        W75724  43.603  37.281   4.663
10498W        W75725  34.295  32.236  13.997
10499W        W75726  38.105  34.312   3.689
10500W        W75727  22.537  29.131  11.643
10501W        W75728  13.275  14.590  13.785
10502W        W75729  21.391  12.091   2.375
10503W        W75730  42.777  43.904   4.056
10504W        W75731  13.223   5.076  10.108
10505W        W75732  32.643   4.617  14.431
10506W        W75733   7.029  25.487   3.216
10507W        W75734  44.784   0.847   0.246
10508W        W75735  23.126  40.351   3.484
10509W        W75736  36.981  35.023   0.234
10510W        W75737  12.717  19.142  11.135
10511W        W75738  23.756  18.340  12.712
10512W        W75739  30.707  24.196   2.946
10513W        W75740  28.437  33.914  11.152
10514W        W75741  44.247  34.474  12.655
10515W        W75742  26.459  19.824   2.613
10516W        W75743  20.633  41.718   2.293
10517W        W75744   7.152  14.008   3.554
10518W        W75745  35.014   2.834  12.867
10519W        W75746  40.025   3.749   1.869
10520W        W75747   8.779  24.991  11.585
10521W        W75748  13.596  15.140   1.395
10522W        W75749  37.331   6.944   1.964
10523W        W75750  39.047  43.305  13.151
10524W        W75751  31.173  25.491   3.927
10525W        W75752  20.466  27.092  12.274
10526W        W75753   4.287   3.019   3.446
10527W        W75754  33.679   8.513   3.141
10528W        W75755  44.235  24.091  14.846
10529W        W75756  43.724  42.623   3.715
10530W        W75757  40.705  39.413   1.158
10531W        W75758   7.115   3.116   0.671
10532W        W75759  36.350  29.770  10.437
10533W        W75760   7.449  23.975  11.662
10534W        W75761   6.067  14.805  14.065
10535W        W75762  33.754  35.102   0.775
10536W        W75763  20.639  34.366   1.915
10537W        W75764  41.515  44.821   4.696
10538W        W75765  16.268  42.327  12.565
10539W        W75766  10.174  31.413  10.599
10540W        W75767   7.614   2.147   1.833
10541W        W75768  21.868  26.493  13.470
10542W        W75769  33.608  23.764  14.933
10543W        W75770  36.848   5.836  12.415
10544W        W75771  11.952  19.885  13.009
10545W        W75772  39.002  11.267   0.209
10546W        W75773  18.045   0.231   3.614
10547W        W75774  35.681  37.544   1.738
10548W        W75775   5.005  14.762  13.885
10549W        W75776   2.864   7.289   1.911
10550W        W75777  14.779  12.773  10.730
10551W        W75778  44.900  26.731   0.324
10552W        W75779  20.641   2.018  12.973
10553W        W75780  18.076  11.733   0.470
10554W        W75781  29.340  30.631   1.732
10555W        W75782  25.035  10.351   3.236
10556W        W75783  21.664  23.756   1.148
10557W        W75784  20.743  22.750   2.676
10558W        W75785  34.894  31.008  13.801
10559W        W75786  40.249  22.637   4.200
10560W        W75787  18.037  30.854   3.654
10561W        W75788  22.159   4.477  11.193
10562W        W75789  14.703  39.688  13.607
10563W        W75790   1.598  30.684   1.959
10564W        W75791  33.513  30.433   0.832
10565W        W75792  15.988  33.533   1.580
10566W        W75793  40.109  33.238   2.211
10567W        W75794  23.897  19.036  14.950
10568W        W75795   6.171  24.957  11.028
10569W        W75796  24.511  20.423  12.931
10570W        W75797  42.616  42.471   3.671
10571W        W75798  19.023   0.391   0.397
10572W        W75799  14.705   8.140  14.269
10573W        W75800  31.899   7.812   4.562
10574W        W75801  27.396  15.608  14.897
10575W        W75802  34.272  42.895  12.084
10576W        W75803   9.330   5.943  12.592
10577W        W75804  13.637  31.406   1.316
10578W        W75805  21.486  21.974  12.474
10579W        W75806  25.676  19.617  12.335
10580W        W75807  35.134   5.318   4.997
10581W        W75808  18.725  27.193  12.620
10582W        W75809  44.028  37.626   4.698
10583W        W75810  31.606  27.946   2.495
10584W        W75811  39.549  37.047   3.557
10585W        W75812  38.177  12.190   3.286
10586W        W75813   1.372   4.022   4.057
10587W        W75814  32.698  19.527   3.743
10588W        W75815  22.750  35.205  14.761
10589W        W75816  12.566   3.486   0.395
10590W        W75817   3.370  34.935   2.818
10591W        W75818  28.625  16.895   4.076
10592W        W75819   3.430   5.277   2.713
10593W        W75820  35.175   7.632   0.388
10594W        W75821  16.740  27.871   0.041
10595W        W75822  44.402  41.466   2.783
10596W        W75823  18.671   0.004  13.790
10597W        W75824  37.447  41.495   2.230
10598W        W75825  38.239  10.238  14.562
10599W        W75826  18.787   9.294  11.177
10600W        W75827  35.907  37.429   3.655
10601W        W75828  20.768  41.015  14.272
10602W        W75829  18.350  32.063   1.483
10603W        W75830  29.670  16.582   2.784
10604W        W75831  42.191  37.072   4.834
10605W        W75832   4.881  30.583  10.691
10606W        W75833   8.428  23.672  14.394
10607W        W75834  27.411  12.419   3.285
10608W        W75835  42.394  11.610   3.325
10609W        W75836  25.804   3.633  12.204
10610W        W75837  10.816  31.603   1.464
10611W        W75838   7.769  19.169  12.011
10612W        W75839  24.034  31.972  10.210
10613W        W75840  22.653  42.483  12.958
10614W        W75841  11.893  12.319   3.323
10615W        W75842  19.263  13.439  13.451
10616W        W75843  12.807  40.011   1.853
10617W        W75844   3.202   7.275   4.161
10618W        W75845  25.797  28.035  13.501
10619W        W75846  35.500  23.280   4.128
10620W        W75847  25.684  42.806   4.662
10621W        W75848  24.175  12.243   1.276
10622W        W75849  19.301   9.641   4.044
10623W        W75850  11.648  33.564  11.491
10624W        W75851  17.482  39.228   2.245
10625W        W75852  18.294   6.692   4.091
10626W        W75853   5.474  31.628   3.487
10627W        W75854  14.522  32.962  13.054
10628W        W75855   4.350  22.890   4.604
10629W        W75856  27.646  37.736   4.427
10630W        W75857   7.789  39.526   2.302
10631W        W75858  27.098  27.082   5.474
10632W        W75859  27.236  37.218  11.524
10633W        W75860   7.375  25.036  10.499
10634W        W75861  19.152  22.128   1.344
10635W        W75862  27.890  37.228   1.476
10636W        W75863  43.352  31.812  14.436
10637W        W75864  12.220  11.748  11.469
10638W        W75865  27.933  43.893  11.049
10639W        W75866  20.564  14.558   0.025
10640W        W75867   6.697  40.561  14.408
10641W        W75868  36.410   6.212  10.225
10642W        W75869  43.223  10.353   1.729
10643W        W75870  19.669  23.224  12.775
10644W        W75871  42.412  13.475  10.784
10645W        W75872  33.538  30.456  12.112
10646W        W75873  39.806  10.112   0.377
10647W        W75874  37.571  25.280   1.462
10648W        W75875  43.994   0.937  14.895
10649W        W75876  31.952  16.825   0.072
10650W        W75877  37.561  15.652   0.127
10651W        W75878   5.627  24.309  13.356
10652W        W75879   4.407  41.849  13.462
10653W        W75880  31.917  36.797   3.297
10654W        W75881   9.436  23.183   3.089
10655W        W75882   4.693   7.136  13.918
10656W        W75883  12.181  42.281  12.087
10657W        W75884   0.696  39.844  10.670
10658W        W75885   1.859  13.503   2.855
10659W        W75886  44.439  22.993  14.457
10660W        W75887   2.810   7.998   4.249
10661W        W75888  37.078  23.244   1.561
10662W        W75889  42.801  11.358  12.597
10663W        W75890   4.433   8.757   1.681
10664W        W75891  37.819   4.333   3.118
10665W        W75892  24.844  11.385  11.172
10666W        W75893  41.500  36.426  11.921
10667W        W75894   9.114  14.307  11.703
10668W        W75895  13.398  21.497   0.389
10669W        W75896  38.913  15.677  12.615
10670W        W75897  18.776  13.638   1.850
10671W        W75898   2.553  25.885   4.366
10672W        W75899  38.571  35.634  12.061
10673W        W75900  12.759  18.094   0.746
10674W        W75901   9.196  41.267   1.415
10675W        W75902  37.842  31.494   1.744
10676W        W75903   0.579   1.583   4.361
10677W        W75904  11.884  28.101  14.306
10678W        W75905  22.525  27.969   3.245
10679W        W75906  15.115  21.278  14.838
10680W        W75907  39.937  19.446   1.468
10681W        W75908  10.241   4.172  11.017
10682W        W75909   7.111  36.649  12.992
10683W        W75910  18.407   4.351  12.351
10684W        W75911  38.290  39.883   2.190
10685W        W75912  44.512  37.076   4.582
10686W        W75913  14.733  19.758   2.662
10687W        W75914  12.058  34.615   2.649
10688W        W75915  29.061  19.051  14.974
10689W        W75916  36.389   8.722  11.941
10690W        W75917  24.405  12.651  10.261
10691W        W75918  16.842  22.279  12.988
10692W        W75919  30.477  26.575   0.712
10693W        W75920  42.031  17.401  11.714
10694W        W75921  24.398  11.391   3.744
10695W        W75922  39.995  43.041   2.265
10696W        W75923  25.230  26.719   1.804
10697W        W75924  12.142  20.567   2.637
10698W        W75925   7.318  19.896  14.543
10699W        W75926  29.532  12.285   1.256
10700W        W75927  15.902  25.925  11.416
10701W        W75928  31.410  12.783  12.554
10702W        W75929  37.863  30.866  11.191
10703W        W75930  24.992  12.865  14.350
10704W        W75931  30.005  20.613  13.733
10705W        W75932  24.469  34.476   1.178
10706W        W75933   5.917  37.096   3.663
10707W        W75934  34.216  22.865  14.750
10708W        W75935   2.289  16.807   1.849
10709W        W75936  20.536  35.127   0.440
10710W        W75937   9.589  35.577   2.441
10711W        W75938  25.995  11.888  13.059
10712W        W75939   0.151  31.121  10.275
10713W        W75940  11.675  30.565  13.439
10714W        W75941  13.041  11.883  14.173
10715W        W75942  25.519  27.166   3.695
10716W        W75943  19.039  25.979  13.347
10717W        W75944  31.521  12.318   2.198
10718W        W75945  16.564  25.577  13.921
10719W        W75946  12.167  26.293   2.362
10720W        W75947  39.256  22.761   2.865
10721W        W75948   8.152  26.702   1.908
10722W        W75949   2.871   5.513  14.249
10723W        W75950  15.956  36.402   1.062
10724W        W75951  32.159   1.820   0.831
10725W        W75952  21.464   7.517   1.176
10726W        W75953  44.006  18.915   0.820
10727W        W75954  36.488   5.105   3.758
10728W        W75955  34.295   4.915  13.746
10729W        W75956   1.432  42.902   0.151
10730W        W75957  11.578  41.289  14.373
10731W        W75958  37.373  28.997  11.526
10732W        W75959  43.404  42.504  11.653
10733W        W75960  29.518  17.536  10.541
10734W        W75961   0.129  32.196  13.015
10735W        W75962  36.070   1.667  14.348
10736W        W75963  28.951  19.810   3.513
10737W        W75964  40.083  29.403  14.794
10738W        W75965   7.444  11.839   1.302
10739W        W75966  13.660  11.150   1.280
10740W        W75967  40.460  31.956  14.596
10741W        W75968  29.804   7.815   4.090
10742W        W75969  41.739  42.326  14.455
10743W        W75970  28.857  25.906  12.535
10744W        W75971  28.246  41.070   2.683
10745W        W75972  40.697   7.715   1.571
10746W        W75973  40.114  36.091  13.142
10747W        W75974  33.520   3.154  12.049
10748W        W75975  38.765  36.424  12.559
10749W        W75976  28.932  29.212  12.496
10750W        W75977  11.186  12.092   4.942
10751W        W75978  40.330  12.881  11.140
10752W        W75979  37.606  33.440   2.259
10753W        W75980   5.511   2.159   1.955
10754W        W75981  30.994  33.999  13.778
10755W        W75982  23.041  37.855   1.864
10756W        W75983  44.703  23.963  10.022
10757W        W75984  10.190  13.826   4.127
10758W        W75985   8.143  34.644   5.035
10759W        W75986   3.126  39.321   4.069
10760W        W75987  12.731   3.133   0.724
10761W        W75988  12.875  33.906   2.201
10762W        W75989   1.347  19.551  14.674
10763W        W75990  26.631  42.961  11.476
10764W        W75991  39.941   0.524   2.078
10765W        W75992  11.292  31.970  14.287
10766W        W75993  34.726  25.833  13.978
10767W        W75994  42.103  29.444   1.811
10768W        W75995  38.328  11.690   3.227
10769W        W75996  15.146  30.366   4.182
10770W        W75997  28.556  24.978  10.345
10771W        W75998  27.730  23.174  11.975
10772W        W75999  30.046  22.628  11.103
10773W        W76000  42.062   2.588   2.799
10774W        W76001   3.495  37.804   3.339
10775W        W76002  29.019  10.707   3.288
10776W        W76003  35.608  24.723  13.503
10777W        W76004  41.171  26.000  10.868
10778W        W76005   3.359   9.468  12.362
10779W        W76006  23.167   8.832  13.945
10780W        W76007  14.144  12.052  14.932
10781W        W76008  19.064  43.842   4.210
10782W        W76009  43.027  29.196  13.458
10783W        W76010  19.288  28.868   2.956
10784W        W76011  29.262  25.264  11.518
10785W        W76012  42.521  33.653   0.674
10786W        W76013  13.427  15.328   0.382
10787W        W76014  14.255  10.867   3.670
10788W        W76015   1.265  33.527  11.997
10789W        W76016   7.823   1.366   2.398
10790W        W76017  15.479  40.608  13.322
10791W        W76018  42.034  34.885   4.964
10792W        W76019  22.376  18.957  12.673
10793W        W76020  25.292   5.357  14.178
10794W        W76021  15.789   2.147   0.296
10795W        W76022  40.362  21.159  12.119
10796W        W76023  19.591  31.540   1.493
10797W        W76024  37.129  38.258   0.775
10798W        W76025   4.706   3.454   4.110
10799W        W76026   2.786   4.005  11.146
10800W        W76027  29.924  17.225  10.348
10801W        W76028  29.889   9.280  12.463
10802W        W76029  33.418  12.152   2.187
10803W        W76030  43.253  23.720   2.774
10804W        W76031  34.333  44.146  12.639
10805W        W76032  13.757  42.501   2.446
10806W        W76033  12.747  44.475  12.580
10807W        W76034  11.343  19.313  13.075
10808W        W76035   9.708   6.985  12.943
10809W        W76036  29.123  37.141   0.872
10810W        W76037  42.946  12.631   1.926
10811W        W76038  42.811  22.235   4.063
10812W        W76039  22.772   9.657   1.285
10813W        W76040  41.672  28.041   4.584
10814W        W76041  13.032   7.056   3.089
10815W        W76042  25.542  37.017   0.394
10816W        W76043  17.337  17.511   4.703
10817W        W76044  29.478  42.949  11.112
10818W        W76045  22.442  25.703   2.250
10819W        W76046  15.549  31.050   3.727
10820W        W76047   0.687  23.280  14.252
10821W        W76048  11.358   0.736   4.378
10822W        W76049   3.586  36.475   4.574
10823W        W76050  29.556  28.148   4.590
10824W        W76051  11.209  31.467  14.251
10825W        W76052  15.503  25.059  11.991
10826W        W76053   0.861   7.293   0.684
10827W        W76054   7.794  38.369   1.894
10828W        W76055   7.542  19.692  10.530
10829W        W76056  40.373   6.791  10.805
10830W        W76057  20.732  11.432  13.825
10831W        W76058  25.016  37.870  13.417
10832W        W76059  43.674   7.920   0.849
10833W        W76060  30.157  21.769  10.692
10834W        W76061  42.239  16.882   4.458
10835W        W76062  20.832  36.478   0.659
10836W        W76063  32.792  34.209  12.194
10837W        W76064  26.511  25.526  13.828
10838W        W76065  15.863  20.112   2.741
10839W        W76066  10.670  16.976  11.561
10840W        W76067   7.347  29.164   4.330
10841W        W76068   9.589  36.269   4.081
10842W        W76069  15.212  16.853  11.595
10843W        W76070  10.934   1.156  11.051
10844W        W76071  24.734  43.850  13.815
10845W        W76072   1.846  18.043  13.520
10846W        W76073  28.756   5.808   0.959
10847W        W76074  11.591   3.483   1.267
10848W        W76075  34.461  19.240  10.685
10849W        W76076  32.014  14.169   0.214
10850W        W76077  15.207  42.261  11.724
10851W        W76078   2.427   0.523   1.766
10852W        W76079  11.320  30.432  10.719
10853W        W76080   3.385  26.376   5.461
10854W        W76081  40.264   8.774  10.309
10855W        W76082  20.538  16.245   3.224
10856W        W76083  30.592  44.000   4.022
10857W        W76084  20.217  33.504  10.237
10858W        W76085   8.539  34.332  13.218
10859W        W76086  34.489  32.300   1.789
10860W        W76087  28.962  40.952  11.044
10861W        W76088  41.296  44.069  10.693
10862W        W76089  42.835   5.515  10.945
10863W        W76090  28.862  11.898  14.884
10864W        W76091   5.865  23.792  12.065
10865W        W76092  26.916  40.926   2.024
10866W        W76093  41.331  11.712  13.394
10867W        W76094   7.623  44.557   0.123
10868W        W76095   6.303  42.070   1.296
10869W        W76096  24.715  23.272  13.957
10870W        W76097  42.704  14.053   0.031
10871W        W76098  18.763  23.609   2.944
10872W        W76099  33.609   2.589   4.946
10873W        W76100   2.641  36.398   0.753
10874W        W76101  43.040  26.993   3.175
10875W        W76102  11.009  29.339   0.423
10876W        W76103  30.098  31.661   3.910
10877W        W76104  37.208  42.508   4.861
10878W        W76105   8.247  34.119  11.061
10879W        W76106   9.361  33.678   1.397
10880W        W76107  35.420  20.725  13.072
10881W        W76108  18.861  24.781   4.674
10882W        W76109  41.502  43.315   3.630
10883W        W76110  26.438  10.683  12.981
10884W        W76111   6.967  37.920   3.368
10885W        W76112  33.008   0.287  10.747
10886W        W76113   6.809  29.340   1.135
10887W        W76114  24.516  41.484   1.718
10888W        W76115  32.372  23.216   3.165
10889W        W76116   9.338  27.536   2.764
10890W        W76117   7.445   3.253   5.085
10891W        W76118  15.070  37.114  10.775
10892W        W76119  13.236   4.210   3.432
10893W        W76120   0.889   1.659   2.056
10894W        W76121   1.555  32.565  13.592
10895W        W76122   8.952  40.600   0.298
10896W        W76123  18.707  35.361  13.554
10897W        W76124  33.865  26.690   1.289
10898W        W76125  38.997  38.615   4.280
10899W        W76126  40.984  22.372   3.616
10900W        W76127   8.986  30.796   2.828
10901W        W76128  12.735  15.043  12.519
10902W        W76129   7.134  15.285   2.431
10903W        W76130   8.446  24.070  13.882
10904W        W76131  42.519  22.249   0.779
10905W        W76132  44.780  27.941   0.928
10906W        W76133   9.289   2.456  14.070
10907W        W76134  41.731  26.042   4.849
10908W        W76135  42.943  38.580  10.260
10909W        W76136  35.794   2.830   4.812
10910W        W76137  23.124  11.698  12.027
10911W        W76138  41.430  22.122   3.995
10912W        W76139  33.988  15.568  11.401
10913W        W76140  44.763  40.286  14.434
10914W        W76141  24.792  32.936   9.972
10915W        W76142  31.973   6.065  11.169
10916W        W76143  44.712  43.065  11.428
10917W        W76144  12.009  34.151  13.864
10918W        W76145  11.769   7.734   0.909
10919W        W76146   8.200  13.617   4.250
10920W        W76147   3.501   2.060  12.828
10921W        W76148  28.560  14.841   0.329
10922W        W76149  13.286  22.163   3.252
10923W        W76150  14.164  15.013  13.397
10924W        W76151  29.809  11.416  14.302
10925W        W76152  36.971   4.928  11.526
10926W        W76153   7.877  16.750  14.215
10927W        W76154  22.490   2.234   0.901
10928W        W76155  15.326  40.478   4.571
10929W        W76156  30.634  43.155  11.588
10930W        W76157  36.487  13.062  12.992
10931W        W76158   2.276  44.009  13.053
10932W        W76159  35.575  32.344  11.930
10933W        W76160   7.524   0.769   5.176
10934W        W76161  30.004   6.947   4.625
10935W        W76162  39.183   0.317   3.965
10936W        W76163   2.930  30.217   2.096
10937W        W76164  21.191  33.872   2.255
10938W        W76165  18.676  30.533   1.627
10939W        W76166  22.629  25.135   4.090
10940W        W76167  25.180   0.520   2.131
10941W        W76168  11.503  12.560   4.512
10942W        W76169  38.867   5.687  12.199
10943W        W76170  30.035  18.642  12.360
10944W        W76171  29.612  11.332  14.821
10945W        W76172  35.322   6.330   2.440
10946W        W76173   0.280  14.584  11.952
10947W        W76174  14.656  27.077   1.356
10948W        W76175   2.714  31.973   3.176
10949W        W76176  10.325  25.052   3.234
10950W        W76177  37.027  28.050   3.250
10951W        W76178  41.879   8.136  12.525
10952W        W76179   9.622  42.147   3.660
10953W        W76180   6.948  14.543  12.546
10954W        W76181  22.658  20.168  12.030
10955W        W76182   2.267  15.888   0.852
10956W        W76183  39.960   0.817   3.850
10957W        W76184  44.253   8.872   2.363
10958W        W76185   4.829   4.193   2.554
10959W        W76186  27.697  27.518  14.927
10960W        W76187  18.192  42.349  10.956
10961W        W76188  39.784  23.089  13.042
10962W        W76189  39.365   7.397  11.147
10963W        W76190  19.807  24.728   1.841
10964W        W76191  23.545  40.785  13.815
10965W        W76192   2.352  40.928  10.277
10966W        W76193   5.466  27.238   2.687
10967W        W76194  38.786  38.024  10.646
10968W        W76195  30.125  36.351  11.583
10969W        W76196  42.768  36.265   1.189
10970W        W76197  24.390  18.054   3.063
10971W        W76198  39.947  43.495  13.167
10972W        W76199  39.341   2.088  11.541
10973W        W76200   8.743  19.614  14.260
10974W        W76201   8.252  14.518  12.861
10975W        W76202   4.862  23.722  13.039
10976W        W76203  32.630   2.060   4.824
10977W        W76204  38.273  42.580  11.119
10978W        W76205  37.134  13.861  13.233
10979W        W76206   0.052  32.447   2.236
10980W        W76207  36.500  29.923  11.032
10981W        W76208  13.075  41.341  12.473
10982W        W76209   2.319  38.248   0.400
10983W        W76210  13.370  20.279   4.349
10984W        W76211  20.126   1.803   4.514
10985W        W76212  24.518  22.731   4.147
10986W        W76213  12.727  28.500  13.477
10987W        W76214  35.494  36.430   5.100
10988W        W76215  33.663  21.622   1.630
10989W        W76216  19.231   6.330  10.757
10990W        W76217   5.430   4.484  11.193
10991W        W76218   2.917  29.571  12.944
10992W        W76219  23.917  39.575  14.861
10993W        W76220  41.618   5.167  10.306
10994W        W76221  32.981  32.557   3.631
10995W        W76222  12.696  22.169  10.504
10996W        W76223  24.422  22.437  12.958
10997W        W76224  20.571   4.951  14.890
10998W        W76225  44.475  42.251  13.050
10999W        W76226  25.826  21.549   5.092
11000W        W76227  12.674  25.392  11.630
11001W        W76228  22.760  39.694  13.059
11002W        W76229  18.597  31.224  11.111
11003W        W76230  39.327  21.797   2.603
11004W        W76231  34.573  12.723   5.110
11005W        W76232  29.508  14.183   3.034
11006W        W76233  25.253  27.184  11.568
11007W        W76234  18.248  35.545  10.810
11008W        W76235  35.408   6.791  11.615
11009W        W76236  21.267   7.263  12.078
11010W        W76237  16.860  32.555   1.346
11011W        W76238  24.144   6.817  14.512
11012W        W76239  31.662  16.415  13.812
11013W        W76240  21.488  15.281  14.078
11014W        W76241  40.771  41.989  11.367
11015W        W76242  22.093  40.985   3.256
11016W        W76243   9.850  38.861  13.944
11017W        W76244  37.535  35.465   0.918
11018W        W76245  38.058  18.597   4.323
11019W        W76246  37.133   3.982  14.014
11020W        W76247   5.305  42.619  14.005
11021W        W76248  37.093  36.045  10.474
11022W        W76249  40.451  26.261   4.548
11023W        W76250  41.617   8.778   3.530
11024W        W76251  34.546  17.300   2.903
11025W        W76252  11.405  32.031   1.898
11026W        W76253  23.304  34.088   3.844
11027W        W76254  33.320  41.794  14.905
11028W        W76255  16.816  32.925  11.132
11029W        W76256  29.663  38.601   4.477
11030W        W76257  21.250  35.571   2.168
11031W        W76258   6.946  17.128  11.078
11032W        W76259   1.787  15.766  14.781
11033W        W76260  21.896  34.942   2.608
11034W        W76261   3.149   5.476  11.178
11035W        W76262  16.212   4.638   3.693
11036W        W76263  12.338  14.504   2.497
11037W        W76264  38.948  19.672  13.394
11038W        W76265  13.117  12.553  10.021
11039W        W76266  40.496  12.185  14.921
11040W        W76267   7.803  26.767  10.730
11041W        W76268   0.316  35.380   3.005
11042W        W76269  14.922  34.026   3.198
11043W        W76270  39.052  24.193  11.381
11044W        W76271   5.666  28.115  12.870
11045W        W76272   6.631  30.660  12.909
11046W        W76273  44.937  12.698   2.059
11047W        W76274   6.342   9.595  13.819
11048W        W76275  32.351  15.160   1.061
11049W        W76276  28.088  35.985  12.962
11050W        W76277   1.038  38.532   1.217
11051W        W76278  25.425   9.593  10.679
11052W        W76279  44.900  28.193   0.488
11053W        W76280  37.328  10.161   0.470
11054W        W76281  23.215  30.905  14.607
11055W        W76282  24.440   3.454  13.971
11056W        W76283  37.787  29.975  14.000
11057W        W76284  10.043  20.028  13.026
11058W        W76285  42.852  18.914  14.837
11059W        W76286  23.380  33.442  10.668
11060W        W76287  17.697  15.500  11.582
11061W        W76288  26.009   6.478   4.140
11062W        W76289  17.675  34.256  12.610
11063W        W76290  36.378   6.023   4.067
11064W        W76291  41.601  30.036  14.886
11065W        W76292  39.692  22.845  13.498
11066W        W76293   2.694  13.564   3.912
11067W        W76294  44.919  44.038   1.144
11068W        W76295  19.596  25.205  12.124
11069W        W76296  42.926  27.044   4.534
11070W        W76297   6.756  43.976  11.271
11071W        W76298   8.654  19.531  12.004
11072W        W76299  22.636   2.433   2.626
11073W        W76300  34.182  17.174  14.988
11074W        W76301   3.879   8.328  13.134
11075W        W76302  16.572  25.995  10.732
11076W        W76303  20.538   2.326  11.244
11077W        W76304   2.196   3.501   3.244
11078W        W76305  40.559  43.900  14.426
11079W        W76306  42.490  24.144   3.715
11080W        W76307  28.856  31.802   2.730
11081W        W76308  32.458  43.831   1.071
11082W        W76309  31.591  41.684  11.581
11083W        W76310   6.811  43.613  14.938
11084W        W76311  12.849  36.756   4.546
11085W        W76312  13.457   1.751  11.181
11086W        W76313  15.476   0.384   3.188
11087W        W76314   1.057  14.534   1.935
11088W        W76315  25.525  12.735  13.060
11089W        W76316  15.486  27.687  14.013
11090W        W76317  15.285   4.349   2.109
11091W        W76318  25.246  37.391   2.621
11092W        W76319  30.345  43.254   0.604
11093W        W76320  42.516  15.783   1.169
11094W        W76321  24.744  24.820   1.396
11095W        W76322  40.465  13.627  13.641
11096W        W76323  25.474   4.235  13.337
11097W        W76324   3.837  12.575  14.385
11098W        W76325  11.055  41.232  13.556
11099W        W76326   7.344  44.659  12.770
11100W        W76327  20.055  17.251  10.748
11101W        W76328  17.555  15.795   1.298
11102W        W76329   2.431   2.333   3.514
11103W        W76330  17.068  40.177  10.974
11104W        W76331  18.583  25.723   1.799
11105W        W76332  17.750  42.075   4.136
11106W        W76333  40.046   3.337  14.539
11107W        W76334  32.556  15.593   1.772
11108W        W76335  14.556  18.552   4.426
11109W        W76336  16.807   6.614   3.803
11110W        W76337  28.904  36.048  12.505
11111W        W76338  22.695   2.959  12.561
11112W        W76339   3.125  30.573  13.088
11113W        W76340  33.167  19.094  11.959
11114W        W76341  10.209   5.375  13.873
11115W        W76342  31.277  11.508   1.879
11116W        W76343   6.261  14.097  13.865
11117W        W76344  24.219  44.697   4.481
11118W        W76345  30.058  39.549   1.254
11119W        W76346  41.044  10.243  12.063
11120W        W76347  10.414  13.955   2.737
11121W        W76348  38.560  12.773   4.834
11122W        W76349  29.724   0.846  13.503
11123W        W76350  18.054  29.421   3.710
11124W        W76351   0.652  28.176   1.361
11125W        W76352  27.138  38.486  10.313
11126W        W76353  31.949  42.026   3.590
11127W        W76354  19.794   9.351  12.043
11128W        W76355  23.615   4.218   0.396
11129W        W76356   8.248  44.937   2.598
11130W        W76357   3.889  24.943   0.285
11131W        W76358   1.659  26.124  14.060
11132W        W76359  24.007  31.485   0.731
11133W        W76360  25.031   9.884  10.516
11134W        W76361  44.684  43.815   2.102
11135W        W76362  40.294  18.650  13.029
11136W        W76363   0.984  15.556  11.440
11137W        W76364  24.067  22.115  13.931
11138W        W76365  29.902  43.556  13.006
11139W        W76366  19.757  19.102   0.965
11140W        W76367  40.413  40.294  14.998
11141W        W76368  44.955  10.345  12.496
11142W        W76369  38.611  21.072   4.072
11143W        W76370  11.435  11.321  13.609
11144W        W76371  10.141   7.765   2.707
11145W        W76372  10.080  36.855  12.003
11146W        W76373  40.923  37.884  11.612
11147W        W76374  20.505  20.067  11.242
11148W        W76375  18.167  24.414   1.955
11149W        W76376  37.768  34.711  14.848
11150W        W76377  22.949  41.235  14.866
11151W        W76378  42.043  38.788   3.594
11152W        W76379  22.653  38.650  12.423
11153W        W76380  29.584  21.070  10.495
11154W        W76381   3.461   9.388   4.716
11155W        W76382  36.342   3.802  11.970
11156W        W76383  30.354   7.001   4.260
11157W        W76384  43.413   8.413  14.376
11158W        W76385  18.774  32.166  10.291
11159W        W76386   5.179   0.429   1.739
11160W        W76387  30.092  12.733   3.035
11161W        W76388  28.467  31.398   1.854
11162W        W76389  27.633  31.120   3.305
11163W        W76390  42.867  31.054  10.643
11164W        W76391  28.923  25.523  11.225
11165W        W76392   3.367  13.278   3.932
11166W        W76393  36.952  36.808   0.498
11167W        W76394  31.164   9.619   1.299
11168W        W76395  44.914  25.070  12.395
11169W        W76396  39.736  36.020   0.459
11170W        W76397   5.016  25.930   5.024
11171W        W76398  31.776  11.309   1.779
11172W        W76399  10.780   2.578   2.784
11173W        W76400  17.924   7.081  10.926
11174W        W76401  28.141  13.258  14.874
11175W        W76402  24.504   6.287  13.053
11176W        W76403   1.987   4.488  13.022
11177W        W76404  32.404  15.766  14.358
11178W        W76405  12.658  27.452   2.765
11179W        W76406  39.309  43.043  13.546
11180W        W76407  15.697  13.544   4.108
11181W        W76408  25.992  13.905  13.379
11182W        W76409   1.525  23.171   1.708
11183W        W76410   2.479  36.926   4.237
11184W        W76411  22.362  17.699  12.135
11185W        W76412  27.295  30.018   1.276
11186W        W76413  16.165  44.635   4.047
11187W        W76414  25.190  19.686  10.130
11188W        W76415   1.019  39.788   1.793
11189W        W76416   7.640  20.070   3.278
11190W        W76417  26.947   5.320   2.124
11191W        W76418  37.632   9.287  11.128
11192W        W76419  36.604  39.490  13.436
11193W        W76420  37.285   7.770  13.012
11194W        W76421  10.754  44.897  11.867
11195W        W76422  30.121   4.515   1.900
11196W        W76423   4.934  18.533  14.456
11197W        W76424   9.299  28.687  14.358
11198W        W76425  35.608   8.434   2.327
11199W        W76426  38.046  17.616  11.127
11200W        W76427  28.710   2.451  13.872
11201W        W76428  31.689  35.277   4.927
11202W        W76429  40.455  32.145   0.544
11203W        W76430  37.681  26.561  12.064
11204W        W76431  14.779  19.084  14.376
11205W        W76432   6.397  12.227   0.845
11206W        W76433  35.487  26.741   3.747
11207W        W76434  22.072  27.256   2.481
11208W        W76435  24.820  36.875  12.544
11209W        W76436   8.380  38.742   3.631
11210W        W76437  13.322  17.661  11.214
11211W        W76438   3.030   0.452  12.582
11212W        W76439  40.113  18.126  11.722
11213W        W76440  26.501  24.550   1.033
11214W        W76441   4.755  16.888  10.558
11215W        W76442  25.788   9.020   3.962
11216W        W76443  16.792  23.585   4.646
11217W        W76444  44.373  33.739  13.850
11218W        W76445  26.886  22.813  10.358
11219W        W76446  10.588  36.349   4.471
11220W        W76447   3.931  22.132  14.367
11221W        W76448  17.760  30.023  14.921
11222W        W76449  19.336  15.587  13.978
11223W        W76450  16.814  25.882   1.411
11224W        W76451  14.180  12.432   2.277
11225W        W76452  26.961  24.215  13.561
11226W        W76453  36.577   8.077   3.268
11227W        W76454   0.402  18.760   2.256
11228W        W76455  10.864   8.311  12.133
11229W        W76456   5.145  39.860   0.459
11230W        W76457  30.974  44.828   4.047
11231W        W76458  34.883   9.361  14.782
11232W        W76459  20.917   2.675  11.559
11233W        W76460  12.627  33.629  14.167
11234W        W76461  17.816  38.093   3.669
11235W        W76462  27.067  22.779  11.679
11236W        W76463   7.374  27.710  13.070
11237W        W76464  41.263  19.743  14.752
11238W        W76465  44.040  39.591  11.156
11239W        W76466  42.075  35.893   1.635
11240W        W76467  29.076  13.119   0.316
11241W        W76468  10.643   6.820   3.701
11242W        W76469   8.864  14.743  13.644
11243W        W76470  31.576  23.956  13.529
11244W        W76471  41.809  33.448  11.103
11245W        W76472  36.770  15.927   4.872
11246W        W76473  32.581  14.737   4.393
11247W        W76474  34.884   2.986  10.629
11248W        W76475  38.858   5.747   1.872
11249W        W76476  28.119  44.472   4.743
11250W        W76477   5.488  33.364   4.205
11251W        W76478  13.695  19.086  14.362
11252W        W76479  25.978   4.751  11.308
11253W        W76480  18.378  38.488  14.813
11254W        W76481  40.556  19.131  12.038
11255W        W76482   8.619   1.932  12.286
11256W        W76483  30.868  22.965   3.198
11257W        W76484  21.785   7.824  13.516
11258W        W76485   7.515   1.788   0.738
11259W        W76486   4.652  16.284   3.328
11260W        W76487  19.558   3.022  14.031
11261W        W76488  39.999  40.647   2.634
11262W        W76489  27.879  19.172  10.939
11263W        W76490  34.569  42.895   3.134
11264W        W76491  31.612  24.619  13.831
11265W        W76492  39.550  30.576  11.733
11266W        W76493  44.784   3.154   4.216
11267W        W76494  31.626  41.917  13.546
11268W        W76495  17.975  34.560  12.083
11269W        W76496   6.591  11.683   1.437
11270W        W76497  40.867  42.043  11.873
11271W        W76498  36.089  23.618  10.631
11272W        W76499  17.798  22.275   2.270
11273W        W76500  27.627  33.690  13.407
11274W        W76501  18.578  12.837  11.239
11275W        W76502  39.273  31.940  10.462
11276W        W76503  21.507  23.311  14.895
11277W        W76504   0.762  26.466  14.404
11278W        W76505  25.592  11.365  14.319
11279W        W76506   6.923   9.904   0.763
11280W        W76507  16.748  33.279  12.016
11281W        W76508  13.405  34.255   4.129
11282W        W76509  16.109  26.005  10.471
11283W        W76510   1.997  19.278  13.096
11284W        W76511  27.530   0.868  11.630
11285W        W76512  27.702  29.954  10.254
11286W        W76513  43.838  42.402   4.185
11287W        W76514  21.606  27.491   1.966
11288W        W76515  43.031   4.453  12.241
11289W        W76516  18.406  21.568  12.489
11290W        W76517  26.051  26.712  10.780
11291W        W76518   1.491  35.172   4.641
11292W        W76519  13.752  34.597  13.810
11293W        W76520  33.868   0.849  12.075
11294W        W76521  12.571   3.365   2.089
11295W        W76522   2.705  10.018  10.781
11296W        W76523  29.925   1.322   1.930
11297W        W76524  25.134  36.569   0.366
11298W        W76525   8.774  16.602  12.608
11299W        W76526  18.006  44.224  12.024
11300W        W76527  36.282  20.632  12.545
11301W        W76528  33.469  35.117   2.812
11302W        W76529  35.165  25.584   4.787
11303W        W76530  36.621   9.886   4.189
11304W        W76531  14.703  44.224  13.265
11305W        W76532  40.417  30.092   3.616
11306W        W76533   2.008  16.221  14.894
11307W        W76534  25.664  11.421  11.240
11308W        W76535   3.276   7.779   3.395
11309W        W76536   4.144  18.808   4.141
11310W        W76537  23.456  26.944   3.627
11311W        W76538  18.140  37.516   0.039
11312W        W76539  29.214  25.218   2.732
11313W        W76540   8.168   0.174   4.570
11314W        W76541   5.470  12.513   1.851
11315W        W76542  41.760  23.627  13.946
11316W        W76543  18.660   7.916  13.381
11317W        W76544  19.660  30.670   0.403
11318W        W76545  23.083  26.991   1.471
11319W        W76546  23.044   1.977  14.888
11320W        W76547   6.036  25.361  10.696
11321W        W76548  41.889   4.489   3.932
11322W        W76549  19.135  38.518   0.962
11323W        W76550   5.750   0.537  14.002
11324W        W76551  34.091  37.447   1.723
11325W        W76552  20.639  16.771  12.461
11326W        W76553  43.377  41.579  12.967
11327W        W76554  42.181   3.017  13.189
11328W        W76555   8.310  25.919   3.234
11329W        W76556  40.129  12.693   0.924
11330W        W76557  21.591  39.170   1.201
11331W        W76558   1.253  10.047   2.677
11332W        W76559  40.035  18.573  13.481
11333W        W76560  21.595  13.811  10.453
11334W        W76561  25.062  27.410  14.395
11335W        W76562  21.145   4.311   1.359
11336W        W76563  20.734  26.166   2.124
11337W        W76564  16.102  24.212   1.838
11338W        W76565  32.422  22.951  12.009
11339W        W76566  38.788  25.954   0.373
11340W        W76567  37.007  31.728   1.335
11341W        W76568  25.460   2.879   0.403
11342W        W76569  20.026  36.107   1.378
11343W        W76570  41.209   3.492  12.152
11344W        W76571  34.106  32.956   4.537
11345W        W76572   4.873  44.783   2.149
11346W        W76573  24.515  26.223  10.776
11347W        W76574  17.366  18.620   0.135
11348W        W76575   9.379  31.724   3.569
11349W        W76576  42.409  13.157  10.349
11350W        W76577  32.948  24.015  11.586
11351W        W76578   7.309  28.457   3.698
11352W        W76579   8.340  17.661  13.886
11353W        W76580  14.844  30.901  11.112
11354W        W76581   6.672  13.192  12.313
11355W        W76582   9.467  13.180   3.277
11356W        W76583   8.783  10.770   3.648
11357W        W76584  36.477  19.849   0.322
11358W        W76585  39.479  38.751  14.557
11359W        W76586  30.088  10.873   4.619
11360W        W76587  32.137  13.439   2.249
11361W        W76588   5.398  32.793   0.878
11362W        W76589  29.648  39.435  14.533
11363W        W76590   5.353  32.605  12.139
11364W        W76591  19.672  40.027  11.551
11365W        W76592  14.674   8.643   1.372
11366W        W76593   3.712   7.948  10.849
11367W        W76594   1.057  35.135   3.028
11368W        W76595   6.492  44.442  14.077
11369W        W76596  24.933   7.926  13.338
11370W        W76597   6.299  20.141   0.891
11371W        W76598   0.957  21.739  11.873
11372W        W76599   1.681  23.001   4.895
11373W        W76600  10.623  30.586  14.886
11374W        W76601  42.025  22.352   3.796
11375W        W76602  10.434  14.120  11.176
11376W        W76603  11.571  39.028  10.639
11377W        W76604  17.750  20.284  11.085
11378W        W76605  10.377  14.073   3.706
11379W        W76606  37.844  15.921  10.233
11380W        W76607  20.107   1.265   0.082
11381W        W76608  15.309  33.957  14.045
11382W        W76609  40.957  29.843   4.857
11383W        W76610  41.008  36.726   3.302
11384W        W76611   4.373  30.423  14.130
11385W        W76612   3.731  41.682  12.053
11386W        W76613   5.961   9.144  12.442
11387W        W76614   2.195  41.505   3.648
11388W        W76615  35.064  16.525  13.899
11389W        W76616  38.254   5.063   2.954
11390W        W76617  22.912  43.329  11.114
11391W        W76618   3.272  16.747  12.772
11392W        W76619  16.591   7.321  11.742
11393W        W76620  37.645  29.684  10.032
11394W        W76621  41.517  27.414  11.174
11395W        W76622   3.332  15.067  13.029
11396W        W76623  29.145  18.211  13.144
11397W        W76624  18.106  17.599   3.718
11398W        W76625  17.599  31.098   0.881
11399W        W76626   0.857  19.389  14.797
11400W        W76627   3.278  13.382   3.084
11401W        W76628  39.566   6.339  11.930
11402W        W76629  32.398   8.456   2.800
11403W        W76630   8.947  29.956   3.641
11404W        W76631  43.348   5.889  13.359
11405W        W76632  14.135  40.572   0.037
11406W        W76633   5.714  12.105  14.417
11407W        W76634   3.927  40.299   4.779
11408W        W76635   4.946   1.769   2.592
11409W        W76636  26.528  28.995  13.890
11410W        W76637  30.501  36.554  12.977
11411W        W76638  31.101  11.913  14.182
11412W        W76639  23.571  44.635   9.776
11413W        W76640  34.146  27.983   3.123
11414W        W76641  43.152  43.380   1.301
11415W        W76642  22.572  31.423   1.964
11416W        W76643  21.626  29.738  12.435
11417W        W76644  35.022  23.207  11.065
11418W        W76645  22.671  20.977  13.430
11419W        W76646  20.835  10.438  10.128
11420W        W76647  26.616  44.061  10.706
11421W        W76648  23.485  39.683  14.590
11422W        W76649   1.375  30.610   0.985
11423W        W76650  35.862  18.048   4.686
11424W        W76651  15.123  44.846   2.676
11425W        W76652  38.531  11.896  12.706
11426W        W76653  33.589  30.883  13.438
11427W        W76654   8.254  41.854   0.346
11428W        W76655   5.402   2.995   0.839
11429W        W76656  18.558  36.580  14.350
11430W        W76657  13.754  27.058  14.208
11431W        W76658  27.367  35.438  11.505
11432W        W76659  37.155  32.051  10.236
11433W        W76660  26.701  10.807  12.520
11434W        W76661  14.141   3.200  14.808
11435W        W76662  35.034  35.987   2.136
11436W        W76663   0.793  13.753  10.985
11437W        W76664   4.096  44.592   2.830
11438W        W76665  27.992  30.541  11.109
11439W        W76666  42.587  30.066   0.039
11440W        W76667   4.157  29.439   0.924
11441W        W76668  24.360  24.951   3.881
11442W        W76669  10.385  44.336   4.159
11443W        W76670  14.901  14.248   3.652
11444W        W76671  16.339  28.475   3.894
11445W        W76672  38.967   0.599   2.098
11446W        W76673   2.228  18.075  13.932
11447W        W76674   3.936  15.581   2.683
11448W        W76675   5.895   7.151  12.538
11449W        W76676  19.570  41.295  13.285
11450W        W76677  37.480  15.068   4.218
11451W        W76678  25.401   0.823   1.741
11452W        W76679  24.812   6.315  11.609
11453W        W76680  18.156  10.685   2.511
11454W        W76681  38.839  13.395  13.861
11455W        W76682  19.366  22.129   0.848
11456W        W76683  35.356  12.259   1.699
11457W        W76684  17.129  43.614   1.227
11458W        W76685  32.983  22.313   0.134
11459W        W76686  30.910  10.242   2.901
11460W        W76687  26.610  34.610  14.301
11461W        W76688   9.576  37.363  12.790
11462W        W76689  25.695  23.302   3.719
11463W        W76690  37.748   4.799   5.079
11464W        W76691  31.079   1.970  11.124
11465W        W76692  16.522  41.422   2.669
11466W        W76693  19.478  17.683  13.459
11467W        W76694   5.718  14.973   4.439
11468W        W76695   6.692  41.841   0.224
11469W        W76696   6.125  32.511   2.615
11470W        W76697  10.795  35.371  13.818
11471W        W76698  23.222  43.008  12.278
11472W        W76699  42.325  22.335   3.234
11473W        W76700  19.976  20.310   2.305
11474W        W76701  41.424   7.308   3.836
11475W        W76702  14.547   8.702   0.353
11476W        W76703   7.171  13.644  12.986
11477W        W76704  30.139   8.225   4.131
11478W        W76705   8.727   5.315   0.894
11479W        W76706  24.771  19.402  12.188
11480W        W76707  27.850  23.094   0.001
11481W        W76708  28.201  38.119  13.094
11482W        W76709   8.643  15.765  10.616
11483W        W76710   3.836  24.205  11.615
11484W        W76711  24.056  20.763   1.891
11485W        W76712  21.734   0.325  14.436
11486W        W76713  26.726  35.457   2.775
11487W        W76714  34.809  21.468   4.064
11488W        W76715  16.115   3.880   0.795
11489W        W76716  19.208  12.674   1.055
11490W        W76717  27.785  20.554   3.184
11491W        W76718  44.423   5.176   2.641
11492W        W76719   2.432  21.004   0.114
11493W        W76720  24.499  14.205   4.359
11494W        W76721  21.179  25.797   2.065
11495W        W76722   7.467   7.848  13.871
11496W        W76723  31.695  36.061  14.988
11497W        W76724   2.971   1.199   3.851
11498W        W76725   8.853  27.979   1.718
11499W        W76726  13.317  21.571  14.880
11500W        W76727   8.929   8.884   2.676
11501W        W76728  25.992  27.580  12.489
11502W        W76729  34.546   4.057   4.777
11503W        W76730  20.303  44.859  11.967
11504W        W76731  17.941  36.898   3.144
11505W        W76732  32.615  34.959   0.387
11506W        W76733   6.732  24.654   3.934
11507W        W76734  24.022   3.420  12.927
11508W        W76735  11.660   3.994   1.258
11509W        W76736   3.282  36.931   2.268
11510W        W76737  40.360  19.050  10.393
11511W        W76738  13.018   5.873  12.323
11512W        W76739  21.264  11.345  10.713
11513W        W76740  19.316  13.063  11.646
11514W        W76741  36.233  35.119  13.461
11515W        W76742  24.498  17.715   0.263
11516W        W76743  11.742   4.158  14.976
11517W        W76744  21.582   3.870  12.467
11518W        W76745  40.940  13.333   0.865
11519W        W76746  38.731  19.766   4.520
11520W        W76747   2.754  36.071  10.633
11521W        W76748   7.257  42.410   0.748
11522W        W76749  42.000   4.144   3.560
11523W        W76750  37.818  33.628  14.044
11524W        W76751   3.285  15.684  14.335
11525W        W76752  14.116  34.838   1.289
11526W        W76753  36.981  22.149   2.966
11527W        W76754   9.504  27.986  12.349
11528W        W76755  43.307  12.375   1.405
11529W        W76756  35.326   7.719  14.900
11530W        W76757  17.931  24.282  11.629
11531W        W76758  11.708   7.268   1.804
11532W        W76759   7.314  11.218  12.386
11533W        W76760  41.418  32.214   1.265
11534W        W76761  10.218  33.160  12.992
11535W        W76762   4.699  19.474   0.817
11536W        W76763  39.362   9.663   3.342
11537W        W76764  18.658   8.550  11.672
11538W        W76765  27.665   6.823   4.055
11539W        W76766  18.755  40.016   0.961
11540W        W76767  22.191  16.739   4.469
11541W        W76768   4.825  37.313  11.632
11542W        W76769  41.207  19.101  10.181
11543W        W76770   7.173  22.196   4.298
11544W        W76771  12.675   9.616   1.288
11545W        W76772  21.957  18.073   4.527
11546W        W76773  22.823   7.187  10.503
11547W        W76774   1.738  41.997   2.821
11548W        W76775  42.750  31.160   2.183
11549W        W76776   8.077  12.453   0.831
11550W        W76777  33.046  20.093   3.015
11551W        W76778  26.252   0.375   4.255
11552W        W76779  38.998  29.537   5.090
11553W        W76780  14.382  32.872  10.089
11554W        W76781  24.937   7.325   0.797
11555W        W76782  27.193   3.218   4.572
11556W        W76783  39.009  23.875   4.002
11557W        W76784  20.653  26.976   4.466
11558W        W76785  31.792   3.749   0.835
11559W        W76786  21.387  31.390   3.788
11560W        W76787   6.336   1.694   1.581
11561W        W76788   4.807  32.046  14.901
11562W        W76789  21.398  37.079  12.591
11563W        W76790   3.488  37.014  11.421
11564W        W76791   4.968  38.565  12.748
11565W        W76792  40.656   1.980  13.886
11566W        W76793  28.221   1.467  13.016
11567W        W76794  40.632  37.368  11.841
11568W        W76795  14.541  24.697  12.023
11569W        W76796  29.898  10.237  13.841
11570W        W76797  13.001  26.885   2.038
11571W        W76798  19.122  42.493   2.174
11572W        W76799  16.057  27.216  14.354
11573W        W76800  42.821  39.969   0.857
11574W        W76801  32.013  33.155   3.830
11575W        W76802   1.773  12.452  14.877
11576W        W76803  39.391  41.004  11.128
11577W        W76804  31.011  13.370   0.233
11578W        W76805  15.553  38.318  14.895
11579W        W76806  17.841  22.104   2.772
11580W        W76807   5.271  13.836  13.848
11581W        W76808   3.815   1.876   1.727
11582W        W76809  29.352  30.499   1.241
11583W        W76810  20.979   3.249   0.340
11584W        W76811  16.646   6.559  10.659
11585W        W76812  29.729  42.398  12.798
11586W        W76813  36.623  29.362   2.750
11587W        W76814  43.302  26.100   3.648
11588W        W76815  44.998   5.781  14.978
11589W        W76816  29.552  44.278   9.976
11590W        W76817  37.399  32.138   0.449
11591W        W76818   7.333   9.931   3.727
11592W        W76819  18.743  44.261  13.479
11593W        W76820  17.850  38.555  10.650
11594W        W76821   8.287  41.074   1.271
11595W        W76822  36.996   3.041  12.129
11596W        W76823   8.612  44.694   1.274
11597W        W76824  44.015   0.693   2.384
11598W        W76825  30.591  16.250   0.198
11599W        W76826  38.223  18.366  11.174
11600W        W76827  29.637  18.633   2.680
11601W        W76828  15.786  11.595  13.796
11602W        W76829   3.251  28.704  10.741
11603W        W76830  24.685  29.481   2.359
11604W        W76831  33.122  34.520  11.934
11605W        W76832   3.280  35.851   0.739
11606W        W76833  31.149  42.879  10.745
11607W        W76834  38.998  40.411  12.135
11608W        W76835   4.219  24.905  14.844
11609W        W76836   2.146   8.134   1.834
11610W        W76837  19.612  35.917  11.496
11611W        W76838  26.255   1.092   5.363
11612W        W76839  28.672   0.656   2.426
11613W        W76840  29.625   9.711  10.466
11614W        W76841  29.951  33.474   3.170
11615W        W76842   5.819   7.311  10.631
11616W        W76843  38.706  14.296   1.202
11617W        W76844  31.493  15.861  11.132
11618W        W76845  31.096  10.006  11.531
11619W        W76846  21.596  18.218  10.662
11620W        W76847  35.235  26.556  14.469
11621W        W76848  15.164  31.549   2.446
11622W        W76849  12.272   2.667  13.424
11623W        W76850  43.317  43.571  13.252
11624W        W76851   9.747  22.906  14.700
11625W        W76852  38.966  39.726   4.579
11626W        W76853  22.642  10.521   2.886
11627W        W76854  10.085  33.296  10.276
11628W        W76855  16.216  11.557  14.521
11629W        W76856  13.251  11.241   1.906
11630W        W76857  33.903  24.111   2.287
11631W        W76858  23.811  30.834   3.275
11632W        W76859  14.829   4.921  14.734
11633W        W76860  33.293  42.461   3.317
11634W        W76861  37.832  22.360  11.853
11635W        W76862   7.276  35.673   4.790
11636W        W76863  22.778   1.280  13.999
11637W        W76864  39.401  31.122   2.212
11638W        W76865  25.532  24.678  13.630
11639W        W76866  31.572  28.428  11.951
11640W        W76867   0.942   4.729  14.750
11641W        W76868   8.479  12.858  13.302
11642W        W76869  26.064   1.919   5.072
11643W        W76870  35.376   5.385   4.560
11644W        W76871  32.499  25.270   2.380
11645W        W76872  33.649  41.383   2.592
11646W        W76873  21.752  19.416   2.211
11647W        W76874  29.493  13.334   3.499
11648W        W76875  33.786  10.325   3.366
11649W        W76876   1.867  11.104   2.381
11650W        W76877  40.012  26.017   4.363
11651W        W76878  16.703  26.783   0.397
11652W        W76879  40.746   5.756   0.881
11653W        W76880  34.290   3.957   4.309
11654W        W76881  30.452   5.114  10.441
11655W        W76882  13.799  22.934  12.844
11656W        W76883   9.256  33.294  12.878
11657W        W76884  35.780  23.552   2.662
11658W        W76885  14.349  12.119   4.128
11659W        W76886   8.232   3.277  11.097
11660W        W76887  26.230  18.298   2.734
11661W        W76888  11.207   2.323  12.148
11662W        W76889  20.607  14.108  14.001
11663W        W76890  18.516  16.284   4.169
11664W        W76891  20.298  13.334  12.390
11665W        W76892   2.323   7.696   0.527
11666W        W76893  39.400  39.950   4.440
11667W        W76894  18.693  44.843  10.673
11668W        W76895  37.262  27.449  13.363
11669W        W76896  12.769  43.118  13.971
11670W        W76897   5.664  28.102  14.267
11671W        W76898  31.601  29.028  12.495
11672W        W76899  14.274  10.152   2.755
11673W        W76900  32.038   2.961  11.509
11674W        W76901  19.049   3.488  14.669
11675W        W76902  42.913  11.568   1.650
11676W        W76903   2.310   3.708   0.738
11677W        W76904  44.444   7.903  12.459
11678W        W76905  20.123  27.763  11.681
11679W        W76906  33.170  29.054   0.519
11680W        W76907  14.275   0.755  12.353
11681W        W76908  34.149  29.657   0.956
11682W        W76909  26.648  31.214   2.319
11683W        W76910  19.850   2.934  12.582
11684W        W76911  19.069  18.289  14.322
11685W        W76912  27.978   8.342   3.082
11686W        W76913  40.740  25.644   4.031
11687W        W76914   3.507  42.872  14.375
11688W        W76915   4.550  39.908  10.145
11689W        W76916  37.870  14.632   3.665
11690W        W76917   9.131  11.639  14.452
11691W        W76918   9.659  22.597   1.878
11692W        W76919  36.513  28.422   3.783
11693W        W76920  44.551  39.938  11.042
11694W        W76921  23.752  24.660   2.245
11695W        W76922  41.770  43.980   2.914
11696W        W76923  13.059  10.844   4.610
11697W        W76924   8.786   4.744   3.854
11698W        W76925  24.211  44.830   2.593
11699W        W76926  40.838  15.125  14.940
11700W        W76927  42.431  35.607  10.715
11701W        W76928   9.830   0.931   4.250
11702W        W76929   3.959  21.745  12.668
11703W        W76930  28.435   3.556   1.890
11704W        W76931  14.054   5.116  11.292
11705W        W76932  11.318  27.779   2.272
11706W        W76933   9.545   0.479   2.010
11707W        W76934   2.756   1.953  14.967
11708W        W76935   3.808  20.750  12.906
11709W        W76936  42.788  42.898   4.983
11710W        W76937  31.017  34.570   2.371
11711W        W76938  23.637  14.479  13.970
11712W        W76939  43.061  39.441   0.878
11713W        W76940  22.247  34.480  11.167
11714W        W76941   7.854  39.644  11.924
11715W        W76942   9.137  43.968   1.699
11716W        W76943  35.167  34.903  10.237
11717W        W76944  31.374  36.445   0.192
11718W        W76945  43.924  39.102  11.692
11719W        W76946  19.353  15.734   3.267
11720W        W76947  27.923  26.554   3.653
11721W        W76948  28.841  10.902   3.726
11722W        W76949  30.285  24.240  11.655
11723W        W76950  32.765  31.131   0.948
11724W        W76951   6.154  44.418   3.779
11725W        W76952  39.743   1.473   3.311
11726W        W76953   8.350  39.572  14.378
11727W        W76954  42.771  12.266   3.250
11728W        W76955   3.902   6.685  14.417
11729W        W76956  29.164  39.811  12.908
11730W        W76957  22.094  44.715   2.344
11731W        W76958  19.333  21.216   0.349
11732W        W76959  15.619  33.397  12.543
11733W        W76960  10.139   3.802  11.979
11734W        W76961  15.553  34.102  11.097
11735W        W76962  35.613  24.154   1.934
11736W        W76963   4.160  24.552  12.578
11737W        W76964   1.032  33.681   4.194
11738W        W76965  28.102   0.700  10.110
11739W        W76966   6.866   4.339   4.428
11740W        W76967  13.163  25.312   4.947
11741W        W76968  15.120  11.891   0.792
11742W        W76969  10.587  28.915   2.439
11743W        W76970   2.037  40.956  11.592
11744W        W76971  39.351  17.016  11.520
11745W        W76972  22.219  27.724   0.731
11746W        W76973  20.960  19.874   1.311
11747W        W76974  25.819  33.630  13.366
11748W        W76975  23.168   2.279   2.612
11749W        W76976  18.669   3.855  12.960
11750W        W76977  38.451  32.910   0.685
11751W        W76978  36.102   9.296  10.650
11752W        W76979  31.877  10.255   1.713
11753W        W76980  39.074  19.242   1.722
11754W        W76981   2.790  20.062  14.294
11755W        W76982   6.923  44.245  13.881
11756W        W76983  33.337   5.179  12.992
11757W        W76984  43.325  16.721  12.169
11758W        W76985  19.728   3.125  10.314
11759W        W76986  23.474  35.479  11.584
11760W        W76987  35.071   5.641  12.019
11761W        W76988  23.488  43.107  13.480
11762W        W76989  23.440  10.357   2.341
11763W        W76990  29.327  43.880  10.832
11764W        W76991   3.571  16.608  14.274
11765W        W76992   8.177   1.862  11.314
11766W        W76993  37.546  14.360  11.043
11767W        W76994  30.796  18.084   0.174
11768W        W76995  44.056   9.540  11.916
11769W        W76996  32.518  31.217  11.061
11770W        W76997  36.512   4.712  13.371
11771W        W76998  11.803  37.849  14.921
11772W        W76999  16.624  29.542   1.685
11773W        W77000   3.969   3.085  11.225
11774W        W77001  20.508  34.347  12.925
11775W        W77002   9.636  40.560   2.653
11776W        W77003   0.769  26.115   2.350
11777W        W77004   5.654   0.766  11.580
11778W        W77005   9.653  30.206  11.180
11779W        W77006   2.764  22.024  11.923
11780W        W77007  35.867  14.336  13.489
11781W        W77008  16.349  33.424  11.329
11782W        W77009  11.693  26.049   4.379
11783W        W77010  27.475  27.997  11.929
11784W        W77011   7.487   1.489  14.487
11785W        W77012   5.734  35.833   3.208
11786W        W77013   1.088  36.470   2.826
11787W        W77014  34.561  19.277   2.645
11788W        W77015  15.855  39.843   4.401
11789W        W77016  34.743  29.599  13.947
11790W        W77017  16.502  27.957   4.650
11791W        W77018  30.002   3.864  10.698
11792W        W77019  22.663  25.529  13.099
11793W        W77020   5.793  25.195  11.875
11794W        W77021  21.349  11.136  13.668
11795W        W77022  19.026  26.860   4.105
11796W        W77023   4.223  44.224   1.298
11797W        W77024  25.692  36.113  14.369
11798W        W77025  31.109  14.881  14.741
11799W        W77026  18.103   5.908  12.117
11800W        W77027  17.923  23.679   1.680
11801W        W77028  41.834  19.412   5.076
11802W        W77029  40.340  36.133   4.621
11803W        W77030  31.024  11.147  11.727
11804W        W77031  34.442  32.122   3.179
11805W        W77032   1.991   8.645  11.336
11806W        W77033   4.242  30.982  13.448
11807W        W77034  14.587  36.044   0.268
11808W        W77035  15.451  44.814   4.609
11809W        W77036   9.639  28.987  12.355
11810W        W77037  43.483   3.288  14.495
11811W        W77038  30.663  11.376   3.324
11812W        W77039  26.177  16.281   1.930
11813W        W77040  24.508   2.938  13.960
11814W        W77041  36.606  38.170  11.510
11815W        W77042  15.754   4.022   0.017
11816W        W77043  43.332   6.379  13.084
11817W        W77044   6.817  27.162  10.741
11818W        W77045  36.053  41.054   4.551
11819W        W77046  19.788  34.008   3.442
11820W        W77047  43.454  32.125   1.726
11821W        W77048   3.689   9.597   3.245
11822W        W77049  26.715  27.391  11.859
11823W        W77050  28.535  26.313   3.680
11824W        W77051  12.222   9.901   1.225
11825W        W77052  12.253  37.549   2.607
11826W        W77053  14.725  34.166   4.609
11827W        W77054   7.306  16.341  12.919
11828W        W77055  19.258  37.410   2.793
11829W        W77056   6.851  37.568   2.223
11830W        W77057  41.243  42.993   2.617
11831W        W77058  11.657  28.402   4.011
11832W        W77059  43.223  34.368  10.666
11833W        W77060  19.547  32.529   3.745
11834W        W77061  41.444  44.956  14.808
11835W        W77062  25.776  32.630  14.386
11836W        W77063  39.264   4.295   9.858
11837W        W77064   6.182  20.988  12.975
11838W        W77065  25.234  13.791   4.897
11839W        W77066  22.654  24.706   1.460
11840W        W77067  14.105  31.817   2.225
11841W        W77068  37.942  13.407  12.514
11842W        W77069   5.848   7.383  14.458
11843W        W77070  39.810  10.451  11.601
11844W        W77071  18.513  34.906   0.899
11845W        W77072  26.460  22.714   2.914
11846W        W77073  42.452  29.652  13.951
11847W        W77074  42.915  23.853   1.232
11848W        W77075  28.170   5.836   2.703
11849W        W77076  34.584  42.848  11.680
11850W        W77077  11.668  20.066   3.784
11851W        W77078  44.443   8.557   3.669
11852W        W77079  15.125  32.584  14.824
11853W        W77080  39.634  25.720   4.643
11854W        W77081  10.894  29.273   1.387
11855W        W77082  43.079  26.938  14.523
11856W        W77083   5.470   5.692  14.731
11857W        W77084  12.772   0.986  11.265
11858W        W77085   6.977  34.944  11.574
11859W        W77086  11.659   4.849   5.002
11860W        W77087  29.638  16.595  14.007
11861W        W77088  27.498   9.113  11.351
11862W        W77089  12.644  33.718  11.570
11863W        W77090   9.430  41.802  14.970
11864W        W77091  11.645  22.835  11.093
11865W        W77092   6.877  20.078   0.898
11866W        W77093  37.635  13.295  14.796
11867W        W77094  41.233  36.913   1.708
11868W        W77095  38.608  16.118   1.869
11869W        W77096   4.767  27.001  14.485
11870W        W77097  43.002  21.177   0.335
11871W        W77098  26.953   1.628   3.299
11872W        W77099  10.418  19.124  13.016
11873W        W77100  12.676  38.736   1.240
11874W        W77101  43.188  39.890   4.087
11875W        W77102   2.909  25.485  14.589
11876W        W77103   6.694  25.899   3.055
11877W        W77104   3.713  20.457  14.369
11878W        W77105  10.381  30.475   2.114
11879W        W77106  31.919  33.815  10.732
11880W        W77107  16.116  37.882   0.309
11881W        W77108  21.087  36.901   1.354
11882W        W77109   9.690  16.503  14.781
11883W        W77110  26.960  44.645   2.362
11884W        W77111  35.516   9.094   4.318
11885W        W77112  42.332   1.130  14.346
11886W        W77113   6.280  10.788  12.930
11887W        W77114  38.672  24.002  12.868
11888W        W77115  10.875  18.456  14.811
11889W        W77116  34.906  27.794  11.529
11890W        W77117  38.254  31.837  12.130
11891W        W77118  34.458  36.178  14.943
11892W        W77119  31.514  39.843  13.019
11893W        W77120  33.780  13.951   2.795
11894W        W77121  19.020   7.121  14.481
11895W        W77122   2.326  42.272   5.016
11896W        W77123  40.802  12.366  14.511
11897W        W77124  32.323   9.729   0.887
11898W        W77125  22.071  36.338   0.519
11899W        W77126  41.590  32.075  10.192
11900W        W77127  22.106  22.049  10.701
11901W        W77128  30.180   4.869  12.928
11902W        W77129  34.553   5.614  13.309
11903W        W77130  18.101   0.479   2.608
11904W        W77131  12.828  31.547   4.599
11905W        W77132   7.304  25.942   4.743
11906W        W77133  44.009   2.507   1.714
11907W        W77134   7.211   8.722   1.934
11908W        W77135  22.711  19.945  12.492
11909W        W77136  40.512  38.372  10.806
11910W        W77137  34.941   9.124   4.096
11911W        W77138  17.437   3.401  14.782
11912W        W77139  39.343  33.904  11.461
11913W        W77140   8.450   8.230   2.204
11914W        W77141  32.819  38.037  13.803
11915W        W77142   7.099  23.305   4.520
11916W        W77143  38.460  28.863   3.336
11917W        W77144  37.130  43.318  14.790
11918W        W77145  39.491  29.205  14.776
11919W        W77146  19.009  41.711   1.551
11920W        W77147  43.428  40.270   4.513
11921W        W77148  43.760  26.047   3.362
11922W        W77149   9.857  28.656  14.948
11923W        W77150  22.320  37.604  14.765
11924W        W77151  18.154   4.774   1.923
11925W        W77152  28.139  32.786  10.568
11926W        W77153   5.022  42.858   1.789
11927W        W77154  34.891  28.539   9.730
11928W        W77155  21.686   6.219   3.199
11929W        W77156  16.361  26.660   1.290
11930W        W77157  11.697  16.143  13.372
11931W        W77158  40.019   5.922  14.654
11932W        W77159  34.032  36.133  12.525
11933W        W77160  22.988  21.690  10.964
11934W        W77161  27.371  35.923  10.786
11935W        W77162  20.834  24.690  14.516
11936W        W77163   0.258  19.964  13.043
11937W        W77164  24.401  37.936   0.722
11938W        W77165  34.104  38.106   0.297
11939W        W77166  31.346   1.744   2.882
11940W        W77167   6.636  10.894  13.864
11941W        W77168  16.646  26.328   4.980
11942W        W77169  30.140  25.264   1.359
11943W        W77170   5.120  18.467   2.285
11944W        W77171  16.342  28.570   1.015
11945W        W77172  13.183  24.423  11.890
11946W        W77173   1.545   4.708   0.654
11947W        W77174  34.568  27.557   2.270
11948W        W77175  23.250   2.756   1.167
11949W        W77176   6.439  16.471   4.034
11950W        W77177  40.724   1.664   1.797
11951W        W77178  27.234  35.858  11.276
11952W        W77179  23.888  11.589  10.369
11953W        W77180   5.652   3.271   3.621
11954W        W77181  21.704   8.603  10.615
11955W        W77182  19.200  33.626   2.932
11956W        W77183   7.834  13.231   3.466
11957W        W77184   7.127   4.060   2.666
11958W        W77185  42.264  31.560  12.500
11959W        W77186  33.429   5.824  13.500
11960W        W77187  24.296  20.082   4.509
11961W        W77188  23.137  44.240  12.850
11962W        W77189   8.981   3.325  12.948
11963W        W77190  14.151  21.042   3.448
11964W        W77191   2.393  15.834  14.436
11965W        W77192  31.175   8.828  14.816
11966W        W77193  14.702   2.290  14.525
11967W        W77194  18.239  23.657   0.262
11968W        W77195  18.263   6.771   3.160
11969W        W77196   3.244   1.851  14.800
11970W        W77197   8.343   2.786  12.478
11971W        W77198  26.274  13.867   2.543
11972W        W77199  26.015  44.065  11.161
11973W        W77200   7.193  25.437  12.857
11974W        W77201   2.472   9.663   4.158
11975W        W77202  17.632  39.085   2.763
11976W        W77203  41.416  40.994   0.731
11977W        W77204  18.968  31.873   2.886
11978W        W77205  20.097  29.018  13.670
11979W        W77206   5.922  22.333   1.405
11980W        W77207   2.540   1.096   2.946
11981W        W77208   6.261   1.424  12.651
11982W        W77209  32.328  32.658   3.068
11983W        W77210  22.188  31.569   2.283
11984W        W77211   8.893  25.127   2.174
11985W        W77212  36.097  36.953  10.179
11986W        W77213  39.115   1.271  14.967
11987W        W77214  14.867  26.604   5.224
11988W        W77215  21.810  39.136   3.216
11989W        W77216  33.835  33.995   2.641
11990W        W77217  31.942  16.294   0.084
11991W        W77218  16.692  25.597  10.416
11992W        W77219  35.566  40.998  14.363
11993W        W77220  21.672  13.878  10.946
11994W        W77221   9.259  25.395   0.393
11995W        W77222  20.267  11.742  14.952
11996W        W77223  15.373  41.166  11.145
11997W        W77224  30.991   3.104   1.747
11998W        W77225  37.988  38.551  14.390
11999W        W77226  11.735  31.807  13.155
12000W        W77227  10.729  22.983   1.342
12001W        W77228  29.930  12.102   0.312
12002W        W77229   4.261  41.613  13.951
12003W        W77230  36.832  40.421  12.471
12004W        W77231  30.089   9.760   3.803
12005W        W77232   4.446  32.457  12.918
12006W        W77233  21.482   0.674  11.566
12007W        W77234  29.357  24.749  14.363
12008W        W77235   3.627  39.446   1.217
12009W        W77236  19.016  39.727  13.915
12010W        W77237  43.469  16.180   2.367
12011W        W77238  19.241   5.360  11.085
12012W        W77239  16.583  20.578  12.280
12013W        W77240  10.877   1.723  14.441
12014W        W77241  43.261  38.314  11.626
12015W        W77242   2.872  17.723  11.677
12016W        W77243  38.038  35.652   2.281
12017W        W77244  17.338   8.197   2.366
12018W        W77245  38.289   1.894   1.369
12019W        W77246  37.326   7.226  10.846
12020W        W77247   7.677  44.777   3.790
12021W        W77248  10.403  25.194  13.150
12022W        W77249  35.234  37.734   4.118
12023W        W77250  11.264   0.277   4.618
12024W        W77251  26.678  16.150   1.795
12025W        W77252  17.386  34.378   1.417
12026W        W77253   2.302  21.258  10.776
12027W        W77254  20.695   9.407   4.442
12028W        W77255  20.265  15.699   0.204
12029W        W77256  20.495  19.194   4.757
12030W        W77257  28.194   4.321  10.782
12031W        W77258  23.354  10.448  12.787
12032W        W77259   0.363  29.068  13.749
12033W        W77260  39.097  15.095  14.397
12034W        W77261   7.555   1.016  14.281
12035W        W77262  10.389   9.462  14.469
12036W        W77263  19.600  29.556  12.131
12037W        W77264  13.449  22.259  14.272
12038W        W77265   2.267   6.826  12.991
12039W        W77266  13.304  36.380  12.127
12040W        W77267  12.618  20.333   3.652
12041W        W77268  34.938   2.582  14.932
12042W        W77269  21.552  31.115   3.184
12043W        W77270  29.265  23.676   0.885
12044W        W77271  33.028   7.537   0.956
12045W        W77272  20.875  22.530  14.792
12046W        W77273  37.604  13.263   1.177
12047W        W77274  40.926  23.962  11.452
12048W        W77275   9.176   2.888   4.388
12049W        W77276  30.639  11.800  14.382
12050W        W77277  27.604  35.602   1.392
12051W        W77278   0.314  11.749   0.346
12052W        W77279  16.722   2.934   4.907
12053W        W77280   7.737  39.487   1.254
12054W        W77281  33.398   4.915  13.948
12055W        W77282   8.127   7.885   1.308
12056W        W77283  42.455   4.646  13.289
12057W        W77284  43.443  13.345   1.455
12058W        W77285  39.367  39.415   3.161
12059W        W77286  11.945  26.764  12.148
12060W        W77287  10.270  17.615  12.099
12061W        W77288  31.010  24.415   5.114
12062W        W77289  32.523  16.539   2.129
12063W        W77290  44.237  38.620   3.681
12064W        W77291   0.085  32.487  13.590
12065W        W77292  36.970  21.489  12.581
12066W        W77293  22.231   8.158  12.491
12067W        W77294  44.029   0.933   1.382
12068W        W77295  13.185  11.223  12.410
12069W        W77296  21.687  16.573   0.936
12070W        W77297  27.897  35.549  11.412
12071W        W77298  11.425  27.439  11.090
12072W        W77299  23.467  24.596   2.666
12073W        W77300  36.928   9.190   2.235
12074W        W77301   0.836  24.648  10.174
12075W        W77302  27.730  33.854   1.359
12076W        W77303  29.252  41.464   4.685
12077W        W77304   2.654  24.131   2.766
12078W        W77305  43.026  37.335  14.679
12079W        W77306  41.500  36.390   2.719
12080W        W77307  22.034  37.559  12.080
12081W        W77308  25.945   7.751  10.531
12082W        W77309  17.923   5.437   4.657
12083W        W77310   7.922   3.968   1.261
12084W        W77311   4.419  25.082   3.896
12085W        W77312  22.375  44.273   2.329
12086W        W77313  36.378  20.195  13.493
12087W        W77314  40.231  33.995  11.521
12088W        W77315  32.080  17.783  10.943
12089W        W77316   5.402  26.584  10.684
12090W        W77317  41.322   5.625   1.639
12091W        W77318   3.959  39.472   0.806
12092W        W77319  36.524  16.688   4.586
12093W        W77320  35.024  15.932   3.540
12094W        W77321   6.933  38.597   1.919
12095W        W77322  27.204   6.463  10.414
12096W        W77323  13.035   1.857  13.334
12097W        W77324  24.242  39.436  14.024
12098W        W77325  35.553  37.707  12.440
12099W        W77326  11.084  37.100   1.693
12100W        W77327  44.327   9.216   4.568
12101W        W77328  31.654  29.288  11.149
12102W        W77329  28.900  13.397  11.246
12103W        W77330  35.056  25.737   2.360
12104W        W77331  17.027  44.476   4.705
12105W        W77332   9.754  14.900   0.231
12106W        W77333  10.166  37.208  11.660
12107W        W77334  12.723   3.270   5.093
12108W        W77335  39.332  41.342  12.564
12109W        W77336  25.021  13.381  12.420
12110W        W77337  13.828  26.666   1.801
12111W        W77338  36.504  40.048  11.362
12112W        W77339  22.678  13.140   2.816
12113W        W77340  43.379   5.960  11.931
12114W        W77341  44.215   0.700  13.868
12115W        W77342  25.470  23.411  12.288
12116W        W77343   7.933  37.425   5.059
12117W        W77344  17.547   5.755   2.316
12118W        W77345  16.224   8.655  14.931
12119W        W77346   5.494   9.266   3.486
12120W        W77347   2.634  12.958  12.893
12121W        W77348  13.388  15.628  14.019
12122W        W77349  30.341  25.018  14.034
12123W        W77350  31.079  19.068   0.975
12124W        W77351   6.382  18.959  11.177
12125W        W77352  21.747   3.015  12.084
12126W        W77353  21.981   6.632  13.150
12127W        W77354   2.690  36.459   4.189
12128W        W77355  37.901  10.822   2.825
12129W        W77356  28.529  17.780  13.402
12130W        W77357  39.501  30.650   3.369
12131W        W77358  34.648  35.721  14.791
12132W        W77359  33.633  41.248  11.198
12133W        W77360  34.818  43.976  12.551
12134W        W77361  16.008  18.563  14.236
12135W        W77362   2.516  23.542   3.374
12136W        W77363  23.560  14.338   3.730
12137W        W77364  39.408  20.685  12.046
12138W        W77365  38.523  14.590  11.665
12139W        W77366  18.078  33.126   1.378
12140W        W77367  27.939  32.045   4.904
12141W        W77368  33.603  40.813   1.306
12142W        W77369  11.350  44.307  12.507
12143W        W77370  35.022  19.599  14.987
12144W        W77371  27.724  41.397   2.685
12145W        W77372  32.252  41.488   2.195
12146W        W77373  18.537  21.576  13.367
12147W        W77374  37.163  13.245  14.559
12148W        W77375  18.666   2.726  12.148
12149W        W77376  18.315  17.848   1.259
12150W        W77377  13.362  39.906  11.464
12151W        W77378  43.924  27.396  13.575
12152W        W77379  37.577  24.624  14.373
12153W        W77380   9.896   9.787   4.088
12154W        W77381  42.774  11.870  10.837
12155W        W77382   0.609  21.971  11.039
12156W        W77383   0.767  25.117   4.910
12157W        W77384  20.854  12.956  12.491
12158W        W77385   8.680  18.058  13.586
12159W        W77386   2.789  39.497  13.917
12160W        W77387   2.056  19.296   9.747
12161W        W77388  15.027   8.398  12.010
12162W        W77389  25.576  26.785   4.082
12163W        W77390  39.561  33.036  11.008
12164W        W77391   0.755  14.226  10.759
12165W        W77392   2.544   3.574  13.781
12166W        W77393  20.150  41.346  10.297
12167W        W77394   9.010  28.267  12.976
12168W        W77395  21.704  22.937  11.702
12169W        W77396  30.149  11.494   3.349
12170W        W77397  27.024  30.091   2.723
12171W        W77398  30.641  43.532   4.258
12172W        W77399  34.563  16.528  12.118
12173W        W77400   2.514   6.159   4.168
12174W        W77401  43.370  17.589   1.124
12175W        W77402  42.805  14.327   3.362
12176W        W77403   0.788  37.383   0.454
12177W        W77404   9.172  10.375   4.656
12178W        W77405  14.358  30.016   1.343
12179W        W77406  22.720  34.302  11.193
12180W        W77407   4.555  16.547  12.696
12181W        W77408  30.509  39.601  13.957
12182W        W77409   7.709  13.278  14.712
12183W        W77410  19.457   3.960   3.329
12184W        W77411  28.632  23.966   3.899
12185W        W77412  33.575  42.256  14.791
12186W        W77413  37.057   6.690   0.229
12187W        W77414  24.469  37.712   0.240
12188W        W77415  12.647   7.823   4.605
12189W        W77416  23.717  20.972  11.983
12190W        W77417  29.608   1.496   0.891
12191W        W77418  38.295  29.209   4.845
12192W        W77419   0.549  31.101  10.599
12193W        W77420   6.974   7.788  14.567
12194W        W77421  27.025  43.881   0.351
12195W        W77422  30.499  34.484  12.304
12196W        W77423  35.799  39.792  13.025
12197W        W77424  39.319  14.849  12.321
12198W        W77425  13.931   9.608   3.265
12199W        W77426   7.664  40.972  14.433
12200W        W77427   1.818  38.320   2.570
12201W        W77428  34.159   7.397   2.451
12202W        W77429  26.217  18.820   1.841
12203W        W77430  17.797   2.919   4.373
12204W        W77431  27.920   5.436   4.883
12205W        W77432  36.851   5.143   0.303
12206W        W77433  16.622   6.184  11.004
12207W        W77434  44.249  14.282  11.653
12208W        W77435  18.785  19.824   1.234
12209W        W77436  38.585  10.098  12.004
12210W        W77437  26.555   4.792  13.258
12211W        W77438  22.656  34.462  13.555
12212W        W77439  32.886   0.618  13.053
12213W        W77440  16.130  33.392   4.530
12214W        W77441   4.089   4.103  11.235
12215W        W77442   5.075   4.805   0.051
12216W        W77443  20.809  12.762   1.051
12217W        W77444  21.477  36.927   4.566
12218W        W77445  38.173   3.208   2.856
12219W        W77446  39.545   5.667  14.448
12220W        W77447   9.868  25.412   2.216
12221W        W77448   4.455  28.886  11.052
12222W        W77449  28.516  31.635   3.107
12223W        W77450  29.416  16.114   1.835
12224W        W77451  37.637  27.609   2.379
12225W        W77452   7.606  35.044   3.339
12226W        W77453   9.928  14.091  11.251
12227W        W77454   8.818   6.110  11.990
12228W        W77455  37.831  32.262  13.999
12229W        W77456  29.124   0.220  14.522
12230W        W77457  31.470   7.141   3.175
12231W        W77458   7.860  22.998   4.160
12232W        W77459  21.959   1.935  10.675
12233W        W77460  15.207  26.092   0.748
12234W        W77461  44.707  41.057   2.801
12235W        W77462  43.501   7.242   0.945
12236W        W77463  33.729  17.640  12.016
12237W        W77464  43.307  39.334   4.230
12238W        W77465  20.947   1.899  10.813
12239W        W77466  39.411  14.483   2.879
12240W        W77467  31.832  18.147  12.528
12241W        W77468  26.994   3.256  11.905
12242W        W77469  14.695  37.714  14.777
12243W        W77470  28.026  10.697   4.850
12244W        W77471  12.365  31.860   3.963
12245W        W77472  38.943  38.028   0.709
12246W        W77473  23.674   5.361  11.180
12247W        W77474   6.161  31.838  12.575
12248W        W77475  33.347   6.176  11.159
12249W        W77476   1.783  12.746   1.429
12250W        W77477  18.093   9.170  10.620
12251W        W77478  32.468  21.022   0.511
12252W        W77479  37.516  44.589   4.577
12253W        W77480   2.478   2.802   0.843
12254W        W77481  29.436  26.950  12.484
12255W        W77482  36.899  14.330  14.266
12256W        W77483  14.166  40.059   2.423
12257W        W77484  33.434  13.011   3.094
12258W        W77485  33.037  35.534  12.072
12259W        W77486  30.253  18.161  10.690
12260W        W77487   5.245   9.949   1.748
12261W        W77488  22.343  11.926  13.353
12262W        W77489   8.068  24.955   1.144
12263W        W77490  25.438  39.784   0.919
12264W        W77491  28.237  30.953   0.065
12265W        W77492  39.356  32.707  14.395
12266W        W77493  31.249   2.402  10.620
12267W        W77494  43.577  14.080  12.607
12268W        W77495  40.228  31.321   3.302
12269W        W77496  41.631  19.231   5.542
12270W        W77497   5.188   3.895  14.805
12271W        W77498  32.660  21.646  11.632
12272W        W77499   3.641  26.497   3.674
12273W        W77500  15.855  36.143  12.048
12274W        W77501   9.140  30.633  12.943
12275W        W77502   5.362  16.286   2.594
12276W        W77503   5.656   9.893  10.631
12277W        W77504  16.889  24.095  11.599
12278W        W77505  22.509  13.284  13.506
12279W        W77506  31.424  30.333   2.280
12280W        W77507  10.862  27.846  14.585
12281W        W77508  29.956   0.572   0.319
12282W        W77509  11.891   6.268  10.557
12283W        W77510  16.241  28.057  14.936
12284W        W77511  17.770  28.569  13.384
12285W        W77512   7.360  36.007   3.894
12286W        W77513  34.203  24.706  11.191
12287W        W77514  40.893  42.055   0.724
12288W        W77515  15.154  35.984  10.970
12289W        W77516  37.636  14.131   1.897
12290W        W77517  14.357   1.256   0.397
12291W        W77518  29.859   5.534   0.231
12292W        W77519   7.233   5.610   2.708
12293W        W77520  17.032  10.724   0.794
12294W        W77521   6.536  44.441  13.545
12295W        W77522  42.278   6.553   4.543
12296W        W77523  15.351  20.236   4.617
12297W        W77524  39.925  19.622  14.759
12298W        W77525  18.571  44.150  11.571
12299W        W77526  30.566  31.243   4.603
12300W        W77527  18.731  38.688  13.864
12301W        W77528  35.580  37.468  10.660
12302W        W77529   8.772  26.053   4.715
12303W        W77530  34.017  15.729  10.909
12304W        W77531  14.841  26.183   1.186
12305W        W77532  40.001  12.423  14.048
12306W        W77533   8.770  37.214   4.983
12307W        W77534  36.358  13.602   3.735
12308W        W77535  35.295   9.657  11.094
12309W        W77536   9.720  42.748  14.521
12310W        W77537   8.586  17.619   1.199
12311W        W77538  44.550  30.317  10.221
12312W        W77539  40.135  22.211   1.357
12313W        W77540   5.900  41.114  14.487
12314W        W77541  31.950   3.966   3.289
12315W        W77542   1.151  31.420   0.403
12316W        W77543  22.099  20.939  11.514
12317W        W77544  13.253  39.156   0.229
12318W        W77545  36.111  19.562   3.741
12319W        W77546  41.995  41.552  14.996
12320W        W77547  18.880  36.413   3.723
12321W        W77548  23.671   5.277   0.661
12322W        W77549  24.743  30.135   0.896
12323W        W77550  40.605   5.796  12.981
12324W        W77551   6.069  22.760  13.515
12325W        W77552  11.692  15.817   1.585
12326W        W77553  43.956  26.640   3.779
12327W        W77554  16.097   2.145  12.543
12328W        W77555  12.567  37.811  11.362
12329W        W77556   0.456  33.462   3.043
12330W        W77557  26.496  37.035  14.969
12331W        W77558   5.732  33.494   0.850
12332W        W77559  32.290  26.481   0.802
12333W        W77560  17.538  34.816  14.303
12334W        W77561  11.829  34.343  12.602
12335W        W77562  12.817   5.166   2.861
12336W        W77563  12.429  37.451  10.756
12337W        W77564  23.119   0.492  14.837
12338W        W77565  41.092  19.094   3.649
12339W        W77566   6.941  14.271  11.171
12340W        W77567   4.086  39.428  14.893
12341W        W77568   6.114  32.498  11.072
12342W        W77569  19.115  28.043  13.520
12343W        W77570   5.813  20.628  14.265
12344W        W77571  19.673  31.525   3.413
12345W        W77572   1.993  25.275   0.752
12346W        W77573  16.336   4.361   2.247
12347W        W77574  22.703   4.918   4.507
12348W        W77575  34.654   3.330  12.537
12349W        W77576  29.520  41.410   2.647
12350W        W77577  40.912  22.603  14.924
12351W        W77578  40.183   0.416  11.209
12352W        W77579  27.228  36.624  11.891
12353W        W77580  40.756   1.446  11.183
12354W        W77581   8.096  42.560   1.519
12355W        W77582  11.677  30.688   1.835
12356W        W77583   5.290  37.285  14.710
12357W        W77584   6.028  37.980  12.446
12358W        W77585  22.175   3.524  11.565
12359W        W77586  15.475  23.487  12.125
12360W        W77587  42.553  32.843  10.946
12361W        W77588   0.486  10.028  13.556
12362W        W77589  38.311  31.701   4.121
12363W        W77590  37.441  33.420   4.131
12364W        W77591   1.809  19.511  13.516
12365W        W77592  23.840  24.122   2.235
12366W        W77593  33.045  20.547  11.237
12367W        W77594  22.477  29.459   0.538
12368W        W77595   4.771   7.847   0.240
12369W        W77596  27.883   6.708   3.586
12370W        W77597  15.968  36.586  14.805
12371W        W77598   8.783  35.633  10.724
12372W        W77599  44.423  21.215   3.745
12373W        W77600  39.264  17.896   3.707
12374W        W77601  19.540  19.431  14.941
12375W        W77602  23.383  32.460   2.551
12376W        W77603  25.049  15.262  12.631
12377W        W77604  34.015  34.843  14.844
12378W        W77605  16.814  38.355   0.772
12379W        W77606  27.925  34.551  11.531
12380W        W77607  22.698  41.425   1.636
12381W        W77608  25.103  34.846  14.443
12382W        W77609  44.835  41.080  14.792
12383W        W77610  15.320  32.114   4.303
12384W        W77611  21.217  20.660   4.535
12385W        W77612  27.687  14.136  12.475
12386W        W77613  43.901  34.469   0.369
12387W        W77614  41.378  33.492  13.983
12388W        W77615  36.773  13.035  11.228
12389W        W77616  28.435  24.300  13.217
12390W        W77617  18.008  43.267  10.742
12391W        W77618  10.846  13.612   3.504
12392W        W77619  34.156  12.632  14.752
12393W        W77620  38.090  37.184   2.139
12394W        W77621  22.815  21.864  13.529
12395W        W77622  37.011  23.656   3.848
12396W        W77623  14.582  16.609  13.777
12397W        W77624  26.073   0.242   0.815
12398W        W77625  18.108  17.604  13.833
12399W        W77626  28.331  30.506  10.683
12400W        W77627  16.700  16.788  10.635
12401W        W77628  33.016  19.312  10.670
12402W        W77629  20.431   1.000   5.010
12403W        W77630  32.376  13.578  12.900
12404W        W77631   4.961  27.427  12.129
12405W        W77632  16.678  31.209  10.656
12406W        W77633  38.584  40.348   1.628
12407W        W77634  37.202  21.808   3.703
12408W        W77635  26.924  19.274   0.503
12409W        W77636  24.536  34.180   2.474
12410W        W77637  32.885  22.741  12.106
12411W        W77638  10.147  35.903   3.279
12412W        W77639  10.464  43.130  11.352
12413W        W77640  20.735  43.950  14.417
12414W        W77641   7.852  30.124   4.387
12415W        W77642   0.768   2.021   3.628
12416W        W77643  42.785  42.123   0.525
12417W        W77644  23.525  34.982   4.726
12418W        W77645   1.015  28.106   2.238
12419W        W77646  10.201  28.591  12.126
12420W        W77647  32.632   1.598  11.662
12421W        W77648  43.388  41.876  12.524
12422W        W77649  27.678  27.002  11.445
12423W        W77650  10.219   2.711   3.692
12424W        W77651  18.462  35.440   1.936
12425W        W77652   6.674  22.623  12.234
12426W        W77653  29.531  30.940  11.565
12427W        W77654   7.823  31.626  10.829
12428W        W77655  44.934  27.064  14.357
12429W        W77656   7.192  16.903  10.683
12430W        W77657  21.200   8.003   2.310
12431W        W77658  16.095  39.842  12.615
12432W        W77659  32.006  39.528   4.750
12433W        W77660  23.454  22.702  14.081
12434W        W77661  41.509   9.178   3.224
12435W        W77662  12.090  25.204   4.420
12436W        W77663  15.801  23.486   2.744
12437W        W77664   9.742  36.873  13.412
12438W        W77665  10.351  40.696   2.889
12439W        W77666  40.884  36.706   1.009
12440W        W77667  10.143  38.299   2.791
12441W        W77668  10.354   3.940  11.515
12442W        W77669   3.543   7.230  10.832
12443W        W77670  14.316  12.632   4.001
12444W        W77671   2.682   4.094   3.773
12445W        W77672  40.681  36.082   5.065
12446W        W77673   6.660   1.418   3.079
12447W        W77674  28.174  42.903   2.139
12448W        W77675  20.336  14.187   0.334
12449W        W77676  22.625  13.879   0.275
12450W        W77677  20.544  30.711   3.149
12451W        W77678   4.807   8.413   2.822
12452W        W77679  15.847  44.937   1.211
12453W        W77680   2.784  23.818   0.310
12454W        W77681  44.565  10.146  11.244
12455W        W77682  33.541  15.573  10.793
12456W        W77683  32.510  43.300   4.324
12457W        W77684  21.617  20.814  11.591
12458W        W77685   3.862   5.255   3.647
12459W        W77686  34.306  33.890   2.859
12460W        W77687   8.728  17.996  10.489
12461W        W77688  16.622  40.339   1.194
12462W        W77689   4.420  30.364  10.701
12463W        W77690  36.131  17.242  14.296
12464W        W77691  22.565  30.843  11.544
12465W        W77692  41.451   2.577  14.871
12466W        W77693  43.889  44.492  14.113
12467W        W77694   9.349  37.046  10.692
12468W        W77695  29.688   9.908   1.403
12469W        W77696  32.180  39.080   1.552
12470W        W77697   8.507  30.905   5.073
12471W        W77698   5.897  28.661  14.533
12472W        W77699   6.339  44.563  12.040
12473W        W77700  11.941  17.284  10.322
12474W        W77701  27.247   0.413   4.685
12475W        W77702   1.543  23.520   4.864
12476W        W77703  42.968  35.322   1.478
12477W        W77704  42.847   6.517   0.699
12478W        W77705  33.661  19.498   4.625
12479W        W77706  18.496   3.444  13.282
12480W        W77707  32.397  35.904   1.245
12481W        W77708  31.572  35.855   4.559
12482W        W77709   5.353  26.401  11.438
12483W        W77710  13.686  26.135   1.466
12484W        W77711  40.388  17.781  12.632
12485W        W77712  40.217  29.880   1.398
12486W        W77713   0.161  14.082   3.126
12487W        W77714  36.287   4.804  10.469
12488W        W77715   7.610   7.212   3.224
12489W        W77716  17.627  43.462  13.006
12490W        W77717   7.264   4.918   1.070
12491W        W77718  17.207  26.939  14.825
12492W        W77719  24.681  39.825   3.259
12493W        W77720  10.276  17.614   2.841
12494W        W77721  34.501   7.695   0.836
12495W        W77722  17.177   4.934   0.781
12496W        W77723   9.523  12.190   4.994
12497W        W77724  23.950   6.659  10.755
12498W        W77725  37.594  22.286   4.399
12499W        W77726  32.915   5.246   4.635
12500W        W77727  15.867  11.861   2.229
12501W        W77728  43.783  35.043  12.195
12502W        W77729  22.444  37.863  10.676
12503W        W77730  23.481  24.237   0.942
12504W        W77731   1.086  15.277   5.072
12505W        W77732  35.809   3.413  14.345
12506W        W77733  37.006  19.040  10.583
12507W        W77734  12.669  44.760  10.869
12508W        W77735   1.750   3.151  13.366
12509W        W77736   0.395  32.503  12.364
12510W        W77737  38.445  34.327  14.463
12511W        W77738  14.073  22.784  11.947
12512W        W77739   2.995  10.349  14.964
12513W        W77740  14.784   6.950   1.972
12514W        W77741   2.268   6.707   2.709
12515W        W77742  44.283  11.830   0.213
12516W        W77743  23.640  17.790  11.931
12517W        W77744   2.203  14.555  12.971
12518W        W77745  17.104   8.287   4.641
12519W        W77746  35.262  21.757  11.162
12520W        W77747  21.720  26.947  13.230
12521W        W77748  39.033  30.523   1.792
12522W        W77749  32.598  32.822  14.851
12523W        W77750  32.743   9.930  11.470
12524W        W77751  35.843  44.406  14.870
12525W        W77752   0.608   7.381  14.198
12526W        W77753  43.157   4.516   1.501
12527W        W77754   5.276  32.095  12.258
12528W        W77755  26.949  42.963  13.280
12529W        W77756  21.635  23.431  13.757
12530W        W77757   4.548  35.837   2.880
12531W        W77758  14.526  43.286  13.481
12532W        W77759  20.993  35.410   1.750
12533W        W77760  34.147  37.600  10.248
12534W        W77761   1.009  17.149  11.502
12535W        W77762   5.400  39.622   2.208
12536W        W77763  35.017  37.535   4.530
12537W        W77764  30.918  22.202   4.089
12538W        W77765   9.695  17.192  14.115
12539W        W77766   9.600  36.593  12.617
12540W        W77767  23.714  34.261   3.593
12541W        W77768  37.430  11.319   4.184
12542W        W77769  30.904   3.870   2.703
12543W        W77770  33.035  20.189   1.972
12544W        W77771   6.402   1.442  11.648
12545W        W77772  25.100  13.197   0.269
12546W        W77773  14.961  44.409  10.618
12547W        W77774  12.168   3.895   3.865
12548W        W77775  11.674  22.691   0.201
12549W        W77776  29.089  34.396  13.439
12550W        W77777  13.365   7.506  11.850
12551W        W77778  27.209   2.144  12.851
12552W        W77779  25.886  25.857  11.205
12553W        W77780   2.536  44.332   2.716
12554W        W77781  24.515  43.886   2.793
12555W        W77782  29.710  19.177   0.296
12556W        W77783  41.389  28.098  10.716
12557W        W77784  41.060  19.162  12.862
12558W        W77785   7.325   2.239   4.934
12559W        W77786  23.344  15.075  14.555
12560W        W77787   5.750  24.005   4.353
12561W        W77788  32.019  16.319  13.341
12562W        W77789   3.142   4.415   2.774
12563W        W77790  18.846  41.910  12.052
12564W        W77791   0.293  14.830   2.933
12565W        W77792  29.940  11.756   9.985
12566W        W77793  41.278  29.194  11.737
12567W        W77794  25.071  29.940   2.191
12568W        W77795   2.953  28.637   3.136
12569W        W77796  37.539  12.628  11.630
12570W        W77797   8.909  35.488  12.596
12571W        W77798  23.002  15.045   4.243
12572W        W77799  15.735   9.837   1.213
12573W        W77800  38.038  29.942   0.893
12574W        W77801  19.350  17.070   3.651
12575W        W77802  10.376   8.801  11.691
12576W        W77803  19.795   7.274  14.945
12577W        W77804   7.320   7.122   4.570
12578W        W77805  31.691   0.948  13.096
12579W        W77806  44.286  14.021   2.282
12580W        W77807  18.781  36.285  12.505
12581W        W77808  13.343  14.677   1.455
12582W        W77809  31.849  44.481  11.062
12583W        W77810  41.420  37.388   1.806
12584W        W77811  20.848  15.812   3.278
12585W        W77812  43.004  18.801   2.069
12586W        W77813  24.210  39.890  11.529
12587W        W77814  28.416  26.159  12.422
12588W        W77815  17.963  42.749  10.687
12589W        W77816  34.864  33.819  11.128
12590W        W77817  27.632  29.790   4.640
12591W        W77818  42.886  12.679   2.955
12592W        W77819  20.599  27.755  14.910
12593W        W77820   2.893  21.905   2.827
12594W        W77821   0.241  34.985  11.493
12595W        W77822  36.413   9.901  14.407
12596W        W77823  37.660  15.248  11.998
12597W        W77824   4.482  22.499   3.369
12598W        W77825  21.565  33.403  11.461
12599W        W77826   0.267  23.408  14.003
12600W        W77827   3.450   1.861   3.351
12601W        W77828  42.462  39.039   3.788
12602W        W77829  29.093  23.915  11.995
12603W        W77830  23.520  12.413  12.176
12604W        W77831   9.363  12.780  13.817
12605W        W77832  10.330  29.443   2.052
12606W        W77833  33.583   5.390  12.588
12607W        W77834  20.720  12.663   3.661
12608W        W77835  40.963  19.129   4.153
12609W        W77836  32.964  43.258  10.613
12610W        W77837   5.664  44.730  11.567
12611W        W77838  42.190  38.083   4.087
12612W        W77839   6.286  23.219  14.924
12613W        W77840  42.692  31.043  12.030
12614W        W77841   5.266   7.207  11.978
12615W        W77842   0.865   2.963   5.053
12616W        W77843  32.295  30.331   2.179
12617W        W77844  16.646   0.814  10.692
12618W        W77845  32.431  34.326  13.133
12619W        W77846  28.065   2.414   5.069
12620W        W77847  22.457  33.611  11.582
12621W        W77848   4.244  12.118  10.700
12622W        W77849   9.815   8.117   2.918
12623W        W77850  20.200   9.590  11.185
12624W        W77851   4.390  24.397   2.291
12625W        W77852  38.582   4.166   2.799
12626W        W77853  11.269  15.754   4.286
12627W        W77854   8.666   8.155   0.099
12628W        W77855  34.278  35.044   1.453
12629W        W77856  23.448  43.809   3.681
12630W        W77857   4.375  36.331   4.715
12631W        W77858   2.243  43.231   1.960
12632W        W77859  26.930  24.223   3.611
12633W        W77860  25.122  16.824   1.467
12634W        W77861  37.066  42.388  12.960
12635W        W77862  12.137  35.994  13.049
12636W        W77863   0.705  22.820   1.852
12637W        W77864  26.550  13.804  10.743
12638W        W77865  19.128  29.732  11.991
12639W        W77866  20.021  17.643  11.970
12640W        W77867  26.602  13.155  11.641
12641W        W77868  13.877  18.615  12.839
12642W        W77869  23.623  38.621   2.463
12643W        W77870  33.605  32.750   4.214
12644W        W77871  19.545  24.692   4.673
12645W        W77872   6.364   8.367   1.113
12646W        W77873   3.620   3.477  12.117
12647W        W77874  32.115  10.195   0.825
12648W        W77875  31.635  28.261   0.821
12649W        W77876  29.802   6.257   4.346
12650W        W77877  10.349  36.065  10.673
12651W        W77878  43.395  14.008  11.558
12652W        W77879  12.700   2.748  11.604
12653W        W77880  19.716  34.431   1.351
12654W        W77881   8.241  41.830  12.890
12655W        W77882  30.551  25.097   0.263
12656W        W77883  35.024  23.773   3.743
12657W        W77884   1.857  21.197   2.435
12658W        W77885  25.301  40.492  10.971
12659W        W77886  10.880  40.765   3.626
12660W        W77887  33.878  18.596  14.582
12661W        W77888  34.032  22.803  10.303
12662W        W77889  23.981  44.554  12.376
12663W        W77890  33.827  20.690   1.011
12664W        W77891   0.899   7.396   4.648
12665W        W77892   4.207  20.308  14.408
12666W        W77893   2.342   8.747  11.684
12667W        W77894  23.843  24.987   2.711
12668W        W77895  16.853  27.167   2.697
12669W        W77896  22.165  44.965  10.308
12670W        W77897  23.872  18.651   1.798
12671W        W77898  28.486  34.357  14.727
12672W        W77899  20.937  44.412   4.544
12673W        W77900  26.478  41.604   2.903
12674W        W77901  18.324   2.892  12.529
12675W        W77902  19.282   4.408   3.091
12676W        W77903  23.145  41.029   0.365
12677W        W77904   4.605   8.220  14.903
12678W        W77905  13.209  26.687  11.627
12679W        W77906  17.676   3.145  11.197
12680W        W77907   3.837  29.010  12.961
12681W        W77908  12.673   2.608  13.118
12682W        W77909   9.481   7.102  11.227
12683W        W77910  22.165   4.474  14.243
12684W        W77911  16.750  37.131  13.255
12685W        W77912  13.855  44.227   4.182
12686W        W77913  15.889  35.534  11.051
12687W        W77914  27.679   3.854   4.185
12688W        W77915  28.568  33.426  14.795
12689W        W77916  19.497   2.757   1.767
12690W        W77917  40.080   9.190   3.022
12691W        W77918   7.843  44.413   0.975
12692W        W77919  17.322  10.827   3.613
12693W        W77920  20.384  30.657   3.641
12694W        W77921  28.065   0.727   4.590
12695W        W77922  38.836  15.048  11.464
12696W        W77923  15.622   1.473  14.191
12697W        W77924  27.709  24.241  11.957
12698W        W77925   5.462  44.893   3.280
12699W        W77926  30.747  34.150   3.287
12700W        W77927  15.688  41.263   4.586
12701W        W77928   5.230  25.487  11.147
12702W        W77929  35.915  28.090   0.018
12703W        W77930  25.576   9.102  13.724
12704W        W77931   8.145  18.761   2.019
12705W        W77932   7.796  38.800  11.644
12706W        W77933  14.191   2.698  13.733
12707W        W77934   4.053  44.832   2.365
12708W        W77935  42.963   7.411  11.182
12709W        W77936  10.857  23.271  14.859
12710W        W77937  23.194   0.458   2.665
12711W        W77938   1.841  12.532  13.282
12712W        W77939  34.443  37.264   3.156
12713W        W77940   6.729  19.608  14.696
12714W        W77941  13.876  26.144   0.985
12715W        W77942  43.057  32.524  12.825
12716W        W77943   1.725  32.454   2.626
12717W        W77944  10.980  43.191   4.938
12718W        W77945  44.401   8.412   4.808
12719W        W77946  33.117  20.616   4.754
12720W        W77947   4.160   7.801  12.488
12721W        W77948  21.026   9.936   2.403
12722W        W77949  11.251  17.764  12.037
12723W        W77950   5.995  24.165   0.870
12724W        W77951   7.420   9.860  11.163
12725W        W77952  13.066  11.660   3.650
12726W        W77953   8.768  16.579   4.130
12727W        W77954   3.966  41.240  11.116
12728W        W77955   8.559  23.719   1.626
12729W        W77956  29.148   6.854   4.577
12730W        W77957  20.754  17.139   4.163
12731W        W77958  38.556  26.436   2.105
12732W        W77959  20.560  44.067  13.338
12733W        W77960   4.704  34.654  14.438
12734W        W77961   6.394  38.582   4.161
12735W        W77962  20.956  43.377   4.674
12736W        W77963  30.471  16.419   2.209
12737W        W77964   2.913  19.586  12.934
12738W        W77965  30.375  43.231  10.741
12739W        W77966  20.215  41.048  10.748
12740W        W77967  10.847  19.642  14.102
12741W        W77968  33.130  14.836  14.998
12742W        W77969  27.380  35.987   5.155
12743W        W77970  26.997   8.470   2.160
12744W        W77971  19.574   8.858   9.885
12745W        W77972   1.768  34.941   1.837
12746W        W77973   6.892   2.582  11.426
12747W        W77974   2.950  43.808  14.669
12748W        W77975  30.200  16.127  13.460
12749W        W77976  40.040   3.922   3.589
12750W        W77977   3.767  25.525   2.171
12751W        W77978   0.064  24.966  12.877
12752W        W77979  22.001   5.204  12.435
12753W        W77980  26.487  44.858  10.885
12754W        W77981  32.871  28.861  13.395
12755W        W77982  29.416  17.744  11.648
12756W        W77983  31.638   2.762  13.764
12757W        W77984   9.858   2.375  14.436
12758W        W77985  25.610  13.529   1.364
12759W        W77986   3.983  39.376  12.391
12760W        W77987  44.762  31.986   3.164
12761W        W77988  29.074   2.732  14.772
12762W        W77989   1.793  36.002   4.233
12763W        W77990  12.878   4.702   0.812
12764W        W77991  12.818  38.904   4.069
12765W        W77992  18.238  18.803   2.118
12766W        W77993  14.939  18.736   1.718
12767W        W77994  39.647  27.520   1.912
12768W        W77995  11.278  35.408  11.089
12769W        W77996   2.599  10.280  14.360
12770W        W77997   9.808  21.221   4.625
12771W        W77998  20.888  14.894  14.337
12772W        W77999  34.399  18.883  13.898
12773W        W78000  25.069   6.198   5.209
12774W        W78001  22.999  35.301  13.288
12775W        W78002  33.995  16.662   4.759
12776W        W78003  24.282  20.090  13.834
12777W        W78004  20.738  14.757   0.472
12778W        W78005  15.682  39.081   3.214
12779W        W78006  15.874   6.343   0.611
12780W        W78007  30.855  19.528  14.791
12781W        W78008  17.346  27.418  12.382
12782W        W78009  29.685  36.546   1.378
12783W        W78010  10.820  40.023  10.901
12784W        W78011  43.947   7.848  12.568
12785W        W78012  33.365   6.385   0.264
12786W        W78013   9.739  36.046  10.278
12787W        W78014   9.714  30.919   3.326
12788W        W78015  13.257  42.272   2.696
12789W        W78016  29.558  15.100  13.982
12790W        W78017  17.270  14.701   0.765
12791W        W78018  37.516  22.047  11.004
12792W        W78019  36.827   0.988  13.880
12793W        W78020   3.575  38.432  13.882
12794W        W78021   8.643   6.244   2.768
12795W        W78022   2.773  31.292  11.220
12796W        W78023   5.672   8.571  13.707
12797W        W78024  17.871  22.078   4.640
12798W        W78025   0.815  32.583   0.907
12799W        W78026  15.587   6.865   3.114
12800W        W78027  32.105  10.695  13.548
12801W        W78028  30.441  10.006   4.551
12802W        W78029   4.444   9.723   2.644
12803W        W78030  36.071   8.140   1.445
12804W        W78031  15.235  23.886   1.194
12805W        W78032  38.770  23.523  12.588
12806W        W78033  27.988  10.763   2.341
12807W        W78034  33.991  41.368  14.233
12808W        W78035   0.175  32.475  11.901
12809W        W78036  10.707  10.024   2.357
12810W        W78037  25.041  22.663   2.900
12811W        W78038  14.572  43.776   4.240
12812W        W78039   1.732  43.911   1.292
12813W        W78040   3.587   4.073  11.177
12814W        W78041  27.634  17.371   3.609
12815W        W78042  44.071  33.160  11.089
12816W        W78043  38.329  29.993   2.502
12817W        W78044  10.008  31.868   4.902
12818W        W78045  32.980   9.431  13.855
12819W        W78046  13.250  17.354   1.190
12820W        W78047  32.598   7.240   5.169
12821W        W78048   8.242  19.668  10.744
12822W        W78049  27.681  35.067  12.681
12823W        W78050  40.513   1.451   0.023
12824W        W78051  29.136   9.094   3.237
12825W        W78052   4.772  19.492   0.298
12826W        W78053   1.516  11.591  10.518
12827W        W78054  12.822   5.189  10.441
12828W        W78055  33.274  35.888   0.671
12829W        W78056  35.338  16.418  11.539
12830W        W78057  10.344  20.868   3.121
12831W        W78058  20.296  31.167  13.016
12832W        W78059   7.593  23.914  12.544
12833W        W78060  30.035   8.799   3.302
12834W        W78061   1.670  31.573   0.414
12835W        W78062  12.297  36.862  14.264
12836W        W78063  33.142  37.865   1.854
12837W        W78064  24.880  40.489   2.848
12838W        W78065  20.781   7.675   2.408
12839W        W78066  24.411  19.732   2.369
12840W        W78067  19.166  15.303  12.124
12841W        W78068  34.269  13.862  10.641
12842W        W78069  12.796  32.497  13.306
12843W        W78070  41.797  40.649  14.988
12844W        W78071  26.474  27.608   3.215
12845W        W78072  20.157  43.836   1.618
12846W        W78073  37.050  22.131   2.443
12847W        W78074   3.472  30.670   3.706
12848W        W78075   7.804  41.475  13.409
12849W        W78076  44.719   3.919  14.911
12850W        W78077  14.149  37.000   4.405
12851W        W78078  40.802   8.172  12.639
12852W        W78079   0.300  43.646   9.581
12853W        W78080   2.487  43.447   2.898
12854W        W78081  36.535   4.293  11.899
12855W        W78082  14.396  32.124  12.430
12856W        W78083  26.420  40.286   2.372
12857W        W78084  42.395   4.431  11.556
12858W        W78085  32.497  36.490   3.160
12859W        W78086  31.459  13.077  11.332
12860W        W78087  12.126   8.414  12.461
12861W        W78088   7.781  27.215   4.707
12862W        W78089   9.313  26.660  10.409
12863W        W78090  38.146  13.909   0.325
12864W        W78091   5.327  35.076  13.404
12865W        W78092  18.657  37.223  10.623
12866W        W78093  28.158  33.175  11.489
12867W        W78094  20.398  41.278  13.443
12868W        W78095  17.228  19.673   2.944
12869W        W78096  24.204   6.060   0.371
12870W        W78097  25.679  25.917   4.365
12871W        W78098  18.376   0.247  14.223
12872W        W78099  17.834  41.990  11.054
12873W        W78100  40.880  29.806  14.292
12874W        W78101  21.021  30.074   2.258
12875W        W78102  22.897  20.035  10.681
12876W        W78103  33.468  15.020   4.042
12877W        W78104  33.467   7.103   4.083
12878W        W78105  41.507  20.304   4.150
12879W        W78106   9.749   6.738   2.108
12880W        W78107   2.474  31.085  10.634
12881W        W78108  10.387  22.066  11.454
12882W        W78109  21.443  25.551   0.336
12883W        W78110   1.162  38.044   2.708
12884W        W78111  35.993  26.372  13.865
12885W        W78112  26.186  32.834   4.125
12886W        W78113  13.762  28.614  11.671
12887W        W78114  25.514   5.786   4.068
12888W        W78115  40.045  20.522  12.936
12889W        W78116  37.370  40.830   0.834
12890W        W78117  32.854  36.005  12.874
12891W        W78118  42.432  28.221  12.478
12892W        W78119   0.880   5.249   3.839
12893W        W78120  24.249  44.194   4.533
12894W        W78121  16.376  16.237  11.855
12895W        W78122  28.178  29.745  14.318
12896W        W78123   1.471  28.624   1.824
12897W        W78124  28.211  22.025   3.070
12898W        W78125  35.894  22.672   1.437
12899W        W78126  11.683  34.960   2.187
12900W        W78127  12.293   6.304   2.386
12901W        W78128  32.237  30.134  13.505
12902W        W78129  21.039  36.034  14.840
12903W        W78130  32.684   0.951   0.913
12904W        W78131   1.930  25.825   3.586
12905W        W78132  37.885  25.126   4.697
12906W        W78133   5.608  29.069  13.318
12907W        W78134  43.734  10.424  11.054
12908W        W78135   5.917  24.113  10.411
12909W        W78136  35.505   5.339  12.570
12910W        W78137  21.457  29.181   3.438
12911W        W78138  26.155  26.679   1.409
12912W        W78139  20.271  41.182   1.804
12913W        W78140  42.883   0.250   4.564
12914W        W78141  19.041  38.866  13.501
12915W        W78142  13.291  27.979  10.761
12916W        W78143  36.914  41.136   0.945
12917W        W78144  35.483  18.684   4.584
12918W        W78145  22.178  21.548   4.227
12919W        W78146  25.558  31.417   2.751
12920W        W78147  28.504  33.540  14.303
12921W        W78148  37.442  18.659   2.649
12922W        W78149  28.981  35.816  14.471
12923W        W78150  44.672   3.512   0.718
12924W        W78151  21.704  15.001   2.721
12925W        W78152  32.696  44.897  10.583
12926W        W78153  11.825  26.256   2.832
12927W        W78154  21.049  44.771   0.353
12928W        W78155  35.058  26.202  14.097
12929W        W78156  17.962  43.715  12.064
12930W        W78157  11.069  30.041  13.371
12931W        W78158  21.077  36.952  10.643
12932W        W78159  38.021  40.114   4.937
12933W        W78160  29.258  17.212   0.982
12934W        W78161   6.562  10.335   3.526
12935W        W78162  42.738   4.446   0.853
12936W        W78163  26.652  17.049   1.614
12937W        W78164  32.859   3.263  14.915
12938W        W78165  14.907  14.157  14.605
12939W        W78166  43.091   5.283   1.388
12940W        W78167  33.409   4.969   0.077
12941W        W78168   8.394  17.697  13.356
12942W        W78169  18.505   4.184   2.688
12943W        W78170  39.833  42.288  13.652
12944W        W78171  33.424  29.463  14.726
12945W        W78172   4.251  27.809  13.749
12946W        W78173  20.424  19.177  10.769
12947W        W78174  13.630  17.762  12.473
12948W        W78175  13.167   8.728   1.296
12949W        W78176  19.235  19.728   0.995
12950W        W78177  36.071   4.764  14.450
12951W        W78178  18.527  19.765   2.340
12952W        W78179  36.541   0.457  12.554
12953W        W78180  19.501  37.400  11.503
12954W        W78181   2.682  21.058   0.860
12955W        W78182  30.406  27.967  13.937
12956W        W78183  29.456  26.134   1.764
12957W        W78184  18.724  41.405  12.067
12958W        W78185  12.200  44.819  12.206
12959W        W78186  37.591   5.676   2.874
12960W        W78187  40.486   0.234  12.887
12961W        W78188  28.968   8.960  11.199
12962W        W78189  20.757  36.512   1.169
12963W        W78190  27.590  32.572  14.129
12964W        W78191  24.281  26.276   1.192
12965W        W78192  15.744  30.551  14.845
12966W        W78193  12.171  30.188  14.915
12967W        W78194  35.029  41.370   1.234
12968W        W78195   4.741  12.137  13.338
12969W        W78196  33.857  21.514  11.009
12970W        W78197   1.977  23.048  13.533
12971W        W78198  29.204  27.091   0.844
12972W        W78199   6.857  22.212  14.643
12973W        W78200  39.781  17.264   3.630
12974W        W78201   9.445  40.281   3.315
12975W        W78202  10.618  20.578   2.779
12976W        W78203  24.413  40.292   0.883
12977W        W78204  40.270  27.759   4.241
12978W        W78205  38.326  17.843   1.572
12979W        W78206   4.828  15.116   3.919
12980W        W78207   7.872   2.665   0.680
12981W        W78208   9.947  12.159  14.258
12982W        W78209   8.352  14.273   1.647
12983W        W78210   0.238  18.849  11.682
12984W        W78211   4.480  11.604  10.930
12985W        W78212  28.700  14.608   3.033
12986W        W78213   1.848   4.361   0.453
12987W        W78214  29.871  12.177  11.601
12988W        W78215  18.772   1.286   4.096
12989W        W78216  23.656  41.159   1.209
12990W        W78217  36.949  17.168  12.927
12991W        W78218   2.529  31.511  14.034
12992W        W78219  28.554  39.368   1.324
12993W        W78220  27.551  36.519   0.243
12994W        W78221  12.717  24.554  12.066
12995W        W78222  42.408  14.993  13.931
12996W        W78223  44.709  29.110   1.677
12997W        W78224  37.073   9.797   2.768
12998W        W78225   7.615  40.040  13.484
12999W        W78226  17.248  33.816  12.410
13000W        W78227  37.250  14.696   4.944
13001W        W78228  29.333   2.392  12.936
13002W        W78229   7.442   7.144  14.287
13003W        W78230  31.941  25.579   5.239
13004W        W78231  43.469  26.189  13.114
13005W        W78232  38.908  23.743  14.496
13006W        W78233   0.118  32.398   0.386
13007W        W78234  35.527   9.630   4.309
13008W        W78235  35.057  20.773  13.439
13009W        W78236  20.609   6.672  12.008
13010W        W78237  21.066  22.581   3.061
13011W        W78238  27.171  16.035  13.811
13012W        W78239  31.452   4.932   1.727
13013W        W78240  20.175  28.410   3.590
13014W        W78241  42.472  20.304   1.436
13015W        W78242  40.330  25.307   3.230
13016W        W78243  36.856  25.639  13.528
13017W        W78244  27.106  37.517  13.873
13018W        W78245   1.433  41.956  12.144
13019W        W78246  10.342  16.320   3.293
13020W        W78247  23.976  37.822   4.841
13021W        W78248   8.850  43.014  12.005
13022W        W78249  12.670  19.770   1.919
13023W        W78250  39.244  41.071   2.713
13024W        W78251  43.825  36.113  14.422
13025W        W78252   6.400   8.426  14.804
13026W        W78253  23.718  24.601  12.537
13027W        W78254  44.841   9.824   0.200
13028W        W78255  31.278  33.418   1.801
13029W        W78256  16.215  37.452   2.189
13030W        W78257   0.996  19.674   3.629
13031W        W78258  10.294  21.814   1.639
13032W        W78259  27.932  37.526  12.408
13033W        W78260  44.545  26.194   1.918
13034W        W78261  25.476  38.978   2.665
13035W        W78262  44.819   7.014   4.243
13036W        W78263  42.879  34.063  10.904
13037W        W78264   2.265  25.902   2.399
13038W        W78265   1.838   0.660   0.715
13039W        W78266   6.193   0.181  12.936
13040W        W78267  21.245   0.830   1.791
13041W        W78268   9.716  39.025   2.647
13042W        W78269  33.985  38.347  10.654
13043W        W78270  39.397   9.408   0.833
13044W        W78271  36.131   0.724  11.193
13045W        W78272  18.672  11.839  12.917
13046W        W78273  22.114  44.363   2.762
13047W        W78274  21.203  15.092  10.418
13048W        W78275   6.847  19.480  13.413
13049W        W78276   5.930  10.339  13.447
13050W        W78277   6.364  39.430  11.434
13051W        W78278  31.126  35.297   0.517
13052W        W78279  34.048  40.274  10.568
13053W        W78280  23.412  25.136  13.541
13054W        W78281  17.606   5.316  11.968
13055W        W78282   4.761  25.353   3.041
13056W        W78283   5.363  27.106  10.726
13057W        W78284  10.979  21.475   4.108
13058W        W78285  21.273  35.021   5.121
13059W        W78286  37.325   6.651   3.587
13060W        W78287  43.039  21.391   3.706
13061W        W78288  24.911  15.337   4.483
13062W        W78289  12.746  42.489  11.601
13063W        W78290  12.619  22.173  12.585
13064W        W78291  36.588  44.360   1.760
13065W        W78292   2.383  37.294   4.607
13066W        W78293   5.106  31.273   1.745
13067W        W78294  11.732   2.896  12.011
13068W        W78295  17.814  11.244   0.717
13069W        W78296  42.195  18.673   5.408
13070W        W78297  11.610  38.603  12.114
13071W        W78298  18.280  25.324  13.572
13072W        W78299  41.909   0.797   2.721
13073W        W78300   7.245  35.821  11.516
13074W        W78301  38.859  39.906   5.067
13075W        W78302  26.425  19.296   2.653
13076W        W78303  12.074  41.399  14.358
13077W        W78304   8.511  34.338   2.609
13078W        W78305   5.890   6.689   3.595
13079W        W78306  30.038  43.741  13.892
13080W        W78307   9.133  40.701   3.406
13081W        W78308   4.273  15.211   1.738
13082W        W78309  43.399  43.498  11.990
13083W        W78310  24.253  23.895  13.738
13084W        W78311  40.977  40.437  10.728
13085W        W78312  21.569   2.522  11.931
13086W        W78313  41.785  42.993  11.552
13087W        W78314  12.750  29.005   3.683
13088W        W78315  22.646  34.823  11.178
13089W        W78316  23.233  20.816  12.085
13090W        W78317   2.805  33.032  10.623
13091W        W78318  11.898  32.974   0.584
13092W        W78319  24.514   8.763   4.726
13093W        W78320  38.477   2.266   1.878
13094W        W78321  21.236  22.189  10.436
13095W        W78322  41.469  19.755   2.470
13096W        W78323  30.399  10.190   2.280
13097W        W78324  40.698  11.066  12.564
13098W        W78325  43.052   6.508  13.707
13099W        W78326  23.516  18.152  11.584
13100W        W78327  42.381  18.588   4.547
13101W        W78328  44.010   1.040  10.376
13102W        W78329  34.610  27.118   3.350
13103W        W78330  27.422  28.774   0.822
13104W        W78331   0.007  12.713  11.598
13105W        W78332  35.438  38.260  13.065
13106W        W78333  29.676  38.942  11.017
13107W        W78334  24.261   3.975   2.173
13108W        W78335  19.205  19.679   1.497
13109W        W78336  39.477  33.477  10.690
13110W        W78337  44.105  16.455   3.240
13111W        W78338  16.266  20.657  14.017
13112W        W78339  24.537   7.253  14.847
13113W        W78340  36.445  17.120  13.879
13114W        W78341   4.240  19.572  13.990
13115W        W78342  24.999   8.788   3.664
13116W        W78343  27.992  25.397   4.635
13117W        W78344  25.960  42.275   3.199
13118W        W78345   1.405  14.937   4.236
13119W        W78346  23.795  44.773   2.259
13120W        W78347  21.431  15.625  11.096
13121W        W78348  31.373   0.491   0.819
13122W        W78349  43.531   8.275   3.158
13123W        W78350   2.951  13.797  11.597
13124W        W78351  27.047  26.025  13.006
13125W        W78352  20.034  25.543   2.776
13126W        W78353   5.576   1.382  10.802
13127W        W78354  24.283  32.992  14.419
13128W        W78355  16.957  42.333   2.641
13129W        W78356  18.137  15.865   1.803
13130W        W78357  41.362  14.495   3.096
13131W        W78358   7.682  12.655   0.458
13132W        W78359  40.562  26.595   1.254
13133W        W78360  15.018  37.367   3.626
13134W        W78361  20.528  30.555   0.060
13135W        W78362  29.432  18.717   4.496
13136W        W78363   9.609  27.373   2.345
13137W        W78364  27.727   0.035   1.360
13138W        W78365  11.103  41.755  13.450
13139W        W78366  26.631  35.267   4.592
13140W        W78367   2.612   8.773  12.583
13141W        W78368  32.606  13.682   1.317
13142W        W78369  19.065  23.525   4.211
13143W        W78370  31.872  42.996  13.858
13144W        W78371  40.015  40.762   3.234
13145W        W78372  23.740   0.302   0.423
13146W        W78373   4.675  31.614   2.622
13147W        W78374  34.055  25.711  10.504
13148W        W78375  28.738   7.200  13.988
13149W        W78376  27.030  27.075   4.708
13150W        W78377   7.783   3.685   4.071
13151W        W78378  43.386  32.655  11.658
13152W        W78379  22.628  34.557   1.414
13153W        W78380  10.352  40.939  12.945
13154W        W78381  38.088  10.748  13.965
13155W        W78382   9.425  28.115  11.458
13156W        W78383  31.927  17.037   0.551
13157W        W78384   2.953   9.313  12.632
13158W        W78385  10.362  42.979   0.940
13159W        W78386   1.251  43.831   2.273
13160W        W78387   0.848  13.892  12.027
13161W        W78388  34.547  39.891   3.874
13162W        W78389  36.517   6.418   2.156
13163W        W78390  40.773  13.107  11.153
13164W        W78391  13.491   6.798  11.663
13165W        W78392  34.871  11.699   1.248
13166W        W78393   3.183  43.743   3.121
13167W        W78394   4.869  14.335   2.394
13168W        W78395   8.244  11.544   1.224
13169W        W78396  20.812  26.982   0.481
13170W        W78397  26.904   7.741   0.765
13171W        W78398  23.120   1.892  12.862
13172W        W78399   7.895  34.662  13.854
13173W        W78400  27.041  25.323   1.255
13174W        W78401   2.052  12.669   2.879
13175W        W78402   1.630  17.792  12.073
13176W        W78403  23.066  13.775  14.031
13177W        W78404  41.751  40.912  14.537
13178W        W78405  40.288  17.987   0.265
13179W        W78406  15.309  41.790   1.839
13180W        W78407  34.901   7.876   1.787
13181W        W78408  10.693  10.560  14.922
13182W        W78409  28.151  39.533  12.150
13183W        W78410   4.431  18.533   0.400
13184W        W78411   7.405  28.991   0.513
13185W        W78412  29.512   6.749  14.210
13186W        W78413  34.151   3.476   4.171
13187W        W78414  39.532  21.602   4.536
13188W        W78415  22.457  18.292  13.729
13189W        W78416  13.274  31.357   1.691
13190W        W78417  16.702   9.941   4.285
13191W        W78418   3.014  35.577  13.995
13192W        W78419  11.676  40.388   1.099
13193W        W78420  13.179  42.857   0.711
13194W        W78421  31.629   5.778  11.518
13195W        W78422   6.370  13.631  10.926
13196W        W78423  12.665  20.014   4.101
13197W        W78424   7.395  33.643   3.489
13198W        W78425  41.999   4.763  11.603
13199W        W78426  32.708  10.718   2.588
13200W        W78427  20.463  21.448   3.235
13201W        W78428  27.084  11.166  14.763
13202W        W78429  14.047  44.251  11.175
13203W        W78430  16.213  20.587   1.499
13204W        W78431  32.653   9.216  11.568
13205W        W78432  22.038   2.307   0.225
13206W        W78433  35.515  24.720  12.238
13207W        W78434   1.431   0.491   0.999
13208W        W78435  35.904  36.005   4.049
13209W        W78436  15.132  35.255  14.295
13210W        W78437   3.386  43.315  12.706
13211W        W78438  28.964   9.302  14.489
13212W        W78439   2.006  25.081   3.169
13213W        W78440   8.702  17.881   4.616
13214W        W78441   3.285  23.139   4.280
13215W        W78442   2.441  36.582  14.760
13216W        W78443  23.062  28.543   1.376
13217W        W78444  21.447  23.612   3.891
13218W        W78445  35.506  38.332   1.432
13219W        W78446  33.393  44.499  14.325
13220W        W78447   9.201  25.364  13.985
13221W        W78448  29.861  43.789  14.810
13222W        W78449  16.324   6.109   1.939
13223W        W78450  22.233  21.331   3.623
13224W        W78451  25.472  38.699   3.739
13225W        W78452   8.847  44.526   3.194
13226W        W78453  17.917  27.908  11.878
13227W        W78454   1.934   4.294   1.853
13228W        W78455  27.417  22.848   0.239
13229W        W78456  32.351  39.252  13.704
13230W        W78457   4.285   2.736  10.365
13231W        W78458  15.171  11.679  11.691
13232W        W78459  30.064   9.416   3.399
13233W        W78460   5.345  32.894   4.398
13234W        W78461  14.676  13.241   2.410
13235W        W78462  16.941   7.668   4.563
13236W        W78463  41.964  15.752   2.392
13237W        W78464  34.341  27.110  13.340
13238W        W78465  26.987  16.715  10.551
13239W        W78466  17.215   3.024  12.082
13240W        W78467  39.157  30.176   4.529
13241W        W78468  31.005   5.628  14.558
13242W        W78469  17.885  33.101   0.744
13243W        W78470  42.214  38.492   3.187
13244W        W78471  34.546  25.019  10.959
13245W        W78472  28.467  21.778   2.677
13246W        W78473   3.268  35.383   3.204
13247W        W78474  13.840  25.712   1.859
13248W        W78475  28.550   7.268   3.962
13249W        W78476  16.553   4.295  12.979
13250W        W78477  41.988  28.084  11.662
13251W        W78478  14.516  28.648  14.501
13252W        W78479  19.187  10.222   2.758
13253W        W78480  37.293  37.570   3.232
13254W        W78481  44.096  30.342   2.673
13255W        W78482  43.978  20.441  11.529
13256W        W78483   0.300  11.231   0.215
13257W        W78484  41.765  33.127  13.889
13258W        W78485   6.458  33.988   2.442
13259W        W78486  44.228   6.199   5.101
13260W        W78487  12.611  19.330   0.293
13261W        W78488   0.150  36.166  11.120
13262W        W78489  21.497  13.245  12.999
13263W        W78490  42.772  31.569  10.988
13264W        W78491  29.259  37.633   0.846
13265W        W78492   3.775  23.575   0.551
13266W        W78493  30.767  14.891   5.019
13267W        W78494  11.396  27.184  12.891
13268W        W78495  21.776  24.694   1.719
13269W        W78496  33.174  20.114  13.138
13270W        W78497  14.247  16.722   4.424
13271W        W78498   7.420  39.920  12.036
13272W        W78499  41.355   3.210  11.216
13273W        W78500   4.953  16.571   0.078
13274W        W78501  43.835  23.191   4.653
13275W        W78502  21.436  17.638   2.402
13276W        W78503   0.448  38.673  14.343
13277W        W78504  32.720  25.860   1.340
13278W        W78505   9.705  36.089  12.456
13279W        W78506  32.012  33.318  13.694
13280W        W78507  14.790  18.778  13.930
13281W        W78508  24.428   6.700   4.508
13282W        W78509  16.074   4.805   2.279
13283W        W78510  41.346  11.742   2.186
13284W        W78511  30.983  29.451   3.101
13285W        W78512   6.922  23.463   2.676
13286W        W78513  18.013  41.990  13.354
13287W        W78514  14.114   9.105  13.628
13288W        W78515  11.312  40.339   4.439
13289W        W78516  32.961   6.682  10.363
13290W        W78517  40.605   7.655   3.993
13291W        W78518  15.122  39.416  10.652
13292W        W78519   0.464  13.685  14.340
13293W        W78520  32.584  34.029   2.391
13294W        W78521  18.656  39.827  12.430
13295W        W78522   7.667  11.930   3.638
13296W        W78523  37.579  12.686  13.800
13297W        W78524  11.385  34.487   0.447
13298W        W78525   1.224  38.088   0.629
13299W        W78526  11.385  37.663   4.219
13300W        W78527  33.532  24.503  13.944
13301W        W78528  36.810  10.205   1.927
13302W        W78529  16.484  29.919  11.123
13303W        W78530  41.777  16.807   0.794
13304W        W78531  29.628  20.272   0.388
13305W        W78532   7.340   9.314  14.481
13306W        W78533   0.884  18.857  12.947
13307W        W78534  34.474   4.901   0.220
13308W        W78535  23.522  35.457   4.918
13309W        W78536   6.333   8.957   3.856
13310W        W78537   1.848  30.260  13.488
13311W        W78538  33.866   0.761   2.698
13312W        W78539  25.690  35.545  12.014
13313W        W78540  31.334  29.060   3.230
13314W        W78541  31.395  29.625   2.860
13315W        W78542  28.225   7.788   1.226
13316W        W78543  36.424   1.014  11.512
13317W        W78544  23.457   9.279   2.140
13318W        W78545  16.321  28.991  12.187
13319W        W78546  11.032  20.528   4.019
13320W        W78547  27.703   3.060  14.865
13321W        W78548  18.102  18.238   0.982
13322W        W78549  33.532  14.628  14.750
13323W        W78550  33.946  15.165  14.462
13324W        W78551  38.522   1.502   0.785
13325W        W78552   5.287  17.201   3.252
13326W        W78553  12.755  10.545   1.892
13327W        W78554  28.370   3.898  11.084
13328W        W78555  25.685  44.209   2.355
13329W        W78556   5.412   6.041  11.225
13330W        W78557  30.984  30.422  13.821
13331W        W78558  38.994   4.941   5.085
13332W        W78559  22.411  39.557   4.902
13333W        W78560   0.151  18.663   2.694
13334W        W78561   9.610  28.735   0.425
13335W        W78562   9.774  35.245  10.740
13336W        W78563  37.995  35.131   1.295
13337W        W78564  36.567   1.011  13.419
13338W        W78565  11.365  12.273  13.400
13339W        W78566  38.630  10.532  14.811
13340W        W78567  10.400  37.597   0.907
13341W        W78568  38.162   3.640   4.336
13342W        W78569  33.240  32.374   4.039
13343W        W78570   1.849  18.371  10.760
13344W        W78571  22.004  23.209   2.785
13345W        W78572  32.441  39.837   0.719
13346W        W78573   5.538  25.868   5.033
13347W        W78574  44.475  15.111   3.338
13348W        W78575  43.470  41.235   1.343
13349W        W78576  40.969  22.763   1.829
13350W        W78577  42.367   4.974   4.715
13351W        W78578  24.191  36.891  14.765
13352W        W78579   9.450   7.173   4.275
13353W        W78580  17.733   1.803   2.339
13354W        W78581  14.802  30.591   2.119
13355W        W78582   6.619  11.419  13.915
13356W        W78583   1.921   5.808   0.242
13357W        W78584  19.998  35.692  12.185
13358W        W78585   5.739  25.163   3.350
13359W        W78586  36.894  20.793   3.745
13360W        W78587  42.827  25.198  13.239
13361W        W78588   7.920   9.875   0.908
13362W        W78589  32.061  13.380   3.290
13363W        W78590  34.978  29.877  11.050
13364W        W78591  17.238  34.644  13.923
13365W        W78592   4.338  25.076  14.356
13366W        W78593  22.807  26.488   4.126
13367W        W78594  27.156  11.201  11.003
13368W        W78595  37.097  23.835   2.130
13369W        W78596   7.055   8.498  12.518
13370W        W78597  32.167  31.446  10.713
13371W        W78598  26.693  32.948   3.251
13372W        W78599  26.937  33.397   1.267
13373W        W78600  15.329  33.169   3.224
13374W        W78601  13.683  37.837   0.300
13375W        W78602   8.205  32.698  11.004
13376W        W78603  43.582   7.734   5.150
13377W        W78604   9.848  38.388   4.901
13378W        W78605  16.409   2.786  14.426
13379W        W78606  43.354  26.211  14.890
13380W        W78607  42.797   5.437  11.486
13381W        W78608   7.309  11.391   2.242
13382W        W78609   5.724  19.127  13.845
13383W        W78610  28.540   2.669   4.490
13384W        W78611  42.750  39.168   1.232
13385W        W78612  14.132   2.514  10.610
13386W        W78613  34.316  39.281  13.875
13387W        W78614  10.967  21.712   0.829
13388W        W78615  33.011  29.925   0.451
13389W        W78616  12.174  19.126  11.402
13390W        W78617   8.918   5.579  10.577
13391W        W78618   3.611  39.286  10.957
13392W        W78619  10.369  14.152   2.053
13393W        W78620  16.172  10.632  14.962
13394W        W78621  31.508  25.041  11.447
13395W        W78622  27.463  26.108  12.192
13396W        W78623  44.988  34.033   2.458
13397W        W78624  11.871  44.969  12.799
13398W        W78625  32.648  25.709  12.636
13399W        W78626  36.548  30.281   2.835
13400W        W78627  14.876  28.325  11.184
13401W        W78628  15.954  38.430   2.622
13402W        W78629  11.747   9.709   1.236
13403W        W78630  30.627  28.704   1.267
13404W        W78631  44.302  10.797  13.770
13405W        W78632  19.707  35.415  13.319
13406W        W78633  23.848   1.766  11.717
13407W        W78634  14.700  40.235  10.416
13408W        W78635  17.807  27.156   0.733
13409W        W78636  12.221   9.543  14.786
13410W        W78637  38.431  38.637   3.703
13411W        W78638  25.499  39.915   1.426
13412W        W78639  14.349   7.334  12.953
13413W        W78640  10.953   3.859   3.192
13414W        W78641  23.393  18.387  11.126
13415W        W78642  42.467  33.547  14.801
13416W        W78643  33.512  36.807   2.807
13417W        W78644   1.877  21.097  10.521
13418W        W78645  43.361  24.208  14.794
13419W        W78646  21.682  32.187  14.886
13420W        W78647  43.395  43.745   4.170
13421W        W78648  32.482  14.471  13.953
13422W        W78649   0.110   4.444   3.699
13423W        W78650  21.195  37.925   3.112
13424W        W78651  23.088   7.185  13.826
13425W        W78652   9.170  24.799   3.799
13426W        W78653  26.598  31.791  13.791
13427W        W78654  16.800   9.320  13.026
13428W        W78655  21.335   1.416  10.913
13429W        W78656  31.886  33.518  11.165
13430W        W78657  23.012  29.829  13.008
13431W        W78658   1.671   5.136  11.613
13432W        W78659   3.497  36.507  11.984
13433W        W78660  26.079  16.288   3.220
13434W        W78661   9.988   2.698   0.869
13435W        W78662  23.474  15.286   0.789
13436W        W78663  36.063  32.935  10.562
13437W        W78664   3.493  30.875  11.515
13438W        W78665  33.650  39.126  13.060
13439W        W78666  28.728  10.662  11.964
13440W        W78667  22.216  14.374  14.572
13441W        W78668  44.349   0.672  12.116
13442W        W78669   4.351  35.754   3.688
13443W        W78670  40.434  16.086  14.473
13444W        W78671  11.246  22.629   4.472
13445W        W78672  22.342  42.465  14.726
13446W        W78673  26.139  28.642   4.508
13447W        W78674  33.934   9.113  11.523
13448W        W78675  24.453  31.136  14.403
13449W        W78676  18.697  32.769  13.891
13450W        W78677  28.669  17.766  12.111
13451W        W78678  29.636  43.469   4.627
13452W        W78679  17.685  26.473   3.942
13453W        W78680   3.173  17.326   4.149
13454W        W78681  35.294   0.438  12.664
13455W        W78682  38.635  22.500  11.602
13456W        W78683  12.856  21.314  10.492
13457W        W78684  13.842  19.244  13.866
13458W        W78685  14.840  31.854   5.174
13459W        W78686  29.435   7.472  11.220
13460W        W78687   8.147  17.794   9.932
13461W        W78688   1.426  33.166   0.003
13462W        W78689   2.429  17.453   2.732
13463W        W78690   4.219   0.952   2.776
13464W        W78691   0.579  15.742   0.446
13465W        W78692  11.729  16.960   4.477
13466W        W78693  14.131  34.643  13.013
13467W        W78694  31.322  38.373   2.929
13468W        W78695  35.503  14.464   2.695
13469W        W78696  27.207  39.848  10.580
13470W        W78697  35.985   8.825  12.880
13471W        W78698  33.051   8.433   4.026
13472W        W78699   4.709  17.664   0.300
13473W        W78700   4.515  20.724  14.456
13474W        W78701  30.839  26.118   0.739
13475W        W78702  13.092  43.205   2.746
13476W        W78703  25.239   4.890   2.979
13477W        W78704  20.533  17.308   2.367
13478W        W78705  44.318  39.431   3.968
13479W        W78706  12.311   6.457  14.834
13480W        W78707  21.908   8.225   3.992
13481W        W78708  22.574  34.556  10.747
13482W        W78709   3.694  38.932  13.930
13483W        W78710  44.840  25.532  14.535
13484W        W78711   7.777  38.976   9.955
13485W        W78712  32.018  38.030  13.547
13486W        W78713  31.374  43.582  10.737
13487W        W78714   1.830  10.196  10.542
13488W        W78715  18.384  19.233   2.437
13489W        W78716  41.283  28.014  12.026
13490W        W78717  24.201  19.802  11.542
13491W        W78718  32.924   9.499   3.717
13492W        W78719  44.844  40.804   0.299
13493W        W78720  18.437  19.834  13.998
13494W        W78721  30.656  18.832   2.822
13495W        W78722  33.858  16.868   2.504
13496W        W78723   0.452  36.951  11.658
13497W        W78724   2.916  15.470   3.690
13498W        W78725  14.358  22.110   2.360
13499W        W78726   0.872  14.123   3.911
13500W        W78727   6.726  37.575   3.675
13501W        W78728  18.036  16.120  14.631
13502W        W78729  36.316   0.039  13.775
13503W        W78730   0.067   0.029   0.843
13504W        W78731  16.792  21.417  12.984
13505W        W78732  35.384  16.174  12.762
13506W        W78733  41.869  40.261  12.141
13507W        W78734  33.722  38.821   1.285
13508W        W78735  28.355  13.483   5.409
13509W        W78736  44.889   3.346  14.370
13510W        W78737  25.866  41.449   4.143
13511W        W78738  14.809  34.731   1.918
13512W        W78739  40.206  23.933   1.885
13513W        W78740  14.796  40.569   1.299
13514W        W78741  38.757  24.323   1.278
13515W        W78742  31.991   9.522   2.250
13516W        W78743  30.231  31.565  14.509
13517W        W78744  31.826   3.241   4.542
13518W        W78745  37.986  44.763   4.744
13519W        W78746  29.638   9.696   3.206
13520W        W78747   2.293  21.022  12.436
13521W        W78748  17.787  21.257   3.834
13522W        W78749  17.925   0.107   4.883
13523W        W78750  40.820  22.284   1.955
13524W        W78751  23.954   1.892   1.833
13525W        W78752  35.401  16.297   0.483
13526W        W78753  16.672   5.135   4.272
13527W        W78754   6.923  30.082  10.725
13528W        W78755  38.894  20.258   4.599
13529W        W78756   6.993  31.968  14.354
13530W        W78757  42.476   4.843   2.355
13531W        W78758  14.648  15.821   4.190
13532W        W78759  24.877  13.849  11.345
13533W        W78760  42.906  23.141   1.860
13534W        W78761  15.749  41.275   1.389
13535W        W78762  41.486  34.593  11.207
13536W        W78763  24.408  19.512   2.831
13537W        W78764  23.163  16.710  11.103
13538W        W78765  28.131  38.277  11.668
13539W        W78766  29.724  28.989   4.030
13540W        W78767  42.007   5.423  12.028
13541W        W78768  22.130  39.886   4.543
13542W        W78769  42.413  25.503   1.954
13543W        W78770  32.877  41.388  12.334
13544W        W78771  26.190  33.332  13.604
13545W        W78772  35.331   6.744  13.339
13546W        W78773  10.258  40.519  13.232
13547W        W78774  24.802  18.333  11.145
13548W        W78775  35.231   6.213   0.262
13549W        W78776   1.705   0.672  14.770
13550W        W78777  43.474   7.432  11.307
13551W        W78778  36.506  26.616  11.514
13552W        W78779  37.046   2.923   0.772
13553W        W78780   7.353  11.573  11.085
13554W        W78781  35.954  20.072  11.564
13555W        W78782   6.150  15.305   2.022
13556W        W78783  11.756  39.856  12.832
13557W        W78784  39.730  12.671   1.310
13558W        W78785  15.808   3.774   4.213
13559W        W78786  19.409  14.309   1.187
13560W        W78787   3.475  43.935   9.823
13561W        W78788  22.694   9.239   2.648
13562W        W78789   0.709   3.375   1.891
13563W        W78790   2.808  31.200   9.794
13564W        W78791  44.990  16.586  13.107
13565W        W78792  36.105  11.103   4.493
13566W        W78793  15.242  15.076  12.036
13567W        W78794  37.563  30.696   4.623
13568W        W78795  35.280  40.532  11.204
13569W        W78796  12.239  36.522   2.366
13570W        W78797   4.959  36.969  13.540
13571W        W78798  38.840  11.732   0.393
13572W        W78799  10.066  34.617  12.346
13573W        W78800  29.557  33.517   2.814
13574W        W78801  19.813  40.434  14.890
13575W        W78802  22.661  30.142  14.410
13576W        W78803  27.939   0.161   0.874
13577W        W78804   4.171  15.031  13.854
13578W        W78805  35.282  16.732  14.471
13579W        W78806  12.247  15.243   4.800
13580W        W78807  20.166  44.291   1.285
13581W        W78808  31.583  37.766   0.215
13582W        W78809  29.759  10.803  11.268
13583W        W78810   9.823  18.464   4.642
13584W        W78811   2.275  25.695   0.978
13585W        W78812   7.860   2.289  14.052
13586W        W78813  12.692   4.866  10.043
13587W        W78814   0.548  23.510  11.424
13588W        W78815  41.405  31.684   2.731
13589W        W78816  33.930  10.909  14.378
13590W        W78817  12.910  41.980  14.973
13591W        W78818  43.764  21.027  10.388
13592W        W78819  42.379  32.371  10.859
13593W        W78820  27.372  43.423  13.957
13594W        W78821  12.322   1.732   0.443
13595W        W78822  39.514  15.366   1.177
13596W        W78823  40.381   5.627  13.435
13597W        W78824  10.788  34.251  12.561
13598W        W78825  15.384  33.566   0.020
13599W        W78826  31.813  25.263  13.078
13600W        W78827   7.000   7.769   0.976
13601W        W78828  30.079   9.649   0.372
13602W        W78829   2.844  35.083  11.556
13603W        W78830  18.362  14.719   3.103
13604W        W78831  13.086  13.145   1.682
13605W        W78832  29.162  44.787   3.187
13606W        W78833  13.743  18.794  12.377
13607W        W78834  28.097  34.295   2.976
13608W        W78835  27.758  18.042   2.297
13609W        W78836  20.086  26.405   3.721
13610W        W78837  11.878   4.217   0.845
13611W        W78838  36.656  36.374   0.361
13612W        W78839   1.448  12.100  10.686
13613W        W78840  25.814  30.375  14.926
13614W        W78841   2.482  33.326  11.395
13615W        W78842  41.506  37.534   2.294
13616W        W78843  33.783  30.688  10.287
13617W        W78844  25.639   9.963  11.610
13618W        W78845   6.772   2.311  13.341
13619W        W78846  18.558  22.623   3.671
13620W        W78847  37.837  16.789  13.935
13621W        W78848  31.970  44.933   3.046
13622W        W78849  38.890  42.405   4.604
13623W        W78850  11.617  33.902   3.164
13624W        W78851  14.346  23.195  11.466
13625W        W78852  32.669  42.988   3.923
13626W        W78853  33.167  26.102  11.693
13627W        W78854   4.727  30.767  12.866
13628W        W78855  34.394  11.888   1.220
13629W        W78856  20.287  25.652  11.236
13630W        W78857  36.204  43.452   1.691
13631W        W78858   1.363  19.549  11.910
13632W        W78859  23.077  22.475  14.476
13633W        W78860  26.977  27.850  12.050
13634W        W78861  34.077   7.341  11.198
13635W        W78862   7.538   9.786   4.448
13636W        W78863   7.827  24.345   0.153
13637W        W78864  36.861  44.918   1.363
13638W        W78865  28.469  30.893   3.782
13639W        W78866  10.859  26.955  13.769
13640W        W78867  36.397  35.143   3.302
13641W        W78868  42.231  12.428   4.099
13642W        W78869   6.294  11.576  11.091
13643W        W78870  41.484  14.271   4.636
13644W        W78871   1.436  44.679   0.266
13645W        W78872  32.108  44.951   4.494
13646W        W78873   5.599   3.840  11.429
13647W        W78874  42.331  14.304  12.076
13648W        W78875  31.254  31.480   5.625
13649W        W78876  33.090  42.278  11.786
13650W        W78877  27.780  42.836  12.912
13651W        W78878  37.081  30.525  13.899
13652W        W78879  36.874  23.944   0.517
13653W        W78880  38.760  37.390  11.821
13654W        W78881  18.259  42.015   2.259
13655W        W78882  26.540  17.543  13.404
13656W        W78883   2.550  20.953   4.119
13657W        W78884  39.430   2.426   1.132
13658W        W78885  28.428  29.147   4.023
13659W        W78886  30.431   8.757  11.855
13660W        W78887  24.791  32.918   4.044
13661W        W78888  16.392   4.326   1.327
13662W        W78889  42.583  30.077  11.267
13663W        W78890  36.449  33.039   1.811
13664W        W78891  25.114  20.764  13.479
13665W        W78892  18.637  18.543   0.258
13666W        W78893  26.130   0.634  13.135
13667W        W78894   1.868   8.384   0.188
13668W        W78895  14.231  35.970  10.820
13669W        W78896  24.288  27.579   1.098
13670W        W78897  10.722  30.390  12.396
13671W        W78898  37.758  36.185   3.119
13672W        W78899  15.260  11.674  12.507
13673W        W78900   0.684  25.435   5.346
13674W        W78901  15.568  16.977   3.423
13675W        W78902  40.016  16.315   3.283
13676W        W78903  38.665  11.051   3.697
13677W        W78904   0.373  19.809   0.677
13678W        W78905  42.422  12.701   1.846
13679W        W78906  41.896  26.139  14.478
13680W        W78907  12.723  34.333   0.464
13681W        W78908   7.392   0.419   0.433
13682W        W78909  24.411  24.712  11.693
13683W        W78910   8.996  26.986   1.839
13684W        W78911  32.591  25.485   3.945
13685W        W78912   7.428  20.634   4.073
13686W        W78913  39.073  23.597   3.070
13687W        W78914  22.505   5.418   2.616
13688W        W78915  18.869   7.431   2.344
13689W        W78916   6.262  16.789   4.412
13690W        W78917   1.226  44.939  12.891
13691W        W78918  22.279  26.216  13.743
13692W        W78919  39.555   8.193  10.769
13693W        W78920   9.849  20.663  12.462
13694W        W78921  30.620  10.665   2.927
13695W        W78922   2.509  28.430  13.257
13696W        W78923  28.854   9.449  13.483
13697W        W78924  36.448  24.618   2.392
13698W        W78925   9.858  43.926   2.887
13699W        W78926  21.196  27.081  11.164
13700W        W78927  23.617   2.230   2.909
13701W        W78928  17.864  19.515   4.907
13702W        W78929   7.732  12.711  10.680
13703W        W78930  44.914  14.083   3.808
13704W        W78931   0.795   4.739  10.781
13705W        W78932  20.172   7.234   0.870
13706W        W78933  24.052  18.219  12.011
13707W        W78934   5.175  12.669   2.687
13708W        W78935  37.158   8.035  11.142
13709W        W78936  21.657  13.604   1.838
13710W        W78937  21.649  18.472  10.198
13711W        W78938   8.192  29.394  11.250
13712W        W78939  17.811  17.393   2.754
13713W        W78940  13.095  41.293   2.860
13714W        W78941  11.271  15.243   4.428
13715W        W78942  32.139  21.101  12.529
13716W        W78943   0.720  13.289  11.169
13717W        W78944  14.754  39.774   4.383
13718W        W78945  25.235   3.724  12.191
13719W        W78946  43.880  20.812   4.922
13720W        W78947  18.703   6.035   4.623
13721W        W78948  44.277  38.774   1.288
13722W        W78949  15.408  25.615   0.815
13723W        W78950   1.029  10.023  12.534
13724W        W78951   3.350  44.910   0.178
13725W        W78952  22.725  18.576  13.364
13726W        W78953  44.938  26.661  13.981
13727W        W78954  34.648  25.958  12.607
13728W        W78955  23.965  35.596  11.454
13729W        W78956  26.774  32.021   4.076
13730W        W78957  34.044  30.418   0.600
13731W        W78958  24.408  20.118   2.702
13732W        W78959  36.482  29.608   2.318
13733W        W78960  17.634  41.912  14.385
13734W        W78961  23.130  34.639  11.172
13735W        W78962  42.408  37.413  13.404
13736W        W78963   4.472  10.789   4.179
13737W        W78964   3.270  29.849   2.194
13738W        W78965  12.084  23.730   3.315
13739W        W78966   6.929  21.231  12.554
13740W        W78967  20.532  30.018  12.967
13741W        W78968   6.050   5.070   0.448
13742W        W78969  42.306  34.515   1.184
13743W        W78970  29.082  24.424  12.077
13744W        W78971  26.558  38.214   4.542
13745W        W78972  14.751  10.298  14.147
13746W        W78973  41.055  44.835  11.901
13747W        W78974  20.934   1.639  14.664
13748W        W78975  40.863  11.791   0.297
13749W        W78976   1.684  11.533   2.688
13750W        W78977  28.503   8.390   2.044
13751W        W78978  28.120  35.692   0.246
13752W        W78979  17.403  19.635   0.960
13753W        W78980  35.902   9.740   3.413
13754W        W78981   4.309  10.857   1.906
13755W        W78982  20.858   6.627   3.239
13756W        W78983  25.442   3.552  14.076
13757W        W78984   7.696  43.511  11.070
13758W        W78985   7.839  19.834  14.358
13759W        W78986  40.594  16.110  10.060
13760W        W78987  25.246  19.159   0.326
13761W        W78988  33.495  44.390   1.694
13762W        W78989  14.588  20.234  12.480
13763W        W78990  37.957  22.635   0.832
13764W        W78991  18.857  15.173   3.742
13765W        W78992  24.701  31.846  12.568
13766W        W78993  16.242  34.071   3.401
13767W        W78994  41.522  39.611   0.836
13768W        W78995  43.281  13.263  12.955
13769W        W78996   4.868  30.883  11.116
13770W        W78997  23.557  44.677   3.127
13771W        W78998  37.811   2.711  14.461
13772W        W78999  18.089   4.442  11.964
13773W        W79000  13.153  26.183  14.866
13774W        W79001  41.804  35.271  12.869
13775W        W79002  15.793   4.381  13.364
13776W        W79003  17.663  27.014  12.247
13777W        W79004  22.558  33.964   2.266
13778W        W79005  30.957  24.266  13.052
13779W        W79006  34.670   4.454  11.686
13780W        W79007  24.884  15.702   2.176
13781W        W79008  41.317   1.779   2.476
13782W        W79009   8.318  14.649   2.835
13783W        W79010   3.284  36.609  14.648
13784W        W79011  19.303  41.048  11.220
13785W        W79012  34.073  38.831  13.912
13786W        W79013   9.040  26.876  12.970
13787W        W79014  14.920  18.952  14.912
13788W        W79015  42.261  26.463  12.974
13789W        W79016  28.563  32.131  13.533
13790W        W79017  44.422   8.130  12.934
13791W        W79018  26.032  18.136   1.652
13792W        W79019  44.852   6.182  13.103
13793W        W79020  19.176  29.364  12.400
13794W        W79021  41.748  18.168  12.140
13795W        W79022  37.791  13.575  12.979
13796W        W79023  14.059  14.594   3.729
13797W        W79024  40.550  16.896  10.771
13798W        W79025  17.268  15.654   4.176
13799W        W79026  12.163  23.788   0.907
13800W        W79027  44.982  15.766   1.523
13801W        W79028  20.291   0.320   1.166
13802W        W79029  24.078  44.780   5.364
13803W        W79030  22.457  34.605   0.433
13804W        W79031  38.396  39.333   0.855
13805W        W79032  11.444  31.738  14.945
13806W        W79033  39.515  16.051  14.310
13807W        W79034  20.139  44.649  12.413
13808W        W79035  13.757   4.446  13.767
13809W        W79036  15.238  32.904  11.949
13810W        W79037  23.043  17.573   4.136
13811W        W79038  44.090  31.454   4.570
13812W        W79039  30.193  44.067  11.087
13813W        W79040  11.752  22.311   1.688
13814W        W79041  33.610  33.046   4.647
13815W        W79042   2.744   6.698   0.760
13816W        W79043  16.055  29.371   3.680
13817W        W79044  32.652  22.504   1.887
13818W        W79045  28.712  42.686   1.262
13819W        W79046  21.482  37.777   2.411
13820W        W79047  41.537  22.447  10.924
13821W        W79048  23.890  14.010  13.865
13822W        W79049   3.547  40.951  14.345
13823W        W79050  19.084  15.569   0.421
13824W        W79051  31.205  27.247   3.475
13825W        W79052  36.151  40.898  11.081
13826W        W79053  24.565  29.800   2.765
13827W        W79054   5.611   7.313   4.115
13828W        W79055  35.380  24.288   2.374
13829W        W79056  24.135   5.706  13.517
13830W        W79057   3.419  19.073   3.819
13831W        W79058  30.549   9.199   4.130
13832W        W79059  38.984  21.022  11.594
13833W        W79060  18.736  44.707  14.806
13834W        W79061  38.564  44.807   2.263
13835W        W79062  36.621  12.853   4.230
13836W        W79063  31.734  34.303  14.492
13837W        W79064  30.093  14.766   2.572
13838W        W79065   8.843  32.584  12.231
13839W        W79066  12.707  44.903  14.335
13840W        W79067   7.942  13.659  12.447
13841W        W79068   3.914  44.766   3.278
13842W        W79069   9.755  25.719  12.014
13843W        W79070  11.266  27.451  13.346
13844W        W79071  19.795   6.365  11.595
13845W        W79072   5.387  27.227  12.416
13846W        W79073  39.519  16.676  10.469
13847W        W79074   6.454  23.809  11.413
13848W        W79075  35.434  15.732  13.014
13849W        W79076  40.300  12.857  12.816
13850W        W79077   4.564  44.701  12.390
13851W        W79078  30.151  34.635  11.961
13852W        W79079  32.105  39.421   0.704
13853W        W79080  20.092  15.870   1.308
13854W        W79081  37.593  43.118  10.409
13855W        W79082  24.334  19.313  11.888
13856W        W79083  13.308  43.734   4.986
13857W        W79084  34.800  19.689   1.369
13858W        W79085  40.272  12.716  13.723
13859W        W79086   9.622  29.158   2.304
13860W        W79087  41.433  15.710   4.532
13861W        W79088  17.039  12.391   1.348
13862W        W79089  32.213   6.951  12.061
13863W        W79090  38.611   7.806  13.604
13864W        W79091   3.641   7.812   1.174
13865W        W79092  10.695  36.385  10.343
13866W        W79093   3.641  15.160   0.954
13867W        W79094  38.584  10.321   1.022
13868W        W79095  30.562  29.683  14.485
13869W        W79096  44.284  42.451  11.649
13870W        W79097  20.511   9.514   0.052
13871W        W79098  26.740  22.510   3.301
13872W        W79099  42.282   2.160   1.428
13873W        W79100  43.769   8.822   0.761
13874W        W79101  37.114  23.000   0.571
13875W        W79102  41.960  39.334   2.697
13876W        W79103  41.793  24.639   3.253
13877W        W79104  31.350   3.715  12.540
13878W        W79105  32.334  22.606  14.557
13879W        W79106  22.919  31.475   1.595
13880W        W79107   8.060  41.506  11.087
13881W        W79108  33.494   2.771   4.483
13882W        W79109   9.971  21.166   2.928
13883W        W79110  34.273   7.738  14.008
13884W        W79111  21.129   2.339   0.308
13885W        W79112  40.296  32.116  13.824
13886W        W79113  29.777  17.660  13.900
13887W        W79114   0.288  15.551  11.891
13888W        W79115  28.849  30.406  10.755
13889W        W79116  27.895  43.309   3.401
13890W        W79117  40.469  17.735  11.697
13891W        W79118   1.055  42.205  11.932
13892W        W79119  18.600   1.420   1.712
13893W        W79120  18.185  13.611  10.670
13894W        W79121  20.061  29.519  13.545
13895W        W79122  44.459  24.484  11.018
13896W        W79123  41.191  14.913   1.753
13897W        W79124  18.674  22.614  13.622
13898W        W79125   5.636  26.062  10.470
13899W        W79126  19.783  16.648  13.948
13900W        W79127  17.673  14.701  13.074
13901W        W79128  18.381  17.782   2.126
13902W        W79129  22.699  13.654   1.227
13903W        W79130  25.577  10.847   4.220
13904W        W79131  39.779  36.288  12.771
13905W        W79132  21.486  33.939   2.716
13906W        W79133  19.086  30.864   1.696
13907W        W79134   8.216  29.461   0.654
13908W        W79135  36.590  34.081   0.561
13909W        W79136  36.058  15.904  10.836
13910W        W79137  42.359  44.410  14.822
13911W        W79138  19.149  15.535  11.657
13912W        W79139  25.569  39.665  10.221
13913W        W79140   0.432  36.138   4.468
13914W        W79141   2.812  23.887  13.035
13915W        W79142   7.302   8.534  14.966
13916W        W79143  37.710  16.884   4.044
13917W        W79144  19.687  21.600  14.059
13918W        W79145   0.405  35.114   2.445
13919W        W79146   8.222  14.167  14.429
13920W        W79147  28.560  29.130   1.395
13921W        W79148  39.509  24.540   4.488
13922W        W79149  12.339  34.151  11.597
13923W        W79150  33.135   3.420  12.578
13924W        W79151  39.416  41.808  11.994
13925W        W79152  29.037  38.536   3.379
13926W        W79153  23.698  12.674  11.194
13927W        W79154  24.841  13.875  13.514
13928W        W79155   2.186  13.932  13.976
13929W        W79156  34.573   8.794   4.831
13930W        W79157  21.429   1.737  12.444
13931W        W79158  14.293  34.428   1.017
13932W        W79159   4.830  11.459   2.900
13933W        W79160  36.342  28.507  13.900
13934W        W79161  38.236  35.846   1.836
13935W        W79162  32.496  22.163   0.259
13936W        W79163   1.919  26.514  14.489
13937W        W79164  21.097  31.351  12.847
13938W        W79165   6.738  12.545  14.486
13939W        W79166   0.421   0.576   4.138
13940W        W79167  10.311   0.924   5.025
13941W        W79168  36.441  20.975  10.641
13942W        W79169   9.845   6.406   0.069
13943W        W79170   2.498  15.565   1.225
13944W        W79171  36.151  32.341  14.067
13945W        W79172  26.546  15.105   3.794
13946W        W79173  10.264  17.579   0.749
13947W        W79174  18.553  32.726  11.120
13948W        W79175  44.752  24.262  14.919
13949W        W79176  22.704  37.631  11.063
13950W        W79177  28.928  28.681  12.488
13951W        W79178   3.346  40.403  12.181
13952W        W79179  20.514   8.603  11.183
13953W        W79180  38.818  23.521   2.634
13954W        W79181   0.502   4.384   3.141
13955W        W79182  30.337  10.364  14.090
13956W        W79183  22.961  21.600  14.377
13957W        W79184  23.991  14.645   0.327
13958W        W79185  19.685  34.813  12.893
13959W        W79186  27.231  17.606   1.818
13960W        W79187   1.892  11.249   1.900
13961W        W79188  40.906  20.067   3.215
13962W        W79189  22.263   3.707   0.283
13963W        W79190   0.710  19.283  14.012
13964W        W79191   6.714  26.673   3.760
13965W        W79192  44.620  16.818  14.916
13966W        W79193  34.134  34.944  11.959
13967W        W79194  17.470   6.876   4.939
13968W        W79195  13.102  30.059   0.147
13969W        W79196   1.009  23.756   0.704
13970W        W79197  42.874  22.319   1.379
13971W        W79198   4.966   4.675   3.688
13972W        W79199  16.544   8.818   1.491
13973W        W79200   8.457  13.321   9.822
13974W        W79201  20.987  33.053   2.716
13975W        W79202   8.669  24.847   3.653
13976W        W79203  31.143  25.585  12.472
13977W        W79204   4.464  25.747  12.425
13978W        W79205  26.517  43.538   1.202
13979W        W79206  36.485   1.867  13.013
13980W        W79207  31.020  41.264  12.822
13981W        W79208  17.437  17.463   0.201
13982W        W79209  21.399  42.259   4.309
13983W        W79210  35.587  31.906   3.766
13984W        W79211  26.572  38.972   4.904
13985W        W79212   9.250  38.398   3.117
13986W        W79213   9.796  40.053  11.680
13987W        W79214   5.892  36.531   0.784
13988W        W79215   6.493  24.126  14.475
13989W        W79216  15.258  39.900  11.446
13990W        W79217  40.736  40.052  10.977
13991W        W79218  34.800  19.754  12.864
13992W        W79219  27.215  29.549   2.417
13993W        W79220  31.374  28.688   2.821
13994W        W79221  17.480  18.887   3.763
13995W        W79222  25.075   3.025  13.381
13996W        W79223  25.523  43.556   0.802
13997W        W79224  35.049  43.622  11.258
13998W        W79225  38.380   3.973  12.323
13999W        W79226  16.125  22.749   2.917
14000W        W79227  16.679   8.785  10.659
14001W        W79228  34.005  23.119   3.958
14002W        W79229  36.616  40.513  11.537
14003W        W79230  44.935  34.320  14.130
14004W        W79231  19.343  37.126  13.320
14005W        W79232  23.274  38.565   1.358
14006W        W79233  18.034  34.932   1.798
14007W        W79234  23.632   6.812   4.866
14008W        W79235  29.515  41.845   1.824
14009W        W79236  24.979  34.275   0.297
14010W        W79237   1.419   7.339   2.286
14011W        W79238  28.881  20.683  11.087
14012W        W79239  22.741  24.097  13.063
14013W        W79240  28.657  14.928   2.168
14014W        W79241  19.800  40.962  14.532
14015W        W79242  15.820  13.377  13.978
14016W        W79243  41.821  31.826   4.459
14017W        W79244   8.378  31.085  12.762
14018W        W79245  21.726  17.658  11.520
14019W        W79246  17.287   6.433   1.909
14020W        W79247   6.258  34.981   3.121
14021W        W79248  15.168   4.316  10.747
14022W        W79249  40.962  13.897   2.787
14023W        W79250  16.869  38.932  11.170
14024W        W79251  15.249  29.376   3.135
14025W        W79252  11.918   0.021   4.300
14026W        W79253  39.037  20.019   0.997
14027W        W79254  16.754  42.580   1.165
14028W        W79255  30.146  40.393   4.067
14029W        W79256   6.653  27.655   2.108
14030W        W79257  29.191  14.458   0.854
14031W        W79258  39.836  14.322   1.787
14032W        W79259  44.446   7.390  13.355
14033W        W79260  32.971   7.406  12.358
14034W        W79261  25.917  25.561   4.064
14035W        W79262   0.505  20.488  14.393
14036W        W79263  25.038  27.217   1.977
14037W        W79264  13.826  41.297   4.570
14038W        W79265  30.625  21.690  11.473
14039W        W79266  31.451  29.867  10.568
14040W        W79267   2.353  21.316   2.294
14041W        W79268   5.856  20.057  10.605
14042W        W79269   4.404  42.328   3.563
14043W        W79270  11.347   2.991   0.801
14044W        W79271  13.603  29.984   3.405
14045W        W79272  35.372  25.204   3.664
14046W        W79273  28.488  25.752  14.490
14047W        W79274  24.014  28.599   0.375
14048W        W79275   0.396  16.689   4.043
14049W        W79276  44.744  28.494   3.738
14050W        W79277   4.800  41.178  11.206
14051W        W79278   9.633  28.466   4.543
14052W        W79279  30.066   7.620  14.304
14053W        W79280  24.433   8.854  13.341
14054W        W79281  39.883  13.823   1.798
14055W        W79282  21.493  30.419   0.555
14056W        W79283  40.376  24.508   4.294
14057W        W79284  33.118  21.024   3.208
14058W        W79285  43.316  31.511  13.991
14059W        W79286  39.709  23.159   1.214
14060W        W79287   9.759  27.656  10.747
14061W        W79288   3.166  19.328  13.826
14062W        W79289  31.247   3.118   3.627
14063W        W79290  13.285  12.148   3.662
14064W        W79291  13.130  39.340   2.718
14065W        W79292   8.767  15.526   9.798
14066W        W79293  21.749  32.954   2.305
14067W        W79294   7.429   3.772   2.359
14068W        W79295   3.773  21.599  13.130
14069W        W79296  30.531   1.432  14.740
14070W        W79297  38.013  30.643   3.641
14071W        W79298  33.511  29.123  14.280
14072W        W79299  22.482  33.139   0.383
14073W        W79300  13.313  41.454  11.412
14074W        W79301  14.714  19.203   1.789
14075W        W79302  11.670  17.327  14.395
14076W        W79303   0.409  14.079   3.611
14077W        W79304  11.873  29.437  11.658
14078W        W79305  42.641  22.478  11.154
14079W        W79306  34.169  29.828  13.171
14080W        W79307  16.062  31.462  11.036
14081W        W79308  22.662  32.400  12.621
14082W        W79309  25.814   8.864   2.376
14083W        W79310  29.824   9.388   0.755
14084W        W79311  32.482  41.184   5.366
14085W        W79312   7.705  24.598   1.080
14086W        W79313  40.141  10.676   4.044
14087W        W79314   0.226  24.451  14.871
14088W        W79315  31.561   8.557   0.236
14089W        W79316  28.397   3.725  14.789
14090W        W79317  32.963   1.314  11.377
14091W        W79318  31.633  22.013  12.214
14092W        W79319  31.342  29.187  13.478
14093W        W79320  33.483  12.244   3.768
14094W        W79321  37.053  40.254  11.514
14095W        W79322  15.224  34.950   1.734
14096W        W79323  29.985   5.458   0.731
14097W        W79324  26.497  28.508  12.465
14098W        W79325  41.063  11.726   0.770
14099W        W79326  37.611   5.319  14.836
14100W        W79327  31.084   1.818   1.347
14101W        W79328  15.624  38.084  11.178
14102W        W79329  37.725  10.454  10.901
14103W        W79330  31.827  22.472  14.592
14104W        W79331  20.741  22.565   2.160
14105W        W79332  20.493   2.907  13.303
14106W        W79333   5.179   1.392   3.341
14107W        W79334  36.370  22.956  11.785
14108W        W79335  43.275  29.434   0.121
14109W        W79336   6.570  44.852  11.118
14110W        W79337  41.784  29.982   1.734
14111W        W79338  35.014  10.550   4.247
14112W        W79339   6.274  26.399  10.092
14113W        W79340  23.482   2.664   2.037
14114W        W79341  13.348  29.990  11.023
14115W        W79342  32.896   9.780   3.280
14116W        W79343   9.627  24.574   4.004
14117W        W79344  43.833  23.582   1.512
14118W        W79345  16.804  30.701   3.112
14119W        W79346  39.012  35.973   0.950
14120W        W79347  42.460  12.972   0.811
14121W        W79348  38.969  13.770   3.069
14122W        W79349  34.291  34.459   0.274
14123W        W79350  12.906  28.741  13.052
14124W        W79351  23.028  42.907  13.616
14125W        W79352  11.765  26.907  11.668
14126W        W79353   5.878  24.539  14.718
14127W        W79354  42.203  19.644   3.593
14128W        W79355  17.207  43.180  12.927
14129W        W79356  32.960   1.153  10.906
14130W        W79357   2.925  23.170  14.345
14131W        W79358  27.012  18.603  12.089
14132W        W79359  34.112  27.477   9.635
14133W        W79360  30.795  21.083  13.567
14134W        W79361  16.635  24.738  12.476
14135W        W79362  19.381   1.470  11.940
14136W        W79363   8.177  27.899   4.226
14137W        W79364  29.021  44.104  11.635
14138W        W79365  24.256  36.374  14.733
14139W        W79366  43.509   7.912   1.752
14140W        W79367  19.501  14.697  11.170
14141W        W79368  36.035  29.735   1.599
14142W        W79369  26.943   2.121   4.123
14143W        W79370  12.275   6.252   4.741
14144W        W79371  10.884  14.088   3.713
14145W        W79372  24.433  11.381   4.659
14146W        W79373  29.413  31.468   3.607
14147W        W79374   1.348  19.983  14.275
14148W        W79375  22.994  32.040  10.525
14149W        W79376  40.962  22.516  13.005
14150W        W79377  14.721  15.666  13.841
14151W        W79378  30.169  25.188  10.286
14152W        W79379  25.594  32.349  14.978
14153W        W79380   3.444   9.129   1.402
14154W        W79381  37.224  37.999   1.243
14155W        W79382  24.532   2.310   1.744
14156W        W79383  19.763   7.799  11.702
14157W        W79384   7.602  19.527  14.751
14158W        W79385  23.759  36.019   3.653
14159W        W79386  14.428  15.912   3.349
14160W        W79387  18.586   4.730  14.563
14161W        W79388   7.755   7.155   1.203
14162W        W79389  23.605  29.038   3.147
14163W        W79390  32.026  33.555  14.880
14164W        W79391  38.659  39.435  14.470
14165W        W79392  17.092  23.679  12.051
14166W        W79393  29.428  43.917   3.156
14167W        W79394  27.580  26.264   1.959
14168W        W79395  34.459  12.702  11.077
14169W        W79396   4.129   0.878   3.791
14170W        W79397  26.999  35.026   3.901
14171W        W79398  42.107  14.708   2.612
14172W        W79399   6.546   5.284  11.379
14173W        W79400  13.001  40.611  14.163
14174W        W79401  31.903  40.562   1.832
14175W        W79402   6.698  11.277  11.363
14176W        W79403  32.373  37.129  13.009
14177W        W79404  26.641   7.743   3.558
14178W        W79405  15.815   5.247   2.136
14179W        W79406  25.310   9.185   3.818
14180W        W79407  26.418  22.955  14.470
14181W        W79408  35.018  29.670  13.507
14182W        W79409  16.496  42.915  10.991
14183W        W79410  12.655  23.089   3.698
14184W        W79411  37.409  38.904   4.036
14185W        W79412  36.640  43.795  11.220
14186W        W79413   5.710  29.173   0.708
14187W        W79414  18.476  32.333  12.912
14188W        W79415  15.533   8.650  13.509
14189W        W79416  15.867  41.780   1.264
14190W        W79417  29.631  43.070   0.044
14191W        W79418  20.799  14.674   4.777
14192W        W79419  37.883  30.887   4.203
14193W        W79420  16.751  36.459   2.678
14194W        W79421  10.871   4.271  12.164
14195W        W79422   9.361  21.365  11.949
14196W        W79423  30.762  13.124   4.810
14197W        W79424  35.668   0.071   0.432
14198W        W79425   9.737  19.538   3.219
14199W        W79426  30.811  28.694  14.510
14200W        W79427  32.755   9.618  14.507
14201W        W79428  18.059  35.474   2.325
14202W        W79429  25.039  31.465   1.942
14203W        W79430  40.542  29.093   1.910
14204W        W79431   8.698  10.413  12.126
14205W        W79432  15.256  17.988  13.823
14206W        W79433   3.522  19.679   4.178
14207W        W79434  13.233  13.798  12.475
14208W        W79435  25.675  22.238  14.068
14209W        W79436   1.986   1.286  12.517
14210W        W79437   6.629   3.927   2.780
14211W        W79438   2.179  36.460   4.222
14212W        W79439  19.305   2.629  12.136
14213W        W79440   4.651  15.690   4.553
14214W        W79441  13.955   1.701  11.707
14215W        W79442  11.090  19.076   1.273
14216W        W79443  19.763  31.031  11.469
14217W        W79444  35.335  42.366   0.367
14218W        W79445  39.659  24.142  13.573
14219W        W79446  16.099   0.356   2.365
14220W        W79447  30.419  24.598   2.837
14221W        W79448  39.381  23.044   3.720
14222W        W79449   2.912  28.073  10.189
14223W        W79450  24.022  23.663   3.998
14224W        W79451  27.615  10.427  12.621
14225W        W79452   5.662  21.301   4.108
14226W        W79453   2.837  33.066   0.746
14227W        W79454  40.446  10.881  12.154
14228W        W79455   3.626  26.738  10.243
14229W        W79456  35.952  24.483   2.296
14230W        W79457  39.828   1.274  12.593
14231W        W79458  20.103  44.200  14.352
14232W        W79459  30.549  25.419  14.859
14233W        W79460  27.553  33.991  11.625
14234W        W79461  36.492  22.160   1.679
14235W        W79462   9.733  12.087   0.975
14236W        W79463  31.058   9.775  10.960
14237W        W79464  36.675   0.367   2.125
14238W        W79465  31.898   1.407  14.595
14239W        W79466  22.000  23.142  14.615
14240W        W79467  41.734  26.702   4.088
14241W        W79468  33.068  32.116   9.990
14242W        W79469  35.613  27.062   2.898
14243W        W79470   4.826   2.715   2.125
14244W        W79471  22.214  30.279  13.150
14245W        W79472   9.071  33.875   1.846
14246W        W79473  17.303  35.890   2.493
14247W        W79474  31.538   9.575   0.404
14248W        W79475  12.471  14.533   4.989
14249W        W79476  10.298  39.335  11.051
14250W        W79477  24.175  29.591   2.390
14251W        W79478  31.019   6.660  10.769
14252W        W79479  34.981  24.982  12.168
14253W        W79480  16.086   9.129   2.232
14254W        W79481  30.182  44.245  13.961
14255W        W79482   4.940   5.255   1.350
14256W        W79483   6.454  37.609  11.016
14257W        W79484  35.221  11.652  10.904
14258W        W79485  36.007  14.555   0.834
14259W        W79486  29.664  34.931   1.583
14260W        W79487   3.106  37.803   0.922
14261W        W79488  38.433   8.979   2.145
14262W        W79489  42.935  18.384   1.300
14263W        W79490  15.322  16.358  11.572
14264W        W79491  34.980  41.840  12.539
14265W        W79492  13.578  29.033   4.870
14266W        W79493  24.729   3.825  11.477
14267W        W79494  26.877  39.400  12.697
14268W        W79495  37.495   7.921  12.083
14269W        W79496  26.637  10.589   2.759
14270W        W79497  38.411  27.589  11.059
14271W        W79498  24.915  30.931  13.478
14272W        W79499   7.182  42.980   2.303
14273W        W79500  16.889  41.165   4.480
14274W        W79501  36.890  30.132   1.670
14275W        W79502  40.410  34.836  11.694
14276W        W79503  21.676  34.409   2.690
14277W        W79504  29.900  37.884   2.729
14278W        W79505   3.007  11.634  13.848
14279W        W79506  22.456  11.968   0.899
14280W        W79507  15.048  43.076  14.358
14281W        W79508   7.441  32.591   3.561
14282W        W79509  27.330   2.761   4.813
14283W        W79510  18.436   8.703  12.155
14284W        W79511  28.879  26.268  10.753
14285W        W79512  34.075  34.034  11.607
14286W        W79513  30.173   2.335   4.677
14287W        W79514  22.183   8.192  14.490
14288W        W79515  11.945   1.396   0.219
14289W        W79516   6.478   3.251   4.159
14290W        W79517  15.835  13.208   4.484
14291W        W79518   4.190  14.309   1.737
14292W        W79519  31.979  11.890   0.161
14293W        W79520   3.078  30.760   9.852
14294W        W79521  39.864   1.551   1.206
14295W        W79522  21.203  34.113  14.855
14296W        W79523  38.993   5.920   1.403
14297W        W79524   1.156   4.523   1.381
14298W        W79525   0.319  27.124   1.190
14299W        W79526  28.155  24.603   1.361
14300W        W79527  26.499  26.334  13.028
14301W        W79528   6.428  23.611   2.687
14302W        W79529  14.236  41.892  12.821
14303W        W79530   6.741  29.203   0.630
14304W        W79531  37.492  26.649  13.049
14305W        W79532   8.203  19.149   4.517
14306W        W79533  37.289  42.585  11.201
14307W        W79534  12.672  22.363   1.184
14308W        W79535  44.199  31.976  12.772
14309W        W79536   0.859  43.294  13.258
14310W        W79537   3.766  41.813   0.883
14311W        W79538  11.080  40.821  14.366
14312W        W79539   1.694  43.373   3.070
14313W        W79540  35.301  27.573  12.171
14314W        W79541  24.975  21.675   3.742
14315W        W79542  36.697   0.946  14.389
14316W        W79543   0.721  42.410   3.068
14317W        W79544  23.632   1.816  14.255
14318W        W79545  31.559  18.242  11.631
14319W        W79546  29.387  30.670   4.526
14320W        W79547   3.076  14.260  13.975
14321W        W79548  27.436  22.456  10.627
14322W        W79549   6.861  20.107  14.487
14323W        W79550  37.843  44.513   3.160
14324W        W79551  34.429  21.875   2.809
14325W        W79552  22.537  26.972   4.886
14326W        W79553  13.396  19.262   0.693
14327W        W79554  41.003   3.271  14.212
14328W        W79555  31.927  31.863   4.175
14329W        W79556  43.404   7.814  11.966
14330W        W79557  38.876  24.004   2.810
14331W        W79558  25.980  25.874   2.317
14332W        W79559  12.527  43.342   1.387
14333W        W79560   8.025  34.043   1.708
14334W        W79561  14.311  16.642  12.010
14335W        W79562   1.262  34.536  14.915
14336W        W79563  23.277  19.033  13.835
14337W        W79564  31.032  20.634  13.444
14338W        W79565  26.548   6.345  14.450
14339W        W79566   6.291  32.533   4.078
14340W        W79567  32.363  34.545  10.563
14341W        W79568  29.949  33.653  11.628
14342W        W79569  10.591  35.415   1.330
14343W        W79570  16.023  28.975  12.646
14344W        W79571  25.405   6.831  10.639
14345W        W79572  20.657   3.324  12.669
14346W        W79573  41.598  20.255   1.021
14347W        W79574  19.062  18.113  10.396
14348W        W79575   7.893   7.291   4.602
14349W        W79576  33.797  24.072  13.689
14350W        W79577  25.509   2.747   0.898
14351W        W79578   1.317  30.434  10.087
14352W        W79579  43.293   8.779   2.378
14353W        W79580   7.861  15.487  11.614
14354W        W79581  30.264  29.866   4.806
14355W        W79582  14.872  38.018  14.397
14356W        W79583  23.520  18.684  14.134
14357W        W79584  22.588  21.609   3.944
14358W        W79585  26.965  26.920  11.955
14359W        W79586  15.949   2.764   2.022
14360W        W79587  14.140  40.089   3.327
14361W        W79588  18.510  35.386  13.049
14362W        W79589  41.240  28.240   3.538
14363W        W79590  10.114   9.851   2.540
14364W        W79591  25.999  25.761   1.272
14365W        W79592  26.227  26.494  14.376
14366W        W79593   8.827   0.091  10.582
14367W        W79594   1.363   7.401   1.337
14368W        W79595  11.734  18.046  13.330
14369W        W79596   1.248   9.534   2.646
14370W        W79597  24.634  20.943   1.753
14371W        W79598  17.716  23.461  14.571
14372W        W79599  21.147  35.584  13.558
14373W        W79600  36.881  15.886  14.344
14374W        W79601  35.442  32.511   1.370
14375W        W79602  28.095  31.341   3.222
14376W        W79603  26.000  41.726   4.659
14377W        W79604  23.413   7.623  14.561
14378W        W79605  17.264  34.623   2.677
14379W        W79606  15.793  19.300   2.656
14380W        W79607  35.297   5.626   0.977
14381W        W79608  29.153  31.919   3.687
14382W        W79609  38.378  18.788   1.903
14383W        W79610  26.429  44.308   4.626
14384W        W79611   4.456   1.198  14.027
14385W        W79612  44.543   7.146   1.836
14386W        W79613  15.833  28.001  13.750
14387W        W79614   4.153  41.460   0.783
14388W        W79615  11.705  20.112   3.274
14389W        W79616  38.885   1.073   1.903
14390W        W79617  26.904   9.249  10.754
14391W        W79618  26.160  10.573  11.215
14392W        W79619  29.529   0.233   0.286
14393W        W79620  33.069  15.415  11.361
14394W        W79621   3.893  22.379   0.284
14395W        W79622  12.451  20.063  12.960
14396W        W79623  35.138   0.412   2.323
14397W        W79624  24.238   1.381   3.577
14398W        W79625   5.406  44.953   2.448
14399W        W79626   5.211  16.998   5.390
14400W        W79627  22.237  43.935   3.669
14401W        W79628  38.542  14.090  12.938
14402W        W79629  21.947  19.033   4.658
14403W        W79630   9.205  32.125   3.851
14404W        W79631  38.093  44.332  11.178
14405W        W79632   1.151  21.568   0.555
14406W        W79633  30.107   0.582  14.377
14407W        W79634  34.109  42.014   2.098
14408W        W79635  12.607   4.856   4.168
14409W        W79636  40.758  23.274   3.751
14410W        W79637  37.372  42.849   3.610
14411W        W79638  34.430  12.262   0.781
14412W        W79639  16.988  34.184   5.024
14413W        W79640  13.711  18.284  11.532
14414W        W79641   3.822  34.328   0.008
14415W        W79642  19.517  20.817   3.670
14416W        W79643  33.563  21.167  10.787
14417W        W79644  12.895  13.066   0.336
14418W        W79645  38.185  28.671   1.500
14419W        W79646  13.554  15.850   1.751
14420W        W79647  22.611  25.665  14.374
14421W        W79648  11.209   5.847  13.524
14422W        W79649  42.369   0.444   0.877
14423W        W79650   0.274   1.488  13.607
14424W        W79651  14.273  38.157  12.579
14425W        W79652  34.068  11.300   3.219
14426W        W79653  31.562  17.982   2.321
14427W        W79654  32.563  11.721  13.076
14428W        W79655  29.695  43.423   1.949
14429W        W79656  12.112   5.747   4.308
14430W        W79657  32.916  40.311  14.348
14431W        W79658  32.002  28.780  14.291
14432W        W79659  15.306  38.095   0.882
14433W        W79660  34.863  16.062  13.883
14434W        W79661   3.432   9.095   3.801
14435W        W79662  21.343  21.025  12.477
14436W        W79663  28.943  20.193   1.699
14437W        W79664  44.537  44.600  11.475
14438W        W79665   8.935   1.728   3.754
14439W        W79666   0.781  20.697   0.364
14440W        W79667  15.590  19.627  11.231
14441W        W79668  41.212  15.608   0.778
14442W        W79669  24.242  29.606  11.417
14443W        W79670  15.217   6.608  14.952
14444W        W79671  23.253   5.926   4.676
14445W        W79672  39.134  26.629   2.772
14446W        W79673   0.380  19.498  13.409
14447W        W79674  27.089  17.632   4.181
14448W        W79675  19.205  26.846  13.265
14449W        W79676  35.773  44.358  12.492
14450W        W79677   2.986   2.986   0.745
14451W        W79678  28.517  16.326  13.253
14452W        W79679   1.409  13.979   4.264
14453W        W79680   6.186  18.088  12.047
14454W        W79681  10.278  20.187   2.838
14455W        W79682  13.544  19.868   1.734
14456W        W79683  13.643  16.283   0.794
14457W        W79684  25.489   3.982   2.764
14458W        W79685  23.483   1.251  13.360
14459W        W79686  40.178  19.655   4.860
14460W        W79687   5.422  41.496   4.194
14461W        W79688  26.184  14.290  14.757
14462W        W79689  32.164   5.687   2.470
14463W        W79690  13.455  31.686  11.304
14464W        W79691   2.415   4.928   0.522
14465W        W79692   8.198  35.778  14.025
14466W        W79693   9.666  27.483   3.713
14467W        W79694  25.245  24.032   4.159
14468W        W79695   3.228  43.006   2.783
14469W        W79696  41.763  34.573   0.361
14470W        W79697  14.696  24.023  12.934
14471W        W79698  36.066  21.338   3.247
14472W        W79699   3.123  35.073   1.854
14473W        W79700  36.881   2.543   2.078
14474W        W79701  21.951  30.507   1.775
14475W        W79702   7.354  25.397   0.214
14476W        W79703  12.341   2.943  13.854
14477W        W79704  10.312  34.601  13.935
14478W        W79705   6.741  43.575   9.978
14479W        W79706  20.987   9.754   0.121
14480W        W79707  16.045  31.121   0.669
14481W        W79708  20.875  16.011   0.741
14482W        W79709  44.209   0.894  12.988
14483W        W79710  25.105  31.545  13.810
14484W        W79711  42.893   3.591  12.354
14485W        W79712  23.590   1.883  14.832
14486W        W79713   7.244  39.754   4.499
14487W        W79714  12.928  38.252   1.309
14488W        W79715  20.099  27.046  12.859
14489W        W79716  11.695   1.193   2.189
14490W        W79717  33.920  44.495   0.762
14491W        W79718   3.455  11.709  10.699
14492W        W79719   2.740  11.894   4.643
14493W        W79720  13.063  27.825   4.998
14494W        W79721  16.127  41.061   4.757
14495W        W79722  43.753  19.805   2.757
14496W        W79723  43.573  39.089  10.739
14497W        W79724  24.569   1.889   0.493
14498W        W79725  22.472  17.566   3.265
14499W        W79726  16.612  15.486  13.875
14500W        W79727  32.567  33.824   3.872
14501W        W79728   9.354  12.758   3.599
14502W        W79729  37.491  25.633   1.034
14503W        W79730  33.928  11.859  13.507
14504W        W79731  29.235   2.273   3.698
14505W        W79732  36.618  13.658   4.658
14506W        W79733  25.758   9.151  11.982
14507W        W79734   4.077  26.128  12.416
14508W        W79735  30.437  43.405  12.017
14509W        W79736  32.405  35.596   0.816
14510W        W79737  18.234  22.455  13.385
14511W        W79738  16.760  10.679  12.519
14512W        W79739  40.929   4.453   0.752
14513W        W79740  22.328  17.056   2.336
14514W        W79741  32.832  15.143  11.846
14515W        W79742  21.804   1.912  13.580
14516W        W79743  15.602  34.867   4.663
14517W        W79744  15.871  27.201   0.808
14518W        W79745   9.842  37.286  13.766
14519W        W79746  23.728  38.370  11.571
14520W        W79747  17.203  43.810  10.853
14521W        W79748   5.156   7.642   2.767
14522W        W79749   3.866  10.211  13.859
14523W        W79750  38.335  29.335  14.429
14524W        W79751   6.690   3.891  13.205
14525W        W79752  34.161  27.449  11.097
14526W        W79753  14.599  32.554   4.627
14527W        W79754  35.349  15.127   3.847
14528W        W79755  28.828  28.507  13.224
14529W        W79756   8.021   1.845   0.896
14530W        W79757  33.368  12.510   3.264
14531W        W79758   5.434   3.443   2.984
14532W        W79759  15.135  29.063  11.092
14533W        W79760  39.983  19.319   4.537
14534W        W79761  41.152  32.427   3.242
14535W        W79762  39.609  19.230  13.237
14536W        W79763  34.939  41.456  14.438
14537W        W79764  11.264  18.882   0.303
14538W        W79765  30.388  24.134   1.905
14539W        W79766  29.325  37.544  12.587
14540W        W79767   4.348  22.750   3.788
14541W        W79768  25.472  13.315  10.985
14542W        W79769  18.069  15.553   3.779
14543W        W79770  37.487  25.958  14.447
14544W        W79771  40.281  37.545  13.978
14545W        W79772  24.460  19.583   1.884
14546W        W79773  11.524  30.187  12.962
14547W        W79774  22.530  30.631  14.366
14548W        W79775  19.798  14.877   2.380
14549W        W79776  13.748  16.826   4.237
14550W        W79777  43.426  32.956  13.961
14551W        W79778  22.279   4.199  13.811
14552W        W79779   0.765   8.736   3.609
14553W        W79780  11.722  12.361   2.812
14554W        W79781   2.646  18.827   2.647
14555W        W79782  11.244   1.299  14.869
14556W        W79783  42.959  30.028  11.637
14557W        W79784  38.301  28.172  13.983
14558W        W79785   7.458   9.150   2.114
14559W        W79786  28.781   4.851   4.220
14560W        W79787  37.838  31.378   3.274
14561W        W79788  33.296  31.424  14.879
14562W        W79789  31.719  24.269   4.720
14563W        W79790   4.560  17.299   0.946
14564W        W79791  38.370  10.284  12.960
14565W        W79792  35.351  38.091  11.051
14566W        W79793  16.565   6.183   1.464
14567W        W79794  11.066  31.024   3.178
14568W        W79795   9.703  37.004   2.436
14569W        W79796   9.783  14.123   1.434
14570W        W79797  41.733  34.462  11.635
14571W        W79798   0.234   7.146  14.508
14572W        W79799   0.397   1.313  14.097
14573W        W79800   3.911   5.082  10.131
14574W        W79801   8.906  29.671   2.286
14575W        W79802  36.889  30.353   4.150
14576W        W79803   0.450   1.779   2.394
14577W        W79804  10.700  30.665   3.076
14578W        W79805  17.945  33.877   4.179
14579W        W79806  10.818   9.719  14.541
14580W        W79807   4.756  18.108   2.813
14581W        W79808   0.218  17.334  12.409
14582W        W79809  14.847   7.694  14.035
14583W        W79810  33.395  37.909  14.563
14584W        W79811  20.684  37.789   0.823
14585W        W79812  18.721  14.323   5.215
14586W        W79813  12.396  44.229   0.449
14587W        W79814  40.358  21.140  13.502
14588W        W79815  28.726   4.770   2.796
14589W        W79816  27.822  28.138  13.459
14590W        W79817  21.083  34.639  10.778
14591W        W79818  11.074   1.259  13.067
14592W        W79819  36.576  11.356  13.421
14593W        W79820  14.160   0.785   0.233
14594W        W79821  20.173  42.239  12.190
14595W        W79822   2.993  20.115  11.147
14596W        W79823  14.322  32.943   1.878
14597W        W79824  26.631   7.622  12.068
14598W        W79825  30.493  35.099   3.346
14599W        W79826  22.598   2.356  14.907
14600W        W79827  44.444  32.713   4.314
14601W        W79828  28.217   1.616  13.504
14602W        W79829  12.228  39.990  12.550
14603W        W79830  35.867  36.087  14.331
14604W        W79831  26.140   7.373  10.839
14605W        W79832  37.339  27.545  14.277
14606W        W79833   3.742  32.609  13.330
14607W        W79834  21.065  27.272   4.597
14608W        W79835  20.741  37.832   3.342
14609W        W79836  35.923  24.400   3.733
14610W        W79837  43.531  44.127  14.049
14611W        W79838  44.742   8.821  14.357
14612W        W79839  14.339   0.202  11.634
14613W        W79840  25.955   0.676   5.504
14614W        W79841  15.403  34.594  11.084
14615W        W79842  10.984   5.415   2.802
14616W        W79843   9.906   1.738  12.613
14617W        W79844  34.682  38.685   2.171
14618W        W79845  10.898  30.601  11.067
14619W        W79846  34.331   3.241  13.896
14620W        W79847  10.821  43.333  11.651
14621W        W79848  35.043  38.324  10.669
14622W        W79849  13.274  31.623  10.799
14623W        W79850  14.575  19.962  11.192
14624W        W79851  39.849  25.785   3.140
14625W        W79852  34.601  11.743   0.770
14626W        W79853  13.243  36.529   1.365
14627W        W79854  42.335  25.607  12.903
14628W        W79855  37.777   7.524  10.896
14629W        W79856  21.999   5.358   0.866
14630W        W79857  40.482  28.151  12.586
14631W        W79858  29.537  43.898   1.782
14632W        W79859   4.915  14.471   0.233
14633W        W79860  24.087  22.975  10.625
14634W        W79861  38.891  41.684   3.213
14635W        W79862  20.834  26.755  14.119
14636W        W79863  43.871   8.637  14.445
14637W        W79864  25.680  10.609   1.839
14638W        W79865   7.194  29.048  12.455
14639W        W79866   3.426   8.646  13.025
14640W        W79867  39.117   8.758  14.348
14641W        W79868   2.967  29.743  12.024
14642W        W79869  10.654   1.936  14.902
14643W        W79870  39.678  17.850  12.994
14644W        W79871  35.164  38.692  13.151
14645W        W79872   4.331  12.683   0.397
14646W        W79873  37.873  23.024  12.518
14647W        W79874   1.975  23.003  11.981
14648W        W79875  12.622  19.317  10.667
14649W        W79876  12.932  31.121   2.023
14650W        W79877  12.990  35.923   1.707
14651W        W79878  26.100   0.934  12.695
14652W        W79879  10.679  33.245  11.306
14653W        W79880  19.659  30.659   4.948
14654W        W79881  15.719  38.923  14.012
14655W        W79882   0.498  35.028  13.948
14656W        W79883   7.474  22.916  14.726
14657W        W79884  17.412   6.739  13.698
14658W        W79885   0.465  38.106  12.148
14659W        W79886  32.585  26.767   3.267
14660W        W79887  22.991  14.678  10.660
14661W        W79888  31.033  39.826   0.343
14662W        W79889   1.434  14.361  11.306
14663W        W79890  37.319  13.170   0.193
14664W        W79891   4.659  40.400  14.719
14665W        W79892   5.818  34.885  12.946
14666W        W79893  20.808  38.073  13.972
14667W        W79894  37.058  28.617   4.682
14668W        W79895  13.247   7.754   3.785
14669W        W79896  38.908  22.669  10.528
14670W        W79897  29.055  41.459  11.934
14671W        W79898  28.683  30.011   3.742
14672W        W79899   0.051   1.388   4.543
14673W        W79900  19.248  14.466   3.822
14674W        W79901  32.440  28.072   2.725
14675W        W79902  13.560  17.743   0.865
14676W        W79903   9.741  31.633   2.275
14677W        W79904  18.231  33.986   0.381
14678W        W79905   5.669   6.372   3.276
14679W        W79906  42.799  20.864   5.034
14680W        W79907  39.391  37.518  13.963
14681W        W79908   1.256  14.311   2.365
14682W        W79909  18.540  40.104  12.887
14683W        W79910  41.227  42.162  14.420
14684W        W79911   5.118   6.034   5.092
14685W        W79912  20.586  22.684  10.795
14686W        W79913  38.169  13.979   1.869
14687W        W79914  35.927  32.170  13.632
14688W        W79915  29.176  30.400   2.316
14689W        W79916  30.557  31.886  13.189
14690W        W79917  36.327  14.079   4.654
14691W        W79918  23.718  28.753  11.131
14692W        W79919   9.386  30.576   2.192
14693W        W79920  33.633  21.982   2.475
14694W        W79921  41.471  38.355  12.402
14695W        W79922  38.806   3.761  14.598
14696W        W79923  15.328  24.280   4.093
14697W        W79924  20.604  43.239  10.383
14698W        W79925  10.327  17.373   1.227
14699W        W79926  13.199  21.869   4.624
14700W        W79927  28.952  32.555   0.325
14701W        W79928  19.614  25.617   1.511
14702W        W79929   2.686  18.228   3.220
14703W        W79930  22.110  26.100   2.179
14704W        W79931  41.950  30.872   4.812
14705W        W79932  24.988  38.969   2.448
14706W        W79933  22.487  36.809  12.390
14707W        W79934  40.060  13.676   0.462
14708W        W79935   7.465   5.424   4.104
14709W        W79936   3.600  40.053  12.634
14710W        W79937  38.895  30.230   0.107
14711W        W79938  27.110  37.550  13.360
14712W        W79939   3.362  32.923  12.485
14713W        W79940   9.101  40.927  13.906
14714W        W79941  19.092  13.053  12.952
14715W        W79942  25.528   4.487   1.427
14716W        W79943   6.760  32.918  11.471
14717W        W79944  35.341  27.278   4.744
14718W        W79945  17.581   9.892  12.988
14719W        W79946  14.300  33.412  12.491
14720W        W79947  33.846  35.230  13.916
14721W        W79948  16.996  39.075  12.562
14722W        W79949  34.521  37.809   1.352
14723W        W79950  34.164  23.633   3.441
14724W        W79951  12.266  39.150  11.249
14725W        W79952  30.793  17.391  10.262
14726W        W79953  25.414  38.911  13.572
14727W        W79954  15.521  24.733  12.431
14728W        W79955   7.861  41.249  10.652
14729W        W79956  30.093  24.393   0.304
14730W        W79957  19.389  22.543  11.185
14731W        W79958  31.204  31.203  13.312
14732W        W79959  32.508   6.589  11.771
14733W        W79960  22.283   5.338  12.029
14734W        W79961  36.123  24.225  12.914
14735W        W79962  43.519  30.876   1.904
14736W        W79963  27.708   0.886  12.627
14737W        W79964  30.967  42.433   2.441
14738W        W79965  24.592  28.074   2.765
14739W        W79966   5.404  38.448  13.054
14740W        W79967   0.762  39.306  10.573
14741W        W79968  25.096  25.739   3.389
14742W        W79969  22.732   4.373   0.249
14743W        W79970  30.235  28.137  13.472
14744W        W79971  38.454  16.291   3.436
14745W        W79972  40.873  26.112  14.224
14746W        W79973   0.435  17.090   4.659
14747W        W79974  23.726  13.350   3.677
14748W        W79975  40.390  11.084  11.168
14749W        W79976  11.487   2.671  14.969
14750W        W79977   6.744  33.439   1.708
14751W        W79978  22.589  28.747   1.314
14752W        W79979  13.982  13.861  13.913
14753W        W79980  18.755  34.331   3.810
14754W        W79981  42.934  28.015  10.324
14755W        W79982   0.183   6.900   2.672
14756W        W79983  31.536   7.211   2.160
14757W        W79984   1.857  22.756   1.192
14758W        W79985  40.050  39.218  13.789
14759W        W79986   6.967  15.764   2.290
14760W        W79987  30.149  25.619   0.969
14761W        W79988  12.754   0.922   0.258
14762W        W79989  39.649  35.423  12.196
14763W        W79990   0.680  43.401   1.383
14764W        W79991  30.407  24.449   1.463
14765W        W79992  26.944  31.207  10.649
14766W        W79993  10.551  24.503   3.802
14767W        W79994  30.198  22.751  13.267
14768W        W79995  38.375  25.633   0.436
14769W        W79996  44.263  39.274   2.227
14770W        W79997  14.167  42.999  13.944
14771W        W79998  11.744  18.139   0.785
14772W        W79999  44.826  14.557   0.845
14773W        W80000  25.566   6.216   0.276
14774W        W80001  34.799   0.769   1.590
14775W        W80002  34.114  44.557   0.260
14776W        W80003  23.261  24.140   3.769
14777W        W80004   6.654  43.658  11.664
14778W        W80005  16.549  19.590  12.466
14779W        W80006  15.035  44.908   1.738
14780W        W80007  14.356  18.826  11.499
14781W        W80008  11.884  17.168  13.519
14782W        W80009  42.403  34.464   4.837
14783W        W80010  31.756   5.880   4.562
14784W        W80011  30.998  32.661  12.010
14785W        W80012  24.307   4.699  13.379
14786W        W80013  21.718  27.144  11.116
14787W        W80014  36.566  27.681   2.405
14788W        W80015  30.432  32.641  12.524
14789W        W80016  39.494  30.512  10.817
14790W        W80017  17.180  26.748   1.684
14791W        W80018  22.124  28.146   2.342
14792W        W80019  13.672  22.174  12.438
14793W        W80020  40.886  23.452   4.439
14794W        W80021  21.517  17.542  12.698
14795W        W80022  34.542  22.580   0.079
14796W        W80023  26.417  38.095   2.866
14797W        W80024  20.989  39.347  14.977
14798W        W80025   4.935  42.883   2.721
14799W        W80026  38.612  13.186  12.920
14800W        W80027  11.928   4.818   0.773
14801W        W80028  11.657  24.024  11.562
14802W        W80029   2.676  37.737   1.221
14803W        W80030  37.851   3.264   0.379
14804W        W80031  18.724  19.658   1.720
14805W        W80032  17.587   1.797  10.463
14806W        W80033   4.246  29.861   2.746
14807W        W80034  36.162  27.914   0.961
14808W        W80035  42.922  41.719  14.613
14809W        W80036   9.662  17.288   4.169
14810W        W80037  35.846  34.446   2.241
14811W        W80038  35.669  29.562   0.265
14812W        W80039   4.453   3.498   1.092
14813W        W80040  18.754  24.092   3.337
14814W        W80041   5.420   6.925   9.968
14815W        W80042  43.160  10.763   0.900
14816W        W80043  23.045  38.396   1.832
14817W        W80044  31.932  30.617   2.973
14818W        W80045  36.474  23.685   0.778
14819W        W80046   5.817  11.214   1.029
14820W        W80047  30.934  28.969   2.916
14821W        W80048  32.126  41.354  12.019
14822W        W80049  17.527   3.302   4.107
14823W        W80050   3.482  37.472   3.747
14824W        W80051  33.136  13.664   1.430
14825W        W80052  33.114   9.444   4.211
14826W        W80053   0.850  40.198  11.507
14827W        W80054  24.657  17.795  11.216
14828W        W80055   4.673  34.850   4.652
14829W        W80056  41.626   4.054  11.169
14830W        W80057  21.103  37.441  12.381
14831W        W80058  36.608  39.601  12.552
14832W        W80059  23.055   8.708  13.357
14833W        W80060  31.914  44.796   1.256
14834W        W80061  40.928  39.676  14.511
14835W        W80062  12.299  23.265  14.071
14836W        W80063   1.253  19.017  11.133
14837W        W80064  26.082  25.843  14.989
14838W        W80065  38.854  33.026   2.157
14839W        W80066  15.131   4.632  13.852
14840W        W80067  10.571   9.755   2.769
14841W        W80068  10.233  33.922  14.787
14842W        W80069  18.621  31.156   4.157
14843W        W80070   5.999  28.241   4.641
14844W        W80071  13.281  30.275  12.519
14845W        W80072  17.210  15.747   1.756
14846W        W80073   4.454   4.700   4.473
14847W        W80074  36.293  44.381   0.767
14848W        W80075   3.047  26.677   2.376
14849W        W80076   1.850  28.703   2.205
14850W        W80077  31.482  13.549  12.145
14851W        W80078  23.283   3.328   3.046
14852W        W80079   6.243  18.064  14.078
14853W        W80080  43.327  33.156  11.474
14854W        W80081  16.106  34.029   2.888
14855W        W80082  30.927  33.062  11.164
14856W        W80083  25.964   2.068  14.015
14857W        W80084   6.230   0.844   1.375
14858W        W80085   9.703  20.002   4.641
14859W        W80086  37.990  33.500   0.343
14860W        W80087  27.073  41.954   3.698
14861W        W80088  17.109  40.581   1.795
14862W        W80089  12.287  12.010   3.409
14863W        W80090  17.035  42.683  14.335
14864W        W80091   0.239  25.191   3.046
14865W        W80092  43.456  22.176   1.194
14866W        W80093   4.249  11.968   4.138
14867W        W80094  37.313  38.565  11.977
14868W        W80095   4.894   6.159   3.837
14869W        W80096   4.373  38.952  13.637
14870W        W80097  32.552  18.308   3.196
14871W        W80098  17.051  42.984  12.452
14872W        W80099  17.291  31.700   4.285
14873W        W80100  31.030  44.250  11.140
14874W        W80101  19.643  13.730  13.803
14875W        W80102  11.834  14.669  12.154
14876W        W80103  34.570  12.799   0.054
14877W        W80104  44.841  44.998  14.349
14878W        W80105  29.676  36.840   1.874
14879W        W80106   2.313   4.974  12.160
14880W        W80107  41.784  44.445  10.722
14881W        W80108  21.733   3.663  10.668
14882W        W80109  31.767  35.367   1.654
14883W        W80110  17.169  36.994   2.780
14884W        W80111   0.156  18.693  13.313
14885W        W80112  34.955  37.381  10.796
14886W        W80113  13.679  19.852  13.353
14887W        W80114  30.943  31.423   0.918
14888W        W80115  22.041  18.074  14.540
14889W        W80116  34.404  10.404  10.798
14890W        W80117  33.027  20.038  14.166
14891W        W80118  21.063   3.356  11.861
14892W        W80119  14.358  37.454  12.936
14893W        W80120  30.501  29.238   4.701
14894W        W80121   5.213  42.302  12.146
14895W        W80122  42.041   1.734   3.054
14896W        W80123  11.453   7.689   3.903
14897W        W80124  17.098  36.028  14.039
14898W        W80125   3.231  19.546   3.775
14899W        W80126  39.680   6.738   1.533
14900W        W80127   3.954  13.700  10.703
14901W        W80128  29.716  34.586   4.255
14902W        W80129  16.155  33.640   3.669
14903W        W80130  42.842  15.726  11.522
14904W        W80131   0.163  26.677   1.393
14905W        W80132   6.951  31.621   4.951
14906W        W80133  42.970   7.882   3.782
14907W        W80134  40.592  22.885  12.026
14908W        W80135  43.906   9.581  14.331
14909W        W80136  35.561   8.838  11.585
14910W        W80137  20.127   7.097   4.166
14911W        W80138  26.257   8.860   2.650
14912W        W80139  36.898  40.632   0.886
14913W        W80140  34.884  27.587   3.414
14914W        W80141  24.618  19.689  13.994
14915W        W80142   7.135   9.406   0.771
14916W        W80143  20.111  39.038   3.546
14917W        W80144  25.636   8.245  10.990
14918W        W80145  16.112  20.816  12.676
14919W        W80146  11.537  30.839   3.256
14920W        W80147  21.756   5.255  12.900
14921W        W80148  13.131   5.683   4.260
14922W        W80149  25.749   5.921  11.509
14923W        W80150   0.834  33.661  11.212
14924W        W80151  23.979  19.880  14.763
14925W        W80152  37.418  44.043   3.591
14926W        W80153  29.958  42.690  14.814
14927W        W80154  21.196  35.561  10.589
14928W        W80155   9.858  17.113   3.717
14929W        W80156  35.422   6.616  14.987
14930W        W80157  37.625  23.560  11.500
14931W        W80158   4.371  20.061   4.482
14932W        W80159  39.960  26.722  10.449
14933W        W80160  12.729   6.515  11.071
14934W        W80161  34.611  39.362  13.463
14935W        W80162  44.428   7.915  14.491
14936W        W80163  40.509  41.931   1.504
14937W        W80164  21.576  26.613  10.138
14938W        W80165   4.243  31.570   1.665
14939W        W80166  25.552  37.647  12.008
14940W        W80167  23.220  14.911   1.276
14941W        W80168   5.276  18.251   4.618
14942W        W80169   5.100  15.913   2.850
14943W        W80170  10.273  27.957  12.893
14944W        W80171   5.025  24.900   4.582
14945W        W80172   9.900  44.469  10.558
14946W        W80173  12.896  25.679   1.884
14947W        W80174   7.151  39.822  10.675
14948W        W80175  41.567  21.862  10.800
14949W        W80176   6.184  32.196   3.024
14950W        W80177  11.073  28.731   2.499
14951W        W80178  15.753  32.850  11.132
14952W        W80179   3.993  21.666  10.626
14953W        W80180  31.163   3.771   2.270
14954W        W80181  33.914  32.593   0.659
14955W        W80182  17.783  30.493  10.950
14956W        W80183  28.455  13.433  12.000
14957W        W80184  20.169   4.971  12.587
14958W        W80185  36.503  30.514   2.367
14959W        W80186  11.854   4.598  12.599
14960W        W80187  11.245  25.412   0.064
14961W        W80188  19.705  27.623   0.800
14962W        W80189  36.840  12.670   2.312
14963W        W80190   4.076   6.749  13.899
14964W        W80191  16.682  33.043   3.093
14965W        W80192  35.322  36.409   0.023
14966W        W80193  10.947  12.131  14.317
14967W        W80194  28.282  28.943   1.803
14968W        W80195  18.392  39.978  10.721
14969W        W80196  42.290   0.922  11.604
14970W        W80197  34.118  32.926  14.914
14971W        W80198   3.636  28.487   1.132
14972W        W80199   6.099  23.310   1.270
14973W        W80200  13.147  15.575  10.608
14974W        W80201  21.039  13.762   0.173
14975W        W80202  22.981  37.446   4.069
14976W        W80203  15.141  18.643   2.189
14977W        W80204   6.923  31.861  14.889
14978W        W80205  44.273  29.295   2.783
14979W        W80206   0.351  34.372  11.024
14980W        W80207  20.369   5.029   2.752
14981W        W80208  25.051  17.108   3.138
14982W        W80209  39.862  35.940   2.904
14983W        W80210  22.490   9.768   0.252
14984W        W80211  39.411  16.742   2.915
14985W        W80212  12.336  26.473   1.897
14986W        W80213  19.169  10.784   1.715
14987W        W80214  29.073  36.983   5.762
14988W        W80215  39.880  44.418  12.909
14989W        W80216  10.838  36.629   1.791
14990W        W80217  27.564  27.164   5.747
14991W        W80218  10.598  21.144  12.995
14992W        W80219  28.898   4.939  11.479
14993W        W80220  35.917  32.434  12.288
14994W        W80221   5.246   2.768  11.833
14995W        W80222  41.945  36.822  10.851
14996W        W80223   5.205  21.850  12.721
14997W        W80224   0.738  12.860   0.463
14998W        W80225   5.452  26.157  10.982
14999W        W80226   0.177   7.490  14.951
15000W        W80227  35.387  16.695  13.521
15001W        W80228   8.177   9.258  11.821
15002W        W80229  44.032  11.427   2.289
15003W        W80230  20.221   5.655   3.617
15004W        W80231  18.378  15.837  14.363
15005W        W80232  24.652  16.285   0.593
15006W        W80233  41.506  41.460  10.560
15007W        W80234   8.604  10.258   0.267
15008W        W80235  29.188  27.552   0.155
15009W        W80236  38.604  14.825   1.287
15010W        W80237   4.014   1.226  13.752
15011W        W80238   2.822   3.375  13.392
15012W        W80239  26.028  31.275  10.721
15013W        W80240  14.528   8.587  12.022
15014W        W80241  41.576  10.382   0.939
15015W        W80242  27.885  23.087  10.673
15016W        W80243   8.914  43.884  11.135
15017W        W80244  15.650  15.268  14.762
15018W        W80245  37.294  26.152  10.408
15019W        W80246  14.324  34.275  10.661
15020W        W80247  15.258  33.877   5.369
15021W        W80248  20.285  38.201   3.764
15022W        W80249  31.185   7.290   4.099
15023W        W80250   1.044  14.581  14.070
15024W        W80251   5.669  25.454   0.533
15025W        W80252  28.143   3.866   0.808
15026W        W80253  31.823  34.126  11.601
15027W        W80254  35.887   7.440  10.769
15028W        W80255  23.623  11.111   4.124
15029W        W80256  14.677   4.549  12.498
15030W        W80257  28.506  32.828  14.923
15031W        W80258   7.871  11.255  14.398
15032W        W80259  15.849  28.172  11.119
15033W        W80260  41.800  27.220   1.422
15034W        W80261   1.193  25.960  10.901
15035W        W80262  26.108  33.283   0.928
15036W        W80263  44.738  30.918   1.273
15037W        W80264   0.728   9.313   1.734
15038W        W80265   8.924  42.475   4.287
15039W        W80266  28.444   8.413  14.301
15040W        W80267  42.742  26.110   4.888
15041W        W80268   1.719  25.547   3.221
15042W        W80269  25.041  41.251  12.468
15043W        W80270  32.460  25.661   4.793
15044W        W80271  10.663  13.723   1.676
15045W        W80272   0.271   2.363   2.251
15046W        W80273   4.650  30.520  14.729
15047W        W80274  42.787  41.783   4.054
15048W        W80275  31.191  28.382  11.564
15049W        W80276   2.738  16.718   1.576
15050W        W80277  30.859   0.039   2.208
15051W        W80278   9.743  20.367   2.933
15052W        W80279  24.660  21.737   3.205
15053W        W80280  38.665  34.859  10.854
15054W        W80281  17.690  27.599  10.627
15055W        W80282  40.947  41.037  11.635
15056W        W80283   7.711  10.040  10.699
15057W        W80284  38.314  34.664  11.976
15058W        W80285  24.422  17.267  11.237
15059W        W80286  40.970  33.877   2.869
15060W        W80287  30.886  10.279   4.741
15061W        W80288  38.534   5.842   0.579
15062W        W80289  15.143  17.545  14.475
15063W        W80290  29.395  20.059  10.683
15064W        W80291  26.410   4.661   2.013
15065W        W80292  18.162   2.444   2.663
15066W        W80293   6.220  30.476   2.064
15067W        W80294  27.226  41.547  13.249
15068W        W80295  22.086   6.921  14.037
15069W        W80296  19.652  28.142  14.500
15070W        W80297  42.006  39.016   1.322
15071W        W80298  33.407  19.726  13.424
15072W        W80299  35.180  27.549  11.143
15073W        W80300  13.551  20.111   0.990
15074W        W80301   1.924  30.936   2.743
15075W        W80302  42.909  12.554  10.854
15076W        W80303  16.824  13.279  12.960
15077W        W80304  32.383  19.860  11.522
15078W        W80305  11.669   6.984   2.257
15079W        W80306  14.005  16.130   1.937
15080W        W80307  38.067   8.730   2.952
15081W        W80308  44.702  20.267   0.539
15082W        W80309  17.244  12.843   0.582
15083W        W80310  29.106  33.878  13.482
15084W        W80311   5.975  44.780  14.654
15085W        W80312  27.555  41.397  12.011
15086W        W80313  23.908   5.389   4.228
15087W        W80314  32.223  11.558   2.689
15088W        W80315  10.720   6.758  13.062
15089W        W80316   3.691  20.059   3.344
15090W        W80317  33.115  29.195  10.735
15091W        W80318  29.105  16.242  13.392
15092W        W80319   7.423  27.995   1.819
15093W        W80320   2.032  22.567  12.237
15094W        W80321  28.656  36.921   0.967
15095W        W80322  10.924   2.156   0.880
15096W        W80323  19.639  43.591   4.459
15097W        W80324   7.780  30.872   0.601
15098W        W80325  37.901   3.967  13.036
15099W        W80326  31.226  26.124   1.570
15100W        W80327  13.060  23.112   0.744
15101W        W80328  42.508  18.606  13.135
15102W        W80329  29.981  43.968   3.050
15103W        W80330  32.932  19.267  11.534
15104W        W80331  18.566  24.840  14.286
15105W        W80332  37.357   9.115   3.162
15106W        W80333   5.232   7.841   4.613
15107W        W80334  37.010  27.511   2.163
15108W        W80335   3.809  20.760   4.550
15109W        W80336  13.807  32.097   4.955
15110W        W80337   7.788   6.695   1.491
15111W        W80338  34.589   1.798  13.343
15112W        W80339  37.970  31.606  10.723
15113W        W80340  21.084   1.387   1.958
15114W        W80341  28.562  38.233  11.964
15115W        W80342   2.236  13.647   0.442
15116W        W80343  27.917  29.072   2.557
15117W        W80344  20.796  16.152   1.950
15118W        W80345  19.521   1.919   0.690
15119W        W80346  41.882  25.757  12.554
15120W        W80347  21.976  17.563  14.393
15121W        W80348  44.348  42.334   2.922
15122W        W80349  19.118   4.296  14.037
15123W        W80350  13.184  37.002  12.918
15124W        W80351  30.609  38.507   0.503
15125W        W80352  29.054  32.870   4.172
15126W        W80353  16.744   0.346   0.515
15127W        W80354  25.490  27.592   1.590
15128W        W80355  29.973  15.736  12.776
15129W        W80356  13.597  35.359   3.716
15130W        W80357  29.082  31.887  14.346
15131W        W80358  25.290   4.500  13.737
15132W        W80359   0.158  42.572  11.043
15133W        W80360  23.138   4.886  10.730
15134W        W80361  14.558  35.839  12.608
15135W        W80362   1.896  41.849   0.427
15136W        W80363  24.250   5.445   1.307
15137W        W80364   6.432  25.011   4.537
15138W        W80365  33.587   4.982  11.175
15139W        W80366  20.751  30.350  10.757
15140W        W80367  38.033   2.961  13.893
15141W        W80368  43.486  41.148   2.829
15142W        W80369   1.661  11.708  11.248
15143W        W80370  22.709  18.091   1.464
15144W        W80371  44.000  18.056  12.734
15145W        W80372  13.790   2.697  12.661
15146W        W80373  39.547  18.535  14.341
15147W        W80374  24.611  25.414   3.751
15148W        W80375   3.596   0.615  10.652
15149W        W80376  18.478  42.382   3.054
15150W        W80377  32.471  28.507  13.446
15151W        W80378  25.079  40.804   3.236
15152W        W80379  41.499  26.718  12.599
15153W        W80380   1.190  21.234   3.051
15154W        W80381  37.558   6.500  11.941
15155W        W80382  10.750   9.176  12.698
15156W        W80383  39.437  15.282  14.757
15157W        W80384   4.357  39.509  13.948
15158W        W80385  36.402  35.966  14.460
15159W        W80386  22.960  36.354  11.535
15160W        W80387  10.149  36.630   4.577
15161W        W80388  26.233  31.007   3.883
15162W        W80389  25.671   1.222  14.346
15163W        W80390   0.196  28.537   2.598
15164W        W80391  26.522  43.117  12.274
15165W        W80392   7.313   3.746  12.432
15166W        W80393   5.058  28.736   2.718
15167W        W80394  12.529  17.251   9.936
15168W        W80395  18.625   9.017  12.501
15169W        W80396  44.993  19.111   1.208
15170W        W80397  41.018  16.789   2.100
15171W        W80398  30.636  17.955  11.340
15172W        W80399   5.629  13.216  12.364
15173W        W80400   1.012  41.811   4.226
15174W        W80401  12.888  30.011  12.298
15175W        W80402  34.111  15.791   4.750
15176W        W80403  12.858  13.525  12.205
15177W        W80404  18.811   5.179   1.341
15178W        W80405  29.698  39.323  11.378
15179W        W80406  20.416  10.569   1.041
15180W        W80407  37.894  12.290   2.878
15181W        W80408  41.312  39.928  12.545
15182W        W80409  15.058   9.958  13.898
15183W        W80410   2.780  17.526  11.187
15184W        W80411  37.710  21.278   0.363
15185W        W80412   8.072   2.797  10.496
15186W        W80413  19.235   8.647  13.503
15187W        W80414  42.481  25.990   1.626
15188W        W80415  38.474  34.565  13.330
15189W        W80416   3.398  24.470   3.316
15190W        W80417  18.844   4.260   4.537
15191W        W80418  42.004  27.967  13.821
15192W        W80419  17.076  24.154  14.256
15193W        W80420  31.149   4.398  10.453
15194W        W80421  28.897   5.280  14.607
15195W        W80422   4.198  44.497  13.526
15196W        W80423   7.087   7.976  11.663
15197W        W80424  40.771   1.496  11.680
15198W        W80425  28.977   2.381   0.473
15199W        W80426   5.427  21.041   3.228
15200W        W80427  11.865  13.865  10.394
15201W        W80428  36.979  18.077   1.167
15202W        W80429   4.279  15.542   3.870
15203W        W80430  21.752  15.740  13.967
15204W        W80431  43.769  10.263  14.855
15205W        W80432  26.700  40.824   3.206
15206W        W80433   1.917  41.336  14.754
15207W        W80434   9.606  22.167  11.752
15208W        W80435  25.149  16.848  13.998
15209W        W80436  24.981  29.099   1.180
15210W        W80437  14.760  13.996   0.269
15211W        W80438  19.102  15.545  12.586
15212W        W80439  29.510  29.880  11.521
15213W        W80440  32.948   5.385   2.740
15214W        W80441  14.478  16.228   1.312
15215W        W80442  18.378  22.269  13.875
15216W        W80443  31.954  25.613   1.232
15217W        W80444  23.469  35.399   4.390
15218W        W80445  13.738   1.218  12.875
15219W        W80446  33.443  44.548   3.799
15220W        W80447  43.337  43.046   3.640
15221W        W80448  43.414  41.148   0.828
15222W        W80449   9.070  11.351   2.134
15223W        W80450  21.092  13.169  11.076
15224W        W80451  27.641  39.992  11.466
15225W        W80452  41.857   0.954  14.299
15226W        W80453  44.722  10.852   2.201
15227W        W80454   6.801  15.415  12.960
15228W        W80455  35.059  38.826  10.542
15229W        W80456  29.194  25.688   2.914
15230W        W80457  36.728  39.019   1.842
15231W        W80458  24.043  25.748   0.496
15232W        W80459  37.897  43.961  13.932
15233W        W80460  41.396  33.749   2.221
15234W        W80461  26.151  30.071  13.973
15235W        W80462  30.558  26.413  11.175
15236W        W80463  22.329  38.881   0.543
15237W        W80464  25.664  31.020   0.459
15238W        W80465  12.037   3.555  11.177
15239W        W80466   6.527  35.365   1.958
15240W        W80467   7.671  31.340  11.237
15241W        W80468  39.674  12.910   3.908
15242W        W80469  31.118  43.956  12.986
15243W        W80470   2.003  22.623   2.064
15244W        W80471  33.183  24.652   2.751
15245W        W80472  32.146   1.015  11.905
15246W        W80473  32.060  22.253   0.886
15247W        W80474  13.796   8.308   1.934
15248W        W80475  12.144  25.470  11.657
15249W        W80476  26.148  32.868  12.945
15250W        W80477   7.911   8.582  10.784
15251W        W80478   5.683  39.900   2.777
15252W        W80479  34.039  26.114  10.158
15253W        W80480   1.164   0.023  14.968
15254W        W80481  16.575  25.469  11.450
15255W        W80482  18.036   8.910  11.408
15256W        W80483  20.596  30.483   1.630
15257W        W80484  42.246  12.691  10.485
15258W        W80485   1.644  32.809   4.135
15259W        W80486  14.568  10.867  14.341
15260W        W80487  34.622  38.205   2.843
15261W        W80488   6.861   4.826  14.873
15262W        W80489   9.274   4.860   4.071
15263W        W80490  35.415  43.636   1.353
15264W        W80491  39.887  14.629   1.383
15265W        W80492   0.300   9.330  14.964
15266W        W80493  28.641   6.417   3.772
15267W        W80494  30.963  35.594   4.656
15268W        W80495   5.399   6.805   4.412
15269W        W80496   8.298   3.574   2.899
15270W        W80497  33.926  29.243  12.563
15271W        W80498  42.692  19.537   3.403
15272W        W80499  22.485  18.207   1.922
15273W        W80500  32.079  26.526   1.287
15274W        W80501  16.224  43.641  12.344
15275W        W80502  23.733   2.111   0.324
15276W        W80503  30.401  20.485  12.711
15277W        W80504  15.910  34.354   2.228
15278W        W80505  16.269  13.767   4.749
15279W        W80506   4.764   9.734   1.753
15280W        W80507  30.008  38.056   1.354
15281W        W80508  31.869   4.049   4.360
15282W        W80509  29.903   3.444   3.119
15283W        W80510  32.597  44.864   4.707
15284W        W80511   8.384  36.128   1.046
15285W        W80512  16.493  13.788   3.293
15286W        W80513  21.583   8.168  13.897
15287W        W80514  11.357  39.418  13.950
15288W        W80515  35.359  10.167   1.772
15289W        W80516   6.718  19.691  12.550
15290W        W80517   9.153  12.307  13.832
15291W        W80518  41.944  44.829   1.861
15292W        W80519   5.875  39.971   2.287
15293W        W80520  29.574  24.178   0.848
15294W        W80521  19.732  11.372  11.923
15295W        W80522  21.015   7.704   1.933
15296W        W80523  10.347  18.714  10.903
15297W        W80524   1.418  20.058  14.791
15298W        W80525  30.642   2.131  13.719
15299W        W80526   8.875  22.957  14.908
15300W        W80527  11.233  20.595  13.771
15301W        W80528  10.782  21.079   1.880
15302W        W80529  26.954  19.203  10.755
15303W        W80530   0.264  41.557   0.246
15304W        W80531   3.598  25.910  12.451
15305W        W80532  42.638  41.394  12.392
15306W        W80533  17.014  16.288  14.391
15307W        W80534   1.440   4.230  11.271
15308W        W80535  41.629   8.945   4.930
15309W        W80536   9.716  11.638   4.158
15310W        W80537   9.621  24.250  14.366
15311W        W80538  13.601  39.920  12.733
15312W        W80539  43.881  13.387   3.155
15313W        W80540   5.108  17.265   1.251
15314W        W80541   7.324  32.098  11.235
15315W        W80542  27.490  29.524  14.927
15316W        W80543  36.882  25.360  10.426
15317W        W80544   6.693  24.277  11.398
15318W        W80545  26.326  44.759   0.064
15319W        W80546  13.733   4.113  12.765
15320W        W80547  38.178  10.231  12.330
15321W        W80548  36.486  23.764  14.668
15322W        W80549   7.761  20.840   3.052
15323W        W80550  13.708  18.128   1.182
15324W        W80551  21.708  23.662  12.231
15325W        W80552  40.262  21.673  12.823
15326W        W80553  25.360  44.681   2.156
15327W        W80554  38.580  30.516  11.978
15328W        W80555  12.659  17.137   1.229
15329W        W80556  39.851   4.376   3.689
15330W        W80557  10.782  24.647  14.351
15331W        W80558  19.840  30.040   0.688
15332W        W80559  19.365  15.167   0.259
15333W        W80560  23.242  34.171   4.650
15334W        W80561  10.559  20.097  12.932
15335W        W80562  34.903   2.227  13.380
15336W        W80563  29.647  44.715  10.807
15337W        W80564  10.010  30.445   5.079
15338W        W80565  26.095  38.324  11.473
15339W        W80566  32.735  32.479   4.088
15340W        W80567  36.056   9.821  10.651
15341W        W80568   3.143  40.853  12.984
15342W        W80569   7.760  17.173  13.902
15343W        W80570  36.862  19.843   2.604
15344W        W80571   0.457   9.168   0.467
15345W        W80572  28.053  20.214   2.182
15346W        W80573  26.505  19.307  11.057
15347W        W80574  19.412   4.032   3.842
15348W        W80575  37.895  35.789  10.472
15349W        W80576  17.697  17.316   1.057
15350W        W80577  26.391   5.627   0.531
15351W        W80578  38.466   8.170  11.503
15352W        W80579  12.086  18.535  12.670
15353W        W80580  12.956   6.039   3.012
15354W        W80581  37.162  33.033  14.998
15355W        W80582  28.006  31.502  13.340
15356W        W80583   5.350  21.634   1.625
15357W        W80584  42.761  24.803  12.411
15358W        W80585  28.190  36.541   4.944
15359W        W80586  19.028  36.406  14.279
15360W        W80587  40.060   6.975  11.677
15361W        W80588  28.237  33.901  10.387
15362W        W80589   2.330  18.290   1.374
15363W        W80590  27.518  13.099  10.633
15364W        W80591  23.627  30.065  13.484
15365W        W80592   4.909   0.265   4.488
15366W        W80593  41.770  12.247   0.484
15367W        W80594  43.122  40.887  14.742
15368W        W80595  11.407  30.646  11.172
15369W        W80596  34.666   6.685   2.259
15370W        W80597   0.678   7.688   2.694
15371W        W80598   1.971   3.612   4.789
15372W        W80599  31.913  16.864  11.949
15373W        W80600   7.792  12.716   2.395
15374W        W80601  28.861  10.406  14.885
15375W        W80602   0.148  43.829   3.342
15376W        W80603  26.032  24.697   0.812
15377W        W80604  14.369  39.058   0.867
15378W        W80605  33.380  29.666  10.793
15379W        W80606  27.089  39.152  14.816
15380W        W80607  18.609   1.512  13.944
15381W        W80608  41.372  20.684   0.780
15382W        W80609  33.784   1.280   0.810
15383W        W80610  25.148   8.641   1.723
15384W        W80611  32.070  34.841   2.600
15385W        W80612  14.061  30.903  11.496
15386W        W80613  20.906  32.109   4.925
15387W        W80614  16.501  42.909   4.181
15388W        W80615  33.056   3.926  11.885
15389W        W80616  20.061  15.793   2.798
15390W        W80617   4.009  40.491   0.735
15391W        W80618  39.749  31.508   2.355
15392W        W80619   3.102  24.686   4.524
15393W        W80620   3.358  12.241   1.822
15394W        W80621  31.014   2.877  12.668
15395W        W80622  13.196  43.947   0.924
15396W        W80623  34.911  16.047  13.003
15397W        W80624   3.825  43.585  12.859
15398W        W80625  34.464  31.930  13.578
15399W        W80626  39.840  37.847   0.225
15400W        W80627  43.791   3.033  14.035
15401W        W80628  25.767  12.235  12.054
15402W        W80629  11.343  34.486  12.415
15403W        W80630  36.967  42.057   4.117
15404W        W80631  22.097  34.586  12.181
15405W        W80632   0.976  22.899  12.946
15406W        W80633   0.664  41.960   3.297
15407W        W80634   4.937  37.532   4.947
15408W        W80635  33.986  18.360  12.139
15409W        W80636  26.396  20.268  11.217
15410W        W80637   8.409   4.481  12.090
15411W        W80638  10.017  23.048  10.689
15412W        W80639   1.382  12.418   2.140
15413W        W80640  18.484   6.029  13.252
15414W        W80641  17.950  26.152   2.965
15415W        W80642  19.913   5.823  14.011
15416W        W80643   6.342   8.153  11.568
15417W        W80644  36.026   0.233   2.634
15418W        W80645  22.624  42.203  12.487
15419W        W80646   8.066  38.306   3.684
15420W        W80647  35.775  16.349  13.739
15421W        W80648  34.004  17.527  11.579
15422W        W80649  32.522  43.505  14.426
15423W        W80650  23.704  22.623   3.362
15424W        W80651  30.358  33.634   1.900
15425W        W80652   6.185  17.176  14.563
15426W        W80653  19.153  42.557  13.372
15427W        W80654  23.391  36.006  11.984
15428W        W80655  20.172  18.367   4.507
15429W        W80656  27.607  15.156   4.710
15430W        W80657  18.268  19.623  13.057
15431W        W80658  12.701  29.795  10.234
15432W        W80659  44.940  10.800   0.284
15433W        W80660   7.866  25.302  11.251
15434W        W80661  20.710   4.061  11.859
15435W        W80662   8.043  11.133   3.239
15436W        W80663  23.114  27.535  11.135
15437W        W80664  31.809   9.263  11.034
15438W        W80665  28.756  23.981   0.077
15439W        W80666   0.997  40.756  12.466
15440W        W80667  26.577  40.585   0.459
15441W        W80668  34.371  33.427  13.384
15442W        W80669  17.231  39.354   0.310
15443W        W80670   3.312  20.937   3.680
15444W        W80671  22.056  43.390   4.894
15445W        W80672  26.132  11.165   1.494
15446W        W80673  36.962  32.670   2.387
15447W        W80674   8.234  21.570   3.018
15448W        W80675  43.816  34.621   3.450
15449W        W80676   7.380  25.371  14.330
15450W        W80677  11.149  34.809  13.185
15451W        W80678  26.930  15.591  13.559
15452W        W80679  26.044  31.946  12.497
15453W        W80680  33.315  27.164   9.962
15454W        W80681  44.595  17.264  12.815
15455W        W80682  22.519  42.736  10.621
15456W        W80683  12.517  43.379   2.203
15457W        W80684   6.898  34.022  10.667
15458W        W80685  11.029  24.528   4.010
15459W        W80686   8.155  18.409   4.130
15460W        W80687   1.278  15.739  14.744
15461W        W80688   9.391   2.123   1.301
15462W        W80689  15.454  44.515   2.418
15463W        W80690  18.318   2.304  10.541
15464W        W80691  43.585  31.608   1.261
15465W        W80692  14.036  18.948   2.483
15466W        W80693  22.519  20.781   2.663
15467W        W80694  12.923  34.676  11.404
15468W        W80695  40.528  36.458   2.269
15469W        W80696  35.531  20.443  11.527
15470W        W80697  32.738  44.271  12.353
15471W        W80698  21.169  11.592  13.506
15472W        W80699  42.597  10.991   4.092
15473W        W80700   3.226   4.820  13.888
15474W        W80701  19.740  34.737   1.797
15475W        W80702  25.504   0.990   3.361
15476W        W80703  26.937  37.955  11.644
15477W        W80704  15.109  38.533   2.737
15478W        W80705  19.376  23.360  11.033
15479W        W80706  24.300  42.046   3.132
15480W        W80707  31.026  30.899   0.238
15481W        W80708  13.106  40.964  11.414
15482W        W80709  12.202  26.553  14.994
15483W        W80710  21.717   7.933   3.620
15484W        W80711  32.354   1.345   3.094
15485W        W80712  20.060   5.877   2.678
15486W        W80713  36.840   6.120  11.975
15487W        W80714  36.092  41.588   1.875
15488W        W80715  18.019  10.687  10.602
15489W        W80716  20.756   4.726  10.290
15490W        W80717  15.792   4.875  14.987
15491W        W80718  18.417  40.329  12.460
15492W        W80719  25.678  28.167   0.344
15493W        W80720  23.612  22.938  12.574
15494W        W80721   1.347  14.247   3.724
15495W        W80722  18.989  13.236  14.867
15496W        W80723  27.611   3.684  13.472
15497W        W80724  30.024  32.985   1.203
15498W        W80725  26.648  18.700   1.238
15499W        W80726  16.699  11.434   4.175
15500W        W80727   4.467   5.233  13.498
15501W        W80728  23.771   7.184  14.351
15502W        W80729  13.197   0.923   0.522
15503W        W80730   3.229  26.439  11.320
15504W        W80731  44.943  31.714   3.588
15505W        W80732   2.985  32.465  11.244
15506W        W80733  17.197  11.362  12.925
15507W        W80734  13.337   7.207   0.365
15508W        W80735  23.368  24.668  14.758
15509W        W80736  15.022  26.687  12.686
15510W        W80737   1.561  40.351   3.363
15511W        W80738  34.954  26.593  14.889
15512W        W80739  19.067   4.301   3.537
15513W        W80740   1.052  12.388   4.108
15514W        W80741   0.809  10.258   0.776
15515W        W80742  44.870  20.408   1.413
15516W        W80743   6.848  27.851   1.190
15517W        W80744  19.304  14.244  13.013
15518W        W80745  17.268   1.201  10.743
15519W        W80746  28.692  18.214  14.722
15520W        W80747  25.427  38.268   0.775
15521W        W80748  12.392  33.538  13.693
15522W        W80749  36.551   9.236   3.651
15523W        W80750  21.558  29.249   0.485
15524W        W80751  20.747   6.519  10.655
15525W        W80752  40.025  40.296   0.381
15526W        W80753  27.886   5.265   4.387
15527W        W80754  26.080  43.326  10.406
15528W        W80755  29.703  30.613   3.123
15529W        W80756   1.029  23.898   1.413
15530W        W80757  40.618  23.213   0.292
15531W        W80758  19.711  13.271   2.335
15532W        W80759  28.654   8.613  11.953
15533W        W80760  43.408  23.004  11.320
15534W        W80761  22.295   2.779  12.282
15535W        W80762  20.497  42.860  12.986
15536W        W80763  27.921  40.877   0.484
15537W        W80764   8.778  43.453  13.865
15538W        W80765  25.951  12.637   4.730
15539W        W80766  30.664   0.338   2.778
15540W        W80767   5.434  31.338  11.526
15541W        W80768   0.299   8.866   1.533
15542W        W80769  28.001  44.301  14.363
15543W        W80770  36.808   1.862   3.955
15544W        W80771  26.417   4.669  11.556
15545W        W80772   1.145  15.909  11.105
15546W        W80773  27.804  44.982  12.551
15547W        W80774  18.211   1.638  14.893
15548W        W80775  26.721  21.016   2.400
15549W        W80776  40.051  43.890   0.848
15550W        W80777  31.749  29.967  12.263
15551W        W80778  41.487   7.291   4.424
15552W        W80779  26.673  30.638  12.828
15553W        W80780  26.906   3.722   4.009
15554W        W80781  44.970   6.126   1.010
15555W        W80782   9.813  28.581  14.447
15556W        W80783  14.573  27.595  14.189
15557W        W80784   0.602  34.906  11.105
15558W        W80785   0.227  13.456   0.483
15559W        W80786  40.451  10.576  13.894
15560W        W80787  41.354  37.970   1.438
15561W        W80788  36.306  11.797  13.415
15562W        W80789  21.779  32.180  13.979
15563W        W80790  30.793  32.611  13.800
15564W        W80791  13.181  16.712  14.525
15565W        W80792  11.241  33.983  13.259
15566W        W80793  40.202  26.215  12.576
15567W        W80794   9.742  26.290  11.111
15568W        W80795  35.451   9.097  14.048
15569W        W80796  34.242  14.022   4.125
15570W        W80797   2.444  15.232   3.677
15571W        W80798  38.815  31.536  13.353
15572W        W80799   3.610  13.113  13.510
15573W        W80800  17.694   5.798  14.526
15574W        W80801  14.685  23.140  12.708
15575W        W80802  26.126  19.595  13.523
15576W        W80803  36.092   1.186  14.522
15577W        W80804  43.301  32.112   4.947
15578W        W80805   7.871  40.518  13.388
15579W        W80806   4.658  29.246   4.251
15580W        W80807  37.889   9.426   4.519
15581W        W80808  29.544  23.632  11.967
15582W        W80809  22.695   0.287   0.057
15583W        W80810   5.202   1.547   4.457
15584W        W80811  28.094   0.101  11.491
15585W        W80812   1.447  38.457  10.455
15586W        W80813  32.091  14.699   2.806
15587W        W80814  34.442   2.466   0.035
15588W        W80815  31.334   5.794  11.956
15589W        W80816  44.777  44.291  11.846
15590W        W80817   7.619  10.757   0.546
15591W        W80818  13.147  39.496   1.271
15592W        W80819  14.674  10.711   4.541
15593W        W80820  44.811   9.298   0.920
15594W        W80821  18.508  38.032  14.371
15595W        W80822  25.157   1.485   2.654
15596W        W80823  44.296  23.518  11.416
15597W        W80824  30.510   8.254  11.701
15598W        W80825  29.147  32.653   0.810
15599W        W80826  28.723  41.012  14.804
15600W        W80827  28.012  17.549   1.182
15601W        W80828  43.840   6.459   0.488
15602W        W80829  15.810  17.864  12.271
15603W        W80830  39.877  19.001   4.137
15604W        W80831  33.539  23.127   1.741
15605W        W80832  23.347  44.630   4.535
15606W        W80833   1.380  21.540  11.609
15607W        W80834  22.134  12.086  14.821
15608W        W80835  35.482   4.417  12.020
15609W        W80836  40.861   1.836  14.906
15610W        W80837   2.081   3.021   4.574
15611W        W80838  32.482  22.082   3.826
15612W        W80839  29.474  22.754   3.242
15613W        W80840  43.943  17.371   0.411
15614W        W80841  34.988  40.909   1.444
15615W        W80842  37.305  30.445  13.438
15616W        W80843  39.477  11.090   0.024
15617W        W80844  21.929  16.874   0.507
15618W        W80845  22.148  44.658  10.727
15619W        W80846  22.237  11.797   2.143
15620W        W80847  18.682   4.783  12.439
15621W        W80848   0.083   0.888   1.759
15622W        W80849  41.862   5.705  14.410
15623W        W80850  23.339  38.963  12.797
15624W        W80851  35.101  42.875   4.189
15625W        W80852  32.344  23.298  11.084
15626W        W80853  39.522  35.523   0.478
15627W        W80854  28.342   6.743  10.989
15628W        W80855  26.285   2.489  13.974
15629W        W80856  14.909  24.077   2.252
15630W        W80857  32.444  23.567  11.505
15631W        W80858  29.129  32.919  13.226
15632W        W80859  24.167  18.756  10.672
15633W        W80860  10.460   3.853   4.639
15634W        W80861  28.094   3.091  13.496
15635W        W80862  17.203  22.680  14.213
15636W        W80863  33.486  17.068   4.532
15637W        W80864  36.917  42.523   2.824
15638W        W80865   3.162  11.091   0.469
15639W        W80866  15.165   5.671  12.975
15640W        W80867  10.095  25.663  13.658
15641W        W80868  17.795   6.275   4.109
15642W        W80869  18.210  43.922   2.071
15643W        W80870   5.180  19.674  11.822
15644W        W80871  29.538  11.865   2.325
15645W        W80872   7.928   8.184   2.213
15646W        W80873  43.704  12.345   0.599
15647W        W80874  31.514  29.162  12.990
15648W        W80875  42.605  31.174   2.671
15649W        W80876  20.202  34.159   2.396
15650W        W80877  42.933  32.650  13.311
15651W        W80878  28.561  12.912   0.317
15652W        W80879  34.469  44.968  13.449
15653W        W80880  20.682  33.976   2.290
15654W        W80881  17.519   1.912   1.143
15655W        W80882  28.033  28.465   9.667
15656W        W80883   9.111  44.571   3.722
15657W        W80884   0.541  29.985  11.855
15658W        W80885  23.249  35.162  13.955
15659W        W80886   6.168  40.615   0.674
15660W        W80887  14.819  28.700  13.165
15661W        W80888   6.342  23.259   0.772
15662W        W80889  38.436  16.179  13.409
15663W        W80890   5.588  35.124  11.084
15664W        W80891  28.468  41.732   1.192
15665W        W80892  33.420  15.723   0.936
15666W        W80893  35.524   4.605   2.862
15667W        W80894  12.165   4.165   0.401
15668W        W80895   6.483  30.639  10.527
15669W        W80896  14.074   4.985   4.422
15670W        W80897  24.985  27.641  11.587
15671W        W80898  44.934   1.393   0.815
15672W        W80899  10.173  31.850  11.924
15673W        W80900  23.729  23.178  13.995
15674W        W80901   2.250  37.445   4.131
15675W        W80902  23.237  22.730   3.606
15676W        W80903   2.424  31.474  13.538
15677W        W80904  28.706   3.932  14.439
15678W        W80905  41.024  38.840   0.412
15679W        W80906  21.242   1.819   0.300
15680W        W80907  28.954  43.959  11.155
15681W        W80908  34.568  20.239  10.759
15682W        W80909  11.996  38.465  13.557
15683W        W80910  43.827  42.473   2.130
15684W        W80911  30.973  41.914   4.943
15685W        W80912  34.501  23.191  10.891
15686W        W80913   4.759  35.955  14.854
15687W        W80914  19.524  21.255  13.036
15688W        W80915  41.831   6.962  12.159
15689W        W80916  28.058  40.430   3.273
15690W        W80917  31.444   6.870  12.479
15691W        W80918   3.868  20.455  11.123
15692W        W80919  17.711  16.320  14.958
15693W        W80920  35.021   4.622  12.040
15694W        W80921  38.845  44.403   1.650
15695W        W80922   0.565  31.140  13.127
15696W        W80923   6.188  39.325   3.604
15697W        W80924  20.138  43.803   1.116
15698W        W80925  15.099  20.850   3.080
15699W        W80926  16.568  33.424   1.753
15700W        W80927  37.604  42.373   3.665
15701W        W80928  32.029  35.694   5.520
15702W        W80929  25.618  36.002   5.164
15703W        W80930   9.865   0.935  12.945
15704W        W80931  22.631  30.401   0.760
15705W        W80932  16.110  32.367   4.564
15706W        W80933   9.376  23.770   3.717
15707W        W80934   8.433   6.177  14.790
15708W        W80935  42.029  27.243   2.326
15709W        W80936  25.207   9.870   2.641
15710W        W80937  17.609  38.527  14.532
15711W        W80938  16.590  13.628   2.364
15712W        W80939  32.483  19.828   3.368
15713W        W80940   0.359  18.172   4.584
15714W        W80941  29.281  27.933  12.495
15715W        W80942  40.401  18.265  14.356
15716W        W80943  43.560  21.612   1.505
15717W        W80944  37.070  44.893   3.209
15718W        W80945  38.032  34.292   0.780
15719W        W80946  44.316  18.242  13.956
15720W        W80947  26.597  30.623  11.337
15721W        W80948  16.881  35.522   0.069
15722W        W80949  28.221  23.934  12.072
15723W        W80950  21.252  43.856   3.659
15724W        W80951  32.151  43.413  11.111
15725W        W80952   4.776  15.673  12.353
15726W        W80953  15.454  43.389  12.019
15727W        W80954  43.808  37.738  10.660
15728W        W80955  19.536  20.390  11.064
15729W        W80956  20.130  10.607  11.128
15730W        W80957   3.758  33.774  13.834
15731W        W80958   0.327  23.739   3.348
15732W        W80959   5.394  11.326  11.988
15733W        W80960   5.983  25.826  12.479
15734W        W80961  10.863   4.707   3.395
15735W        W80962  31.972  22.753   0.909
15736W        W80963   0.204  20.085   3.242
15737W        W80964  36.651  32.932   2.775
15738W        W80965   0.664  28.853   0.640
15739W        W80966   2.673   3.449  11.296
15740W        W80967  35.960  26.553   0.045
15741W        W80968   5.304  10.318  12.613
15742W        W80969   6.727  10.672   3.172
15743W        W80970  42.947  11.697  13.958
15744W        W80971   8.908  30.068  14.936
15745W        W80972  42.082  38.583   2.281
15746W        W80973   9.378  30.616   0.474
15747W        W80974  41.337  16.309  13.839
15748W        W80975  21.745   6.566   2.802
15749W        W80976  27.450  40.878  12.075
15750W        W80977  17.768   3.006  14.685
15751W        W80978  33.020  16.731   0.351
15752W        W80979   4.862  10.617   4.870
15753W        W80980   6.639  30.613  14.420
15754W        W80981  37.578   2.992  12.407
15755W        W80982  17.730   7.852   4.093
15756W        W80983   9.532  14.145  13.947
15757W        W80984  33.537   8.158   4.106
15758W        W80985  41.599  27.563  12.455
15759W        W80986  12.330  35.972   3.275
15760W        W80987  28.739  24.946   0.754
15761W        W80988   6.332  12.808  14.294
15762W        W80989   8.904  30.497   3.616
15763W        W80990  14.630  12.619   1.658
15764W        W80991  43.363  29.780  11.404
15765W        W80992  18.066  42.562   3.380
15766W        W80993  27.879   2.460   4.120
15767W        W80994  37.407  42.295   1.928
15768W        W80995  19.490  37.893  11.267
15769W        W80996   7.820   6.292  10.707
15770W        W80997  22.829  22.738  11.128
15771W        W80998  31.060  36.839   3.114
15772W        W80999  31.665   0.855   3.631
15773W        W81000  16.294  37.116  10.946
15774W        W81001  32.053  28.241   1.182
15775W        W81002   7.299  36.103  14.242
15776W        W81003  41.988  43.429  10.676
15777W        W81004  41.931  18.999   4.162
15778W        W81005  21.081  26.103   3.753
15779W        W81006  39.093  11.118  12.403
15780W        W81007  36.864   7.380  10.680
15781W        W81008  39.107   6.184  13.764
15782W        W81009  31.511  19.006  12.051
15783W        W81010  20.967  20.609   2.277
15784W        W81011  22.670  15.126  12.639
15785W        W81012  15.047   2.312   2.186
15786W        W81013   1.573  32.588  11.488
15787W        W81014  44.449  39.426   3.149
15788W        W81015  34.590  30.457   1.393
15789W        W81016  25.079  17.387   3.596
15790W        W81017  22.494  22.261   4.551
15791W        W81018   2.439   8.259  11.430
15792W        W81019  40.060  30.236   1.064
15793W        W81020  13.315  20.591  10.713
15794W        W81021   1.547   0.083   4.113
15795W        W81022  15.102  10.002   0.284
15796W        W81023  12.193  39.532   2.695
15797W        W81024  33.666   7.819  13.319
15798W        W81025   7.437  32.009   4.219
15799W        W81026  28.020  33.644   3.186
15800W        W81027  28.552  21.764   4.055
15801W        W81028   9.940  18.683   3.659
15802W        W81029  26.180  22.304   2.742
15803W        W81030   9.432  43.724  13.155
15804W        W81031  18.812   0.623  12.502
15805W        W81032  24.099  40.914   1.292
15806W        W81033  34.580  24.634  12.986
15807W        W81034  10.356  20.827  14.168
15808W        W81035  11.716  37.174   3.366
15809W        W81036  34.391  18.801  13.065
15810W        W81037  34.305   5.776  12.347
15811W        W81038  37.579   7.146  12.548
15812W        W81039  37.573   7.738  12.576
15813W        W81040  16.302  21.211   4.321
15814W        W81041  24.390  41.389  11.883
15815W        W81042  23.245  39.462  13.759
15816W        W81043  39.095  21.676   4.779
15817W        W81044   7.651  33.090  12.941
15818W        W81045  28.589  15.395   0.384
15819W        W81046  17.582  37.265   3.462
15820W        W81047  31.586  18.896  14.428
15821W        W81048   5.872  25.171  13.253
15822W        W81049  16.632  15.993  13.966
15823W        W81050   1.859   3.267   1.717
15824W        W81051  33.017   6.332  12.627
15825W        W81052  15.492  33.851  13.486
15826W        W81053  41.103  31.139  14.869
15827W        W81054  20.251  34.502  13.345
15828W        W81055  16.624   1.975   4.606
15829W        W81056   7.788  17.057   1.726
15830W        W81057  37.282   3.392   1.262
15831W        W81058  32.832  41.590   0.719
15832W        W81059  16.723  18.606  11.710
15833W        W81060  43.535  14.281  13.977
15834W        W81061  43.562   2.438   2.806
15835W        W81062  37.333  27.596   0.464
15836W        W81063  30.261  19.598  10.980
15837W        W81064   7.286   8.769  13.748
15838W        W81065   5.373  27.916   4.154
15839W        W81066   2.471  39.608   0.815
15840W        W81067  26.004  28.127   4.545
15841W        W81068  27.940  10.384  13.465
15842W        W81069  25.159   4.163  12.468
15843W        W81070   8.225  31.008   3.255
15844W        W81071  33.479   6.728   4.438
15845W        W81072  38.268  17.524   1.987
15846W        W81073  25.477   8.254  13.998
15847W        W81074  28.496  20.293  12.138
15848W        W81075  13.691   3.683   3.589
15849W        W81076  37.968  21.963   2.668
15850W        W81077  34.403   9.441   0.773
15851W        W81078  30.415  15.488  13.000
15852W        W81079  19.621   5.929   4.431
15853W        W81080  27.579  30.456  12.364
15854W        W81081  15.382  30.886  11.752
15855W        W81082  34.594  13.623   2.694
15856W        W81083  21.189  21.511  12.423
15857W        W81084  34.010   3.882  14.468
15858W        W81085  21.253   7.232   1.869
15859W        W81086  24.171  15.696   3.262
15860W        W81087  38.350  40.421  14.362
15861W        W81088  37.920  27.098  11.574
15862W        W81089  30.680  25.693   0.476
15863W        W81090  27.972  10.190   0.759
15864W        W81091  43.559  30.968   4.047
15865W        W81092  41.070  38.451   2.329
15866W        W81093  42.053  35.592  11.157
15867W        W81094  24.665  44.718   2.855
15868W        W81095  30.135  44.258   4.133
15869W        W81096  43.836   4.084   3.931
15870W        W81097  14.346  18.975  11.002
15871W        W81098  44.542  20.115   1.049
15872W        W81099   2.068  32.953   1.886
15873W        W81100  27.473  30.721  12.791
15874W        W81101  17.656  13.317   0.124
15875W        W81102  10.523  26.433  12.054
15876W        W81103  18.987   1.518   4.835
15877W        W81104   1.970  33.608  12.687
15878W        W81105  24.527  30.007  12.873
15879W        W81106  43.187   5.345   0.475
15880W        W81107  33.687  40.083  12.228
15881W        W81108  44.308  28.469  10.696
15882W        W81109  16.045  38.966  14.431
15883W        W81110  26.298  25.565  14.298
15884W        W81111  43.111  41.533  11.901
15885W        W81112   4.677  11.291   3.390
15886W        W81113  32.898  36.025  11.990
15887W        W81114   2.931  37.989  12.875
15888W        W81115  33.519  14.195   1.341
15889W        W81116  42.994  25.585   3.224
15890W        W81117  14.605   8.971   1.750
15891W        W81118   0.805  20.547   1.865
15892W        W81119  38.153  40.899  14.427
15893W        W81120  27.687   9.737   2.599
15894W        W81121   9.261  10.757  13.199
15895W        W81122   7.867   0.833   2.382
15896W        W81123  39.065   3.493  10.344
15897W        W81124   7.928  37.403   0.677
15898W        W81125  14.810  39.922   2.658
15899W        W81126  39.926  22.822   3.233
15900W        W81127  23.785  13.864  12.539
15901W        W81128  18.973  26.398  14.523
15902W        W81129   8.966   1.759  11.895
15903W        W81130  39.408  41.511  13.048
15904W        W81131   3.723  20.612   2.224
15905W        W81132  10.065  39.995  10.650
15906W        W81133  38.194   8.863  11.434
15907W        W81134  11.553  37.394   3.811
15908W        W81135   0.930   6.177   5.038
15909W        W81136  12.430   7.166  13.777
15910W        W81137  34.233  11.343   0.793
15911W        W81138  13.825  27.905  12.493
15912W        W81139   5.610  33.616   4.659
15913W        W81140  44.899  16.293  10.433
15914W        W81141  42.782  44.000   2.755
15915W        W81142  30.600  28.223  14.457
15916W        W81143  17.892  37.437   0.517
15917W        W81144   5.395  35.479  14.347
15918W        W81145  44.804   8.422   0.505
15919W        W81146   1.481  19.619   1.830
15920W        W81147  12.709  21.297  11.054
15921W        W81148  36.507  20.263  11.821
15922W        W81149  20.751  15.180   2.798
15923W        W81150   9.202  33.370   1.805
15924W        W81151  18.078   7.571   0.031
15925W        W81152  27.678  42.303   2.833
15926W        W81153  15.251  42.124   3.830
15927W        W81154   7.827  41.538   4.177
15928W        W81155  41.759  31.182  12.080
15929W        W81156  24.962  14.329   1.739
15930W        W81157  22.457  35.387  11.656
15931W        W81158  25.728  38.825  14.542
15932W        W81159  29.616  44.364  11.576
15933W        W81160   2.665  29.384   0.420
15934W        W81161  35.934  36.926  13.487
15935W        W81162  33.570   5.410   0.413
15936W        W81163  21.199   8.059  13.583
15937W        W81164  27.705  18.712  12.483
15938W        W81165  43.205  29.048  14.340
15939W        W81166  42.336  20.794   3.153
15940W        W81167   5.149   0.817   2.284
15941W        W81168  29.742  34.466  10.132
15942W        W81169  27.435  12.760   4.145
15943W        W81170  12.858   3.193   3.759
15944W        W81171  19.022  35.319   2.613
15945W        W81172  29.474  16.420   1.411
15946W        W81173   3.258  36.185  12.353
15947W        W81174  32.164  10.820  14.461
15948W        W81175  16.175   5.196   4.541
15949W        W81176  44.000  23.821  12.948
15950W        W81177   6.730  19.788   1.809
15951W        W81178  42.465   1.498   2.869
15952W        W81179  32.122   5.429   4.136
15953W        W81180  29.988  12.549   1.116
15954W        W81181  28.098  20.659  10.432
15955W        W81182  14.250  28.226  12.472
15956W        W81183   5.283  15.102   4.680
15957W        W81184   6.323  42.574   2.357
15958W        W81185  42.002  32.807   1.563
15959W        W81186  42.537  23.258   3.199
15960W        W81187  39.847   0.525  13.105
15961W        W81188  20.619  10.093  10.466
15962W        W81189  36.036  19.729  11.933
15963W        W81190  33.474   2.884   2.694
15964W        W81191  41.750  15.483  12.647
15965W        W81192  13.373   1.534  13.067
15966W        W81193  38.001   1.236   2.395
15967W        W81194  35.520  17.686   2.058
15968W        W81195  43.389   3.795   0.886
15969W        W81196  30.918  21.571  11.879
15970W        W81197  32.443   9.219   2.178
15971W        W81198  18.600  24.835  11.946
15972W        W81199  26.069   7.515  13.830
15973W        W81200  19.604  26.986   1.116
15974W        W81201  22.176   2.441   1.674
15975W        W81202  19.537  19.936  14.855
15976W        W81203  17.062   7.322  11.962
15977W        W81204   0.283  17.843   0.989
15978W        W81205  16.109  29.955   4.606
15979W        W81206  44.262  34.953  10.623
15980W        W81207  12.832  30.305  11.907
15981W        W81208   2.264   2.176  14.039
15982W        W81209  44.244   4.766  11.936
15983W        W81210  22.747  13.758  14.426
15984W        W81211   8.655  20.789  12.085
15985W        W81212  44.342  42.712   1.118
15986W        W81213  22.106  29.467  14.853
15987W        W81214  33.827  38.508   0.482
15988W        W81215  39.761  14.638  12.098
15989W        W81216   1.048  20.359   0.014
15990W        W81217   5.887   4.447   4.591
15991W        W81218  41.312  10.831   1.835
15992W        W81219  43.789  25.818  11.227
15993W        W81220  28.023  25.570  11.533
15994W        W81221  21.802  41.295   1.310
15995W        W81222  17.840   3.356   2.818
15996W        W81223  24.105  29.234  11.744
15997W        W81224  40.542  43.322   2.805
15998W        W81225   0.450  11.903   4.494
15999W        W81226  13.150   3.200   4.269
16000W        W81227  36.478  31.916   4.872
16001W        W81228  19.503  30.992   4.592
16002W        W81229  27.210  21.752   1.127
16003W        W81230   0.544  27.539  13.381
16004W        W81231  32.406  34.450   4.045
16005W        W81232   3.980  35.450   0.886
16006W        W81233  11.567   4.818  13.934
16007W        W81234  20.568  38.952   3.887
16008W        W81235   6.264  34.798  12.070
16009W        W81236  38.612   4.928   3.286
16010W        W81237  41.900  14.569  13.956
16011W        W81238  28.561  20.620  11.614
16012W        W81239  38.339  39.901  12.419
16013W        W81240  33.931   3.493   2.194
16014W        W81241   5.281   6.346   2.075
16015W        W81242  24.716  29.570  10.718
16016W        W81243  37.988  34.306  13.172
16017W        W81244   4.027  38.562  14.812
16018W        W81245   6.669  35.446   0.025
16019W        W81246   4.466  18.490   2.647
16020W        W81247   0.566  23.140  13.177
16021W        W81248  33.014  26.955   2.201
16022W        W81249  39.806   1.879   2.977
16023W        W81250  15.600  38.007  10.673
16024W        W81251  39.988  10.150   3.370
16025W        W81252  33.849  36.975   1.784
16026W        W81253  17.611  17.650   0.661
16027W        W81254  25.226  35.024  11.493
16028W        W81255  10.033  18.117   1.554
16029W        W81256   6.237  44.388   0.008
16030W        W81257  44.459  37.785  12.902
16031W        W81258  14.616  44.502   0.894
16032W        W81259  20.756   1.157   0.245
16033W        W81260  15.884  31.123  13.285
16034W        W81261  19.967  37.099   0.037
16035W        W81262   0.869  37.357  13.341
16036W        W81263  38.147   0.229  11.115
16037W        W81264  14.682  41.906  11.050
16038W        W81265   4.199  22.082   0.759
16039W        W81266  10.176   6.464  12.621
16040W        W81267  28.088  20.021  11.188
16041W        W81268   0.503  22.242   5.016
16042W        W81269  20.281   0.311  11.163
16043W        W81270  22.533  22.906  11.970
16044W        W81271  44.926   5.888   2.256
16045W        W81272  21.019   4.478  12.877
16046W        W81273  32.422  42.451   1.267
16047W        W81274  22.622  44.887  13.397
16048W        W81275   9.313  26.012  11.200
16049W        W81276  25.283  22.116   2.135
16050W        W81277  42.969   0.840  14.867
16051W        W81278   9.803  28.893   4.310
16052W        W81279  14.671  40.773  13.340
16053W        W81280  23.699  29.258  12.543
16054W        W81281  12.687  10.160   3.237
16055W        W81282   9.201  11.913   0.974
16056W        W81283  32.773  30.638   3.532
16057W        W81284  15.411  27.625   4.331
16058W        W81285  10.827  40.801  13.897
16059W        W81286  32.720  18.736   4.496
16060W        W81287  19.109  14.625  10.832
16061W        W81288  14.988   5.537   1.808
16062W        W81289   0.080  21.202   2.203
16063W        W81290  28.062  11.329  13.392
16064W        W81291  33.836  34.790   4.441
16065W        W81292   4.558  13.902   1.727
16066W        W81293  30.318   9.527   0.801
16067W        W81294  19.148  39.017   0.777
16068W        W81295  44.341  21.196  12.590
16069W        W81296  36.875  36.717  13.469
16070W        W81297  31.023  16.867   2.832
16071W        W81298   2.294  21.208   0.575
16072W        W81299  19.570  40.337   0.929
16073W        W81300  19.524  17.643  11.158
16074W        W81301  41.179  17.576   2.108
16075W        W81302   8.170  43.422  12.446
16076W        W81303   7.091  13.735   3.115
16077W        W81304  31.545  30.828   2.285
16078W        W81305  44.411  24.318  12.345
16079W        W81306  15.739  29.593  13.481
16080W        W81307   7.975   5.496   4.191
16081W        W81308  15.339  31.201   4.997
16082W        W81309  20.626  27.872  11.585
16083W        W81310  15.370  38.094  13.260
16084W        W81311  23.039  36.088   1.319
16085W        W81312  26.273  28.061  12.450
16086W        W81313  28.069  31.473   0.270
16087W        W81314  26.252  22.169   3.650
16088W        W81315   8.797  43.427  13.307
16089W        W81316   4.522  22.009   2.703
16090W        W81317  32.091  34.849   4.117
16091W        W81318   4.976  14.101   1.961
16092W        W81319  38.896  26.045  12.419
16093W        W81320  36.475   7.592  11.922
16094W        W81321   2.288  12.060  10.484
16095W        W81322  37.510  32.870   1.772
16096W        W81323  13.052   5.941  11.788
16097W        W81324   4.894  42.789  10.755
16098W        W81325  28.688  40.845  13.387
16099W        W81326  10.703  38.577   3.330
16100W        W81327  28.357  18.935   0.192
16101W        W81328  28.701  41.989  12.453
16102W        W81329  11.662   5.265   2.020
16103W        W81330  29.869  18.674   0.398
16104W        W81331  34.823  19.299   4.129
16105W        W81332   7.877   9.876   4.841
16106W        W81333  30.131  25.586   5.447
16107W        W81334  37.307   8.947  13.842
16108W        W81335  29.199   8.874   0.374
16109W        W81336  27.062   0.782  11.189
16110W        W81337  13.218   8.402   2.244
16111W        W81338  36.025  37.549   4.499
16112W        W81339   8.198  12.807   4.589
16113W        W81340  12.215   4.415   4.056
16114W        W81341  13.557  14.317  14.778
16115W        W81342  21.463  10.408  11.972
16116W        W81343   8.675  26.328   3.278
16117W        W81344   5.252  22.553   9.774
16118W        W81345  24.001   9.044  12.058
16119W        W81346  34.429  25.998  14.346
16120W        W81347  31.333  12.274   5.273
16121W        W81348  43.282  37.093  14.208
16122W        W81349   2.758  40.506  13.892
16123W        W81350  28.266  14.304   0.806
16124W        W81351   5.008  38.572  12.197
16125W        W81352   1.778  33.634   3.167
16126W        W81353  22.749  32.955   2.133
16127W        W81354  14.889   9.765  13.448
16128W        W81355  17.232  31.950   0.472
16129W        W81356  35.595  10.340   2.670
16130W        W81357   9.181  38.464   0.810
16131W        W81358  33.892   3.787   1.721
16132W        W81359  14.647  41.802  14.583
16133W        W81360  41.396   2.254  11.282
16134W        W81361  20.611   6.950   3.602
16135W        W81362  31.032  25.692   0.105
16136W        W81363   5.163  30.613   1.250
16137W        W81364  33.514  27.351   2.701
16138W        W81365  11.066  44.532  11.224
16139W        W81366   3.716  22.619   1.209
16140W        W81367   2.398  21.531   4.503
16141W        W81368  42.404  41.763   0.292
16142W        W81369  34.314  30.242  10.588
16143W        W81370  38.310  27.610   0.210
16144W        W81371  30.123  35.130  12.150
16145W        W81372  44.887   7.245   4.694
16146W        W81373  44.781   1.846  11.948
16147W        W81374  23.882  40.313   0.927
16148W        W81375   3.178  29.968  11.058
16149W        W81376  22.934  30.413  10.402
16150W        W81377  16.552  21.581   1.041
16151W        W81378  34.903   1.801   2.776
16152W        W81379  37.758   0.251  12.077
16153W        W81380   0.438   7.683   4.627
16154W        W81381   1.324  40.291  13.046
16155W        W81382   1.749  15.230  14.826
16156W        W81383  36.512  27.742  13.425
16157W        W81384  37.810  11.927  12.121
16158W        W81385  33.404  33.329   1.165
16159W        W81386   6.903   3.643  14.789
16160W        W81387  28.365   8.725   3.791
16161W        W81388  10.269  19.170  10.644
16162W        W81389  24.563  34.833  11.238
16163W        W81390   1.822  12.213   2.947
16164W        W81391   5.797  34.600  14.856
16165W        W81392  37.114  42.468   3.844
16166W        W81393  21.508   4.261   2.709
16167W        W81394  32.931  25.459   0.301
16168W        W81395   9.476  27.635  13.441
16169W        W81396  33.056  44.780  10.961
16170W        W81397  37.524  13.568  11.571
16171W        W81398  16.777  19.835   2.682
16172W        W81399  11.128  31.623  11.632
16173W        W81400  14.296  37.904   3.881
16174W        W81401  34.119  37.105  12.488
16175W        W81402  16.275  32.882  14.915
16176W        W81403  31.657   1.936  14.840
16177W        W81404  18.263   1.384  10.699
16178W        W81405  27.567  25.957  10.666
16179W        W81406  34.813   9.268  11.458
16180W        W81407  38.266  37.373  14.279
16181W        W81408  37.886  10.245  11.382
16182W        W81409  13.443  29.931   4.987
16183W        W81410  31.800   1.804   0.349
16184W        W81411  23.260  39.855   4.656
16185W        W81412  39.572   0.279  14.849
16186W        W81413   6.955   3.677   1.322
16187W        W81414  14.511  14.198   4.603
16188W        W81415  33.169  20.353  10.781
16189W        W81416   0.260  14.553  11.109
16190W        W81417  24.264  12.776   1.219
16191W        W81418   1.485   5.199  14.540
16192W        W81419  36.888  26.462   4.378
16193W        W81420  42.867  11.779   3.511
16194W        W81421  40.495  22.716   0.251
16195W        W81422   8.187  34.343  12.207
16196W        W81423   2.684  20.485   5.511
16197W        W81424   9.198  24.560   1.533
16198W        W81425   5.517  24.085  11.829
16199W        W81426   3.229   3.733   1.762
16200W        W81427  43.214  40.723   2.750
16201W        W81428  22.294  12.803   4.090
16202W        W81429  36.887  40.968   2.784
16203W        W81430  14.279   6.890   0.223
16204W        W81431  18.947  32.006  12.579
16205W        W81432  19.982  42.446   0.267
16206W        W81433  20.781   3.643  11.568
16207W        W81434  24.731   4.791   2.796
16208W        W81435  19.270  34.493   1.001
16209W        W81436  22.982   4.163   2.798
16210W        W81437  20.715  30.416   0.543
16211W        W81438  36.467  20.198   3.338
16212W        W81439   1.897  16.510   3.677
16213W        W81440  12.901  39.366  12.372
16214W        W81441  11.195  18.593  11.428
16215W        W81442   4.847  19.953   1.186
16216W        W81443   9.151   4.329  12.895
16217W        W81444  29.025  29.399  11.678
16218W        W81445  37.199  18.557  13.777
16219W        W81446   7.930   3.618  13.565
16220W        W81447  34.926  37.846  14.293
16221W        W81448  22.692  19.328   4.258
16222W        W81449  33.977  26.420  11.991
16223W        W81450  24.875  34.045   4.378
16224W        W81451  35.006  41.335  10.699
16225W        W81452  24.138  22.507  10.389
16226W        W81453   1.017   3.927  11.405
16227W        W81454  44.047   5.404  12.136
16228W        W81455   6.876  33.582  14.146
16229W        W81456  31.999  36.647  13.836
16230W        W81457  18.792   8.612  10.399
16231W        W81458  21.095  33.159  11.616
16232W        W81459   5.278  28.520   1.928
16233W        W81460   3.010  31.867  11.953
16234W        W81461   7.835  41.861   0.931
16235W        W81462  30.175   4.610   3.908
16236W        W81463  36.665  35.917   2.262
16237W        W81464   4.359  28.736   3.700
16238W        W81465  26.817   4.496  12.917
16239W        W81466  38.000  37.143   1.634
16240W        W81467  23.993  30.737   1.253
16241W        W81468  27.580  16.853   3.790
16242W        W81469  44.899   8.792   1.184
16243W        W81470  24.130  12.414   4.082
16244W        W81471  30.702  36.442   1.234
16245W        W81472  21.147  34.422   0.270
16246W        W81473  23.772  39.123  11.866
16247W        W81474  10.609  24.543   4.297
16248W        W81475  27.104  30.727  14.448
16249W        W81476   0.687  41.666   1.919
16250W        W81477  10.920  16.491   3.132
16251W        W81478  22.305  12.308   2.338
16252W        W81479  11.826  18.281  11.675
16253W        W81480  40.906  16.590  13.790
16254W        W81481  26.065  41.335   3.092
16255W        W81482   8.011  24.185   4.537
16256W        W81483  42.586   9.447  12.238
16257W        W81484  24.908   0.399   2.769
16258W        W81485  17.568  12.821  10.958
16259W        W81486  35.176   8.981  14.513
16260W        W81487  13.338   0.415   0.410
16261W        W81488  34.092  21.182  12.736
16262W        W81489  35.700  19.686   3.388
16263W        W81490   4.325  34.088   2.922
16264W        W81491  25.285  37.093   2.199
16265W        W81492  14.054  29.985  14.994
16266W        W81493  16.152  33.389  13.783
16267W        W81494  24.218  25.160   3.435
16268W        W81495   9.323  36.092   5.183
16269W        W81496   4.778   6.430   5.058
16270W        W81497  33.176  19.152   3.271
16271W        W81498   3.691  20.604   1.703
16272W        W81499  41.515  40.605   4.174
16273W        W81500  43.117  11.091  11.744
16274W        W81501  17.210  32.447   3.640
16275W        W81502  26.411  34.231  13.989
16276W        W81503  37.014  43.986  12.094
16277W        W81504   4.531  25.558  14.341
16278W        W81505   1.141  41.600   0.850
16279W        W81506  36.119  17.469   0.351
16280W        W81507  20.958  44.001   2.632
16281W        W81508   4.949  10.282   1.007
16282W        W81509  17.027  39.467  10.986
16283W        W81510  26.141  35.806  12.874
16284W        W81511   8.241   6.574   2.823
16285W        W81512  13.388  16.134  13.903
16286W        W81513  10.760  28.235   1.693
16287W        W81514   2.244  15.151   3.064
16288W        W81515  40.307  26.609   3.174
16289W        W81516  26.580  43.785  14.290
16290W        W81517   3.292  12.838   2.199
16291W        W81518  40.444   8.134   1.673
16292W        W81519  22.782  41.467   1.126
16293W        W81520  23.274  28.094  12.870
16294W        W81521  31.012   4.613   4.540
16295W        W81522   4.440   7.135  11.311
16296W        W81523  44.798   5.234   2.300
16297W        W81524  28.989  36.826  12.048
16298W        W81525  15.245  43.608   2.125
16299W        W81526  23.642  36.286   2.602
16300W        W81527   0.425   2.391  10.734
16301W        W81528  11.616  39.869   0.226
16302W        W81529  27.103  11.369  13.243
16303W        W81530  19.929  22.685  11.182
16304W        W81531  33.567   9.176   1.384
16305W        W81532  42.879  41.856  12.640
16306W        W81533  31.604  44.957   3.814
16307W        W81534  15.424  37.020  13.996
16308W        W81535   8.656  34.643   0.152
16309W        W81536  27.375  20.539   3.526
16310W        W81537  33.088  24.520  11.648
16311W        W81538  23.866   6.758   0.615
16312W        W81539   2.541  30.176   2.800
16313W        W81540   8.241  25.531   0.245
16314W        W81541  22.175   3.408   1.167
16315W        W81542  18.170  14.757  13.849
16316W        W81543   2.026  44.574   1.855
16317W        W81544  37.324   4.244   3.140
16318W        W81545  32.415  15.208  13.843
16319W        W81546  32.391  38.968   5.009
16320W        W81547  15.615   9.244  14.036
16321W        W81548  22.810  33.904   4.676
16322W        W81549  38.830   8.119   1.823
16323W        W81550  25.745  15.529  11.884
16324W        W81551  32.125   9.666  10.435
16325W        W81552  15.766   8.207   3.023
16326W        W81553  16.151  23.509  11.590
16327W        W81554  38.062  34.496  12.418
16328W        W81555  22.205   1.731   0.395
16329W        W81556  17.700  10.644   4.421
16330W        W81557  10.608  22.037  10.987
16331W        W81558  16.873  29.472  14.097
16332W        W81559   4.827  19.566  14.334
16333W        W81560  12.457  40.040   0.807
16334W        W81561  31.090  11.722  11.909
16335W        W81562  20.650  35.946   0.741
16336W        W81563   8.765   7.107  10.750
16337W        W81564   2.537  31.889  10.357
16338W        W81565  31.019   6.320  11.184
16339W        W81566   3.821   1.320   2.213
16340W        W81567  20.522  11.423   0.329
16341W        W81568  29.089  38.929   0.193
16342W        W81569  18.409   8.089  11.654
16343W        W81570  29.409  27.045   0.183
16344W        W81571  14.257   8.895  11.042
16345W        W81572  10.187  26.123  13.312
16346W        W81573  20.934  12.730  10.713
16347W        W81574  16.645  11.475  12.832
16348W        W81575  11.672  29.680   3.750
16349W        W81576  39.446  37.533   3.182
16350W        W81577  14.735   5.044   0.899
16351W        W81578   3.950  31.171  11.194
16352W        W81579  29.478  19.839  14.818
16353W        W81580   3.842  19.009  12.954
16354W        W81581  31.165  24.160  12.186
16355W        W81582  15.623  26.608  14.943
16356W        W81583  19.369   2.968  11.604
16357W        W81584  27.140  39.869  14.099
16358W        W81585  37.900   1.824   4.155
16359W        W81586   7.570   9.793  14.504
16360W        W81587   1.997   0.795   3.060
16361W        W81588   6.368   0.016  11.781
16362W        W81589  34.994  26.250   1.652
16363W        W81590  43.363  21.867   2.683
16364W        W81591  42.838   2.334   2.187
16365W        W81592   7.499  14.872   1.591
16366W        W81593  28.079  10.775  13.946
16367W        W81594  38.056  44.867  11.831
16368W        W81595  25.976  36.540   4.377
16369W        W81596   1.895   9.106  11.032
16370W        W81597  35.543  30.049   2.799
16371W        W81598  14.392  44.444  12.911
16372W        W81599  25.799  20.734  14.646
16373W        W81600  41.381  25.049   1.318
16374W        W81601  43.539  24.731   1.804
16375W        W81602  26.926  17.843  13.206
16376W        W81603  19.225  27.937  11.696
16377W        W81604   1.300  29.574   3.700
16378W        W81605  26.829  10.182  13.289
16379W        W81606  15.769  19.326   1.910
16380W        W81607   2.837   4.995  14.201
16381W        W81608  28.585   6.755   4.172
16382W        W81609  38.851  36.151  13.024
16383W        W81610   4.350   2.226  14.873
16384W        W81611  30.600  32.062   5.012
16385W        W81612  31.052   7.875  13.888
16386W        W81613  15.722   4.631   2.676
16387W        W81614  27.541  39.481   3.278
16388W        W81615  41.367  20.776   2.419
16389W        W81616   9.153   8.866  10.370
16390W        W81617   0.389  43.602   1.777
16391W        W81618   2.430  38.058  13.009
16392W        W81619  35.352  31.021  13.518
16393W        W81620   0.937  19.620   1.847
16394W        W81621  12.543  33.474   0.995
16395W        W81622  15.106  43.923   3.204
16396W        W81623  25.559   6.812  11.127
16397W        W81624  26.998  43.886   2.643
16398W        W81625  32.377   6.178   1.957
16399W        W81626  38.719   9.895  12.929
16400W        W81627   0.846  28.388   0.440
16401W        W81628  33.136  17.410   1.366
16402W        W81629  41.380  23.986   0.986
16403W        W81630  15.023  26.671   2.712
16404W        W81631  43.101  41.276  14.367
16405W        W81632  23.864   2.364   4.550
16406W        W81633   4.609  41.665  12.149
16407W        W81634  39.056  37.325  12.266
16408W        W81635  27.523  33.615  14.379
16409W        W81636  23.103  21.660   3.846
16410W        W81637   8.434  14.142  11.147
16411W        W81638   2.878  14.956   3.594
16412W        W81639  42.459   3.896   4.368
16413W        W81640  27.686  42.632  10.737
16414W        W81641   3.701  17.733   1.806
16415W        W81642  29.522  15.265  13.495
16416W        W81643  34.309  20.273   0.332
16417W        W81644   1.923  14.427  10.368
16418W        W81645  25.420  23.387   4.965
16419W        W81646  15.302   7.331  11.575
16420W        W81647  12.320  43.964   3.971
16421W        W81648   0.257   2.263   3.246
16422W        W81649   5.167  32.916   0.002
16423W        W81650   8.080  18.777  12.179
16424W        W81651  28.372  10.219   4.944
16425W        W81652  16.533  12.720   2.286
16426W        W81653   8.871  13.702   3.696
16427W        W81654   3.807  41.978   2.824
16428W        W81655  34.738  43.847  13.041
16429W        W81656  31.444   2.878  10.454
16430W        W81657  11.250   9.838  12.853
16431W        W81658  27.913  15.737   0.809
16432W        W81659   8.736  28.122   3.064
16433W        W81660  35.039  26.674   0.828
16434W        W81661  24.119  25.205   0.488
16435W        W81662  13.459  43.959  12.529
16436W        W81663  37.569   4.230   2.656
16437W        W81664   3.070  12.682  12.964
16438W        W81665   5.278   4.299   4.370
16439W        W81666  29.366   2.207  13.426
16440W        W81667  15.718   2.714   2.814
16441W        W81668   0.328  28.007  14.856
16442W        W81669  26.636   0.522   0.195
16443W        W81670  21.035   9.111  12.884
16444W        W81671  16.523   2.800  12.912
16445W        W81672  15.382  37.640  12.920
16446W        W81673  14.701   2.248  13.185
16447W        W81674  43.992  31.130  11.219
16448W        W81675  15.876   0.296  14.669
16449W        W81676  10.826   2.030  11.923
16450W        W81677  20.047  15.019   0.021
16451W        W81678  15.209  34.937  10.715
16452W        W81679  26.605  12.563  14.914
16453W        W81680   6.798  10.646  12.052
16454W        W81681   6.644   9.822  10.762
16455W        W81682  19.013  20.507   2.362
16456W        W81683  28.897  14.448  10.249
16457W        W81684  30.566  13.817  12.909
16458W        W81685   8.931  42.017   5.091
16459W        W81686  21.689  18.769  13.435
16460W        W81687  33.467  33.935  12.404
16461W        W81688  19.919  16.103   0.200
16462W        W81689  44.847  27.684   1.433
16463W        W81690  24.462  40.170   2.242
16464W        W81691  30.062  39.594  14.278
16465W        W81692  27.423  32.613   2.385
16466W        W81693  32.191  19.515   3.727
16467W        W81694  24.075  32.619   3.632
16468W        W81695  44.917  17.798  14.308
16469W        W81696  33.601  13.083  11.722
16470W        W81697  25.166  25.002  12.083
16471W        W81698  37.558  39.203  12.576
16472W        W81699  31.090  31.517   1.835
16473W        W81700  12.333  44.928   1.725
16474W        W81701  29.928   0.850  10.894
16475W        W81702  24.587  14.550   1.180
16476W        W81703  15.151   4.853   3.300
16477W        W81704   2.232  44.861   3.601
16478W        W81705  32.911  43.162   2.125
16479W        W81706  38.869  17.163  11.627
16480W        W81707   8.907  18.683  11.965
16481W        W81708  21.075  33.365  10.680
16482W        W81709  10.817  42.968   2.845
16483W        W81710  29.068   3.202   0.860
16484W        W81711  24.545  19.752   4.830
16485W        W81712  18.213  10.416  14.632
16486W        W81713  10.817  13.611   4.030
16487W        W81714  43.454   5.242   1.805
16488W        W81715  31.424  44.255   3.462
16489W        W81716  24.194   9.136   2.840
16490W        W81717  23.580  11.852   2.379
16491W        W81718  18.126  23.445  11.473
16492W        W81719   0.100   6.769  12.825
16493W        W81720  43.329  38.140   2.219
16494W        W81721  27.609  30.480  14.581
16495W        W81722  32.115  21.938   2.769
16496W        W81723  13.044   7.796  10.521
16497W        W81724   8.407  15.507  13.099
16498W        W81725  23.776  34.065  11.978
16499W        W81726  21.476  17.005  13.879
16500W        W81727   0.249  44.336   2.610
16501W        W81728   7.822  13.483   3.902
16502W        W81729  12.399  18.737  11.727
16503W        W81730  11.164  20.140  11.543
16504W        W81731  12.466  15.315  12.146
16505W        W81732  41.310  29.896  12.471
16506W        W81733  31.637  12.563  13.447
16507W        W81734  28.374  37.089   2.860
16508W        W81735  20.494  40.565  14.172
16509W        W81736  21.428  40.005  11.230
16510W        W81737   5.964   1.545   3.800
16511W        W81738  31.461  34.008  14.083
16512W        W81739  41.986   7.453  12.110
16513W        W81740  38.095  42.007  12.845
16514W        W81741  13.068  22.338   1.535
16515W        W81742  35.636   7.265  12.628
16516W        W81743  12.904   9.376   3.681
16517W        W81744   1.402   8.118  10.701
16518W        W81745  32.865   6.002  14.434
16519W        W81746  32.002  22.573  13.102
16520W        W81747  43.331  32.982   2.438
16521W        W81748  36.603  41.870   0.298
16522W        W81749  21.063   3.216  11.350
16523W        W81750  26.475  21.038  11.184
16524W        W81751  23.596  40.772   0.363
16525W        W81752  21.604  33.120  13.848
16526W        W81753  41.721  16.219  13.480
16527W        W81754  28.174  18.564  12.333
16528W        W81755  17.050   8.701   3.244
16529W        W81756  39.774  24.549   0.318
16530W        W81757   0.276   8.739   0.229
16531W        W81758  38.470  41.863  12.485
16532W        W81759  44.764  17.003   4.189
16533W        W81760  41.297  13.243   1.574
16534W        W81761  21.591  40.015  13.100
16535W        W81762   0.023  17.161  14.847
16536W        W81763  42.664  33.163  12.595
16537W        W81764  36.897  43.371   2.312
16538W        W81765  10.340   8.606  13.682
16539W        W81766  25.673  21.071   4.045
16540W        W81767  37.679  27.056  14.317
16541W        W81768  27.480  22.232  12.995
16542W        W81769   1.331  11.817  12.238
16543W        W81770  25.924  11.684   2.566
16544W        W81771   0.679  40.841   4.873
16545W        W81772  27.181  21.020   0.322
16546W        W81773  38.216  43.629  14.173
16547W        W81774   2.161  36.824   4.644
16548W        W81775  30.929  19.696   0.292
16549W        W81776   8.941  40.757   2.916
16550W        W81777  43.857  21.307   5.067
16551W        W81778  12.124  31.203  11.619
16552W        W81779  43.512  29.998  14.232
16553W        W81780  38.071  10.738   3.317
16554W        W81781  16.305  38.197   0.685
16555W        W81782  31.909  38.972  11.776
16556W        W81783  40.089   8.221  14.479
16557W        W81784   6.019   0.881   5.043
16558W        W81785  29.041   2.691   0.966
16559W        W81786  18.745  21.166   3.485
16560W        W81787  10.322  43.046   1.809
16561W        W81788   8.812   0.977   4.168
16562W        W81789  28.531  18.769  12.026
16563W        W81790  37.110   9.184  11.043
16564W        W81791  31.560  34.165   3.277
16565W        W81792  35.768   6.713   1.855
16566W        W81793   5.672  28.632  13.023
16567W        W81794  34.622  14.940   0.083
16568W        W81795  12.560   3.721   2.875
16569W        W81796   1.694   7.758  11.416
16570W        W81797  18.450  33.805   4.249
16571W        W81798  34.340  17.270  14.057
16572W        W81799  23.333  25.982  11.370
16573W        W81800  20.563  24.047  12.444
16574W        W81801  41.946   8.291   3.205
16575W        W81802   9.943  44.426   2.752
16576W        W81803  25.585  24.559  14.518
16577W        W81804  35.597  18.130  14.502
16578W        W81805  26.675   7.274   5.128
16579W        W81806  43.532  32.663   3.306
16580W        W81807  44.280  11.194  14.097
16581W        W81808  12.275   4.188   4.533
16582W        W81809  24.218  40.107   1.777
16583W        W81810  20.491  41.544  11.643
16584W        W81811  25.940  28.142  14.821
16585W        W81812   2.280   0.931  12.734
16586W        W81813  19.610   7.754   0.338
16587W        W81814   7.538  31.954  14.236
16588W        W81815  21.602  15.879   3.807
16589W        W81816  41.592   9.673  14.264
16590W        W81817  16.846   9.794  13.777
16591W        W81818  43.368  22.021  10.918
16592W        W81819  26.552   9.616  10.682
16593W        W81820  12.917  20.562  12.024
16594W        W81821   2.634  19.163   4.228
16595W        W81822   7.429  13.722  13.449
16596W        W81823  18.732  28.242   1.869
16597W        W81824  36.675   7.249  12.434
16598W        W81825  11.307  42.012  10.709
16599W        W81826  44.817   1.743   4.872
16600W        W81827   7.427  42.915   0.912
16601W        W81828  31.301  40.803  14.938
16602W        W81829  43.709  44.430   0.899
16603W        W81830  31.710  18.643  13.401
16604W        W81831  25.430  12.621   4.049
16605W        W81832  32.652  31.018  11.930
16606W        W81833   0.269  35.944   0.676
16607W        W81834  21.484   8.720   3.123
16608W        W81835  10.503  28.516   3.380
16609W        W81836  20.302   3.732   2.394
16610W        W81837   5.842  37.966   0.752
16611W        W81838  21.553  22.816  12.636
16612W        W81839  36.604   7.344  14.523
16613W        W81840  37.933  20.786  11.654
16614W        W81841   3.476  18.164   0.470
16615W        W81842   7.311   3.676   1.863
16616W        W81843  26.955  28.642  10.164
16617W        W81844   0.697  25.990  11.068
16618W        W81845  23.741  27.754   2.318
16619W        W81846  25.009  22.651   3.402
16620W        W81847  37.074  27.421  10.887
16621W        W81848   5.680  43.317   1.367
16622W        W81849  12.633  43.948  14.328
16623W        W81850  43.447   0.911  13.444
16624W        W81851   0.755   3.291  13.490
16625W        W81852   5.675   3.395   4.151
16626W        W81853  29.226  31.951  13.855
16627W        W81854   5.818  24.205   0.365
16628W        W81855  24.865  30.434  13.681
16629W        W81856   3.096  10.282  11.554
16630W        W81857  20.119  31.493   0.680
16631W        W81858   7.501  26.085   1.646
16632W        W81859  37.099  20.721   0.907
16633W        W81860  15.529  13.656   2.390
16634W        W81861  37.562  21.607   2.778
16635W        W81862  38.934  15.182  12.341
16636W        W81863  24.643  10.632   0.906
16637W        W81864  41.547  41.632   0.293
16638W        W81865  22.986  23.633  13.965
16639W        W81866   5.252  14.872   4.190
16640W        W81867   9.109   1.770   2.032
16641W        W81868  41.393  33.619  12.620
16642W        W81869  35.588  17.007   3.658
16643W        W81870  31.353  23.328   1.259
16644W        W81871  10.922  31.924  13.480
16645W        W81872  38.305  10.653  12.600
16646W        W81873  31.906  37.909   2.309
16647W        W81874  44.887  12.852  12.091
16648W        W81875   5.937  14.514   4.575
16649W        W81876   9.235  34.487   0.389
16650W        W81877  10.109  43.925  14.454
16651W        W81878  28.857   2.152   2.785
16652W        W81879   6.091  37.596  11.368
16653W        W81880  19.436  28.051   3.248
16654W        W81881  25.117  12.677   3.311
16655W        W81882   7.462  43.389   3.154
16656W        W81883  42.643   2.929   3.547
16657W        W81884   9.516  16.225   0.770
16658W        W81885  12.100   8.602   0.686
16659W        W81886  27.488  29.040   3.318
16660W        W81887  16.724  21.752  14.398
16661W        W81888   9.760   9.845  10.708
16662W        W81889  15.757  29.512   0.359
16663W        W81890  44.497  39.411  10.944
16664W        W81891  22.268   4.267   1.386
16665W        W81892  24.943  25.176   2.150
16666W        W81893  39.125  44.737   3.302
16667W        W81894  38.342   3.511   0.440
16668W        W81895  38.435  44.459   4.688
16669W        W81896  31.684  21.093   0.797
16670W        W81897  40.756   3.726  11.484
16671W        W81898  23.156  39.255  13.286
16672W        W81899  29.632  25.173   1.258
16673W        W81900  14.966  35.847   1.509
16674W        W81901  41.819  24.030   4.505
16675W        W81902  28.506  22.558  13.517
16676W        W81903  36.513  38.952   5.262
16677W        W81904  31.647   7.993   3.640
16678W        W81905  25.275  27.220  14.839
16679W        W81906  12.051  41.341  13.508
16680W        W81907  21.442  12.448  11.600
16681W        W81908  44.939  22.182   1.723
16682W        W81909  34.399  16.460   3.870
16683W        W81910  32.546  25.546  14.156
16684W        W81911  44.325  25.535   4.251
16685W        W81912   1.535   6.349  13.423
16686W        W81913  35.289  19.765  13.531
16687W        W81914  19.398  19.166  13.325
16688W        W81915  15.618  32.094  13.101
16689W        W81916  43.180   1.896  13.457
16690W        W81917  30.076  23.104  10.375
16691W        W81918  21.510  26.579   1.496
16692W        W81919  22.794   5.883  11.173
16693W        W81920   4.267   7.271   2.203
16694W        W81921  37.472  36.702  11.899
16695W        W81922  35.469  13.304  14.871
16696W        W81923  39.292  29.768  13.386
16697W        W81924   8.796  33.125  10.359
16698W        W81925  18.276  43.966  12.399
16699W        W81926  38.039  41.961   4.096
16700W        W81927   3.356  18.374  14.085
16701W        W81928  12.370  44.456  11.877
16702W        W81929  40.577   7.414   3.081
16703W        W81930  15.909  38.468  13.865
16704W        W81931  31.941  13.115  14.833
16705W        W81932  42.092  30.952  11.297
16706W        W81933  38.559   3.515  11.489
16707W        W81934   8.835  22.511  11.747
16708W        W81935  12.800  30.347   4.284
16709W        W81936  37.802  41.902   1.406
16710W        W81937  18.586  37.512   1.889
16711W        W81938  39.960   3.046  10.109
16712W        W81939  26.198   4.302  11.138
16713W        W81940  21.577  12.491   2.630
16714W        W81941  36.394  13.862  14.960
16715W        W81942  40.197   8.234  12.790
16716W        W81943  20.202  34.030  13.811
16717W        W81944  16.238  14.199  11.381
16718W        W81945  31.293  16.154  14.472
16719W        W81946  18.829   3.372   2.217
16720W        W81947  43.960   8.156   4.043
16721W        W81948  32.035  10.942  12.085
16722W        W81949  22.618  31.009   2.758
16723W        W81950  14.596  34.284   2.877
16724W        W81951   0.928  29.992  13.931
16725W        W81952  38.341  22.276  12.558
16726W        W81953   9.211   4.772   3.562
16727W        W81954  30.075  34.167   1.529
16728W        W81955  17.742  25.440  13.039
16729W        W81956  12.678   3.870   2.269
16730W        W81957   4.703  16.539  14.090
16731W        W81958  19.601  14.770   0.938
16732W        W81959  40.303  28.247   4.094
16733W        W81960  13.355   4.492   1.578
16734W        W81961   9.582   7.766  11.815
16735W        W81962  42.404  43.112  13.960
16736W        W81963   5.527   6.551  11.269
16737W        W81964  29.133   6.256  12.089
16738W        W81965  25.184  22.689  13.413
16739W        W81966  13.179  12.282   1.136
16740W        W81967  17.279   3.536  12.092
16741W        W81968  34.941  18.258  13.396
16742W        W81969  33.049   7.812  12.719
16743W        W81970  25.094   2.265  13.013
16744W        W81971  36.326   8.123   2.807
16745W        W81972  15.893  33.665   4.131
16746W        W81973   6.152  40.306   3.158
16747W        W81974  30.731  25.141  13.448
16748W        W81975  32.286  39.393  12.861
16749W        W81976  19.751  29.702   0.274
16750W        W81977  35.301   9.224  11.799
16751W        W81978  36.568  22.599   3.638
16752W        W81979   8.114   9.195  12.928
16753W        W81980  38.093  13.038  12.862
16754W        W81981   2.993  15.653  10.474
16755W        W81982  30.650  24.902  14.789
16756W        W81983  29.947  35.999   0.380
16757W        W81984   3.495  40.292   3.083
16758W        W81985  38.249  13.770  10.727
16759W        W81986  14.842  30.328   3.501
16760W        W81987  18.574   5.447   0.872
16761W        W81988  18.850  22.719  10.389
16762W        W81989  27.990  24.090  13.359
16763W        W81990  34.710  25.348   1.410
16764W        W81991  39.822   2.281  12.248
16765W        W81992   9.257   2.458   0.924
16766W        W81993  13.387   8.336   0.029
16767W        W81994  31.408   9.165   3.196
16768W        W81995   0.907   7.189  11.615
16769W        W81996  11.259  10.270   0.746
16770W        W81997  33.784  16.269   1.877
16771W        W81998   7.862  34.993  10.697
16772W        W81999  25.081   4.942  13.919
16773W        W82000  17.819  11.490  11.173
16774W        W82001  38.141   7.787   0.329
16775W        W82002  44.932  26.539   3.601
16776W        W82003  10.510  14.840   3.369
16777W        W82004  32.397  38.076   2.311
16778W        W82005  23.680  10.047   3.244
16779W        W82006   9.777  30.462  14.291
16780W        W82007  37.747  39.816  11.606
16781W        W82008   4.805   2.285   0.704
16782W        W82009  42.444  36.628  10.426
16783W        W82010   0.788  33.650   1.749
16784W        W82011  20.150  40.690   1.738
16785W        W82012  26.280   8.655   0.391
16786W        W82013  18.300  29.426  12.820
16787W        W82014  28.417  44.491   3.248
16788W        W82015   9.878  31.624  12.278
16789W        W82016   9.632  23.656  14.053
16790W        W82017  25.152  22.946  11.603
16791W        W82018  20.539  16.535  12.006
16792W        W82019  35.698   0.380   0.009
16793W        W82020  24.771  19.291  10.447
16794W        W82021  34.449  44.933   4.721
16795W        W82022  20.197  40.333   0.369
16796W        W82023   6.117  26.950  13.029
16797W        W82024  40.632  29.111   3.690
16798W        W82025  42.871  22.723  13.005
16799W        W82026  21.606  34.164   2.251
16800W        W82027  15.758  10.346   2.949
16801W        W82028  43.335  31.236   3.256
16802W        W82029  17.074   1.934   3.692
16803W        W82030  15.183   1.963  12.135
16804W        W82031  11.573   0.044   0.323
16805W        W82032  24.957  34.579   1.328
16806W        W82033  33.017  25.118  10.636
16807W        W82034  37.047  24.203   1.759
16808W        W82035  33.657   0.701   1.342
16809W        W82036   6.421  33.498  12.437
16810W        W82037  25.165  35.083  12.687
16811W        W82038  13.926   7.333   2.286
16812W        W82039  22.320   9.949   3.882
16813W        W82040  30.393  11.198   3.719
16814W        W82041  19.082  27.552  13.915
16815W        W82042  14.046  38.941  11.634
16816W        W82043  26.057  39.260  11.455
16817W        W82044  35.851  39.835   0.735
16818W        W82045  37.268  38.233  10.277
16819W        W82046  23.587  32.126   4.058
16820W        W82047  14.180   9.895  14.072
16821W        W82048  16.711   9.734   4.760
16822W        W82049  25.499  26.707   1.351
16823W        W82050  25.510  18.112  13.307
16824W        W82051   6.455  28.848  12.862
16825W        W82052  37.452  17.078  14.567
16826W        W82053  38.363  32.855  14.171
16827W        W82054   8.170  31.437  14.017
16828W        W82055   8.886  23.727   1.219
16829W        W82056  10.096  32.742  11.641
16830W        W82057  36.448  23.104  12.299
16831W        W82058   7.188  18.007  11.916
16832W        W82059  30.562  42.065   3.346
16833W        W82060  35.620   0.835  12.427
16834W        W82061  13.347  26.697   4.842
16835W        W82062  21.770   8.693   4.138
16836W        W82063   1.765   6.732  12.962
16837W        W82064  10.195  20.515  11.475
16838W        W82065   0.002  35.994   3.383
16839W        W82066  35.361  29.445  12.395
16840W        W82067   2.063  27.474  10.293
16841W        W82068  33.228  16.725   1.345
16842W        W82069  10.152   3.529   3.397
16843W        W82070  35.883  36.419  13.366
16844W        W82071  42.576   8.376  14.837
16845W        W82072   1.375   9.847   1.365
16846W        W82073  25.147   7.390   3.477
16847W        W82074  43.663  25.684  10.749
16848W        W82075  31.762  10.898   2.277
16849W        W82076  35.504  13.605   1.720
16850W        W82077  25.724  25.287   4.467
16851W        W82078  20.069  21.548   1.762
16852W        W82079  24.061  20.603   4.567
16853W        W82080  40.771   5.357   0.228
16854W        W82081  36.224   5.858   0.789
16855W        W82082  43.442  12.314  14.502
16856W        W82083  38.530   3.364   1.754
16857W        W82084  17.214  33.659  14.977
16858W        W82085  29.503  14.608  13.868
16859W        W82086  26.547  24.278   2.258
16860W        W82087   3.630   5.554   4.028
16861W        W82088  11.359  32.484  14.277
16862W        W82089  43.185  33.332  10.944
16863W        W82090  35.937  19.665  13.759
16864W        W82091   3.273  35.575   1.735
16865W        W82092  27.439  24.650  11.557
16866W        W82093  27.696  36.409  14.779
16867W        W82094   3.314  42.049   0.746
16868W        W82095  10.361  22.333  12.410
16869W        W82096  27.927  38.469  14.531
16870W        W82097  16.765  41.209   3.644
16871W        W82098   1.723  12.979  14.825
16872W        W82099  41.367  20.302  14.930
16873W        W82100  14.140   4.640   3.162
16874W        W82101  12.590   9.871   3.647
16875W        W82102  18.782  19.651  14.343
16876W        W82103   8.692  21.194   1.392
16877W        W82104  16.920   9.677   0.241
16878W        W82105  10.816  24.503  12.935
16879W        W82106  12.062  40.629  14.395
16880W        W82107  44.732  44.584   0.983
16881W        W82108  30.722  40.990   2.312
16882W        W82109  31.921  34.296  14.015
16883W        W82110  37.144  23.441  13.962
16884W        W82111  34.953  25.949   3.659
16885W        W82112  20.778   9.658   2.779
16886W        W82113  40.512  16.047  14.988
16887W        W82114  30.480   1.152   3.362
16888W        W82115  31.575  37.509   2.343
16889W        W82116  37.968  16.831   1.732
16890W        W82117  11.798  26.214  11.139
16891W        W82118  11.909  40.406  12.079
16892W        W82119  15.222  39.958   0.310
16893W        W82120  28.485  10.850   0.470
16894W        W82121  11.273  37.852   0.039
16895W        W82122   7.657  21.152  10.692
16896W        W82123  16.362  21.215   3.810
16897W        W82124  24.191  12.501   4.598
16898W        W82125   4.115  16.531  12.995
16899W        W82126  39.766  11.375  12.043
16900W        W82127  42.375   7.080  14.260
16901W        W82128  29.907  44.540  10.387
16902W        W82129  43.988  12.808   1.811
16903W        W82130  21.374  34.273  11.092
16904W        W82131  36.260   6.138  11.153
16905W        W82132  35.433  44.571  12.805
16906W        W82133  30.906   0.908   1.282
16907W        W82134  33.774  44.146   3.157
16908W        W82135  17.006   0.854   1.776
16909W        W82136  40.982   6.871   9.755
16910W        W82137  10.229   7.730  11.116
16911W        W82138  16.136   4.722  12.901
16912W        W82139  13.248  31.814   2.925
16913W        W82140   2.282  29.385   5.331
16914W        W82141  12.126  30.428   2.698
16915W        W82142   5.455  40.267  14.519
16916W        W82143   8.884  17.542  14.454
16917W        W82144  34.919  28.626  12.401
16918W        W82145  37.485  18.610   0.034
16919W        W82146  44.803  42.867   1.921
16920W        W82147  17.566  14.341  14.055
16921W        W82148  33.457  32.136  14.298
16922W        W82149   0.029  22.852   3.976
16923W        W82150  35.834   0.457  10.858
16924W        W82151  13.547  31.037  11.983
16925W        W82152  30.947  15.585  11.653
16926W        W82153  19.022  16.534  10.711
16927W        W82154  38.880  22.413   3.074
16928W        W82155  21.396   6.644   3.194
16929W        W82156   7.108  17.386   2.281
16930W        W82157  38.598  26.921  13.392
16931W        W82158  32.404   9.124   0.304
16932W        W82159   3.036   9.535  13.104
16933W        W82160  39.975  35.663   0.772
16934W        W82161  15.152  31.028   2.735
16935W        W82162  13.730  17.632   1.392
16936W        W82163   7.712  11.745  10.771
16937W        W82164  35.498  42.524  10.526
16938W        W82165   7.418   9.407  11.393
16939W        W82166   9.652   6.056  11.136
16940W        W82167   9.671  26.699  10.802
16941W        W82168  43.669  34.396   3.903
16942W        W82169  11.846  31.568   3.672
16943W        W82170   6.091  25.443  14.524
16944W        W82171  40.348  43.329  12.889
16945W        W82172  13.244  42.026   1.358
16946W        W82173   2.800  33.823  13.346
16947W        W82174  17.893  41.190   3.214
16948W        W82175  38.882  33.410   4.336
16949W        W82176  44.839   9.124  11.612
16950W        W82177  21.226  20.498   2.736
16951W        W82178  30.395  33.130   1.923
16952W        W82179   1.348  22.149   0.487
16953W        W82180  22.941  16.166   0.985
16954W        W82181  43.014   5.211   2.682
16955W        W82182  28.506   4.924  14.612
16956W        W82183  29.294  22.704  11.484
16957W        W82184   0.589  35.774  14.897
16958W        W82185  33.180  40.270   3.793
16959W        W82186  12.624   2.671  12.109
16960W        W82187   4.675   5.028  10.252
16961W        W82188  22.954  29.281   0.392
16962W        W82189  26.304   4.554   3.350
16963W        W82190   9.258  34.400  13.442
16964W        W82191   8.657  27.549  12.341
16965W        W82192  23.436   4.874   0.909
16966W        W82193   2.206  18.724  11.648
16967W        W82194  15.253  15.621   1.478
16968W        W82195  31.024  28.832  13.992
16969W        W82196   8.864   3.200  14.968
16970W        W82197  16.656  30.213  10.749
16971W        W82198  38.788  37.973   4.759
16972W        W82199  33.256   2.721   0.688
16973W        W82200  29.411  11.768   0.703
16974W        W82201  19.764  35.511   0.359
16975W        W82202   8.950  38.650  14.084
16976W        W82203   6.715  37.561  13.455
16977W        W82204   8.838  26.986  13.420
16978W        W82205   4.902   0.050   1.174
16979W        W82206  41.150  24.786  11.198
16980W        W82207  33.409   6.234   0.927
16981W        W82208  39.270  12.698   0.447
16982W        W82209  42.882  39.258  10.627
16983W        W82210  44.550  33.879   3.334
16984W        W82211   1.065  18.385  12.673
16985W        W82212  39.730   5.788  12.339
16986W        W82213  20.762  37.839   4.720
16987W        W82214  20.957  39.534   3.800
16988W        W82215   4.547   6.338  11.319
16989W        W82216   9.712  41.046  11.595
16990W        W82217  13.703  36.990   1.683
16991W        W82218  28.518  12.073   2.632
16992W        W82219  23.158  21.782   3.331
16993W        W82220  20.994  42.353   0.210
16994W        W82221  35.376  11.202  14.314
16995W        W82222  20.028  21.599  14.456
16996W        W82223  39.084  11.147  13.310
16997W        W82224  25.745  38.995   0.356
16998W        W82225  41.463   2.752  11.546
16999W        W82226  27.084   9.657  13.966
17000W        W82227  19.637  34.557   3.646
17001W        W82228   0.843  21.239  14.204
17002W        W82229  34.035  34.022  14.506
17003W        W82230  21.648  10.346  10.720
17004W        W82231   1.755  25.116  10.768
17005W        W82232  23.696   9.233   4.656
17006W        W82233  19.980  34.952  13.319
17007W        W82234  13.694  35.523   0.616
17008W        W82235  18.194  17.107  14.593
17009W        W82236  35.381  18.252   3.157
17010W        W82237  25.201  30.329  12.240
17011W        W82238  36.613  34.433   3.783
17012W        W82239  17.744  33.681  12.439
17013W        W82240  19.672   6.681   0.382
17014W        W82241  12.289  26.363  11.297
17015W        W82242  29.979  35.751  12.970
17016W        W82243  26.296  16.220   2.766
17017W        W82244  23.996  18.568   3.662
17018W        W82245  19.247   4.702  11.810
17019W        W82246  43.538  22.761   2.943
17020W        W82247  28.901  19.098  10.728
17021W        W82248  15.523  22.189   3.108
17022W        W82249  17.133  23.925   3.744
17023W        W82250  15.103  42.866   2.746
17024W        W82251  36.932  10.641   1.157
17025W        W82252  22.528  33.616   0.554
17026W        W82253  20.489  10.245   1.627
17027W        W82254  17.616   4.928   0.483
17028W        W82255  28.690  36.380  10.342
17029W        W82256  23.638  35.003  12.184
17030W        W82257  31.778  13.677   2.959
17031W        W82258  28.022  26.118   3.027
17032W        W82259  39.338  24.331   2.773
17033W        W82260  21.370  28.015   0.222
17034W        W82261  17.844  32.502   1.502
17035W        W82262  14.694  27.428   4.714
17036W        W82263  24.165  22.433   0.246
17037W        W82264  36.932  35.590  14.479
17038W        W82265  41.504  15.124  14.365
17039W        W82266  34.152  19.984  11.679
17040W        W82267  24.044  21.600  11.893
17041W        W82268  15.235  43.108  11.015
17042W        W82269  32.048   6.836  13.850
17043W        W82270   5.056  23.002   4.106
17044W        W82271  42.777   5.119   0.269
17045W        W82272  31.335  31.746   4.653
17046W        W82273  22.017  22.965   4.779
17047W        W82274  42.707  28.370  14.026
17048W        W82275  38.488  33.852  11.057
17049W        W82276  23.577  43.193   2.245
17050W        W82277  18.690  29.212  12.232
17051W        W82278  20.530  38.995   0.405
17052W        W82279  11.205   2.354   4.043
17053W        W82280  44.193  12.488   3.154
17054W        W82281  43.318   1.851   2.864
17055W        W82282  44.645   6.851   2.631
17056W        W82283   0.297  12.509  11.240
17057W        W82284  26.664  22.985  11.920
17058W        W82285  30.485   2.735  10.393
17059W        W82286  43.405  37.646   3.270
17060W        W82287   7.145  24.373   2.672
17061W        W82288  25.943  44.735   0.424
17062W        W82289  30.369  10.115  11.626
17063W        W82290  13.229  17.033  10.679
17064W        W82291   0.206  22.171   4.596
17065W        W82292  35.143   4.642  12.911
17066W        W82293   4.145  39.447   1.352
17067W        W82294   5.982  23.307  13.294
17068W        W82295  32.135   7.521  10.968
17069W        W82296  19.651  11.692   2.732
17070W        W82297  38.829  42.075   0.684
17071W        W82298  30.366  16.690   0.425
17072W        W82299  26.052  21.478   1.638
17073W        W82300  36.793  15.722   3.543
17074W        W82301   3.304  12.674  13.427
17075W        W82302   8.122  23.248   2.252
17076W        W82303  36.792  37.108  14.319
17077W        W82304  14.614  24.056   2.679
17078W        W82305  14.399  33.899  13.919
17079W        W82306  32.066   5.398   1.240
17080W        W82307  32.833  39.262  12.013
17081W        W82308  11.794  14.615  11.075
17082W        W82309   8.950   9.708   1.506
17083W        W82310  10.205   3.776  12.928
17084W        W82311  25.307  42.438  11.803
17085W        W82312   0.748  40.202   0.857
17086W        W82313  17.342  23.070   0.929
17087W        W82314  38.905  25.731   2.065
17088W        W82315  33.084  35.024  12.027
17089W        W82316  43.424   9.177   4.545
17090W        W82317   7.792   3.558  11.699
17091W        W82318   4.761   4.224   4.549
17092W        W82319  26.294  22.600   1.091
17093W        W82320  25.305  27.114  13.512
17094W        W82321  34.834  17.902  11.050
17095W        W82322  36.499  38.549   1.894
17096W        W82323  43.223  13.764   0.910
17097W        W82324  40.510  12.146  10.457
17098W        W82325   3.111   9.836  12.647
17099W        W82326  19.432  14.363   5.081
17100W        W82327  26.919  18.267   4.426
17101W        W82328   6.720  23.516  14.859
17102W        W82329   2.022  23.588   3.113
17103W        W82330  16.068   7.626   0.812
17104W        W82331  31.642  32.594   1.218
17105W        W82332   1.213  30.686  11.067
17106W        W82333  12.081  19.147   2.131
17107W        W82334   8.689  33.906  12.948
17108W        W82335  43.394   7.389   3.181
17109W        W82336  13.348  13.632   2.236
17110W        W82337  18.562   4.229   3.685
17111W        W82338  44.673  32.790   2.298
17112W        W82339  11.669  26.924   4.338
17113W        W82340  41.215  43.211  11.026
17114W        W82341  20.306   6.777  12.487
17115W        W82342  26.093  19.772   4.284
17116W        W82343   7.573  18.750  12.982
17117W        W82344  12.893  44.541  12.053
17118W        W82345  30.656  35.068  14.009
17119W        W82346  31.359  14.243  12.672
17120W        W82347  18.851  26.885   2.238
17121W        W82348  35.598  21.669   3.198
17122W        W82349  40.999  27.738   1.022
17123W        W82350  36.939  20.506  13.031
17124W        W82351  31.536  25.182   5.139
17125W        W82352  44.385  44.975  11.124
17126W        W82353   6.555  26.400   5.087
17127W        W82354  37.443  20.091   1.831
17128W        W82355  28.639  15.644  12.447
17129W        W82356   1.822  27.522  12.966
17130W        W82357  34.100  22.778   1.752
17131W        W82358   1.563  37.558   1.747
17132W        W82359  27.823  31.001  13.306
17133W        W82360  38.042  13.183   0.882
17134W        W82361  38.319  17.978  12.891
17135W        W82362  10.998  29.002  10.078
17136W        W82363  27.958  26.828   9.726
17137W        W82364   7.371  18.478  11.748
17138W        W82365  19.715  36.538   3.513
17139W        W82366  41.499  40.861   2.246
17140W        W82367   0.178  28.327  10.725
17141W        W82368  16.603  24.229   2.020
17142W        W82369  35.460  11.026  12.443
17143W        W82370  11.465   3.382  11.895
17144W        W82371   8.262  10.158   2.648
17145W        W82372  24.674  33.458   1.761
17146W        W82373  18.838  26.465  10.592
17147W        W82374   1.924  34.116   2.225
17148W        W82375  36.599  20.962   2.351
17149W        W82376  13.824  20.632   3.905
17150W        W82377  39.315  18.817  14.855
17151W        W82378  17.272   9.410   2.721
17152W        W82379  27.990  36.244  13.412
17153W        W82380  26.392   7.697   5.024
17154W        W82381  29.031  26.330  11.655
17155W        W82382  16.375  19.212  12.137
17156W        W82383   8.389  37.177  14.073
17157W        W82384  43.433  12.209  12.431
17158W        W82385  37.004  26.022  14.909
17159W        W82386   6.911  39.884  11.145
17160W        W82387  23.497  22.971   1.941
17161W        W82388  34.462  22.285  11.874
17162W        W82389  35.518  27.085  13.844
17163W        W82390  13.127  44.816   1.263
17164W        W82391  21.741  12.106   0.299
17165W        W82392   0.725   5.133  13.383
17166W        W82393  26.925   5.670   0.471
17167W        W82394  19.095   6.923   3.737
17168W        W82395  33.874  18.976   4.074
17169W        W82396  23.696   5.730  13.808
17170W        W82397  27.653   7.635   4.579
17171W        W82398  44.752  37.473   0.496
17172W        W82399  42.953   5.214   9.973
17173W        W82400  12.612  34.494  12.830
17174W        W82401   5.571  27.640   0.523
17175W        W82402   7.110  17.358   1.179
17176W        W82403  13.873  19.821  13.816
17177W        W82404  16.228  36.524   2.659
17178W        W82405  28.713  28.880   2.791
17179W        W82406   7.005   1.665   0.871
17180W        W82407  41.362  13.567  10.643
17181W        W82408  34.059  29.732   4.767
17182W        W82409   1.065  20.219  13.309
17183W        W82410   4.854   2.047  10.634
17184W        W82411  33.839  41.026  13.858
17185W        W82412  18.144  18.721   4.595
17186W        W82413  27.571  28.121   1.907
17187W        W82414   7.339  22.727  10.729
17188W        W82415  42.994   7.792   1.330
17189W        W82416  14.442  40.033   4.045
17190W        W82417  39.436   6.797  12.154
17191W        W82418  20.144   9.918  13.781
17192W        W82419  10.458  26.977  11.990
17193W        W82420  31.986  22.459   1.379
17194W        W82421  27.100   7.161   0.803
17195W        W82422   7.117  19.992   0.401
17196W        W82423  18.665  22.057  11.628
17197W        W82424  33.098   3.058  10.712
17198W        W82425  21.126  11.673  12.050
17199W        W82426  21.008  41.120  13.830
17200W        W82427  22.662  38.421   2.813
17201W        W82428  19.626  23.193  14.277
17202W        W82429  11.178   9.845  14.884
17203W        W82430  11.002   8.814   2.874
17204W        W82431  14.599  38.295   3.627
17205W        W82432  25.040   4.798  11.699
17206W        W82433  13.588  31.221  10.686
17207W        W82434  34.578  13.778  12.474
17208W        W82435  38.502   1.436   1.583
17209W        W82436  22.667  33.130   4.019
17210W        W82437  28.117  33.827  13.467
17211W        W82438  10.866  37.918  12.906
17212W        W82439  40.789  29.866   1.902
17213W        W82440   3.192  36.385   4.155
17214W        W82441  35.686   7.333   0.993
17215W        W82442   9.358  38.833   3.858
17216W        W82443  15.795  29.444   0.879
17217W        W82444  38.549  39.485   3.696
17218W        W82445   3.522  14.310  11.183
17219W        W82446  40.734  34.192  14.483
17220W        W82447  35.088  37.088  12.438
17221W        W82448  28.307  42.358   1.396
17222W        W82449  38.194   2.531  10.712
17223W        W82450   0.020   6.727  14.262
17224W        W82451  23.690  25.201   2.271
17225W        W82452  33.309   8.907  10.911
17226W        W82453  40.515  35.012  14.980
17227W        W82454  10.376  13.295   1.813
17228W        W82455  41.026   4.969   4.567
17229W        W82456  15.284   2.747   0.834
17230W        W82457  32.325   9.927  14.629
17231W        W82458  37.060  42.123   0.815
17232W        W82459  23.163  44.417  12.340
17233W        W82460   3.711   3.225   3.103
17234W        W82461   5.838   6.294   1.898
17235W        W82462  19.526  17.542   1.861
17236W        W82463   0.742   0.425   4.522
17237W        W82464   2.816  15.831   0.854
17238W        W82465  27.541  36.606   2.767
17239W        W82466   3.597  16.533   0.513
17240W        W82467   1.815  43.765  14.875
17241W        W82468  25.521  30.263  14.499
17242W        W82469  11.459   8.818  14.810
17243W        W82470  11.985   9.247  10.791
17244W        W82471   8.808  39.466   2.359
17245W        W82472  12.651   2.164  12.052
17246W        W82473  21.252  24.460   4.163
17247W        W82474   1.526  14.444   2.841
17248W        W82475   6.941  28.761   4.548
17249W        W82476  34.559  28.428   1.227
17250W        W82477  27.030  40.081  11.010
17251W        W82478  41.356  18.158   1.850
17252W        W82479   0.373  16.309   5.027
17253W        W82480  39.754  42.390   1.086
17254W        W82481  15.254   4.616   4.136
17255W        W82482  27.254  38.932  10.613
17256W        W82483  28.918  25.962   4.812
17257W        W82484   0.633  32.418   0.439
17258W        W82485  44.011  30.364  10.255
17259W        W82486  41.084   4.652   4.136
17260W        W82487  13.620  22.668   2.244
17261W        W82488  29.662   4.223   0.264
17262W        W82489   4.804  29.158  13.846
17263W        W82490  43.176  28.440  11.517
17264W        W82491  12.666  27.523   3.682
17265W        W82492   1.803  10.401  11.498
17266W        W82493  38.288  18.240  12.036
17267W        W82494   1.915  15.174   4.514
17268W        W82495  39.639   1.651  11.673
17269W        W82496   3.456   8.293   0.990
17270W        W82497  40.609   3.888   1.212
17271W        W82498  12.503   3.440  10.984
17272W        W82499  13.829  40.813   2.819
17273W        W82500  14.554  22.214   0.890
17274W        W82501  41.350  44.450  13.961
17275W        W82502  23.163  18.266  11.948
17276W        W82503   3.257  40.827   4.679
17277W        W82504  36.105  16.216  13.348
17278W        W82505  23.725  32.781   0.711
17279W        W82506  22.821  21.112   1.900
17280W        W82507  21.738  11.113   1.831
17281W        W82508  42.450  12.182   1.954
17282W        W82509   3.392  19.656   3.307
17283W        W82510  37.209  43.070  11.079
17284W        W82511   8.379  44.182  11.457
17285W        W82512   9.277  22.377  11.140
17286W        W82513  13.051   0.891  14.038
17287W        W82514   0.491  43.578  13.483
17288W        W82515   4.931  41.701  11.220
17289W        W82516  38.662  22.436   3.705
17290W        W82517  38.348   2.434  11.601
17291W        W82518  29.044  41.176  13.553
17292W        W82519  16.484  12.364   4.546
17293W        W82520   0.758  29.612  14.272
17294W        W82521   4.067  29.072  10.741
17295W        W82522  36.971  44.285   1.309
17296W        W82523  44.212   2.231   3.205
17297W        W82524  21.163  15.051   0.530
17298W        W82525   6.744  22.710   1.324
17299W        W82526  26.859  27.075  10.662
17300W        W82527  19.776  43.831   4.983
17301W        W82528  37.493  38.386   2.769
17302W        W82529  18.993  10.752   4.808
17303W        W82530   2.824  12.340   3.603
17304W        W82531  15.064  14.568  11.218
17305W        W82532  36.403   2.893  14.789
17306W        W82533  20.997   6.880   0.457
17307W        W82534   4.907  25.684  11.533
17308W        W82535  18.043  44.728  12.904
17309W        W82536  38.494  31.479   4.563
17310W        W82537  31.903  35.468   4.488
17311W        W82538   6.237  35.185   2.643
17312W        W82539  41.956   3.948  12.085
17313W        W82540  44.784  20.717  13.365
17314W        W82541   6.821  13.369   0.672
17315W        W82542  31.617  22.839   1.345
17316W        W82543  42.847  43.448  13.075
17317W        W82544   9.788  33.302   0.756
17318W        W82545   6.751  26.105  10.801
17319W        W82546  36.060   2.026  12.222
17320W        W82547  12.363  12.197  13.634
17321W        W82548  11.163   3.806   1.280
17322W        W82549  16.244  36.626   0.686
17323W        W82550  13.928  39.774  13.118
17324W        W82551   6.856  16.473  12.435
17325W        W82552  35.047  38.835   1.815
17326W        W82553  34.869  14.114  14.048
17327W        W82554  37.134   2.406   0.690
17328W        W82555  19.075  19.095  11.862
17329W        W82556  34.100  14.303  14.488
17330W        W82557  25.216  35.845   2.121
17331W        W82558  31.139  40.573   2.471
17332W        W82559  40.983  22.794  11.679
17333W        W82560  12.708  42.226   2.829
17334W        W82561  15.486  39.085  11.283
17335W        W82562  23.843   5.226  12.952
17336W        W82563  37.020  32.681  11.953
17337W        W82564   1.750  27.011   2.232
17338W        W82565  40.593  31.180   4.459
17339W        W82566  20.593  13.824   2.343
17340W        W82567  22.547  14.303   5.128
17341W        W82568  27.126  12.609  11.946
17342W        W82569  19.247  28.056   2.755
17343W        W82570  43.723  27.535  10.119
17344W        W82571   8.773  40.782   1.946
17345W        W82572  21.952   9.245   0.924
17346W        W82573  33.566  15.585   3.114
17347W        W82574  12.145  14.180   1.684
17348W        W82575  33.657  33.590   3.055
17349W        W82576  35.519  38.841   1.573
17350W        W82577  41.855   4.211  13.828
17351W        W82578  22.326  44.675   4.556
17352W        W82579   3.297  33.664   0.022
17353W        W82580  42.183  14.836  11.970
17354W        W82581  41.678   5.793   0.268
17355W        W82582  38.797  25.014  12.508
17356W        W82583  41.038  13.678   0.020
17357W        W82584  43.823  42.190   1.697
17358W        W82585  35.465   2.391   2.935
17359W        W82586  44.583  43.509   4.182
17360W        W82587  21.716   0.373  11.917
17361W        W82588  44.513  34.799  14.296
17362W        W82589  42.830   9.888   3.633
17363W        W82590  13.156  24.788   2.655
17364W        W82591  24.596  29.379   0.387
17365W        W82592  43.087  33.548  13.562
17366W        W82593   1.979  34.282  11.087
17367W        W82594  42.743   0.309  13.571
17368W        W82595  43.735  35.038  13.972
17369W        W82596  24.094  10.305  13.809
17370W        W82597  38.607  25.542   4.936
17371W        W82598  30.007   2.624  14.424
17372W        W82599   2.540  22.234  14.705
17373W        W82600  44.544   6.885  10.592
17374W        W82601  20.624   7.344   4.876
17375W        W82602  15.088   1.507  12.507
17376W        W82603  44.025  28.723   2.127
17377W        W82604  23.283  39.242  11.318
17378W        W82605   3.862  41.469  11.557
17379W        W82606  32.163  30.827   4.180
17380W        W82607  18.906  40.287  12.545
17381W        W82608  35.707  38.408   0.747
17382W        W82609  10.890  34.968   1.434
17383W        W82610  18.861   8.794   1.627
17384W        W82611   7.299  31.428   3.262
17385W        W82612  18.585  41.750  11.615
17386W        W82613  32.583  30.794   4.519
17387W        W82614  11.172  23.959  12.478
17388W        W82615  26.547  42.075   4.548
17389W        W82616  35.576   2.808   1.640
17390W        W82617  15.268  21.311  13.439
17391W        W82618  31.940  31.861  10.474
17392W        W82619   8.986   5.311   4.067
17393W        W82620   4.291  15.702   1.396
17394W        W82621  34.908  40.440  12.720
17395W        W82622  41.117  19.106   1.909
17396W        W82623   6.859  11.767  14.865
17397W        W82624  39.671  28.474  12.544
17398W        W82625   3.540  36.782   4.160
17399W        W82626   3.521  17.210   3.793
17400W        W82627  37.294  19.823  10.554
17401W        W82628  44.082  28.485  10.219
17402W        W82629  25.974   0.456  14.928
17403W        W82630  28.201  28.447   3.514
17404W        W82631  26.171   6.726  14.481
17405W        W82632  11.546  31.027   4.567
17406W        W82633  25.969   1.219   1.186
17407W        W82634   3.765  11.461   3.153
17408W        W82635  34.094  41.353   4.538
17409W        W82636   8.767   7.909   4.275
17410W        W82637   3.886  13.236  13.101
17411W        W82638  43.698   0.557  11.181
17412W        W82639  27.032  31.962  12.121
17413W        W82640  15.218  31.588   4.041
17414W        W82641  26.564  21.382  13.564
17415W        W82642   2.956  22.998   0.750
17416W        W82643  37.282   5.199  12.881
17417W        W82644  38.056   2.756  12.451
17418W        W82645  10.325  30.004  13.815
17419W        W82646  36.347  39.041  10.789
17420W        W82647  38.962  14.087  11.693
17421W        W82648   8.183  27.377   4.124
17422W        W82649  40.329   1.927  14.818
17423W        W82650   3.897   9.284  10.881
17424W        W82651  26.637  13.088   2.174
17425W        W82652   3.631   8.182  14.808
17426W        W82653  25.517   1.474   1.206
17427W        W82654   5.834  41.329  11.643
17428W        W82655  18.785  36.558  12.042
17429W        W82656  34.341  32.556  14.449
17430W        W82657  38.789  42.035  10.725
17431W        W82658  11.589  30.165  11.193
17432W        W82659  20.581  39.030   2.660
17433W        W82660   4.854  27.703   4.751
17434W        W82661  21.726  30.623  13.976
17435W        W82662  38.119   4.357  14.932
17436W        W82663   8.817  18.717   3.664
17437W        W82664   9.412   8.963   2.161
17438W        W82665   4.953  24.425   3.962
17439W        W82666  10.445  11.284   0.383
17440W        W82667  16.800   9.057  12.029
17441W        W82668  10.183  39.124   4.062
17442W        W82669  18.397   8.390  12.555
17443W        W82670  21.599   8.367   4.861
17444W        W82671  44.933  27.088  12.954
17445W        W82672  14.409   8.010   4.068
17446W        W82673  23.105  16.993  10.674
17447W        W82674  20.257   7.464   2.761
17448W        W82675  40.436  41.799   4.607
17449W        W82676  20.522   0.528   1.874
17450W        W82677  24.120  39.456   4.509
17451W        W82678  24.609  18.714  12.474
17452W        W82679   8.119  37.404   1.800
17453W        W82680  13.736   0.763  10.678
17454W        W82681  33.718  41.053   4.166
17455W        W82682  23.316  40.982   2.303
17456W        W82683  33.814  44.900   3.697
17457W        W82684  34.210  26.426  14.484
17458W        W82685  22.891  11.518  11.124
17459W        W82686  25.856  21.261  14.017
17460W        W82687  32.891  43.544  12.892
17461W        W82688  18.820  39.018  11.791
17462W        W82689  41.730  40.967   4.937
17463W        W82690   3.396  18.308  11.069
17464W        W82691  28.997  23.612  12.413
17465W        W82692  44.152  23.001  10.727
17466W        W82693  36.957   6.421   0.883
17467W        W82694  42.908  34.054  10.396
17468W        W82695  19.503  11.215   0.431
17469W        W82696   7.544  22.828   1.016
17470W        W82697  41.339  22.993  14.425
17471W        W82698  21.262   8.861  10.679
17472W        W82699  36.416  37.850   0.469
17473W        W82700  12.335   9.300   2.612
17474W        W82701   4.356  37.877  11.459
17475W        W82702  32.637  14.363  13.350
17476W        W82703  10.854   1.491  11.984
17477W        W82704  42.608  14.199  12.490
17478W        W82705  42.471   4.292   1.819
17479W        W82706  35.416  22.072   4.642
17480W        W82707  36.065  37.760   4.034
17481W        W82708   0.323  31.505   4.096
17482W        W82709  35.387  22.614  14.103
17483W        W82710  14.383  10.304  11.849
17484W        W82711  43.352   6.177  12.388
17485W        W82712   8.350  29.767  11.623
17486W        W82713   1.280  11.751  12.756
17487W        W82714  35.294  18.440  11.563
17488W        W82715  26.492  35.935   4.985
17489W        W82716  43.995   6.334   1.374
17490W        W82717  30.364  29.474  14.922
17491W        W82718  13.560  23.628   4.798
17492W        W82719  37.980   9.209   2.747
17493W        W82720  36.892  34.329   1.839
17494W        W82721  33.129  28.591   1.418
17495W        W82722  23.274  12.766  13.767
17496W        W82723  12.441  24.625  10.748
17497W        W82724  19.727  15.112   3.636
17498W        W82725   5.294   1.822  12.324
17499W        W82726  23.106   8.646   3.679
17500W        W82727  12.192  37.056   2.368
17501W        W82728  35.605  44.735  10.657
17502W        W82729   5.770   9.642  11.182
17503W        W82730  16.079  19.993   0.272
17504W        W82731   7.886  18.112   2.411
17505W        W82732   6.656  20.706  10.807
17506W        W82733  22.647   2.209   1.745
17507W        W82734  33.434  12.596   4.546
17508W        W82735   8.603  30.079   2.194
17509W        W82736  24.645  34.093  10.650
17510W        W82737  40.019   7.665  12.217
17511W        W82738  43.376   5.355   4.023
17512W        W82739   5.451  36.249   3.628
17513W        W82740  14.081  43.837  11.529
17514W        W82741  44.899  33.927  11.824
17515W        W82742  19.818   6.224  13.023
17516W        W82743   3.845   6.136  11.066
17517W        W82744  24.543  42.521  10.945
17518W        W82745  22.840   2.099  10.528
17519W        W82746  23.237  29.147  14.490
17520W        W82747  27.931  19.310  10.450
17521W        W82748  41.811  15.369   2.074
17522W        W82749   1.563  22.057   0.024
17523W        W82750  29.603  22.166   2.468
17524W        W82751  44.324  36.355  11.509
17525W        W82752  40.233  10.156  13.580
17526W        W82753   5.669  18.120  11.933
17527W        W82754   9.282  24.916   1.920
17528W        W82755   8.781   3.422  10.386
17529W        W82756   4.532   9.906   4.204
17530W        W82757  21.214  15.163  10.917
17531W        W82758  38.299  34.166   1.553
17532W        W82759   6.204  18.855  12.364
17533W        W82760  16.408   9.887   2.626
17534W        W82761  34.863  33.966  12.026
17535W        W82762  21.164  40.925   3.258
17536W        W82763  22.472  41.465  14.804
17537W        W82764   0.911  24.675  14.983
17538W        W82765  13.904   9.241   2.838
17539W        W82766   7.906  11.454  13.119
17540W        W82767  11.877  25.741   2.810
17541W        W82768  27.479  39.322   3.895
17542W        W82769  40.054  11.906   0.782
17543W        W82770  36.998  31.985  13.576
17544W        W82771  37.443  24.993  11.626
17545W        W82772  41.476  27.917   1.210
17546W        W82773  18.744   2.462  13.951
17547W        W82774  15.101  20.232  14.943
17548W        W82775  29.549  14.095  12.418
17549W        W82776  15.539  31.319   1.773
17550W        W82777  43.019  19.489  13.625
17551W        W82778  39.116  40.044   1.026
17552W        W82779  40.515  40.558   2.866
17553W        W82780  17.289  44.403   5.186
17554W        W82781  27.515  43.606   0.314
17555W        W82782  34.001  37.112   1.297
17556W        W82783  15.087  33.072  10.542
17557W        W82784   9.848  23.797  14.504
17558W        W82785  40.744  38.096  11.183
17559W        W82786  29.330  40.753  10.156
17560W        W82787  16.309   7.726   3.056
17561W        W82788  21.669  26.991   1.203
17562W        W82789  11.816  35.172  10.674
17563W        W82790  27.694  15.628   1.287
17564W        W82791  20.106  13.999  14.881
17565W        W82792  14.614   4.426   4.216
17566W        W82793   1.946   7.128  12.671
17567W        W82794  13.326   3.948   3.854
17568W        W82795  34.476  19.294  12.925
17569W        W82796  17.656   1.429  12.102
17570W        W82797  15.344   6.851   4.535
17571W        W82798  25.964   7.867  13.359
17572W        W82799  10.840  36.844   1.274
17573W        W82800   2.874  32.332  12.092
17574W        W82801  40.022  39.281  10.970
17575W        W82802  33.371  18.186   4.861
17576W        W82803  32.878  28.034  12.921
17577W        W82804   4.131   1.776  14.906
17578W        W82805  12.351  36.005  14.807
17579W        W82806  16.106  31.455  12.915
17580W        W82807  19.231  40.689  12.496
17581W        W82808  32.117   8.360  11.006
17582W        W82809   0.492  17.625   0.509
17583W        W82810  13.300  36.968  14.325
17584W        W82811   9.163  10.168  11.499
17585W        W82812   9.331   3.089  14.741
17586W        W82813   7.919  41.507   4.664
17587W        W82814   1.175  18.145  14.994
17588W        W82815   9.922  24.224   2.676
17589W        W82816   5.786  20.061   3.769
17590W        W82817  17.000   5.953  11.255
17591W        W82818  34.501  37.296   1.249
17592W        W82819  21.963  39.462   4.305
17593W        W82820  17.997  35.474   0.457
17594W        W82821  20.690  22.029  12.077
17595W        W82822  13.337  25.192  11.686
17596W        W82823  32.014   7.633   3.569
17597W        W82824   8.925   0.025   3.145
17598W        W82825   3.811  22.084   1.086
17599W        W82826  16.757  41.969   2.324
17600W        W82827  38.005  42.109   0.975
17601W        W82828  13.805   2.603   4.444
17602W        W82829  30.384  36.090  14.831
17603W        W82830  33.806  39.362   3.149
17604W        W82831   8.923  43.370   1.903
17605W        W82832   4.928   8.866   3.767
17606W        W82833  32.713  32.487   2.707
17607W        W82834   8.904  43.296  11.588
17608W        W82835  35.360  37.399  13.735
17609W        W82836  21.166  11.739  14.834
17610W        W82837  17.268  14.698   1.317
17611W        W82838  25.325   6.169  11.688
17612W        W82839  33.760  38.402   0.992
17613W        W82840   1.855  32.510  14.027
17614W        W82841  38.282  13.237   0.352
17615W        W82842  35.764  12.290  10.794
17616W        W82843  35.865  38.999  11.080
17617W        W82844  19.401  13.380  11.228
17618W        W82845  15.239  24.426   2.069
17619W        W82846  28.508  11.909  11.036
17620W        W82847   3.463   0.658  11.864
17621W        W82848  18.538  26.253  14.296
17622W        W82849  33.181   5.796   1.634
17623W        W82850  34.434   6.213   3.539
17624W        W82851  38.004  31.094  13.463
17625W        W82852  21.225  16.845   2.843
17626W        W82853  25.120  36.972   0.698
17627W        W82854  32.406   4.925  14.792
17628W        W82855  39.613  38.967   4.408
17629W        W82856  21.251  28.976   1.289
17630W        W82857  26.189  23.777  12.599
17631W        W82858  19.328  11.704  12.522
17632W        W82859  31.366  10.680  14.032
17633W        W82860  33.917  23.771   0.374
17634W        W82861  41.049  20.278   1.777
17635W        W82862  17.546  20.736   1.768
17636W        W82863  34.607  39.798   1.398
17637W        W82864  31.324  41.709  12.920
17638W        W82865  38.288   9.734   3.987
17639W        W82866  28.228   5.673   4.317
17640W        W82867  29.307  18.990  14.335
17641W        W82868  19.040  32.489  11.191
17642W        W82869   6.229  39.879  11.665
17643W        W82870  31.650  42.797  12.423
17644W        W82871   8.035   8.609   4.248
17645W        W82872  33.562   8.970   0.027
17646W        W82873   8.636  15.593  12.627
17647W        W82874   1.312   6.844  14.928
17648W        W82875  31.535   6.340  11.186
17649W        W82876   6.649   0.416  13.213
17650W        W82877   6.121  28.964  13.443
17651W        W82878  31.324   3.788   1.032
17652W        W82879  22.571   0.946  14.342
17653W        W82880  11.955  13.512   0.472
17654W        W82881   8.813   1.085   0.041
17655W        W82882   4.252  16.383   4.537
17656W        W82883   2.730   5.828   2.645
17657W        W82884   5.390  26.900  11.575
17658W        W82885  15.595   2.267  10.483
17659W        W82886  22.500   9.287   0.912
17660W        W82887  44.292  39.359   0.171
17661W        W82888  18.395  24.067  10.721
17662W        W82889  43.063  22.352  11.946
17663W        W82890  35.327  26.700   3.242
17664W        W82891  37.796  10.670  12.556
17665W        W82892  38.905  28.621   3.236
17666W        W82893  24.470  31.880   3.685
17667W        W82894  38.860  27.827   2.305
17668W        W82895   1.725  16.396   2.243
17669W        W82896  28.191  19.145  14.084
17670W        W82897  36.074   3.833   0.368
17671W        W82898  25.745   8.627  11.997
17672W        W82899  19.087  43.025  14.409
17673W        W82900  40.872  34.650  14.300
17674W        W82901  28.113  16.062  13.985
17675W        W82902  10.699  43.771  13.792
17676W        W82903  37.608  41.702   0.296
17677W        W82904   8.374  35.241  12.160
17678W        W82905   4.095  39.940  12.647
17679W        W82906  20.611  31.564  12.916
17680W        W82907   4.873  26.495  14.488
17681W        W82908  31.926  40.805  13.666
17682W        W82909  26.630  11.133  13.274
17683W        W82910   5.292  32.451   1.247
17684W        W82911   6.268  33.534  14.467
17685W        W82912  22.580  11.270  13.293
17686W        W82913  18.540  32.926   1.501
17687W        W82914  29.935  21.400   3.299
17688W        W82915  24.703  39.359  14.240
17689W        W82916   4.983  25.083  11.343
17690W        W82917  31.905   7.121   1.807
17691W        W82918  12.599  31.479   2.199
17692W        W82919  21.031  13.848   2.709
17693W        W82920  42.436  30.505   3.396
17694W        W82921   4.322  33.964  11.573
17695W        W82922   8.328  11.661  13.986
17696W        W82923  27.544   7.121  12.060
17697W        W82924  14.939  13.320   2.852
17698W        W82925  24.117  35.014   2.428
17699W        W82926  28.945   7.750   0.850
17700W        W82927  14.564  38.447  13.409
17701W        W82928  42.561  40.107  14.934
17702W        W82929  44.493  39.939   0.290
17703W        W82930  22.844  35.855  10.362
17704W        W82931  23.654  42.524  14.340
17705W        W82932  29.574  33.562   1.453
17706W        W82933  25.498  34.988   2.881
17707W        W82934  23.280  21.056  13.074
17708W        W82935   6.760  10.141   0.304
17709W        W82936   5.189  38.129   2.341
17710W        W82937  11.215   3.625   4.039
17711W        W82938   6.014  36.988  11.223
17712W        W82939  31.044  20.299   2.389
17713W        W82940  19.097   8.613   0.625
17714W        W82941  29.994  19.030  13.870
17715W        W82942  28.589  32.578   2.812
17716W        W82943  24.069  17.120  14.819
17717W        W82944  15.359  33.104  13.218
17718W        W82945  17.664   0.538   2.894
17719W        W82946  13.152  38.405  14.335
17720W        W82947  12.747  33.202   0.047
17721W        W82948   1.977  37.602   3.108
17722W        W82949   6.671  23.991  13.486
17723W        W82950  21.987  16.140   0.994
17724W        W82951  37.084  22.604   2.751
17725W        W82952  44.234  33.550   0.141
17726W        W82953  10.956  35.416   0.352
17727W        W82954   9.232   5.257   2.304
17728W        W82955  17.214  37.026   0.414
17729W        W82956  21.785  10.668  11.688
17730W        W82957  42.135  40.100   2.095
17731W        W82958   9.623  38.439   1.944
17732W        W82959  18.791  29.958  10.592
17733W        W82960  23.313   5.240  12.960
17734W        W82961  15.734  44.043  14.006
17735W        W82962  31.107  34.295  10.199
17736W        W82963  42.514  37.953  10.697
17737W        W82964  27.489  39.402   1.786
17738W        W82965  40.963  12.240  13.125
17739W        W82966  26.165  12.631   1.356
17740W        W82967   6.822  44.326   1.516
17741W        W82968  37.339  35.585   0.276
17742W        W82969   5.813  26.679   0.990
17743W        W82970  15.897   6.910  14.019
17744W        W82971  18.386  29.596   4.083
17745W        W82972  17.941  22.195  11.116
17746W        W82973  39.352   7.840   0.813
17747W        W82974   7.471  16.115   2.979
17748W        W82975  37.318   7.336  11.648
17749W        W82976  15.121  29.464   3.621
17750W        W82977  14.043  39.480   0.862
17751W        W82978   3.830  27.068   3.781
17752W        W82979   7.495  43.403   4.219
17753W        W82980  35.317  44.978  13.898
17754W        W82981  35.095  19.279  13.511
17755W        W82982   7.874  38.366   2.874
17756W        W82983   4.668  26.963  11.965
17757W        W82984  31.983  10.580  13.024
17758W        W82985  25.644  20.203  11.625
17759W        W82986   4.872  35.487   0.476
17760W        W82987  29.558   0.239  12.467
17761W        W82988  40.457   9.535   4.365
17762W        W82989   9.482   4.390  12.458
17763W        W82990  37.375  29.119  14.333
17764W        W82991   1.583  24.099  13.420
17765W        W82992  22.913  27.029  14.846
17766W        W82993  23.282   2.394  12.900
17767W        W82994   8.630  42.849  11.546
17768W        W82995  32.962  26.177  12.540
17769W        W82996  13.442  36.358   3.513
17770W        W82997  30.753  33.645   3.248
17771W        W82998  42.377  28.526   3.467
17772W        W82999  43.703  21.285  11.227
17773W        W83000   7.773  36.954   1.923
17774W        W83001  28.158  32.475   3.957
17775W        W83002   9.737   8.607  11.052
17776W        W83003  27.781  38.956  10.599
17777W        W83004  44.408   0.624  14.913
17778W        W83005  19.575  41.452  14.519
17779W        W83006  10.646  23.759  13.207
17780W        W83007  31.905  11.167   2.705
17781W        W83008  34.964   1.743  12.070
17782W        W83009  34.337  27.497  12.098
17783W        W83010  26.500   9.975   3.697
17784W        W83011  18.486   3.322  11.591
17785W        W83012  21.694  40.417   0.698
17786W        W83013  41.944  32.180  11.930
17787W        W83014  43.048  37.976   2.652
17788W        W83015   3.985  18.270   0.358
17789W        W83016   6.655   1.257  12.333
17790W        W83017  43.180   6.908   3.168
17791W        W83018  40.357  14.858   1.387
17792W        W83019  21.694  26.157   4.859
17793W        W83020   8.807  34.083  10.422
17794W        W83021  42.231  17.664  12.848
17795W        W83022   8.852   9.344  11.207
17796W        W83023  25.159  10.007   4.477
17797W        W83024  40.144  35.082  10.032
17798W        W83025   9.739  26.233   1.300
17799W        W83026  30.283  33.098   3.294
17800W        W83027   2.617   5.850   0.174
17801W        W83028  15.388  17.728   0.951
17802W        W83029  21.050  42.729  13.057
17803W        W83030   0.849   3.482   3.409
17804W        W83031  20.531  26.491  13.743
17805W        W83032   7.957  31.233  13.042
17806W        W83033  26.624  42.494   4.858
17807W        W83034   2.955  40.527  14.943
17808W        W83035   8.398  40.084  12.241
17809W        W83036  17.872  24.169   3.417
17810W        W83037  20.246  30.573   2.046
17811W        W83038  44.773  24.362   4.949
17812W        W83039  31.313   2.279   2.260
17813W        W83040   6.112   7.890  11.965
17814W        W83041  21.713  24.203   4.262
17815W        W83042   9.780   8.177  14.057
17816W        W83043  11.151   0.799  13.504
17817W        W83044  37.266  38.040   0.003
17818W        W83045  25.819   2.919  11.445
17819W        W83046   5.840  39.576  11.532
17820W        W83047  31.158  16.696  13.084
17821W        W83048  27.409   7.692  13.753
17822W        W83049  10.295  39.748   0.318
17823W        W83050  10.679  29.544   3.084
17824W        W83051  10.763  35.908   0.423
17825W        W83052   4.176  41.381   1.490
17826W        W83053  37.137  15.126  11.091
17827W        W83054  11.689  23.680  12.441
17828W        W83055   6.820  17.363  11.524
17829W        W83056  29.217  18.080  14.457
17830W        W83057   9.711  32.148   2.237
17831W        W83058  11.658   5.693  14.805
17832W        W83059  16.788  14.597   2.098
17833W        W83060  43.349  11.445   0.975
17834W        W83061  19.242  13.155   3.782
17835W        W83062  17.021  40.345  11.442
17836W        W83063   8.761   2.412   2.395
17837W        W83064   4.508  37.153   4.083
17838W        W83065  13.050  33.871  13.889
17839W        W83066  19.711   9.331   2.764
17840W        W83067  19.385  28.945  13.982
17841W        W83068  34.737  28.061   2.762
17842W        W83069  39.469  10.427  12.021
17843W        W83070   6.703  42.304   4.886
17844W        W83071  10.720  35.032  12.105
17845W        W83072   0.821  19.758  13.403
17846W        W83073  33.166  26.986   2.694
17847W        W83074   0.540  12.152   4.052
17848W        W83075   5.028  33.399   2.236
17849W        W83076   2.109  37.369   1.949
17850W        W83077  41.279  11.667  14.307
17851W        W83078  14.667  15.122   0.460
17852W        W83079   3.766  42.361  12.546
17853W        W83080  42.776  13.131   1.224
17854W        W83081  27.087  30.956   2.130
17855W        W83082   9.409   4.785   3.091
17856W        W83083  35.815  15.145  12.600
17857W        W83084  17.377  36.857  14.962
17858W        W83085  13.783  29.738   0.715
17859W        W83086   6.581  20.973   4.447
17860W        W83087   2.392   9.764  12.041
17861W        W83088  21.596   0.193  11.441
17862W        W83089  23.779  29.629  14.237
17863W        W83090  16.376  16.386  12.837
17864W        W83091  35.517  37.903   4.869
17865W        W83092  21.662  12.956  11.827
17866W        W83093  33.066  12.296   1.431
17867W        W83094   6.652   2.511  11.950
17868W        W83095  10.746  17.193   0.678
17869W        W83096   3.697   7.111  13.947
17870W        W83097   3.908  23.591   4.717
17871W        W83098  27.024  43.756  10.670
17872W        W83099  39.430  21.302  14.086
17873W        W83100  16.307  29.679   3.263
17874W        W83101   5.481   2.072  11.696
17875W        W83102  11.793  17.659   0.218
17876W        W83103  28.594  42.939  14.009
17877W        W83104  29.962  22.506  14.762
17878W        W83105  22.929   7.082  11.509
17879W        W83106  43.691   9.434  13.887
17880W        W83107  20.903  16.799   3.249
17881W        W83108  44.223  37.833  12.436
17882W        W83109  34.462   1.896  14.830
17883W        W83110   5.274  37.533  13.821
17884W        W83111  18.544  35.323   4.935
17885W        W83112  18.215  10.262  10.320
17886W        W83113  28.006  22.633   0.272
17887W        W83114   8.572  36.491   3.233
17888W        W83115   7.781  24.752   1.559
17889W        W83116  19.177  21.806   4.831
17890W        W83117  25.492  36.022  12.040
17891W        W83118  36.278  28.868  11.510
17892W        W83119  38.159   4.887   0.252
17893W        W83120   9.227  31.018   2.397
17894W        W83121  33.098   2.834  14.743
17895W        W83122  37.677  40.434   3.811
17896W        W83123  36.182  29.585   0.199
17897W        W83124  39.046  21.406   3.261
17898W        W83125  42.412  25.127   2.709
17899W        W83126  36.065  31.396   1.013
17900W        W83127  28.144  25.700  10.686
17901W        W83128  39.266  35.981   4.348
17902W        W83129  38.855   6.927   3.145
17903W        W83130  42.453   6.948   0.771
17904W        W83131  28.902   3.332   1.802
17905W        W83132  18.831  44.791  14.263
17906W        W83133  30.511  25.970   3.833
17907W        W83134  13.143  13.314   0.807
17908W        W83135   3.051  20.031   4.199
17909W        W83136   4.739  11.719   2.358
17910W        W83137   4.020  23.040   4.075
17911W        W83138  25.016   3.995   1.836
17912W        W83139   5.252  28.023   0.216
17913W        W83140   2.419  13.044  10.742
17914W        W83141  29.601  10.818   0.483
17915W        W83142  35.919  29.860   3.184
17916W        W83143  14.260  40.492  12.471
17917W        W83144  18.447  13.231  12.417
17918W        W83145  33.338  35.347   2.384
17919W        W83146  23.247  34.535  13.873
17920W        W83147  38.242  16.802   4.160
17921W        W83148  31.045  43.239   4.188
17922W        W83149  15.391   4.695  11.053
17923W        W83150  18.373  22.493  11.619
17924W        W83151  36.237  13.058   0.765
17925W        W83152  21.909  12.662  11.473
17926W        W83153   4.665  40.730   2.080
17927W        W83154  16.507  33.339   0.726
17928W        W83155  13.951  41.058   0.232
17929W        W83156  37.964   5.428   0.817
17930W        W83157  25.545  20.631  12.047
17931W        W83158  24.261  39.464  12.380
17932W        W83159  36.519  10.074   3.590
17933W        W83160  30.492  23.779   2.748
17934W        W83161  12.709  43.978  13.301
17935W        W83162  32.955  44.721   3.948
17936W        W83163  11.359   0.013  12.918
17937W        W83164  40.520   6.458  11.486
17938W        W83165   6.281  12.657  14.781
17939W        W83166  18.609  26.114   4.676
17940W        W83167   8.398   3.772   1.283
17941W        W83168  29.154  17.214  10.937
17942W        W83169  35.347  33.866   2.871
17943W        W83170   5.119   2.217  11.030
17944W        W83171   3.178  10.212   0.811
17945W        W83172   9.127  35.176   3.535
17946W        W83173   0.312  36.084   3.797
17947W        W83174   4.794  20.783  13.095
17948W        W83175  44.574  27.100  13.953
17949W        W83176  35.752  32.815  14.976
17950W        W83177  10.680   9.353  10.778
17951W        W83178  33.409   3.630  12.131
17952W        W83179  32.925  15.870   0.960
17953W        W83180   3.424  11.295  13.090
17954W        W83181  25.331   2.829   3.330
17955W        W83182  30.639  27.677   3.071
17956W        W83183  27.479   8.675   2.185
17957W        W83184  11.210  17.570  13.085
17958W        W83185  39.060  43.795  11.743
17959W        W83186  38.741  19.645  11.332
17960W        W83187   0.793  15.569  13.873
17961W        W83188  41.690  14.633  11.937
17962W        W83189   0.882   9.824   3.013
17963W        W83190   1.691   9.548  13.117
17964W        W83191  12.401  16.344  14.561
17965W        W83192  23.180  13.846   1.318
17966W        W83193  14.014  43.921  14.238
17967W        W83194  12.554  43.863   1.313
17968W        W83195  33.098  33.067   3.595
17969W        W83196  30.354  38.144  13.839
17970W        W83197  43.961   6.711   2.221
17971W        W83198  38.797  39.020   2.629
17972W        W83199  12.118   4.418  14.102
17973W        W83200  36.713   6.583  13.034
17974W        W83201  20.685  43.037   3.662
17975W        W83202  36.123  35.033   0.844
17976W        W83203   7.153  27.902  12.103
17977W        W83204  32.918  41.153  13.900
17978W        W83205  10.573  12.209   2.709
17979W        W83206  36.512  34.544   0.199
17980W        W83207   9.145  24.976  11.158
17981W        W83208  22.634   6.115  11.621
17982W        W83209  35.003  21.171   1.899
17983W        W83210  31.391  14.469   4.586
17984W        W83211  18.564   9.740  12.965
17985W        W83212  36.800   3.443  11.180
17986W        W83213  41.454  19.813  13.905
17987W        W83214   5.450  31.132   3.688
17988W        W83215  34.360   6.725   3.633
17989W        W83216  39.833  17.189   1.788
17990W        W83217  41.518   3.305  14.346
17991W        W83218  24.654  39.848  10.743
17992W        W83219  21.322  32.961  11.175
17993W        W83220  41.477  39.619   2.734
17994W        W83221  40.797  10.823   1.178
17995W        W83222  35.080  44.891  12.586
17996W        W83223  10.431   4.416  14.794
17997W        W83224  11.828  26.028   0.402
17998W        W83225   9.170   0.409   4.729
17999W        W83226  38.234  39.108   4.625
18000W        W83227  28.514   5.869  10.980
18001W        W83228  30.685   1.966   4.043
18002W        W83229  11.265  15.249   3.728
18003W        W83230   3.466   0.564   4.935
18004W        W83231  16.131  44.796  12.900
18005W        W83232  22.116  35.395   0.336
18006W        W83233  12.721   0.905  14.732
18007W        W83234  39.551  37.548   3.721
18008W        W83235   2.350   5.490   4.784
18009W        W83236   4.231   4.954   4.083
18010W        W83237   7.144  32.050   4.650
18011W        W83238  29.359  36.051   3.626
18012W        W83239  14.239  38.158   4.803
18013W        W83240  14.630  14.571   0.515
18014W        W83241  40.067  39.499   0.938
18015W        W83242  27.687  29.572  13.527
18016W        W83243   2.718  14.997  14.393
18017W        W83244  40.634   7.375   1.216
18018W        W83245  11.882  14.036   1.248
18019W        W83246  36.859   3.374   4.406
18020W        W83247  29.660   8.942   2.364
18021W        W83248  39.792   7.000  13.461
18022W        W83249  36.378  40.011  10.860
18023W        W83250  27.734  34.383  12.943
18024W        W83251   8.869  40.305   2.112
18025W        W83252  11.034  11.905  14.792
18026W        W83253  13.600  39.621   1.057
18027W        W83254  41.165  24.628  10.582
18028W        W83255  17.319  30.140   1.686
18029W        W83256  31.602  13.183   0.414
18030W        W83257  26.810  15.335  10.485
18031W        W83258  30.051  16.629  11.029
18032W        W83259  11.822   7.063   4.165
18033W        W83260  12.087  40.978  11.588
18034W        W83261  10.127  42.271   2.343
18035W        W83262  23.243  15.563  10.710
18036W        W83263  17.676  24.409  12.084
18037W        W83264   3.579  19.074   4.317
18038W        W83265  14.675  12.268  10.781
18039W        W83266   5.926  15.278  12.015
18040W        W83267   5.420  17.222   1.698
18041W        W83268  36.622  18.162   0.798
18042W        W83269  15.570   4.751  13.628
18043W        W83270  27.669  37.017  12.010
18044W        W83271  20.474   1.262   3.162
18045W        W83272   7.381  10.292  14.399
18046W        W83273   5.760   4.141  11.053
18047W        W83274  13.158  32.399  14.478
18048W        W83275   2.317  18.130  12.315
18049W        W83276  25.586  35.969   9.844
18050W        W83277  39.635  33.419   2.278
18051W        W83278  12.545   8.263   3.303
18052W        W83279  28.386  38.743   2.773
18053W        W83280   0.057  33.110   2.127
18054W        W83281  25.039  34.708  13.908
18055W        W83282  27.732  29.609   2.400
18056W        W83283  17.556   7.924  11.207
18057W        W83284  38.407  31.504   2.444
18058W        W83285   5.984   7.788   0.770
18059W        W83286  31.103  10.698   3.796
18060W        W83287  20.725  13.068   1.893
18061W        W83288  27.650  13.351  13.804
18062W        W83289   0.986  33.907   3.710
18063W        W83290   1.659  28.883   3.470
18064W        W83291  15.693  12.802  10.366
18065W        W83292  39.929  26.563   3.731
18066W        W83293   8.233   1.932  13.940
18067W        W83294  44.735   3.554   3.834
18068W        W83295  30.458  26.173   0.364
18069W        W83296   6.917  13.660  12.506
18070W        W83297  31.843  37.892  10.805
18071W        W83298  18.714  15.539  11.947
18072W        W83299  38.706  17.684   1.250
18073W        W83300  26.142  32.608   1.853
18074W        W83301  39.739   7.883   4.777
18075W        W83302  29.492  38.929  14.746
18076W        W83303  32.890  17.166   5.656
18077W        W83304  15.444   6.738  11.280
18078W        W83305  44.834  14.270   4.780
18079W        W83306   4.731  34.559  13.916
18080W        W83307  35.798  44.675   3.764
18081W        W83308  43.203  24.990   0.272
18082W        W83309  19.497  42.294   3.089
18083W        W83310  31.944  25.266  11.227
18084W        W83311  41.447  31.585  11.628
18085W        W83312  35.382   3.058  14.365
18086W        W83313  33.727   8.278  13.541
18087W        W83314  43.788  43.994   1.827
18088W        W83315  11.579  12.683   1.822
18089W        W83316  36.523  31.036   0.262
18090W        W83317  12.481   2.668   2.856
18091W        W83318  27.163  22.011   3.533
18092W        W83319  42.742   4.713  14.934
18093W        W83320   8.646  16.677  13.480
18094W        W83321  41.330  14.746   4.833
18095W        W83322  33.161  34.256  14.799
18096W        W83323  44.438  15.849   2.644
18097W        W83324  14.052  24.036   0.656
18098W        W83325  17.994   8.706   1.145
18099W        W83326  33.008   9.073   3.372
18100W        W83327  32.915  25.123   2.677
18101W        W83328   6.523  40.228   0.395
18102W        W83329  41.522  32.165  13.065
18103W        W83330  10.403   3.980  12.455
18104W        W83331  23.281   8.376   2.735
18105W        W83332  42.657  13.555  14.919
18106W        W83333  25.268  13.955   1.548
18107W        W83334  44.816  41.315   0.279
18108W        W83335   2.926  37.157  12.515
18109W        W83336  41.839   8.882   2.951
18110W        W83337  20.778  20.232   1.638
18111W        W83338   2.041   2.516   0.807
18112W        W83339  22.774  24.607  14.341
18113W        W83340  18.080  42.533  11.943
18114W        W83341   0.724  35.082  10.560
18115W        W83342  19.166  17.503   2.240
18116W        W83343  25.740  20.737  11.591
18117W        W83344   6.286   4.285   2.262
18118W        W83345  11.755  14.144  12.892
18119W        W83346   9.753  24.587  12.103
18120W        W83347   9.747  38.535  13.547
18121W        W83348  40.588  22.206   1.109
18122W        W83349   2.305  34.543  14.997
18123W        W83350  21.794  17.759  10.750
18124W        W83351   8.640  26.026  13.081
18125W        W83352  14.831  43.220   2.184
18126W        W83353  42.780  37.487  10.685
18127W        W83354  40.809  34.967   1.739
18128W        W83355  39.047  35.047  12.040
18129W        W83356   1.204  20.926  14.002
18130W        W83357  35.615   2.474   0.841
18131W        W83358  24.957  20.730   0.986
18132W        W83359  11.755  33.025  12.126
18133W        W83360  40.811  44.187  10.761
18134W        W83361   7.442  33.777   0.348
18135W        W83362   7.557   8.139   3.042
18136W        W83363  24.656   6.755  12.180
18137W        W83364   1.249  32.876   3.263
18138W        W83365  15.070  13.225  10.705
18139W        W83366  33.073  39.419  14.275
18140W        W83367  25.866  17.252   1.435
18141W        W83368  28.641  23.144  12.003
18142W        W83369  33.425   9.302  12.925
18143W        W83370  12.187   8.680  11.446
18144W        W83371  35.892  25.946   3.719
18145W        W83372  29.977  12.594   0.592
18146W        W83373   3.981   5.794   3.711
18147W        W83374  28.391  37.275   1.717
18148W        W83375  44.314  33.853   2.854
18149W        W83376   4.303  11.342  14.555
18150W        W83377  15.620  32.466   1.863
18151W        W83378  12.988   4.280  10.674
18152W        W83379  19.778  25.712  12.049
18153W        W83380  37.277   9.305   0.854
18154W        W83381  34.777   9.818   3.699
18155W        W83382  19.435  13.633   3.720
18156W        W83383   2.619   4.380  12.339
18157W        W83384  18.235  22.557   2.271
18158W        W83385   5.974  30.456  10.674
18159W        W83386  36.028  42.879  14.577
18160W        W83387  24.964  15.889  13.412
18161W        W83388  17.241  23.541   3.408
18162W        W83389  16.229  13.387   0.786
18163W        W83390  28.567  15.906   0.462
18164W        W83391  26.787  27.568   0.982
18165W        W83392  29.578   2.798   2.054
18166W        W83393  32.036  20.039  14.393
18167W        W83394  15.083  17.808  12.497
18168W        W83395  34.934  27.064  11.097
18169W        W83396  29.253  43.058  14.141
18170W        W83397  31.922  11.860   2.362
18171W        W83398   8.976  16.846   4.533
18172W        W83399  36.523  14.254   2.399
18173W        W83400  43.764  26.689  11.110
18174W        W83401  31.687  11.809   1.919
18175W        W83402  37.961  24.600   1.428
18176W        W83403  44.932  31.802  14.449
18177W        W83404  34.199  10.901   1.882
18178W        W83405   7.416  28.718   1.334
18179W        W83406  23.266  26.550   3.348
18180W        W83407  40.465   2.972  12.512
18181W        W83408  22.658   3.720  14.457
18182W        W83409  18.061  13.830   4.147
18183W        W83410   1.043  12.707  12.982
18184W        W83411  17.517   9.230   0.979
18185W        W83412  11.452  19.867  11.203
18186W        W83413  33.630  43.099  10.869
18187W        W83414   8.623   8.490   0.497
18188W        W83415  29.920   4.417   1.450
18189W        W83416  31.032  16.318  10.511
18190W        W83417  33.924  43.072  13.044
18191W        W83418  39.660  24.772   2.774
18192W        W83419  21.092  17.153   0.314
18193W        W83420  43.625  44.562   3.609
18194W        W83421  37.652  38.743   1.370
18195W        W83422   2.404   6.767   3.670
18196W        W83423  41.808   9.919   1.707
18197W        W83424  33.537  35.960  10.616
18198W        W83425  19.537  12.624  12.392
18199W        W83426  26.305   8.129   1.279
18200W        W83427  21.708  11.306  14.933
18201W        W83428   7.378  11.282   1.104
18202W        W83429  28.941  39.933  13.829
18203W        W83430  13.101  17.565   2.403
18204W        W83431  39.417  20.311  13.783
18205W        W83432  39.069   4.337   4.998
18206W        W83433  28.672   4.862   0.541
18207W        W83434  38.024  33.765   1.709
18208W        W83435  31.873  35.796  10.789
18209W        W83436  13.196  12.127  12.852
18210W        W83437   1.265   6.357   0.482
18211W        W83438  10.248   8.053   5.016
18212W        W83439  14.289  31.961   1.218
18213W        W83440  21.075  32.576   4.751
18214W        W83441  10.746   9.755   4.713
18215W        W83442  10.252   5.690  12.099
18216W        W83443  30.492  39.063  12.841
18217W        W83444   1.718  10.141   1.614
18218W        W83445  38.799  41.000  12.255
18219W        W83446  26.986   3.490  12.961
18220W        W83447  24.841  16.138  12.951
18221W        W83448  36.052  10.472  14.791
18222W        W83449  41.979  11.458  14.882
18223W        W83450  21.372  26.479  12.409
18224W        W83451  42.525  13.219   4.115
18225W        W83452  24.683   1.297  13.328
18226W        W83453  19.273  30.989  11.636
18227W        W83454  40.445  33.878   2.558
18228W        W83455  44.360  20.369   4.416
18229W        W83456  14.712  20.598   1.867
18230W        W83457  27.792  15.272  10.187
18231W        W83458  27.698  15.711  14.261
18232W        W83459  23.053   3.930   1.829
18233W        W83460  14.962   3.199   1.797
18234W        W83461  17.690  21.202   4.364
18235W        W83462  24.192   1.791  13.645
18236W        W83463  12.813  22.075   3.505
18237W        W83464  32.456  24.163  10.737
18238W        W83465  24.820  20.243   3.627
18239W        W83466   6.619  42.655  11.722
18240W        W83467   7.138  16.666  11.168
18241W        W83468  39.545  13.578   2.167
18242W        W83469  22.064  12.224   0.687
18243W        W83470   9.411  24.628   4.722
18244W        W83471   2.561  27.660  10.212
18245W        W83472   5.609   9.117   1.709
18246W        W83473  42.346  38.403  12.422
18247W        W83474  10.898   7.289  13.937
18248W        W83475  38.385  29.991  11.917
18249W        W83476  14.073  24.104  14.266
18250W        W83477  10.623  39.013  14.454
18251W        W83478  37.357   6.020   5.160
18252W        W83479  37.561  22.472  14.099
18253W        W83480  27.944  39.810   2.362
18254W        W83481   0.822  31.867   4.732
18255W        W83482  22.498  19.747   3.550
18256W        W83483   8.394  21.485  13.946
18257W        W83484  44.835   2.923  13.337
18258W        W83485   6.348   3.507   0.940
18259W        W83486   3.966  43.254   1.880
18260W        W83487  35.900  26.892   4.665
18261W        W83488  23.860  15.135   3.314
18262W        W83489  11.635   7.214   0.899
18263W        W83490   3.172  39.094  14.837
18264W        W83491  10.368  42.000   0.904
18265W        W83492  20.837  41.179   4.515
18266W        W83493   8.239  35.323   2.314
18267W        W83494  11.886   0.333  11.871
18268W        W83495  22.621  29.049   4.461
18269W        W83496  42.875  16.699  13.358
18270W        W83497  17.065  25.967  10.533
18271W        W83498   7.318  10.344  10.443
18272W        W83499  35.545  28.579   2.668
18273W        W83500   6.400  41.738   1.684
18274W        W83501  44.183   5.863  12.590
18275W        W83502  30.616  12.104   2.842
18276W        W83503  10.224  36.026  12.482
18277W        W83504  21.789  16.879   1.980
18278W        W83505   0.431   8.775   1.018
18279W        W83506   2.734  43.201   1.265
18280W        W83507  11.851  37.840  11.914
18281W        W83508  26.649  37.349   2.344
18282W        W83509  37.191  11.789  14.969
18283W        W83510  32.146  19.123  12.610
18284W        W83511  23.968  30.072  10.741
18285W        W83512   3.025  39.088   3.607
18286W        W83513  16.608   8.016  11.009
18287W        W83514  28.822  42.884   4.004
18288W        W83515  44.686  42.100  13.565
18289W        W83516  22.450   9.028  12.027
18290W        W83517  38.066  10.247   3.595
18291W        W83518   4.972  23.217  13.057
18292W        W83519  42.043   2.021   0.279
18293W        W83520  32.556  17.960  12.899
18294W        W83521  29.221  21.233  14.786
18295W        W83522  41.592   1.873  10.477
18296W        W83523  11.861  39.321  13.840
18297W        W83524  43.627   8.635   1.279
18298W        W83525  18.683  38.978   1.940
18299W        W83526   2.234  22.553   0.374
18300W        W83527  12.768  18.087  12.347
18301W        W83528  26.955   2.828   2.798
18302W        W83529  39.739  36.409   3.698
18303W        W83530  39.484  40.046   0.089
18304W        W83531  15.524  26.112  11.141
18305W        W83532  22.613  15.166  11.267
18306W        W83533  39.824  44.990  13.127
18307W        W83534  31.583  36.201   2.292
18308W        W83535  18.366  13.235  13.842
18309W        W83536  26.960  17.077  11.150
18310W        W83537   1.214   6.755  12.033
18311W        W83538  17.185  27.267  12.871
18312W        W83539  20.060  18.602  13.599
18313W        W83540   5.774  43.924   1.977
18314W        W83541  35.566   6.334   4.272
18315W        W83542  28.653  39.351   4.079
18316W        W83543  23.597   6.888   2.678
18317W        W83544   5.302  18.022   0.021
18318W        W83545  29.891  33.772   4.949
18319W        W83546   2.010   4.392   2.349
18320W        W83547  42.264  36.543  12.331
18321W        W83548   1.985   8.899   2.889
18322W        W83549  36.626   8.423   4.258
18323W        W83550   9.413   8.971   3.756
18324W        W83551  39.824  15.566  10.725
18325W        W83552  25.060  19.854  12.939
18326W        W83553  37.874  40.025   0.797
18327W        W83554  13.301   3.438   3.847
18328W        W83555  34.822  37.468  13.960
18329W        W83556  16.670  38.000  12.106
18330W        W83557  31.565   5.359  11.805
18331W        W83558  10.782   2.967  10.785
18332W        W83559  44.842  38.091  13.849
18333W        W83560   2.477  39.653  11.044
18334W        W83561  12.710  23.177  13.410
18335W        W83562  10.858   8.710  11.794
18336W        W83563  43.215   8.190   0.714
18337W        W83564  20.592  32.363   2.124
18338W        W83565  23.612  31.142  12.360
18339W        W83566  15.194  42.570   3.568
18340W        W83567  24.254  16.405  13.619
18341W        W83568  44.948  15.650   2.011
18342W        W83569  21.496  38.874  10.702
18343W        W83570   1.252  25.825   0.796
18344W        W83571  27.058   1.416   1.971
18345W        W83572  23.878  21.597   0.762
18346W        W83573  14.468   3.678   1.305
18347W        W83574  24.808  31.364  11.647
18348W        W83575   7.756  10.672  13.927
18349W        W83576  38.934  28.207   4.663
18350W        W83577  25.480  17.062   3.438
18351W        W83578  42.906   2.841  14.019
18352W        W83579  10.418  21.902  13.875
18353W        W83580  32.613  27.304   3.178
18354W        W83581  13.089  18.561   3.164
18355W        W83582  18.053  32.199   0.372
18356W        W83583  24.687  44.241   1.505
18357W        W83584  17.549  29.213  12.888
18358W        W83585  37.932   6.956  12.196
18359W        W83586  15.625  28.982  14.857
18360W        W83587  39.042  18.850   4.642
18361W        W83588  10.403   7.253  11.228
18362W        W83589   4.104  35.949   4.090
18363W        W83590   6.769  16.377  12.927
18364W        W83591   8.884  21.005  14.330
18365W        W83592  33.026  31.893   2.732
18366W        W83593  32.914   8.970   2.227
18367W        W83594  27.181  34.354  12.916
18368W        W83595   0.250  34.587  13.807
18369W        W83596   6.188  42.246   2.795
18370W        W83597  15.289  39.602   1.811
18371W        W83598  15.756  21.089   0.917
18372W        W83599  23.531  31.049  10.684
18373W        W83600  12.710  41.720  10.689
18374W        W83601   9.731   1.749   4.952
18375W        W83602  10.772   5.009   0.526
18376W        W83603  41.538  29.059  12.173
18377W        W83604   4.832  34.945   3.722
18378W        W83605  40.961   8.782   2.893
18379W        W83606   7.133   5.943  11.673
18380W        W83607  12.120  30.436   3.567
18381W        W83608   7.210  40.965   2.866
18382W        W83609  22.792  44.728  10.103
18383W        W83610  30.954  14.652  12.883
18384W        W83611  20.503  38.463   1.311
18385W        W83612  31.896  14.693   0.263
18386W        W83613   8.290  24.926   1.616
18387W        W83614   2.176   8.831   3.840
18388W        W83615  41.876   2.699  14.035
18389W        W83616  30.827  31.874  14.932
18390W        W83617  41.959  19.630   2.248
18391W        W83618  40.408  35.854  13.514
18392W        W83619  31.280  41.508  13.394
18393W        W83620  37.416  11.380   4.695
18394W        W83621  33.578  36.303   0.365
18395W        W83622  23.196   3.005  10.950
18396W        W83623   2.738  38.589   3.327
18397W        W83624   2.535  20.040  12.090
18398W        W83625  24.196  34.142  14.068
18399W        W83626  27.489   2.683  12.172
18400W        W83627   6.835   9.805  11.231
18401W        W83628   4.140  11.197   1.296
18402W        W83629   7.428   7.685  14.359
18403W        W83630  17.540  35.466   2.192
18404W        W83631  17.039   6.356  13.539
18405W        W83632  43.078  27.103  14.052
18406W        W83633  36.751  44.934  12.015
18407W        W83634  37.503  42.810   0.459
18408W        W83635  21.990   0.220  12.409
18409W        W83636  42.010  34.982  12.476
18410W        W83637  28.099   7.939   4.585
18411W        W83638  10.758  28.651   2.929
18412W        W83639  13.972  44.738   3.296
18413W        W83640  36.014  31.167   0.341
18414W        W83641  32.157  42.248   2.588
18415W        W83642  28.489  42.924   4.447
18416W        W83643  39.406   1.657  14.754
18417W        W83644   4.366  32.916   1.331
18418W        W83645  37.679  13.837  10.733
18419W        W83646  38.310  24.672  11.259
18420W        W83647  35.591  22.251   1.242
18421W        W83648   1.927   4.192  12.601
18422W        W83649  15.011  36.373   3.387
18423W        W83650   7.903  39.636  13.630
18424W        W83651  35.439  14.069   4.648
18425W        W83652  21.851  29.202   4.746
18426W        W83653  23.223  33.079  12.631
18427W        W83654  37.287  30.992  13.931
18428W        W83655  29.910   4.839  11.625
18429W        W83656  17.228  25.163   3.618
18430W        W83657   1.849  38.835   1.619
18431W        W83658   8.745  10.905   2.746
18432W        W83659  36.227  26.081   1.122
18433W        W83660  28.213  14.128  12.454
18434W        W83661  37.086  14.188  10.770
18435W        W83662  12.128  24.455  12.649
18436W        W83663  44.965  25.880  13.199
18437W        W83664  33.286  35.441  14.941
18438W        W83665  38.375  23.775  11.012
18439W        W83666   5.931  40.837   4.517
18440W        W83667  11.770  15.863  10.288
18441W        W83668   5.291  32.458  12.628
18442W        W83669  11.782  20.806  14.890
18443W        W83670  18.597   6.648  11.953
18444W        W83671  41.976  23.756  13.043
18445W        W83672  15.394  20.107  14.042
18446W        W83673   6.387  38.978   3.254
18447W        W83674  11.771   3.646  15.000
18448W        W83675  14.215  27.269  14.029
18449W        W83676  27.522  43.281   2.766
18450W        W83677   8.386  13.764   1.700
18451W        W83678  25.742  29.595   3.608
18452W        W83679  31.611  11.379  12.616
18453W        W83680   4.019  17.530  11.256
18454W        W83681  16.668  13.211   2.795
18455W        W83682  21.272  44.451  13.524
18456W        W83683  26.106  21.014  14.374
18457W        W83684  23.474  18.246   2.797
18458W        W83685  32.544  39.430   2.764
18459W        W83686  38.620   8.800  14.467
18460W        W83687  23.802  40.399   1.768
18461W        W83688  12.577  21.682   2.517
18462W        W83689  20.074  40.869  14.025
18463W        W83690  22.508  15.285   4.751
18464W        W83691  29.898  41.783  13.573
18465W        W83692  11.120  44.542  13.055
18466W        W83693  33.681  43.568  11.095
18467W        W83694  36.395  22.350  13.023
18468W        W83695  44.421  14.396   1.200
18469W        W83696  41.791  17.817  14.472
18470W        W83697  40.360  10.751   2.774
18471W        W83698  39.051   8.851  11.611
18472W        W83699   3.695   3.001  14.286
18473W        W83700  34.339  32.537   4.306
18474W        W83701  20.538  39.507  12.496
18475W        W83702  33.516  43.321   4.320
18476W        W83703  16.816  33.039   4.096
18477W        W83704   6.241  10.140  13.857
18478W        W83705  16.822  36.202   4.169
18479W        W83706  38.795  40.246   0.675
18480W        W83707  14.753  12.403  11.687
18481W        W83708   3.881  42.136  13.363
18482W        W83709   6.966   3.279   0.179
18483W        W83710   5.633  41.236  13.047
18484W        W83711  22.099  17.291  11.447
18485W        W83712  22.854  44.790   3.665
18486W        W83713  36.374  14.193  13.561
18487W        W83714   9.198  40.240   4.313
18488W        W83715   3.031  20.629  11.249
18489W        W83716   2.415   4.739   2.393
18490W        W83717  15.260  14.540   3.265
18491W        W83718  23.578   9.267   4.109
18492W        W83719  43.141  18.492  13.215
18493W        W83720  28.083  39.357  10.549
18494W        W83721  31.690  32.172  11.384
18495W        W83722   1.301  12.647  14.814
18496W        W83723  34.598  24.627  12.035
18497W        W83724  19.634  31.424   0.936
18498W        W83725  26.650  20.035   0.835
18499W        W83726  34.491  41.315   3.121
18500W        W83727  35.359  11.304  10.522
18501W        W83728   8.932   8.637  13.021
18502W        W83729  25.466   8.034   0.905
18503W        W83730  30.935  34.198  12.416
18504W        W83731  34.976  21.653   1.679
18505W        W83732  25.888   7.836   1.732
18506W        W83733  30.592  10.680   2.041
18507W        W83734  14.514  24.555  14.866
18508W        W83735  26.846  19.755   1.234
18509W        W83736  17.825  38.047  11.506
18510W        W83737  12.943  35.325   3.345
18511W        W83738  44.752  28.292   9.971
18512W        W83739  19.740   2.897  12.089
18513W        W83740  42.233   4.687   0.092
18514W        W83741  32.930  31.022   2.212
18515W        W83742  43.042  38.487   4.577
18516W        W83743  21.205   2.671  14.922
18517W        W83744   9.824  37.999   2.128
18518W        W83745  12.277  18.878  14.948
18519W        W83746   2.253   5.746   2.828
18520W        W83747  26.421  38.221   2.348
18521W        W83748  35.349  15.528  11.231
18522W        W83749  41.471  23.809   3.679
18523W        W83750  25.709  30.607  12.559
18524W        W83751   7.111  42.929   3.792
18525W        W83752   5.505   6.689   1.730
18526W        W83753  14.838  26.244  12.198
18527W        W83754   3.496  13.644   2.719
18528W        W83755  12.207   6.148   3.368
18529W        W83756  19.572   3.158   5.100
18530W        W83757  13.458  17.261   0.703
18531W        W83758  19.556  20.011   4.643
18532W        W83759  11.338  10.558   2.821
18533W        W83760   9.188  29.183   4.545
18534W        W83761  39.096   0.036  10.760
18535W        W83762  16.873   8.557  11.983
18536W        W83763  38.965  18.155  11.714
18537W        W83764  10.121  38.866  14.777
18538W        W83765   9.617   4.495   2.348
18539W        W83766  15.424  10.200  11.611
18540W        W83767  26.968   7.307   4.164
18541W        W83768  22.290   6.756  13.565
18542W        W83769   4.210   2.297   2.278
18543W        W83770  18.553  36.506   4.101
18544W        W83771  31.174  33.754  10.374
18545W        W83772  29.104   8.872  12.959
18546W        W83773  16.818   3.373   2.297
18547W        W83774  12.376  38.917   3.764
18548W        W83775  36.124   5.911   2.215
18549W        W83776  33.004  19.347  13.097
18550W        W83777   5.477  29.913   2.303
18551W        W83778   5.857  43.262   4.879
18552W        W83779  31.417  20.565  11.206
18553W        W83780  31.973  44.046  11.922
18554W        W83781  28.546  10.930   3.298
18555W        W83782  11.849  23.279  13.736
18556W        W83783  16.209   4.507   2.736
18557W        W83784  26.509  10.219  11.338
18558W        W83785  14.577   1.515  12.560
18559W        W83786  13.602  36.329  11.517
18560W        W83787  12.605  43.720   0.414
18561W        W83788  17.641   0.351  13.012
18562W        W83789  12.402  18.312   4.687
18563W        W83790  10.811   2.807  11.265
18564W        W83791  36.494  29.470   4.368
18565W        W83792   9.175  34.502  12.456
18566W        W83793  28.898  26.520   1.847
18567W        W83794  22.475  35.156  14.309
18568W        W83795   1.549  23.654  10.502
18569W        W83796  40.061   3.634  14.004
18570W        W83797   8.615   6.697  12.913
18571W        W83798   9.126  33.498   2.864
18572W        W83799   8.660  12.296  14.014
18573W        W83800  13.653  13.293  14.896
18574W        W83801   4.704   8.626   3.357
18575W        W83802  27.122  13.360  14.841
18576W        W83803  20.611  28.866  12.949
18577W        W83804  15.822  17.699   3.726
18578W        W83805  27.663  43.468  11.189
18579W        W83806   8.407   5.250   1.303
18580W        W83807  31.840  33.560  10.301
18581W        W83808  32.421  11.977  14.499
18582W        W83809  36.542  28.599   4.751
18583W        W83810   7.753   6.708   0.952
18584W        W83811  28.629  35.666   4.940
18585W        W83812  21.801  34.872   1.597
18586W        W83813  32.415  25.017   1.937
18587W        W83814  10.605   6.972  10.688
18588W        W83815   7.916  23.510  12.460
18589W        W83816  14.945  19.472  14.748
18590W        W83817  22.132  18.960   1.647
18591W        W83818  23.066  41.249   3.274
18592W        W83819   8.376  21.292   2.366
18593W        W83820  38.866  16.170   1.411
18594W        W83821  28.802  21.239  13.051
18595W        W83822  33.796  42.054  14.362
18596W        W83823   6.755  42.944   4.147
18597W        W83824  15.839  18.851  14.663
18598W        W83825  41.070  26.046   1.639
18599W        W83826   3.499  39.340   3.720
18600W        W83827  40.943   5.392   1.910
18601W        W83828   2.135   3.379   0.378
18602W        W83829  36.913  30.330  12.868
18603W        W83830  42.932  19.547  12.444
18604W        W83831   8.806  18.643  10.961
18605W        W83832  25.927  35.012   0.297
18606W        W83833   2.160  27.592   0.829
18607W        W83834  39.850  29.011   4.345
18608W        W83835  42.222   4.317   3.105
18609W        W83836   2.070  21.204  14.306
18610W        W83837  41.698   7.739   3.191
18611W        W83838   8.324  30.454  13.502
18612W        W83839  31.422  28.534  12.449
18613W        W83840  11.413  26.453   4.209
18614W        W83841   1.306  27.665  12.950
18615W        W83842  26.847  26.703   4.330
18616W        W83843   1.009   8.592  11.455
18617W        W83844   8.844   8.152  12.156
18618W        W83845   1.759   1.008  13.907
18619W        W83846  19.038  40.058  12.983
18620W        W83847  41.869  20.093   3.338
18621W        W83848  18.260   4.459   3.152
18622W        W83849  23.108  40.916  12.367
18623W        W83850   9.781  37.336  10.716
18624W        W83851  10.323  40.394  10.397
18625W        W83852   1.826  33.902   0.291
18626W        W83853  12.761  36.328  14.756
18627W        W83854  28.615   7.171   4.466
18628W        W83855   6.266  27.616  11.916
18629W        W83856  16.812  15.242  11.698
18630W        W83857  43.828   1.791   0.516
18631W        W83858  34.779  11.532   4.383
18632W        W83859  40.333  11.826   1.225
18633W        W83860  10.412  27.471  12.705
18634W        W83861   7.572  20.675   1.110
18635W        W83862  16.390  34.738  11.068
18636W        W83863   0.856  21.773  14.724
18637W        W83864  40.370   3.309  10.268
18638W        W83865  13.291  32.669   0.391
18639W        W83866  34.864  17.295   9.874
18640W        W83867  41.588   4.974  12.889
18641W        W83868  20.590  29.567   3.191
18642W        W83869  31.482  21.515   4.678
18643W        W83870  40.317  42.928  11.933
18644W        W83871   6.645  14.441   4.247
18645W        W83872  17.589  29.106   4.580
18646W        W83873  38.398   4.412   2.393
18647W        W83874  18.517  30.860   5.044
18648W        W83875  34.230  43.945   4.976
18649W        W83876  13.638  14.217   3.271
18650W        W83877  32.075  31.352   4.151
18651W        W83878  11.658   9.133   1.879
18652W        W83879  43.605  22.521   3.739
18653W        W83880   8.148  22.721   2.291
18654W        W83881  40.858   2.849   1.509
18655W        W83882  43.714  28.140  10.702
18656W        W83883   2.192  24.727   1.886
18657W        W83884  27.113  38.875  12.065
18658W        W83885  36.933  32.150   2.183
18659W        W83886  23.015  27.961  13.834
18660W        W83887  31.343  35.389  13.594
18661W        W83888  10.465  11.271  12.465
18662W        W83889  34.396  21.683   2.337
18663W        W83890  27.233   4.987  11.628
18664W        W83891  29.424  18.482  13.514
18665W        W83892  12.535  33.120   1.382
18666W        W83893  20.513   5.324  12.456
18667W        W83894   5.589   9.314   2.223
18668W        W83895  20.251  43.322   0.909
18669W        W83896  44.304  23.940  12.022
18670W        W83897  19.742   7.433   2.633
18671W        W83898  41.127  25.967   3.291
18672W        W83899  13.134  30.941  10.717
18673W        W83900  12.281   5.428  11.711
18674W        W83901   2.492   4.695  11.783
18675W        W83902  35.266  15.909  11.789
18676W        W83903  18.043  36.309  12.997
18677W        W83904  36.662   2.408  14.779
18678W        W83905  23.273  37.768  14.379
18679W        W83906   1.273  32.178  13.810
18680W        W83907  43.730  27.066  10.311
18681W        W83908  28.082  39.884  14.375
18682W        W83909   7.741  26.438   0.700
18683W        W83910  44.679  38.073  12.432
18684W        W83911   6.076   2.695  12.367
18685W        W83912  38.562  12.285  11.640
18686W        W83913  19.153  40.907  13.428
18687W        W83914  25.200  29.868   0.789
18688W        W83915  28.577  21.334   0.435
18689W        W83916  26.254  37.633  13.968
18690W        W83917  31.066  17.710  12.969
18691W        W83918  10.827  41.257  12.147
18692W        W83919  42.507  38.580  11.964
18693W        W83920  17.915  23.731   0.682
18694W        W83921  42.970  34.994  12.838
18695W        W83922  16.581  44.342  13.421
18696W        W83923   1.863  31.037  11.381
18697W        W83924  25.956  30.002   2.369
18698W        W83925  27.667  23.886  10.448
18699W        W83926  18.790  43.677  12.339
18700W        W83927  22.152  20.235   3.715
18701W        W83928   0.899  30.775  10.191
18702W        W83929  10.367  43.560  10.602
18703W        W83930  17.357  39.463  12.593
18704W        W83931  18.256   4.050  10.600
18705W        W83932  41.578   7.748   1.347
18706W        W83933   2.733  19.794  11.617
18707W        W83934   2.967   9.671   3.237
18708W        W83935  15.251  30.998  10.812
18709W        W83936  23.292  36.188  11.188
18710W        W83937  30.366  35.391  10.466
18711W        W83938  39.845  15.162  11.130
18712W        W83939  22.941  37.290   4.571
18713W        W83940  32.959  11.067  12.611
18714W        W83941  16.998  42.069   1.872
18715W        W83942  21.753   0.003  13.963
18716W        W83943  44.733  36.735   0.869
18717W        W83944  36.371  37.555   0.929
18718W        W83945   5.754   3.452   2.238
18719W        W83946  42.254   7.714  10.729
18720W        W83947  10.835  36.855  11.124
18721W        W83948  15.618   5.279   0.763
18722W        W83949   3.345  36.732  12.420
18723W        W83950  14.877  16.043  11.603
18724W        W83951  14.562  16.001   0.825
18725W        W83952  19.566  12.665  13.809
18726W        W83953  39.803  19.633  14.254
18727W        W83954   5.836   1.909   4.160
18728W        W83955   6.622   9.571  14.446
18729W        W83956   4.928  15.571  10.972
18730W        W83957  33.717  13.157   1.214
18731W        W83958  31.836   9.459   1.334
18732W        W83959   3.902   1.533  13.349
18733W        W83960  29.709   4.711   5.139
18734W        W83961   4.386  29.400  11.017
18735W        W83962  43.092   7.461  11.681
18736W        W83963  14.198  29.971  10.701
18737W        W83964   0.811   2.547  11.497
18738W        W83965   7.882   4.309  13.453
18739W        W83966   7.269  41.524  12.396
18740W        W83967   3.925  37.449   4.969
18741W        W83968  18.230  13.262  11.945
18742W        W83969  19.317   2.074  12.447
18743W        W83970  36.393   7.623   4.762
18744W        W83971  25.189  22.223  12.260
18745W        W83972  43.531  20.527  12.952
18746W        W83973  15.281  23.311  11.121
18747W        W83974  42.937  42.334  13.897
18748W        W83975  20.065  31.604  12.905
18749W        W83976  15.915  14.502   1.439
18750W        W83977  23.778  35.797   2.763
18751W        W83978  12.410  27.451  12.169
18752W        W83979   6.210  14.798   4.252
18753W        W83980  31.209  36.426   1.158
18754W        W83981  36.061  12.615   0.558
18755W        W83982  37.140  14.767   4.444
18756W        W83983  25.059  22.413  13.832
18757W        W83984  43.898  25.154   3.319
18758W        W83985  16.365  33.642   0.342
18759W        W83986  13.468  12.630  14.115
18760W        W83987  29.984  33.395  14.598
18761W        W83988  12.593  21.910   0.954
18762W        W83989  18.530  27.393   0.303
18763W        W83990  14.803  30.549   0.398
18764W        W83991  13.582  19.150   3.598
18765W        W83992  38.196  33.649   3.239
18766W        W83993   1.244  29.440  11.552
18767W        W83994  33.478  40.481   2.793
18768W        W83995   4.394   5.855  11.228
18769W        W83996  19.838  19.740  13.553
18770W        W83997  39.885  23.118  13.956
18771W        W83998  17.291  19.535   0.470
18772W        W83999  21.152  17.110  11.820
18773W        W84000  35.587  44.912  13.418
18774W        W84001  22.526  41.734   0.235
18775W        W84002  42.108  27.464  12.886
18776W        W84003  11.435  42.558  13.070
18777W        W84004  21.047  33.674   1.150
18778W        W84005  44.495  14.596  14.401
18779W        W84006  41.629  17.139   2.766
18780W        W84007  13.631  20.552  14.265
18781W        W84008  41.154   9.370   0.879
18782W        W84009  19.786  19.325   3.707
18783W        W84010  20.255  13.153  10.727
18784W        W84011  33.330  35.627   1.946
18785W        W84012  34.256  38.534   4.521
18786W        W84013   5.028  22.056   2.636
18787W        W84014  42.483  12.616  14.819
18788W        W84015  35.992  28.393   0.661
18789W        W84016  27.090  37.572   3.163
18790W        W84017  23.058   0.698  12.997
18791W        W84018  30.967  15.833   2.721
18792W        W84019  17.084  26.611   5.143
18793W        W84020  33.818  34.342   0.423
18794W        W84021  42.638  12.727   4.058
18795W        W84022  23.903  11.039   2.771
18796W        W84023  21.884  34.126  11.981
18797W        W84024  38.618  30.605   1.431
18798W        W84025  17.628  34.503  10.909
18799W        W84026  14.334  15.321   4.126
18800W        W84027  12.748   7.955   0.942
18801W        W84028  38.606  21.436  10.197
18802W        W84029  17.509   9.281  14.317
18803W        W84030   3.258  16.872   2.796
18804W        W84031  24.683   3.952  12.918
18805W        W84032  38.102  33.936  14.458
18806W        W84033  25.658  44.774  11.514
18807W        W84034  10.221  40.798  14.501
18808W        W84035  24.626   7.936  14.296
18809W        W84036  11.384   4.175  13.354
18810W        W84037   7.281  37.030  13.880
18811W        W84038  37.990  40.089   2.556
18812W        W84039  15.668   2.472  13.789
18813W        W84040  44.361  19.674  13.735
18814W        W84041  19.659   3.742   1.895
18815W        W84042   1.962   1.033  11.477
18816W        W84043  22.806   6.592  11.572
18817W        W84044  12.323  16.602   9.771
18818W        W84045  42.278  39.799   3.592
18819W        W84046  15.308  35.899  14.931
18820W        W84047  30.177  24.300  13.551
18821W        W84048   2.824  14.866   1.721
18822W        W84049  43.679  44.963   3.974
18823W        W84050   2.244  34.854   3.183
18824W        W84051  14.354  19.985   1.440
18825W        W84052  30.971  18.354   4.236
18826W        W84053  31.530  40.804  11.488
18827W        W84054  15.165  38.815   4.064
18828W        W84055  30.113   4.019   0.480
18829W        W84056  43.982  22.925  13.955
18830W        W84057  17.283  29.512   0.504
18831W        W84058  44.634  27.548   3.747
18832W        W84059   0.159  24.174   4.056
18833W        W84060  36.448   1.723   0.450
18834W        W84061  31.900  13.276   1.388
18835W        W84062  30.764  18.366  13.258
18836W        W84063  42.037   6.039  11.135
18837W        W84064  23.492  25.197  12.528
18838W        W84065  25.388   9.382  14.550
18839W        W84066   8.227  25.083  13.804
18840W        W84067  32.510  41.823   1.870
18841W        W84068  28.248  12.430  14.635
18842W        W84069  43.785  27.674   2.369
18843W        W84070  37.269  35.337  13.375
18844W        W84071  37.865  19.458   4.081
18845W        W84072  10.701   6.785   4.563
18846W        W84073  38.630  38.122   3.573
18847W        W84074  14.006  22.529   0.166
18848W        W84075   5.315  35.123   2.910
18849W        W84076   3.217  21.151  13.460
18850W        W84077  30.421  42.460  12.011
18851W        W84078  33.028  43.457   3.021
18852W        W84079   8.557   2.079  14.300
18853W        W84080  16.245  31.473  12.017
18854W        W84081  17.971  19.211  13.291
18855W        W84082  20.939  21.833   2.496
18856W        W84083  22.140  13.037   1.593
18857W        W84084  38.034  34.389  11.483
18858W        W84085   3.076  21.669  12.523
18859W        W84086  12.721  43.707   4.178
18860W        W84087  11.210  12.247   0.633
18861W        W84088   2.776  29.602   1.434
18862W        W84089  34.476  27.111  11.329
18863W        W84090  25.104  13.614   1.181
18864W        W84091  30.483  22.965   1.440
18865W        W84092   5.371  14.120   2.309
18866W        W84093   2.887  35.077   2.912
18867W        W84094  32.692  21.008   2.275
18868W        W84095  23.125  23.251   2.199
18869W        W84096  25.488  10.916   1.458
18870W        W84097  14.819  35.306  13.283
18871W        W84098  38.587  40.568  13.921
18872W        W84099  23.474  18.525  13.640
18873W        W84100  44.972  10.094  13.525
18874W        W84101  16.819  12.702   2.706
18875W        W84102   2.635  44.681  11.048
18876W        W84103  17.146   5.425   2.079
18877W        W84104   5.869   3.476  14.356
18878W        W84105  37.360  35.560  14.753
18879W        W84106  15.999  27.046   3.109
18880W        W84107  37.342   3.225   0.337
18881W        W84108  11.346  12.312  11.336
18882W        W84109  21.066   7.166  14.350
18883W        W84110  11.170  10.380  14.838
18884W        W84111   4.738  13.077   4.612
18885W        W84112  15.574   9.801   0.167
18886W        W84113  34.156  30.252   1.135
18887W        W84114   4.601   0.047  14.458
18888W        W84115  39.925  39.277  11.941
18889W        W84116  10.390   4.827  10.023
18890W        W84117  32.121   3.009   4.181
18891W        W84118  32.094  40.425  11.642
18892W        W84119  17.636   4.782   4.286
18893W        W84120  15.779  31.513   0.277
18894W        W84121  26.737  28.513  13.945
18895W        W84122  40.038  16.264   1.848
18896W        W84123  13.300  11.871   3.216
18897W        W84124   4.755  31.575  10.725
18898W        W84125  40.989  24.039   1.353
18899W        W84126  18.003  19.552   2.306
18900W        W84127  35.597  29.147   0.765
18901W        W84128  13.779   5.185   3.630
18902W        W84129  43.063  42.380  14.798
18903W        W84130  34.872  35.086  13.257
18904W        W84131  29.296  21.203   2.696
18905W        W84132  34.357  27.598  13.590
18906W        W84133  44.891   2.427  13.597
18907W        W84134  14.082  11.234  10.928
18908W        W84135   2.824   2.440   4.330
18909W        W84136  32.342   2.805  14.277
18910W        W84137  39.274  36.196   1.816
18911W        W84138  38.977  44.772  11.585
18912W        W84139  24.999  32.984   2.468
18913W        W84140  25.279  22.243   3.239
18914W        W84141  35.488  27.187   1.297
18915W        W84142  31.626  12.273   1.703
18916W        W84143  19.627  26.093  13.398
18917W        W84144  44.365  17.564  12.023
18918W        W84145  38.293  24.766  12.590
18919W        W84146   6.017  16.601  14.748
18920W        W84147  41.126  34.498  12.592
18921W        W84148   2.339  38.503   2.705
18922W        W84149  32.932  32.889  14.378
18923W        W84150  13.746   7.634  11.145
18924W        W84151  34.496  13.012   4.678
18925W        W84152  26.747  11.347   3.880
18926W        W84153  43.790  11.573   3.731
18927W        W84154  40.512   2.129   2.820
18928W        W84155  10.787  23.618   0.545
18929W        W84156  22.018  34.465   3.690
18930W        W84157   5.810   0.853   3.641
18931W        W84158  23.102   5.455   4.857
18932W        W84159  30.635  42.811  10.731
18933W        W84160  39.411  26.266  12.579
18934W        W84161  38.084  11.819   1.737
18935W        W84162  15.442   1.521   3.290
18936W        W84163  40.180   7.485   5.006
18937W        W84164  12.599  38.285  11.138
18938W        W84165  10.207  11.175  11.587
18939W        W84166  34.485   2.878  12.754
18940W        W84167   4.780  13.271  10.753
18941W        W84168  14.605  42.046  11.584
18942W        W84169  18.485  44.489   1.303
18943W        W84170   5.843  41.888   2.553
18944W        W84171  27.427   9.764   3.064
18945W        W84172  44.796   4.487   2.949
18946W        W84173  27.986  17.110   1.906
18947W        W84174  13.324  19.310   3.067
18948W        W84175  22.056  26.963  13.629
18949W        W84176  28.444  38.378  10.670
18950W        W84177   6.636  16.081   3.188
18951W        W84178  39.894  10.227  10.358
18952W        W84179  19.698  12.596  14.945
18953W        W84180  35.647  42.489   3.025
18954W        W84181  35.169  18.207   2.698
18955W        W84182  27.214  18.606  12.571
18956W        W84183  18.855   3.683  12.030
18957W        W84184   0.832  22.120   1.777
18958W        W84185  42.076   8.782  14.236
18959W        W84186   4.014   5.721   1.389
18960W        W84187  28.052   8.226   0.245
18961W        W84188  41.384  36.408   1.644
18962W        W84189   0.021  44.388   5.177
18963W        W84190  41.720  26.438   9.507
18964W        W84191  23.793  21.650   1.691
18965W        W84192  11.195  21.688   0.338
18966W        W84193  37.937  18.319  13.069
18967W        W84194  23.180  43.707   0.493
18968W        W84195  21.062  20.684   1.656
18969W        W84196  38.308  41.764   1.321
18970W        W84197   6.920  42.901  13.769
18971W        W84198  21.067  37.846   0.453
18972W        W84199  15.705  19.882   4.413
18973W        W84200   2.224  19.151   1.715
18974W        W84201  16.776   0.393   3.801
18975W        W84202   0.462   6.262   4.124
18976W        W84203  13.606  23.443  14.886
18977W        W84204  39.628  33.465   3.175
18978W        W84205  44.939  39.833   3.323
18979W        W84206  35.035  34.090  11.555
18980W        W84207  27.365  32.078  14.847
18981W        W84208  12.810  11.186   3.689
18982W        W84209   9.692  34.504  13.161
18983W        W84210  41.788  12.310  14.529
18984W        W84211  13.416  27.418  12.165
18985W        W84212  40.045  29.349  12.027
18986W        W84213  14.115  41.491  14.089
18987W        W84214  29.897  28.738   1.712
18988W        W84215   5.813  14.144   1.138
18989W        W84216  37.487  27.610  12.079
18990W        W84217   9.087  24.207   1.160
18991W        W84218  13.132  25.666  11.591
18992W        W84219   8.716   8.466   4.121
18993W        W84220  37.125   6.961  13.966
18994W        W84221  35.059  18.250   1.492
18995W        W84222  30.934   6.630   0.458
18996W        W84223  21.478  11.866  13.866
18997W        W84224  26.058  35.314  13.013
18998W        W84225  23.498  30.561  12.864
18999W        W84226  27.351   3.809   0.427
19000W        W84227   3.209  15.197  14.524
19001W        W84228  31.331  21.670  10.935
19002W        W84229  37.029  11.192   3.421
19003W        W84230   5.957   1.058  11.304
19004W        W84231  11.633  26.193  12.932
19005W        W84232  19.259  30.990   0.346
19006W        W84233  17.136  23.681  13.398
19007W        W84234  32.004  41.074   0.910
19008W        W84235  31.665   2.288   0.628
19009W        W84236  26.463   5.764  10.773
19010W        W84237  41.393   1.258   0.308
19011W        W84238  24.964  20.783  12.443
19012W        W84239  41.037  43.447   2.771
19013W        W84240  33.146  28.933  12.010
19014W        W84241  40.904   9.954  11.648
19015W        W84242  40.490   5.156   1.793
19016W        W84243   0.251  38.522   3.682
19017W        W84244  37.472  29.583   4.872
19018W        W84245  39.008  11.257  11.162
19019W        W84246  26.675  13.577   2.304
19020W        W84247  32.278  23.652  10.682
19021W        W84248   0.584  22.643  12.694
19022W        W84249  37.964  42.997   0.821
19023W        W84250  17.141  37.865   3.209
19024W        W84251  21.934  29.022   2.059
19025W        W84252  23.897   5.745  13.005
19026W        W84253  15.650  13.434  12.536
19027W        W84254  26.899  40.180  11.963
19028W        W84255  42.804   4.873  12.053
19029W        W84256  12.104  44.912  11.689
19030W        W84257  19.068  39.433   4.526
19031W        W84258  33.993  36.083   0.171
19032W        W84259   8.689  34.587   3.170
19033W        W84260  18.554  28.558  11.515
19034W        W84261  43.211  25.556  13.294
19035W        W84262  24.652  26.202  11.690
19036W        W84263  24.208   2.846  11.640
19037W        W84264  44.379  15.691   4.155
19038W        W84265   5.960  18.982   4.589
19039W        W84266  12.506  15.796  10.716
19040W        W84267  41.252  14.580  10.683
19041W        W84268  30.501  25.252   0.761
19042W        W84269  32.630  42.661  14.246
19043W        W84270   1.865  29.761  13.538
19044W        W84271  27.687   7.931  13.407
19045W        W84272  16.636  22.766   2.468
19046W        W84273   5.337   8.595  11.885
19047W        W84274  15.333  24.120  12.180
19048W        W84275  13.790  34.840  13.370
19049W        W84276  17.889  20.038  10.656
19050W        W84277   8.670   8.710  14.511
19051W        W84278  10.725   1.926   0.448
19052W        W84279  12.207  39.572   3.224
19053W        W84280  12.814  28.240  13.013
19054W        W84281   0.557  41.640   0.681
19055W        W84282   2.243  19.134   3.500
19056W        W84283  17.164   3.115  14.414
19057W        W84284  38.886  36.091   2.688
19058W        W84285   7.620   4.500  11.576
19059W        W84286   6.580  23.393  13.960
19060W        W84287  32.658   2.906   0.219
19061W        W84288   0.375  19.300  14.899
19062W        W84289  34.695  16.748   3.526
19063W        W84290  37.316  26.069   3.797
19064W        W84291  38.543  43.012   3.233
19065W        W84292  20.168  41.936   2.438
19066W        W84293  44.416  20.190  13.679
19067W        W84294  22.650  16.627  11.096
19068W        W84295  18.181  28.572  14.339
19069W        W84296  17.693  16.140  12.358
19070W        W84297   9.837  42.855  13.533
19071W        W84298  18.788  17.203  13.295
19072W        W84299  28.654  42.906   2.285
19073W        W84300  42.086  44.726  10.395
19074W        W84301  40.050  42.767   0.377
19075W        W84302  37.450  12.794  13.299
19076W        W84303  15.762   0.261   4.540
19077W        W84304  26.230  28.068   3.250
19078W        W84305  27.988  29.719  14.834
19079W        W84306  37.129   5.356   5.374
19080W        W84307  11.420   6.293   3.760
19081W        W84308  30.415  34.171  11.893
19082W        W84309  32.443  25.241  12.519
19083W        W84310  22.490  15.631   2.156
19084W        W84311   4.852  28.368  12.562
19085W        W84312  15.966  34.216   4.263
19086W        W84313   7.211   2.163   0.926
19087W        W84314  24.420  20.121  12.492
19088W        W84315  13.234  36.593  11.210
19089W        W84316  15.419  44.068  12.854
19090W        W84317  14.979  30.484   4.977
19091W        W84318  17.655  44.743   1.102
19092W        W84319  25.908   4.273  13.589
19093W        W84320  29.979  21.624  12.828
19094W        W84321  14.720  31.687   3.947
19095W        W84322   5.114  13.943  11.986
19096W        W84323   2.095  33.469   0.461
19097W        W84324   7.122  30.491  14.899
19098W        W84325  41.839  36.294  13.021
19099W        W84326  39.956  24.025  10.907
19100W        W84327   1.189  44.637  10.836
19101W        W84328  31.246  17.744   1.618
19102W        W84329  42.153  25.531  10.642
19103W        W84330  13.938  40.824   3.701
19104W        W84331  13.404  38.459  14.796
19105W        W84332  33.548  24.568  12.951
19106W        W84333  39.946  27.579  14.213
19107W        W84334   5.264   4.169  12.421
19108W        W84335   9.645  12.416  10.077
19109W        W84336  29.484  20.541   5.097
19110W        W84337  37.066   2.252   1.655
19111W        W84338  12.802  27.056  11.573
19112W        W84339   7.962   8.702  12.130
19113W        W84340  28.469  27.970   3.593
19114W        W84341  10.892   3.211   0.934
19115W        W84342  17.294  23.766   1.427
19116W        W84343  30.553   4.372   0.436
19117W        W84344  29.499  15.604  13.955
19118W        W84345  39.376  21.514  12.136
19119W        W84346   3.650   2.719   0.260
19120W        W84347  38.402  28.827  14.472
19121W        W84348  32.659  38.764   1.864
19122W        W84349  11.558  33.694   0.942
19123W        W84350  13.168   8.775  13.555
19124W        W84351  40.664   0.019   0.273
19125W        W84352  30.759  28.180   1.316
19126W        W84353  41.123  34.665   0.416
19127W        W84354  40.780   8.683  11.097
19128W        W84355  15.542   4.069   3.380
19129W        W84356  38.017  17.538  14.409
19130W        W84357  22.235  43.409  13.970
19131W        W84358  24.892   4.890   1.972
19132W        W84359  15.313  37.577  10.632
19133W        W84360  33.850   9.192  11.021
19134W        W84361  43.980  42.455  14.822
19135W        W84362  11.128  34.721  11.963
19136W        W84363  34.665  11.161   4.848
19137W        W84364  17.415   9.916   1.840
19138W        W84365  23.000  27.029   3.398
19139W        W84366  27.087  44.241  10.518
19140W        W84367  41.247   5.836  13.400
19141W        W84368  27.630  25.489   1.315
19142W        W84369   9.127   6.763  12.926
19143W        W84370  16.312  32.223   0.161
19144W        W84371  15.123  38.049  10.451
19145W        W84372  23.774   3.544   3.506
19146W        W84373   7.417   9.787   2.281
19147W        W84374  32.032  24.785   1.636
19148W        W84375   4.409  40.329   2.842
19149W        W84376  40.944  32.348   0.462
19150W        W84377   0.415  21.624   2.927
19151W        W84378  26.165  33.480   2.700
19152W        W84379   9.474  32.830  10.936
19153W        W84380  18.774  20.130   2.000
19154W        W84381  35.179  25.889   0.646
19155W        W84382  12.673  42.585   1.858
19156W        W84383  24.250  39.292   4.011
19157W        W84384  39.965  10.350  13.962
19158W        W84385  13.078  16.154   1.981
19159W        W84386   9.773  37.944   4.648
19160W        W84387  28.436   1.805   0.246
19161W        W84388  27.570  24.190   1.924
19162W        W84389  12.409   2.411  13.867
19163W        W84390  35.561   6.619  10.726
19164W        W84391   2.914  17.212  14.393
19165W        W84392  12.085   7.223   3.298
19166W        W84393   5.308  26.001   4.582
19167W        W84394  26.055  43.693  13.199
19168W        W84395  23.119  42.955  11.791
19169W        W84396  36.498   4.277   2.363
19170W        W84397  21.188  32.133   9.725
19171W        W84398  38.344  33.484  12.357
19172W        W84399  14.779  13.956  10.722
19173W        W84400   1.526  19.223  12.891
19174W        W84401  38.625   4.759  10.199
19175W        W84402  29.354  20.242  11.636
19176W        W84403  42.937  36.539  11.702
19177W        W84404   4.202  39.770   4.437
19178W        W84405  43.771  26.417   0.136
19179W        W84406  44.292   4.668   2.805
19180W        W84407  25.247  11.319   3.431
19181W        W84408  20.853  14.348  12.455
19182W        W84409  34.598  35.950  13.424
19183W        W84410  44.344  42.859  12.212
19184W        W84411   6.864  25.384   0.657
19185W        W84412  27.487  37.808  12.524
19186W        W84413  43.600  14.885   2.637
19187W        W84414  31.810  25.958   4.383
19188W        W84415   9.245   9.593   0.687
19189W        W84416  37.229   7.271   4.269
19190W        W84417   9.198   5.133  13.543
19191W        W84418  13.239  25.189   2.276
19192W        W84419  37.355   1.260   3.441
19193W        W84420  39.463  41.611  14.385
19194W        W84421  29.022  23.996   3.118
19195W        W84422   7.826   1.101   4.863
19196W        W84423  29.417   7.464   4.206
19197W        W84424  41.739  43.942  11.485
19198W        W84425   3.036  25.936   4.163
19199W        W84426  42.952  18.583  14.095
19200W        W84427  30.425   9.747   5.006
19201W        W84428  11.080  29.495  12.713
19202W        W84429  18.677  14.707   4.685
19203W        W84430  44.060  20.184   2.542
19204W        W84431   8.205   3.305   2.419
19205W        W84432   5.497  30.642   2.831
19206W        W84433  31.650  13.440  11.660
19207W        W84434  39.422   0.868  11.227
19208W        W84435   1.836  39.931   3.564
19209W        W84436  20.623  42.006   0.686
19210W        W84437  18.947  42.446   0.307
19211W        W84438   5.731  17.038  14.772
19212W        W84439  42.196   0.880   3.177
19213W        W84440  24.077  19.211   1.861
19214W        W84441  19.722  13.695  13.284
19215W        W84442  38.186  26.183   1.827
19216W        W84443  44.167   5.237   0.349
19217W        W84444  20.136  41.746   4.577
19218W        W84445  43.008   6.843   0.339
19219W        W84446  21.049  31.557  11.089
19220W        W84447  16.850  24.247  12.476
19221W        W84448   6.764  30.853  13.411
19222W        W84449  21.306  23.734   2.894
19223W        W84450  33.956  40.585   3.994
19224W        W84451   6.462   1.721  11.096
19225W        W84452  30.833  28.003   5.350
19226W        W84453  16.307  33.839   4.377
19227W        W84454  35.261  37.575  10.237
19228W        W84455  32.163   8.869  12.606
19229W        W84456   4.881   8.920   2.898
19230W        W84457  31.613  33.405  12.084
19231W        W84458  36.460  16.330  10.569
19232W        W84459  13.388  15.516   5.105
19233W        W84460   7.264  19.833  12.083
19234W        W84461  15.537  33.558  13.044
19235W        W84462  43.871  24.442  11.645
19236W        W84463   8.249  15.792  13.492
19237W        W84464  37.576  13.203   0.652
19238W        W84465  30.728  19.183  13.182
19239W        W84466   6.752  21.456   0.273
19240W        W84467   3.994  35.619  12.050
19241W        W84468  37.077   7.296   3.782
19242W        W84469  34.025  15.228  11.007
19243W        W84470   5.563  38.510   0.040
19244W        W84471  21.418   3.465  11.029
19245W        W84472  13.862  24.632   1.486
19246W        W84473  28.233  20.816  13.428
19247W        W84474  11.981  37.685   9.943
19248W        W84475  29.208  12.357   4.360
19249W        W84476   8.422  41.387   4.615
19250W        W84477   4.236   4.099   1.041
19251W        W84478  20.785   0.351   2.858
19252W        W84479  31.652   0.047  14.951
19253W        W84480   2.457  14.888   0.860
19254W        W84481  35.618  41.833  12.084
19255W        W84482  21.731  35.957   4.554
19256W        W84483  19.213  31.048  14.081
19257W        W84484  44.082   8.350   3.169
19258W        W84485   2.027   8.904   0.231
19259W        W84486   6.022  40.820   3.779
19260W        W84487  22.575  40.215  13.977
19261W        W84488   0.780  26.102   2.884
19262W        W84489  12.616  23.158  11.626
19263W        W84490  26.192  31.850  11.605
19264W        W84491  24.697   7.207   3.203
19265W        W84492   6.185   2.953  10.747
19266W        W84493  43.576  10.267   2.735
19267W        W84494  17.525  18.768  11.155
19268W        W84495  42.411   3.379  13.915
19269W        W84496   7.510  41.984   1.886
19270W        W84497  25.656  27.690  14.058
19271W        W84498  21.037  40.294  11.953
19272W        W84499  26.609   1.293   2.187
19273W        W84500  22.926  30.589  13.517
19274W        W84501  28.587  41.441   2.636
19275W        W84502  43.399  41.478   0.383
19276W        W84503  33.355  25.914   1.399
19277W        W84504  21.241  15.726  14.181
19278W        W84505  10.712   0.331  11.550
19279W        W84506  37.884  34.431   5.053
19280W        W84507  35.918  39.768  13.950
19281W        W84508  41.940  18.138   2.592
19282W        W84509  35.893   7.660   2.264
19283W        W84510  28.079  16.130   1.500
19284W        W84511  12.588  24.231  12.454
19285W        W84512  16.441   2.558  12.444
19286W        W84513  20.804  14.271  11.235
19287W        W84514  20.747  24.658   0.850
19288W        W84515   4.389  26.926   4.229
19289W        W84516  30.595  17.184   0.203
19290W        W84517  42.288  11.723   0.273
19291W        W84518  12.624   8.680  14.526
19292W        W84519  18.028  44.735  12.046
19293W        W84520  39.088  10.916  13.809
19294W        W84521   4.612  44.372  12.866
19295W        W84522  17.809  10.838   1.647
19296W        W84523  43.241  15.204  13.611
19297W        W84524  28.553  41.248  11.092
19298W        W84525   2.218  18.215   0.806
19299W        W84526  21.818  40.326   0.159
19300W        W84527  15.316  12.692  12.560
19301W        W84528  18.761  27.247   3.620
19302W        W84529  19.531  19.178  11.105
19303W        W84530  20.367  24.039   1.616
19304W        W84531  27.920  11.561   1.703
19305W        W84532  22.780  31.450  10.733
19306W        W84533  29.416   2.899  13.078
19307W        W84534  35.634  37.931   3.846
19308W        W84535   9.351  32.283  10.308
19309W        W84536  28.406   8.189   2.500
19310W        W84537  10.306  43.731   3.164
19311W        W84538  21.492  44.071   4.328
19312W        W84539   5.180  26.518   4.615
19313W        W84540   0.873  34.595   0.799
19314W        W84541   8.370  41.722   4.157
19315W        W84542  33.149  33.730   1.343
19316W        W84543  36.545  14.717  14.364
19317W        W84544   0.355  25.623  10.977
19318W        W84545  34.325  35.271  12.475
19319W        W84546  23.119  11.684  10.667
19320W        W84547  41.522  30.694   4.569
19321W        W84548  31.373  29.394   1.810
19322W        W84549  38.360  25.462  14.367
19323W        W84550   5.805  22.500  11.615
19324W        W84551   8.718  14.232  13.509
19325W        W84552  29.717  30.463  13.012
19326W        W84553  11.673  31.404  11.478
19327W        W84554  31.587  28.044   1.315
19328W        W84555  27.543  41.922  13.518
19329W        W84556   4.275  27.910   4.120
19330W        W84557  36.065  33.957  10.598
19331W        W84558  16.294  26.101   0.175
19332W        W84559  42.478  21.053   0.350
19333W        W84560  29.563   9.448   2.260
19334W        W84561  10.260  20.406   3.308
19335W        W84562  39.824  25.699  14.826
19336W        W84563   1.417  40.521  14.954
19337W        W84564  23.702  39.773   2.585
19338W        W84565  21.609  26.982   3.698
19339W        W84566  31.213  22.401  11.514
19340W        W84567  15.929  16.344  12.615
19341W        W84568   9.858  28.090   0.633
19342W        W84569  17.681  25.231   1.797
19343W        W84570  40.174  11.927  14.074
19344W        W84571  11.826  29.700   1.942
19345W        W84572  41.250  26.665   2.698
19346W        W84573   0.484  10.414   4.575
19347W        W84574   6.606  40.488   3.358
19348W        W84575  41.754   5.890  13.420
19349W        W84576  33.001  40.814   0.643
19350W        W84577  32.449   2.430  13.855
19351W        W84578  36.966  16.847  14.193
19352W        W84579  27.260  11.400  12.738
19353W        W84580  12.161   9.412  12.180
19354W        W84581  37.274  12.859  11.266
19355W        W84582  31.225  33.466   0.282
19356W        W84583  38.345  22.783  13.768
19357W        W84584  37.348  17.592   1.847
19358W        W84585  24.087   5.990   4.073
19359W        W84586  11.112  17.680   0.042
19360W        W84587  17.266  30.962  13.556
19361W        W84588   0.098  38.559  13.932
19362W        W84589  22.330  30.393  14.825
19363W        W84590   2.922  38.444   4.834
19364W        W84591  23.492  33.534   1.082
19365W        W84592  21.514   0.720  14.718
19366W        W84593  29.057  28.996  13.425
19367W        W84594  23.473  15.685   1.996
19368W        W84595   5.353  29.538   1.924
19369W        W84596  42.953   1.450  14.226
19370W        W84597  20.795   6.751   4.177
19371W        W84598  32.340  42.137  12.111
19372W        W84599   7.901  44.291  13.982
19373W        W84600  44.934   3.935   0.938
19374W        W84601   8.464  37.884   0.908
19375W        W84602   6.840   8.773  14.899
19376W        W84603  34.640   3.706   4.041
19377W        W84604  18.768  12.951  10.792
19378W        W84605  11.495   0.909   0.839
19379W        W84606  42.982  16.442  12.854
19380W        W84607   1.299  29.753  10.697
19381W        W84608  38.574  44.492   3.781
19382W        W84609   7.637  30.009   3.876
19383W        W84610   7.069  34.014  12.805
19384W        W84611  15.510  29.725   2.839
19385W        W84612   3.936  18.805   0.350
19386W        W84613  42.340   3.901   3.868
19387W        W84614  27.540  25.170   2.301
19388W        W84615  38.406  13.527  14.167
19389W        W84616  22.559  19.175  10.685
19390W        W84617  36.568  35.943  12.039
19391W        W84618  31.179  13.531  11.178
19392W        W84619  41.676  44.775   1.417
19393W        W84620   9.373  36.561  11.593
19394W        W84621   8.057  18.947   2.596
19395W        W84622  37.078  22.650   3.781
19396W        W84623  36.820  20.010  13.293
19397W        W84624  12.261  42.656  11.643
19398W        W84625   3.306  32.050   3.899
19399W        W84626  27.262  32.664   1.905
19400W        W84627   2.351  33.625   2.699
19401W        W84628  32.664  39.051   0.480
19402W        W84629  11.766   1.831  14.520
19403W        W84630  38.890  41.957   4.939
19404W        W84631  25.109  30.962  13.008
19405W        W84632  19.298   4.445  12.570
19406W        W84633  24.732   8.718  13.754
19407W        W84634  22.682  14.091   3.718
19408W        W84635  40.292  10.276  11.656
19409W        W84636   3.192  35.514  11.596
19410W        W84637  15.268  18.732   3.104
19411W        W84638  14.234   2.205  13.906
19412W        W84639   1.891  12.175   4.891
19413W        W84640  44.305  30.612   1.359
19414W        W84641   9.756  25.186   4.815
19415W        W84642  17.812  13.672  11.006
19416W        W84643  26.492  27.351   2.723
19417W        W84644   4.679  27.913   3.564
19418W        W84645   6.030  41.565   2.162
19419W        W84646   2.862  33.013   2.814
19420W        W84647   8.253  24.646   3.861
19421W        W84648  27.853  42.753   0.849
19422W        W84649  29.948   7.191   2.507
19423W        W84650   8.620  34.942  11.104
19424W        W84651   3.874  33.764  11.907
19425W        W84652  10.800   2.497  12.926
19426W        W84653   9.174  37.527  12.469
19427W        W84654  16.986  34.841  12.068
19428W        W84655  19.412  30.640  12.210
19429W        W84656  27.423  18.547   3.504
19430W        W84657  16.672  25.335   4.828
19431W        W84658  20.552  11.644  10.571
19432W        W84659  16.080  16.565  14.398
19433W        W84660  32.652  11.914  11.647
19434W        W84661  20.285  32.911  13.072
19435W        W84662  10.582   6.534   4.117
19436W        W84663  33.925  14.326  13.416
19437W        W84664  41.410  13.881   4.281
19438W        W84665  37.786  12.805   3.619
19439W        W84666  11.042  39.455  13.513
19440W        W84667  40.080  35.979   2.371
19441W        W84668  16.031   2.804   3.778
19442W        W84669  18.095  35.091   2.710
19443W        W84670  15.669  36.479  13.370
19444W        W84671  20.732   8.675   0.974
19445W        W84672  24.610  11.182  10.770
19446W        W84673  28.082   7.584  10.573
19447W        W84674  30.648  22.432   3.672
19448W        W84675   2.396   0.962  11.196
19449W        W84676   5.658   0.672   2.830
19450W        W84677  26.645  44.256  14.506
19451W        W84678  29.135  21.229   1.728
19452W        W84679   1.972  15.436   2.116
19453W        W84680  12.225   6.938  14.983
19454W        W84681  14.648  16.116   4.609
19455W        W84682  18.720  43.833   1.927
19456W        W84683   8.116  26.855   4.047
19457W        W84684  21.142  10.151  11.036
19458W        W84685  15.834  34.047   3.776
19459W        W84686  13.301  20.623   2.134
19460W        W84687  10.882  26.977   4.956
19461W        W84688  27.002  27.096   0.890
19462W        W84689  11.297  30.486   0.781
19463W        W84690  25.666   8.804   0.393
19464W        W84691  41.743  13.634   3.539
19465W        W84692  14.808  15.286   2.434
19466W        W84693  12.253  30.078   2.144
19467W        W84694  19.133   2.998   2.784
19468W        W84695  25.511  33.229  10.441
19469W        W84696  10.332   0.139  14.992
19470W        W84697  14.613  20.412  14.926
19471W        W84698  28.436   8.206   3.841
19472W        W84699  30.192  42.876  12.702
19473W        W84700  23.251   9.131   0.481
19474W        W84701  13.209  14.270   2.554
19475W        W84702  36.210   3.281   2.247
19476W        W84703  26.031   1.868   4.189
19477W        W84704  42.964  29.657  13.746
19478W        W84705  26.962  36.209   1.752
19479W        W84706   7.782  38.289  13.493
19480W        W84707  40.144  27.197  10.730
19481W        W84708  21.375   2.964   4.227
19482W        W84709   0.553   0.896   5.683
19483W        W84710  34.902  41.481   0.738
19484W        W84711  42.057  33.917  11.690
19485W        W84712  34.885  29.860  14.378
19486W        W84713  40.894  24.617   2.259
19487W        W84714  34.675  10.472   0.837
19488W        W84715  43.309  38.345   1.253
19489W        W84716   6.027  18.944   1.265
19490W        W84717  29.953  29.747   1.560
19491W        W84718  14.570   2.200   4.343
19492W        W84719  14.346  24.210  11.864
19493W        W84720   8.646  37.771  11.429
19494W        W84721   3.291  36.912   4.651
19495W        W84722  10.751  23.025   2.849
19496W        W84723  10.474  12.736  12.430
19497W        W84724  17.729  21.809  13.290
19498W        W84725  10.676  28.593  12.897
19499W        W84726  18.520  24.475  11.566
19500W        W84727   0.306  16.426   0.966
19501W        W84728  11.657  33.120  11.230
19502W        W84729  40.535   8.807   2.624
19503W        W84730   4.268   9.263   1.710
19504W        W84731  11.276  17.943  10.966
19505W        W84732  15.112  19.740  13.769
19506W        W84733   6.925   1.874  14.975
19507W        W84734  30.639   3.801  11.520
19508W        W84735  13.230  31.069   1.182
19509W        W84736  43.176   7.291   5.414
19510W        W84737  11.391  28.214  12.862
19511W        W84738  38.708  20.020   1.403
19512W        W84739  21.097  18.391   2.817
19513W        W84740  43.767   2.420  13.494
19514W        W84741   6.971  29.451  14.770
19515W        W84742   4.921   9.394   3.769
19516W        W84743  18.964  43.209   4.980
19517W        W84744  22.677  29.971   4.278
19518W        W84745   7.194  25.493  13.850
19519W        W84746  29.763   3.350   1.368
19520W        W84747  36.971  12.990   0.553
19521W        W84748  29.564  36.751  13.342
19522W        W84749  31.946  19.619  12.743
19523W        W84750   6.466   3.754   3.957
19524W        W84751  15.857  35.444   3.002
19525W        W84752  29.398  11.742   3.935
19526W        W84753  40.207  25.446  14.051
19527W        W84754   4.335  17.989  11.466
19528W        W84755  15.179  12.890  10.335
19529W        W84756  24.802  15.198  10.798
19530W        W84757   0.461  40.438  13.951
19531W        W84758   1.938   0.758  11.029
19532W        W84759  24.111  43.255  14.654
19533W        W84760  10.698  18.185  12.426
19534W        W84761  20.753   8.149   0.317
19535W        W84762   0.894  32.362  12.465
19536W        W84763   5.012  15.141   1.284
19537W        W84764   3.805  28.652  11.999
19538W        W84765   7.874  14.876  14.881
19539W        W84766  19.787  11.184  13.524
19540W        W84767  10.380  32.420   2.238
19541W        W84768  34.466  13.612  10.171
19542W        W84769  31.826  10.386   1.219
19543W        W84770  19.665  10.912  12.830
19544W        W84771  28.489  26.214   3.190
19545W        W84772  41.339  17.744   3.008
19546W        W84773  43.538   5.306   3.538
19547W        W84774  35.329  11.948   1.281
19548W        W84775  18.446  36.633   2.998
19549W        W84776  29.533  38.581   3.553
19550W        W84777  10.646  19.684   3.170
19551W        W84778  12.343   2.358  10.602
19552W        W84779   1.527  10.222   3.742
19553W        W84780  43.309   2.363  12.847
19554W        W84781   6.183  23.005   1.688
19555W        W84782  15.765  10.630  12.886
19556W        W84783  13.617   3.745  12.441
19557W        W84784   9.288  12.311   0.660
19558W        W84785  30.306  24.081  14.847
19559W        W84786  22.955  11.861   1.790
19560W        W84787  31.253  12.698  13.079
19561W        W84788  29.070  12.302  12.005
19562W        W84789  16.240  40.549  14.003
19563W        W84790  24.182  31.542  12.786
19564W        W84791   2.937  16.588  11.012
19565W        W84792  42.323  35.341  14.972
19566W        W84793   9.203  41.551  14.532
19567W        W84794  25.536  25.666   3.670
19568W        W84795   8.651   3.805  11.169
19569W        W84796  21.999  23.402  10.938
19570W        W84797  36.501  42.539  14.825
19571W        W84798  11.847   9.068  11.259
19572W        W84799  23.300   0.434  13.355
19573W        W84800  21.395  32.338   5.091
19574W        W84801  19.100  25.489   4.205
19575W        W84802   5.039  44.593   2.599
19576W        W84803  10.183  14.138  12.456
19577W        W84804  38.900  22.334   1.657
19578W        W84805  13.624  19.497   4.280
19579W        W84806   5.517  11.567   0.330
19580W        W84807  43.531  42.370  12.661
19581W        W84808   5.842   8.075   4.704
19582W        W84809  18.233  20.212   4.158
19583W        W84810  16.262   2.948   2.722
19584W        W84811  29.157  18.617   3.603
19585W        W84812  20.967   4.398   4.839
19586W        W84813  11.993   5.469   3.889
19587W        W84814   0.984  43.826  12.432
19588W        W84815  42.796  29.706   3.667
19589W        W84816   4.275  12.438  12.524
19590W        W84817  32.986  35.411   1.644
19591W        W84818  14.329  33.859   4.367
19592W        W84819  15.947  28.618   2.910
19593W        W84820   6.269  25.502  11.737
19594W        W84821   9.657   7.206   3.369
19595W        W84822  37.768   5.338  12.810
19596W        W84823   9.769   6.826   4.770
19597W        W84824   6.762   7.103  12.116
19598W        W84825  27.212  43.691   4.113
19599W        W84826  18.181  21.153   4.177
19600W        W84827  27.409  19.024   2.290
19601W        W84828   7.254  32.476  13.754
19602W        W84829  26.934  24.482  10.737
19603W        W84830  27.811  38.791  13.607
19604W        W84831  10.090   6.761  13.899
19605W        W84832  34.465   5.702   0.764
19606W        W84833  38.421  17.398   2.830
19607W        W84834  41.760  26.440   2.705
19608W        W84835  39.111  20.947   4.151
19609W        W84836  27.590  12.188   2.851
19610W        W84837  15.656  13.715   5.110
19611W        W84838   3.756  42.188   0.497
19612W        W84839  30.088  23.885  12.611
19613W        W84840  11.465   1.177   4.849
19614W        W84841  10.648  31.667   2.311
19615W        W84842  36.313  16.751   4.124
19616W        W84843  16.585   4.170   2.665
19617W        W84844   2.199  18.681   1.059
19618W        W84845   3.335  21.061   2.277
19619W        W84846  34.578  23.203  11.916
19620W        W84847   0.334  34.415   1.887
19621W        W84848  38.791  42.325  13.940
19622W        W84849   1.940  39.171  10.610
19623W        W84850   3.904  18.208   1.724
19624W        W84851   2.301  13.165   3.185
19625W        W84852   1.484   8.227   3.690
19626W        W84853  18.594   4.435  14.137
19627W        W84854  19.649  40.827   0.835
19628W        W84855  42.914  39.437   2.255
19629W        W84856  11.673  17.300  13.052
19630W        W84857  16.291  40.664  11.201
19631W        W84858  23.626  34.294  14.171
19632W        W84859  27.235   9.902  13.437
19633W        W84860  19.516  14.760  12.963
19634W        W84861   6.912  11.368  10.552
19635W        W84862  10.391   0.900   1.834
19636W        W84863  16.952  27.992  10.352
19637W        W84864  40.434  36.557   4.298
19638W        W84865  18.729   7.366   5.096
19639W        W84866  22.916   4.427  10.785
19640W        W84867  32.971  31.525  13.913
19641W        W84868   7.230   3.752  13.167
19642W        W84869   3.911   5.798  12.071
19643W        W84870  14.789  23.744  14.528
19644W        W84871  42.024  23.910  11.589
19645W        W84872  44.443  15.408   2.924
19646W        W84873  35.117  18.908  11.252
19647W        W84874   9.861  38.814   0.423
19648W        W84875  20.468  17.409   0.247
19649W        W84876  36.198  20.684  13.561
19650W        W84877  18.354   9.016  14.279
19651W        W84878  21.349  14.361  12.538
19652W        W84879  28.036  27.104  10.164
19653W        W84880   2.917  11.885   3.314
19654W        W84881  38.325  41.795  10.823
19655W        W84882   9.147  21.757   2.150
19656W        W84883  19.021  39.695   2.678
19657W        W84884  25.676   6.974  11.603
19658W        W84885   5.893  34.658  11.549
19659W        W84886  16.488  34.313   1.578
19660W        W84887  42.256  24.508   1.147
19661W        W84888   1.789  11.924  14.973
19662W        W84889  30.444   3.955  13.309
19663W        W84890  35.113  10.395  11.984
19664W        W84891  21.064  33.399  12.894
19665W        W84892  17.036  12.686   2.209
19666W        W84893  37.750   0.351   0.313
19667W        W84894  12.249   4.075   2.510
19668W        W84895  13.316  20.091  13.620
19669W        W84896  41.495  20.097   0.468
19670W        W84897   4.932  17.713   3.723
19671W        W84898  41.248  14.133  14.870
19672W        W84899  16.726  12.493  12.559
19673W        W84900   9.346  34.090  10.378
19674W        W84901  42.044  34.886   0.686
19675W        W84902  35.203  44.755  14.603
19676W        W84903  14.209  16.175   2.955
19677W        W84904  31.559  29.588   4.847
19678W        W84905   4.924  21.116   3.260
19679W        W84906  34.544  39.919  11.160
19680W        W84907  31.817   3.168  11.114
19681W        W84908  20.712  34.637   0.446
19682W        W84909  15.761   7.126  11.435
19683W        W84910  17.690  44.490  10.466
19684W        W84911  34.556  41.218   1.412
19685W        W84912  24.220  43.106  13.958
19686W        W84913  16.211   1.168  13.783
19687W        W84914  39.863   2.999   4.567
19688W        W84915  33.845  11.545   3.647
19689W        W84916  11.289   6.463  12.370
19690W        W84917  18.145  26.341   4.563
19691W        W84918  30.669  26.633  14.379
19692W        W84919  23.193  14.119  12.799
19693W        W84920  10.941  14.836  14.436
19694W        W84921   8.825  12.177  14.859
19695W        W84922  15.392   4.458   3.061
19696W        W84923   3.480  26.284   1.840
19697W        W84924   1.247  13.168  14.825
19698W        W84925   3.354  33.899  14.550
19699W        W84926  10.627  17.660  12.473
19700W        W84927  19.697   6.451   0.862
19701W        W84928  30.498  25.683  14.347
19702W        W84929  38.578   2.034   0.936
19703W        W84930  42.923  33.538  13.077
19704W        W84931  25.584  36.230   2.009
19705W        W84932   3.836  17.878  13.927
19706W        W84933  42.412  22.516  11.736
19707W        W84934   1.492  19.037   4.087
19708W        W84935  29.771  24.329   4.115
19709W        W84936  24.197  42.166  11.123
19710W        W84937  11.733  14.326   0.843
19711W        W84938  35.367  33.107   1.265
19712W        W84939  22.983   1.322   2.154
19713W        W84940  19.800  14.793  11.559
19714W        W84941   6.929   6.188  13.132
19715W        W84942  29.975   9.837   2.265
19716W        W84943   1.266  37.522   4.319
19717W        W84944  14.739  38.586  11.447
19718W        W84945   8.693   4.214   3.860
19719W        W84946  43.526  13.518  11.658
19720W        W84947  27.476   2.780   0.361
19721W        W84948  23.205  20.433  14.875
19722W        W84949  27.176   8.199   1.754
19723W        W84950  29.709  25.155  12.952
19724W        W84951   5.917  42.139  14.472
19725W        W84952  15.113  13.107  14.736
19726W        W84953  44.948   1.015  13.471
19727W        W84954   0.189  40.949   2.660
19728W        W84955  38.562  34.533   3.627
19729W        W84956  42.910  27.556  13.904
19730W        W84957  43.054   9.201   4.137
19731W        W84958   5.471   2.533   4.334
19732W        W84959  37.611  42.338  12.994
19733W        W84960  43.043  42.350  10.882
19734W        W84961   1.755  34.152   3.177
19735W        W84962   0.747  17.205   3.251
19736W        W84963   7.914  26.374   4.143
19737W        W84964  34.806   4.279  14.123
19738W        W84965  19.214   4.277  14.963
19739W        W84966  10.700  38.812   4.709
19740W        W84967  43.022  23.273  12.145
19741W        W84968   3.776  14.106   4.234
19742W        W84969  33.601   8.296   1.521
19743W        W84970  30.666  16.526  11.097
19744W        W84971  25.666  10.909   3.269
19745W        W84972  24.050  12.858  11.571
19746W        W84973  34.430  26.760  14.144
19747W        W84974  26.421  31.846   0.137
19748W        W84975   9.897  35.354  13.576
19749W        W84976   8.313  25.166  14.313
19750W        W84977  12.622  41.862  14.556
19751W        W84978  41.562  37.214  11.583
19752W        W84979  26.661  11.350  11.092
19753W        W84980  37.943  14.762  14.888
19754W        W84981  38.411  34.849  12.585
19755W        W84982   2.519  38.970   3.721
19756W        W84983  43.026  14.520  12.744
19757W        W84984  30.305  10.234   2.800
19758W        W84985  42.335  37.465  11.912
19759W        W84986  20.701   7.723   4.289
19760W        W84987  23.025  43.441  11.592
19761W        W84988  27.263   5.299   0.657
19762W        W84989  16.368   6.235   0.527
19763W        W84990  17.084  41.987  11.569
19764W        W84991  33.058  43.342   0.323
19765W        W84992   5.660  42.278  11.456
19766W        W84993  40.932  26.932   1.443
19767W        W84994  29.990   8.941  13.811
19768W        W84995  18.894  38.412   0.192
19769W        W84996   6.481  28.477   4.581
19770W        W84997  19.647   1.023   1.201
19771W        W84998  24.105  26.894   4.248
19772W        W84999  20.100  40.194  12.050
19773W        W85000  41.333  26.156   2.829
19774W        W85001  44.905  40.605  11.512
19775W        W85002  41.308  41.024   2.708
19776W        W85003   7.286  11.186   2.721
19777W        W85004  18.714  36.565  12.943
19778W        W85005  42.449  14.900   0.294
19779W        W85006  41.610  37.864   1.877
19780W        W85007  28.091  32.208   1.682
19781W        W85008  12.176  37.462  11.197
19782W        W85009   9.524   3.543   4.232
19783W        W85010  14.073   5.650  13.424
19784W        W85011  39.287   7.360   3.736
19785W        W85012  35.952  11.837  14.082
19786W        W85013  34.565   8.707   3.191
19787W        W85014   5.871  12.787  10.796
19788W        W85015   9.261  32.808  11.949
19789W        W85016  27.973  32.903  13.346
19790W        W85017  42.947  38.974  14.486
19791W        W85018  33.404  27.469  13.364
19792W        W85019   9.695  30.988  14.375
19793W        W85020  15.808  41.459  11.244
19794W        W85021  29.437  41.222  12.634
19795W        W85022  18.693  10.345  13.810
19796W        W85023  16.026  34.047   0.441
19797W        W85024  19.129   5.004  10.320
19798W        W85025  10.136  33.975  13.377
19799W        W85026  43.347  24.184   1.199
19800W        W85027  17.944  41.208  10.655
19801W        W85028  38.962  30.123  13.047
19802W        W85029  36.581   7.579   3.114
19803W        W85030  36.010   0.299  13.457
19804W        W85031   9.048  10.103  13.354
19805W        W85032  25.876  22.686  14.246
19806W        W85033  43.018   2.285  10.514
19807W        W85034  43.264  20.955  13.032
19808W        W85035  13.023  25.570  12.889
19809W        W85036   5.417   5.414   2.727
19810W        W85037  15.099  27.754   4.716
19811W        W85038  23.589  38.217  10.777
19812W        W85039  28.541  35.551   3.674
19813W        W85040   5.846  39.771  14.945
19814W        W85041   9.302   5.723   3.137
19815W        W85042   8.332  36.971   2.000
19816W        W85043  16.019  13.458   1.298
19817W        W85044   8.813  38.034   2.288
19818W        W85045  15.618  13.184  12.081
19819W        W85046  14.267  41.007  14.793
19820W        W85047  20.411  23.535   4.708
19821W        W85048  18.593  37.843  11.310
19822W        W85049  22.237  23.474   4.514
19823W        W85050  21.483   9.688  11.507
19824W        W85051   3.867  20.079  14.023
19825W        W85052  14.917  15.018  11.629
19826W        W85053  34.125  26.186   3.175
19827W        W85054  12.618  20.729  14.506
19828W        W85055  15.052  13.680  12.512
19829W        W85056  22.222  34.142  11.589
19830W        W85057  28.339  36.754   4.453
19831W        W85058  15.088   4.543  11.451
19832W        W85059   1.503  21.657   3.082
19833W        W85060  10.076  12.111  10.128
19834W        W85061  16.735  25.075   2.002
19835W        W85062  35.729  36.968  14.451
19836W        W85063  27.492   7.567   3.610
19837W        W85064  21.220  39.898  11.689
19838W        W85065  32.121   9.043  14.686
19839W        W85066  32.908  37.343   0.031
19840W        W85067  21.509  26.106  13.376
19841W        W85068   8.795  22.735  11.297
19842W        W85069  20.384  38.695   1.841
19843W        W85070   3.223  11.724   1.760
19844W        W85071  38.042  39.065   1.191
19845W        W85072   0.700  42.667   4.017
19846W        W85073  15.189   1.466   2.837
19847W        W85074   1.421  40.761  13.645
19848W        W85075  43.142  38.693   5.061
19849W        W85076  30.577  22.305   2.784
19850W        W85077   7.092   4.095   1.663
19851W        W85078  27.838  30.830  12.113
19852W        W85079  23.984   8.859  14.828
19853W        W85080  27.961  19.944  14.410
19854W        W85081  32.347  25.753   2.308
19855W        W85082  41.436  41.210  12.116
19856W        W85083  37.420  34.518  10.750
19857W        W85084  22.209  23.637  10.506
19858W        W85085   3.171  13.095   2.654
19859W        W85086  23.922  38.413  14.731
19860W        W85087  42.115  40.361  11.613
19861W        W85088   1.588  10.080  14.725
19862W        W85089   6.419  34.160   4.835
19863W        W85090  39.649  25.026  12.414
19864W        W85091  22.302  17.610  14.794
19865W        W85092  14.032  25.545   5.085
19866W        W85093  20.559  22.016  13.080
19867W        W85094  17.077   7.734  12.340
19868W        W85095   2.488  27.064   1.785
19869W        W85096  20.384  33.713   3.217
19870W        W85097  19.602  10.837   0.780
19871W        W85098  27.135  13.828   2.163
19872W        W85099  14.747  10.082  11.143
19873W        W85100   9.902  28.582  12.543
19874W        W85101  27.173   6.237  13.828
19875W        W85102  32.067  13.943   0.678
19876W        W85103   7.868  29.893   0.314
19877W        W85104  21.469  24.151   3.796
19878W        W85105   6.165  33.649   2.722
19879W        W85106  44.462  13.840   2.751
19880W        W85107  33.371  18.973   0.249
19881W        W85108  13.449  29.693   4.524
19882W        W85109   7.391  12.130  11.600
19883W        W85110   3.164  22.845  10.587
19884W        W85111  16.342   2.006  10.757
19885W        W85112  33.637  11.186  11.964
19886W        W85113   8.337  30.492  14.467
19887W        W85114  40.423  34.487  10.842
19888W        W85115  38.429  24.299   2.099
19889W        W85116  16.717  38.260   2.397
19890W        W85117   7.004   7.270   0.220
19891W        W85118  15.096  39.481   1.353
19892W        W85119  26.929   4.464  11.611
19893W        W85120  18.190   0.016   1.109
19894W        W85121  40.722  28.075   0.755
19895W        W85122  17.788  26.060   0.780
19896W        W85123  10.879  40.407   2.184
19897W        W85124  21.286  42.045  12.510
19898W        W85125  27.897  38.998  11.310
19899W        W85126  37.174   1.766  13.459
19900W        W85127  22.761  30.305  13.916
19901W        W85128   4.964  13.334   0.955
19902W        W85129   9.158  19.686  12.868
19903W        W85130  22.783  37.540  14.538
19904W        W85131  15.666  16.710   2.161
19905W        W85132  43.166  29.339  11.592
19906W        W85133  17.289  13.331  14.148
19907W        W85134  17.794  29.125   3.197
19908W        W85135   3.856  28.000   3.807
19909W        W85136   0.540  22.049   4.240
19910W        W85137  41.940   3.218  14.047
19911W        W85138  19.849  17.088   4.982
19912W        W85139   7.680  17.264  12.968
19913W        W85140  25.955   5.562   1.814
19914W        W85141   4.381  20.088  13.958
19915W        W85142  43.840  26.648   2.204
19916W        W85143  39.950   8.111  11.983
19917W        W85144   5.088  41.155  12.981
19918W        W85145  27.733   8.962  10.881
19919W        W85146  20.355  28.596  14.221
19920W        W85147  18.287  30.330   9.844
19921W        W85148  35.772   9.312  11.566
19922W        W85149  10.639   9.163  13.747
19923W        W85150  23.238  34.253   3.362
19924W        W85151  31.991   8.910  12.108
19925W        W85152  41.317  43.446  13.003
19926W        W85153  24.613  37.917   2.101
19927W        W85154   2.623  44.293  12.562
19928W        W85155  35.484  13.026   0.312
19929W        W85156  34.475  42.721   3.634
19930W        W85157  25.239  33.550   0.776
19931W        W85158  16.233  39.472  13.518
19932W        W85159  26.915   1.007  10.198
19933W        W85160  39.446  31.054  12.996
19934W        W85161   4.996  28.414   1.427
19935W        W85162  14.274  36.854  11.106
19936W        W85163  35.429  26.524  12.363
19937W        W85164  29.483   0.516  14.827
19938W        W85165   6.506  21.111   1.722
19939W        W85166   2.771  40.040   0.790
19940W        W85167  24.733  16.635  12.553
19941W        W85168  27.930  12.734  11.500
19942W        W85169  31.163  28.084   0.979
19943W        W85170  29.068  38.575   0.950
19944W        W85171  32.922   8.253  14.859
19945W        W85172  18.800   5.614  11.096
19946W        W85173  11.226  43.353   4.507
19947W        W85174  14.718  21.306  11.723
19948W        W85175  29.569  31.027   0.249
19949W        W85176  31.604  41.656   2.817
19950W        W85177  40.896  28.444   4.275
19951W        W85178  21.502   6.922  14.531
19952W        W85179   7.408  32.156   1.061
19953W        W85180  37.341  13.870  11.121
19954W        W85181   1.844  30.185   3.280
19955W        W85182   4.859  30.514  13.861
19956W        W85183  36.873  20.481   4.201
19957W        W85184  38.353   7.609  13.999
19958W        W85185   8.552  34.073  14.403
19959W        W85186  17.210  15.958  12.060
19960W        W85187  12.671  15.305  10.671
19961W        W85188  25.749  13.248  11.957
19962W        W85189  42.026  19.210  12.923
19963W        W85190  38.092  27.852  13.404
19964W        W85191  11.357  36.923   3.626
19965W        W85192  24.210   6.984   3.222
19966W        W85193   7.858  37.614   4.168
19967W        W85194  15.253  43.890  12.402
19968W        W85195  39.913  13.162  11.215
19969W        W85196   2.360  12.217   1.710
19970W        W85197   8.352  17.242  12.029
19971W        W85198  35.629  32.542   0.410
19972W        W85199  30.505   4.994   3.750
19973W        W85200  12.262  35.580  11.136
19974W        W85201   8.798  33.566   0.805
19975W        W85202  12.818  14.682   2.353
19976W        W85203   8.843  43.390   0.394
19977W        W85204   4.325  34.015   1.866
19978W        W85205  34.849  14.611  10.250
19979W        W85206  16.612  19.289  11.146
19980W        W85207   8.197  13.855  11.660
19981W        W85208  23.809  35.797  13.362
19982W        W85209   7.216   5.622   0.009
19983W        W85210   3.050  44.394   2.799
19984W        W85211  40.499  33.954   3.041
19985W        W85212  37.669  41.308   4.179
19986W        W85213  33.832   2.451   1.318
19987W        W85214  33.427  43.006  12.862
19988W        W85215  41.005  40.815  13.793
19989W        W85216   1.472  27.543   3.767
19990W        W85217  14.437  10.402   0.901
19991W        W85218  28.112   1.953  11.950
19992W        W85219  25.624  26.004   0.937
19993W        W85220  24.451  40.252   3.056
19994W        W85221  35.907  21.247   1.879
19995W        W85222  39.051  37.514  10.475
19996W        W85223  21.239  19.942  13.631
19997W        W85224  38.935  36.110   4.720
19998W        W85225  12.300   1.316  14.814
19999W        W85226   8.239   9.758  11.700
20000W        W85227  30.362  29.707   1.195
20001W        W85228  16.213  20.738  11.466
20002W        W85229  34.921  13.353   4.512
20003W        W85230  15.643  39.566  11.400
20004W        W85231  14.498  24.136  11.368
20005W        W85232  36.831  37.268   0.955
20006W        W85233  19.791   2.411   1.503
20007W        W85234   8.885  36.307  11.654
20008W        W85235  36.131  30.672   0.215
20009W        W85236   8.243  23.232  14.092
20010W        W85237  13.773   4.440   1.200
20011W        W85238  18.696  25.572   2.769
20012W        W85239  32.998  17.834   2.325
20013W        W85240   3.455  19.941  11.036
20014W        W85241  12.589  20.263  13.730
20015W        W85242  21.584  18.308  14.700
20016W        W85243  41.856  16.723  10.483
20017W        W85244  13.203  32.809  12.505
20018W        W85245  36.540  44.531  11.602
20019W        W85246  28.571  10.172  11.046
20020W        W85247  23.961  43.320  12.099
20021W        W85248  13.522  24.201   0.719
20022W        W85249  27.635  15.181   0.310
20023W        W85250   3.432  37.426   2.378
20024W        W85251  17.736  18.005  12.767
20025W        W85252  14.282  14.865   0.228
20026W        W85253   9.813  24.739  13.088
20027W        W85254  32.878  38.911   0.967
20028W        W85255   8.877  33.131   4.283
20029W        W85256  17.221  42.158   1.410
20030W        W85257  15.736  29.475   2.419
20031W        W85258  15.418  28.732  13.364
20032W        W85259  17.697   3.865  14.810
20033W        W85260  21.234  21.244   3.656
20034W        W85261  43.283  27.741   9.930
20035W        W85262  19.505  25.690   4.880
20036W        W85263  39.944  41.787  11.236
20037W        W85264   3.497  34.479   0.824
20038W        W85265  35.386  27.149  10.891
20039W        W85266  35.885  40.586   1.812
20040W        W85267   4.691  30.515   1.351
20041W        W85268   7.830   5.085  10.773
20042W        W85269  35.007  36.607   3.426
20043W        W85270  39.897   1.034  13.050
20044W        W85271   3.660  22.085  12.946
20045W        W85272  22.510   7.573  10.749
20046W        W85273  33.678  14.566  10.650
20047W        W85274  23.118   5.524   1.713
20048W        W85275  26.755  29.407  13.652
20049W        W85276  39.741  15.215  13.922
20050W        W85277  25.994  14.217   0.234
20051W        W85278  36.591  33.624   3.340
20052W        W85279  39.302   5.118   1.184
20053W        W85280   1.704  13.535  11.187
20054W        W85281  10.854  12.205  11.131
20055W        W85282  34.659  32.585   3.219
20056W        W85283  41.855  43.380   4.158
20057W        W85284  13.855   9.550  13.513
20058W        W85285  27.499   6.414   0.485
20059W        W85286  16.039  41.575  14.050
20060W        W85287  34.131  13.079  11.022
20061W        W85288   0.159   6.188   3.225
20062W        W85289  40.902   0.609   2.390
20063W        W85290   3.728  16.889  12.955
20064W        W85291  21.620  32.399  13.509
20065W        W85292  20.220  18.493   0.824
20066W        W85293   8.746  20.527  13.002
20067W        W85294  33.802  44.786  12.800
20068W        W85295  25.533  27.627  10.726
20069W        W85296  14.776   6.419  11.637
20070W        W85297  31.028  43.756  12.026
20071W        W85298  27.282  39.625  14.977
20072W        W85299  22.935  11.658   4.431
20073W        W85300  26.587   6.179  11.039
20074W        W85301  44.853  33.463  12.054
20075W        W85302  31.979  42.263  14.329
20076W        W85303  23.602  36.973  11.514
20077W        W85304  34.795  14.664   2.242
20078W        W85305  40.287  36.366  10.712
20079W        W85306  13.284  20.254  14.530
20080W        W85307  19.659   3.202   4.577
20081W        W85308  14.235  15.065   3.706
20082W        W85309   1.515  12.088  11.564
20083W        W85310  29.503  17.225   1.877
20084W        W85311  25.267  26.574  11.149
20085W        W85312  36.525  37.799   3.707
20086W        W85313   8.945  20.096   2.779
20087W        W85314  44.114  43.855  10.477
20088W        W85315  16.187   4.738   0.436
20089W        W85316  29.525  23.920   1.340
20090W        W85317   7.843   0.890  13.358
20091W        W85318   7.759  32.594  13.885
20092W        W85319  26.303  40.765  11.212
20093W        W85320   7.192  21.172  13.018
20094W        W85321  19.636  28.579  12.394
20095W        W85322  11.467  37.625   3.352
20096W        W85323  34.591  12.837  13.098
20097W        W85324  28.438  27.168   0.394
20098W        W85325  14.943  22.131  11.145
20099W        W85326   5.868  21.305  12.029
20100W        W85327  20.276  18.127   3.542
20101W        W85328  11.944  26.877   0.716
20102W        W85329  31.672  40.399   3.771
20103W        W85330  37.157  13.662  10.689
20104W        W85331  43.995   4.549  14.944
20105W        W85332  37.603  35.582  13.010
20106W        W85333  24.106   5.943   1.322
20107W        W85334  31.919  17.170  11.036
20108W        W85335   8.263   5.573   0.888
20109W        W85336  43.417  22.370   2.583
20110W        W85337  30.181  21.263  14.025
20111W        W85338  17.976  39.967  13.978
20112W        W85339  16.931  24.591  14.971
20113W        W85340  33.083   2.883  11.539
20114W        W85341  24.705  38.160  13.039
20115W        W85342   5.219  43.080  11.628
20116W        W85343  43.728  26.209  10.898
20117W        W85344  14.340  44.260   0.509
20118W        W85345  21.235  17.085   1.276
20119W        W85346  42.265  10.578   3.157
20120W        W85347  14.769  42.319   3.766
20121W        W85348  32.388  24.174  14.968
20122W        W85349   0.764  23.977  10.990
20123W        W85350  13.860  24.090   2.191
20124W        W85351  32.624  13.155   0.339
20125W        W85352  34.412  28.909  12.511
20126W        W85353   2.244  42.069   0.059
20127W        W85354  19.558  36.294  13.285
20128W        W85355   5.524  29.344   2.352
20129W        W85356   6.668   1.305   1.785
20130W        W85357  32.453   0.506  10.246
20131W        W85358  10.424  32.796  14.513
20132W        W85359  43.824   0.413   0.883
20133W        W85360  41.016  18.486  12.441
20134W        W85361  28.851  42.788  12.380
20135W        W85362  30.662  40.914  13.124
20136W        W85363  39.886  38.108  14.786
20137W        W85364  12.439  42.275  12.569
20138W        W85365  37.509   6.698   0.465
20139W        W85366  16.247  14.335  12.399
20140W        W85367   5.127  30.970  12.566
20141W        W85368  25.156   8.848   4.607
20142W        W85369  15.833   3.818  13.811
20143W        W85370  43.495  16.145  12.074
20144W        W85371   1.314  17.146  13.508
20145W        W85372   4.016  30.013   1.309
20146W        W85373  36.330  20.732  12.029
20147W        W85374  39.526  29.177  11.977
20148W        W85375  42.554  34.165  12.559
20149W        W85376  44.958  26.503  11.251
20150W        W85377  32.808   2.202  14.688
20151W        W85378  24.101  36.111  10.068
20152W        W85379   6.325   5.364   3.160
20153W        W85380  27.547  31.393   1.724
20154W        W85381  32.712  11.721   1.821
20155W        W85382  11.559  16.658  12.439
20156W        W85383  42.069  29.167   1.280
20157W        W85384  22.414   3.905   1.036
20158W        W85385  23.511  19.731  13.994
20159W        W85386  24.112  25.431   2.466
20160W        W85387  30.739  34.595  12.732
20161W        W85388  15.789  15.675   3.654
20162W        W85389  18.110   7.632   1.866
20163W        W85390   2.999   6.356   1.910
20164W        W85391   7.278   7.225  12.047
20165W        W85392  44.667  41.881   2.064
20166W        W85393  37.600   5.597   5.392
20167W        W85394  24.987  32.055  13.898
20168W        W85395  11.165  36.001   1.768
20169W        W85396  31.391  29.192   0.945
20170W        W85397  38.340  36.408  14.015
20171W        W85398  11.352   4.834   3.236
20172W        W85399  40.800  10.669   0.671
20173W        W85400  31.023  28.319  10.093
20174W        W85401  20.547  31.662  11.081
20175W        W85402  32.925  38.533   1.479
20176W        W85403   8.286  21.142   0.185
20177W        W85404  38.469   8.200   1.155
20178W        W85405  13.136  10.996   0.094
20179W        W85406  37.303  39.902   0.256
20180W        W85407  25.893  38.355  14.771
20181W        W85408  42.027  15.043   4.875
20182W        W85409  16.134  36.468  13.628
20183W        W85410  31.074  18.160   3.383
20184W        W85411  31.947  32.358   3.213
20185W        W85412  43.999   6.808   3.308
20186W        W85413  41.404  16.818  13.838
20187W        W85414  36.401  22.032  11.580
20188W        W85415  41.966   3.553  14.492
20189W        W85416  30.079  44.272  14.888
20190W        W85417  39.162  35.274   3.528
20191W        W85418  18.377  20.174  10.647
20192W        W85419  19.555  40.420   2.707
20193W        W85420   4.904  11.152  11.579
20194W        W85421  12.002  39.313   1.319
20195W        W85422   4.396  25.542   3.621
20196W        W85423  39.306  19.477   0.403
20197W        W85424  21.649  18.162   3.605
20198W        W85425  14.060  44.100   1.935
20199W        W85426  35.660  34.504   0.369
20200W        W85427   6.544  20.571   3.788
20201W        W85428  39.373  29.324   1.247
20202W        W85429  37.240  24.461  11.993
20203W        W85430  10.932  14.031   2.760
20204W        W85431  38.445  34.474  10.592
20205W        W85432  21.405  26.260  12.892
20206W        W85433  34.548  22.237  12.915
20207W        W85434  41.971  18.559  13.962
20208W        W85435  38.445  36.865  14.271
20209W        W85436  41.991  33.429  11.586
20210W        W85437  23.268   2.292   5.156
20211W        W85438  29.469  23.279   3.263
20212W        W85439  32.635  22.512  11.718
20213W        W85440  30.647   4.343  14.573
20214W        W85441   4.486  35.878   0.299
20215W        W85442  44.257  43.298   4.587
20216W        W85443   8.231  38.564  10.690
20217W        W85444  40.935  39.025   4.151
20218W        W85445  30.894  28.462   2.763
20219W        W85446  33.191  15.743   1.417
20220W        W85447   5.496  21.944   3.317
20221W        W85448  27.254  34.401   2.613
20222W        W85449  13.663  13.094   3.663
20223W        W85450   6.223  22.741   2.544
20224W        W85451  12.701   9.443  13.934
20225W        W85452  29.378  43.988   4.057
20226W        W85453  16.124  43.444   0.255
20227W        W85454  30.717   2.860   4.148
20228W        W85455  41.963  38.516   1.425
20229W        W85456   1.746   9.168   1.814
20230W        W85457   7.222  38.983  10.710
20231W        W85458  39.642  17.795  13.871
20232W        W85459  12.470  43.002  12.976
20233W        W85460  13.144  20.739  14.469
20234W        W85461   6.854  27.696   4.653
20235W        W85462  19.416  12.091   4.164
20236W        W85463  18.092   3.119   1.851
20237W        W85464  35.161  38.127  12.414
20238W        W85465  26.073  35.753  10.698
20239W        W85466  21.048  30.722   1.747
20240W        W85467  30.566  16.138   2.628
20241W        W85468  34.086  23.069   3.026
20242W        W85469  37.335   8.695  11.061
20243W        W85470  31.109  33.937   3.992
20244W        W85471  16.691  28.114   4.189
20245W        W85472   7.678   8.169   0.431
20246W        W85473  24.568  33.144   2.189
20247W        W85474  42.283   5.254   2.588
20248W        W85475  29.672  29.228   2.748
20249W        W85476  33.067  28.180  12.454
20250W        W85477   4.669  19.184  11.030
20251W        W85478  18.564  12.377   2.680
20252W        W85479  10.867  14.865  10.634
20253W        W85480   8.182  34.239   0.827
20254W        W85481  17.684   1.381  13.001
20255W        W85482  25.105  24.308  14.314
20256W        W85483  12.705  11.555   0.351
20257W        W85484  23.212  31.003  14.105
20258W        W85485  32.023  24.024   1.293
20259W        W85486  40.274  13.585   3.741
20260W        W85487  27.292  20.522   0.213
20261W        W85488  10.318  35.885   1.898
20262W        W85489  16.021  11.115  14.234
20263W        W85490  30.915  25.952   4.174
20264W        W85491  20.289  43.258  12.040
20265W        W85492  29.048  13.823  12.491
20266W        W85493  30.869  24.098   1.709
20267W        W85494  15.736  38.053   3.351
20268W        W85495  42.334  17.143  14.924
20269W        W85496  18.810  41.292  13.849
20270W        W85497  35.445   2.287   3.956
20271W        W85498  39.403  11.887  11.990
20272W        W85499  15.278  12.402  14.038
20273W        W85500   5.028  28.605  10.037
20274W        W85501  15.463  28.095   5.094
20275W        W85502  31.522  38.960  13.129
20276W        W85503  24.430   5.799   1.918
20277W        W85504  14.384  30.445   1.807
20278W        W85505  26.292  32.028  13.427
20279W        W85506  13.261  22.035   3.770
20280W        W85507  22.623  25.193   0.799
20281W        W85508  38.923  44.171   3.572
20282W        W85509  44.420  28.960  12.367
20283W        W85510   2.339   4.389  11.406
20284W        W85511  30.552  38.819   1.293
20285W        W85512   6.867  20.686   2.916
20286W        W85513  18.788   4.719   3.784
20287W        W85514  16.802  10.259   0.887
20288W        W85515  23.452  34.551   0.365
20289W        W85516  34.549   5.347  10.677
20290W        W85517  25.585  44.922  13.819
20291W        W85518  12.431  11.800   2.175
20292W        W85519   5.922   0.390   2.445
20293W        W85520  37.691   9.781  12.973
20294W        W85521   3.892  26.560   0.453
20295W        W85522  30.402  33.419   1.073
20296W        W85523   6.356  32.512   4.650
20297W        W85524   5.332  23.513   3.241
20298W        W85525  42.567  38.280   2.791
20299W        W85526  12.378  14.243   4.537
20300W        W85527  31.953  16.532  14.618
20301W        W85528  19.307  30.526   4.579
20302W        W85529  40.792   9.610   1.689
20303W        W85530  21.106  29.987  13.479
20304W        W85531  23.036  29.493  10.948
20305W        W85532  29.427  31.059   3.913
20306W        W85533   8.373  39.845  11.115
20307W        W85534  12.229  31.841  14.391
20308W        W85535  36.249  15.308  13.971
20309W        W85536  27.738  20.786   2.710
20310W        W85537   1.744   6.763   4.541
20311W        W85538  14.760  35.852  13.123
20312W        W85539   5.150  37.453   0.382
20313W        W85540  15.997  44.444  12.000
20314W        W85541  12.002  21.621   1.967
20315W        W85542   2.525  20.526  10.121
20316W        W85543   8.551  43.398   3.675
20317W        W85544   1.124  20.618  10.672
20318W        W85545  39.803  16.812  13.134
20319W        W85546  30.112  16.303   2.815
20320W        W85547  43.974  40.633  10.502
20321W        W85548  35.585  44.536  14.012
20322W        W85549  31.548  21.012   4.075
20323W        W85550   0.296  24.911  13.328
20324W        W85551  33.370   4.529  11.086
20325W        W85552  33.685  32.162   3.892
20326W        W85553  20.437  24.911  12.178
20327W        W85554  15.199  44.406   4.390
20328W        W85555   1.155  36.730  11.206
20329W        W85556  25.453   4.266   1.880
20330W        W85557  36.184  16.240   4.074
20331W        W85558  35.170  25.219   2.420
20332W        W85559   5.675  21.076  14.004
20333W        W85560  42.245  13.494  13.104
20334W        W85561   4.379  40.261   4.532
20335W        W85562  27.187   4.481   3.537
20336W        W85563  44.510   1.005  10.197
20337W        W85564  18.172   3.742   4.385
20338W        W85565  40.083  38.721   1.318
20339W        W85566  24.549   6.138  11.180
20340W        W85567  39.504  30.361   1.268
20341W        W85568  42.519  23.628   4.718
20342W        W85569   1.994  14.235  14.376
20343W        W85570  33.740  27.261   3.880
20344W        W85571  35.708  16.515   3.667
20345W        W85572  44.607  43.500  13.514
20346W        W85573  44.534   3.296   2.535
20347W        W85574   5.836  34.004   3.380
20348W        W85575  19.194  24.982   2.794
20349W        W85576  26.562  23.059   0.244
20350W        W85577   2.158   8.472   3.139
20351W        W85578   2.283   1.131  14.072
20352W        W85579   8.078  21.318  14.340
20353W        W85580  34.971  22.995   1.499
20354W        W85581  36.102  24.959  11.444
20355W        W85582   0.008  33.490  13.407
20356W        W85583   4.636  43.262   2.260
20357W        W85584   5.870  37.908   1.720
20358W        W85585  15.013  10.799   3.249
20359W        W85586  42.500  26.389   1.271
20360W        W85587  18.983  20.810  11.538
20361W        W85588  30.112  10.429  11.965
20362W        W85589  35.831  38.705   5.487
20363W        W85590  21.041  26.243  13.550
20364W        W85591  11.203  29.530   3.124
20365W        W85592   4.001   0.258  14.398
20366W        W85593   8.317   3.277   1.378
20367W        W85594  19.348  35.123  11.933
20368W        W85595   9.727  23.129  14.136
20369W        W85596   1.278   6.115  10.651
20370W        W85597  25.197   1.975  14.384
20371W        W85598  25.988  14.731   4.557
20372W        W85599  11.598  20.070   0.926
20373W        W85600  35.665   3.205  12.405
20374W        W85601  42.102   4.806   2.945
20375W        W85602  21.469  18.777  13.920
20376W        W85603  44.356   5.365   3.109
20377W        W85604  31.083  33.015  13.034
20378W        W85605   2.313   4.475  10.563
20379W        W85606  41.930  11.386   3.279
20380W        W85607   7.176  32.847  12.211
20381W        W85608  43.457  43.605  13.906
20382W        W85609   7.960  37.898   1.731
20383W        W85610   4.898  28.286  13.307
20384W        W85611  24.592  27.147   2.584
20385W        W85612  10.318  22.704  13.890
20386W        W85613  19.864  26.493  12.130
20387W        W85614  43.088  25.579   5.220
20388W        W85615  29.184  12.602  11.188
20389W        W85616  44.156  25.729  13.473
20390W        W85617  15.841  28.347   3.734
20391W        W85618  25.849  19.854   1.779
20392W        W85619  36.370  15.792  12.076
20393W        W85620  23.988  40.359  11.517
20394W        W85621  25.042  10.935   0.806
20395W        W85622  22.610  37.063  13.333
20396W        W85623  25.359  36.983  10.637
20397W        W85624   9.346  21.103   5.091
20398W        W85625  22.130  36.393  13.934
20399W        W85626  39.397  16.819  12.391
20400W        W85627  20.618  26.100  12.217
20401W        W85628  13.334  44.492   0.417
20402W        W85629   9.633  13.122  13.362
20403W        W85630  28.398   3.316  14.296
20404W        W85631  31.406   8.261  12.357
20405W        W85632   4.397  14.874  13.393
20406W        W85633  26.984  44.955   1.847
20407W        W85634  44.830  20.878   4.928
20408W        W85635  27.173  33.417   0.789
20409W        W85636   8.980  37.951   0.894
20410W        W85637   2.168   5.826  14.801
20411W        W85638   5.720  33.443  10.880
20412W        W85639  39.443  33.093   0.375
20413W        W85640   4.444  15.684  13.097
20414W        W85641  38.413  32.499   0.973
20415W        W85642  28.023  36.016  14.819
20416W        W85643  19.367  15.094  11.503
20417W        W85644  31.830  42.059  12.191
20418W        W85645   3.544  27.934   5.291
20419W        W85646  44.500  38.103  10.275
20420W        W85647  20.278  41.712   2.888
20421W        W85648   7.653  12.141   0.908
20422W        W85649  37.615  23.548  10.663
20423W        W85650   5.515  34.930  12.541
20424W        W85651   8.875   0.989  12.799
20425W        W85652  24.436  29.604   4.190
20426W        W85653  25.216  13.640  14.786
20427W        W85654  23.928   1.809  12.330
20428W        W85655  15.204  24.475  13.949
20429W        W85656  20.720  36.109   4.747
20430W        W85657  36.143   2.946   0.329
20431W        W85658  22.544  40.516  14.412
20432W        W85659  18.771  37.664  12.296
20433W        W85660   8.702  23.065  10.939
20434W        W85661  26.200  28.576  14.850
20435W        W85662  17.277  19.481   4.980
20436W        W85663  12.030  20.084   0.622
20437W        W85664  29.102  13.538   1.742
20438W        W85665   3.893  35.063   1.207
20439W        W85666  41.961  30.406   4.563
20440W        W85667  41.759   6.710  13.561
20441W        W85668   3.424  39.791   3.228
20442W        W85669  25.175  36.849   1.742
20443W        W85670  33.988  38.632  11.597
20444W        W85671   2.815  41.268  12.911
20445W        W85672  26.702  39.311   3.626
20446W        W85673  21.141  23.097   3.146
20447W        W85674  13.898   8.880  11.416
20448W        W85675   0.888   2.126  10.590
20449W        W85676   0.960  18.274   1.237
20450W        W85677   3.741  10.867   1.305
20451W        W85678   7.036  40.514  14.022
20452W        W85679   9.676  44.833   2.460
20453W        W85680  35.577  44.867  14.939
20454W        W85681  21.633  38.130  12.058
20455W        W85682  20.681  10.927  14.855
20456W        W85683  29.359   9.616  12.435
20457W        W85684   5.770  25.051   3.863
20458W        W85685   0.698  27.005  13.378
20459W        W85686  18.466  25.425   1.377
20460W        W85687  43.315   3.685  14.793
20461W        W85688   2.614  22.882   2.945
20462W        W85689  42.774   8.541  11.722
20463W        W85690  40.350  15.641  10.683
20464W        W85691  15.225   0.931   0.335
20465W        W85692   3.041  43.392   0.902
20466W        W85693  24.267  10.131  10.180
20467W        W85694  21.079   5.937  13.870
20468W        W85695   8.815  33.900   2.667
20469W        W85696  33.025  22.730  11.019
20470W        W85697  22.142  15.168   0.466
20471W        W85698  29.406   2.836  12.221
20472W        W85699  32.362  43.388   3.792
20473W        W85700  38.846  14.533   2.789
20474W        W85701  38.795   6.283  14.801
20475W        W85702  23.211  38.178   4.003
20476W        W85703   2.970  35.418   0.848
20477W        W85704   6.676  12.292  11.107
20478W        W85705  22.041  36.408   1.558
20479W        W85706  37.921  25.720  14.263
20480W        W85707  35.600  18.095   1.007
20481W        W85708   9.305  19.167   4.512
20482W        W85709  23.920  17.682  12.894
20483W        W85710   4.871  12.334  12.889
20484W        W85711  22.018  37.449  13.349
20485W        W85712   5.852  31.174   4.258
20486W        W85713  26.644  17.248   5.000
20487W        W85714  39.998  17.773  14.264
20488W        W85715  34.292  25.656   1.325
20489W        W85716  22.407  20.622  13.130
20490W        W85717  28.642  35.627  13.272
20491W        W85718  38.638  18.057  13.856
20492W        W85719  27.558   6.801   3.193
20493W        W85720  13.705  30.918  11.101
20494W        W85721   0.954   0.748  11.756
20495W        W85722  25.625  43.550  13.792
20496W        W85723  43.891  21.786  11.160
20497W        W85724  16.741  10.421  10.821
20498W        W85725  20.204  40.167   3.646
20499W        W85726   2.625  28.656  14.803
20500W        W85727  12.264  41.860   3.775
20501W        W85728   4.193  16.232  11.949
20502W        W85729   5.694  43.115   2.561
20503W        W85730   9.780  12.654  14.118
20504W        W85731   6.340  20.733   2.988
20505W        W85732  33.706  28.202   4.016
20506W        W85733  15.772  30.720  12.987
20507W        W85734   2.404  16.619  11.094
20508W        W85735  15.208  26.256   4.626
20509W        W85736   9.787   7.194   3.875
20510W        W85737  25.754  41.435  11.769
20511W        W85738   2.171   2.655  11.130
20512W        W85739  32.144  34.054   3.693
20513W        W85740  40.197   4.692  11.978
20514W        W85741  10.348  22.602  11.498
20515W        W85742  27.200   0.374   5.565
20516W        W85743  19.359  35.104  11.096
20517W        W85744  31.590  31.061   0.405
20518W        W85745  28.207  19.749  14.918
20519W        W85746  10.810   5.391   1.463
20520W        W85747  10.438  13.369  13.448
20521W        W85748  16.280  19.879  10.788
20522W        W85749  42.410  19.194   0.763
20523W        W85750  43.829  33.779   1.510
20524W        W85751  41.836  21.664   4.101
20525W        W85752  17.988   7.762  12.082
20526W        W85753  41.776  40.367  11.232
20527W        W85754  30.190  34.569   4.079
20528W        W85755  20.722   8.392   3.053
20529W        W85756  30.238   0.737  14.878
20530W        W85757  11.346  25.505   0.966
20531W        W85758  30.684  38.644   4.509
20532W        W85759   7.561  30.238  13.007
20533W        W85760  33.757  26.685  10.739
20534W        W85761  38.604  30.899   2.688
20535W        W85762  23.595   8.361   3.614
20536W        W85763   0.360  16.076   1.380
20537W        W85764  41.023   0.322  11.528
20538W        W85765   4.566  31.305  11.166
20539W        W85766  30.019  17.983   4.371
20540W        W85767   5.937  30.688  13.687
20541W        W85768  16.538   3.907  12.418
20542W        W85769  25.348   7.073  13.736
20543W        W85770  13.315  20.567   2.647
20544W        W85771  36.010  14.591   4.426
20545W        W85772   8.238  19.215   4.015
20546W        W85773  24.493  17.337  12.094
20547W        W85774  17.291   2.358   3.911
20548W        W85775  17.586  18.121  14.467
20549W        W85776  34.409  21.731  13.008
20550W        W85777  21.518  41.738   3.171
20551W        W85778  32.899  42.070   0.881
20552W        W85779  34.210   9.787   1.317
20553W        W85780  13.282   7.886   2.310
20554W        W85781   3.016  30.919   3.801
20555W        W85782   7.947   1.204  12.697
20556W        W85783  10.346   7.540   5.011
20557W        W85784  43.285  22.717  12.213
20558W        W85785  27.003  22.900  12.549
20559W        W85786  19.744   5.350  13.918
20560W        W85787   8.714  23.054   0.446
20561W        W85788  39.778  37.447   4.175
20562W        W85789   0.839   5.957   9.998
20563W        W85790  42.876  11.571  11.831
20564W        W85791  37.679  26.866   4.077
20565W        W85792  33.986   9.188  10.496
20566W        W85793  27.671  40.797   3.367
20567W        W85794  10.166  39.246   2.817
20568W        W85795  38.046  36.591  11.261
20569W        W85796  43.775  30.013  12.098
20570W        W85797  26.780   6.916   1.250
20571W        W85798  32.843  38.302   2.457
20572W        W85799   5.209  34.271   1.658
20573W        W85800   8.283  42.522   2.893
20574W        W85801   4.776  30.660   0.865
20575W        W85802  32.861  21.452   1.966
20576W        W85803  12.745  17.067  11.452
20577W        W85804   0.438   6.201   2.776
20578W        W85805  43.978  20.248  13.383
20579W        W85806   7.359   3.874  10.685
20580W        W85807   0.213   4.573  11.612
20581W        W85808   2.181  28.063  10.958
20582W        W85809   8.650  40.001   2.901
20583W        W85810  12.757  10.727   2.386
20584W        W85811  44.864  12.965   3.868
20585W        W85812  43.986  23.902  10.702
20586W        W85813  13.699  24.723   0.513
20587W        W85814  30.862   3.928  12.552
20588W        W85815   7.560  11.141  14.002
20589W        W85816  22.652  15.101  11.771
20590W        W85817  35.644   6.377  12.607
20591W        W85818  35.344  31.435   4.629
20592W        W85819  20.578  19.618  12.492
20593W        W85820  32.653  41.379   4.917
20594W        W85821  24.648  12.212  13.835
20595W        W85822  40.694  13.031   5.082
20596W        W85823  33.639  36.038  14.792
20597W        W85824   8.522  17.100  10.367
20598W        W85825  13.137   1.234   4.491
20599W        W85826  18.868  24.559  14.637
20600W        W85827  25.499   1.906   1.791
20601W        W85828  18.921  12.461  11.211
20602W        W85829  30.435  15.693  12.517
20603W        W85830  32.434   8.456  13.935
20604W        W85831  40.315  33.551  11.096
20605W        W85832   9.702  18.631  13.187
20606W        W85833  35.806   2.534  11.565
20607W        W85834  40.285  37.946   4.868
20608W        W85835  24.809  24.092   2.742
20609W        W85836  43.879  22.562  12.563
20610W        W85837  27.205  31.402  11.492
20611W        W85838  30.158   7.944   1.208
20612W        W85839  43.308  33.532   0.324
20613W        W85840  23.396   5.139  14.207
20614W        W85841  42.785  37.580  12.142
20615W        W85842   6.630  28.979  13.362
20616W        W85843  30.516  23.274   2.466
20617W        W85844  18.700  25.798  14.572
20618W        W85845  40.772  12.740  13.724
20619W        W85846   6.070   2.259   0.249
20620W        W85847   4.880  10.835   0.748
20621W        W85848  21.690  16.834   4.282
20622W        W85849  34.419  40.461  14.767
20623W        W85850   5.536   1.342  11.327
20624W        W85851  37.615   9.301   3.641
20625W        W85852  16.665  13.513   3.710
20626W        W85853  15.811  23.761  12.414
20627W        W85854  39.007  31.572   1.255
20628W        W85855  31.761  29.453  12.267
20629W        W85856  43.388  13.588   0.457
20630W        W85857  15.843  34.666   1.214
20631W        W85858   5.932  30.147   1.317
20632W        W85859  39.268  18.312   2.818
20633W        W85860  44.767  10.654   4.672
20634W        W85861   7.748  39.819   1.655
20635W        W85862   8.247  22.732  14.553
20636W        W85863  30.763  39.612  13.399
20637W        W85864  15.921   2.822   3.264
20638W        W85865  17.354  20.286   3.771
20639W        W85866  33.595  15.826   3.574
20640W        W85867  40.372   1.464   2.204
20641W        W85868  29.454  42.936  11.993
20642W        W85869  11.789  27.403  14.778
20643W        W85870  22.476  15.142  13.970
20644W        W85871  36.981  23.621  14.784
20645W        W85872   3.645  36.336   0.778
20646W        W85873  27.285  25.468   1.705
20647W        W85874  39.411   1.813   4.845
20648W        W85875  36.075  20.615   4.597
20649W        W85876  40.733  32.604  14.623
20650W        W85877  12.730  16.702   3.426
20651W        W85878   4.899   1.760  13.429
20652W        W85879  12.657  18.111  12.898
20653W        W85880   8.205   3.656   4.360
20654W        W85881  21.386   3.834  13.872
20655W        W85882  21.708   2.325   1.946
20656W        W85883  34.791   3.306   2.692
20657W        W85884   4.601  22.967   2.662
20658W        W85885  10.153  18.438   2.358
20659W        W85886  23.946  33.871  11.070
20660W        W85887  15.923  23.735  10.864
20661W        W85888   1.840  42.832   1.977
20662W        W85889   5.577  42.859  13.332
20663W        W85890   4.721   2.702   3.374
20664W        W85891  37.033  28.917   0.714
20665W        W85892  24.782   0.031   3.256
20666W        W85893  25.933  31.960  13.023
20667W        W85894  29.013  35.086   0.869
20668W        W85895   3.862  38.108   0.729
20669W        W85896  20.783  24.256   4.160
20670W        W85897  26.828  26.626  11.156
20671W        W85898   3.285  15.598   3.337
20672W        W85899  24.572  22.768  10.583
20673W        W85900   5.789  32.597  12.796
20674W        W85901  12.172  44.171   1.929
20675W        W85902  43.883  34.112  12.528
20676W        W85903   5.408  23.058   1.039
20677W        W85904  21.759  35.542   2.156
20678W        W85905  12.514   2.716  14.299
20679W        W85906  32.527  38.372   3.689
20680W        W85907   4.353  15.738  10.786
20681W        W85908  23.628   4.383   1.775
20682W        W85909  31.849  24.747  11.193
20683W        W85910  12.977  37.556   3.587
20684W        W85911   9.996  36.044  12.026
20685W        W85912  22.998  34.520  11.668
20686W        W85913  38.975  41.416   4.600
20687W        W85914  32.208  42.804   4.073
20688W        W85915  17.759   2.850  10.766
20689W        W85916  21.176  31.053   2.667
20690W        W85917  24.409  27.114   3.626
20691W        W85918  36.409  32.878  12.087
20692W        W85919  43.976  24.345   0.929
20693W        W85920  21.101   4.685  14.244
20694W        W85921  43.291  26.323  10.653
20695W        W85922  28.470   5.656  12.597
20696W        W85923   9.908   7.679   2.125
20697W        W85924  41.140   4.938  10.297
20698W        W85925  29.995  24.698  10.303
20699W        W85926   3.024  36.103  14.002
20700W        W85927   5.857  28.122  10.939
20701W        W85928   6.622  19.055   3.593
20702W        W85929  33.543  39.592  14.268
20703W        W85930   8.461  14.655   3.336
20704W        W85931  21.101  38.905  11.824
20705W        W85932  11.471  34.736   4.369
20706W        W85933   6.238  26.998   1.785
20707W        W85934  13.938  21.984  11.347
20708W        W85935  13.505  23.547  12.204
20709W        W85936  23.232  42.164   3.702
20710W        W85937  36.905  31.590  10.987
20711W        W85938  19.139  27.928   1.781
20712W        W85939  31.196  32.293  12.522
20713W        W85940  10.477  13.704  12.420
20714W        W85941  35.104   0.660  14.356
20715W        W85942   5.356   0.282   1.287
20716W        W85943  36.123  20.122   0.034
20717W        W85944  35.581   7.217   4.502
20718W        W85945  35.007  40.903   4.817
20719W        W85946  26.557  22.985   5.133
20720W        W85947  17.929  23.051  14.309
20721W        W85948  30.652   5.260   4.167
20722W        W85949  28.225  33.051   2.330
20723W        W85950  10.516  20.984   0.459
20724W        W85951  29.506  34.515  11.620
20725W        W85952  38.957  14.057  13.590
20726W        W85953   4.219  23.500  11.891
20727W        W85954   2.847  28.614   4.355
20728W        W85955  23.557  26.715  12.833
20729W        W85956  18.288   8.563   4.558
20730W        W85957   3.821   1.836   5.799
20731W        W85958   6.938  26.537  11.988
20732W        W85959   7.967  34.914   0.717
20733W        W85960  22.010   2.372  13.481
20734W        W85961  43.122  32.945   0.809
20735W        W85962   0.230  42.368   3.219
20736W        W85963  16.186  12.800   1.926
20737W        W85964  21.026  41.879  10.489
20738W        W85965  26.806   4.817   4.905
20739W        W85966   1.699  13.049  13.340
20740W        W85967  28.934  37.118  14.958
20741W        W85968  32.195  18.518  11.652
20742W        W85969   1.010  30.990  13.359
20743W        W85970  40.051  29.069   4.867
20744W        W85971  20.985   2.837  13.455
20745W        W85972   9.769  27.494  11.599
20746W        W85973  31.611   7.381  12.050
20747W        W85974  44.829  35.391   2.703
20748W        W85975  13.293  12.275   1.887
20749W        W85976   8.533  21.546  14.917
20750W        W85977  42.773  30.108  13.596
20751W        W85978  34.959  37.050   1.151
20752W        W85979  32.702   2.168   3.239
20753W        W85980  16.792  21.216   1.964
20754W        W85981   6.957  41.561   0.596
20755W        W85982  32.637  17.204  11.435
20756W        W85983   0.311   5.423  13.486
20757W        W85984  19.481  30.934   2.376
20758W        W85985  29.591  26.456  12.481
20759W        W85986   5.750   5.304   0.848
20760W        W85987  20.757  17.839   1.881
20761W        W85988  25.999  25.041   3.274
20762W        W85989  17.348  31.135   1.352
20763W        W85990  19.568  32.421  13.780
20764W        W85991  41.031  18.417  13.548
20765W        W85992  32.400  24.253   4.216
20766W        W85993  24.237  13.118  13.994
20767W        W85994   8.887  34.636   2.303
20768W        W85995  28.527   8.141   1.571
20769W        W85996  44.265   6.927  14.821
20770W        W85997  21.204  44.484  14.895
20771W        W85998  14.760  36.303  12.870
20772W        W85999   8.679  13.259  11.172
20773W        W86000   3.760  44.991   2.792
20774W        W86001  38.055  17.348   0.788
20775W        W86002  14.845   2.370  11.233
20776W        W86003  43.420   8.352  10.973
20777W        W86004   9.908  17.090   1.346
20778W        W86005  10.937  32.474  12.444
20779W        W86006  21.586  39.953   4.845
20780W        W86007  33.834  19.906   3.188
20781W        W86008  33.725  33.069  11.943
20782W        W86009  40.080  35.122   4.620
20783W        W86010   4.460   8.783  14.990
20784W        W86011   9.619  33.144  14.848
20785W        W86012   0.607  40.406   4.594
20786W        W86013  41.285  36.001   4.911
20787W        W86014  35.904   0.019   1.244
20788W        W86015  31.522  27.483  14.435
20789W        W86016  36.771   7.890  11.500
20790W        W86017  27.439  44.943  12.939
20791W        W86018  44.316  42.319   1.475
20792W        W86019  28.723  18.988  14.259
20793W        W86020  35.583  39.263   2.812
20794W        W86021  15.131  25.453  11.947
20795W        W86022  22.941  30.417  10.917
20796W        W86023  30.862  26.644   2.127
20797W        W86024  40.195  28.574  14.311
20798W        W86025  41.782   2.292   4.768
20799W        W86026  25.966  29.035  13.870
20800W        W86027   2.886  10.762  14.394
20801W        W86028  17.445   1.482   0.008
20802W        W86029   4.675  30.131   4.073
20803W        W86030  44.297  25.934   3.834
20804W        W86031  38.434  42.962  11.606
20805W        W86032   9.100  32.561  13.635
20806W        W86033  31.800  40.550  14.902
20807W        W86034  24.124  34.165  14.895
20808W        W86035  26.314  41.544   2.106
20809W        W86036  44.022   6.255   3.192
20810W        W86037  22.207  12.847  14.368
20811W        W86038  16.714  28.342  14.059
20812W        W86039  19.836  27.113   0.170
20813W        W86040  14.354   4.228   0.357
20814W        W86041  10.118   1.353   1.764
20815W        W86042  23.131  11.433  14.069
20816W        W86043  14.132  22.076  13.490
20817W        W86044  30.170  28.473  13.869
20818W        W86045  19.069  24.633  11.835
20819W        W86046  13.164   5.962   3.812
20820W        W86047  16.122  41.254  12.078
20821W        W86048  14.414  23.787   3.973
20822W        W86049  33.500   3.464   1.877
20823W        W86050  16.549  39.531   2.291
20824W        W86051   8.221   2.143   4.589
20825W        W86052  33.104   6.217  14.829
20826W        W86053  11.925  21.257   5.210
20827W        W86054  32.382  35.819  12.984
20828W        W86055  24.565   0.487   3.380
20829W        W86056  14.843   3.891  10.730
20830W        W86057  44.385  18.668   4.470
20831W        W86058  34.362  36.386   2.219
20832W        W86059  10.775  42.571   4.312
20833W        W86060  25.572  15.411  13.436
20834W        W86061   3.763   3.399   4.530
20835W        W86062   2.151  18.775   2.515
20836W        W86063   1.070  25.935  14.432
20837W        W86064  36.148   0.013  14.252
20838W        W86065  37.788  41.927  13.247
20839W        W86066  38.996  33.887   2.143
20840W        W86067  27.075  32.235   4.466
20841W        W86068  35.419  29.939  12.592
20842W        W86069  20.970  18.924   0.592
20843W        W86070   2.385  44.764  13.353
20844W        W86071  30.597  44.955   1.719
20845W        W86072  30.501  20.665   4.253
20846W        W86073  34.643  29.634  13.053
20847W        W86074  17.299  20.895  10.685
20848W        W86075  34.883   9.385  10.980
20849W        W86076  32.853   2.109  11.952
20850W        W86077  24.735  26.540  11.139
20851W        W86078   3.776  22.026   3.271
20852W        W86079  34.499  19.538   3.516
20853W        W86080  23.162  32.428   0.450
20854W        W86081  22.150  27.392  12.552
20855W        W86082   9.053  12.462  12.037
20856W        W86083  39.303   1.353   0.449
20857W        W86084  27.654  20.296  11.110
20858W        W86085  15.946  19.767   1.688
20859W        W86086  35.042  31.493   1.690
20860W        W86087  19.993  32.246  14.000
20861W        W86088  17.194   7.694   2.356
20862W        W86089   2.851  20.185   3.726
20863W        W86090   9.893  43.710   0.854
20864W        W86091  22.178  35.406   0.880
20865W        W86092  17.725  28.620   3.411
20866W        W86093  20.174  36.321   3.201
20867W        W86094  34.958  22.350  14.876
20868W        W86095  10.409  26.398   0.475
20869W        W86096   8.172   2.786   1.437
20870W        W86097  25.407  40.079  11.855
20871W        W86098  17.486  15.770  11.203
20872W        W86099  33.859   4.343   2.285
20873W        W86100  28.788   6.136  13.974
20874W        W86101  18.755  43.436  13.322
20875W        W86102   1.263  29.530  12.072
20876W        W86103  38.544  39.501  12.660
20877W        W86104  10.142  41.327   4.838
20878W        W86105  13.634   9.328  13.946
20879W        W86106  42.817  22.012  14.936
20880W        W86107  16.858  44.936   4.492
20881W        W86108  42.903  24.309   1.437
20882W        W86109   0.295   9.098   2.835
20883W        W86110   0.704  36.927  11.034
20884W        W86111   5.212  44.946   3.715
20885W        W86112  10.393  10.238   2.721
20886W        W86113   9.742  35.966   1.389
20887W        W86114  13.648  22.291   4.697
20888W        W86115  43.365  27.321  10.562
20889W        W86116  29.148   9.851  13.755
20890W        W86117  15.735  31.924  11.081
20891W        W86118  12.787  37.340   0.315
20892W        W86119  18.734  24.679   4.167
20893W        W86120   1.496   4.622  11.693
20894W        W86121  10.627   2.288   1.751
20895W        W86122  32.638   6.771   4.781
20896W        W86123  17.144  31.619  11.756
20897W        W86124   3.259  20.070  10.572
20898W        W86125  28.348  22.641  11.618
20899W        W86126  12.342  26.572  14.494
20900W        W86127   3.598  22.390   2.036
20901W        W86128  42.639  33.668  12.111
20902W        W86129  19.632  37.244  12.898
20903W        W86130  33.539  21.262  12.991
20904W        W86131  34.022  41.397   2.938
20905W        W86132  39.752  31.639   1.776
20906W        W86133  27.595  21.691   1.466
20907W        W86134   2.442  24.670  10.668
20908W        W86135  16.116  44.336  13.148
20909W        W86136  27.604  13.076   3.755
20910W        W86137  13.029   1.372  12.105
20911W        W86138  43.334  40.530  13.172
20912W        W86139  16.742  40.547  13.833
20913W        W86140  10.936   7.235  13.035
20914W        W86141  16.882  37.421   0.385
20915W        W86142  32.346  44.531   0.877
20916W        W86143  43.971  21.165   2.818
20917W        W86144  12.181  27.615   0.059
20918W        W86145  44.440  32.524   3.818
20919W        W86146  38.454   9.338  10.498
20920W        W86147  39.874  27.470   4.042
20921W        W86148  16.586  16.916   2.283
20922W        W86149  16.705  28.481   3.512
20923W        W86150  42.850  17.554   0.878
20924W        W86151  22.495   6.438  11.986
20925W        W86152  37.894  34.427  10.992
20926W        W86153  21.256   1.769  11.725
20927W        W86154  25.476  32.323   3.724
20928W        W86155  35.559  27.135  12.445
20929W        W86156  42.807   5.837   3.631
20930W        W86157  23.723  44.342  14.538
20931W        W86158  16.870  38.994   4.482
20932W        W86159   1.960  44.885  12.073
20933W        W86160  18.521   9.561   4.242
20934W        W86161  13.719  29.465   1.596
20935W        W86162  14.746  25.735  12.113
20936W        W86163  35.258  27.871  10.725
20937W        W86164  44.355  24.446  11.861
20938W        W86165  22.450  37.781   3.635
20939W        W86166   3.977  27.928   9.941
20940W        W86167  43.725  41.919  13.155
20941W        W86168  39.920  25.678   0.713
20942W        W86169  23.583   6.979  13.881
20943W        W86170  29.024  26.616  14.283
20944W        W86171  13.603  19.354  13.428
20945W        W86172   7.897  10.305  14.248
20946W        W86173  22.738  23.855   0.571
20947W        W86174   9.578  40.000  10.804
20948W        W86175  18.470  14.785  14.282
20949W        W86176  14.767  22.314  11.598
20950W        W86177  28.877  40.389  11.110
20951W        W86178   7.045  25.118   1.053
20952W        W86179  36.308  12.672  11.210
20953W        W86180  34.451  19.781  12.033
20954W        W86181  30.527  17.767  10.482
20955W        W86182  30.409  15.370  12.070
20956W        W86183  11.224  40.000  12.009
20957W        W86184  43.589  32.047  12.068
20958W        W86185  20.818  18.587  11.965
20959W        W86186  43.743   1.404  14.849
20960W        W86187  22.007   0.670   0.379
20961W        W86188  34.951  10.844   3.826
20962W        W86189  17.057  20.275  13.460
20963W        W86190  38.056   9.544  10.160
20964W        W86191  31.068   4.459   3.286
20965W        W86192   8.834  44.480  13.060
20966W        W86193  33.492  24.893  10.688
20967W        W86194  39.630  11.231  11.230
20968W        W86195  17.671  36.313  13.380
20969W        W86196   3.010   4.196  13.001
20970W        W86197   4.415  22.224   0.314
20971W        W86198  44.745   7.898  11.493
20972W        W86199  29.241   2.465  13.884
20973W        W86200   8.714   7.026  11.527
20974W        W86201  40.050  28.316   2.728
20975W        W86202   7.146  14.496   0.889
20976W        W86203  38.498   9.733  13.813
20977W        W86204  43.345  20.035   1.896
20978W        W86205  11.469  33.918   0.482
20979W        W86206   0.233  24.110   4.956
20980W        W86207  39.431   3.752  10.999
20981W        W86208  11.151   7.878  11.373
20982W        W86209  42.402   5.820  12.715
20983W        W86210  37.823  36.501  14.024
20984W        W86211  12.909  36.367  12.479
20985W        W86212  13.901   9.736   0.263
20986W        W86213  22.021   9.397  14.047
20987W        W86214   2.478  37.779   3.184
20988W        W86215   7.473  37.893   3.315
20989W        W86216  38.275   6.968  10.506
20990W        W86217  14.508  14.218  13.100
20991W        W86218  20.461  42.418  14.423
20992W        W86219  12.523  25.630  12.045
20993W        W86220  33.537  29.628   2.156
20994W        W86221  30.920   5.252  10.592
20995W        W86222  32.560  38.072   3.252
20996W        W86223   5.945  29.554  12.617
20997W        W86224   6.593  19.772  13.062
20998W        W86225  20.064  37.049   1.098
20999W        W86226  25.675  33.196  13.603
21000W        W86227  29.630  22.692   2.356
21001W        W86228  37.610  13.865   4.619
21002W        W86229  19.309   9.311  11.179
21003W        W86230   4.711  27.397   3.651
21004W        W86231   3.409  10.425  13.980
21005W        W86232   1.228  26.966   3.114
21006W        W86233  35.058  36.215   5.204
21007W        W86234  44.405  15.953   4.608
21008W        W86235  21.540  42.012  13.860
21009W        W86236   4.909  26.790   2.294
21010W        W86237  38.914  15.802   0.994
21011W        W86238  32.801   2.396   1.401
21012W        W86239   3.862  15.906  13.843
21013W        W86240  23.825  17.415  14.466
21014W        W86241   4.560  36.125   4.258
21015W        W86242  21.914   2.233  13.974
21016W        W86243   4.241  20.049  12.615
21017W        W86244   7.202   7.849  10.700
21018W        W86245   9.232   0.512  13.373
21019W        W86246  10.710  38.077  13.404
21020W        W86247  39.706  22.256  14.358
21021W        W86248  11.375  26.657  12.979
21022W        W86249  39.833  40.763  11.180
21023W        W86250  36.966  19.987   4.161
21024W        W86251   2.914   1.712   3.586
21025W        W86252  39.794  18.634  14.826
21026W        W86253  39.627   8.688  14.307
21027W        W86254  13.631  11.788   2.693
21028W        W86255  14.955   8.542  14.957
21029W        W86256  34.249  23.206  13.964
21030W        W86257  18.584  10.084  14.248
21031W        W86258   5.831  30.935  12.021
21032W        W86259  35.946  22.280  10.686
21033W        W86260  44.188   7.941   0.840
21034W        W86261  39.031   2.868   0.359
21035W        W86262  31.275  18.237  13.307
21036W        W86263   7.675  31.052   3.315
21037W        W86264  14.505  12.533  11.243
21038W        W86265  38.005  32.039   2.506
21039W        W86266  19.689  20.584   1.634
21040W        W86267   3.845  15.044  12.846
21041W        W86268  42.814   4.825   3.790
21042W        W86269  30.905  32.969  14.391
21043W        W86270  32.202  42.281  11.610
21044W        W86271  28.423  36.032  14.484
21045W        W86272  43.476  28.440  12.454
21046W        W86273  41.818   3.744  11.629
21047W        W86274  29.020   5.793  10.911
21048W        W86275  13.307  28.453   3.299
21049W        W86276  41.063  12.901  11.520
21050W        W86277  44.926  14.785   3.279
21051W        W86278   3.253  20.327   0.826
21052W        W86279  10.065   9.732   3.571
21053W        W86280  20.698  17.504   1.053
21054W        W86281  38.124  22.559   3.738
21055W        W86282   8.329  33.093  14.400
21056W        W86283   9.154  42.080   0.852
21057W        W86284  29.057   1.321   0.222
21058W        W86285  26.145  36.299   0.332
21059W        W86286  23.618  42.291   3.343
21060W        W86287  32.246  15.310   3.682
21061W        W86288  27.326  12.046   9.766
21062W        W86289  14.155  43.312   3.719
21063W        W86290  11.386   2.766  12.416
21064W        W86291  23.727   1.404   1.822
21065W        W86292   7.022  36.321  12.589
21066W        W86293  14.834  13.858   4.396
21067W        W86294  42.088  41.828   3.125
21068W        W86295  27.834  18.122   5.040
21069W        W86296   9.021   7.362  10.360
21070W        W86297  20.989  34.935   0.123
21071W        W86298   7.164  39.385   4.076
21072W        W86299   3.989   8.079   3.884
21073W        W86300  21.721  40.798   1.216
21074W        W86301   8.249  42.094   1.340
21075W        W86302   8.163  26.191   2.704
21076W        W86303  33.403  25.190  14.453
21077W        W86304  30.182  30.399   3.133
21078W        W86305  31.300  26.450   1.150
21079W        W86306  43.248   8.929  14.366
21080W        W86307   9.908  31.915  10.638
21081W        W86308   8.806  21.804   3.752
21082W        W86309  37.839  34.506   2.411
21083W        W86310   6.475  14.532   3.241
21084W        W86311  31.910  22.260   4.061
21085W        W86312  37.965  21.158  13.035
21086W        W86313   8.837  25.718   1.510
21087W        W86314  31.391  32.998   1.453
21088W        W86315   7.306  15.837   1.847
21089W        W86316  28.580  39.817   3.886
21090W        W86317  17.597   7.860  13.127
21091W        W86318  22.736  29.097  14.361
21092W        W86319   3.974  23.096  11.715
21093W        W86320  24.715   3.315   0.781
21094W        W86321  32.979  15.783   2.923
21095W        W86322   7.980  25.910  11.182
21096W        W86323  22.175  24.916  14.573
21097W        W86324  18.799  18.280  13.054
21098W        W86325   2.558  38.599   1.375
21099W        W86326  27.274  29.201  14.516
21100W        W86327  40.137  32.476   2.920
21101W        W86328  12.090  44.802   2.572
21102W        W86329  44.454  20.270  13.183
21103W        W86330  39.823  35.324   2.241
21104W        W86331   5.870   4.934   1.236
21105W        W86332   3.889  19.079  14.325
21106W        W86333   7.374  12.547  13.780
21107W        W86334  39.991  18.314   0.543
21108W        W86335  25.027   3.464   0.348
21109W        W86336  31.188  25.052  14.508
21110W        W86337  14.465  23.736   0.926
21111W        W86338   1.698  30.588  11.223
21112W        W86339   6.343  42.638   9.801
21113W        W86340  29.125  23.138  10.505
21114W        W86341  29.570  39.759   1.201
21115W        W86342   4.135   2.335  11.116
21116W        W86343   4.806  39.396  10.619
21117W        W86344  22.470  30.528   3.037
21118W        W86345  19.314  15.310   4.898
21119W        W86346  17.906  15.191  11.941
21120W        W86347  34.508  42.882  13.965
21121W        W86348  12.693  35.078  11.638
21122W        W86349  27.667  19.457   2.400
21123W        W86350  11.558   2.272  11.186
21124W        W86351  22.710   1.898   0.411
21125W        W86352  44.533  32.386  11.153
21126W        W86353  42.851  34.581   4.560
21127W        W86354  24.611   6.265   0.057
21128W        W86355  33.437  11.678   1.207
21129W        W86356  19.585  26.592   3.759
21130W        W86357  17.608   0.887   0.246
21131W        W86358  21.511  29.714   0.233
21132W        W86359  35.328  39.969  13.370
21133W        W86360   2.424  36.878  13.661
21134W        W86361  16.609  42.608   4.588
21135W        W86362  28.524   6.815   0.625
21136W        W86363  27.555  30.610   3.264
21137W        W86364  16.224  29.719   2.366
21138W        W86365  27.330  14.070   1.189
21139W        W86366   9.435  24.650   3.351
21140W        W86367  33.927   4.729  14.761
21141W        W86368   7.330  28.428   0.415
21142W        W86369  22.643   1.089  12.641
21143W        W86370  23.363  42.078  13.179
21144W        W86371  28.956  43.319   0.709
21145W        W86372  28.158   4.536   1.280
21146W        W86373   4.970   3.552  13.949
21147W        W86374   4.189  19.720  11.986
21148W        W86375   0.994  14.427   4.809
21149W        W86376   2.960  13.254  11.497
21150W        W86377  15.799  11.234   2.640
21151W        W86378   0.491  30.629   3.557
21152W        W86379   5.167  26.559  14.936
21153W        W86380  17.642  30.062  12.099
21154W        W86381   7.302  17.567  11.654
21155W        W86382  22.448   5.073   3.236
21156W        W86383   0.594   8.483   2.326
21157W        W86384   3.877  37.788   1.975
21158W        W86385  40.134  37.519  11.806
21159W        W86386   3.296  41.426   3.394
21160W        W86387  40.779   2.410   2.486
21161W        W86388  25.439  11.271   0.792
21162W        W86389   9.790  35.091   2.255
21163W        W86390  33.523  35.447  14.237
21164W        W86391  30.952  33.061   4.389
21165W        W86392  16.738  27.003  12.883
21166W        W86393  39.846  35.967  14.081
21167W        W86394  27.558  28.733  13.755
21168W        W86395  31.100  42.980  14.400
21169W        W86396  13.715  34.259   4.561
21170W        W86397  29.451  39.083  13.395
21171W        W86398  16.586   7.820  13.544
21172W        W86399  11.114  10.801   3.242
21173W        W86400  31.005   8.356  14.964
21174W        W86401  43.600   8.182  14.828
21175W        W86402  11.797  19.785   2.324
21176W        W86403   3.029  14.278   3.214
21177W        W86404  27.561   0.527  10.736
21178W        W86405  35.446  29.666  14.800
21179W        W86406  12.382  14.536   5.503
21180W        W86407  25.934  17.663   4.171
21181W        W86408  21.985  25.594   2.481
21182W        W86409  14.196   8.911   1.425
21183W        W86410  16.682  36.973  14.524
21184W        W86411   9.666   0.432  12.053
21185W        W86412   0.328  22.700  10.226
21186W        W86413   9.548  36.365  13.922
21187W        W86414  20.581  16.088   3.722
21188W        W86415  26.918  12.209  13.618
21189W        W86416   4.900  34.898   2.713
21190W        W86417  35.352   7.603   2.769
21191W        W86418  28.031  26.215   4.013
21192W        W86419  36.979  18.119  10.441
21193W        W86420  16.574  41.762  10.757
21194W        W86421   0.478  23.612   5.664
21195W        W86422  11.474  39.822   4.464
21196W        W86423  14.025  27.920  12.032
21197W        W86424  17.123   3.870  13.286
21198W        W86425  29.187  29.508  13.319
21199W        W86426  14.493  13.902  14.813
21200W        W86427  32.615   3.740  13.787
21201W        W86428  12.641  14.264   0.828
21202W        W86429  32.047  11.263   4.013
21203W        W86430  28.267  41.952   3.190
21204W        W86431  42.433   7.282   2.870
21205W        W86432  41.263  10.754  13.280
21206W        W86433  18.583  24.974   1.611
21207W        W86434  13.608  24.886   0.986
21208W        W86435  39.977  36.242   1.917
21209W        W86436   5.368  39.606  11.719
21210W        W86437  31.516   2.897   4.839
21211W        W86438  34.020   1.735   4.895
21212W        W86439  11.835   4.913   3.088
21213W        W86440  33.721  36.713  12.532
21214W        W86441  35.975  12.933  14.155
21215W        W86442  13.645  24.061  11.070
21216W        W86443  25.078  18.506   5.182
21217W        W86444  14.641  16.125   2.597
21218W        W86445  44.036  15.271   0.425
21219W        W86446   9.763  18.929  10.674
21220W        W86447   1.708   1.873   1.491
21221W        W86448  14.806  33.523  11.450
21222W        W86449  27.635  43.320   1.636
21223W        W86450  16.877  41.905  14.851
21224W        W86451  11.592  23.524  10.769
21225W        W86452   9.423  35.372   1.980
21226W        W86453   6.621   9.496   0.866
21227W        W86454  27.017  16.592   1.911
21228W        W86455  28.772  33.602   3.894
21229W        W86456  13.690  41.793  14.028
21230W        W86457  26.932  38.332  11.300
21231W        W86458   8.746  22.051  12.988
21232W        W86459  18.243  24.416  12.512
21233W        W86460  29.739  40.985  14.987
21234W        W86461  38.142   8.417  11.165
21235W        W86462  14.596   3.049  13.846
21236W        W86463   9.674   4.535   3.897
21237W        W86464  12.334  29.049   2.708
21238W        W86465  31.650   2.641   2.381
21239W        W86466  30.328  14.163  12.607
21240W        W86467  31.351  43.494  12.989
21241W        W86468   1.352  30.913   3.367
21242W        W86469  42.023  35.511  12.455
21243W        W86470  31.678  23.745   5.444
21244W        W86471   2.297  35.990   0.641
21245W        W86472  30.699  44.193  14.001
21246W        W86473  32.096  36.037   0.372
21247W        W86474  15.176  44.523   3.896
21248W        W86475   2.420  14.176   4.524
21249W        W86476  31.492  24.540   2.846
21250W        W86477   8.351  13.811   2.799
21251W        W86478  10.252  33.683  12.054
21252W        W86479  39.470  14.844   1.182
21253W        W86480   5.304  14.239  11.525
21254W        W86481  23.591  27.170  13.164
21255W        W86482   0.468  24.164   3.647
21256W        W86483  43.891  42.051   3.790
21257W        W86484  31.387  19.747  11.615
21258W        W86485  19.121  11.683   2.724
21259W        W86486  39.030  19.056   0.215
21260W        W86487  44.072  22.486   1.466
21261W        W86488  11.411   2.202  13.656
21262W        W86489  22.528  13.378  12.093
21263W        W86490  38.583  32.947   4.444
21264W        W86491  15.681  41.250   0.146
21265W        W86492  26.118  28.026   1.800
21266W        W86493   3.843  34.493  14.500
21267W        W86494  16.005  23.416  12.899
21268W        W86495  41.355  13.551   2.857
21269W        W86496  36.481  44.395   1.244
21270W        W86497   9.083  12.873   4.042
21271W        W86498   4.419  20.192  11.694
21272W        W86499  35.784  22.030  14.893
21273W        W86500  35.374  12.870  12.513
21274W        W86501  20.633   1.023  10.718
21275W        W86502  41.880  25.850   0.415
21276W        W86503  14.752  44.465   1.767
21277W        W86504  18.937  43.702   0.024
21278W        W86505  25.170  30.092   4.320
21279W        W86506   0.838   2.961   0.729
21280W        W86507  29.365  35.294   3.171
21281W        W86508  16.691  16.176   1.725
21282W        W86509  26.818  20.712   2.904
21283W        W86510  15.641  28.073   0.663
21284W        W86511   3.673  39.856   3.669
21285W        W86512  26.746   0.975   1.800
21286W        W86513  11.858  27.211   3.614
21287W        W86514  30.213  36.065   0.815
21288W        W86515  13.228  13.835  14.346
21289W        W86516  24.064  16.670   4.944
21290W        W86517   1.301  10.213  10.694
21291W        W86518  29.537  18.275  14.783
21292W        W86519  27.381  38.246  11.543
21293W        W86520   5.354  20.574   1.289
21294W        W86521  36.383   7.556  12.827
21295W        W86522  25.570  12.220  12.948
21296W        W86523   2.710  44.510  13.750
21297W        W86524  12.318  35.147  10.752
21298W        W86525  11.113  25.512  12.535
21299W        W86526  13.223  14.934  14.252
21300W        W86527   2.642  26.274   1.479
21301W        W86528  31.514  37.956   2.669
21302W        W86529  24.737  10.306   4.528
21303W        W86530  16.008  17.754   4.211
21304W        W86531  10.613  44.047   1.474
21305W        W86532  23.058  36.935   4.190
21306W        W86533  20.579  31.665   3.343
21307W        W86534  39.854  33.492  12.027
21308W        W86535   7.132  38.824   1.405
21309W        W86536  40.235  35.977  12.655
21310W        W86537  39.575  18.389  12.298
21311W        W86538   6.707  18.838   4.465
21312W        W86539  21.465  41.068   4.080
21313W        W86540  28.212   0.331   2.243
21314W        W86541  17.746  17.231  11.951
21315W        W86542  19.894  27.033   0.689
21316W        W86543  15.992   0.699  13.629
21317W        W86544  37.316  19.938   4.567
21318W        W86545  30.310   5.387   4.606
21319W        W86546  40.551  42.875  12.986
21320W        W86547  32.808  40.399   1.895
21321W        W86548  26.642  13.654   2.972
21322W        W86549  27.568  31.550  13.061
21323W        W86550  11.031   8.320   1.457
21324W        W86551  38.087  27.131   3.815
21325W        W86552  32.443  13.820  11.124
21326W        W86553  18.769  41.016  11.010
21327W        W86554  31.907  20.671   4.510
21328W        W86555  28.486   1.909   3.531
21329W        W86556   9.590  29.474   0.734
21330W        W86557  32.634   3.043   4.173
21331W        W86558   9.824  23.761   1.436
21332W        W86559   5.959  41.326  10.581
21333W        W86560  16.220   6.657  12.010
21334W        W86561  36.815  12.167   3.084
21335W        W86562  28.704  17.391   0.213
21336W        W86563  22.267  22.061   4.141
21337W        W86564  31.067  41.731  11.603
21338W        W86565  43.034   7.172   4.494
21339W        W86566  19.607  20.730  14.408
21340W        W86567  13.575  44.474   3.830
21341W        W86568   9.071  13.818   4.921
21342W        W86569  16.321   2.866   0.249
21343W        W86570  24.294  43.098   1.722
21344W        W86571   2.998  42.998  14.394
21345W        W86572  22.186  31.363   4.561
21346W        W86573  18.708  20.518  12.348
21347W        W86574   6.307  32.928  11.917
21348W        W86575  16.627  20.065  11.603
21349W        W86576   4.762  15.621   4.021
21350W        W86577  14.872  35.519  12.316
21351W        W86578   3.699  43.789   2.329
21352W        W86579  30.438  18.305   4.121
21353W        W86580   4.733  24.582   3.520
21354W        W86581  20.002  14.621  11.995
21355W        W86582  40.693   8.751  12.028
21356W        W86583  11.787  27.948  12.569
21357W        W86584  21.773  31.500   2.898
21358W        W86585  26.113  33.152  11.078
21359W        W86586  16.156   1.808  12.043
21360W        W86587  25.949  43.026   4.253
21361W        W86588   8.125   3.167  11.593
21362W        W86589   3.816  21.905   1.942
21363W        W86590  36.931  40.550  11.087
21364W        W86591  39.351  36.840  13.299
21365W        W86592  29.855  19.751   4.099
21366W        W86593  41.394  27.243  12.836
21367W        W86594  44.846   1.499  12.829
21368W        W86595  28.731   4.810   3.693
21369W        W86596   4.306  15.525  13.985
21370W        W86597  35.409  15.574  14.458
21371W        W86598  11.048  17.542  10.739
21372W        W86599  38.849  12.128   4.129
21373W        W86600  40.581   4.284  14.426
21374W        W86601   1.408  31.165  11.113
21375W        W86602   3.283  14.805   1.971
21376W        W86603  29.919  19.873  14.567
21377W        W86604  43.750  38.573  14.436
21378W        W86605  16.001  39.201  10.076
21379W        W86606  17.496  41.992   1.845
21380W        W86607  31.524  20.071  14.504
21381W        W86608   7.891  12.927   2.864
21382W        W86609  30.889   6.428   0.933
21383W        W86610  16.335  40.792  12.085
21384W        W86611  32.920   1.366   1.161
21385W        W86612  23.761   6.070  13.418
21386W        W86613   1.020  29.631   4.143
21387W        W86614  38.196  15.840   3.371
21388W        W86615   5.451  29.991  10.728
21389W        W86616  13.238  19.661   2.671
21390W        W86617   5.143  26.102  10.594
21391W        W86618  11.184  36.462  14.059
21392W        W86619  22.707   9.757   0.725
21393W        W86620  35.162  33.927   1.748
21394W        W86621  16.000   6.744   0.900
21395W        W86622  32.464   2.806  13.368
21396W        W86623  20.817   6.697  14.706
21397W        W86624  19.487   0.404  10.733
21398W        W86625  24.681  34.456   0.703
21399W        W86626  33.449  42.540  12.497
21400W        W86627  38.765  23.082   4.242
21401W        W86628  10.136   1.448   3.179
21402W        W86629  32.198  24.128  14.269
21403W        W86630  38.785  24.254   0.395
21404W        W86631  28.878   2.433   4.046
21405W        W86632  32.343  17.525  13.147
21406W        W86633  43.550  23.730   0.394
21407W        W86634  31.055  35.120  10.731
21408W        W86635  24.672  38.309   0.952
21409W        W86636  38.714  21.116   1.359
21410W        W86637   9.781   4.074  10.783
21411W        W86638  32.169  37.913  12.579
21412W        W86639  23.767  33.950   0.907
21413W        W86640  41.686  27.067  13.724
21414W        W86641  41.934   5.762  10.671
21415W        W86642  14.441  38.628  10.750
21416W        W86643  21.928  16.813  11.521
21417W        W86644  27.002   8.424  14.429
21418W        W86645  38.538  43.798   0.802
21419W        W86646  17.064  15.648   1.238
21420W        W86647  34.947  14.036   5.231
21421W        W86648   0.475  17.713  12.646
21422W        W86649  18.350  43.441  12.515
21423W        W86650  15.652  30.173  10.773
21424W        W86651   1.380  31.151   4.867
21425W        W86652  18.553  31.549   2.748
21426W        W86653  35.493   1.840  14.928
21427W        W86654  10.567   0.362  13.019
21428W        W86655  14.410  43.819  11.153
21429W        W86656   8.682  39.704   0.570
21430W        W86657  33.982  22.954   4.943
21431W        W86658  11.645  23.700   4.386
21432W        W86659   8.237   8.170  13.864
21433W        W86660  22.915  18.924   3.993
21434W        W86661  29.249   9.174  11.598
21435W        W86662  41.279  26.658  12.113
21436W        W86663  40.844  39.975  13.767
21437W        W86664   2.754  43.371  12.109
21438W        W86665  30.638  18.294   3.612
21439W        W86666  14.281  23.606   0.458
21440W        W86667  40.279  19.371  12.411
21441W        W86668  36.450  35.534  13.685
21442W        W86669   2.118   2.770   5.022
21443W        W86670  30.824  20.263  13.099
21444W        W86671   3.475  18.613   4.062
21445W        W86672  25.142  15.806   4.507
21446W        W86673  44.941  34.636  14.537
21447W        W86674  35.506  41.715  12.572
21448W        W86675  13.817   4.162  14.497
21449W        W86676   3.412   5.922  12.073
21450W        W86677  15.673  15.085   2.387
21451W        W86678  29.539  12.211  11.185
21452W        W86679  19.695  43.782   1.886
21453W        W86680  11.196  16.629   3.584
21454W        W86681  23.545  29.565  14.684
21455W        W86682  20.001  17.479  13.077
21456W        W86683  35.527  44.483   4.625
21457W        W86684  23.019  11.028  14.930
21458W        W86685  18.873   1.230   3.582
21459W        W86686  24.538  20.380  12.024
21460W        W86687  22.264   9.438   4.626
21461W        W86688  20.689  38.257  14.903
21462W        W86689  23.209  43.363  10.704
21463W        W86690  37.147  23.295  13.474
21464W        W86691  43.063  33.402   1.261
21465W        W86692  28.801  34.995  10.277
21466W        W86693  41.094  13.784  11.898
21467W        W86694  27.919  40.076  13.888
21468W        W86695  31.559   6.733  10.798
21469W        W86696  12.401   9.407   3.753
21470W        W86697  36.565  15.757   0.771
21471W        W86698  41.178  15.432   1.711
21472W        W86699  15.338  32.948   1.753
21473W        W86700  40.079  13.101   3.599
21474W        W86701   1.569  30.552  14.543
21475W        W86702   7.612  30.585  14.744
21476W        W86703  13.927  39.460  11.684
21477W        W86704  13.502  18.099  14.370
21478W        W86705  38.089  44.874  12.326
21479W        W86706  44.220  36.815  13.076
21480W        W86707  14.577  15.871  12.522
21481W        W86708   9.962  20.880  13.839
21482W        W86709  23.982  33.347   5.153
21483W        W86710   5.230  11.827   4.791
21484W        W86711  27.519  26.589  12.488
21485W        W86712  10.763  26.925   0.598
21486W        W86713   2.983  17.271  10.489
21487W        W86714  19.347  36.468   0.855
21488W        W86715   8.398   6.286   3.222
21489W        W86716  43.768   0.377   4.291
21490W        W86717   1.716   7.306  10.680
21491W        W86718  36.139   6.259   0.077
21492W        W86719  26.231  13.368  14.025
21493W        W86720  38.289  26.547   3.005
21494W        W86721  39.887  44.535   2.404
21495W        W86722   5.137   0.000   2.893
21496W        W86723   5.932  22.504  13.994
21497W        W86724   4.423   1.906  10.957
21498W        W86725  41.416   6.838  11.880
21499W        W86726  41.813  25.364   0.219
21500W        W86727  36.964  29.892  13.498
21501W        W86728   1.998  23.895  11.162
21502W        W86729  22.099  29.956   3.115
21503W        W86730  11.465  12.838  12.549
21504W        W86731  16.545  16.201   3.993
21505W        W86732  34.341   1.011  13.054
21506W        W86733  39.388   8.106  13.792
21507W        W86734  32.156  15.291   1.926
21508W        W86735  41.277   8.944   4.190
21509W        W86736  24.141  20.972   0.423
21510W        W86737  44.091  18.145   4.962
21511W        W86738  41.398  23.315   4.446
21512W        W86739  18.998   5.833  12.952
21513W        W86740  14.063   3.446   4.603
21514W        W86741  13.766  28.017   3.903
21515W        W86742   3.064  16.110  11.145
21516W        W86743  15.279   3.329   3.195
21517W        W86744  10.951   6.907   4.143
21518W        W86745  42.761  22.674   0.933
21519W        W86746  31.620   2.835   4.338
21520W        W86747  23.210  19.629  14.460
21521W        W86748  27.563   6.304   3.318
21522W        W86749  21.827  31.332   4.138
21523W        W86750  29.106  18.169   3.315
21524W        W86751  44.239  26.980  13.559
21525W        W86752   4.749  42.015  11.606
21526W        W86753  12.354  29.995   3.712
21527W        W86754  26.446  44.769   2.371
21528W        W86755  15.051  44.552  12.099
21529W        W86756  11.916  40.027   4.667
21530W        W86757  17.659  10.262  13.794
21531W        W86758  37.336  20.230  11.159
21532W        W86759  41.264  10.824  11.610
21533W        W86760   6.965  38.682  14.305
21534W        W86761  20.210  13.293   2.716
21535W        W86762   3.222  39.018   1.799
21536W        W86763  23.435  29.612   1.771
21537W        W86764  40.529  37.916   1.832
21538W        W86765   0.020  43.814  13.462
21539W        W86766   7.829  19.407   2.907
21540W        W86767  15.312  20.772  13.470
21541W        W86768  17.577  26.727   2.171
21542W        W86769   3.616   8.679   4.154
21543W        W86770   0.521   9.234   1.259
21544W        W86771   3.329   2.489   3.367
21545W        W86772   0.056   9.416  13.909
21546W        W86773  41.352  10.118  14.090
21547W        W86774  29.808   7.352   3.836
21548W        W86775  24.656  40.395   1.777
21549W        W86776  41.561  25.095  12.966
21550W        W86777  32.019   7.641   2.680
21551W        W86778   6.825  30.346  13.507
21552W        W86779  26.470   2.491   0.161
21553W        W86780  13.766  20.056   0.529
21554W        W86781  36.918  16.073   3.181
21555W        W86782  33.858  37.963  11.119
21556W        W86783  41.954  37.181  14.898
21557W        W86784  14.791  44.711  13.406
21558W        W86785  33.412  17.725   4.078
21559W        W86786  28.728  29.735  10.991
21560W        W86787  23.621  11.068   1.905
21561W        W86788   1.084  21.265   4.014
21562W        W86789  15.682  29.654  10.756
21563W        W86790   6.837  39.583   3.382
21564W        W86791  42.298  37.539  10.915
21565W        W86792   7.623   8.163   1.295
21566W        W86793  31.174  35.293   4.060
21567W        W86794  29.206  42.016   0.394
21568W        W86795  18.187  18.277   1.995
21569W        W86796  13.891  30.072  11.953
21570W        W86797  13.526  23.988   2.793
21571W        W86798  28.453  20.832   2.815
21572W        W86799   1.715  28.363  12.590
21573W        W86800  42.026  36.084   2.100
21574W        W86801  33.779  17.762   2.811
21575W        W86802  26.032  22.957   3.462
21576W        W86803  19.270  11.464  11.687
21577W        W86804  39.295  35.059   4.076
21578W        W86805  38.460  21.984   1.730
21579W        W86806  41.502   2.029   4.287
21580W        W86807   2.022  44.898  11.053
21581W        W86808   6.556  44.293   0.885
21582W        W86809   7.531   1.342   0.354
21583W        W86810  34.672  16.244   4.253
21584W        W86811  20.517  31.475  11.973
21585W        W86812  21.533  10.191   1.794
21586W        W86813   2.199  31.687   4.615
21587W        W86814  28.608   3.182   4.353
21588W        W86815  34.776  40.558  10.037
21589W        W86816  36.372  24.638   0.306
21590W        W86817  21.060  42.874   4.540
21591W        W86818   8.621   7.407   3.355
21592W        W86819  42.047  37.099  11.660
21593W        W86820   4.867  23.555   5.361
21594W        W86821   4.180  16.641   9.726
21595W        W86822  35.873   2.895  14.381
21596W        W86823  15.134  36.511   2.529
21597W        W86824  16.891  43.015   1.444
21598W        W86825   4.436  35.552   1.092
21599W        W86826  29.340  10.656  13.220
21600W        W86827  10.596  23.843  13.743
21601W        W86828  43.899  40.453   0.785
21602W        W86829  19.699  39.611   0.409
21603W        W86830  27.396  28.611  11.083
21604W        W86831  21.663  27.603   2.489
21605W        W86832  13.690  12.485   0.470
21606W        W86833  16.098  18.239  13.813
21607W        W86834  12.069   6.788  14.475
21608W        W86835   9.883  37.001   3.350
21609W        W86836   9.104  44.417   4.577
21610W        W86837  25.257  36.530  10.910
21611W        W86838   8.866   2.406   1.304
21612W        W86839   0.173  38.597  12.986
21613W        W86840   0.457   7.398   1.472
21614W        W86841  43.746   5.691   3.794
21615W        W86842  41.739  12.364   4.179
21616W        W86843   7.272  20.281  13.635
21617W        W86844   3.225  27.340  11.957
21618W        W86845  39.790  41.916   3.704
21619W        W86846  20.768  31.971   4.455
21620W        W86847  23.015  38.106   0.440
21621W        W86848   3.381  27.928  13.830
21622W        W86849  13.168   0.737  14.507
21623W        W86850  11.449  36.724  14.482
21624W        W86851  30.807  17.697   2.556
21625W        W86852  39.733  28.191   0.939
21626W        W86853   3.686  21.296  11.486
21627W        W86854  34.292   8.364   4.605
21628W        W86855  16.069  41.340  12.610
21629W        W86856  24.307   5.687   2.718
21630W        W86857  31.077  17.269   1.439
21631W        W86858  37.482   8.935   1.163
21632W        W86859  26.529  14.441  12.813
21633W        W86860  30.345  19.974  10.646
21634W        W86861  21.734  27.208   0.251
21635W        W86862   8.189   3.458  14.051
21636W        W86863  22.326  28.639   4.269
21637W        W86864  17.340  23.591   0.935
21638W        W86865  29.233  10.191   1.219
21639W        W86866  15.140  40.550   4.091
21640W        W86867   1.060  30.688   2.676
21641W        W86868  44.954  13.540  14.876
21642W        W86869   7.988   0.475   9.785
21643W        W86870   8.783   2.939  13.616
21644W        W86871  39.385  28.751   4.050
21645W        W86872  12.311  44.337   3.271
21646W        W86873  38.402  38.746  14.919
21647W        W86874  33.690   9.696   1.322
21648W        W86875  23.223  43.748  12.959
21649W        W86876  37.827   2.645   1.886
21650W        W86877  36.792   1.348  14.719
21651W        W86878  43.198  16.751   0.730
21652W        W86879  22.819   6.707  10.852
21653W        W86880  29.043   9.431  11.991
21654W        W86881  25.590  29.734   2.595
21655W        W86882   3.309  13.033  10.666
21656W        W86883  20.150  35.068   3.799
21657W        W86884  18.833  43.915   3.736
21658W        W86885  10.834  33.458   1.406
21659W        W86886  18.448  24.223   2.363
21660W        W86887  18.332  15.351  13.086
21661W        W86888   1.164  40.274   2.984
21662W        W86889  42.507   2.247   0.446
21663W        W86890  15.196  40.763   0.979
21664W        W86891  41.712  44.724  12.948
21665W        W86892  27.725  22.969   2.700
21666W        W86893   0.183   5.762  14.225
21667W        W86894  20.323   1.367  10.921
21668W        W86895  12.095   0.827   2.714
21669W        W86896   2.871  13.800  14.934
21670W        W86897  27.155   6.874   3.958
21671W        W86898  25.170  23.469   1.170
21672W        W86899  41.830  29.589   0.048
21673W        W86900   9.863  34.946   1.317
21674W        W86901   3.726  36.748  14.893
21675W        W86902   5.843  18.456   3.526
21676W        W86903  14.347  42.785  13.492
21677W        W86904  18.097  31.172  10.629
21678W        W86905  39.893  38.238   1.464
21679W        W86906  18.253  28.916  14.968
21680W        W86907  14.810  23.573   2.418
21681W        W86908  10.700  35.011   4.059
21682W        W86909  37.497  34.442  13.260
21683W        W86910  37.935  29.966  10.596
21684W        W86911  31.403  17.754  13.387
21685W        W86912  26.605  37.113   2.820
21686W        W86913  21.546  30.987  10.710
21687W        W86914   9.003  31.548  14.359
21688W        W86915   8.849   5.684  12.861
21689W        W86916  25.979   7.278   2.262
21690W        W86917  43.154  15.921  14.392
21691W        W86918   2.881  18.258   4.708
21692W        W86919  12.273  32.355  14.454
21693W        W86920  23.248   6.344   4.365
21694W        W86921  11.588  40.573   0.627
21695W        W86922   0.890   2.731  10.558
21696W        W86923  28.041  43.381   1.964
21697W        W86924  22.243  18.792   3.303
21698W        W86925   3.226   4.668  13.376
21699W        W86926  30.117  33.592  13.353
21700W        W86927  12.738   7.714   3.701
21701W        W86928   6.468  43.392  12.068
21702W        W86929  38.578  13.285  11.406
21703W        W86930  26.512  31.598  11.956
21704W        W86931  22.091  25.066   4.094
21705W        W86932  12.316  36.488  14.982
21706W        W86933  32.944  12.839   3.229
21707W        W86934  19.131  42.825  13.827
21708W        W86935  11.235  39.879   0.828
21709W        W86936   8.398   1.213  14.052
21710W        W86937   6.660   1.147   9.973
21711W        W86938  28.167  44.433   2.784
21712W        W86939  41.481  18.866   2.723
21713W        W86940   3.922  14.157  13.064
21714W        W86941   4.662  44.523  10.646
21715W        W86942  27.030  32.737   4.495
21716W        W86943  27.945  40.516   4.266
21717W        W86944  10.241  23.207   1.356
21718W        W86945  25.146  13.604  10.629
21719W        W86946  11.654   5.430   4.281
21720W        W86947   3.464  21.554  12.158
21721W        W86948  33.597  11.174   0.345
21722W        W86949   3.403  30.180   3.544
21723W        W86950  39.531   8.692   3.150
21724W        W86951  29.454   9.244   2.770
21725W        W86952  21.176   8.498   2.237
21726W        W86953  25.515  18.241   3.646
21727W        W86954  18.787  38.930   4.638
21728W        W86955  14.147  17.091   4.056
21729W        W86956   5.423  15.309  12.870
21730W        W86957  26.312  23.808  11.598
21731W        W86958  35.484   1.883  12.082
21732W        W86959  11.515   4.486  10.512
21733W        W86960  32.546   7.718  14.368
21734W        W86961  14.261  29.410  10.639
21735W        W86962   0.787  10.994   0.222
21736W        W86963   0.935  35.883   2.142
21737W        W86964  12.098  25.912  12.927
21738W        W86965  41.326  33.310  12.051
21739W        W86966  32.482  19.314  14.378
21740W        W86967   7.083  35.186  11.113
21741W        W86968   4.863  39.401  13.822
21742W        W86969   1.683  30.351  12.269
21743W        W86970   1.334  26.273   4.503
21744W        W86971  24.968   1.986   1.754
21745W        W86972   6.773  23.656  13.079
21746W        W86973  37.051  39.449   1.818
21747W        W86974  13.903  13.757   0.760
21748W        W86975   2.908  36.879  14.892
21749W        W86976  30.898  26.439  13.935
21750W        W86977  18.250  18.073  13.582
21751W        W86978  28.637  36.021  14.024
21752W        W86979  22.827  11.692  13.401
21753W        W86980  38.282  15.311   1.694
21754W        W86981  15.337  17.100   1.855
21755W        W86982  40.994  33.917   1.379
21756W        W86983  15.193  12.520  13.515
21757W        W86984  11.282  18.927  11.020
21758W        W86985  39.618  19.750  11.116
21759W        W86986  29.507   6.835  12.830
21760W        W86987   7.407   8.658  12.860
21761W        W86988  33.471  34.470  13.931
21762W        W86989  36.851  17.813   1.787
21763W        W86990   9.081  21.044   4.102
21764W        W86991  13.776  36.574  11.950
21765W        W86992   6.811   8.603   1.235
21766W        W86993  29.180   7.901   1.325
21767W        W86994  19.259  31.969   3.327
21768W        W86995  44.427  36.728   2.405
21769W        W86996   3.318  26.450   0.977
21770W        W86997  28.634  23.149   1.276
21771W        W86998  17.291  19.971   3.365
21772W        W86999  17.751  43.257   2.288
21773W        W87000  38.994  22.585  11.061
21774W        W87001  35.816   7.265   1.938
21775W        W87002  30.981  24.791   0.334
21776W        W87003  28.710   9.742   1.715
21777W        W87004  23.602  24.635   4.132
21778W        W87005  29.219   5.024   3.209
21779W        W87006  10.106  23.259   2.227
21780W        W87007  36.252   0.892   4.451
21781W        W87008  25.134  34.620  14.934
21782W        W87009  15.757  34.148  13.843
21783W        W87010  27.114  17.238  14.601
21784W        W87011  41.504  30.164   4.519
21785W        W87012  15.211  36.113  13.040
21786W        W87013  28.899  31.196  13.608
21787W        W87014   2.971  38.349   0.984
21788W        W87015   7.834   6.344   3.661
21789W        W87016  32.673  26.649  12.515
21790W        W87017  35.461  17.203  12.815
21791W        W87018   6.524  30.601   0.399
21792W        W87019  25.563   0.383   9.821
21793W        W87020  31.464  10.969  14.907
21794W        W87021  32.895   3.979   3.267
21795W        W87022  27.394  21.183   4.829
21796W        W87023  42.752  44.815   2.290
21797W        W87024  31.839   7.618   5.031
21798W        W87025  16.489  16.333   0.267
21799W        W87026  27.495   7.342   1.487
21800W        W87027  44.253  40.258  10.732
21801W        W87028   7.485   0.986   3.139
21802W        W87029  23.926  30.426  11.213
21803W        W87030  13.719  13.998  14.359
21804W        W87031  32.399  16.046   0.083
21805W        W87032   9.651   1.725  14.838
21806W        W87033  30.550  29.081   2.589
21807W        W87034   3.820  14.190   3.725
21808W        W87035  26.910  22.729   0.460
21809W        W87036  27.891  34.057  11.996
21810W        W87037  40.913   8.050   2.374
21811W        W87038   7.282  13.822  11.565
21812W        W87039  23.815  16.627  13.782
21813W        W87040  39.887  39.011   2.604
21814W        W87041  30.717   8.364  12.158
21815W        W87042  36.444  27.096  14.236
21816W        W87043  27.980  13.310   9.392
21817W        W87044   0.301   2.723  12.645
21818W        W87045  18.113  19.727  12.058
21819W        W87046  14.363  14.166   3.766
21820W        W87047  19.732  19.079  11.558
21821W        W87048   7.625  15.410   2.722
21822W        W87049  31.005   2.949  13.164
21823W        W87050   7.294  29.619  11.596
21824W        W87051   2.341  21.201  13.529
21825W        W87052  12.730  21.766  12.884
21826W        W87053  14.318  28.900  12.067
21827W        W87054  44.025  29.245   0.313
21828W        W87055   7.494   1.990   1.336
21829W        W87056   2.520  43.829   0.354
21830W        W87057  13.065  21.802  11.672
21831W        W87058  30.443  22.094   4.314
21832W        W87059  30.632  10.784  13.456
21833W        W87060  32.409  23.731   0.383
21834W        W87061   6.474   7.907  14.712
21835W        W87062  21.471  23.671  12.976
21836W        W87063   2.910  33.270   1.243
21837W        W87064  19.979   3.207  14.301
21838W        W87065  35.191  29.106   3.843
21839W        W87066   0.243  31.964   1.798
21840W        W87067  44.358   1.912   4.673
21841W        W87068   5.827  41.860   1.200
21842W        W87069   0.825  15.605   0.887
21843W        W87070  36.136  19.014   3.759
21844W        W87071  14.666   2.443   3.371
21845W        W87072  13.736  41.493   2.398
21846W        W87073  25.957  37.424  12.931
21847W        W87074  19.570  19.565  13.987
21848W        W87075   7.200  40.547  12.807
21849W        W87076  11.891  25.305   1.214
21850W        W87077  22.515   6.876  11.251
21851W        W87078  18.620  17.147   0.512
21852W        W87079  23.761   0.253  12.423
21853W        W87080  40.811  43.350   0.818
21854W        W87081  18.227  44.423   0.401
21855W        W87082  28.271   1.518   3.200
21856W        W87083  35.543  10.872   1.935
21857W        W87084  29.141  10.633   0.285
21858W        W87085  17.296  27.599  11.214
21859W        W87086   7.421  42.536  12.039
21860W        W87087   3.098  28.201   5.451
21861W        W87088  32.031  36.168  12.771
21862W        W87089  43.086  41.569   3.636
21863W        W87090  35.847   6.857   0.793
21864W        W87091  25.730  32.295  10.823
21865W        W87092  13.811   7.315  13.017
21866W        W87093  10.016   1.192  10.094
21867W        W87094  24.578  12.866   2.853
21868W        W87095  22.997  18.589  13.833
21869W        W87096  30.446  31.592   0.975
21870W        W87097  44.249  29.533  11.522
21871W        W87098   8.867  41.953  11.163
21872W        W87099   6.210  25.201  12.172
21873W        W87100  39.022  12.615   4.119
21874W        W87101  23.797  12.583   1.151
21875W        W87102  23.946   9.634  14.384
21876W        W87103  43.837   2.276  12.013
21877W        W87104  33.990  42.870   3.811
21878W        W87105  41.808  17.548  13.997
21879W        W87106  28.365  12.229  14.166
21880W        W87107  44.310  43.410   3.769
21881W        W87108  21.137  37.621  11.371
21882W        W87109  33.859  11.349   4.149
21883W        W87110  34.968  15.455   3.682
21884W        W87111  38.651  12.407   3.205
21885W        W87112  31.521   5.233  14.039
21886W        W87113   1.548  20.512   0.028
21887W        W87114  38.955  27.303  13.454
21888W        W87115  32.481  25.152   2.957
21889W        W87116   6.992  28.250   2.618
21890W        W87117  30.136  15.017  14.647
21891W        W87118   5.078   3.057   9.906
21892W        W87119   7.030  44.396   1.049
21893W        W87120  14.734  40.030   1.027
21894W        W87121  40.841  18.799  10.389
21895W        W87122   5.197   4.041  13.905
21896W        W87123  29.460  14.043   0.903
21897W        W87124   5.701   9.163   2.950
21898W        W87125  12.060   1.429   0.766
21899W        W87126  24.232   3.328   2.786
21900W        W87127   2.224  22.036  13.735
21901W        W87128  15.023  17.988   1.287
21902W        W87129  11.159  14.638  13.977
21903W        W87130   2.173  32.630  10.845
21904W        W87131  33.680  24.454  14.919
21905W        W87132  39.970  43.850  11.839
21906W        W87133  16.682  21.746   1.959
21907W        W87134  27.505   3.908  11.134
21908W        W87135  23.735   8.847  14.020
21909W        W87136  13.043  25.383  13.820
21910W        W87137  39.293   8.380   1.749
21911W        W87138  13.531  28.577   1.896
21912W        W87139   5.424  22.473   3.185
21913W        W87140  31.560  37.822  14.327
21914W        W87141  19.149   7.129  12.519
21915W        W87142  25.160  26.354  11.880
21916W        W87143  13.856  14.116   3.727
21917W        W87144  34.616  24.049  11.436
21918W        W87145   2.832  33.631   4.463
21919W        W87146  24.173  20.270  13.309
21920W        W87147   1.820  34.184  13.339
21921W        W87148  30.344  33.330  10.657
21922W        W87149  35.474  21.938   1.663
21923W        W87150  38.464  19.589  13.154
21924W        W87151  44.786  12.252   1.817
21925W        W87152  38.304   8.391  14.444
21926W        W87153  27.824  39.277  12.542
21927W        W87154  32.443  43.983  13.740
21928W        W87155  10.220  35.881  14.251
21929W        W87156  21.717  11.800   2.098
21930W        W87157  33.531  30.056   2.865
21931W        W87158  39.574  26.384   2.882
21932W        W87159   7.998  40.720   3.903
21933W        W87160  23.345  43.588  13.847
21934W        W87161   2.656  23.635  12.609
21935W        W87162  39.444  32.020   3.398
21936W        W87163  38.758   3.855   3.155
21937W        W87164  19.518  24.666   1.365
21938W        W87165  39.470  32.995  12.508
21939W        W87166  17.798  35.469   1.328
21940W        W87167  41.557  23.140   1.197
21941W        W87168  14.702  32.126  14.232
21942W        W87169  20.789  32.382  11.548
21943W        W87170  37.810   4.394  13.294
21944W        W87171  36.179  43.921   5.087
21945W        W87172  21.207  11.904  14.334
21946W        W87173  44.370  11.744  13.589
21947W        W87174   3.378  40.501  12.684
21948W        W87175  41.105  42.325  12.472
21949W        W87176  39.517  42.866   2.163
21950W        W87177  10.188  12.456  13.880
21951W        W87178   2.909   7.302   3.476
21952W        W87179  33.995  26.214  10.674
21953W        W87180   0.042  30.213   0.731
21954W        W87181  21.825  39.654  11.103
21955W        W87182   5.729  29.763  11.115
21956W        W87183  26.165   0.095  11.199
21957W        W87184  37.308  28.515   0.541
21958W        W87185   6.724  11.507   0.398
21959W        W87186  34.366  40.143   1.075
21960W        W87187   1.936  26.674   1.095
21961W        W87188   7.450  38.921  12.088
21962W        W87189   8.860  41.526   3.810
21963W        W87190   8.779  27.498   0.245
21964W        W87191   0.133  30.135   2.786
21965W        W87192  13.161  18.672   0.054
21966W        W87193   0.533  21.585   4.011
21967W        W87194  17.618   0.072  12.076
21968W        W87195   9.895  13.291   4.200
21969W        W87196  33.481  25.665  12.945
21970W        W87197   6.128  14.426   2.843
21971W        W87198  23.498  35.746  12.574
21972W        W87199  14.268  42.439   2.599
21973W        W87200   1.769  16.176  12.574
21974W        W87201  23.844  17.692   3.045
21975W        W87202  35.365  22.315   0.318
21976W        W87203  31.349  34.596   0.373
21977W        W87204  21.837  22.448   3.257
21978W        W87205  25.140  44.684  12.779
21979W        W87206  12.493   3.212   2.857
21980W        W87207  26.558  16.074   4.851
21981W        W87208  11.130  15.253  10.942
21982W        W87209  37.843  43.381   0.496
21983W        W87210  41.528  32.401   3.759
21984W        W87211   7.874  38.351  12.542
21985W        W87212  27.445  26.757   3.683
21986W        W87213  11.497   1.985   0.954
21987W        W87214  29.592  42.749  13.324
21988W        W87215  22.884  36.093  11.976
21989W        W87216  14.427   9.349  12.766
21990W        W87217  42.378   8.470   4.979
21991W        W87218  11.231  14.129   1.697
21992W        W87219  22.715  24.375   0.483
21993W        W87220  44.932  39.705  11.839
21994W        W87221   2.973  24.651   3.587
21995W        W87222   6.974  40.308   2.377
21996W        W87223  20.256  11.019   1.255
21997W        W87224  19.227  39.409   0.396
21998W        W87225  10.783   5.249   4.518
21999W        W87226  42.012  36.725   1.276
22000W        W87227  42.332  33.413   4.308
22001W        W87228  37.416  32.079   1.312
22002W        W87229   5.058  30.570   4.143
22003W        W87230  24.623  25.050   0.426
22004W        W87231   8.204  36.178  14.386
22005W        W87232   7.637  10.914   1.908
22006W        W87233  43.947  36.872   3.923
22007W        W87234   0.924  39.312   4.972
22008W        W87235   4.227   5.672  11.670
22009W        W87236   7.210  21.706   3.241
22010W        W87237   8.325  16.412   5.713
22011W        W87238  20.565  24.820   2.553
22012W        W87239  29.896   6.327  13.835
22013W        W87240  10.579  14.445   2.877
22014W        W87241   1.806  17.279   4.125
22015W        W87242  32.762  26.484   0.286
22016W        W87243  27.907  28.586  11.043
22017W        W87244  16.288   6.304   1.035
22018W        W87245  12.756  11.130  11.037
22019W        W87246  23.583   6.490  13.704
22020W        W87247  12.641  14.797   0.450
22021W        W87248   8.914   8.623  14.976
22022W        W87249   7.847  19.710   5.108
22023W        W87250   1.751   2.644  13.358
22024W        W87251  20.804  44.938   3.723
22025W        W87252  34.471  38.806  14.875
22026W        W87253  17.114   8.348   0.881
22027W        W87254  30.575  34.547   5.116
22028W        W87255  41.097  30.054   3.042
22029W        W87256  20.613  30.244   3.404
22030W        W87257   9.393  32.491   5.523
22031W        W87258  30.148   1.796  14.945
22032W        W87259  43.233  29.381  12.987
22033W        W87260  21.823  42.928   5.018
22034W        W87261  31.584  18.764  12.510
22035W        W87262  21.249  23.431  13.399
22036W        W87263  37.891  43.292  13.970
22037W        W87264  38.771   4.386   3.256
22038W        W87265  41.923  43.659   4.603
22039W        W87266   9.087   5.599  11.332
22040W        W87267  14.120  22.491   4.495
22041W        W87268   0.733   4.122   2.764
22042W        W87269  39.402  26.018  13.065
22043W        W87270  40.514  11.374   3.519
22044W        W87271  18.148   1.741  13.896
22045W        W87272   3.211  28.612   2.648
22046W        W87273   1.233  42.299  13.995
22047W        W87274  40.623  30.446  11.540
22048W        W87275  21.177  35.969   4.472
22049W        W87276  21.510  18.111   0.713
22050W        W87277   5.219   9.454   1.854
22051W        W87278  28.629   5.323   4.070
22052W        W87279  27.007  16.633  11.478
22053W        W87280   4.353  14.096   3.550
22054W        W87281  21.274  40.738  13.594
22055W        W87282  32.033  37.472  13.454
22056W        W87283  10.140   0.501  12.784
22057W        W87284  36.885  18.083  11.936
22058W        W87285  26.493  11.048  10.719
22059W        W87286   2.792  15.097   4.064
22060W        W87287  10.096   2.350  11.613
22061W        W87288  30.998  17.206   2.429
22062W        W87289  25.058  38.810   4.034
22063W        W87290   3.775  11.623  11.635
22064W        W87291  23.666  42.850  12.450
22065W        W87292   4.806  27.686  11.625
22066W        W87293  25.503  15.321   0.773
22067W        W87294  27.966  32.497  12.896
22068W        W87295  20.907  18.572   1.510
22069W        W87296  23.560  32.663  12.728
22070W        W87297  13.265  42.131   0.801
22071W        W87298  30.127  14.894  12.432
22072W        W87299  26.896  16.755  13.287
22073W        W87300  38.517   4.972   9.741
22074W        W87301  26.614  30.995   4.293
22075W        W87302  12.078  29.253  12.418
22076W        W87303  14.110  15.818  11.657
22077W        W87304  44.253  42.793  11.246
22078W        W87305   5.801  37.906   4.338
22079W        W87306  24.727   9.874  11.271
22080W        W87307  32.125  25.736   1.846
22081W        W87308   7.863  27.609  13.229
22082W        W87309  10.263  29.159   2.862
22083W        W87310  44.302  30.043  13.842
22084W        W87311  31.422  15.896   1.754
22085W        W87312  21.663  38.321  14.361
22086W        W87313   3.530   9.699  11.007
22087W        W87314  24.418  12.199  14.295
22088W        W87315  16.313   9.154  12.262
22089W        W87316   8.731   4.250  14.145
22090W        W87317   9.107  11.914   5.083
22091W        W87318   4.326  20.620   4.580
22092W        W87319  28.817  16.709  14.455
22093W        W87320  33.923  36.368   5.878
22094W        W87321  30.371  10.944   3.272
22095W        W87322  26.630  18.800   3.594
22096W        W87323   4.332  29.029  14.714
22097W        W87324  14.773  20.861   4.215
22098W        W87325  14.273  32.666   2.364
22099W        W87326  30.755  17.856   5.098
22100W        W87327  44.705  34.490  14.978
22101W        W87328  11.088  42.975   4.189
22102W        W87329  17.724  39.612  14.602
22103W        W87330  19.759  12.352   2.792
22104W        W87331  30.616   7.764   4.577
22105W        W87332  41.568   7.220  11.552
22106W        W87333  14.386  26.552   4.135
22107W        W87334  33.686  15.562   1.347
22108W        W87335  16.488  28.031  12.107
22109W        W87336  43.472   0.971  14.831
22110W        W87337  28.041  28.142  11.263
22111W        W87338  41.092  22.879   3.679
22112W        W87339  35.559  16.729   3.202
22113W        W87340  33.558   4.115  12.110
22114W        W87341  21.967  13.154  11.202
22115W        W87342  21.750  14.785  11.456
22116W        W87343  26.569  42.756  11.007
22117W        W87344  39.597  17.681   3.376
22118W        W87345   0.391  17.999  12.017
22119W        W87346  14.187   2.334  14.400
22120W        W87347  35.861   8.327   1.876
22121W        W87348  41.899  32.322   4.637
22122W        W87349  27.538  37.588  13.073
22123W        W87350  30.685  12.125   1.921
22124W        W87351  25.375  42.205   4.202
22125W        W87352  20.091  13.878  14.043
22126W        W87353   1.455  39.515   2.149
22127W        W87354  35.839   8.373   2.795
22128W        W87355  19.635  28.692   0.363
22129W        W87356  26.435  30.040  13.372
22130W        W87357  15.596   8.064   0.396
22131W        W87358  38.777   4.026   5.392
22132W        W87359  17.245  16.692   0.515
22133W        W87360  38.276  19.946   0.323
22134W        W87361  38.225  36.430  12.515
22135W        W87362  21.216  21.549  11.094
22136W        W87363  32.377  13.243   0.790
22137W        W87364  13.709   8.607   4.913
22138W        W87365  16.272  14.013   3.689
22139W        W87366  32.926  41.905  11.169
22140W        W87367  28.025  27.969   0.428
22141W        W87368   1.277  34.931   2.134
22142W        W87369   4.322  17.076   5.009
22143W        W87370  30.801  15.829  12.940
22144W        W87371  23.611  14.605   2.540
22145W        W87372  21.257   5.358  12.934
22146W        W87373  14.767  15.609   4.672
22147W        W87374  26.054  14.165   1.898
22148W        W87375  34.785  40.743  13.816
22149W        W87376  41.181  14.712   0.891
22150W        W87377  10.277  19.675   1.877
22151W        W87378  42.821  13.418  11.997
22152W        W87379  30.104  44.744   4.281
22153W        W87380   2.535  11.374   1.333
22154W        W87381   4.854   5.390  13.180
22155W        W87382  33.672   6.399  12.113
22156W        W87383  25.228  29.484  10.630
22157W        W87384  42.459  36.395  14.955
22158W        W87385   9.395  17.289  12.044
22159W        W87386   2.107  14.468   4.836
22160W        W87387  28.033  10.295   4.536
22161W        W87388  44.400  24.369   1.840
22162W        W87389  27.082   8.344  12.028
22163W        W87390  36.291  15.084   1.449
22164W        W87391  23.398  20.609   2.469
22165W        W87392  11.427  31.447   5.508
22166W        W87393   7.753  10.043   4.016
22167W        W87394  32.053  19.907  11.140
22168W        W87395  20.769  29.177   1.268
22169W        W87396  18.605   0.297  13.362
22170W        W87397  11.585  28.935   3.195
22171W        W87398  35.435  30.893  14.477
22172W        W87399  23.599  28.063   3.074
22173W        W87400  22.841  24.237   2.391
22174W        W87401  29.002  26.030   1.548
22175W        W87402   8.308   3.902   3.911
22176W        W87403  23.493  24.523   0.247
22177W        W87404  19.631   7.403   1.738
22178W        W87405  37.001  14.819   1.829
22179W        W87406  28.971   1.966  13.014
22180W        W87407  37.813  39.555   1.491
22181W        W87408   3.019  22.235   3.704
22182W        W87409  15.026  40.433  13.133
22183W        W87410   4.452  33.171   2.835
22184W        W87411   3.960  27.233   5.507
22185W        W87412  34.630  31.055  14.728
22186W        W87413  11.295  24.157   3.181
22187W        W87414  34.571  24.423  13.877
22188W        W87415  17.991  35.058  11.974
22189W        W87416   9.400  23.971   4.194
22190W        W87417  23.497  42.540   0.734
22191W        W87418  12.637  28.597   0.305
22192W        W87419  22.144  40.739  11.798
22193W        W87420  37.698  38.819  13.252
22194W        W87421  40.491  18.347   3.310
22195W        W87422  25.078  11.765   4.120
22196W        W87423  18.914  10.262   3.732
22197W        W87424   1.982  28.218  14.482
22198W        W87425  26.467  34.452   2.147
22199W        W87426  25.009  12.834   3.806
22200W        W87427  18.100  10.981   1.026
22201W        W87428  17.054  42.007   3.633
22202W        W87429  41.442  11.168  11.996
22203W        W87430  16.347   8.752  13.967
22204W        W87431  35.293   9.170  11.280
22205W        W87432   6.546  24.528  10.427
22206W        W87433  17.264  18.662  12.957
22207W        W87434  33.392  29.290   3.722
22208W        W87435  25.196  41.561  13.120
22209W        W87436  37.620   0.211  12.997
22210W        W87437  26.242   4.761   1.518
22211W        W87438  36.415  34.064  12.838
22212W        W87439  30.724  27.224  11.640
22213W        W87440  17.318  18.069  13.562
22214W        W87441  27.229   2.953   3.627
22215W        W87442  10.445   6.442  10.761
22216W        W87443  19.175   4.879  10.825
22217W        W87444  26.401  18.317   3.621
22218W        W87445  34.649  11.314   9.514
22219W        W87446  35.589  37.169  12.362
22220W        W87447   1.098  28.651  11.674
22221W        W87448   6.941  44.288  11.710
22222W        W87449  37.469   1.998  12.415
22223W        W87450  15.098   1.610   3.713
22224W        W87451  21.245   8.660   4.214
22225W        W87452   4.248  33.916  13.056
22226W        W87453  34.909   2.268   4.743
22227W        W87454  34.753  28.154  12.953
22228W        W87455  24.683   8.344   3.662
22229W        W87456  10.064   7.876  11.590
22230W        W87457  21.910   2.083   4.046
22231W        W87458  26.079  40.825   0.319
22232W        W87459  30.610   2.026   1.379
22233W        W87460   6.713  39.114  13.020
22234W        W87461  34.199  28.024   0.277
22235W        W87462  42.336  23.494  11.616
22236W        W87463  17.013  43.017  14.746
22237W        W87464  43.492  43.388  11.504
22238W        W87465  18.118   5.423   1.257
22239W        W87466  24.559  16.501   4.207
22240W        W87467   4.856  37.350  14.064
22241W        W87468  44.770  42.379   1.245
22242W        W87469  28.943  28.219   2.202
22243W        W87470  24.444   4.877  14.980
22244W        W87471   6.201   0.208  11.074
22245W        W87472  43.269  19.734  14.321
22246W        W87473  20.326  11.406   0.799
22247W        W87474  38.999  39.778  12.932
22248W        W87475  31.243  35.247   2.812
22249W        W87476   0.440  13.780   1.799
22250W        W87477  34.542  24.448   0.250
22251W        W87478  32.809  39.120   4.033
22252W        W87479  44.303  14.223   3.653
22253W        W87480   7.445  14.080  13.060
22254W        W87481   1.795  23.262   1.290
22255W        W87482  44.255  14.008  12.105
22256W        W87483  31.400  19.976   2.153
22257W        W87484  40.311  18.505  14.823
22258W        W87485  43.242  21.038   0.784
22259W        W87486   7.245  23.101  11.099
22260W        W87487  27.626  31.233   2.249
22261W        W87488   3.875   3.809  10.781
22262W        W87489  11.281  30.122  10.317
22263W        W87490  21.682  12.397  14.851
22264W        W87491  25.668  39.579   3.789
22265W        W87492  14.652  13.526   1.444
22266W        W87493  29.040   9.385  13.961
22267W        W87494   6.773   5.327   0.015
22268W        W87495  21.645   3.515   2.199
22269W        W87496   7.831  12.285  12.640
22270W        W87497  29.520  12.224   3.613
22271W        W87498  42.496  31.092  12.504
22272W        W87499  29.423  30.853  12.914
22273W        W87500   2.260  11.127   3.287
22274W        W87501   6.943  33.497   3.692
22275W        W87502   5.449  15.650  14.804
22276W        W87503  27.934   7.660   0.795
22277W        W87504  20.972  11.896  13.879
22278W        W87505  15.007  44.229  14.996
22279W        W87506   1.564  30.990  10.656
22280W        W87507  14.899  15.765   2.267
22281W        W87508  29.166   1.267   3.573
22282W        W87509  36.588  44.952  14.497
22283W        W87510  32.383  14.132   1.566
22284W        W87511  31.892   7.138  13.408
22285W        W87512  22.574  23.031   3.408
22286W        W87513  15.697  44.800  14.800
22287W        W87514   4.976  10.468   2.973
22288W        W87515  27.072  24.084   3.072
22289W        W87516  14.120  35.081   2.148
22290W        W87517  10.863  13.898  12.089
22291W        W87518   3.136   5.468  12.048
22292W        W87519  35.603  39.999   1.192
22293W        W87520  17.048  35.872  11.578
22294W        W87521  12.679  14.088   1.357
22295W        W87522  20.503  16.572   1.753
22296W        W87523  31.847  29.071  13.404
22297W        W87524  43.510  16.741  13.068
22298W        W87525  18.180   9.046   4.805
22299W        W87526  34.645  27.229  14.854
22300W        W87527  39.261  34.524   0.556
22301W        W87528  32.244  12.152  12.361
22302W        W87529  18.909  38.694   2.367
22303W        W87530  30.956  43.989  11.574
22304W        W87531  36.384  43.542   0.211
22305W        W87532  11.164  44.781  13.968
22306W        W87533  32.661  12.375  10.931
22307W        W87534  22.659  14.382   4.655
22308W        W87535  40.964   5.235  14.252
22309W        W87536  11.744  15.847  14.769
22310W        W87537  32.355  18.102   9.886
22311W        W87538  12.692  16.620   1.133
22312W        W87539  18.474  29.143   3.510
22313W        W87540  30.906  40.756   0.290
22314W        W87541   6.168  16.310  11.136
22315W        W87542  18.760  42.302  13.619
22316W        W87543  35.213  41.796   1.027
22317W        W87544  24.741  15.142  13.104
22318W        W87545  27.661   0.669   5.513
22319W        W87546  32.437   6.930  14.966
22320W        W87547  27.951   0.262   2.689
22321W        W87548  42.325  25.004  14.416
22322W        W87549  38.506   2.650   3.671
22323W        W87550  14.200  22.904   4.820
22324W        W87551  30.102  17.978   3.858
22325W        W87552  37.116   9.894  13.266
22326W        W87553  38.716  22.630  13.463
22327W        W87554  22.576  31.282  13.908
22328W        W87555   7.855  30.314   2.361
22329W        W87556  43.267  31.240   2.177
22330W        W87557  42.686   6.755  13.982
22331W        W87558  16.134  26.084  10.985
22332W        W87559  42.426  25.148   3.238
22333W        W87560  40.484  10.573  11.197
22334W        W87561  10.914  16.201   4.917
22335W        W87562  19.220  10.473   2.314
22336W        W87563  44.749  29.667   3.716
22337W        W87564  28.602  43.733   3.797
22338W        W87565  24.326  22.105   2.230
22339W        W87566  35.470  40.074  13.887
22340W        W87567  38.353  37.516   1.367
22341W        W87568  21.151  18.802   1.960
22342W        W87569   6.707  41.963   2.083
22343W        W87570  25.856   2.918   4.289
22344W        W87571  16.001  26.150   3.274
22345W        W87572  36.399  25.351   1.936
22346W        W87573   0.925   0.835   0.141
22347W        W87574   6.171  24.148  11.148
22348W        W87575  15.473  28.786   3.067
22349W        W87576  25.075  33.594  13.925
22350W        W87577   2.274  19.642  11.824
22351W        W87578  25.558  28.879   0.998
22352W        W87579  27.125  33.602  13.489
22353W        W87580  19.084  15.116  14.040
22354W        W87581  39.031   2.325   0.285
22355W        W87582  13.872  27.484   2.569
22356W        W87583  39.883  34.773   3.323
22357W        W87584  24.209  23.268   3.709
22358W        W87585  23.433  31.073   4.609
22359W        W87586  23.715  24.655   3.124
22360W        W87587  29.631  11.301  11.205
22361W        W87588  16.494  20.304   1.175
22362W        W87589  40.319   0.058  11.545
22363W        W87590  19.855  11.950  14.534
22364W        W87591   8.785  37.294  11.568
22365W        W87592   1.966   6.663   1.329
22366W        W87593  34.167  20.511  11.017
22367W        W87594  15.857  35.519  13.931
22368W        W87595  28.841  40.072  12.005
22369W        W87596  36.368  12.400   2.339
22370W        W87597  24.086  36.072   0.883
22371W        W87598   3.462  44.001   0.360
22372W        W87599  43.394  15.841   3.759
22373W        W87600   4.107  34.575   2.977
22374W        W87601  38.821  44.374  13.873
22375W        W87602  33.372  42.771  11.139
22376W        W87603  13.562   6.517  13.489
22377W        W87604   4.697  42.506  11.620
22378W        W87605  22.068  15.251  14.566
22379W        W87606   7.150   6.204  14.374
22380W        W87607  13.388  37.304  11.625
22381W        W87608  20.315   3.245   1.560
22382W        W87609  28.688  42.305  11.163
22383W        W87610  43.885  44.573   3.165
22384W        W87611   8.858  38.296   2.734
22385W        W87612  42.756  42.203  14.396
22386W        W87613  29.945  40.278   3.015
22387W        W87614   7.497   3.155   0.318
22388W        W87615  21.099  39.778   0.275
22389W        W87616  31.196   7.690  11.477
22390W        W87617  19.264  12.803  14.654
22391W        W87618   7.157  28.118  14.867
22392W        W87619  20.925  32.172  12.418
22393W        W87620  11.534   9.641  12.454
22394W        W87621   6.529   8.775   0.816
22395W        W87622   3.997  44.041  12.606
22396W        W87623  37.332  26.201  12.304
22397W        W87624   2.878  33.903  14.775
22398W        W87625  41.364  11.359   1.832
22399W        W87626  27.534   3.092  10.742
22400W        W87627  29.149  42.922  13.582
22401W        W87628  24.254  28.525   3.206
22402W        W87629  32.616  24.810   3.341
22403W        W87630  37.951  20.309   4.100
22404W        W87631  42.227   8.156   0.206
22405W        W87632  44.254  37.601  14.797
22406W        W87633  12.466  13.669  11.591
22407W        W87634  31.842  37.661   3.674
22408W        W87635  43.960  29.664  10.687
22409W        W87636  14.939   0.537  14.425
22410W        W87637  19.856  31.100   3.704
22411W        W87638  18.205  14.454  14.572
22412W        W87639  29.068  41.985   4.584
22413W        W87640   0.400  12.981   1.362
22414W        W87641  19.223  30.059  11.189
22415W        W87642  38.744  37.092  10.551
22416W        W87643  28.477  32.630  12.768
22417W        W87644  34.229   5.495  14.891
22418W        W87645  35.727   1.879   3.774
22419W        W87646  19.339  19.665  13.503
22420W        W87647   3.305  36.114  10.641
22421W        W87648   0.665  13.730   0.383
22422W        W87649  24.349  18.971   3.735
22423W        W87650   4.639  26.937  12.875
22424W        W87651  14.325  38.386  11.189
22425W        W87652  12.344  34.191  12.461
22426W        W87653  21.022  21.212  14.307
22427W        W87654  27.022  35.147  12.995
22428W        W87655  14.063  41.202   1.539
22429W        W87656   5.189   6.879  11.029
22430W        W87657   5.418  18.336  14.114
22431W        W87658  38.864  32.758   1.241
22432W        W87659  10.127  34.884  13.540
22433W        W87660  17.232  42.978  10.272
22434W        W87661  16.643  34.551  14.456
22435W        W87662   8.318  24.343   4.929
22436W        W87663   0.265   7.003  12.375
22437W        W87664   3.139  41.009  14.657
22438W        W87665   3.347   3.239  13.482
22439W        W87666   8.756  15.874  12.191
22440W        W87667  43.920   6.246  14.595
22441W        W87668   8.192   8.735   2.958
22442W        W87669  32.423  24.082  11.614
22443W        W87670  14.407  36.245  14.394
22444W        W87671  18.740  27.415   3.122
22445W        W87672  13.232  34.587   1.814
22446W        W87673   2.009  39.448   0.922
22447W        W87674  34.619  38.186   9.858
22448W        W87675  42.031  10.384   1.890
22449W        W87676  40.457  32.374   4.587
22450W        W87677  34.516   4.266   2.873
22451W        W87678  17.413   0.970   4.091
22452W        W87679   1.831  25.322   3.661
22453W        W87680  17.576   0.100   3.179
22454W        W87681  35.935  13.082  14.761
22455W        W87682  28.347  28.770  11.315
22456W        W87683   1.847  11.869   4.292
22457W        W87684  43.577   9.954  14.442
22458W        W87685  11.209  20.804  14.764
22459W        W87686  13.439  16.147  10.512
22460W        W87687  36.517  14.084   3.727
22461W        W87688  41.154   1.946  13.928
22462W        W87689   0.907  33.128  14.906
22463W        W87690  25.823  32.897  10.704
22464W        W87691  32.299   2.293  14.531
22465W        W87692  14.489  29.462   2.781
22466W        W87693  11.725  38.114   4.913
22467W        W87694  15.233  10.432   2.969
22468W        W87695  11.334  18.157  14.945
22469W        W87696   2.760  11.110   3.402
22470W        W87697  13.598  21.964   1.890
22471W        W87698  30.116  38.873   1.814
22472W        W87699   4.145   1.841   0.413
22473W        W87700  44.484  16.326  14.897
22474W        W87701  31.038  32.730  10.541
22475W        W87702  43.352   8.384   0.242
22476W        W87703  20.590   4.702   0.420
22477W        W87704  23.682  21.739  10.642
22478W        W87705  29.517   6.699  11.417
22479W        W87706  22.181  41.790  13.436
22480W        W87707  28.475  30.622   2.187
22481W        W87708  37.115  31.581  10.478
22482W        W87709   3.180  21.176  11.556
22483W        W87710  23.445  21.956   1.914
22484W        W87711  26.033  12.212   3.225
22485W        W87712   3.436  39.549  14.406
22486W        W87713  15.606  27.138   0.299
22487W        W87714  34.479  37.481  13.546
22488W        W87715   8.585   6.795  11.110
22489W        W87716  17.941  20.750   4.449
22490W        W87717  39.890  43.330  12.668
22491W        W87718  35.466  27.152  11.933
22492W        W87719  15.514  39.366   3.604
22493W        W87720  37.586  19.142   2.815
22494W        W87721  26.050  22.968   3.972
22495W        W87722  42.492  25.144   0.699
22496W        W87723  27.154  30.730   3.572
22497W        W87724   0.367  23.144   5.457
22498W        W87725  41.345  34.359   1.378
22499W        W87726  25.516  30.218  13.378
22500W        W87727  24.601  39.337   2.853
22501W        W87728  38.155  24.023  12.037
22502W        W87729  25.305  25.721   0.039
22503W        W87730  27.507   9.852  10.652
22504W        W87731   2.112  43.041   2.838
22505W        W87732  18.596  10.257  12.969
22506W        W87733   1.500  14.756   3.714
22507W        W87734  22.560  32.800   1.652
22508W        W87735  30.018  33.050   0.685
22509W        W87736  38.057  13.238   2.393
22510W        W87737  39.503   9.652  12.495
22511W        W87738  29.182   8.497   4.141
22512W        W87739  25.527   6.838   1.826
22513W        W87740   7.780  26.446  13.353
22514W        W87741  12.944  44.879   2.177
22515W        W87742  20.444  41.417   1.004
22516W        W87743  25.168   3.901  11.714
22517W        W87744  37.061   5.447   2.773
22518W        W87745  11.747  33.524  12.001
22519W        W87746  10.666  32.690   3.127
22520W        W87747  43.964  29.011   3.699
22521W        W87748  31.802  20.645  11.550
22522W        W87749   8.376  41.960  11.006
22523W        W87750  31.931  21.075   2.686
22524W        W87751  35.581  24.277   1.232
22525W        W87752  32.846  23.450  14.459
22526W        W87753  26.058   2.536  13.513
22527W        W87754  26.782  15.229   0.569
22528W        W87755  42.347  29.831   0.491
22529W        W87756  13.016  30.871   0.234
22530W        W87757  27.816  40.302  13.385
22531W        W87758  28.691  36.574  11.717
22532W        W87759   2.841  15.714  13.384
22533W        W87760  19.261   6.389   3.716
22534W        W87761  21.233  15.742  12.900
22535W        W87762   0.809  23.244  10.607
22536W        W87763  33.045  11.991   3.728
22537W        W87764   5.297   5.284   0.038
22538W        W87765  20.744  10.307   2.140
22539W        W87766  37.964  33.686  14.871
22540W        W87767  29.161   6.731  11.848
22541W        W87768  24.481  27.021  11.129
22542W        W87769  42.988  21.334  13.293
22543W        W87770  22.719  36.005   0.379
22544W        W87771  21.257   0.901  13.786
22545W        W87772  39.993  10.730  12.864
22546W        W87773   7.299  34.626   3.320
22547W        W87774  19.670  41.836   3.311
22548W        W87775   0.873  24.952   5.379
22549W        W87776  44.957  24.081   0.738
22550W        W87777  41.783  16.720   4.189
22551W        W87778  23.482  34.499  11.514
22552W        W87779  16.938  40.798   0.345
22553W        W87780  31.384  15.222   3.143
22554W        W87781  20.196  19.571   2.635
22555W        W87782  19.549  25.023  14.371
22556W        W87783   4.811  22.518   2.768
22557W        W87784  43.825  24.725   3.610
22558W        W87785  41.916   7.234  14.410
22559W        W87786  31.532  25.970   3.508
22560W        W87787   2.196  21.618   1.881
22561W        W87788  15.789  15.161  13.894
22562W        W87789  31.002  11.084   5.083
22563W        W87790   9.904  44.785  12.487
22564W        W87791  29.730  17.298  11.556
22565W        W87792   9.170   6.236   4.217
22566W        W87793  39.435   2.119  12.542
22567W        W87794  15.917   9.836   5.120
22568W        W87795  17.082  37.922   4.104
22569W        W87796  21.450  17.834  12.267
22570W        W87797  37.856  17.009  10.523
22571W        W87798  21.615  15.319   2.299
22572W        W87799  21.635  33.821  14.936
22573W        W87800  25.777  41.147  13.597
22574W        W87801  24.175  13.629  14.101
22575W        W87802  15.207   9.485   3.248
22576W        W87803  19.463  34.495  13.762
22577W        W87804  27.951  19.353   4.127
22578W        W87805  38.193   8.588   3.487
22579W        W87806   5.234  27.095  14.261
22580W        W87807  33.120  43.076   2.681
22581W        W87808   5.527   1.423   0.472
22582W        W87809   2.183   1.302   0.966
22583W        W87810  25.022  42.880   0.355
22584W        W87811  39.506  26.116   4.272
22585W        W87812  33.606  36.231   4.534
22586W        W87813  31.924  25.692  10.945
22587W        W87814  33.075  29.485  11.174
22588W        W87815  21.046  30.689  11.651
22589W        W87816  13.824   0.310  11.575
22590W        W87817  22.924   7.679   3.228
22591W        W87818  10.695  43.752  12.924
22592W        W87819  17.759   6.796  11.749
22593W        W87820  25.701   9.642   4.787
22594W        W87821   5.241  26.563  13.075
22595W        W87822  43.585  35.612  13.922
22596W        W87823  21.538  41.556  14.879
22597W        W87824  17.904   6.784   1.440
22598W        W87825  44.111  14.138  12.628
22599W        W87826  21.265  35.605  14.458
22600W        W87827  36.556   9.451  12.302
22601W        W87828  16.747  21.869   1.437
22602W        W87829  43.834  28.180  14.542
22603W        W87830  19.536   0.527  11.649
22604W        W87831   8.205  14.804  14.216
22605W        W87832  40.442  41.803  14.387
22606W        W87833  14.275  24.084  13.766
22607W        W87834  26.825  30.399  14.988
22608W        W87835  41.615  27.671   1.670
22609W        W87836   8.735  37.002   0.729
22610W        W87837  44.220  13.677   0.423
22611W        W87838   1.557   3.477   2.666
22612W        W87839   5.686  32.859  14.491
22613W        W87840  39.803  33.600   4.480
22614W        W87841  11.308   3.513   0.825
22615W        W87842  42.028  21.548   2.287
22616W        W87843  42.850  29.147   3.758
22617W        W87844   4.471  15.748   0.028
22618W        W87845  29.062  13.862  13.911
22619W        W87846  42.769  26.944   2.748
22620W        W87847  13.414  41.100  11.007
22621W        W87848  29.616  38.787   0.768
22622W        W87849  28.666  15.487  11.550
22623W        W87850  40.733  23.521  14.881
22624W        W87851  11.694   2.196  12.023
22625W        W87852  42.951  37.540   1.110
22626W        W87853  18.263  12.199   2.001
22627W        W87854   5.385  21.379   0.350
22628W        W87855  15.295  22.728  12.500
22629W        W87856  15.630   1.779  13.309
22630W        W87857  10.695  10.414  11.583
22631W        W87858  34.480  37.972  11.263
22632W        W87859  28.853  15.138  11.213
22633W        W87860  43.079  15.652  13.305
22634W        W87861  30.408   3.772   3.756
22635W        W87862  40.777  43.732  12.422
22636W        W87863  13.763   8.884  14.688
22637W        W87864  20.362  14.284   5.108
22638W        W87865  10.921  28.164   4.667
22639W        W87866  28.269   0.623   5.075
22640W        W87867  17.042  33.937  11.321
22641W        W87868  38.050  24.590   0.919
22642W        W87869   6.955  29.373  13.383
22643W        W87870  24.790   8.499  14.958
22644W        W87871  28.115  30.984  14.173
22645W        W87872  28.023  12.838   1.104
22646W        W87873  25.233  30.823   3.759
22647W        W87874  31.565   3.924  14.522
22648W        W87875  44.217  20.944  12.002
22649W        W87876  40.073  11.618   5.164
22650W        W87877  14.602  42.831  14.515
22651W        W87878   5.357   3.947   1.713
22652W        W87879  23.537   9.404   0.818
22653W        W87880  13.538  43.053  11.646
22654W        W87881  13.277  16.808  13.978
22655W        W87882  31.401  22.646   2.376
22656W        W87883   2.770  40.591   3.766
22657W        W87884  37.618  43.069   3.232
22658W        W87885  43.777   6.731  14.770
22659W        W87886  14.273   3.640  13.919
22660W        W87887  28.939  18.616  13.432
22661W        W87888   6.719  14.578   1.970
22662W        W87889  25.801  10.348   5.204
22663W        W87890  22.518   0.065   2.784
22664W        W87891  33.026  15.771   2.422
22665W        W87892  41.987  35.307  10.726
22666W        W87893  40.354  40.269   2.478
22667W        W87894  24.468  25.150  12.503
22668W        W87895   9.753  24.260   0.281
22669W        W87896  41.653  29.009  13.471
22670W        W87897  44.420  36.363  10.587
22671W        W87898  25.602  31.397   4.239
22672W        W87899  10.380  37.589  14.524
22673W        W87900  39.360   7.573   4.626
22674W        W87901   1.764  24.581  11.625
22675W        W87902   5.242  16.912  12.017
22676W        W87903  29.700   5.909   0.634
22677W        W87904  26.047   7.439   3.266
22678W        W87905   2.009  18.295  14.370
22679W        W87906  38.094  12.788   2.653
22680W        W87907  19.208  36.554  12.378
22681W        W87908   4.774  23.130   1.724
22682W        W87909  30.165   9.702   2.884
22683W        W87910  21.976  35.037  14.381
22684W        W87911  11.898  12.812  12.912
22685W        W87912  21.554  11.610   0.335
22686W        W87913  14.266  39.232  10.826
22687W        W87914  31.292   8.950  12.957
22688W        W87915  28.319   4.462   0.811
22689W        W87916  44.297  28.652   3.561
22690W        W87917  24.455  39.406  11.551
22691W        W87918  22.139   7.579   2.233
22692W        W87919  42.321  36.619   4.612
22693W        W87920   3.738  17.632   4.688
22694W        W87921  35.961   7.817  12.975
22695W        W87922  10.814   8.731  13.962
22696W        W87923  41.827  28.383  14.056
22697W        W87924  32.719  28.324   3.151
22698W        W87925  33.521  14.762   1.015
22699W        W87926  31.026  33.012   2.667
22700W        W87927  33.072  44.969   4.402
22701W        W87928  11.575  25.599   4.599
22702W        W87929  14.704  37.939  13.911
22703W        W87930   1.691  18.742  11.643
22704W        W87931  21.955   8.335   0.894
22705W        W87932  25.830   2.453  11.675
22706W        W87933  20.621  32.519  14.276
22707W        W87934   8.786  25.932  14.713
22708W        W87935  36.887   0.816   0.417
22709W        W87936  32.052  10.432  12.073
22710W        W87937  42.228  41.483  11.546
22711W        W87938  34.858  26.935  14.454
22712W        W87939   9.487  42.344  14.269
22713W        W87940  11.183  29.583   3.638
22714W        W87941  40.536  33.054  11.358
22715W        W87942  29.040  11.701  14.436
22716W        W87943  39.282  15.962   0.182
22717W        W87944   6.770   3.250   1.063
22718W        W87945  23.154  31.276   4.203
22719W        W87946  40.903  22.797  13.520
22720W        W87947  37.035  27.190   0.070
22721W        W87948  30.391  42.385  10.587
22722W        W87949  10.096  41.763   1.294
22723W        W87950  44.270  35.914  10.868
22724W        W87951   1.645  40.401   2.827
22725W        W87952  22.918  19.536   3.821
22726W        W87953  28.132   8.937   4.992
22727W        W87954  41.456  20.602  11.161
22728W        W87955  44.873   7.685  13.299
22729W        W87956   0.107  32.230   1.357
22730W        W87957  32.814  43.821   3.311
22731W        W87958   1.288  13.362  13.059
22732W        W87959  32.965  26.250   1.579
22733W        W87960  39.332  18.774  12.501
22734W        W87961  28.436  16.740   3.638
22735W        W87962  41.434  23.608   2.670
22736W        W87963  33.689  42.061   0.261
22737W        W87964  15.800  17.354   1.809
22738W        W87965  37.648  33.746   5.002
22739W        W87966  41.494  16.911  14.576
22740W        W87967   8.384  14.772  11.557
22741W        W87968  17.822  34.614   0.496
22742W        W87969  36.622   2.303  12.080
22743W        W87970   9.811  27.691   1.973
22744W        W87971  19.707  29.687   1.777
22745W        W87972  10.757  17.667   1.443
22746W        W87973  10.867  27.296  14.416
22747W        W87974  27.809  15.231  14.401
22748W        W87975  32.343  10.929  13.155
22749W        W87976  13.520   2.542  11.690
22750W        W87977  13.540  29.177  11.581
22751W        W87978  31.452  25.569   1.322
22752W        W87979  35.107  18.796   1.509
22753W        W87980  11.113  42.749   1.294
22754W        W87981  14.703  30.232  13.078
22755W        W87982  27.125  41.659  11.901
22756W        W87983  26.598  20.760   1.648
22757W        W87984  33.445  17.323   1.837
22758W        W87985  27.016  28.224  11.707
22759W        W87986  42.273  43.891   2.830
22760W        W87987  26.420  31.735   2.261
22761W        W87988  44.377  42.216   0.951
22762W        W87989  24.232  38.035   2.672
22763W        W87990  38.477  31.466  10.743
22764W        W87991  38.822  10.697  12.500
22765W        W87992  21.553  23.159   4.096
22766W        W87993  27.951  22.038   1.050
22767W        W87994  12.517  36.278   3.646
22768W        W87995  24.111  24.236   1.779
22769W        W87996  42.391  29.382   3.782
22770W        W87997  43.509  10.837  12.363
22771W        W87998   9.301  31.952  14.374
22772W        W87999  16.041   0.888   2.429
22773W        W88000   4.389  17.033  12.511
22774W        W88001  22.798  23.653  14.685
22775W        W88002   1.816  31.201   4.078
22776W        W88003  29.639  25.037   0.196
22777W        W88004  22.081  38.012  14.456
22778W        W88005  23.661   1.006  12.131
22779W        W88006  29.528  15.768  11.385
22780W        W88007  43.400  35.142   1.230
22781W        W88008  28.105  44.526  11.635
22782W        W88009  23.187   6.731  11.231
22783W        W88010  31.271  29.242  10.227
22784W        W88011  42.339   9.216  11.837
22785W        W88012  33.912   3.425   1.145
22786W        W88013  10.337  18.018  13.324
22787W        W88014  26.235   8.274   0.023
22788W        W88015   0.500  19.184   1.145
22789W        W88016   6.804  19.665   2.831
22790W        W88017  41.053   4.306  12.849
22791W        W88018  35.603   8.065  13.894
22792W        W88019  21.946  38.001   2.366
22793W        W88020  41.255  24.474  14.758
22794W        W88021  28.845  26.118  10.267
22795W        W88022  38.462   0.342  12.492
22796W        W88023  11.653  21.154   3.350
22797W        W88024  18.167  11.841   1.628
22798W        W88025  38.341  32.961   1.235
22799W        W88026  41.849  28.636   3.321
22800W        W88027  23.544   7.379  13.574
22801W        W88028  34.276   3.910   3.732
22802W        W88029  22.397  23.330   0.489
22803W        W88030  41.503  39.039  13.584
22804W        W88031   7.797  21.164   0.520
22805W        W88032   1.238  40.508   3.775
22806W        W88033  19.739   0.342  11.183
22807W        W88034  23.961  29.787  12.472
22808W        W88035  44.764  19.948  14.421
22809W        W88036  16.746   8.799  13.084
22810W        W88037  34.220  41.870   4.595
22811W        W88038  35.030  26.470   3.663
22812W        W88039  22.159   7.306  11.909
22813W        W88040  21.259  40.673   0.931
22814W        W88041   9.443  13.633  12.554
22815W        W88042   2.498  30.960   1.260
22816W        W88043  20.612   1.928   0.021
22817W        W88044  19.392   1.416   2.801
22818W        W88045  27.826  21.144   1.315
22819W        W88046  19.190  44.452   2.326
22820W        W88047   7.627   4.226  14.852
22821W        W88048  43.284  11.937  11.561
22822W        W88049  27.528  27.717  10.786
22823W        W88050  25.197  42.884  11.148
22824W        W88051   6.949   7.292   0.746
22825W        W88052  43.348   6.357  10.962
22826W        W88053  21.157  15.233  12.533
22827W        W88054  33.897  42.009   4.108
22828W        W88055  43.284  31.787  12.510
22829W        W88056  41.401  14.563   0.426
22830W        W88057  34.171  38.970   2.907
22831W        W88058  37.164  44.257   4.002
22832W        W88059   2.425  37.398  10.344
22833W        W88060  18.552  18.608  12.512
22834W        W88061  33.713  28.487  12.886
22835W        W88062  38.741  20.564   4.179
22836W        W88063  33.070  15.290  14.776
22837W        W88064  17.357  33.134  13.008
22838W        W88065  41.291  39.406  10.958
22839W        W88066  42.536  34.873  13.070
22840W        W88067  29.524  42.978   4.548
22841W        W88068  23.151  31.057   1.931
22842W        W88069  38.047  19.316  12.939
22843W        W88070   6.614  10.341   1.678
22844W        W88071  40.779  36.830   1.967
22845W        W88072  10.114  20.596  11.979
22846W        W88073  25.613  20.401   2.690
22847W        W88074  11.080  25.290   0.542
22848W        W88075   1.868  24.003   3.400
22849W        W88076  44.855  12.296   1.283
22850W        W88077  16.758  29.571  13.600
22851W        W88078  43.678  23.614  12.597
22852W        W88079  38.474  16.762   3.655
22853W        W88080  10.550  12.963  10.593
22854W        W88081  18.098  19.353  12.409
22855W        W88082  33.348   2.383  12.543
22856W        W88083   7.319  36.487   4.064
22857W        W88084   5.374   5.017   1.863
22858W        W88085  14.296  22.290  14.792
22859W        W88086  13.349  32.107  13.438
22860W        W88087   0.958  30.445   3.701
22861W        W88088  25.016  19.176   0.804
22862W        W88089   9.358  27.948   3.656
22863W        W88090  16.726  21.513  12.484
22864W        W88091  33.665  26.377  12.439
22865W        W88092  34.495  40.059   1.838
22866W        W88093  16.581  10.220   1.885
22867W        W88094   9.536  25.855  14.808
22868W        W88095  10.841  18.412   4.481
22869W        W88096  31.628  21.024   3.117
22870W        W88097  18.699  29.184  14.804
22871W        W88098   7.693  19.268   0.322
22872W        W88099   5.029   3.678   3.180
22873W        W88100  36.210   4.353   4.748
22874W        W88101   3.204  10.810  14.833
22875W        W88102   3.817  17.344  10.379
22876W        W88103  24.690  24.342  12.221
22877W        W88104   4.412   6.695   3.365
22878W        W88105  40.319   3.392  10.783
22879W        W88106  22.162  15.152  11.029
22880W        W88107  43.828  21.978  12.633
22881W        W88108   7.227  40.277   4.483
22882W        W88109  14.639  28.111   4.015
22883W        W88110  32.816  22.150  14.296
22884W        W88111   9.589  33.694   4.452
22885W        W88112  18.551  32.401   3.650
22886W        W88113  28.444  10.424  14.012
22887W        W88114  43.152  33.635  14.859
22888W        W88115  34.575  38.223   5.727
22889W        W88116  30.029  34.644  11.463
22890W        W88117  14.072   4.496  11.429
22891W        W88118  31.639  22.182   3.537
22892W        W88119   0.132  28.379   4.419
22893W        W88120  39.403  31.903  14.690
22894W        W88121  39.630   9.266   4.305
22895W        W88122  25.922  17.514   2.458
22896W        W88123   9.852  20.143   1.287
22897W        W88124  23.584   5.306   4.924
22898W        W88125   9.797  28.185   2.146
22899W        W88126   1.016  28.604   2.093
22900W        W88127   3.891  37.572  14.033
22901W        W88128  38.963   0.661   3.632
22902W        W88129   0.914  13.674  11.477
22903W        W88130  28.390  29.446   1.776
22904W        W88131   4.124  28.085   1.707
22905W        W88132   1.763  14.672   4.512
22906W        W88133  21.840  28.924   3.208
22907W        W88134  24.754  19.431  14.464
22908W        W88135  13.111   2.337  13.118
22909W        W88136  42.006  34.649   4.017
22910W        W88137  27.613  37.340  10.681
22911W        W88138  30.193  32.202  12.446
22912W        W88139  25.916  22.707  10.640
22913W        W88140   0.813  36.610  11.590
22914W        W88141  30.285  20.995  13.565
22915W        W88142   7.488   2.257  11.150
22916W        W88143  40.335  13.551  13.113
22917W        W88144  36.020  34.586  12.119
22918W        W88145   5.336  18.690   3.210
22919W        W88146  17.233  14.521   2.380
22920W        W88147  25.928   4.907   0.586
22921W        W88148   9.816  32.609   1.447
22922W        W88149  24.414   5.794  13.102
22923W        W88150  14.309  25.707  12.539
22924W        W88151   1.242  30.619  10.560
22925W        W88152  13.656  16.050  12.065
22926W        W88153   2.867  20.852   0.434
22927W        W88154  15.342  13.888   4.303
22928W        W88155   9.197  19.976   0.237
22929W        W88156  35.415  38.547  11.631
22930W        W88157   7.656  42.513  12.500
22931W        W88158   8.865  36.348   0.995
22932W        W88159  36.018  26.589   1.061
22933W        W88160   7.351  40.473   1.086
22934W        W88161  42.783  37.418  10.111
22935W        W88162  27.992   7.270   0.460
22936W        W88163   0.789  43.351  14.245
22937W        W88164   6.891  35.910  14.533
22938W        W88165  22.595  24.715  11.094
22939W        W88166   9.183  24.467   4.268
22940W        W88167   1.872  22.265  10.648
22941W        W88168  23.516  13.117  13.462
22942W        W88169   1.958  42.781  12.942
22943W        W88170   1.293   2.817   0.497
22944W        W88171  34.711   5.875  14.190
22945W        W88172   7.834  43.934   1.829
22946W        W88173   9.241  28.243  11.978
22947W        W88174  15.085   0.577  11.148
22948W        W88175  16.556  10.929   4.204
22949W        W88176  28.697  42.209   3.078
22950W        W88177   6.379  13.079   0.812
22951W        W88178  19.573  12.887  11.113
22952W        W88179  26.983   0.541   1.601
22953W        W88180  34.114  13.176  12.428
22954W        W88181  24.204  21.125  12.067
22955W        W88182  16.150  35.879   3.141
22956W        W88183  41.582  27.237   3.257
22957W        W88184  11.267  29.570  13.537
22958W        W88185  31.832  19.120  14.041
22959W        W88186  38.037   8.825  14.466
22960W        W88187  43.503  36.358  11.167
22961W        W88188  13.061   6.987   4.678
22962W        W88189   5.414   1.407  13.162
22963W        W88190  22.818  16.378  14.396
22964W        W88191  38.937   1.063   4.501
22965W        W88192  31.682  16.760   4.526
22966W        W88193   1.408  44.127   3.481
22967W        W88194   0.638  21.116   1.779
22968W        W88195  15.662  11.894   4.947
22969W        W88196   7.768  11.602  10.286
22970W        W88197   0.504  34.083  12.952
22971W        W88198  39.818  13.969  13.964
22972W        W88199   0.835  15.927  10.675
22973W        W88200  25.958  27.619   3.253
22974W        W88201  24.820   9.835  14.749
22975W        W88202  33.916  42.715  11.127
22976W        W88203  15.342  33.543  11.505
22977W        W88204   5.436  39.820   3.228
22978W        W88205  35.016  17.524   2.159
22979W        W88206  14.410  24.962  12.443
22980W        W88207  41.792  40.051   0.910
22981W        W88208  16.578  20.309  10.770
22982W        W88209  42.762  16.532  11.067
22983W        W88210  25.379   1.021   0.685
22984W        W88211  24.625   3.428   3.508
22985W        W88212  25.087   5.504   0.679
22986W        W88213   3.873  26.952   9.792
22987W        W88214  31.871   7.628   1.826
22988W        W88215   5.898  27.235   0.415
22989W        W88216  11.798  28.521   5.021
22990W        W88217   6.232  39.567   2.092
22991W        W88218  34.532  16.439   1.836
22992W        W88219   9.791  41.901   4.153
22993W        W88220  21.117   8.432  13.951
22994W        W88221  13.654  35.827   2.874
22995W        W88222  43.137   9.800   1.340
22996W        W88223  11.657   7.650  10.091
22997W        W88224  28.995  14.076   0.532
22998W        W88225  40.997   5.221  10.726
22999W        W88226  44.740  33.778  14.258
23000W        W88227   4.504  21.249  11.112
23001W        W88228  23.689  26.707   4.978
23002W        W88229  20.732  20.460   3.113
23003W        W88230  32.387  16.928   0.315
23004W        W88231   2.365  20.243   2.709
23005W        W88232  42.604  20.910  11.112
23006W        W88233  44.060   7.677  10.880
23007W        W88234  44.035  38.599  11.868
23008W        W88235  42.035  32.955  13.026
23009W        W88236  27.063  39.707  11.330
23010W        W88237  26.296  27.548   1.903
23011W        W88238  10.733   2.383  12.390
23012W        W88239  11.137  21.955   4.290
23013W        W88240  25.495  35.783   4.081
23014W        W88241  21.669  40.933  11.724
23015W        W88242  17.265  39.445  14.764
23016W        W88243  43.587  22.585  13.962
23017W        W88244  14.722   2.425   3.893
23018W        W88245  42.554  17.061  10.780
23019W        W88246  44.374  13.315   2.701
23020W        W88247  27.536  31.364  13.541
23021W        W88248  18.021  16.653  14.397
23022W        W88249  15.069   7.263   4.720
23023W        W88250  24.597  31.328  12.504
23024W        W88251  20.083  13.808   2.671
23025W        W88252  33.663  43.940   2.708
23026W        W88253  42.954  36.986   0.365
23027W        W88254   7.551  24.123   0.971
23028W        W88255  39.609  16.286  11.627
23029W        W88256  15.531   1.187  12.452
23030W        W88257  42.033  10.408  11.218
23031W        W88258  10.370  31.501  14.088
23032W        W88259   8.868  24.023  11.719
23033W        W88260  41.397  13.333   3.315
23034W        W88261  16.156  16.646   2.360
23035W        W88262  34.846  41.844   1.404
23036W        W88263   4.780  29.543  10.724
23037W        W88264  13.727  33.310   1.390
23038W        W88265  21.561   6.809   1.717
23039W        W88266  30.665  32.629  11.226
23040W        W88267   0.032  24.350  10.144
23041W        W88268  25.718  28.453   4.843
23042W        W88269  38.543  15.333   1.233
23043W        W88270  28.941  30.762   2.017
23044W        W88271  30.152   6.169  13.005
23045W        W88272  44.049  15.781   1.197
23046W        W88273  20.126  42.350  11.225
23047W        W88274   8.695  25.589   2.001
23048W        W88275  42.991  12.219   3.767
23049W        W88276  28.471  30.362   1.716
23050W        W88277   7.877  31.785  12.034
23051W        W88278  29.296  40.569   2.271
23052W        W88279  30.937  36.002  14.185
23053W        W88280  22.753  33.480  11.992
23054W        W88281  28.393  26.114   0.385
23055W        W88282  22.992  33.684  11.544
23056W        W88283   8.713  32.153   4.580
23057W        W88284   6.133  19.460  13.975
23058W        W88285   2.272  42.388  13.180
23059W        W88286   2.297  35.566  12.073
23060W        W88287   6.677   9.427   2.812
23061W        W88288  32.022  41.586   1.746
23062W        W88289  35.520   0.347  12.183
23063W        W88290  42.917  14.576  12.259
23064W        W88291  37.864  16.639   4.480
23065W        W88292   8.759   7.303   0.354
23066W        W88293  41.109  19.637   0.529
23067W        W88294  34.800  39.879   0.834
23068W        W88295  14.299  40.586  10.552
23069W        W88296  15.223   8.181   0.815
23070W        W88297  22.966   4.990   3.166
23071W        W88298  39.569  26.986  14.696
23072W        W88299   3.898  27.256   0.934
23073W        W88300  18.747  21.074   0.400
23074W        W88301  25.084  41.522  10.768
23075W        W88302   7.173  10.811   0.846
23076W        W88303  35.410  14.288   0.781
23077W        W88304  38.769  40.777   0.881
23078W        W88305  17.690  13.266  10.709
23079W        W88306  24.366  35.518   3.180
23080W        W88307   8.646  31.902   5.037
23081W        W88308  40.912   8.646  12.482
23082W        W88309  37.763  33.958  13.565
23083W        W88310  44.908  20.273  10.212
23084W        W88311   2.311  39.275  14.043
23085W        W88312  11.551  44.326  12.033
23086W        W88313   0.730   2.133   2.162
23087W        W88314   5.117  38.347   1.832
23088W        W88315  44.804  28.454   0.977
23089W        W88316   8.829  18.568  12.450
23090W        W88317  12.331   2.346  12.418
23091W        W88318  44.503  30.806   1.805
23092W        W88319  20.196  19.293  14.333
23093W        W88320  12.854  22.882  14.860
23094W        W88321  14.225  28.611  11.075
23095W        W88322   5.275  25.805   3.759
23096W        W88323  15.793  23.775   5.063
23097W        W88324  22.310  26.558   3.248
23098W        W88325  43.747   2.256   1.303
23099W        W88326  21.371   2.190   2.349
23100W        W88327  32.600  41.469   1.245
23101W        W88328   7.052  13.611  10.647
23102W        W88329   1.438   5.596  11.546
23103W        W88330   8.227  23.942  11.137
23104W        W88331  41.887  37.567  12.516
23105W        W88332  18.521   7.234  11.439
23106W        W88333   6.741   1.775   0.436
23107W        W88334  14.820  19.811   1.238
23108W        W88335  22.639  30.104   2.239
23109W        W88336  27.692  32.668  12.101
23110W        W88337  24.480  19.200  11.128
23111W        W88338  23.590  14.890  13.653
23112W        W88339  31.561  33.932   1.095
23113W        W88340  37.331  25.241   3.324
23114W        W88341  44.526  23.046   0.552
23115W        W88342  17.065   9.470   1.161
23116W        W88343  11.988  18.393  12.189
23117W        W88344  44.076  10.021  11.098
23118W        W88345  14.710  44.305   9.988
23119W        W88346   4.405  18.823  11.943
23120W        W88347   7.659  33.114  11.559
23121W        W88348  24.724   7.455  13.445
23122W        W88349  14.017  15.061   4.764
23123W        W88350  23.558  41.837   4.283
23124W        W88351  10.724   2.918  12.227
23125W        W88352  22.824  14.142  13.719
23126W        W88353  28.314  15.119   3.768
23127W        W88354   5.330  20.590  11.933
23128W        W88355  24.511  44.184  10.183
23129W        W88356   8.300  13.255   5.039
23130W        W88357  41.181  43.485  12.257
23131W        W88358  27.222  10.226   3.824
23132W        W88359  10.786  18.070  11.560
23133W        W88360  18.798   1.995  12.681
23134W        W88361  10.116  15.051   0.967
23135W        W88362  27.249  25.120  11.639
23136W        W88363  29.724  28.153  13.374
23137W        W88364  40.465  28.314   5.305
23138W        W88365  36.986   2.486  11.240
23139W        W88366  17.907  16.006  10.462
23140W        W88367  32.418  34.513   1.226
23141W        W88368   1.422  32.553  11.001
23142W        W88369  35.196  19.046   0.685
23143W        W88370  19.774  13.649   1.856
23144W        W88371  37.126  39.085   3.642
23145W        W88372  13.305  25.919  14.465
23146W        W88373   5.214   6.851   2.190
23147W        W88374  10.584   8.738   4.234
23148W        W88375  16.962  37.676   1.824
23149W        W88376  43.942  41.301   2.642
23150W        W88377  40.099  32.958   1.775
23151W        W88378   7.474  10.703   2.749
23152W        W88379   0.345   1.042  12.111
23153W        W88380  23.531  14.265   4.255
23154W        W88381  34.936  38.704  11.499
23155W        W88382   8.355   1.473  10.562
23156W        W88383  26.587   0.668  11.485
23157W        W88384  14.403  24.054  14.686
23158W        W88385  24.820  21.582   0.434
23159W        W88386  31.039  27.022  14.592
23160W        W88387  14.294  18.215  10.763
23161W        W88388   9.952  11.228  12.501
23162W        W88389  17.510  20.791   3.097
23163W        W88390  29.986  15.089  11.958
23164W        W88391  38.375   3.139   3.540
23165W        W88392  36.956  28.064   1.305
23166W        W88393  25.878  38.076   4.149
23167W        W88394  36.821  42.392  13.779
23168W        W88395   3.704   8.590   0.208
23169W        W88396   9.350  13.800   1.304
23170W        W88397   0.874  33.157  14.388
23171W        W88398   9.323  19.966  12.414
23172W        W88399   2.298  41.238  13.589
23173W        W88400  28.450   0.284   1.759
23174W        W88401   4.797  12.083  14.312
23175W        W88402  28.503  25.704  10.311
23176W        W88403  15.792   4.457  12.547
23177W        W88404   9.718  38.966   4.218
23178W        W88405   4.600  13.821   4.199
23179W        W88406   8.571   5.770   3.658
23180W        W88407  14.118   3.034  12.857
23181W        W88408  24.570  20.118   4.060
23182W        W88409  14.706   0.203   4.343
23183W        W88410   4.401  16.200  11.017
23184W        W88411  21.201  19.309   3.859
23185W        W88412  15.205   3.480   2.713
23186W        W88413  19.163  26.920  14.871
23187W        W88414  42.454  28.980   4.705
23188W        W88415  33.418   0.442  11.067
23189W        W88416   6.193  12.728   3.715
23190W        W88417  35.050   4.930   3.508
23191W        W88418  26.481  43.120  12.808
23192W        W88419   8.085   6.826   2.399
23193W        W88420  21.560  40.473   2.694
23194W        W88421  18.122   4.567  14.314
23195W        W88422  14.676  14.335   4.143
23196W        W88423  13.071  24.980   1.811
23197W        W88424  15.954  28.941  10.327
23198W        W88425  19.144  28.923  13.513
23199W        W88426  33.604  18.294   2.822
23200W        W88427  23.541  38.134   4.421
23201W        W88428   7.332  14.836   2.633
23202W        W88429   3.017  10.742  13.850
23203W        W88430  18.166  33.595   2.207
23204W        W88431   9.888  42.308   3.232
23205W        W88432  10.418  28.183  11.897
23206W        W88433   9.333  38.279  14.815
23207W        W88434  41.020  23.394  12.773
23208W        W88435  26.512  37.635   5.136
23209W        W88436  44.600   8.370  11.602
23210W        W88437  22.960  24.665   2.659
23211W        W88438   8.444  31.218  11.045
23212W        W88439  23.077  11.413  14.577
23213W        W88440  44.425  17.104   4.606
23214W        W88441   8.125  17.114  14.508
23215W        W88442   0.783  31.135   2.656
23216W        W88443  32.984  38.801   2.398
23217W        W88444  10.438   6.744  11.178
23218W        W88445  27.721  38.981   5.038
23219W        W88446  21.503   9.329  12.850
23220W        W88447  28.381   6.657  12.474
23221W        W88448  31.147  34.040   0.793
23222W        W88449  20.216  44.278  12.998
23223W        W88450  40.788  30.868   0.988
23224W        W88451  22.526  19.041  13.170
23225W        W88452  26.115  12.741   3.720
23226W        W88453  10.154  28.619  13.873
23227W        W88454  25.752  22.225  14.941
23228W        W88455  25.947  29.568  11.423
23229W        W88456  12.767  41.039  12.167
23230W        W88457  13.046  11.377   3.205
23231W        W88458  33.579  17.114   1.394
23232W        W88459  19.653   6.430   4.633
23233W        W88460  33.855  10.226  14.606
23234W        W88461  41.557  33.526  10.644
23235W        W88462  37.856  17.477   2.838
23236W        W88463   7.776  14.598   2.783
23237W        W88464  41.574   9.494   2.818
23238W        W88465  22.448   1.201  14.938
23239W        W88466  37.865  32.571   3.825
23240W        W88467  42.920   3.240  10.566
23241W        W88468  40.889  10.726   4.577
23242W        W88469   5.325  42.207  13.138
23243W        W88470  18.481  32.026  10.726
23244W        W88471   9.419  11.337   3.623
23245W        W88472   9.578  19.927  14.023
23246W        W88473  43.415  35.584  14.777
23247W        W88474   6.262  23.520   3.662
23248W        W88475   1.710  34.088  14.235
23249W        W88476  37.454  11.933   2.150
23250W        W88477   5.269  34.811  13.849
23251W        W88478  37.952   1.484   3.768
23252W        W88479   1.843  39.971   0.895
23253W        W88480  32.823  41.768  14.484
23254W        W88481  39.547  21.128   4.349
23255W        W88482  27.933  36.481  11.483
23256W        W88483  15.185  41.416   3.649
23257W        W88484  44.493  36.833   1.403
23258W        W88485   8.327   6.381  10.555
23259W        W88486  33.099  33.808   0.475
23260W        W88487  10.013  35.073  11.187
23261W        W88488  22.028  40.460   2.393
23262W        W88489   7.823  18.307   1.931
23263W        W88490   9.719  15.065  12.503
23264W        W88491  27.126   0.210   3.065
23265W        W88492  31.378  19.611  13.543
23266W        W88493   6.493  40.069  14.496
23267W        W88494  24.082  22.492  14.726
23268W        W88495  13.214  11.244  13.527
23269W        W88496  26.100  32.862  11.503
23270W        W88497   3.514  37.242  12.381
23271W        W88498  31.731   5.273   2.282
23272W        W88499  34.627  13.268  12.441
23273W        W88500  29.391  34.940  11.883
23274W        W88501   9.046  12.429  13.016
23275W        W88502  36.646   1.192   1.659
23276W        W88503  43.878  36.605   2.381
23277W        W88504  12.106  27.183   4.489
23278W        W88505  13.653   2.983   2.188
23279W        W88506  17.566  26.655   4.933
23280W        W88507   6.315  10.711   4.301
23281W        W88508  38.432  19.975   2.339
23282W        W88509  20.759   7.450   2.904
23283W        W88510  38.427  35.038   0.979
23284W        W88511  42.294  32.508   0.708
23285W        W88512  24.597  33.918   0.482
23286W        W88513  27.167  10.588  12.420
23287W        W88514  21.637  17.493  14.015
23288W        W88515  28.171   8.840  12.114
23289W        W88516  21.800  28.468   3.417
23290W        W88517  22.181  38.312  13.472
23291W        W88518   2.426   3.463  14.954
23292W        W88519  28.723   1.744   3.118
23293W        W88520  43.235  16.857  12.648
23294W        W88521  27.230  15.407   2.248
23295W        W88522  17.060   8.430  12.926
23296W        W88523  23.765  39.848   1.749
23297W        W88524  37.938   3.590   2.584
23298W        W88525   1.667  28.117  11.005
23299W        W88526   2.432  13.356  14.449
23300W        W88527   2.224  44.648  13.840
23301W        W88528  42.258  23.501  13.422
23302W        W88529  41.060  24.621   3.631
23303W        W88530  21.692  23.229  13.261
23304W        W88531   6.576  32.182  11.648
23305W        W88532  42.840   6.438  13.226
23306W        W88533   8.694  24.624   4.153
23307W        W88534  21.099  43.908  14.044
23308W        W88535  17.592  32.079   2.900
23309W        W88536  35.367  29.752   4.335
23310W        W88537  38.355   8.924  14.897
23311W        W88538  16.780  44.394   1.625
23312W        W88539  37.215  30.495  10.663
23313W        W88540  39.237  26.115   1.684
23314W        W88541  32.223  12.326  10.196
23315W        W88542  38.481  29.816   1.617
23316W        W88543  33.474  20.375  14.856
23317W        W88544   3.402  34.565  11.869
23318W        W88545  19.387   1.524  13.717
23319W        W88546   4.127  35.860  14.348
23320W        W88547   2.744  25.750   3.197
23321W        W88548  32.117  42.684  12.598
23322W        W88549  14.383   4.750  12.097
23323W        W88550  31.291  25.519   3.435
23324W        W88551  33.502  26.445  14.748
23325W        W88552  17.774  18.965  12.888
23326W        W88553  22.128  35.813  11.813
23327W        W88554   5.291  44.489   4.033
23328W        W88555  30.121  41.843   4.551
23329W        W88556   6.481  30.647  11.498
23330W        W88557  13.178  14.679  10.497
23331W        W88558  31.127  21.761  13.994
23332W        W88559  42.159  20.657  11.146
23333W        W88560  16.338  16.589   1.834
23334W        W88561   5.588  18.803  11.204
23335W        W88562  26.356  21.965  11.138
23336W        W88563  17.086  16.434   2.862
23337W        W88564  42.449  36.811  14.019
23338W        W88565  42.930  19.678   0.405
23339W        W88566   3.119   2.363  14.901
23340W        W88567  20.593  14.163   1.918
23341W        W88568  23.489   3.403  11.701
23342W        W88569  44.531  14.679   3.597
23343W        W88570  41.769  12.649  10.680
23344W        W88571  14.539  12.704  14.421
23345W        W88572  27.155   4.690   1.333
23346W        W88573  42.082  15.126   4.357
23347W        W88574  17.584  17.718  12.018
23348W        W88575   5.736  20.999   3.681
23349W        W88576   1.758  20.041  13.489
23350W        W88577  29.992  35.920  10.970
23351W        W88578   0.355   3.296  10.996
23352W        W88579  26.084  22.133   0.976
23353W        W88580  44.744  28.995  11.970
23354W        W88581  27.277  35.491  12.006
23355W        W88582  10.576  18.102   1.636
23356W        W88583  43.778   2.017   3.020
23357W        W88584  21.290  34.915  11.957
23358W        W88585  36.371  21.599  11.942
23359W        W88586  40.829  43.270   3.253
23360W        W88587  11.860  24.115  13.690
23361W        W88588  38.525  16.796  12.513
23362W        W88589   1.793  14.302   2.415
23363W        W88590  25.632  16.160  11.460
23364W        W88591   2.446  44.384   3.605
23365W        W88592  42.623  14.622  11.833
23366W        W88593  24.637  23.759   0.451
23367W        W88594  24.547  11.158  12.987
23368W        W88595   9.608  34.874  13.512
23369W        W88596   5.438  18.878   4.505
23370W        W88597   3.037  44.334   1.926
23371W        W88598  38.785  39.081  14.814
23372W        W88599  15.784  24.067   0.012
23373W        W88600  35.616  14.116  14.442
23374W        W88601   7.649  39.735   3.698
23375W        W88602   1.210   6.763  13.392
23376W        W88603   3.300  17.123   3.264
23377W        W88604  27.982  36.315  14.375
23378W        W88605  14.312  20.166   4.825
23379W        W88606  13.513  31.627  13.065
23380W        W88607  29.051  32.889  14.274
23381W        W88608  14.618  21.690   2.213
23382W        W88609   1.424   4.141   1.792
23383W        W88610  30.856  23.520  10.671
23384W        W88611  32.985   5.319   3.246
23385W        W88612  11.604  27.660   3.719
23386W        W88613  18.093  42.075   3.206
23387W        W88614  44.111  19.781  14.910
23388W        W88615   9.815  17.616   0.477
23389W        W88616  36.471  22.729  12.670
23390W        W88617   0.288   9.472   0.862
23391W        W88618  19.596  19.509  10.712
23392W        W88619  30.248  22.547   0.597
23393W        W88620   4.116  34.808   3.467
23394W        W88621  22.737  37.093   5.022
23395W        W88622  39.831  25.249   3.132
23396W        W88623  41.882  18.186   3.599
23397W        W88624  13.804  41.977   3.690
23398W        W88625   0.407  44.612   4.947
23399W        W88626  19.995  16.197  12.500
23400W        W88627   8.397  29.266   3.655
23401W        W88628  36.374  41.964   4.746
23402W        W88629  44.286  35.312  11.530
23403W        W88630  20.179  38.251   0.532
23404W        W88631   1.454  32.072   5.078
23405W        W88632  31.466  25.599  12.890
23406W        W88633  19.207  37.193   2.237
23407W        W88634  18.372  37.981   1.781
23408W        W88635   6.201  29.674   4.506
23409W        W88636   1.358  12.135  14.781
23410W        W88637  35.504  36.352   4.093
23411W        W88638   2.477  12.863  14.408
23412W        W88639  20.602   3.017   2.685
23413W        W88640   2.814  28.907   0.248
23414W        W88641  12.161  10.122   3.221
23415W        W88642   2.161  20.679  14.284
23416W        W88643  35.630  22.153  11.077
23417W        W88644  43.313  16.468  13.540
23418W        W88645  30.539   3.754  12.027
23419W        W88646  21.661  22.728   4.354
23420W        W88647  25.751   5.667  13.740
23421W        W88648  35.191   3.387  13.488
23422W        W88649  30.861  31.833   3.193
23423W        W88650   8.126  35.738  12.124
23424W        W88651   7.662  35.410   0.194
23425W        W88652  27.689   2.159  13.837
23426W        W88653   0.005  14.775   4.684
23427W        W88654  38.256  37.616   9.993
23428W        W88655   1.288  23.657  11.948
23429W        W88656  42.256  41.458   3.457
23430W        W88657  44.615  22.022   4.107
23431W        W88658  27.683  14.729  13.601
23432W        W88659  26.223  27.446   4.575
23433W        W88660  30.614   2.803   2.297
23434W        W88661  11.581   6.404  12.793
23435W        W88662  22.283  32.367   1.671
23436W        W88663  15.348   6.631  14.068
23437W        W88664  41.889  30.226  13.054
23438W        W88665   0.835  35.117   0.845
23439W        W88666   7.700  22.014   2.213
23440W        W88667  39.827  13.104  12.176
23441W        W88668  34.910  28.946   3.421
23442W        W88669   3.474  43.087   0.864
23443W        W88670  26.926  36.264  11.555
23444W        W88671   5.524  24.943   4.709
23445W        W88672  37.479   0.090   4.689
23446W        W88673  17.593  41.879   0.296
23447W        W88674  15.589  24.572  14.969
23448W        W88675   2.136  12.346  14.035
23449W        W88676  16.135  28.915  13.144
23450W        W88677  31.952   4.048   1.684
23451W        W88678  34.180  11.113   9.617
23452W        W88679  21.505   0.523  10.640
23453W        W88680  34.931  38.968   3.311
23454W        W88681  26.876  40.296   4.109
23455W        W88682  21.966   9.660  14.517
23456W        W88683  41.806  41.510  13.841
23457W        W88684  11.016   0.298   1.058
23458W        W88685  30.880  34.402   0.220
23459W        W88686   0.437  31.880   3.632
23460W        W88687  42.523  23.735   0.425
23461W        W88688   1.349   7.935   1.422
23462W        W88689  42.252  41.124   1.218
23463W        W88690  26.029  20.354  10.403
23464W        W88691   0.838  39.902  13.407
23465W        W88692  38.792  19.543   0.352
23466W        W88693  42.266  39.110   0.852
23467W        W88694  28.478  44.454   3.749
23468W        W88695  16.601  38.283  11.696
23469W        W88696  14.772  21.110   0.481
23470W        W88697  30.577  24.488   0.079
23471W        W88698  43.631   5.577  13.003
23472W        W88699  43.320  23.203   4.579
23473W        W88700  18.961  23.299   2.285
23474W        W88701   2.944   8.521   2.878
23475W        W88702  28.132  39.192   2.784
23476W        W88703  10.846  24.890   2.210
23477W        W88704  42.940  15.084   0.449
23478W        W88705  17.158  12.565  12.288
23479W        W88706  25.049  33.354   2.107
23480W        W88707  34.200  30.447  11.157
23481W        W88708  27.612   9.711  14.081
23482W        W88709  42.261  10.161  13.734
23483W        W88710   4.648   3.788   2.822
23484W        W88711  18.235  35.527  13.470
23485W        W88712  15.660  18.655  12.296
23486W        W88713  20.549  30.843   0.826
23487W        W88714  34.444  14.358   1.340
23488W        W88715  19.040  24.933  13.518
23489W        W88716  15.739  34.476   0.266
23490W        W88717  37.561   1.649  11.127
23491W        W88718  40.854  29.002  14.658
23492W        W88719  36.727   7.433   2.330
23493W        W88720   8.894  28.569  12.554
23494W        W88721  10.376  43.760  13.377
23495W        W88722  35.051  26.016  13.604
23496W        W88723   3.332  12.608   0.383
23497W        W88724  13.549  16.781  12.419
23498W        W88725  36.072  20.840  14.504
23499W        W88726  26.829   4.950  10.790
23500W        W88727  18.076  34.540  11.158
23501W        W88728  35.863  23.802  12.511
23502W        W88729  27.603  25.078   1.784
23503W        W88730  22.217  35.897   0.318
23504W        W88731  11.902  19.645   0.431
23505W        W88732  14.726  30.584  14.095
23506W        W88733  10.324   8.255   4.542
23507W        W88734  43.964  35.124  14.473
23508W        W88735  34.060  20.202   1.927
23509W        W88736  37.353  42.258  12.545
23510W        W88737  17.137   7.145   9.884
23511W        W88738  10.119  27.474   2.322
23512W        W88739  16.317   5.241  12.646
23513W        W88740  28.757   0.521   0.847
23514W        W88741  44.671  42.970  13.514
23515W        W88742  13.103  22.252   2.767
23516W        W88743  37.954  25.046  12.314
23517W        W88744  30.751  35.895  12.477
23518W        W88745  35.166  15.842   0.339
23519W        W88746  11.579  27.898  14.761
23520W        W88747  30.407  41.087  11.219
23521W        W88748   7.476  16.305  12.117
23522W        W88749  37.837  44.434  13.747
23523W        W88750  22.437  29.184   2.120
23524W        W88751  34.306  14.191  12.571
23525W        W88752  42.396  11.644  11.095
23526W        W88753  39.768  31.993  12.972
23527W        W88754  11.858  30.859   2.859
23528W        W88755  11.398  29.742  14.852
23529W        W88756  29.477  24.139   2.893
23530W        W88757  30.240  28.833  12.907
23531W        W88758   3.863  10.382   1.198
23532W        W88759  39.252  42.391   0.927
23533W        W88760   0.879   2.894   1.748
23534W        W88761   9.314  12.887  12.955
23535W        W88762  38.839  42.882   0.322
23536W        W88763  40.472  18.531   4.670
23537W        W88764   2.718  30.561  14.010
23538W        W88765  22.098  27.165   1.981
23539W        W88766  29.476   1.184   4.287
23540W        W88767  19.945  27.523   2.798
23541W        W88768   2.752  44.850   2.786
23542W        W88769  17.523  26.791  14.446
23543W        W88770  31.614  15.657   3.266
23544W        W88771  13.604  44.520  11.177
23545W        W88772  23.008   8.629   1.460
23546W        W88773  33.916  40.871   4.701
23547W        W88774  19.395  13.473  12.944
23548W        W88775  41.216  24.299  11.204
23549W        W88776  15.245  38.796   3.174
23550W        W88777  25.013  39.521  14.621
23551W        W88778  25.935  44.933   1.723
23552W        W88779  44.042  31.000   1.912
23553W        W88780  27.305   4.974  12.469
23554W        W88781  24.973   0.232  13.966
23555W        W88782  10.917  35.666   3.902
23556W        W88783   4.812  28.899  12.560
23557W        W88784  14.339  14.691  12.967
23558W        W88785  21.797  35.961   2.759
23559W        W88786  26.683  24.014  10.698
23560W        W88787  17.261  33.201  11.142
23561W        W88788  26.090  24.267   3.684
23562W        W88789   2.677  34.430   2.829
23563W        W88790  34.425   2.935   2.779
23564W        W88791  10.500  15.917   4.792
23565W        W88792  15.486  37.443  14.869
23566W        W88793  11.721  26.567   2.439
23567W        W88794  20.353  35.997  11.035
23568W        W88795  41.809   8.934   2.442
23569W        W88796  30.515  12.896  11.521
23570W        W88797  37.329  10.414   0.003
23571W        W88798   0.888  34.939   3.796
23572W        W88799  39.589  27.545  11.519
23573W        W88800   2.150  17.623  12.391
23574W        W88801  20.987  37.524  14.393
23575W        W88802  12.258  39.097  12.600
23576W        W88803  21.250  44.348   2.194
23577W        W88804  22.061  23.267  11.436
23578W        W88805  10.250  17.063   0.817
23579W        W88806  32.498  28.260   3.623
23580W        W88807  40.646  19.516  14.036
23581W        W88808  24.586  11.635  12.140
23582W        W88809  22.119  27.037   1.487
23583W        W88810   9.433  44.897  12.233
23584W        W88811   2.412  22.531  13.319
23585W        W88812  28.962  22.091   4.067
23586W        W88813   0.810  10.296   2.761
23587W        W88814  37.575  29.625  12.960
23588W        W88815  24.365  39.937   3.640
23589W        W88816  31.658  21.541  11.325
23590W        W88817  30.424   5.127   3.259
23591W        W88818  41.467  36.556  14.291
23592W        W88819   7.476   9.921   1.375
23593W        W88820  32.410   1.391   1.034
23594W        W88821   1.398  40.414  11.730
23595W        W88822  37.314  12.267  13.914
23596W        W88823  24.482  35.540   0.748
23597W        W88824   2.374  19.024  12.858
23598W        W88825  22.550   0.184  12.541
23599W        W88826   5.103  24.584   2.658
23600W        W88827  36.392  25.931   3.653
23601W        W88828  15.427  14.306   3.696
23602W        W88829   6.260  39.617   0.894
23603W        W88830  37.360   7.804  14.828
23604W        W88831  29.434  33.326  13.097
23605W        W88832  44.512  21.338  11.684
23606W        W88833  18.184  28.065  14.472
23607W        W88834  37.371  16.501   4.429
23608W        W88835   7.249  15.825  14.522
23609W        W88836  16.181  11.194  10.699
23610W        W88837  33.894  15.083  11.505
23611W        W88838   5.108  37.976   1.444
23612W        W88839  35.990  25.835  13.000
23613W        W88840  12.557  16.913   0.728
23614W        W88841  34.553  44.330  13.078
23615W        W88842   4.735  24.653  13.049
23616W        W88843  19.167  37.355  10.554
23617W        W88844   7.837  43.741  13.918
23618W        W88845  14.314  20.280   2.745
23619W        W88846  21.154  23.002  10.928
23620W        W88847   0.123   0.170   4.160
23621W        W88848  29.900  29.637  11.769
23622W        W88849  10.360  29.448  11.126
23623W        W88850  30.551  16.706  14.499
23624W        W88851  32.994   2.787   4.414
23625W        W88852  38.370  40.709  14.872
23626W        W88853  38.447  21.575   3.075
23627W        W88854  23.148  13.782   3.081
23628W        W88855   4.987   3.926   2.109
23629W        W88856   8.019   1.859   1.426
23630W        W88857  13.419  44.678  12.039
23631W        W88858  33.232  24.964  13.035
23632W        W88859  32.596  16.018   2.574
23633W        W88860  41.120  34.535   1.858
23634W        W88861  39.462  43.487  12.924
23635W        W88862  39.812   8.837   3.816
23636W        W88863  26.474  22.588   2.421
23637W        W88864  19.939   3.220   5.456
23638W        W88865  22.772  27.918  10.065
23639W        W88866   0.804  30.461  12.200
23640W        W88867  19.664  29.443   3.857
23641W        W88868   2.776  34.635   1.838
23642W        W88869  21.030  23.835   3.678
23643W        W88870  14.627  32.798   2.758
23644W        W88871  17.716  10.541   3.441
23645W        W88872  34.386  11.365  10.964
23646W        W88873  31.931  19.270   1.870
23647W        W88874  40.762  34.068  11.593
23648W        W88875   6.688   1.479   4.242
23649W        W88876  15.073  25.256   4.369
23650W        W88877  44.911  13.160   1.333
23651W        W88878  10.943  17.329  14.702
23652W        W88879  27.789  20.781  11.934
23653W        W88880  32.885   4.948  10.498
23654W        W88881  15.714  38.107   3.858
23655W        W88882  43.737  29.681   0.242
23656W        W88883  34.162  12.723   3.544
23657W        W88884   9.141  29.583  12.986
23658W        W88885  15.959  22.147   4.572
23659W        W88886   3.805   7.366   2.391
23660W        W88887   9.444  21.324   3.053
23661W        W88888  44.771  27.731   1.991
23662W        W88889   2.211  10.337   2.799
23663W        W88890  30.842   6.909   4.169
23664W        W88891   5.736  27.758  13.277
23665W        W88892   0.619  36.709   1.688
23666W        W88893   1.295   1.416  13.341
23667W        W88894  27.805  18.012   4.470
23668W        W88895  12.037  25.021  11.356
23669W        W88896  30.029  34.339   4.586
23670W        W88897  11.721  29.472  10.711
23671W        W88898   4.134  15.731  11.697
23672W        W88899  15.811   7.498  14.591
23673W        W88900  22.326  42.544   4.374
23674W        W88901  30.751  29.141  10.166
23675W        W88902  24.619  16.088  11.625
23676W        W88903  11.349  36.886  11.135
23677W        W88904   0.951   0.507   0.839
23678W        W88905  28.551  32.937   1.751
23679W        W88906  16.962  35.102   4.458
23680W        W88907  25.721  36.343   3.294
23681W        W88908  28.168  19.319  13.596
23682W        W88909  23.411   8.796   2.324
23683W        W88910  42.867  38.057   1.251
23684W        W88911  18.782  23.993   3.843
23685W        W88912   4.505   7.992  12.853
23686W        W88913   9.141   0.507  10.602
23687W        W88914  20.250  14.098  13.085
23688W        W88915   4.204  11.267  10.630
23689W        W88916  40.498   9.775  13.378
23690W        W88917  11.459  20.615  11.605
23691W        W88918  11.271  24.826   3.677
23692W        W88919  33.299  26.122   2.419
23693W        W88920   1.750  17.316  11.992
23694W        W88921  24.438  19.499   0.286
23695W        W88922  15.543  38.261   2.889
23696W        W88923  41.551  37.324  13.347
23697W        W88924  32.587   0.842  13.429
23698W        W88925  30.116   0.001  10.694
23699W        W88926  18.680  31.410  13.631
23700W        W88927  35.955  13.531   0.733
23701W        W88928   1.292  12.678   4.492
23702W        W88929  43.444  18.983   3.034
23703W        W88930  27.406  21.708   3.141
23704W        W88931  15.878   6.254  14.857
23705W        W88932  14.238  17.143   4.973
23706W        W88933  11.784  25.077   2.650
23707W        W88934  28.000   5.921   4.718
23708W        W88935   4.755  10.204  14.114
23709W        W88936  39.509  10.685   3.350
23710W        W88937   2.449  29.042  14.477
23711W        W88938  41.842   7.418   2.672
23712W        W88939  42.074  42.261  11.144
23713W        W88940  28.654  24.465   3.797
23714W        W88941  33.359  35.901  14.375
23715W        W88942  24.876  32.661  11.208
23716W        W88943   6.247  44.537   4.380
23717W        W88944  29.908  12.122  13.014
23718W        W88945  38.946  39.116   1.634
23719W        W88946  17.784  42.748   2.988
23720W        W88947  22.005  25.144  13.607
23721W        W88948  31.203  39.048   3.167
23722W        W88949  34.627  31.208  10.808
23723W        W88950  26.260  19.527   0.445
23724W        W88951  23.501  40.060   2.143
23725W        W88952  24.689   1.459   0.230
23726W        W88953  40.041   2.339   4.563
23727W        W88954   7.963   0.378  14.038
23728W        W88955  43.329  29.857   2.754
23729W        W88956  21.882  33.359  11.937
23730W        W88957  17.364  19.666  12.738
23731W        W88958  32.453  33.673   0.853
23732W        W88959  27.725  32.033   3.481
23733W        W88960  11.703  33.504  13.874
23734W        W88961  16.221  43.834  11.823
23735W        W88962  19.951  39.241  12.088
23736W        W88963  39.864  20.461  12.073
23737W        W88964  33.524  27.073   4.928
23738W        W88965  43.250  11.038   3.301
23739W        W88966  27.049  30.541   0.442
23740W        W88967  17.497   7.720   0.685
23741W        W88968  43.743  29.550   3.665
23742W        W88969  29.636  34.567  11.131
23743W        W88970   3.421  12.647   2.681
23744W        W88971  20.774  12.608  11.536
23745W        W88972  24.618  20.943  12.907
23746W        W88973  33.545  44.960  10.929
23747W        W88974  27.097   1.727   9.970
23748W        W88975  15.844  29.488   4.644
23749W        W88976  18.409   4.787  12.929
23750W        W88977  38.386  17.249  13.842
23751W        W88978  44.874   6.318   0.134
23752W        W88979   1.449  36.771   1.216
23753W        W88980  35.459  10.359  13.588
23754W        W88981  37.125   3.022  14.045
23755W        W88982  11.861   0.350  14.422
23756W        W88983  26.226  17.325  14.704
23757W        W88984  28.074  17.187  14.839
23758W        W88985  21.782  26.581  10.637
23759W        W88986   5.447  37.839  13.250
23760W        W88987  34.428   4.885  10.409
23761W        W88988   5.402  16.723   1.862
23762W        W88989  16.776  31.225  14.381
23763W        W88990  20.120   3.651  11.094
23764W        W88991  28.051  22.759   0.855
23765W        W88992  15.122  14.083  12.104
23766W        W88993  44.413  43.017   0.347
23767W        W88994  32.950  28.965   2.349
23768W        W88995  19.140  16.825  11.117
23769W        W88996   2.987  25.289   3.195
23770W        W88997  12.725  25.195  13.109
23771W        W88998   9.772  18.787  11.691
23772W        W88999  32.322   0.295   4.788
23773W        W89000   6.906  44.752   2.696
23774W        W89001  37.648  11.679  11.440
23775W        W89002  29.835  21.456   2.210
23776W        W89003  15.296  43.982   4.759
23777W        W89004  11.996  14.141   9.725
23778W        W89005  23.485   3.683   0.414
23779W        W89006  24.956   5.352  10.785
23780W        W89007   4.589  10.261  13.086
23781W        W89008  16.633   1.103  14.849
23782W        W89009   4.650  12.695  11.228
23783W        W89010  27.636   3.960   2.908
23784W        W89011  23.457   5.277   3.988
23785W        W89012  34.022   8.335  14.851
23786W        W89013  33.680  33.347  10.310
23787W        W89014  38.395  11.422  12.829
23788W        W89015  13.287  19.746  14.433
23789W        W89016  38.476  37.238   0.915
23790W        W89017  29.992   3.323  14.994
23791W        W89018  28.427  16.020   3.357
23792W        W89019  29.369  21.836  11.159
23793W        W89020   2.599  29.911   2.363
23794W        W89021  30.229  30.960   4.330
23795W        W89022  35.191  22.346   2.336
23796W        W89023  14.365   7.325  11.585
23797W        W89024  31.162  18.665  11.616
23798W        W89025   9.826  43.920  11.222
23799W        W89026   8.290  41.609  10.625
23800W        W89027  30.938  33.928  14.287
23801W        W89028  42.444  13.122   2.257
23802W        W89029  10.907  42.985  14.891
23803W        W89030   4.417  39.358   2.743
23804W        W89031  36.972   0.370   4.587
23805W        W89032  22.927  20.639  13.054
23806W        W89033  18.791  32.878   3.931
23807W        W89034   5.947  21.426  13.779
23808W        W89035  10.108  20.155   2.017
23809W        W89036  44.287  30.063  10.618
23810W        W89037   2.344  10.264   5.094
23811W        W89038  29.491  16.188  12.251
23812W        W89039  11.689  17.868  14.321
23813W        W89040  37.613  15.773  12.564
23814W        W89041   8.824   2.172   0.846
23815W        W89042  44.470   8.407  13.384
23816W        W89043  19.787  21.333  11.641
23817W        W89044   7.519  29.021  13.768
23818W        W89045  20.120  40.043  10.908
23819W        W89046  12.199  31.135   0.161
23820W        W89047  33.817  10.187  12.473
23821W        W89048  36.484   0.506   3.751
23822W        W89049  15.762  31.087  10.826
23823W        W89050  31.139   2.050  13.522
23824W        W89051   4.579  18.962  12.917
23825W        W89052  11.408  33.388   2.232
23826W        W89053  31.665  26.955   0.305
23827W        W89054   1.017  28.628  13.076
23828W        W89055  23.686  27.671   3.388
23829W        W89056  39.676   7.399   4.995
23830W        W89057  12.804   4.976   0.323
23831W        W89058  11.612  12.098   3.700
23832W        W89059  41.247  39.878  14.125
23833W        W89060  31.073  18.526   0.960
23834W        W89061  16.625   4.570  14.484
23835W        W89062   8.361  29.700   0.217
23836W        W89063   3.396  18.972   2.558
23837W        W89064   7.871  43.782   3.661
23838W        W89065  27.492   6.434  14.427
23839W        W89066   8.153  17.762   0.867
23840W        W89067  16.615   8.141  12.938
23841W        W89068  15.148  41.024  13.335
23842W        W89069  29.974  20.347  14.332
23843W        W89070  15.034   9.265  11.662
23844W        W89071   3.880  16.529  10.958
23845W        W89072  32.629  19.220   3.269
23846W        W89073  43.114  39.794   0.481
23847W        W89074  24.910  34.933   1.956
23848W        W89075  24.505  12.843   0.310
23849W        W89076   3.760  22.649  11.608
23850W        W89077   9.671  41.487   1.393
23851W        W89078  18.144  16.245   3.183
23852W        W89079   1.548  16.247  14.671
23853W        W89080  18.224  40.059   4.904
23854W        W89081  27.529  28.237   3.913
23855W        W89082  29.263  37.645  11.657
23856W        W89083   6.802  10.108   4.386
23857W        W89084  24.196   8.743  13.806
23858W        W89085   6.461  25.075   4.027
23859W        W89086  10.786  39.938   3.249
23860W        W89087  16.946  29.722   2.785
23861W        W89088  35.519  11.476  11.451
23862W        W89089  41.635   8.940  10.795
23863W        W89090   9.198   3.480   1.763
23864W        W89091  34.983  22.464   1.490
23865W        W89092  39.028  41.524  13.439
23866W        W89093  15.064  32.560   4.116
23867W        W89094   7.858  15.776  14.686
23868W        W89095  38.291  11.054  11.903
23869W        W89096  13.240  36.802   1.812
23870W        W89097  32.828  10.287  14.783
23871W        W89098  27.697  41.060  10.650
23872W        W89099   4.395  10.249   0.341
23873W        W89100   1.271  24.009  10.250
23874W        W89101  11.528  24.865  11.226
23875W        W89102  19.645  42.889   3.185
23876W        W89103  23.492  11.617  13.721
23877W        W89104   8.701  38.071   4.210
23878W        W89105  17.907   1.473   3.774
23879W        W89106  36.552  36.826  13.950
23880W        W89107  20.227  35.977  12.543
23881W        W89108   7.022  24.123  14.332
23882W        W89109   1.884  13.902   4.071
23883W        W89110  16.081   0.321  12.946
23884W        W89111  34.381  26.279  12.935
23885W        W89112  32.120  38.020  11.721
23886W        W89113  34.973  10.189   5.143
23887W        W89114   9.613  21.290   0.734
23888W        W89115  25.714  12.754  12.092
23889W        W89116  40.583  33.111   1.910
23890W        W89117   3.865  40.734   3.834
23891W        W89118  27.561  25.993   4.183
23892W        W89119  44.733   5.971  10.410
23893W        W89120  19.598  23.825  11.156
23894W        W89121  41.697  19.011   0.244
23895W        W89122  21.199  43.356  13.933
23896W        W89123  31.879   5.298  13.090
23897W        W89124  13.666   2.286  10.484
23898W        W89125  29.868  11.005   3.264
23899W        W89126   5.819   9.808  13.882
23900W        W89127  18.358  32.520   2.284
23901W        W89128  44.959   0.794   4.126
23902W        W89129  36.537   9.070  10.493
23903W        W89130  12.092  42.932   4.405
23904W        W89131  10.407  15.194  13.792
23905W        W89132  24.020  32.528  12.498
23906W        W89133  15.806  17.680   2.228
23907W        W89134  14.189   0.885   3.019
23908W        W89135   4.456   6.822   1.138
23909W        W89136  14.293  36.903  14.477
23910W        W89137  29.346  31.391   1.488
23911W        W89138  39.281  39.045  14.927
23912W        W89139  25.028   9.092  12.411
23913W        W89140   1.111  37.949   4.560
23914W        W89141   6.824  17.627  11.073
23915W        W89142  30.948  25.671   1.431
23916W        W89143  12.129  26.283   3.242
23917W        W89144  43.490  42.002   2.234
23918W        W89145  37.388  38.527  12.879
23919W        W89146  17.747  36.958   0.326
23920W        W89147  18.588  14.304  14.919
23921W        W89148  18.723  10.859  13.846
23922W        W89149  25.346  31.875   1.194
23923W        W89150  21.649  17.167   2.871
23924W        W89151  18.841  31.920   3.759
23925W        W89152  30.394   1.013   4.191
23926W        W89153  39.733  42.576   2.886
23927W        W89154  38.783  33.298   2.716
23928W        W89155  44.814   9.599  11.391
23929W        W89156  33.477   8.784  12.363
23930W        W89157  27.834   4.701  10.816
23931W        W89158  30.348  23.710  10.469
23932W        W89159  37.528  32.114  13.520
23933W        W89160  35.388  32.310   1.855
23934W        W89161  10.661  36.076  14.462
23935W        W89162  18.290  35.860  13.037
23936W        W89163  31.969  24.225   3.144
23937W        W89164  12.405  10.160   1.810
23938W        W89165  30.424  41.845   2.800
23939W        W89166   3.920   4.215   1.473
23940W        W89167  29.070   5.015   1.434
23941W        W89168   9.712   2.533  13.655
23942W        W89169   2.516  24.917   2.295
23943W        W89170  27.912  26.657   1.816
23944W        W89171  25.007  34.382   1.836
23945W        W89172   4.658   1.239   0.757
23946W        W89173  36.124  11.316  13.170
23947W        W89174  22.371  37.367   4.798
23948W        W89175  29.430  29.025   1.807
23949W        W89176  23.191  44.768   1.257
23950W        W89177  35.414  14.172  12.101
23951W        W89178  37.312  10.538   4.541
23952W        W89179   3.177  38.748  10.130
23953W        W89180  30.046  24.895   3.707
23954W        W89181  13.574   8.273  13.905
23955W        W89182   8.495  20.125  11.613
23956W        W89183  36.340   4.778  11.924
23957W        W89184  25.631  18.816  11.216
23958W        W89185   2.210  17.116  12.574
23959W        W89186  24.985  33.086   0.813
23960W        W89187  20.086  14.372   0.801
23961W        W89188  14.100   3.152  13.959
23962W        W89189   9.667  24.965   3.672
23963W        W89190  12.603  42.642  13.797
23964W        W89191  38.035  23.054  12.037
23965W        W89192  34.494  12.331   4.149
23966W        W89193   6.420  14.567  11.249
23967W        W89194   3.711   6.132  12.447
23968W        W89195  43.900  41.875  14.167
23969W        W89196  26.488  39.868  12.880
23970W        W89197  17.056  27.475   3.352
23971W        W89198  39.128  30.097  10.609
23972W        W89199  22.119  27.933  12.534
23973W        W89200  15.875  43.393   3.177
23974W        W89201   7.343   4.371  10.507
23975W        W89202  36.929  19.258  11.036
23976W        W89203  29.636  31.496   4.076
23977W        W89204  34.110  26.716   4.562
23978W        W89205  13.151  21.525   4.999
23979W        W89206  19.942  31.192   2.359
23980W        W89207   8.634  32.039   1.025
23981W        W89208  10.123  29.081   4.697
23982W        W89209  17.128   2.188  11.654
23983W        W89210  40.059   4.454   2.589
23984W        W89211  40.300  15.804  13.435
23985W        W89212  32.039  39.466  10.104
23986W        W89213   8.262  24.633  12.500
23987W        W89214   0.599  37.736   1.684
23988W        W89215  35.257   2.842   0.735
23989W        W89216   1.808  39.240   4.059
23990W        W89217  17.279  27.406   0.818
23991W        W89218  24.557  41.791   0.422
23992W        W89219   0.976  20.814  11.703
23993W        W89220  27.244  20.845   4.426
23994W        W89221   6.151  34.952  13.831
23995W        W89222  31.527   6.677  11.602
23996W        W89223  24.548  37.933   4.118
23997W        W89224  17.437  31.991  14.671
23998W        W89225  16.685  22.512   3.595
23999W        W89226  20.604  36.895   3.605
24000W        W89227  36.986  38.104  14.292
24001W        W89228  32.954  30.986   4.149
24002W        W89229  10.153  13.141  12.622
24003W        W89230  24.446  27.064  11.959
24004W        W89231   7.439  30.496  13.846
24005W        W89232  13.864  34.022  12.363
24006W        W89233  39.007  38.079   4.273
24007W        W89234  39.027   3.010  10.510
24008W        W89235  18.328   8.924   0.763
24009W        W89236  38.837  29.692   3.292
24010W        W89237  10.898  10.214  12.865
24011W        W89238  19.108  26.439  13.571
24012W        W89239  42.510  11.581  14.839
24013W        W89240  43.926  17.075   4.046
24014W        W89241   1.378  31.076   4.365
24015W        W89242  34.332  36.974  14.453
24016W        W89243  12.922  13.080   3.026
24017W        W89244  44.715  38.478  11.190
24018W        W89245   5.087   5.508   3.159
24019W        W89246  27.647  11.670  14.284
24020W        W89247   2.938   1.517   2.228
24021W        W89248  22.256  38.950   2.273
24022W        W89249   4.701  20.674   3.408
24023W        W89250  15.570  24.729  11.519
24024W        W89251   3.990  42.542   2.743
24025W        W89252   1.322  13.830   2.171
24026W        W89253  29.446  16.192  12.767
24027W        W89254  17.653  22.250   3.640
24028W        W89255   3.375  20.478  10.884
24029W        W89256   9.982  40.286  12.473
24030W        W89257  36.437   9.093   3.147
24031W        W89258   4.910   4.148  12.029
24032W        W89259  14.558  29.878  14.940
24033W        W89260  38.431   1.011   4.604
24034W        W89261   5.706  40.182  12.259
24035W        W89262   8.727  14.225   4.929
24036W        W89263  22.568  13.346   0.344
24037W        W89264  14.192  41.517  10.963
24038W        W89265   4.366  19.558  13.489
24039W        W89266  10.037   6.739   1.417
24040W        W89267  43.558  16.804  13.964
24041W        W89268  30.538  24.830  11.024
24042W        W89269  10.776  44.025  12.485
24043W        W89270  22.175  35.570   3.655
24044W        W89271   0.326   1.692  11.213
24045W        W89272   1.261   3.724   3.642
24046W        W89273  41.585   3.236  12.480
24047W        W89274  43.049  15.716   1.199
24048W        W89275  12.757   5.653   4.657
24049W        W89276  30.908   4.707  11.729
24050W        W89277  20.252  36.841   4.056
24051W        W89278  10.571  34.030   1.674
24052W        W89279  25.953  39.450   3.207
24053W        W89280  43.359  44.467   4.533
24054W        W89281   2.143  35.553   4.182
24055W        W89282  12.162  28.220  11.808
24056W        W89283  11.692  24.173   1.346
24057W        W89284  41.005   7.484   4.680
24058W        W89285   5.171   5.489   1.774
24059W        W89286  20.275  20.084  10.754
24060W        W89287  15.409  41.998   1.235
24061W        W89288  30.264  36.018   1.784
24062W        W89289   9.422   4.409  14.792
24063W        W89290  43.549  14.384   2.685
24064W        W89291  10.870   2.312   2.278
24065W        W89292  10.978   2.537  10.515
24066W        W89293  42.582  13.362   2.735
24067W        W89294   4.384  14.729  10.340
24068W        W89295   8.973  19.377   4.855
24069W        W89296  19.602   5.417   4.258
24070W        W89297  21.780   0.907  13.824
24071W        W89298   0.488  17.346   0.044
24072W        W89299   5.883  21.581   0.869
24073W        W89300  26.701  15.244   2.093
24074W        W89301  15.665  33.955  11.592
24075W        W89302  44.920   3.844   0.408
24076W        W89303  22.198  24.678  13.516
24077W        W89304  19.962   0.860  14.793
24078W        W89305  38.006  14.113  14.464
24079W        W89306  16.332  40.850  13.580
24080W        W89307  20.174  40.853  11.231
24081W        W89308  40.979  20.811   1.653
24082W        W89309  39.314  34.670  14.343
24083W        W89310  39.067  14.818  13.954
24084W        W89311   5.081   6.220  12.520
24085W        W89312  22.015  41.824   1.951
24086W        W89313  17.239  44.371   4.241
24087W        W89314   7.281  19.572   1.343
24088W        W89315  14.092   2.799  11.047
24089W        W89316  24.500  25.470  11.040
24090W        W89317   6.242  40.006  13.383
24091W        W89318   5.495  24.557  12.096
24092W        W89319  38.079  23.965  14.847
24093W        W89320  43.754  20.837   3.190
24094W        W89321  18.488  38.946   1.425
24095W        W89322  40.772  10.435  11.598
24096W        W89323  44.039  15.515  13.731
24097W        W89324   1.662  15.721  11.107
24098W        W89325  33.286  16.186   1.737
24099W        W89326  32.617  23.115   3.611
24100W        W89327  18.242  13.237   1.916
24101W        W89328  40.473  13.870   2.358
24102W        W89329  44.669  30.300  13.532
24103W        W89330   5.803  33.950  11.034
24104W        W89331  19.805  44.049  11.590
24105W        W89332  41.390   5.707  11.629
24106W        W89333  33.568   7.468  14.960
24107W        W89334  30.581   5.135  12.016
24108W        W89335  40.333  28.891   1.347
24109W        W89336  17.262  33.921   1.671
24110W        W89337   9.630  37.356  13.291
24111W        W89338  25.035  30.470   2.947
24112W        W89339  17.612  36.947  12.525
24113W        W89340  41.583   2.355   3.453
24114W        W89341  18.114  31.788   1.884
24115W        W89342  35.759  35.090  13.745
24116W        W89343  22.053  27.547   1.632
24117W        W89344  28.050   7.320  10.106
24118W        W89345   1.004  28.518  10.717
24119W        W89346  14.230  36.846  12.002
24120W        W89347  19.611  27.217  13.148
24121W        W89348  43.130  42.952  14.734
24122W        W89349  10.106  10.882   3.218
24123W        W89350  19.974  29.014  11.883
24124W        W89351   1.047  18.620   3.607
24125W        W89352   8.352   1.203  11.574
24126W        W89353  30.361   7.389  10.528
24127W        W89354  36.877   6.087   4.853
24128W        W89355  11.347  43.342   3.284
24129W        W89356  39.421  15.734   2.217
24130W        W89357  27.001  34.956   4.413
24131W        W89358  14.859  40.379  14.207
24132W        W89359  31.042  43.874   1.020
24133W        W89360  16.788  31.691  14.021
24134W        W89361   2.513  22.950  14.082
24135W        W89362   7.638   4.754  13.334
24136W        W89363  31.319   5.221  14.519
24137W        W89364  44.887  42.434  14.772
24138W        W89365   3.423  43.297   3.195
24139W        W89366   9.543  31.985   0.868
24140W        W89367  21.769  41.017   3.651
24141W        W89368  14.238   2.860   0.616
24142W        W89369  37.612  30.801   5.166
24143W        W89370  38.335  44.328  11.636
24144W        W89371  16.713  35.047  11.578
24145W        W89372  17.202  12.663  10.630
24146W        W89373   6.261  21.242   2.191
24147W        W89374  36.879  12.194   2.071
24148W        W89375  23.220  14.526  13.613
24149W        W89376  36.957  21.224  14.712
24150W        W89377  34.134  12.806   9.828
24151W        W89378  11.291  11.719   1.818
24152W        W89379  28.690   0.982  14.933
24153W        W89380  20.984  33.952   2.750
24154W        W89381  19.093  12.487   4.113
24155W        W89382  30.703  33.380   0.318
24156W        W89383  13.628  12.567   1.313
24157W        W89384  29.623  39.075  13.876
24158W        W89385  43.759   8.937   2.178
24159W        W89386  16.237   6.951  11.559
24160W        W89387   3.190  31.811  14.551
24161W        W89388   0.315  32.645  10.643
24162W        W89389  40.002  28.589   0.765
24163W        W89390   7.809  37.438  11.190
24164W        W89391  21.728  13.373  10.778
24165W        W89392  20.889  33.058   4.942
24166W        W89393  30.983  38.660  11.264
24167W        W89394   2.839  38.597  13.626
24168W        W89395  13.255   1.260  11.182
24169W        W89396  36.791   6.704  14.323
24170W        W89397  19.970  31.184   4.204
24171W        W89398  26.541  23.316  14.803
24172W        W89399   2.931   0.738   3.141
24173W        W89400  13.614  39.106   2.716
24174W        W89401  33.396  21.939   1.284
24175W        W89402  30.886  44.518  11.553
24176W        W89403  31.806   6.521   0.958
24177W        W89404  22.428   6.805   0.381
24178W        W89405  36.372   9.580  13.093
24179W        W89406   0.493   3.450   1.420
24180W        W89407  11.171  16.264   4.112
24181W        W89408   9.747  18.870   1.731
24182W        W89409   1.701  13.793   1.375
24183W        W89410  20.570   1.776  11.936
24184W        W89411  23.922  32.541  11.999
24185W        W89412  27.197  41.322   0.905
24186W        W89413   6.814  33.391  13.283
24187W        W89414   9.805  25.069   3.167
24188W        W89415  44.202  39.861  12.289
24189W        W89416  29.241  27.778   2.255
24190W        W89417  41.424  37.333   3.248
24191W        W89418  15.900  44.698  12.446
24192W        W89419  34.274  12.877   5.493
24193W        W89420  40.378  18.798   4.176
24194W        W89421   8.110  22.198   4.325
24195W        W89422  18.125  28.583   1.878
24196W        W89423  31.381  41.033  14.050
24197W        W89424  31.002  43.761  13.873
24198W        W89425  42.542  21.603   2.435
24199W        W89426  43.299  23.011  10.810
24200W        W89427  13.434  36.370  10.816
24201W        W89428   5.475   2.990  13.092
24202W        W89429   3.424  19.096  10.470
24203W        W89430  35.061  11.799  11.929
24204W        W89431   7.600  31.588   1.679
24205W        W89432  42.521   4.440   2.694
24206W        W89433   1.675   0.031  14.966
24207W        W89434  37.542  33.821   3.258
24208W        W89435  33.346  18.275   1.451
24209W        W89436  38.416  20.275  14.959
24210W        W89437  39.059  35.384  11.665
24211W        W89438  32.159  20.583  12.475
24212W        W89439  23.773  14.026  10.327
24213W        W89440  40.358  25.229  13.523
24214W        W89441  38.497  25.989   0.848
24215W        W89442   1.870   8.959  11.803
24216W        W89443  37.098  21.958  12.124
24217W        W89444  15.739  18.646  13.766
24218W        W89445  11.260  18.485  13.251
24219W        W89446  15.210  44.165  14.089
24220W        W89447  34.872   3.677  11.201
24221W        W89448  17.166  15.715   2.334
24222W        W89449  24.939  30.112  14.983
24223W        W89450   8.243  39.325   1.785
24224W        W89451  11.703   5.783  13.366
24225W        W89452  13.865  39.379   4.038
24226W        W89453  15.849   3.217  12.200
24227W        W89454  34.879   1.785   4.557
24228W        W89455   7.603  11.420  13.561
24229W        W89456  33.592  20.468  12.573
24230W        W89457  38.981  41.877   0.213
24231W        W89458  15.553  41.234  12.515
24232W        W89459  19.293   3.810   0.179
24233W        W89460  40.560  12.356  14.045
24234W        W89461  39.146   4.279   0.675
24235W        W89462  13.727  33.636  11.605
24236W        W89463  43.372  32.545   2.689
24237W        W89464  43.056  11.269  13.585
24238W        W89465  10.887  20.291   2.377
24239W        W89466  40.838  33.684  14.392
24240W        W89467   6.847  25.689   4.796
24241W        W89468  18.604  17.549  11.926
24242W        W89469  29.724  26.080   3.288
24243W        W89470  13.741  24.079   1.603
24244W        W89471  41.840  42.425  10.710
24245W        W89472  11.251  19.103  11.502
24246W        W89473  19.992   3.338   0.144
24247W        W89474  14.493  30.644  11.374
24248W        W89475  43.859  17.900   4.565
24249W        W89476   0.709  28.959  13.341
24250W        W89477   3.135  29.990  13.255
24251W        W89478  23.110   4.751   2.263
24252W        W89479   4.327  11.067  12.074
24253W        W89480  22.662  44.351  14.594
24254W        W89481  16.966  38.538  11.480
24255W        W89482  18.799  16.759   1.335
24256W        W89483   8.714  39.590   0.066
24257W        W89484  12.285   9.350  11.278
24258W        W89485  32.567   3.393   2.939
24259W        W89486   9.854   1.958   0.306
24260W        W89487  12.309  24.160   2.970
24261W        W89488   2.991  14.965   4.523
24262W        W89489   9.516  36.180   0.956
24263W        W89490  33.875  22.120   3.858
24264W        W89491  22.352  36.614   2.349
24265W        W89492  15.804  16.118  11.718
24266W        W89493   8.380  27.987  12.434
24267W        W89494   6.871  34.880  13.406
24268W        W89495  10.158  43.575  11.079
24269W        W89496  11.774   3.311  13.568
24270W        W89497  20.349  41.602   1.518
24271W        W89498  38.366  38.788   4.213
24272W        W89499  29.056  36.306  12.920
24273W        W89500  14.248  29.557   1.631
24274W        W89501  33.434  24.262  13.378
24275W        W89502  43.497  17.042   4.320
24276W        W89503  43.935  38.503  12.387
24277W        W89504  24.090  11.813   2.962
24278W        W89505   8.719  41.492   2.286
24279W        W89506   1.786  14.767   1.369
24280W        W89507  38.602  27.909  13.561
24281W        W89508   2.781  23.755  13.936
24282W        W89509  34.450  19.792  14.088
24283W        W89510  27.665   6.789  10.430
24284W        W89511   4.350   9.245   0.724
24285W        W89512  26.046  28.884  12.946
24286W        W89513  32.577   6.451  12.838
24287W        W89514  34.527  18.097   3.604
24288W        W89515  37.765  10.899  13.496
24289W        W89516   7.321  43.766  14.907
24290W        W89517   1.237   3.150   3.417
24291W        W89518  35.698   3.567  13.221
24292W        W89519   8.134   6.592  13.990
24293W        W89520   0.905  32.512  13.963
24294W        W89521  12.055  32.149  12.939
24295W        W89522  32.413  19.073   2.809
24296W        W89523  13.447  27.560   3.265
24297W        W89524  34.917   1.933  10.703
24298W        W89525  37.335  12.859   0.984
24299W        W89526  25.310  12.380  10.311
24300W        W89527  18.174  26.411   1.660
24301W        W89528  43.485  15.657   2.269
24302W        W89529   2.066  19.195  11.481
24303W        W89530  14.282  33.380  10.206
24304W        W89531  16.316  17.885  12.409
24305W        W89532  41.709   2.834   4.637
24306W        W89533  44.372  22.503  14.625
24307W        W89534   4.138   8.146  14.710
24308W        W89535  36.032   9.771  11.581
24309W        W89536  42.237   0.739   5.046
24310W        W89537  39.430  32.431  11.784
24311W        W89538  32.109  20.875  14.904
24312W        W89539  36.854  29.921   1.147
24313W        W89540  14.344   0.867   3.690
24314W        W89541  14.795   7.269  14.401
24315W        W89542  15.720  18.291   3.043
24316W        W89543  27.504  24.299  14.413
24317W        W89544  39.332  20.186   3.119
24318W        W89545  10.369  19.921   2.390
24319W        W89546  40.847  41.264  14.000
24320W        W89547  28.618  31.226  11.049
24321W        W89548  41.803  28.710  13.073
24322W        W89549  29.935  29.844  13.850
24323W        W89550  17.746  22.558   4.475
24324W        W89551  18.299  13.073   0.283
24325W        W89552   6.457   9.906  11.586
24326W        W89553  40.530  13.626   0.121
24327W        W89554  19.786   6.894  11.587
24328W        W89555  44.381  39.773  12.767
24329W        W89556  32.666  31.070  13.853
24330W        W89557   9.142  21.883  11.087
24331W        W89558  40.097   6.544  13.064
24332W        W89559  21.053   3.265   9.927
24333W        W89560   1.925   0.309  10.750
24334W        W89561  12.090  28.116   2.558
24335W        W89562  32.728  41.464  10.970
24336W        W89563  29.645   9.816   4.080
24337W        W89564  35.958  39.558   2.546
24338W        W89565  26.895   3.565   0.326
24339W        W89566   5.278  10.742   2.446
24340W        W89567  18.864  40.789   3.452
24341W        W89568  30.018  15.629  13.308
24342W        W89569  37.106  32.983  13.543
24343W        W89570   7.304   4.373   1.272
24344W        W89571  37.209   0.915   2.262
24345W        W89572  14.610  11.641   2.713
24346W        W89573   5.229  43.712  13.061
24347W        W89574   0.516  38.877  13.729
24348W        W89575  23.727  28.551  12.973
24349W        W89576  11.970  16.647   4.173
24350W        W89577  41.251  26.248   4.989
24351W        W89578   9.860  43.789   1.931
24352W        W89579  35.895  18.726   5.028
24353W        W89580  34.839  36.517  14.942
24354W        W89581  24.617  36.831  11.678
24355W        W89582  20.897   4.991  12.893
24356W        W89583  30.252  18.801   4.132
24357W        W89584  38.974  27.584   3.773
24358W        W89585   4.293   1.292  14.858
24359W        W89586  44.006  41.999   1.223
24360W        W89587  26.044  44.687  14.298
24361W        W89588  18.721  34.452  12.526
24362W        W89589  36.360  29.586   3.369
24363W        W89590  15.846  37.399   0.291
24364W        W89591  34.944  38.490   3.884
24365W        W89592  33.614  13.852   4.966
24366W        W89593   4.977   2.730  14.951
24367W        W89594  21.189  13.295   1.842
24368W        W89595   2.487  28.760   3.975
24369W        W89596  36.974   7.857  13.990
24370W        W89597   7.926   4.795   4.723
24371W        W89598  36.649   2.609   5.104
24372W        W89599  27.002  42.730   2.534
24373W        W89600  19.904  23.411  11.148
24374W        W89601   1.380  34.486   1.878
24375W        W89602  16.733  41.625   1.327
24376W        W89603  31.933  33.757  11.939
24377W        W89604   0.768   8.810   1.938
24378W        W89605  33.059  11.234   0.450
24379W        W89606   7.583  12.865   3.705
24380W        W89607  44.891  20.502   2.738
24381W        W89608   8.687  32.350   0.483
24382W        W89609  34.475  30.086   0.766
24383W        W89610  30.771  12.692   4.427
24384W        W89611  12.173   6.877   2.927
24385W        W89612  34.916  17.190  10.550
24386W        W89613   5.181  43.793   1.280
24387W        W89614  15.856  27.113  14.850
24388W        W89615  38.402  15.129   4.644
24389W        W89616  35.932  11.831  14.961
24390W        W89617  38.962  20.675   9.918
24391W        W89618  35.097  25.679   3.237
24392W        W89619   8.865  36.798  14.216
24393W        W89620  28.814  13.247   0.727
24394W        W89621  38.827  40.994   1.804
24395W        W89622  33.436   8.295   1.031
24396W        W89623  43.461  36.052   1.105
24397W        W89624  40.778  27.599   0.523
24398W        W89625   5.887  25.836  10.971
24399W        W89626  44.494  30.720   2.636
24400W        W89627  21.533  40.318   1.184
24401W        W89628  13.063  10.560  14.804
24402W        W89629  10.763  11.457   4.213
24403W        W89630  18.075  17.825   1.717
24404W        W89631  40.861  34.572  11.637
24405W        W89632  12.643  34.341   3.787
24406W        W89633  28.320  12.779   3.230
24407W        W89634   8.330  25.635  13.500
24408W        W89635   8.604  29.647   1.417
24409W        W89636  30.621  30.933  12.211
24410W        W89637  29.427  23.160  12.158
24411W        W89638  14.167  21.865   0.717
24412W        W89639  21.175  18.330   3.817
24413W        W89640  14.572  12.734  12.083
24414W        W89641  22.520  33.429   3.156
24415W        W89642  31.061   6.467   4.432
24416W        W89643  37.751   4.936   4.249
24417W        W89644  34.887  16.347  12.589
24418W        W89645  19.159  30.400   1.920
24419W        W89646   8.345  38.455   4.104
24420W        W89647  43.325   3.446   1.325
24421W        W89648  15.836  22.065   4.060
24422W        W89649  21.836  18.647  11.853
24423W        W89650  26.457  21.624  14.809
24424W        W89651  36.467   4.761   1.350
24425W        W89652  21.222  44.208   1.666
24426W        W89653  33.334  12.076  13.041
24427W        W89654  44.443  44.739  14.114
24428W        W89655  26.881  23.373   3.861
24429W        W89656   6.207   8.236   1.886
24430W        W89657  21.758  36.295  12.497
24431W        W89658  12.105   3.654   0.413
24432W        W89659  11.931  29.872  14.533
24433W        W89660  44.726  34.949   3.270
24434W        W89661   0.844  31.487  13.402
24435W        W89662  27.282   8.666   4.437
24436W        W89663  40.491  36.534   3.369
24437W        W89664  39.312  14.059  14.858
24438W        W89665  16.766  44.492   3.270
24439W        W89666   4.135  30.090   4.052
24440W        W89667  29.771  29.264  14.972
24441W        W89668  27.124  36.359   0.934
24442W        W89669   7.781  16.417   2.677
24443W        W89670  22.605  39.068   1.532
24444W        W89671  39.501  35.829   0.897
24445W        W89672  35.795  35.828  11.591
24446W        W89673  13.663  17.310  13.297
24447W        W89674  10.208  12.375   0.246
24448W        W89675  44.621  16.883  14.000
24449W        W89676  10.958  15.101   3.321
24450W        W89677  14.316   6.284   4.116
24451W        W89678  22.516  38.848  10.784
24452W        W89679   4.680  34.036  13.766
24453W        W89680  28.514   7.128   1.348
24454W        W89681  15.434   8.155   2.618
24455W        W89682  42.646  23.147   4.933
24456W        W89683  39.885  41.036  10.752
24457W        W89684  23.254  22.338  14.967
24458W        W89685  13.224  42.847  10.740
24459W        W89686  23.126  37.946  13.425
24460W        W89687   5.133  25.421   0.480
24461W        W89688  32.068   6.030  10.188
24462W        W89689  17.291   2.573   2.181
24463W        W89690  27.495  28.338  11.517
24464W        W89691  19.711  39.389  10.912
24465W        W89692  38.654  15.245  11.929
24466W        W89693  10.895  42.285  11.634
24467W        W89694  19.035  10.313   1.009
24468W        W89695  28.172  37.907  12.056
24469W        W89696  17.549  11.728   4.040
24470W        W89697  10.183  13.370  12.137
24471W        W89698  29.126  32.363   1.304
24472W        W89699  35.463   5.647  14.823
24473W        W89700  44.385   5.971   3.469
24474W        W89701  29.708   5.776   2.172
24475W        W89702   0.893  23.125  11.572
24476W        W89703   1.923  38.580   3.005
24477W        W89704  35.156  14.369  14.446
24478W        W89705  23.236  39.439  12.420
24479W        W89706  12.905  30.050  12.790
24480W        W89707  27.924  31.606  13.843
24481W        W89708  14.045  26.154   3.295
24482W        W89709  19.172  40.083   0.688
24483W        W89710  25.995  40.842   1.741
24484W        W89711   8.810   2.902  11.639
24485W        W89712  33.052  32.091  13.243
24486W        W89713  17.733  12.141  12.001
24487W        W89714  31.320   9.793   4.151
24488W        W89715  41.261  41.983   2.761
24489W        W89716  17.793  23.699   1.184
24490W        W89717  26.777  10.216  12.310
24491W        W89718   1.654  41.542   0.782
24492W        W89719  26.013  14.617   5.047
24493W        W89720  14.145  10.672   2.836
24494W        W89721  16.583  11.842  13.186
24495W        W89722  40.810   7.032   0.264
24496W        W89723   0.209  21.152   4.640
24497W        W89724  23.441  41.970   2.976
24498W        W89725  40.306  34.902  11.148
24499W        W89726  34.851  10.642   3.253
24500W        W89727  43.812  37.471  13.460
24501W        W89728  44.977  27.272  12.487
24502W        W89729  19.219  17.214  13.606
24503W        W89730  24.557  26.554   2.966
24504W        W89731  15.111  17.484  13.933
24505W        W89732  29.545  16.835   3.208
24506W        W89733  18.562  42.109   0.262
24507W        W89734  35.721   8.905   3.541
24508W        W89735  16.882  19.967   2.122
24509W        W89736   0.217  34.439  14.931
24510W        W89737  25.160  34.500   4.184
24511W        W89738  32.991  39.681   2.746
24512W        W89739   4.228  17.557  11.751
24513W        W89740  37.539  31.380   0.163
24514W        W89741   3.832  17.408  13.060
24515W        W89742  11.908   8.713   2.090
24516W        W89743   1.824  37.336   0.389
24517W        W89744  35.844  37.526  12.057
24518W        W89745  19.292   8.803   3.826
24519W        W89746  44.705  14.286  11.461
24520W        W89747  25.985  18.720  14.492
24521W        W89748  44.256   0.398  12.524
24522W        W89749  26.516  31.184   1.435
24523W        W89750  14.074  24.765   3.413
24524W        W89751   5.380  22.308   4.638
24525W        W89752  27.930  44.325   3.227
24526W        W89753  40.603  13.675  12.034
24527W        W89754  27.116   9.323   2.893
24528W        W89755  20.337  21.334  12.573
24529W        W89756  16.771  27.043  13.788
24530W        W89757  15.775  20.843   1.386
24531W        W89758  15.691  41.984   3.137
24532W        W89759  43.058   8.146  14.098
24533W        W89760  42.254   4.100   1.266
24534W        W89761  41.454  28.523   2.815
24535W        W89762  11.755  21.256  14.035
24536W        W89763  15.707  32.118   2.718
24537W        W89764   0.844  14.848  14.469
24538W        W89765   2.804  44.183   3.231
24539W        W89766  13.762  39.478  10.813
24540W        W89767  43.267  20.724   3.321
24541W        W89768   8.155  24.167   2.744
24542W        W89769  11.289  21.551  13.931
24543W        W89770   9.172  41.210   2.254
24544W        W89771   3.861  28.443  14.338
24545W        W89772  34.518  25.201   3.986
24546W        W89773   8.005  13.208   5.473
24547W        W89774  14.630  16.685   1.426
24548W        W89775  35.686  32.902   2.517
24549W        W89776  38.130  37.429   5.004
24550W        W89777  43.607   7.207   0.036
24551W        W89778  43.417  14.505   3.907
24552W        W89779  32.893  12.332   3.358
24553W        W89780  40.408  10.085  14.063
24554W        W89781  40.467  39.860  14.722
24555W        W89782  33.902  44.907   1.135
24556W        W89783  23.280   4.967  13.581
24557W        W89784  24.974   3.864   4.124
24558W        W89785  25.111  26.138   0.771
24559W        W89786  34.357  31.639   2.430
24560W        W89787  36.003   2.908   1.928
24561W        W89788   7.498   6.390  12.146
24562W        W89789  19.986  28.258   4.082
24563W        W89790  29.647  37.452  14.066
24564W        W89791  44.933  36.995   4.928
24565W        W89792  19.208  29.515   0.320
24566W        W89793  15.537  23.283  13.020
24567W        W89794  39.389  19.227   3.109
24568W        W89795  33.677  41.991  10.738
24569W        W89796  43.240  19.894   2.799
24570W        W89797  40.278   0.703  12.889
24571W        W89798  33.317   9.483   1.708
24572W        W89799  35.393   8.105   2.887
24573W        W89800   8.674  38.792  12.799
24574W        W89801  23.112   5.996  13.949
24575W        W89802  10.113   3.438  14.212
24576W        W89803  22.636  35.643  12.959
24577W        W89804  42.926   9.432   3.151
24578W        W89805  12.707  34.548  12.323
24579W        W89806  24.073  34.154   4.653
24580W        W89807   2.909  22.563  14.097
24581W        W89808  34.149   0.410   0.831
24582W        W89809  23.155  28.223   2.869
24583W        W89810  34.867  11.239   2.467
24584W        W89811  16.397  41.428   3.335
24585W        W89812   5.733  41.782  11.462
24586W        W89813  12.774  29.324   5.010
24587W        W89814  31.575  28.216   4.913
24588W        W89815   4.985  34.308   3.819
24589W        W89816  24.501   9.210  11.981
24590W        W89817  36.371  41.368  12.162
24591W        W89818  32.571  10.251   3.177
24592W        W89819  37.113  14.620   2.769
24593W        W89820  27.386  32.433   3.308
24594W        W89821  34.113   4.337   4.041
24595W        W89822   3.382  25.857  14.812
24596W        W89823  14.725  11.476   4.073
24597W        W89824  41.158  31.368   1.905
24598W        W89825  40.987  11.654   3.661
24599W        W89826  11.782  19.498  12.660
24600W        W89827  21.216  37.039  14.442
24601W        W89828  44.957  24.556  11.174
24602W        W89829  15.800  31.571   0.822
24603W        W89830  15.570   9.922  14.641
24604W        W89831  28.494   5.690   4.771
24605W        W89832  20.326  27.930   0.353
24606W        W89833  31.145   2.890  13.652
24607W        W89834   0.206  29.425   0.472
24608W        W89835   5.737  10.831  12.694
24609W        W89836  43.291  40.861   4.155
24610W        W89837  28.616  24.724  12.922
24611W        W89838   4.232   4.886  13.836
24612W        W89839  11.030  17.008   3.149
24613W        W89840  43.701  32.415  10.805
24614W        W89841  19.281   1.085   2.258
24615W        W89842   8.629  13.889   4.089
24616W        W89843   4.165  25.570   4.716
24617W        W89844  20.922  29.447  12.198
24618W        W89845  30.193  38.594  10.743
24619W        W89846   3.409   6.945  12.146
24620W        W89847  38.135   4.471   0.875
24621W        W89848   3.531  42.800   3.176
24622W        W89849  19.044   2.176   1.696
24623W        W89850   2.365  34.895  11.660
24624W        W89851  17.796  44.670   0.586
24625W        W89852   1.497  26.831  10.840
24626W        W89853  44.507  36.082  11.921
24627W        W89854   5.815  19.396   0.387
24628W        W89855  33.512   7.293   0.989
24629W        W89856  13.381  33.568  10.283
24630W        W89857  38.771  17.563  14.054
24631W        W89858   2.326  37.328   0.485
24632W        W89859  18.507  44.473   2.720
24633W        W89860  30.728  23.560  12.935
24634W        W89861  42.077  11.672  12.891
24635W        W89862  14.478   3.699   3.213
24636W        W89863  37.596  27.122   2.612
24637W        W89864  30.546  26.639  11.656
24638W        W89865  26.033  22.344   1.465
24639W        W89866  41.769  38.486  14.569
24640W        W89867  15.553  26.628  11.128
24641W        W89868   2.620   6.572  12.672
24642W        W89869  24.202   5.926  12.605
24643W        W89870  43.838  19.574  12.972
24644W        W89871   2.921  24.286   3.197
24645W        W89872  33.915  42.408   1.814
24646W        W89873  32.603   2.495   0.520
24647W        W89874  26.856  12.171   3.648
24648W        W89875  35.951  34.154   3.305
24649W        W89876  31.221  28.032   4.552
24650W        W89877  32.535  24.334   2.367
24651W        W89878  32.518  39.259   4.462
24652W        W89879   5.874  12.799  12.583
24653W        W89880  43.499  42.568   0.975
24654W        W89881  26.606  14.456  13.970
24655W        W89882   1.864  34.048  12.425
24656W        W89883   5.379  36.643   1.468
24657W        W89884  10.983   4.363   0.778
24658W        W89885  28.546   1.365  12.328
24659W        W89886  31.896  11.222   4.509
24660W        W89887  35.985  17.574   1.251
24661W        W89888   5.311  28.983  11.153
24662W        W89889   5.807  22.292  13.523
24663W        W89890  27.419   4.165  11.573
24664W        W89891   6.698  29.849   1.164
24665W        W89892  15.108   8.995   1.267
24666W        W89893  37.786  27.606  12.508
24667W        W89894  27.806   8.891   1.801
24668W        W89895  30.201   5.665   2.304
24669W        W89896  27.413  42.520   3.225
24670W        W89897   7.437  33.273  12.074
24671W        W89898  25.538  37.326   4.285
24672W        W89899   6.403   1.989  11.529
24673W        W89900  29.388  12.193   3.126
24674W        W89901  38.372   2.590  12.075
24675W        W89902   9.657  12.160   2.338
24676W        W89903   7.324  16.160   2.456
24677W        W89904  38.917   0.662   1.571
24678W        W89905   5.960   8.430  11.423
24679W        W89906   8.211  40.340  11.179
24680W        W89907  42.841  37.897  10.301
24681W        W89908   3.346  31.083   1.745
24682W        W89909  22.209  42.252  12.784
24683W        W89910  40.311  25.960  13.000
24684W        W89911  38.277  44.399   2.415
24685W        W89912  22.988  35.984  12.763
24686W        W89913  30.007  26.131   0.001
24687W        W89914  32.392  38.801  13.487
24688W        W89915  12.776  29.421   0.745
24689W        W89916  17.149  18.275   0.627
24690W        W89917  33.808  36.400   0.859
24691W        W89918  27.981   6.315   0.895
24692W        W89919  39.562  31.095   1.715
24693W        W89920  11.740   8.876   5.079
24694W        W89921  44.196  27.775  14.356
24695W        W89922  12.697  39.395  11.076
24696W        W89923  39.477  21.333   0.023
24697W        W89924  27.051  30.599  11.103
24698W        W89925  25.441  14.416   1.351
24699W        W89926  11.326  16.010  10.476
24700W        W89927  38.582   8.633  11.690
24701W        W89928  12.001  44.084  11.930
24702W        W89929   4.454  13.638   2.178
24703W        W89930   0.485  34.141   2.406
24704W        W89931  13.094  23.569   3.261
24705W        W89932  19.451  35.116   4.827
24706W        W89933  44.726   1.760   4.325
24707W        W89934  10.861   0.992  12.112
24708W        W89935  41.716  13.603   1.843
24709W        W89936   4.244  42.742  11.524
24710W        W89937  31.009   9.894  14.456
24711W        W89938  40.349  24.926   4.002
24712W        W89939  24.073  42.732  14.625
24713W        W89940  31.321  40.339   0.167
24714W        W89941  35.861   7.054  11.600
24715W        W89942  39.199  38.511   1.562
24716W        W89943  33.302   8.696   1.345
24717W        W89944  30.496  14.088  13.872
24718W        W89945  44.364  23.251   2.687
24719W        W89946  29.268  22.449  12.900
24720W        W89947  29.542   6.253   3.364
24721W        W89948  43.017  23.862   1.757
24722W        W89949   1.291  21.476  13.892
24723W        W89950  23.637  37.455  14.712
24724W        W89951   1.047  14.843   0.213
24725W        W89952  14.117  23.464  14.873
24726W        W89953  21.075  20.770   0.269
24727W        W89954  41.055   3.401  13.371
24728W        W89955   4.606  30.448  11.170
24729W        W89956   3.300  33.965  12.527
24730W        W89957  10.657  25.760  12.427
24731W        W89958  11.184  28.714  11.448
24732W        W89959  14.701  27.069  11.690
24733W        W89960  30.440  27.116  13.431
24734W        W89961   0.863  22.966   3.321
24735W        W89962  29.254  24.124  14.913
24736W        W89963   8.625   8.401  13.556
24737W        W89964   7.813   8.881   0.141
24738W        W89965  25.636  30.010   4.847
24739W        W89966   6.940  10.198  12.450
24740W        W89967   6.618  13.290  11.291
24741W        W89968  38.584  13.041   1.493
24742W        W89969   8.364   7.393  14.250
24743W        W89970  33.727  29.143   0.780
24744W        W89971  24.006   9.646  13.468
24745W        W89972  24.306  24.147   3.683
24746W        W89973  27.701  37.566   0.523
24747W        W89974  31.407  43.753  12.527
24748W        W89975  39.552  26.157   3.340
24749W        W89976  23.534  10.263  13.717
24750W        W89977  25.405  17.321  12.030
24751W        W89978  30.411   9.792  14.496
24752W        W89979  19.747  12.742   2.424
24753W        W89980  28.248  19.196   4.549
24754W        W89981  29.513  15.562   1.877
24755W        W89982  11.584  41.728   0.347
24756W        W89983  23.084  26.819   4.762
24757W        W89984  34.199   6.085   0.509
24758W        W89985  14.051  21.134  10.962
24759W        W89986   7.332  34.961  10.718
24760W        W89987  13.730  12.778   0.030
24761W        W89988  33.562   4.898   0.550
24762W        W89989  40.334  18.867  12.543
24763W        W89990  34.756  28.648   1.643
24764W        W89991  21.593  36.133   3.193
24765W        W89992  20.921  16.139  11.826
24766W        W89993   2.415  39.281   1.967
24767W        W89994  32.822  21.283   0.259
24768W        W89995  31.986  35.471   3.752
24769W        W89996  12.783  20.664   2.345
24770W        W89997  41.050  21.748  10.810
24771W        W89998  39.435  34.120   3.676
24772W        W89999   2.025   4.767  11.570
24773W        W90000  21.512  44.356  12.856
24774W        W90001  21.489  20.194  11.085
24775W        W90002  44.376  36.766   4.189
24776W        W90003   0.913  30.352   4.610
24777W        W90004  12.974  36.956  13.906
24778W        W90005  41.279  37.758   4.202
24779W        W90006  36.108  18.150  14.406
24780W        W90007  36.313   1.042   3.640
24781W        W90008   7.827  10.891   1.425
24782W        W90009  25.526  20.951   0.387
24783W        W90010   0.446  10.619   3.102
24784W        W90011  36.017  18.494  10.624
24785W        W90012  18.548  16.026   2.924
24786W        W90013   8.246  14.472  11.975
24787W        W90014  42.216  14.783  10.457
24788W        W90015  32.315  14.777  13.546
24789W        W90016   9.287   3.221   3.224
24790W        W90017  11.626  32.059   3.625
24791W        W90018  34.257  35.056   0.908
24792W        W90019  29.673  32.741  14.807
24793W        W90020   4.591  42.442   0.277
24794W        W90021  19.660  24.565  10.726
24795W        W90022  28.021   4.844  11.832
24796W        W90023  22.335  40.292   1.747
24797W        W90024  40.027  24.016   2.362
24798W        W90025   6.602  19.256  13.833
24799W        W90026  33.368   9.451  14.980
24800W        W90027   2.370   0.390   3.575
24801W        W90028  29.191   9.595   4.140
24802W        W90029  34.867  35.320   1.965
24803W        W90030  35.007   5.369  12.503
24804W        W90031  16.075  42.299   3.245
24805W        W90032  28.556  40.776  12.878
24806W        W90033  10.693  11.949  11.556
24807W        W90034  40.579  40.867   3.266
24808W        W90035   1.328  43.884  14.802
24809W        W90036  32.006  18.281  12.057
24810W        W90037  24.690   7.819  13.796
24811W        W90038  27.114  30.563  13.132
24812W        W90039  41.343   8.932  12.546
24813W        W90040  43.540  17.749  13.895
24814W        W90041  19.200  22.602   1.557
24815W        W90042  32.910   6.181  13.904
24816W        W90043   0.588  14.333   1.832
24817W        W90044  22.640  23.972   1.936
24818W        W90045  11.262   7.606   4.896
24819W        W90046   7.808   3.671   1.683
24820W        W90047  44.566   4.841   4.467
24821W        W90048  24.654  23.441   0.894
24822W        W90049   6.231  18.536  13.847
24823W        W90050   0.997  34.017  13.859
24824W        W90051  34.782   4.406   0.194
24825W        W90052   8.591  36.557  10.695
24826W        W90053  28.089   2.012  11.420
24827W        W90054   8.909  16.302  11.634
24828W        W90055  20.292   0.455  14.934
24829W        W90056  39.336   4.311   4.528
24830W        W90057  32.412  15.232   4.500
24831W        W90058  32.387  40.846   0.464
24832W        W90059  39.871  43.940  13.588
24833W        W90060  26.195  36.980   3.589
24834W        W90061   3.792  36.246  14.781
24835W        W90062  32.380  39.407  14.715
24836W        W90063   7.915  35.508  11.079
24837W        W90064  10.747  22.044   1.421
24838W        W90065  25.257   5.745  11.420
24839W        W90066  11.621  24.080   2.232
24840W        W90067   5.173  19.223  13.960
24841W        W90068  37.282   9.693  11.090
24842W        W90069   6.919  21.790  11.366
24843W        W90070  43.175   7.009  13.875
24844W        W90071  27.202   1.432  10.442
24845W        W90072  15.629   3.879  14.498
24846W        W90073   3.347  17.834  11.506
24847W        W90074   3.911  23.273  13.584
24848W        W90075  13.861   1.778  12.211
24849W        W90076  41.507  14.540  14.405
24850W        W90077  34.884  40.367  10.890
24851W        W90078   5.476  14.700  14.876
24852W        W90079   9.856  31.827   1.796
24853W        W90080  44.527  43.124   1.352
24854W        W90081   5.491  26.085   5.514
24855W        W90082  26.262  23.056   2.523
24856W        W90083  19.518  28.678  11.888
24857W        W90084   4.633  42.826  13.511
24858W        W90085  34.644   9.618  14.392
24859W        W90086   3.331   1.214  14.922
24860W        W90087   8.784  22.877   2.764
24861W        W90088  10.779  28.370  14.529
24862W        W90089   1.543  36.361   3.717
24863W        W90090   4.473  16.607   2.264
24864W        W90091  12.879   1.149   2.774
24865W        W90092   7.755  23.243  11.993
24866W        W90093  19.170   8.771   4.877
24867W        W90094  35.773  42.947   0.938
24868W        W90095  23.428  14.897  10.504
24869W        W90096   2.487  20.492  13.870
24870W        W90097  11.335  31.016   9.854
24871W        W90098  15.136   9.676  14.890
24872W        W90099  29.494   2.693   4.587
24873W        W90100  23.461  43.884  12.495
24874W        W90101   8.954   6.098   3.764
24875W        W90102  11.155  11.261   2.038
24876W        W90103   8.679   9.170  13.175
24877W        W90104  38.821  11.445   2.331
24878W        W90105   7.002  30.666   0.926
24879W        W90106  35.451  40.578  12.023
24880W        W90107   6.237  32.136   3.541
24881W        W90108   9.322  33.314  11.956
24882W        W90109   1.229  13.639  10.735
24883W        W90110  13.800  19.078   4.081
24884W        W90111   0.382   8.330   3.393
24885W        W90112   5.853  18.711  14.633
24886W        W90113  27.533  29.854   1.910
24887W        W90114  26.198  12.849   0.749
24888W        W90115  23.946  28.961   3.942
24889W        W90116   3.733   4.846  13.737
24890W        W90117   5.690  34.909   4.833
24891W        W90118  37.397  19.160   4.905
24892W        W90119   4.394   2.900   1.925
24893W        W90120  26.920   7.651  13.575
24894W        W90121   0.777   9.219  12.121
24895W        W90122  13.735  21.699   1.028
24896W        W90123  31.475   0.285   4.427
24897W        W90124  33.157  12.994  12.005
24898W        W90125   8.440  17.339   0.784
24899W        W90126  35.869   9.831  13.062
24900W        W90127   2.955  18.019  11.215
24901W        W90128  20.800   1.914  11.476
24902W        W90129  30.991  18.396  12.030
24903W        W90130  12.738  34.716  14.056
24904W        W90131   2.213   1.667  11.161
24905W        W90132  27.557  10.824   3.255
24906W        W90133  29.597  29.700   2.950
24907W        W90134  31.460  15.781   0.860
24908W        W90135   0.362  38.430   0.524
24909W        W90136   8.276  14.203   9.854
24910W        W90137  34.395   0.472   4.682
24911W        W90138  32.558  21.469   4.680
24912W        W90139  29.769  13.638  13.200
24913W        W90140   3.267   0.741   1.122
24914W        W90141  18.806  43.585   1.435
24915W        W90142  16.563  32.147  10.726
24916W        W90143  15.951  30.877  12.489
24917W        W90144  38.399  18.708  14.023
24918W        W90145  12.407  32.962  11.996
24919W        W90146  27.653  40.745   3.897
24920W        W90147  25.848  25.563   0.798
24921W        W90148  35.815   0.010  13.863
24922W        W90149  41.081  19.230  12.004
24923W        W90150  41.267  33.593   1.718
24924W        W90151  44.813  19.450  14.266
24925W        W90152  32.882  28.433  12.040
24926W        W90153  36.572  36.041  13.200
24927W        W90154  22.749  28.442   3.126
24928W        W90155  24.546  29.976   2.272
24929W        W90156   8.683  43.351   2.792
24930W        W90157  19.976  37.529  14.563
24931W        W90158  11.888  12.586  12.422
24932W        W90159  44.493  19.111   0.970
24933W        W90160  33.311   3.880   4.055
24934W        W90161  31.060   3.160   4.953
24935W        W90162  30.823  42.736   2.838
24936W        W90163  32.447  17.014  11.936
24937W        W90164   3.442   8.007  14.319
24938W        W90165  27.508   8.814  14.869
24939W        W90166  22.178  21.459  11.479
24940W        W90167  10.048  44.568   3.605
24941W        W90168  33.472  16.812  10.712
24942W        W90169   0.801  31.235   1.777
24943W        W90170  28.320  14.106  13.530
24944W        W90171  11.251  39.543   2.268
24945W        W90172  20.309   9.717   1.832
24946W        W90173  25.111  16.090  10.645
24947W        W90174  14.206  41.493  14.582
24948W        W90175  13.303   9.050  14.836
24949W        W90176  32.897  25.222  14.330
24950W        W90177  37.665  25.975   4.175
24951W        W90178   5.863  30.390   3.864
24952W        W90179  31.529  26.597  13.038
24953W        W90180   5.237  25.881  10.152
24954W        W90181   7.632  13.813  14.820
24955W        W90182  44.231  43.017  12.689
24956W        W90183   9.586   2.583  10.738
24957W        W90184  30.670  11.552   0.784
24958W        W90185  15.855  31.223   4.134
24959W        W90186  27.625  26.983  12.835
24960W        W90187  19.804  39.343  10.389
24961W        W90188  22.792  31.230   1.144
24962W        W90189  18.980   9.749  14.347
24963W        W90190  10.733  29.908   3.804
24964W        W90191  28.141  12.663   2.375
24965W        W90192  33.641   0.867   0.221
24966W        W90193  35.790  36.006   3.552
24967W        W90194  25.151  15.806   3.631
24968W        W90195  14.464  41.076  11.107
24969W        W90196  42.477  10.766   3.618
24970W        W90197  12.422  11.733  13.869
24971W        W90198   3.456  44.937   1.411
24972W        W90199  21.557   4.744   2.885
24973W        W90200   4.780  16.142   3.905
24974W        W90201   7.608  31.450  13.349
24975W        W90202  41.479   2.365   2.955
24976W        W90203  24.283  21.074  10.208
24977W        W90204  17.563  38.797   3.271
24978W        W90205   8.255   7.227  11.604
24979W        W90206   8.910  41.555   4.842
24980W        W90207  25.990  13.645  14.388
24981W        W90208   2.756  38.793   2.769
24982W        W90209  11.823   6.494  11.023
24983W        W90210  34.825  28.959   2.787
24984W        W90211   1.899  20.136   4.931
24985W        W90212  20.767   6.665   1.299
24986W        W90213  37.445  37.584  13.961
24987W        W90214  17.691  39.391  11.596
24988W        W90215  22.567  14.868  10.426
24989W        W90216   1.489  33.549   1.432
24990W        W90217  16.580   0.887   1.179
24991W        W90218  22.020  33.864  13.799
24992W        W90219  15.911  25.583   0.751
24993W        W90220  28.999  37.272   4.316
24994W        W90221   3.694   2.221   3.643
24995W        W90222  37.769  15.578  14.505
24996W        W90223  10.923   3.882  11.572
24997W        W90224   0.194   0.404   3.291
24998W        W90225   4.894  10.356   0.493
24999W        W90226  26.716  35.990   3.712
25000W        W90227  21.248  34.618  13.367
25001W        W90228  44.127   5.463   1.240
25002W        W90229   1.375  28.054   3.592
25003W        W90230  30.972  21.147  12.685
25004W        W90231  22.693   2.994  11.155
25005W        W90232   9.727   8.105   1.890
25006W        W90233  27.720  41.846  14.978
25007W        W90234  30.059  15.905  11.461
25008W        W90235  19.875  44.017  10.681
25009W        W90236   1.929   5.004  13.813
25010W        W90237  23.637  38.420  14.270
25011W        W90238  34.382   6.581   0.393
25012W        W90239   2.803  16.767  14.018
25013W        W90240  28.599  40.180  14.946
25014W        W90241   3.961  12.278   0.410
25015W        W90242  34.844  41.459   1.766
25016W        W90243  43.038  32.248  12.388
25017W        W90244  44.385  40.766   4.610
25018W        W90245   4.046   1.457  12.086
25019W        W90246   6.819   2.478   4.116
25020W        W90247   0.668  10.980  12.530
25021W        W90248  31.113  34.608   5.159
25022W        W90249  41.973  41.499  10.803
25023W        W90250  30.370  32.945   0.263
25024W        W90251  33.498  31.195   1.673
25025W        W90252  14.577  13.801  11.158
25026W        W90253  30.152  30.200   1.400
25027W        W90254   2.511   6.270   4.662
25028W        W90255  31.972   8.852   0.517
25029W        W90256  10.775   5.539   4.097
25030W        W90257  38.297  12.287  12.932
25031W        W90258  24.767  19.166  14.025
25032W        W90259  34.426  24.915   1.021
25033W        W90260  30.394  25.924   1.911
25034W        W90261  22.200  42.823   1.792
25035W        W90262  43.644   6.941   1.811
25036W        W90263  11.740  28.946   1.839
25037W        W90264   8.152  40.020   2.852
25038W        W90265  41.805   0.976   0.426
25039W        W90266   0.276  23.823  10.179
25040W        W90267   8.602  22.699   1.298
25041W        W90268  28.835  43.263  14.361
25042W        W90269  29.167  17.120  13.364
25043W        W90270  29.182  37.880  11.183
25044W        W90271   3.660  13.795  11.118
25045W        W90272  20.436  41.904  12.736
25046W        W90273   6.222  10.307   5.080
25047W        W90274   9.323  19.731   1.773
25048W        W90275   1.767  10.833  12.294
25049W        W90276  32.979  15.289   1.677
25050W        W90277  22.765  43.518   0.226
25051W        W90278   4.014  27.555   0.366
25052W        W90279  19.525  18.595   1.931
25053W        W90280  33.147  12.172   4.617
25054W        W90281  44.902  44.928  11.246
25055W        W90282  42.344  15.549  13.930
25056W        W90283  23.177   8.193  13.389
25057W        W90284  14.507   6.380   0.869
25058W        W90285   5.653  37.973  12.802
25059W        W90286   7.968  40.407  12.478
25060W        W90287  44.399  28.241  11.178
25061W        W90288  12.696  27.971  13.443
25062W        W90289   5.094  21.617  13.533
25063W        W90290   9.851   7.216   1.259
25064W        W90291  32.666   1.748  14.937
25065W        W90292  27.550   2.201  14.340
25066W        W90293  27.106  10.945  12.935
25067W        W90294  13.211  19.312  12.445
25068W        W90295  44.499  42.246  14.060
25069W        W90296  44.935   4.259   1.674
25070W        W90297  36.306   4.991   4.216
25071W        W90298  44.383  39.378  12.428
25072W        W90299   8.115  37.510  13.327
25073W        W90300  25.692   8.721  14.094
25074W        W90301  36.478  10.819   4.103
25075W        W90302  25.268  39.317   0.320
25076W        W90303  18.514   7.433   1.466
25077W        W90304  39.213   9.724  11.258
25078W        W90305  34.491   2.885   0.471
25079W        W90306   4.360  32.363  13.957
25080W        W90307  12.059  42.409  11.249
25081W        W90308  37.502  41.479  13.189
25082W        W90309  38.805  14.270   3.267
25083W        W90310   6.511  36.579  11.649
25084W        W90311  20.223   8.508   4.379
25085W        W90312  38.547  14.033   2.368
25086W        W90313  13.080  23.725   2.774
25087W        W90314  16.708   7.932   4.992
25088W        W90315  23.137  17.143   3.679
25089W        W90316  10.139   5.620  10.412
25090W        W90317  40.984  41.997  12.840
25091W        W90318   6.060  19.576  10.776
25092W        W90319   1.931   2.241   3.680
25093W        W90320  12.722  24.346   0.083
25094W        W90321  32.817  35.240   3.527
25095W        W90322  16.215   4.658  14.182
25096W        W90323   7.833  25.066  10.765
25097W        W90324  27.726  33.015   1.367
25098W        W90325  20.667  23.788   0.788
25099W        W90326   6.881   6.715  10.720
25100W        W90327   0.423   2.234  12.638
25101W        W90328  19.670  16.747   2.280
25102W        W90329  22.485  27.142  14.098
25103W        W90330   8.354  21.049   3.839
25104W        W90331  25.085  23.772  13.440
25105W        W90332  22.151  23.735  13.622
25106W        W90333  36.340  37.439  12.020
25107W        W90334  44.297  26.813  14.351
25108W        W90335   9.514  21.039   1.535
25109W        W90336  17.413  24.198  11.603
25110W        W90337  43.695  40.353   4.963
25111W        W90338   1.525  41.381  11.289
25112W        W90339  27.554  20.246   1.301
25113W        W90340   5.377  20.249  11.116
25114W        W90341  11.155  14.678   4.557
25115W        W90342  28.682  16.989   2.325
25116W        W90343  14.366   6.490   2.782
25117W        W90344   5.476  41.811  12.412
25118W        W90345  25.754   7.490   2.715
25119W        W90346  41.272  15.206   3.837
25120W        W90347  44.510  31.223   4.347
25121W        W90348   3.544  28.174   4.565
25122W        W90349  43.640  41.348  12.545
25123W        W90350  23.553  20.111   2.398
25124W        W90351   4.983  16.960  11.498
25125W        W90352  10.953  13.278  13.472
25126W        W90353  14.669  16.294  12.001
25127W        W90354   4.761  32.420   2.321
25128W        W90355  43.999  24.335   4.252
25129W        W90356  10.232  20.399  12.679
25130W        W90357  24.157   5.309   0.821
25131W        W90358   4.947  21.151  13.412
25132W        W90359  42.551  23.526  10.619
25133W        W90360  28.167  11.464   1.240
25134W        W90361   9.024  41.402  14.085
25135W        W90362  10.194  24.080   4.540
25136W        W90363  36.088  33.691   3.564
25137W        W90364   5.800  28.627  14.048
25138W        W90365  16.220  26.297  14.718
25139W        W90366   1.856  29.399   1.958
25140W        W90367  37.985  42.667  11.571
25141W        W90368   7.787  35.049   5.296
25142W        W90369  20.472  37.141  13.050
25143W        W90370  25.314  19.663   0.125
25144W        W90371  14.197  35.110   3.672
25145W        W90372  41.255   8.074  12.920
25146W        W90373  17.258  31.866  14.138
25147W        W90374  14.398  15.562   5.018
25148W        W90375  40.394  39.944   0.461
25149W        W90376  44.190   5.811  14.597
25150W        W90377  36.125  34.129   1.927
25151W        W90378  25.447   3.046  13.883
25152W        W90379  44.343  36.441   0.675
25153W        W90380  13.307  15.694  11.999
25154W        W90381  36.720  26.084   4.015
25155W        W90382  43.517  41.592  14.451
25156W        W90383  13.536   2.077   1.400
25157W        W90384  31.126  34.859  12.965
25158W        W90385   5.421  37.531   3.216
25159W        W90386  10.887  39.275   4.486
25160W        W90387   0.776  33.644  12.933
25161W        W90388  41.611  24.592  11.975
25162W        W90389  35.965   1.048   4.040
25163W        W90390   6.427  10.769   3.801
25164W        W90391   0.058  16.927   1.191
25165W        W90392  36.669   0.481  14.596
25166W        W90393  31.866  10.319  12.568
25167W        W90394  34.680   9.083  14.389
25168W        W90395  40.406  16.937   4.657
25169W        W90396  32.162  27.081   2.155
25170W        W90397  34.634   4.460  12.336
25171W        W90398   0.339  32.914   3.435
25172W        W90399  18.823  25.024   3.785
25173W        W90400  27.177  15.187   0.878
25174W        W90401   5.249   8.153   2.758
25175W        W90402   4.352  15.540  12.615
25176W        W90403   8.589  23.226  11.398
25177W        W90404  40.539  30.026  14.625
25178W        W90405  36.058  40.423  13.387
25179W        W90406  32.868   1.308   3.061
25180W        W90407  36.297   0.274   3.103
25181W        W90408  26.058  32.654   3.612
25182W        W90409  31.070   4.841   2.935
25183W        W90410   3.554  38.679   2.860
25184W        W90411  44.943  11.758   1.669
25185W        W90412  26.905  26.027   2.285
25186W        W90413  38.927  14.756   0.870
25187W        W90414  44.363  16.695   4.988
25188W        W90415  25.760  44.539  14.959
25189W        W90416  17.934   2.274  12.453
25190W        W90417  39.019  35.205   5.264
25191W        W90418  38.825  15.005  10.892
25192W        W90419  42.506   1.216  13.042
25193W        W90420   5.670  39.422   3.534
25194W        W90421   8.326  28.553  13.431
25195W        W90422  34.976  20.502  11.554
25196W        W90423  41.910  26.747   0.006
25197W        W90424  37.019  42.808   0.228
25198W        W90425  24.453  27.175  13.342
25199W        W90426  43.368  28.293   3.925
25200W        W90427  21.971  25.152  14.988
25201W        W90428  26.405  11.296   4.979
25202W        W90429  32.652   6.938  12.998
25203W        W90430   5.552  25.602   2.363
25204W        W90431   5.816   4.749  11.930
25205W        W90432  34.619   4.242  13.480
25206W        W90433  32.501  22.162   3.321
25207W        W90434  39.767  30.950   0.768
25208W        W90435   3.629   9.436   1.016
25209W        W90436  12.737   8.638   2.229
25210W        W90437  11.550  11.351   3.272
25211W        W90438   5.740  44.221   3.496
25212W        W90439  24.656  28.456   3.758
25213W        W90440  29.578  42.261  11.180
25214W        W90441  33.134  26.704   1.770
25215W        W90442  26.020   4.291   1.440
25216W        W90443   7.685   3.378   3.634
25217W        W90444  21.292   1.910  13.799
25218W        W90445  43.423  27.358  13.754
25219W        W90446  27.001  12.660   1.002
25220W        W90447  20.692   9.165   2.918
25221W        W90448  12.482  35.009   4.529
25222W        W90449  27.658   0.630   3.056
25223W        W90450  14.202   7.468  13.800
25224W        W90451   5.775  18.479   4.577
25225W        W90452  22.959   8.795   2.591
25226W        W90453  28.338  35.594   0.749
25227W        W90454  23.254  32.892  13.135
25228W        W90455  12.788  16.726   2.909
25229W        W90456  21.764  16.846  13.473
25230W        W90457  27.631   1.730   1.365
25231W        W90458  29.924  35.896  11.472
25232W        W90459  44.390   9.399   5.053
25233W        W90460   6.277  17.424   0.277
25234W        W90461  17.803  41.960   2.763
25235W        W90462  10.238  24.587   4.635
25236W        W90463   7.790  37.869   3.721
25237W        W90464  25.438  34.936  12.286
25238W        W90465  41.076   2.435   3.277
25239W        W90466  20.662  30.873  10.681
25240W        W90467   5.644   3.281  13.496
25241W        W90468  41.410   2.373   1.260
25242W        W90469  21.303  26.559   3.617
25243W        W90470  42.929  31.330   4.602
25244W        W90471  18.868  20.978   2.621
25245W        W90472  24.105   5.037   0.377
25246W        W90473   8.709   2.199   3.869
25247W        W90474  12.660  24.607  14.000
25248W        W90475  14.645  19.876  13.931
25249W        W90476  14.331   1.863  13.114
25250W        W90477   1.305  36.038   0.628
25251W        W90478  43.417  13.700   4.917
25252W        W90479  12.814   3.437   2.518
25253W        W90480  38.947  42.956   4.318
25254W        W90481  33.813  42.441   3.344
25255W        W90482  18.249   4.254   4.530
25256W        W90483  19.795  17.665  10.611
25257W        W90484  40.249  40.995  13.334
25258W        W90485   2.490  14.717  14.956
25259W        W90486  10.212   4.706  11.022
25260W        W90487  20.015   0.702   0.286
25261W        W90488   6.885  37.966  11.763
25262W        W90489  14.841  24.520   4.827
25263W        W90490   4.982  43.212  13.410
25264W        W90491   3.057  34.349  14.529
25265W        W90492  15.856   8.753   2.886
25266W        W90493  10.830  30.716   0.878
25267W        W90494  12.252   7.478  12.415
25268W        W90495  35.829  22.742   1.962
25269W        W90496  38.539  12.215   1.133
25270W        W90497   7.759  21.957  12.144
25271W        W90498  23.462   6.457   0.761
25272W        W90499  19.123  31.941  11.203
25273W        W90500  34.891   5.828  10.616
25274W        W90501  36.364  33.684  10.265
25275W        W90502   8.689  39.240  13.616
25276W        W90503  31.963   0.224  14.536
25277W        W90504  22.565  43.486   3.645
25278W        W90505  11.923  30.488   2.241
25279W        W90506  33.913   2.260  12.008
25280W        W90507  12.671   5.609   1.324
25281W        W90508  20.589  42.415  11.939
25282W        W90509   7.895   7.147  13.305
25283W        W90510  17.808  10.274  11.995
25284W        W90511  41.440  12.594   2.808
25285W        W90512   4.912  19.720  12.327
25286W        W90513  41.180   5.455  10.279
25287W        W90514  26.036  14.206   4.682
25288W        W90515  15.809  18.190  11.053
25289W        W90516   7.015   6.318   0.248
25290W        W90517  36.076   0.770   0.852
25291W        W90518   3.110  24.278   4.954
25292W        W90519  18.822  33.984  13.356
25293W        W90520  22.017   4.868  10.879
25294W        W90521   0.382  38.984   3.863
25295W        W90522  12.807   9.802   0.792
25296W        W90523  30.092   1.940   3.210
25297W        W90524  39.053  29.443   2.848
25298W        W90525  40.877   0.303   3.049
25299W        W90526  26.878  10.690  13.365
25300W        W90527  11.046  24.292   0.198
25301W        W90528  25.505  23.599  10.438
25302W        W90529  40.566   9.498   2.148
25303W        W90530  27.190  40.562  14.777
25304W        W90531  33.278  43.418   1.303
25305W        W90532  21.577  31.186  12.640
25306W        W90533  10.683  40.958  11.393
25307W        W90534   4.661  13.754  10.937
25308W        W90535  15.320  43.119   2.325
25309W        W90536  12.451  43.830  14.877
25310W        W90537  28.522   3.468   2.834
25311W        W90538  38.895  10.773  14.395
25312W        W90539   1.384  31.018   3.860
25313W        W90540  41.406  38.410  13.339
25314W        W90541  17.355  18.536   2.101
25315W        W90542  28.253  25.472  13.195
25316W        W90543  18.208  13.735  14.002
25317W        W90544  34.484  28.376  12.522
25318W        W90545  24.762  27.623  13.956
25319W        W90546  17.465  44.283   3.765
25320W        W90547  35.508  13.214  13.911
25321W        W90548   4.275  27.133  14.333
25322W        W90549  28.948  31.428   3.813
25323W        W90550  17.171  13.875   2.632
25324W        W90551  35.914   0.051  12.024
25325W        W90552  18.827  19.835   4.478
25326W        W90553   2.327  42.729  14.553
25327W        W90554  33.507  16.910  14.333
25328W        W90555  30.516  39.548  12.430
25329W        W90556  34.930   7.139  14.361
25330W        W90557  22.188  30.722   2.635
25331W        W90558  42.985  14.770   4.051
25332W        W90559  36.703   7.108   0.946
25333W        W90560  24.017  40.433  14.384
25334W        W90561  33.719  17.932  14.611
25335W        W90562  25.918  42.873  11.664
25336W        W90563   5.149  43.071   2.254
25337W        W90564  19.533  19.641  12.555
25338W        W90565  14.475  17.781   3.408
25339W        W90566  39.537   2.384  14.499
25340W        W90567  10.490   9.461  12.328
25341W        W90568  43.239   5.912  14.360
25342W        W90569  43.988   9.806   1.125
25343W        W90570  12.151  33.385  14.121
25344W        W90571  18.593   3.813  14.512
25345W        W90572  42.568  19.950  14.492
25346W        W90573  14.343  17.275  10.769
25347W        W90574   6.672  18.606  12.442
25348W        W90575  43.537  26.813   0.363
25349W        W90576  18.969  25.437   1.604
25350W        W90577  42.950  24.952  14.814
25351W        W90578  39.590  38.602   1.261
25352W        W90579  24.730  13.261  13.937
25353W        W90580  31.102  11.207   1.469
25354W        W90581  24.235  21.347   4.051
25355W        W90582  31.804  23.258  11.095
25356W        W90583  11.301  41.983   0.826
25357W        W90584  33.041  27.810  14.144
25358W        W90585  19.279  10.140  11.848
25359W        W90586  38.151  29.068  11.960
25360W        W90587  13.805  30.998  12.428
25361W        W90588  34.682  13.670   0.096
25362W        W90589   0.749   6.169  13.436
25363W        W90590  27.226  20.616  13.397
25364W        W90591   3.243  42.472  14.723
25365W        W90592  10.706  11.853  13.674
25366W        W90593  15.236  11.022   4.557
25367W        W90594  27.806  10.741  11.224
25368W        W90595  36.207  39.582   3.465
25369W        W90596  22.638  14.280  14.266
25370W        W90597  11.211  20.246   0.210
25371W        W90598  42.790   8.794   2.239
25372W        W90599  12.206  27.051  10.948
25373W        W90600  19.052  21.789  13.438
25374W        W90601   9.878  32.325  10.333
25375W        W90602  36.381  24.076   4.615
25376W        W90603  11.259  30.741  14.923
25377W        W90604  15.533  39.749   1.259
25378W        W90605  35.828  42.933  10.702
25379W        W90606  33.106  22.172  11.099
25380W        W90607  15.714  31.836   1.706
25381W        W90608   1.429  20.491   3.589
25382W        W90609  27.060  17.725   2.746
25383W        W90610  19.900   9.426   1.874
25384W        W90611  24.020  17.165   3.170
25385W        W90612  28.614  18.720   2.907
25386W        W90613  33.740  27.919  14.462
25387W        W90614  13.348  14.403  14.290
25388W        W90615  10.306  28.867   4.242
25389W        W90616  12.779  43.105   1.790
25390W        W90617  12.173  16.323  13.551
25391W        W90618  41.582  25.720   3.287
25392W        W90619   0.982  20.218   3.572
25393W        W90620  29.147  16.678  11.090
25394W        W90621  14.175   5.929  13.013
25395W        W90622  15.941  23.538   3.602
25396W        W90623  20.421  14.734  14.561
25397W        W90624  23.895  32.015   4.531
25398W        W90625  39.908   2.058  10.902
25399W        W90626  36.776  36.392  14.791
25400W        W90627  28.690  15.595   3.181
25401W        W90628  28.584  38.340  13.405
25402W        W90629   9.009  44.114   2.422
25403W        W90630  25.472  36.666   3.682
25404W        W90631   4.765  36.050   2.235
25405W        W90632   9.861   5.965   0.318
25406W        W90633  16.694   4.985  11.667
25407W        W90634   9.761   4.524   0.314
25408W        W90635  37.308  18.200   3.400
25409W        W90636  29.858  31.566   5.057
25410W        W90637  26.228  29.216   2.739
25411W        W90638  25.539  11.665  12.925
25412W        W90639  15.120  44.776  14.951
25413W        W90640  17.517  15.331  12.226
25414W        W90641  11.765  19.327  10.264
25415W        W90642  41.543  15.195   4.723
25416W        W90643  32.815  12.734  11.716
25417W        W90644  40.959   0.701  14.964
25418W        W90645  33.732  41.712   4.489
25419W        W90646  19.679   7.699   3.640
25420W        W90647  22.480  12.272  10.886
25421W        W90648  29.661  42.190   1.443
25422W        W90649  43.031  27.366   0.743
25423W        W90650  40.006  34.545  11.562
25424W        W90651  10.303  40.928   3.764
25425W        W90652  26.034   3.162  10.999
25426W        W90653  40.016  37.005  11.130
25427W        W90654  23.021  31.042   0.449
25428W        W90655  43.391  28.595   2.951
25429W        W90656  40.872  38.825   2.590
25430W        W90657  20.409  26.955   0.859
25431W        W90658  19.954  23.620  12.990
25432W        W90659  36.880  35.545   0.013
25433W        W90660  26.538   8.671   3.074
25434W        W90661  37.399  20.295   4.162
25435W        W90662  15.578  20.706   3.274
25436W        W90663  40.262  25.289  11.624
25437W        W90664  24.697   9.420  11.512
25438W        W90665   5.343  19.789   3.444
25439W        W90666  26.502   5.196  12.446
25440W        W90667  19.273  38.334   3.980
25441W        W90668  40.828   5.486  12.570
25442W        W90669  23.745  15.164  14.118
25443W        W90670  26.063  28.665   3.520
25444W        W90671  30.195  21.748  13.878
25445W        W90672   6.181  42.135  14.016
25446W        W90673  26.935  31.009   1.213
25447W        W90674  16.824  28.410  11.170
25448W        W90675  38.453  21.695  11.906
25449W        W90676  40.478  41.938   2.018
25450W        W90677  19.343  33.441  11.701
25451W        W90678  26.254  29.659   3.710
25452W        W90679  37.208  29.687   0.149
25453W        W90680  29.323  20.602   3.105
25454W        W90681  15.272   8.403  14.496
25455W        W90682  43.055   7.953  10.093
25456W        W90683  36.779  44.230  12.523
25457W        W90684  23.979   5.253  11.624
25458W        W90685  10.387  33.001   0.384
25459W        W90686   9.273  37.952   2.850
25460W        W90687  17.567  23.274   1.381
25461W        W90688  15.381  42.583   4.084
25462W        W90689  26.117  31.139  10.224
25463W        W90690   5.148  35.090   2.283
25464W        W90691  19.766  24.935  11.701
25465W        W90692  20.068  33.478  13.091
25466W        W90693  27.945   2.187  12.404
25467W        W90694  43.582  33.421  13.559
25468W        W90695   0.950  38.752   0.745
25469W        W90696  12.300  41.461  11.465
25470W        W90697   0.086  40.556   2.251
25471W        W90698  23.310  16.574   3.775
25472W        W90699  44.989  17.068   2.305
25473W        W90700  33.486  19.045  10.642
25474W        W90701  34.491   1.508   4.794
25475W        W90702   0.887  38.287  13.541
25476W        W90703  21.764  30.187   2.111
25477W        W90704  30.377  15.207   1.424
25478W        W90705  19.978  39.702  11.857
25479W        W90706   7.844  20.601   3.539
25480W        W90707  25.504   1.045  12.017
25481W        W90708   8.317   1.877   0.137
25482W        W90709   4.651  21.027   2.741
25483W        W90710  29.561  14.526   1.704
25484W        W90711   7.032  31.521  11.468
25485W        W90712   0.879  39.355  12.888
25486W        W90713  15.890  26.712   4.070
25487W        W90714  28.975   9.903  14.803
25488W        W90715   1.964  18.142   2.711
25489W        W90716  11.721   6.326   3.359
25490W        W90717  34.540  22.725   1.422
25491W        W90718  34.565  20.999   4.083
25492W        W90719  44.571   3.237  10.217
25493W        W90720  10.329  16.575  12.916
25494W        W90721  38.553  38.411   4.548
25495W        W90722  31.660  41.117  13.374
25496W        W90723  39.287  34.529   0.022
25497W        W90724  41.938  20.592  12.037
25498W        W90725  24.614  17.838  14.424
25499W        W90726  24.472  13.555  11.154
25500W        W90727  36.062  15.388  11.947
25501W        W90728  39.501  11.477   2.037
25502W        W90729  36.160  14.648   3.225
25503W        W90730   5.399   3.802  10.472
25504W        W90731   1.042   9.751   4.364
25505W        W90732  12.131  15.712   1.865
25506W        W90733  39.381   9.168   1.294
25507W        W90734  13.827   7.049   0.429
25508W        W90735  39.682   4.204  10.811
25509W        W90736   0.419  12.300  13.236
25510W        W90737  33.661  12.704   3.639
25511W        W90738  12.384  22.952  12.021
25512W        W90739   0.813  36.959   3.692
25513W        W90740  14.887   9.901   3.297
25514W        W90741  10.867  10.676  12.001
25515W        W90742  15.800  15.670   4.162
25516W        W90743  20.812  17.548   3.836
25517W        W90744  22.657  23.443   1.973
25518W        W90745  14.647  39.982  14.456
25519W        W90746  27.018  19.128   1.963
25520W        W90747   7.765   0.605  14.517
25521W        W90748  13.679  35.565  11.955
25522W        W90749  43.260   7.858   3.347
25523W        W90750  37.031  21.275  13.334
25524W        W90751  17.037  15.261  14.491
25525W        W90752  31.536   1.440  14.983
25526W        W90753  19.032  31.448   2.575
25527W        W90754   7.302  18.970   0.498
25528W        W90755   0.962  32.702  12.920
25529W        W90756  17.175  11.698  13.337
25530W        W90757  32.390  31.152  12.871
25531W        W90758  26.094  12.265  14.035
25532W        W90759  10.132  17.724  14.713
25533W        W90760  35.341  32.816   4.830
25534W        W90761  16.738  39.535   2.803
25535W        W90762  29.902  29.067  13.219
25536W        W90763  22.780  30.903  11.093
25537W        W90764  33.161   2.967   0.235
25538W        W90765   7.508  25.660  11.150
25539W        W90766  29.056  28.214   0.327
25540W        W90767  20.566  17.200  13.884
25541W        W90768  14.830  28.518  14.905
25542W        W90769  10.213  29.657  11.562
25543W        W90770  32.183  42.894   0.103
25544W        W90771  26.168   8.689   3.801
25545W        W90772  38.229  25.022   0.699
25546W        W90773  19.757   0.055  11.615
25547W        W90774  34.283  37.551  14.063
25548W        W90775  24.683  29.061  14.944
25549W        W90776  30.964   6.376   2.367
25550W        W90777   6.264  27.928  13.014
25551W        W90778  28.520  30.916  13.384
25552W        W90779  33.347  18.342  14.639
25553W        W90780  29.414  27.019   1.339
25554W        W90781  26.036  19.761   4.801
25555W        W90782  24.702  42.432   1.036
25556W        W90783  27.930  30.290   3.396
25557W        W90784  38.303  24.255  12.535
25558W        W90785  28.223  39.434   0.508
25559W        W90786   3.744  27.522   2.133
25560W        W90787   9.226  32.059  13.420
25561W        W90788  25.266  31.906  13.476
25562W        W90789  12.179   0.035  11.190
25563W        W90790  44.840  13.601   1.668
25564W        W90791  17.308  21.697  11.698
25565W        W90792  37.457  40.310   2.958
25566W        W90793  18.329  25.740  11.062
25567W        W90794  18.273  22.947  10.677
25568W        W90795  18.191  35.799   0.843
25569W        W90796   3.119  18.415  10.275
25570W        W90797  19.322  24.931   3.801
25571W        W90798  17.855  38.478  13.457
25572W        W90799   2.639  13.479  12.843
25573W        W90800  37.739  43.529  11.668
25574W        W90801   1.815  42.363   1.717
25575W        W90802  28.455  40.381  12.147
25576W        W90803  29.737  33.124  12.304
25577W        W90804  24.608  10.435   1.989
25578W        W90805  11.746  41.228  13.119
25579W        W90806   9.811  14.670   3.239
25580W        W90807  37.687  30.093  12.756
25581W        W90808  35.620  35.785  13.907
25582W        W90809  19.315   7.070  14.904
25583W        W90810  24.811  26.117  12.214
25584W        W90811  22.988  34.868  13.575
25585W        W90812  19.747  24.082  12.834
25586W        W90813  32.445  12.593   3.294
25587W        W90814  22.592  36.528   3.250
25588W        W90815  39.707  25.658   4.142
25589W        W90816  44.098   6.709  12.885
25590W        W90817  36.530  10.003  12.244
25591W        W90818   9.224  34.050   0.032
25592W        W90819  13.817   9.436  10.971
25593W        W90820  42.921  26.717   2.300
25594W        W90821  19.116  20.492  13.005
25595W        W90822  17.665  10.112   2.955
25596W        W90823  37.130   1.237   1.836
25597W        W90824  28.444   9.108  11.085
25598W        W90825  25.983  11.083   2.402
25599W        W90826   5.909  17.410   1.674
25600W        W90827  39.058  41.396   3.606
25601W        W90828   1.307  25.425  10.242
25602W        W90829   1.430  14.137   4.790
25603W        W90830  33.085   8.395  11.517
25604W        W90831  37.314   0.389   3.289
25605W        W90832  30.033   8.462  11.102
25606W        W90833   7.269   5.886   0.467
25607W        W90834   3.323   0.088   5.068
25608W        W90835  41.646  23.476   1.589
25609W        W90836  33.112  40.141   2.950
25610W        W90837  15.254  19.518   1.351
25611W        W90838  40.640  39.835  11.866
25612W        W90839   0.821  42.629  10.264
25613W        W90840  23.522  25.023  11.619
25614W        W90841  16.366  24.667   1.849
25615W        W90842  29.008  18.125  13.633
25616W        W90843  29.965  16.314  12.689
25617W        W90844  34.446  22.496   0.983
25618W        W90845  30.433  10.490  11.273
25619W        W90846  23.330  44.179   5.406
25620W        W90847   4.898   9.902  11.109
25621W        W90848  42.572  27.965   4.306
25622W        W90849  38.301  14.558  14.345
25623W        W90850  34.597  21.104   1.101
25624W        W90851   3.630  34.418  12.572
25625W        W90852  32.391  44.787  13.369
25626W        W90853  24.875  15.720  12.478
25627W        W90854  11.804   6.140   5.285
25628W        W90855  20.528  37.276   1.904
25629W        W90856  28.676   6.447  14.368
25630W        W90857  39.400   0.522  13.913
25631W        W90858   4.267  31.421   0.225
25632W        W90859   5.311   3.501   1.972
25633W        W90860  37.023  44.711  11.634
25634W        W90861  21.049  26.463   1.296
25635W        W90862  12.772   9.700   4.097
25636W        W90863  32.635  35.115   1.910
25637W        W90864  11.696  22.190  11.916
25638W        W90865  10.372  26.426   2.863
25639W        W90866  17.864   3.647   0.886
25640W        W90867  15.088  38.477  13.489
25641W        W90868  22.455  11.581  12.419
25642W        W90869  44.099   8.744   4.536
25643W        W90870  15.187  39.473  12.182
25644W        W90871  31.070   6.665  13.038
25645W        W90872   0.770  27.016  12.101
25646W        W90873  15.798  39.831   2.668
25647W        W90874   2.949   7.996  12.938
25648W        W90875  14.022  14.117   1.884
25649W        W90876  23.233  31.506   0.266
25650W        W90877  26.573  30.881   0.317
25651W        W90878   8.262  39.304  13.936
25652W        W90879  42.498  34.146  11.238
25653W        W90880  36.863   3.880  14.898
25654W        W90881  22.521   8.137  13.043
25655W        W90882   0.402   0.509   1.935
25656W        W90883  35.396   4.620   1.779
25657W        W90884  34.961  34.820   1.931
25658W        W90885   4.878  25.458  13.471
25659W        W90886  21.509   2.766   1.779
25660W        W90887  10.008  18.321  11.627
25661W        W90888  32.408  44.130   3.378
25662W        W90889  12.795  34.507   0.952
25663W        W90890  44.299  20.760   4.020
25664W        W90891  21.959  27.998   4.079
25665W        W90892  42.682  39.921  12.181
25666W        W90893  20.459   1.802   3.250
25667W        W90894  43.327  37.838   1.344
25668W        W90895  15.719  30.682   0.578
25669W        W90896  11.803  29.637   0.773
25670W        W90897  14.509   3.695   4.768
25671W        W90898  24.185  19.611  12.462
25672W        W90899  32.267  39.964   4.970
25673W        W90900  40.533  36.920  14.651
25674W        W90901  29.961  33.465   2.247
25675W        W90902  25.764  23.594  11.470
25676W        W90903  13.132  18.871   3.604
25677W        W90904  26.830   0.055  12.010
25678W        W90905  38.955  42.291   2.328
25679W        W90906  19.975  12.211  13.093
25680W        W90907  23.201   1.471   1.663
25681W        W90908  20.559  12.187  12.408
25682W        W90909  20.278  34.887   2.565
25683W        W90910  12.424   3.466   3.727
25684W        W90911  17.582  11.963   0.418
25685W        W90912  25.663  32.884  11.185
25686W        W90913  13.782   3.547  12.893
25687W        W90914  39.283   2.353   2.128
25688W        W90915  33.459   9.937   3.394
25689W        W90916  11.624  22.820  12.871
25690W        W90917  40.997  43.876   1.822
25691W        W90918  37.356  28.532   0.038
25692W        W90919  32.883  12.374  13.919
25693W        W90920  25.278  27.470  10.284
25694W        W90921  23.719  23.418   1.777
25695W        W90922  30.781  28.303   3.698
25696W        W90923  25.024  39.030   2.952
25697W        W90924  36.426  32.730   0.990
25698W        W90925  25.629  11.620  10.537
25699W        W90926  41.372  33.689   4.602
25700W        W90927   5.301   0.437   3.145
25701W        W90928  12.713   9.674  13.050
25702W        W90929  26.219   3.402  12.502
25703W        W90930  10.355  18.331   0.272
25704W        W90931  17.996  37.580  13.530
25705W        W90932  39.798   0.407  12.195
25706W        W90933  42.357  43.602  13.090
25707W        W90934  38.065  11.856  11.671
25708W        W90935  22.498  34.248   3.721
25709W        W90936   0.265   4.678  10.728
25710W        W90937  35.349  41.395  12.187
25711W        W90938  38.218   3.040  10.778
25712W        W90939  34.956  32.105   3.220
25713W        W90940  12.211  21.887  11.233
25714W        W90941  17.816  44.730  13.642
25715W        W90942  12.012  16.523  11.560
25716W        W90943  35.470  12.511   0.381
25717W        W90944  32.044  15.822  11.261
25718W        W90945  38.809  33.480  11.002
25719W        W90946  28.027  17.567   4.600
25720W        W90947   3.638  11.823  11.176
25721W        W90948   5.046  15.913   1.729
25722W        W90949  12.752  34.859   0.431
25723W        W90950  39.089  43.966  14.027
25724W        W90951  19.564   0.247  13.433
25725W        W90952   2.125  34.396   3.468
25726W        W90953   3.618  18.477   2.540
25727W        W90954  15.948  15.506   5.045
25728W        W90955   7.897  20.681  13.247
25729W        W90956  28.470  35.823   3.240
25730W        W90957  11.599  36.987   2.370
25731W        W90958   7.469  30.488   0.786
25732W        W90959  27.106  15.390   4.508
25733W        W90960  12.324  14.042   2.707
25734W        W90961   0.745  22.349   2.229
25735W        W90962  41.405  31.206   3.271
25736W        W90963  20.611  13.299   2.341
25737W        W90964  15.594  30.629  13.459
25738W        W90965  14.857   6.620  12.120
25739W        W90966   4.212   6.078  13.419
25740W        W90967  33.864   9.179   0.561
25741W        W90968  37.488  23.254  14.721
25742W        W90969   3.576   6.366  12.892
25743W        W90970  33.872   6.170  11.164
25744W        W90971  15.390  36.890   4.252
25745W        W90972  21.254  20.216   1.811
25746W        W90973  38.627   7.644   0.291
25747W        W90974  18.805   8.448   2.436
25748W        W90975  14.795   7.576  12.006
25749W        W90976  39.088  13.591   0.243
25750W        W90977  28.387  35.444  11.516
25751W        W90978  22.990  17.178   4.665
25752W        W90979  12.903  29.563   4.555
25753W        W90980   9.155  41.762   3.378
25754W        W90981  36.194  40.296  12.906
25755W        W90982   3.507  29.994  11.899
25756W        W90983  43.276   3.745  14.086
25757W        W90984   5.903  10.792   4.008
25758W        W90985  44.980  29.118  12.837
25759W        W90986  35.890  14.725   4.999
25760W        W90987  23.635  21.973  11.823
25761W        W90988  33.900   8.651   2.264
25762W        W90989  33.830   8.742   1.346
25763W        W90990   5.473  35.823   2.731
25764W        W90991  33.382  32.645  14.321
25765W        W90992  15.111  33.936   2.708
25766W        W90993  14.607   9.128   1.180
25767W        W90994   9.961  26.646  12.950
25768W        W90995  20.254  31.906   0.968
25769W        W90996  34.956  29.674  12.642
25770W        W90997   1.409  35.500  11.081
25771W        W90998  41.401  14.876  11.073
25772W        W90999  16.809  11.181   0.965
25773W        W91000  36.429  16.165   4.523
25774W        W91001  15.552  39.264   1.455
25775W        W91002  26.461  29.031  14.795
25776W        W91003  33.551  16.515   2.281
25777W        W91004  21.705  31.468  13.365
25778W        W91005   3.788  36.320   3.240
25779W        W91006  27.198   4.925  14.488
25780W        W91007  40.879  18.544  11.486
25781W        W91008   8.222  15.068   0.403
25782W        W91009  17.055  44.097  13.488
25783W        W91010  29.427  31.681   0.954
25784W        W91011  16.889  22.213   1.796
25785W        W91012  34.489  40.881  11.115
25786W        W91013   5.315  18.336   0.449
25787W        W91014   2.302  30.049  13.384
25788W        W91015   7.685  33.822  14.742
25789W        W91016   0.718  26.962   0.131
25790W        W91017  16.391  44.231  14.807
25791W        W91018  44.819   7.913   2.483
25792W        W91019   8.899  35.012  14.786
25793W        W91020   1.191  39.525  13.424
25794W        W91021  14.310   0.229  14.049
25795W        W91022  24.657   4.421   0.859
25796W        W91023  26.841  14.377   4.503
25797W        W91024  26.222  30.654  12.592
25798W        W91025  21.687   1.321   5.368
25799W        W91026  22.245   4.878   3.753
25800W        W91027  21.155  39.780  12.180
25801W        W91028  16.813   4.637   4.330
25802W        W91029  43.542  17.158  14.448
25803W        W91030  31.514  18.231   2.771
25804W        W91031  34.943   6.182   4.278
25805W        W91032  20.685  12.401  11.064
25806W        W91033   4.403  37.681  10.962
25807W        W91034  20.762  29.148  14.907
25808W        W91035  20.313   7.155  14.084
25809W        W91036  24.501  42.931   3.895
25810W        W91037  30.592  31.100   1.192
25811W        W91038  12.227  28.113  10.876
25812W        W91039  26.073  43.783   1.365
25813W        W91040   1.510  27.399  12.551
25814W        W91041  42.603  14.825  10.850
25815W        W91042  10.714  21.296  11.600
25816W        W91043  16.638   5.110  11.156
25817W        W91044  36.398  43.481  11.601
25818W        W91045   5.544   2.924  11.422
25819W        W91046  44.914   1.365   1.877
25820W        W91047  39.372  35.306  10.781
25821W        W91048  11.581  22.230   0.409
25822W        W91049  22.241  44.646   1.011
25823W        W91050  24.283  26.228  13.951
25824W        W91051  41.594  28.950  11.215
25825W        W91052  41.024   8.864   1.233
25826W        W91053  16.307  40.411   3.297
25827W        W91054   2.833  16.622  13.024
25828W        W91055  11.850  17.305   3.577
25829W        W91056   3.879   8.746   1.655
25830W        W91057   5.510  31.987  10.676
25831W        W91058   5.713  24.423  12.610
25832W        W91059  31.616  21.112  12.065
25833W        W91060  37.954  28.976   0.032
25834W        W91061  12.797  19.110   4.280
25835W        W91062  31.920  33.337   0.787
25836W        W91063  16.889  24.578   0.900
25837W        W91064  25.668  14.925  12.144
25838W        W91065   2.036  24.296   5.035
25839W        W91066  22.160  37.848  13.666
25840W        W91067  42.919  35.003  14.967
25841W        W91068   2.791  35.603   0.397
25842W        W91069   0.845   2.396   0.018
25843W        W91070  18.668  16.054  11.908
25844W        W91071  33.614   6.616   3.087
25845W        W91072  32.593  40.407  11.528
25846W        W91073  27.041  10.158  11.455
25847W        W91074   3.425  28.127  11.529
25848W        W91075   2.695  17.307   0.753
25849W        W91076  31.856  29.149   4.890
25850W        W91077  37.255  14.800   1.377
25851W        W91078   1.012   9.384   1.284
25852W        W91079  37.063  31.128  10.775
25853W        W91080  27.584   8.088   3.644
25854W        W91081  33.264  16.315   4.034
25855W        W91082   3.945  16.640   2.210
25856W        W91083  40.454   1.662  13.508
25857W        W91084  10.566  41.458  13.582
25858W        W91085   8.066  33.294  10.848
25859W        W91086  24.109  44.316  10.483
25860W        W91087  34.275  44.262   3.187
25861W        W91088  23.700  20.327  14.769
25862W        W91089  25.770  39.074  12.023
25863W        W91090  40.354   9.282  10.850
25864W        W91091  19.966  30.976  13.369
25865W        W91092  34.017  28.955  13.783
25866W        W91093   9.441   5.878   0.667
25867W        W91094  17.021  25.329  13.776
25868W        W91095  16.583  39.094  12.140
25869W        W91096  17.373  20.141  12.126
25870W        W91097  37.500  19.606   0.933
25871W        W91098  41.743  31.488  11.162
25872W        W91099  35.553  15.225   3.383
25873W        W91100  15.860   5.932  14.447
25874W        W91101  25.118  33.068  13.899
25875W        W91102  41.709   1.321  13.477
25876W        W91103  24.966   9.564  10.941
25877W        W91104  28.661  27.770   2.138
25878W        W91105   6.247   9.770   1.145
25879W        W91106   3.626  20.688  13.388
25880W        W91107  23.808   1.674  13.265
25881W        W91108  12.217  17.008  11.537
25882W        W91109  20.591  42.926   1.757
25883W        W91110  31.129  41.667   0.354
25884W        W91111  41.640  11.163  10.967
25885W        W91112  28.966  26.305   4.427
25886W        W91113   3.512  22.758   1.674
25887W        W91114  30.469  32.558  12.030
25888W        W91115   4.653  36.775  14.906
25889W        W91116  33.380  30.214   3.901
25890W        W91117  14.609   9.853  10.716
25891W        W91118  31.241   3.457   1.411
25892W        W91119  33.052  30.493   1.404
25893W        W91120  22.933  13.636  13.537
25894W        W91121  38.031   0.671  11.340
25895W        W91122  34.444  27.214  14.375
25896W        W91123  13.689  42.778  14.309
25897W        W91124  42.867  30.597  13.806
25898W        W91125  20.992  26.712   1.795
25899W        W91126  42.535  25.572   2.962
25900W        W91127  18.836  11.137  11.980
25901W        W91128  16.879   5.326  13.491
25902W        W91129  34.051  24.668   1.301
25903W        W91130  28.903   2.964   4.732
25904W        W91131  30.497  17.573  13.467
25905W        W91132  37.304  26.663   2.181
25906W        W91133  16.297  41.433  11.569
25907W        W91134  20.102   8.813   1.365
25908W        W91135  27.649  40.302  14.769
25909W        W91136  30.501   2.363   2.616
25910W        W91137  37.525  31.439   2.684
25911W        W91138   5.475  26.091  13.174
25912W        W91139  35.014  43.797   1.066
25913W        W91140  42.233  35.986   9.856
25914W        W91141  10.215   1.376  13.885
25915W        W91142  14.200   7.382  14.812
25916W        W91143  22.729   7.887  13.447
25917W        W91144   0.277  41.230  12.036
25918W        W91145  30.988   5.112   0.499
25919W        W91146  10.412   1.730  12.065
25920W        W91147  43.372   0.200  14.066
25921W        W91148  38.848  11.090   4.221
25922W        W91149   2.909  18.746   1.270
25923W        W91150  44.223  10.529  11.208
25924W        W91151  13.180  22.171  10.691
25925W        W91152  13.696  21.011  14.784
25926W        W91153  36.443  35.464   0.808
25927W        W91154  12.775  12.306   0.823
25928W        W91155  24.901   8.084  12.466
25929W        W91156   2.289  20.194  14.294
25930W        W91157  30.587  23.258  12.228
25931W        W91158  38.849  35.332  10.792
25932W        W91159   7.956  18.712   1.546
25933W        W91160  21.571  20.649   1.159
25934W        W91161  30.761   7.087  14.102
25935W        W91162   4.760   8.960  14.449
25936W        W91163   3.366  14.964   1.366
25937W        W91164  32.549  40.906  12.955
25938W        W91165   7.683  27.528  12.720
25939W        W91166  16.322  22.789   1.583
25940W        W91167  32.037  12.281  13.688
25941W        W91168  42.277  43.912  11.417
25942W        W91169  27.184  11.156   0.695
25943W        W91170  11.656   8.714   1.079
25944W        W91171  24.131   8.834   9.735
25945W        W91172   9.136  19.800   2.278
25946W        W91173  43.361  11.683  11.119
25947W        W91174  37.934  30.091   4.522
25948W        W91175   7.007   9.672   1.236
25949W        W91176  21.096  30.438  12.566
25950W        W91177   8.647  28.794  13.746
25951W        W91178  44.417  23.637  14.383
25952W        W91179  34.108  40.138   3.741
25953W        W91180  20.675  11.082   2.665
25954W        W91181  20.195   2.803   0.409
25955W        W91182  36.414  38.418   2.827
25956W        W91183  40.995   7.596   3.661
25957W        W91184   6.806  35.453  11.462
25958W        W91185  40.897   2.887   0.405
25959W        W91186  38.021  39.883  13.473
25960W        W91187   7.461  24.429  12.073
25961W        W91188   4.964  43.208   3.166
25962W        W91189  44.690  16.743  10.283
25963W        W91190  24.371  37.023   2.848
25964W        W91191  44.707  21.337   4.724
25965W        W91192  34.824  39.357   3.619
25966W        W91193  36.852  22.157   0.781
25967W        W91194  15.315  24.659   3.728
25968W        W91195  35.158  13.401  10.878
25969W        W91196  35.428   0.827  14.727
25970W        W91197   7.295  17.981   3.152
25971W        W91198   4.846  44.251   3.314
25972W        W91199  27.661   8.122  13.925
25973W        W91200  32.275  29.543  12.064
25974W        W91201   2.007   9.794  13.447
25975W        W91202  11.278  26.687  11.574
25976W        W91203  16.805   3.354  12.150
25977W        W91204  18.157  35.049  12.857
25978W        W91205  27.991   9.166   0.660
25979W        W91206  39.315  42.078  14.274
25980W        W91207  27.262  30.968   4.014
25981W        W91208  21.671  42.815  10.760
25982W        W91209  16.551  10.667  11.217
25983W        W91210   8.085  37.061  14.494
25984W        W91211   6.821  23.646   1.203
25985W        W91212  25.073   8.563  11.635
25986W        W91213  31.130  28.540   1.270
25987W        W91214  25.380  25.886  10.598
25988W        W91215  37.972  21.752   0.471
25989W        W91216   5.820  41.669   0.425
25990W        W91217  13.824  33.564  12.567
25991W        W91218  36.316  43.444   2.190
25992W        W91219  23.121  31.060   3.737
25993W        W91220  13.297   8.883   4.071
25994W        W91221  41.060  37.595   3.697
25995W        W91222  19.128   5.332  13.628
25996W        W91223  32.943  19.918   4.009
25997W        W91224  37.481  39.906  13.419
25998W        W91225  31.115  27.062   0.562
25999W        W91226   7.881  27.005  11.264
26000W        W91227  28.510  38.076   3.373
26001W        W91228   6.304   2.501  11.550
26002W        W91229  40.344  42.523  12.221
26003W        W91230  21.385  28.208  13.742
26004W        W91231   8.438   5.338  11.591
26005W        W91232  31.122   1.690   3.729
26006W        W91233  24.729  32.977  12.175
26007W        W91234  40.057  17.137   0.778
26008W        W91235  12.327  17.808   4.657
26009W        W91236   2.629   0.994   0.041
26010W        W91237  22.552  26.954  11.649
26011W        W91238   4.641  41.465   1.756
26012W        W91239  24.782  25.482   4.811
26013W        W91240  13.039  31.544   1.245
26014W        W91241  28.547  25.793  12.045
26015W        W91242   6.228  18.109  13.541
26016W        W91243  31.638  14.165  10.251
26017W        W91244  31.680  36.547  14.796
26018W        W91245   7.336  12.117   1.752
26019W        W91246   8.856  38.984   3.762
26020W        W91247  35.596  23.532  12.160
26021W        W91248  40.255   9.966   2.270
26022W        W91249   2.029  21.436   4.171
26023W        W91250  34.102  33.150   1.767
26024W        W91251  32.472  15.125   1.547
26025W        W91252   0.479  18.108   1.938
26026W        W91253  38.995   4.753   9.837
26027W        W91254  13.205  24.879   1.281
26028W        W91255  14.936  39.464  14.965
26029W        W91256  25.409  40.284  14.066
26030W        W91257  23.202  15.149   0.338
26031W        W91258  37.460  33.856  12.506
26032W        W91259  30.043  38.990  13.445
26033W        W91260  35.942  25.848   1.504
26034W        W91261  14.620  24.156   4.510
26035W        W91262   8.776  25.467   2.999
26036W        W91263  39.809  37.240   1.130
26037W        W91264  34.986  14.415  11.734
26038W        W91265  24.959  18.925  14.505
26039W        W91266  35.377  21.859   2.275
26040W        W91267  29.675  29.941  14.597
26041W        W91268  32.255   5.785   0.738
26042W        W91269  25.446  43.054  14.524
26043W        W91270  31.856  29.464   3.096
26044W        W91271  41.239  34.491  13.104
26045W        W91272   8.209  13.890  10.714
26046W        W91273   2.033  20.790  13.771
26047W        W91274  21.090  30.443  13.903
26048W        W91275   9.722  12.803   1.439
26049W        W91276  31.644  14.068  14.468
26050W        W91277  38.316  21.022   3.604
26051W        W91278   4.598  42.650  11.146
26052W        W91279  19.162   3.609   3.618
26053W        W91280  15.634   6.205  11.953
26054W        W91281  41.524  12.603  13.266
26055W        W91282  23.484  28.158   0.722
26056W        W91283  24.021  44.433  12.888
26057W        W91284  18.090  25.072   1.536
26058W        W91285  33.563  42.511  12.994
26059W        W91286  43.040  23.161   3.155
26060W        W91287  11.675  23.222   2.896
26061W        W91288  40.623  34.597   0.305
26062W        W91289  10.319  31.439   4.810
26063W        W91290   1.262  13.730   3.833
26064W        W91291  21.039  29.120   0.832
26065W        W91292   8.062  24.336   0.792
26066W        W91293  44.389  33.252  12.055
26067W        W91294  21.802  15.082  13.130
26068W        W91295   8.191   5.925   0.494
26069W        W91296  24.474   5.932  14.473
26070W        W91297  41.338  17.823  14.749
26071W        W91298  29.025  18.090   4.277
26072W        W91299  20.685   6.740   2.736
26073W        W91300  39.757  22.947   1.688
26074W        W91301  35.849  20.619   2.070
26075W        W91302  26.121   2.845   3.850
26076W        W91303  10.307   8.429  12.910
26077W        W91304   1.745  25.951  14.906
26078W        W91305   9.584  22.983  10.395
26079W        W91306   5.330  13.064   0.732
26080W        W91307   5.873  15.701   0.101
26081W        W91308   1.861  23.948   0.944
26082W        W91309  21.770   0.772   3.668
26083W        W91310  16.781  14.635   1.576
26084W        W91311  40.395   3.799  12.080
26085W        W91312   6.193   0.271  13.456
26086W        W91313   7.704   0.102  14.402
26087W        W91314  44.788  34.062   4.685
26088W        W91315  43.972  43.980  12.784
26089W        W91316   9.087  19.369  10.218
26090W        W91317  39.859  12.712   0.445
26091W        W91318  33.073  21.287  10.658
26092W        W91319  28.932   0.447   1.830
26093W        W91320  21.288  27.307   0.947
26094W        W91321   8.573  13.729   4.988
26095W        W91322  20.826  41.537   3.681
26096W        W91323  36.687   5.704  11.109
26097W        W91324  14.682  12.252   2.329
26098W        W91325   5.884  39.530  12.560
26099W        W91326  33.839   6.228  11.672
26100W        W91327   3.891   0.664  11.119
26101W        W91328   5.734   3.667  10.840
26102W        W91329  25.781   8.223   1.260
26103W        W91330  34.086   7.849  11.061
26104W        W91331  35.856   8.853   1.713
26105W        W91332  34.668  11.454  12.926
26106W        W91333  21.153   9.320   3.631
26107W        W91334   0.964  16.714   5.561
26108W        W91335   9.195  13.804  11.627
26109W        W91336  18.372  18.562  14.297
26110W        W91337  39.315   2.875   4.665
26111W        W91338  14.129  23.804   1.846
26112W        W91339  29.978  38.371   0.803
26113W        W91340  11.935  42.303  12.544
26114W        W91341  34.041  24.981  10.798
26115W        W91342   4.377  31.914   3.409
26116W        W91343  19.334  35.713   2.658
26117W        W91344  32.593  20.569   4.673
26118W        W91345   1.668  30.078  10.987
26119W        W91346  19.267  32.634   2.505
26120W        W91347  26.544  16.535   0.430
26121W        W91348  13.696  43.763   2.663
26122W        W91349   1.003  23.961   0.211
26123W        W91350  38.043  42.636  12.109
26124W        W91351  10.851  34.783   3.623
26125W        W91352  33.115  35.067  13.287
26126W        W91353   7.289  36.654  10.905
26127W        W91354   7.461  13.439   2.120
26128W        W91355  20.296   6.457  11.642
26129W        W91356  15.483  42.894  13.491
26130W        W91357  24.852  44.235  12.878
26131W        W91358   9.176   3.913   4.112
26132W        W91359  14.424  22.491  10.787
26133W        W91360   4.927  28.194  11.509
26134W        W91361   4.269   6.288   4.164
26135W        W91362  21.527  24.261  14.949
26136W        W91363  37.421  35.908   3.371
26137W        W91364  23.635   9.378  10.494
26138W        W91365  21.185  42.288   3.835
26139W        W91366  19.944  10.317   1.635
26140W        W91367  14.353   7.320   4.208
26141W        W91368  29.675   7.732  13.317
26142W        W91369  27.391  40.278   1.701
26143W        W91370   4.430   4.887  11.842
26144W        W91371  44.409  34.259  12.240
26145W        W91372  29.612   0.356   2.670
26146W        W91373  35.292   0.357  11.710
26147W        W91374   5.324   7.387  14.578
26148W        W91375  33.281   4.870   2.316
26149W        W91376  37.046  25.796  14.216
26150W        W91377  43.268  29.381   3.589
26151W        W91378  23.032  22.249   4.528
26152W        W91379  38.887  35.712   1.382
26153W        W91380  23.513  26.290   0.827
26154W        W91381   7.883   7.464  14.432
26155W        W91382  26.898  25.652   3.094
26156W        W91383  27.604  16.284  13.576
26157W        W91384  34.066  23.295   1.708
26158W        W91385  12.637  40.226  13.363
26159W        W91386  35.334  33.479  13.448
26160W        W91387  30.419  29.000  13.902
26161W        W91388  18.186   2.495  12.872
26162W        W91389   3.653   8.324  11.201
26163W        W91390  21.023  39.507  10.431
26164W        W91391  39.046   1.450  14.436
26165W        W91392  40.459  30.119  14.121
26166W        W91393  33.454  18.228  10.455
26167W        W91394  20.785  26.015   2.616
26168W        W91395   0.549  17.576  13.699
26169W        W91396  25.873  28.932  14.652
26170W        W91397  34.097   5.857   4.032
26171W        W91398  36.549  10.730   0.711
26172W        W91399  20.328  20.170   1.936
26173W        W91400  42.040  28.762   4.174
26174W        W91401   9.410   8.199  11.030
26175W        W91402  22.139  42.420   1.186
26176W        W91403  26.530  26.720  12.506
26177W        W91404  37.447  42.057  14.948
26178W        W91405  24.801   0.463  12.405
26179W        W91406  38.492  20.229   2.856
26180W        W91407  28.084  24.827   1.822
26181W        W91408   6.348  40.989  12.406
26182W        W91409  20.068  41.844  14.409
26183W        W91410   4.816   7.280  14.406
26184W        W91411  20.716  28.636   1.282
26185W        W91412  27.978  35.304   2.772
26186W        W91413  14.169  34.136   3.140
26187W        W91414   4.506  12.663   1.969
26188W        W91415  27.378  23.216  14.217
26189W        W91416  28.577  32.990  13.159
26190W        W91417  30.688  18.743   1.860
26191W        W91418  11.342  14.194   0.201
26192W        W91419  38.008  28.403  10.987
26193W        W91420  38.530  14.293   0.216
26194W        W91421  27.496  27.225   1.347
26195W        W91422   8.644  25.621   4.961
26196W        W91423  41.866  19.596   3.219
26197W        W91424  12.956   7.684   1.367
26198W        W91425  29.910  39.045   1.354
26199W        W91426  23.702   4.316  12.081
26200W        W91427  10.232  39.389   2.312
26201W        W91428  17.743   1.525   4.267
26202W        W91429   0.915  13.265   0.222
26203W        W91430  21.050  35.616   0.859
26204W        W91431   1.868  43.180   2.355
26205W        W91432   0.735  15.126  14.898
26206W        W91433  31.134  16.444  13.531
26207W        W91434  29.999  38.404   3.703
26208W        W91435  25.583  42.318   0.855
26209W        W91436  23.825  37.680   2.697
26210W        W91437  34.777  16.831  14.559
26211W        W91438  21.934  44.505  10.250
26212W        W91439  29.670  32.547   2.428
26213W        W91440  21.659  12.036   2.905
26214W        W91441  15.982   5.022  13.908
26215W        W91442   5.306  41.294  11.200
26216W        W91443  39.642   4.663  11.137
26217W        W91444  37.321  29.101   4.743
26218W        W91445  23.518  28.289  11.167
26219W        W91446  38.878  28.717   4.620
26220W        W91447   2.327  38.055   1.416
26221W        W91448  39.136  21.057   0.376
26222W        W91449   7.919  13.623  13.483
26223W        W91450  41.977  36.292  12.011
26224W        W91451  19.184   7.580   2.843
26225W        W91452   4.896  43.157   0.970
26226W        W91453  19.342  31.124   1.299
26227W        W91454  19.661   3.553   3.663
26228W        W91455  27.885  28.446  14.745
26229W        W91456  12.265  24.619   3.192
26230W        W91457  21.573  42.763  10.235
26231W        W91458   4.372   1.887   1.862
26232W        W91459  26.525  43.990  12.458
26233W        W91460  11.732  37.260  11.075
26234W        W91461  26.036  21.460  12.040
26235W        W91462  33.910   0.604   1.820
26236W        W91463  33.874  20.196  12.218
26237W        W91464  18.850  10.893  12.427
26238W        W91465   3.296   4.667  11.633
26239W        W91466   3.110   8.862   4.155
26240W        W91467  31.601  33.650  11.580
26241W        W91468  44.806   6.976   0.751
26242W        W91469   0.868  20.036  10.321
26243W        W91470  38.646  30.678  14.888
26244W        W91471  23.987   1.615   3.989
26245W        W91472   2.946  23.212  12.505
26246W        W91473  18.073  29.867  13.042
26247W        W91474  41.018   3.842  13.076
26248W        W91475   5.299  29.466  14.460
26249W        W91476  44.893  42.242   0.767
26250W        W91477  12.398   5.776   2.348
26251W        W91478   9.590  38.018  14.477
26252W        W91479  30.486  17.785   4.177
26253W        W91480  26.520   9.803  12.101
26254W        W91481  38.504  34.521   0.885
26255W        W91482  28.466  37.987   1.420
26256W        W91483  30.368  40.280   2.717
26257W        W91484  17.253  43.376  11.591
26258W        W91485  13.783  37.978   3.873
26259W        W91486  39.087  22.202   4.035
26260W        W91487  11.365  20.022  14.319
26261W        W91488  24.921  30.710  11.492
26262W        W91489  22.927   9.517   3.932
26263W        W91490  12.215   3.237   4.122
26264W        W91491  20.143   0.796  10.584
26265W        W91492   5.388   1.882  10.728
26266W        W91493  26.533  24.133  12.477
26267W        W91494  29.139  38.877  13.894
26268W        W91495  33.734  16.598   1.471
26269W        W91496   7.865  44.572  13.500
26270W        W91497  41.521  36.055  10.610
26271W        W91498  34.012  14.456   3.984
26272W        W91499  16.275  18.319   0.899
26273W        W91500  36.888  38.934   3.199
26274W        W91501   4.723  22.632   4.309
26275W        W91502  19.046   1.413  14.533
26276W        W91503   7.316  43.504  12.139
26277W        W91504  42.849  37.985  12.433
26278W        W91505  40.874  30.655  12.428
26279W        W91506  42.480  38.031   3.254
26280W        W91507  10.403  21.616  10.761
26281W        W91508  33.260  13.831   2.612
26282W        W91509  33.780   5.412   4.625
26283W        W91510  19.105   3.374  14.138
26284W        W91511  10.731  13.395  12.022
26285W        W91512  17.680  17.331   3.884
26286W        W91513   0.817  19.181  12.555
26287W        W91514  25.789  40.275  10.686
26288W        W91515  21.759  44.717  11.543
26289W        W91516  13.809   0.725   4.159
26290W        W91517  29.399   0.723   0.305
26291W        W91518  19.798  28.666  13.416
26292W        W91519   6.296  28.439  11.549
26293W        W91520   3.251  15.848  14.844
26294W        W91521  40.880  17.078  11.165
26295W        W91522   6.640  36.852   3.145
26296W        W91523  44.443  20.245   2.855
26297W        W91524  11.871  13.749  12.182
26298W        W91525  24.253  10.661   0.156
26299W        W91526  34.528  33.525   0.323
26300W        W91527  28.084  22.212  11.500
26301W        W91528  23.670  20.108   0.732
26302W        W91529   6.926  44.755  12.474
26303W        W91530   2.803  39.476  14.860
26304W        W91531   8.658   4.659  10.912
26305W        W91532   3.387  20.841  10.453
26306W        W91533  20.364  40.014  12.489
26307W        W91534  19.213  11.303   4.605
26308W        W91535  33.417  14.458  10.199
26309W        W91536  13.819   4.675   3.607
26310W        W91537   7.919  35.540   4.156
26311W        W91538  39.615   5.832  11.841
26312W        W91539   4.639   5.788  10.781
26313W        W91540   5.768  35.779   0.323
26314W        W91541  36.164  18.225  13.102
26315W        W91542   9.500  12.917   4.373
26316W        W91543  21.814  42.551  11.937
26317W        W91544   8.459  18.675   2.837
26318W        W91545  21.480   7.414   3.798
26319W        W91546  37.508  40.925   2.262
26320W        W91547  26.619   8.938   3.724
26321W        W91548  34.380  15.279  14.158
26322W        W91549   9.020  13.161   4.462
26323W        W91550  19.009  43.208   0.805
26324W        W91551  34.919  23.673   2.174
26325W        W91552   6.834  28.963  11.234
26326W        W91553  19.602   9.678  11.621
26327W        W91554   7.389  34.892  12.899
26328W        W91555   0.571   8.327   1.824
26329W        W91556  39.348  12.658   1.725
26330W        W91557  35.462  19.666  14.504
26331W        W91558   5.275  30.373   3.213
26332W        W91559  22.801  30.922  11.982
26333W        W91560  23.199  24.634   3.122
26334W        W91561  43.288  14.291   2.265
26335W        W91562  14.752  18.326   2.004
26336W        W91563  12.874  33.896   4.993
26337W        W91564  13.756  40.031  14.562
26338W        W91565  21.768  26.048   2.781
26339W        W91566   2.404  22.527  11.014
26340W        W91567  31.091   0.397  12.510
26341W        W91568  33.827  15.638  14.833
26342W        W91569   6.713  29.508   3.202
26343W        W91570   7.714  18.874   4.550
26344W        W91571  12.234  25.049  14.911
26345W        W91572   2.528  21.315  12.076
26346W        W91573  15.706  15.252   3.387
26347W        W91574  13.662   9.862  14.066
26348W        W91575  29.905  44.835  12.607
26349W        W91576  22.098  39.464  14.246
26350W        W91577  27.395  17.700   2.308
26351W        W91578  18.676   0.190   2.067
26352W        W91579  28.913  36.862   0.489
26353W        W91580  19.742  24.627  13.532
26354W        W91581  42.370  10.449   1.490
26355W        W91582  16.533  12.755   4.211
26356W        W91583   5.129  34.886   4.939
26357W        W91584  16.667   2.277  12.882
26358W        W91585  23.161   6.150  14.940
26359W        W91586  42.208   1.869  12.530
26360W        W91587   7.066   0.801  14.218
26361W        W91588  32.909  19.169  14.614
26362W        W91589  27.724  39.582   1.301
26363W        W91590  15.639  41.050   0.915
26364W        W91591  25.509  34.053  13.539
26365W        W91592  31.923  40.072   0.792
26366W        W91593  11.657  16.779   0.014
26367W        W91594  38.058  30.486  11.979
26368W        W91595   4.429   1.386   2.595
26369W        W91596  12.574  38.751   4.504
26370W        W91597  42.826  27.025   3.633
26371W        W91598  17.565  18.383   3.747
26372W        W91599  34.018   5.314   3.285
26373W        W91600  42.475  26.997   2.352
26374W        W91601  34.753  36.978  14.749
26375W        W91602   1.908  15.934  11.654
26376W        W91603  25.995  12.993  13.240
26377W        W91604  43.331  14.243  13.060
26378W        W91605  24.518   8.880  12.414
26379W        W91606  23.637   3.281   4.980
26380W        W91607   3.328  38.662  13.489
26381W        W91608  13.918  18.588   2.898
26382W        W91609  37.440   9.824  14.106
26383W        W91610  38.550  42.364  12.411
26384W        W91611   8.835  26.084  10.857
26385W        W91612  19.665   7.172   2.198
26386W        W91613  25.637  41.050  12.081
26387W        W91614  30.943  10.183  10.611
26388W        W91615  15.773  12.949  12.629
26389W        W91616   6.871   2.305   3.116
26390W        W91617  19.110  13.367   4.674
26391W        W91618  17.022  19.260   2.521
26392W        W91619   4.826  42.448  13.936
26393W        W91620  16.736  34.339  11.115
26394W        W91621  21.817  18.494   2.372
26395W        W91622  14.537  26.129   3.120
26396W        W91623  27.985   7.078   2.408
26397W        W91624  10.654   3.800  12.027
26398W        W91625  22.033  33.609   0.794
26399W        W91626   1.348  42.249   1.897
26400W        W91627  28.589  40.446  11.618
26401W        W91628   4.886   1.259   2.400
26402W        W91629  31.838  36.608   2.114
26403W        W91630  21.775  27.160  12.299
26404W        W91631   4.946  39.041   4.658
26405W        W91632  35.805  28.441  13.807
26406W        W91633  39.645   4.122   3.294
26407W        W91634  27.224   8.242  12.540
26408W        W91635  15.845  16.320  13.143
26409W        W91636  19.091  37.058  10.098
26410W        W91637  12.782   7.344  10.587
26411W        W91638  28.880   1.746   0.515
26412W        W91639  44.027  17.885  12.246
26413W        W91640   4.412  38.821  14.535
26414W        W91641  41.061   9.737   1.267
26415W        W91642  24.225   2.951  14.408
26416W        W91643  43.884  40.014   4.604
26417W        W91644  35.730  28.001  14.543
26418W        W91645  13.844  31.483  12.102
26419W        W91646   6.906  24.497  14.774
26420W        W91647  22.852   5.734   0.724
26421W        W91648   3.283  43.767  12.927
26422W        W91649  44.095  38.356   2.555
26423W        W91650   3.788  36.504   0.324
26424W        W91651  38.929  18.463  14.843
26425W        W91652  11.355  39.245  11.101
26426W        W91653  32.622  34.636  14.459
26427W        W91654   8.414  37.393  11.105
26428W        W91655  38.655  19.964  12.386
26429W        W91656  13.762  11.298  12.123
26430W        W91657  13.360  20.158  13.099
26431W        W91658  10.024  30.035  12.896
26432W        W91659  18.192  38.807  13.179
26433W        W91660  15.549  18.797  14.237
26434W        W91661  11.191   4.914  13.045
26435W        W91662  25.486   6.277   1.229
26436W        W91663  23.733   0.099   3.420
26437W        W91664  20.518   3.393  13.513
26438W        W91665  40.650  20.439   0.067
26439W        W91666  11.732  10.960  13.842
26440W        W91667  25.485  15.601  11.444
26441W        W91668  21.991  41.779   1.450
26442W        W91669  23.491   8.853   3.371
26443W        W91670  16.321  35.661  11.895
26444W        W91671  13.147  42.830   4.697
26445W        W91672  23.286  30.541  13.852
26446W        W91673  15.094  29.007  14.962
26447W        W91674  21.539  26.174  10.930
26448W        W91675  33.694  34.371   0.962
26449W        W91676  29.885   0.789   3.570
26450W        W91677   3.905  24.173   3.244
26451W        W91678   1.153  13.528   4.805
26452W        W91679  35.557  13.156  12.115
26453W        W91680  25.708  28.920  13.409
26454W        W91681  23.174   3.111   2.571
26455W        W91682  35.934   1.259  14.039
26456W        W91683  17.238  28.186   1.856
26457W        W91684   8.658  44.265   2.780
26458W        W91685   1.998  44.872   3.155
26459W        W91686  23.951  19.511   0.127
26460W        W91687  44.302  22.294  11.475
26461W        W91688  15.163  22.139   3.457
26462W        W91689  19.802   7.717   2.196
26463W        W91690  43.897  12.550   2.743
26464W        W91691  14.773  31.550  11.706
26465W        W91692  42.971  15.618   2.129
26466W        W91693  12.123  10.105  11.674
26467W        W91694  35.175  33.129  12.107
26468W        W91695  32.158  43.963   4.561
26469W        W91696  30.704  36.831  13.348
26470W        W91697  12.497  14.659  10.192
26471W        W91698  12.424   4.728   3.704
26472W        W91699  37.510  21.760   0.248
26473W        W91700  16.498  10.788  12.064
26474W        W91701  20.373  21.516  13.056
26475W        W91702   0.327   7.941  13.333
26476W        W91703   2.808  40.033  14.901
26477W        W91704   3.710   3.208   0.427
26478W        W91705  29.453  41.177  11.200
26479W        W91706  29.465  22.997   3.726
26480W        W91707  33.000   3.861  13.450
26481W        W91708  20.016  39.374  12.577
26482W        W91709  37.915   3.057   3.825
26483W        W91710  31.035  31.036   4.465
26484W        W91711  25.724  33.417  12.303
26485W        W91712  14.135   8.921  12.723
26486W        W91713  23.279  35.000  11.507
26487W        W91714  27.514  11.648   2.810
26488W        W91715  29.973  30.402  14.465
26489W        W91716  15.958  25.295  12.948
26490W        W91717  24.478  16.741   2.724
26491W        W91718   2.884  21.149  14.285
26492W        W91719  42.977  21.308  13.827
26493W        W91720   2.652   1.687  10.212
26494W        W91721  14.356  20.696   0.288
26495W        W91722  28.074  28.721   2.226
26496W        W91723  37.638  15.146   1.307
26497W        W91724   5.723  14.178   3.798
26498W        W91725   4.913  36.955   3.798
26499W        W91726  41.366  12.309   3.250
26500W        W91727  33.976  12.669  12.489
26501W        W91728   8.083   2.333   4.117
26502W        W91729   4.361   8.279   2.602
26503W        W91730  29.340  16.118   0.162
26504W        W91731  31.608  42.300  12.582
26505W        W91732  14.929  30.618   3.058
26506W        W91733   1.458   9.198   3.571
26507W        W91734  18.490  41.230  12.495
26508W        W91735   6.301  20.695   1.508
26509W        W91736  24.431  15.412   4.314
26510W        W91737  37.058  14.115   3.289
26511W        W91738  18.252   8.177   0.255
26512W        W91739  16.281  20.335   3.682
26513W        W91740   0.694  27.965   1.856
26514W        W91741  32.161   0.514   2.602
26515W        W91742  29.913  44.456  14.388
26516W        W91743  28.273  13.146  14.372
26517W        W91744  42.472  40.968   0.753
26518W        W91745   1.009  25.001   2.369
26519W        W91746  26.232  32.103   1.772
26520W        W91747  24.660  23.157  12.056
26521W        W91748  18.836  36.055  12.982
26522W        W91749  19.156  11.617  13.001
26523W        W91750  22.163  10.268  10.834
26524W        W91751  41.402  37.341  11.103
26525W        W91752  34.896  12.543   4.763
26526W        W91753  21.702  35.102   0.433
26527W        W91754  32.723  24.142  13.898
26528W        W91755  20.126  12.845  10.296
26529W        W91756  40.575  14.622  12.625
26530W        W91757  20.615  25.255  11.196
26531W        W91758  15.687  16.908  14.433
26532W        W91759  42.251   6.312  14.083
26533W        W91760  22.250  39.381   3.141
26534W        W91761  32.048   2.784  14.711
26535W        W91762  33.966  10.128  10.648
26536W        W91763  43.546  24.192  10.679
26537W        W91764  32.149  42.612   1.727
26538W        W91765  43.387  44.466  13.254
26539W        W91766  42.713   9.252  10.948
26540W        W91767  17.125   5.489  12.086
26541W        W91768  32.681  39.812  14.275
26542W        W91769   2.367  26.274  14.322
26543W        W91770  16.608  10.524  13.076
26544W        W91771  16.837  31.383   1.922
26545W        W91772  33.613  12.297  13.473
26546W        W91773  29.060  42.299   2.680
26547W        W91774  30.988  38.746   2.787
26548W        W91775  38.981  30.737   0.287
26549W        W91776  44.846  34.224  11.015
26550W        W91777   5.668  37.577  14.990
26551W        W91778   6.912  20.968  13.462
26552W        W91779  11.305  32.860   2.172
26553W        W91780  40.042  26.935   1.392
26554W        W91781   1.235  32.671  10.548
26555W        W91782  40.823  37.545  13.771
26556W        W91783   1.602  11.324  12.178
26557W        W91784  29.747  37.266  12.491
26558W        W91785  14.854  42.192  14.873
26559W        W91786   7.210  22.761   2.240
26560W        W91787  19.158  35.643   1.303
26561W        W91788  36.053   8.889   0.290
26562W        W91789  32.614  39.890   1.844
26563W        W91790  23.620  23.618  14.781
26564W        W91791  44.453   0.926   2.344
26565W        W91792  19.554  14.247  14.842
26566W        W91793  33.521  30.112   0.402
26567W        W91794  29.091  41.969  11.949
26568W        W91795   0.784   4.899  13.855
26569W        W91796  18.736  43.792  13.695
26570W        W91797  19.750  32.664   1.775
26571W        W91798   9.323  41.775   3.865
26572W        W91799  44.419  33.187  10.718
26573W        W91800   4.870  10.779   0.187
26574W        W91801  36.079  38.066   4.533
26575W        W91802  13.596  25.517   3.669
26576W        W91803  27.555  12.309  12.024
26577W        W91804  41.848  20.114   2.377
26578W        W91805  28.153  18.469   2.802
26579W        W91806  19.982  23.897  10.359
26580W        W91807  13.390  31.490   0.862
26581W        W91808  36.368  35.505   2.336
26582W        W91809   1.666  28.018   3.131
26583W        W91810  25.649  19.660  12.837
26584W        W91811  42.869  40.093  13.567
26585W        W91812  25.625  15.614   3.788
26586W        W91813  37.510  30.526  12.017
26587W        W91814  17.052  13.279   4.513
26588W        W91815  15.338  19.255   0.041
26589W        W91816   4.848  15.161   4.431
26590W        W91817  34.484  30.411   5.001
26591W        W91818  21.515  43.438  11.944
26592W        W91819  22.556   1.606  12.714
26593W        W91820  35.829  16.127   0.707
26594W        W91821   7.699   2.601   0.034
26595W        W91822   8.938  24.454   0.716
26596W        W91823   9.081   9.356  12.458
26597W        W91824  31.074  41.000   2.744
26598W        W91825  12.842   7.197   4.234
26599W        W91826  29.603   2.955  10.899
26600W        W91827   7.755  19.727  12.009
26601W        W91828  23.120   1.968  14.329
26602W        W91829   6.770  12.742   4.643
26603W        W91830  29.507  33.212  11.192
26604W        W91831  29.457   4.341  12.840
26605W        W91832  38.463   0.750   1.852
26606W        W91833  29.393   3.656   3.601
26607W        W91834  20.791   2.802   4.650
26608W        W91835  26.558  34.048  12.463
26609W        W91836  13.113  12.738  11.527
26610W        W91837  35.834  18.605  14.508
26611W        W91838  35.466   5.736   0.333
26612W        W91839  28.857   0.937  12.169
26613W        W91840  38.423  15.282  10.685
26614W        W91841   6.344  29.890  12.736
26615W        W91842  11.488  18.253  12.096
26616W        W91843  29.801   1.772   1.752
26617W        W91844  21.250  14.742   5.053
26618W        W91845   8.180  24.485   1.308
26619W        W91846  12.267  25.751   3.214
26620W        W91847   4.971  33.170  10.707
26621W        W91848  30.230  44.453  13.412
26622W        W91849  37.107   6.374  11.612
26623W        W91850  38.153  35.809   4.865
26624W        W91851   8.200  25.766  14.773
26625W        W91852   5.302  21.323  14.322
26626W        W91853  13.340  34.855   2.693
26627W        W91854  15.205  18.812  12.091
26628W        W91855   4.262  42.382  14.326
26629W        W91856   3.206  15.697  11.436
26630W        W91857  22.114   0.696  14.342
26631W        W91858  19.808   4.645   1.322
26632W        W91859  42.490  33.490  11.631
26633W        W91860  38.943  40.695  11.225
26634W        W91861  17.782  19.912   4.584
26635W        W91862  38.606   8.496   0.717
26636W        W91863   3.773   5.976  10.476
26637W        W91864  42.900  20.303  14.751
26638W        W91865  40.075  29.234  11.070
26639W        W91866  27.296  18.743  14.887
26640W        W91867  27.282   6.856   4.443
26641W        W91868  26.518  39.381  11.688
26642W        W91869  35.923  11.907   1.339
26643W        W91870  20.312  26.053   4.158
26644W        W91871  35.777  35.307  11.560
26645W        W91872   9.691  23.264   1.336
26646W        W91873  31.097  26.555  12.078
26647W        W91874  11.500  14.943  10.018
26648W        W91875  15.691  42.091   1.677
26649W        W91876  27.900   1.866  13.055
26650W        W91877  20.318   7.975  13.065
26651W        W91878   0.143  17.779   0.156
26652W        W91879  27.153  20.804  11.640
26653W        W91880  14.605  33.095   1.435
26654W        W91881  19.931  17.911  11.048
26655W        W91882  38.928  29.847   0.492
26656W        W91883  38.229  24.406  13.484
26657W        W91884   9.364  23.839  12.995
26658W        W91885   4.369  24.966   2.359
26659W        W91886  27.512  26.733  13.413
26660W        W91887  39.431  29.038  10.645
26661W        W91888  39.200   6.695   1.727
26662W        W91889  15.882  38.545  10.137
26663W        W91890  39.360  27.140   0.711
26664W        W91891   8.209  42.510   1.009
26665W        W91892  13.254  34.446  11.792
26666W        W91893  23.794  24.750   1.412
26667W        W91894  17.068  20.200  10.792
26668W        W91895   7.159   5.148  11.990
26669W        W91896  38.339  43.670   0.314
26670W        W91897  18.053  17.377  12.399
26671W        W91898  11.364  14.891   2.288
26672W        W91899   4.182  37.716   3.291
26673W        W91900  44.366   1.046  11.095
26674W        W91901  22.724  43.897  12.846
26675W        W91902  44.079  21.961   9.749
26676W        W91903   9.220  28.480   3.774
26677W        W91904   6.927  41.618   1.774
26678W        W91905  18.855  22.742   4.464
26679W        W91906  28.651   8.700   1.660
26680W        W91907  24.452  30.488  11.348
26681W        W91908  19.780  19.153  12.453
26682W        W91909  31.460   2.197   1.318
26683W        W91910  10.250   0.366  14.508
26684W        W91911   2.973  31.099  10.799
26685W        W91912   9.103  13.554  11.193
26686W        W91913  25.657  22.028  12.086
26687W        W91914   0.961  40.813   1.688
26688W        W91915   6.213  33.296  10.494
26689W        W91916  29.685   4.218  13.425
26690W        W91917  33.265  14.265  10.657
26691W        W91918   6.139  37.046  12.069
26692W        W91919  16.751  28.710  11.584
26693W        W91920  15.257  12.378   4.691
26694W        W91921   8.737  41.302  14.572
26695W        W91922  41.512  15.057  13.336
26696W        W91923   3.318  36.170   1.161
26697W        W91924   3.759  28.197   3.345
26698W        W91925   1.130  37.828   3.641
26699W        W91926   2.708  38.938  14.033
26700W        W91927  24.051  26.322   1.711
26701W        W91928  18.369  34.127   2.401
26702W        W91929  16.776  20.190   0.761
26703W        W91930  11.077   8.242   3.648
26704W        W91931  42.362  24.637   4.068
26705W        W91932  35.002  44.541   2.844
26706W        W91933   5.144  27.538   2.419
26707W        W91934  18.080   0.961  11.583
26708W        W91935  23.830   4.757  10.808
26709W        W91936  14.125  40.157  10.307
26710W        W91937  12.066  42.923   1.346
26711W        W91938  40.297  15.563  11.693
26712W        W91939  13.594  24.558  12.267
26713W        W91940   1.010   7.509  13.896
26714W        W91941   0.350  24.081   2.701
26715W        W91942  22.729  33.875  12.690
26716W        W91943  34.748  18.043  14.836
26717W        W91944  27.542  33.470  13.883
26718W        W91945  10.148  32.093  12.366
26719W        W91946  12.281  25.167   2.353
26720W        W91947  22.595  27.417   4.603
26721W        W91948  43.880  30.373  10.760
26722W        W91949  31.106  43.063   3.720
26723W        W91950   6.870  36.421   4.323
26724W        W91951   5.040   8.748   0.714
26725W        W91952  17.806  22.270  14.960
26726W        W91953  26.626   7.322   0.954
26727W        W91954  14.617   6.673   3.205
26728W        W91955  43.921  36.005   4.245
26729W        W91956  40.862  30.193  12.781
26730W        W91957  18.478  17.360   5.007
26731W        W91958  40.537  23.039  13.872
26732W        W91959  35.081   3.920   3.877
26733W        W91960   2.977   0.744  11.761
26734W        W91961  40.105   1.162   0.953
26735W        W91962  14.127  34.538   2.773
26736W        W91963  29.689  24.558  14.993
26737W        W91964  32.002  36.304   1.705
26738W        W91965  14.848  21.183  14.377
26739W        W91966  29.393  28.056   1.407
26740W        W91967  23.854  37.163   2.790
26741W        W91968  40.033  15.836  14.974
26742W        W91969  30.534  11.865   3.291
26743W        W91970  32.918   3.130   0.666
26744W        W91971  14.038  23.620  13.833
26745W        W91972  22.741  12.549  11.231
26746W        W91973   0.440  13.568  12.067
26747W        W91974  41.583   0.437   0.683
26748W        W91975   1.959  17.840  10.725
26749W        W91976  27.095   2.744   0.818
26750W        W91977  44.373  36.010   0.973
26751W        W91978  40.381  15.093   4.774
26752W        W91979  31.496   7.633   4.310
26753W        W91980   9.752   6.287   3.858
26754W        W91981  16.330  36.333   4.002
26755W        W91982   4.468   9.107   1.248
26756W        W91983  22.226   3.139  11.909
26757W        W91984  34.032  24.547  13.825
26758W        W91985  24.472  14.115   3.828
26759W        W91986  11.895  27.090  13.772
26760W        W91987  32.455  34.377  14.047
26761W        W91988  14.664  39.545  12.378
26762W        W91989  35.595  11.241  13.846
26763W        W91990  26.175  39.372   1.222
26764W        W91991  20.704  11.891  11.047
26765W        W91992  20.935  44.471   3.551
26766W        W91993   7.704  36.561   2.380
26767W        W91994  38.420  21.759   0.176
26768W        W91995  32.052  42.550   4.485
26769W        W91996  40.292  13.679  12.442
26770W        W91997  15.274  43.504   0.741
26771W        W91998  16.221   0.359   0.481
26772W        W91999  43.833  41.428  13.919
26773W        W92000  40.446   2.916  10.619
26774W        W92001   9.092  30.515   1.779
26775W        W92002  29.520  26.007  13.829
26776W        W92003  40.563   7.194   1.726
26777W        W92004  12.326  34.396  10.283
26778W        W92005   5.325  12.788  12.458
26779W        W92006  28.840  17.838   2.385
26780W        W92007  17.210  16.526   3.730
26781W        W92008  21.254  34.370   2.993
26782W        W92009   0.013   3.182   3.638
26783W        W92010  19.624  15.049  11.986
26784W        W92011  16.664  32.201   2.230
26785W        W92012   9.991  36.564   2.282
26786W        W92013  15.737   2.887  13.460
26787W        W92014   2.907   2.192   3.338
26788W        W92015  23.662  21.794  13.862
26789W        W92016   4.628  15.230  11.562
26790W        W92017  43.015  14.734   2.129
26791W        W92018  24.636  25.896   3.570
26792W        W92019  23.838  20.664  11.544
26793W        W92020  33.574   1.789  14.289
26794W        W92021  40.397  18.332  12.631
26795W        W92022  42.067  41.557   1.011
26796W        W92023  37.482  44.310   1.387
26797W        W92024  20.679  31.381  14.966
26798W        W92025  13.083   8.200   1.359
26799W        W92026   0.406   2.928   1.520
26800W        W92027  23.592   2.804  10.651
26801W        W92028  18.004  12.281   3.439
26802W        W92029   4.668  30.668  13.370
26803W        W92030   4.237  40.518   1.808
26804W        W92031  25.900  34.236  13.863
26805W        W92032  13.060   1.347  13.454
26806W        W92033   6.221  36.505   2.514
26807W        W92034  38.611  33.486   2.272
26808W        W92035  44.515  43.346  14.852
26809W        W92036  22.189  39.867  10.796
26810W        W92037   5.233  38.099  10.435
26811W        W92038  35.331  41.577   3.547
26812W        W92039  33.530   1.501   3.299
26813W        W92040  43.908  42.845   0.352
26814W        W92041  15.040   1.828   1.980
26815W        W92042  15.581  33.118   0.339
26816W        W92043  40.222  28.035  14.880
26817W        W92044  44.785   3.761  12.664
26818W        W92045  35.468  41.537  10.536
26819W        W92046  26.552   5.486   4.533
26820W        W92047   7.345  33.695  11.174
26821W        W92048  26.566  19.591  12.923
26822W        W92049  37.300  27.224   1.595
26823W        W92050  35.190  11.860  11.418
26824W        W92051  43.458  41.312   4.444
26825W        W92052   6.679  32.956   3.151
26826W        W92053   0.924  27.357  13.073
26827W        W92054  15.679  11.284   3.703
26828W        W92055  42.919  19.592   1.733
26829W        W92056  26.473  43.069   4.056
26830W        W92057  44.871  42.574  13.777
26831W        W92058  17.136  17.739  14.898
26832W        W92059  26.755  43.528  12.486
26833W        W92060  38.094   3.514   3.254
26834W        W92061   4.424   7.835   0.903
26835W        W92062  38.390  40.975  11.957
26836W        W92063  11.215  18.375   4.832
26837W        W92064  23.041  25.117  13.894
26838W        W92065   4.842  13.330   4.126
26839W        W92066  23.124  26.017  14.868
26840W        W92067  44.344  35.302   4.510
26841W        W92068  19.218  40.012  11.260
26842W        W92069  24.012  17.094   1.785
26843W        W92070  34.534  41.525  10.504
26844W        W92071  26.950  21.753   2.858
26845W        W92072  27.571   0.632   4.369
26846W        W92073   7.814  16.494  13.782
26847W        W92074  17.213   7.320  13.270
26848W        W92075   9.016   7.337   5.157
26849W        W92076  31.167  21.123   0.769
26850W        W92077  34.976  18.449  10.315
26851W        W92078  19.844   3.014  14.750
26852W        W92079  23.582  32.587  10.669
26853W        W92080  13.962  22.882   0.823
26854W        W92081  18.612  28.740  12.395
26855W        W92082  43.466  22.283   0.219
26856W        W92083  22.037   8.330  12.989
26857W        W92084   1.830   4.300   4.069
26858W        W92085  13.772  22.475   2.727
26859W        W92086  24.082   2.639   2.152
26860W        W92087  14.891   9.566   3.702
26861W        W92088  29.266   0.003   4.847
26862W        W92089  40.187  23.109   2.557
26863W        W92090  35.702  20.502  14.379
26864W        W92091  26.653  31.498   4.152
26865W        W92092  13.669  26.038   3.655
26866W        W92093   8.452  25.410   3.379
26867W        W92094   9.427  44.243   0.347
26868W        W92095  36.053  33.391   4.022
26869W        W92096  27.351  39.879  11.872
26870W        W92097  16.060  13.587  13.540
26871W        W92098  34.006  17.069  10.498
26872W        W92099   7.668  26.519   0.184
26873W        W92100  16.201  35.951   4.546
26874W        W92101  41.471   3.559   0.026
26875W        W92102  10.735  33.853  14.890
26876W        W92103  34.506  20.647  12.435
26877W        W92104   8.391   5.927  12.214
26878W        W92105  31.126  42.757  12.288
26879W        W92106   0.443  27.493   0.490
26880W        W92107  36.442  44.004  11.641
26881W        W92108   7.818  19.711   9.740
26882W        W92109  35.499  28.810   0.343
26883W        W92110   0.322  42.897  13.721
26884W        W92111   0.870   7.197   1.218
26885W        W92112  21.179  11.282  11.711
26886W        W92113  31.542  22.265  14.162
26887W        W92114  14.811  39.879   1.818
26888W        W92115  13.065  19.753  12.229
26889W        W92116   5.415  26.314   0.908
26890W        W92117   5.398  25.109  14.345
26891W        W92118  18.553   1.930  12.228
26892W        W92119  22.227  31.205   3.814
26893W        W92120  15.478   2.762  13.032
26894W        W92121  32.949  42.045   4.218
26895W        W92122  17.014  40.405  11.942
26896W        W92123  25.535   5.490   3.624
26897W        W92124  36.995  28.864   0.185
26898W        W92125  23.019  37.168  10.191
26899W        W92126  31.976   3.732  14.262
26900W        W92127  27.527  17.875  14.958
26901W        W92128   9.930   9.807  14.182
26902W        W92129  13.126  20.759  12.489
26903W        W92130  14.627  21.470  14.753
26904W        W92131  15.528  31.191   0.617
26905W        W92132  17.229   8.108  14.356
26906W        W92133  44.960  25.686   1.062
26907W        W92134  43.135  15.405  14.512
26908W        W92135  11.041  41.797   2.329
26909W        W92136   2.486  28.964  11.916
26910W        W92137  25.884  38.438  13.880
26911W        W92138  40.866  33.393   4.566
26912W        W92139   7.721  23.636   0.878
26913W        W92140  19.767  28.639   3.770
26914W        W92141   1.751  31.228  12.597
26915W        W92142  31.513   0.499  12.234
26916W        W92143  30.181  10.103   1.418
26917W        W92144  17.773  34.584   2.859
26918W        W92145   5.994  25.107   1.758
26919W        W92146  44.257  35.082   1.763
26920W        W92147   3.920  37.439   1.564
26921W        W92148  31.129   5.374  13.598
26922W        W92149  23.648  24.122   2.827
26923W        W92150  17.025  37.327  13.639
26924W        W92151  19.933  21.682  12.556
26925W        W92152  18.811  19.048  12.528
26926W        W92153  41.326  30.877  12.062
26927W        W92154  27.233  12.582   1.459
26928W        W92155  20.593  16.579   1.230
26929W        W92156  37.841  41.064   0.887
26930W        W92157  36.583  10.487   1.552
26931W        W92158  18.616  13.167   1.141
26932W        W92159   8.923  23.922  10.211
26933W        W92160  26.730   3.805  14.666
26934W        W92161  19.853   9.324   0.526
26935W        W92162   8.211  16.022   0.457
26936W        W92163  31.994   8.401  11.498
26937W        W92164  27.020  43.017  11.145
26938W        W92165  40.431  15.439   2.233
26939W        W92166  16.377  22.727   1.064
26940W        W92167  28.267  25.093  11.584
26941W        W92168  15.361  17.887   3.645
26942W        W92169  37.554  36.898   1.929
26943W        W92170   8.960  30.473  13.837
26944W        W92171  37.933  15.998   3.808
26945W        W92172  37.621  11.030   3.230
26946W        W92173  18.209  40.437   3.686
26947W        W92174  39.962   4.650  10.731
26948W        W92175  27.333  13.264  11.070
26949W        W92176  29.714  34.858   1.070
26950W        W92177   8.544  12.771  11.327
26951W        W92178  29.097  18.899  13.850
26952W        W92179  19.600  10.135   2.362
26953W        W92180  41.353  29.040  14.763
26954W        W92181   3.186  20.691  13.694
26955W        W92182  44.887   5.266  14.837
26956W        W92183   4.884  13.331   2.246
26957W        W92184  37.889  32.767  13.981
26958W        W92185  34.547  10.773  13.520
26959W        W92186  37.555   9.983   2.827
26960W        W92187  26.505   3.664  11.677
26961W        W92188  28.450  36.073   2.784
26962W        W92189  36.343  11.209   1.981
26963W        W92190  13.752   6.951   1.955
26964W        W92191  37.110  37.662  13.317
26965W        W92192  41.814  16.731  13.290
26966W        W92193  38.249  40.078  13.972
26967W        W92194  22.010  35.984   4.988
26968W        W92195   5.341  41.219   4.631
26969W        W92196  25.552   8.202   4.665
26970W        W92197  25.770  19.265   4.556
26971W        W92198  30.778  28.075  11.612
26972W        W92199   3.231  19.943   1.849
26973W        W92200  43.416   6.377  14.577
26974W        W92201  40.910  39.565   2.068
26975W        W92202  26.921  34.507   0.440
26976W        W92203  30.905   1.271  12.909
26977W        W92204  14.222   5.811   2.462
26978W        W92205  38.021  28.680  11.415
26979W        W92206   0.085  37.786   1.859
26980W        W92207  16.739  15.606   9.826
26981W        W92208   0.244   1.396  10.801
26982W        W92209  32.952  33.122   1.253
26983W        W92210   2.694  16.967  11.333
26984W        W92211  40.541   9.437   3.869
26985W        W92212  28.934   9.338   2.823
26986W        W92213  40.279  30.662  14.274
26987W        W92214  22.394  22.635   4.930
26988W        W92215   2.790  15.494  14.499
26989W        W92216  41.027  41.490   2.671
26990W        W92217  16.625  37.164  12.458
26991W        W92218  23.680  19.277   3.666
26992W        W92219  35.548  43.464   0.440
26993W        W92220  18.683  29.167   3.985
26994W        W92221  25.583  41.113   0.328
26995W        W92222  40.527  31.061  14.490
26996W        W92223   1.542  37.321  11.917
26997W        W92224  24.132  34.082   1.238
26998W        W92225  36.857  26.427   0.206
26999W        W92226  39.452  44.449   2.728
27000W        W92227   6.572  30.499   4.306
27001W        W92228  21.141  12.623  12.159
27002W        W92229   2.101  14.397   3.180
27003W        W92230  29.952  32.549  14.375
27004W        W92231  25.127  44.838  10.629
27005W        W92232  13.885  23.944  10.623
27006W        W92233  24.474  27.653  10.728
27007W        W92234  33.739  18.636   3.655
27008W        W92235  23.622  19.040   2.362
27009W        W92236  20.013  35.304  12.910
27010W        W92237  40.362  42.633  13.427
27011W        W92238   9.922  28.932  12.930
27012W        W92239  41.574   2.963   2.143
27013W        W92240  37.602  31.345  10.451
27014W        W92241  31.176  31.862   0.317
27015W        W92242  28.761  34.956   4.549
27016W        W92243  26.096  15.807   3.937
27017W        W92244  32.652  20.535   1.933
27018W        W92245   5.259  10.814  14.535
27019W        W92246  34.332  13.740   2.258
27020W        W92247  11.633   7.432   4.505
27021W        W92248  10.291  27.954  10.920
27022W        W92249  16.056  13.658   2.378
27023W        W92250   8.676  42.277   1.029
27024W        W92251  22.666  26.170   2.285
27025W        W92252  21.207  40.662  14.095
27026W        W92253  18.184  43.067  13.904
27027W        W92254  21.421  30.624  13.487
27028W        W92255  25.539  21.243   3.160
27029W        W92256  27.960   1.689   2.792
27030W        W92257   7.871  29.904  10.732
27031W        W92258  30.943  20.959   1.195
27032W        W92259  24.625  20.513  13.423
27033W        W92260   8.283  16.335   4.687
27034W        W92261   4.227  23.400   0.877
27035W        W92262  16.747  38.823  14.955
27036W        W92263   4.174  35.146  13.034
27037W        W92264   1.255  14.868   1.374
27038W        W92265  14.826  26.582  11.491
27039W        W92266  22.031  19.954  14.801
27040W        W92267  27.786  22.215  14.754
27041W        W92268  14.177  43.793   0.261
27042W        W92269   6.541  28.719   4.142
27043W        W92270  42.098  25.044  11.144
27044W        W92271  40.420  32.964  11.835
27045W        W92272  30.643  29.070   4.209
27046W        W92273   9.744  18.151   2.170
27047W        W92274  37.035   0.208  14.356
27048W        W92275   4.876  38.149  12.450
27049W        W92276  39.214  12.818   1.239
27050W        W92277  21.081   0.334  11.570
27051W        W92278  25.625  24.011  10.741
27052W        W92279   6.862  29.418   3.740
27053W        W92280  18.984  32.003   4.245
27054W        W92281  33.501   8.698   4.032
27055W        W92282  29.975   8.282   3.257
27056W        W92283  32.627  42.650  12.969
27057W        W92284   1.308  17.721   3.645
27058W        W92285  28.619  12.836   3.646
27059W        W92286  39.753  24.548  13.165
27060W        W92287  16.295  10.753   3.777
27061W        W92288   7.026  37.916   4.605
27062W        W92289  42.881   3.267  13.725
27063W        W92290  30.445  37.146  14.773
27064W        W92291  16.717  16.573  14.861
27065W        W92292  28.152  39.320  14.985
27066W        W92293  40.160  12.008   1.690
27067W        W92294  29.104   1.399   3.082
27068W        W92295  11.081  21.697  14.421
27069W        W92296  35.470  39.038  14.363
27070W        W92297  38.988   1.984  11.933
27071W        W92298  10.771  23.006   3.381
27072W        W92299  28.691   9.755   3.600
27073W        W92300  13.835  26.936  14.957
27074W        W92301   0.917  22.114   3.506
27075W        W92302  35.312  20.537   0.280
27076W        W92303  17.502  44.738   4.008
27077W        W92304   2.293  39.962  10.648
27078W        W92305  37.910  18.745   2.871
27079W        W92306  33.788  35.486   3.501
27080W        W92307   4.753  23.239  13.958
27081W        W92308  29.098  31.958  12.992
27082W        W92309   1.905  19.971   2.225
27083W        W92310   5.639  16.595  12.041
27084W        W92311  38.034   4.388  12.335
27085W        W92312  44.736  36.048  14.290
27086W        W92313  13.760  40.063  13.533
27087W        W92314  20.229  27.985   2.826
27088W        W92315  34.235  12.832   4.186
27089W        W92316  25.230  20.199   1.833
27090W        W92317  26.638  33.896   4.618
27091W        W92318  41.084   3.729   0.348
27092W        W92319  43.796  11.400  11.130
27093W        W92320   4.273  29.563   1.420
27094W        W92321  43.448  18.472  14.972
27095W        W92322   6.054  39.352  13.934
27096W        W92323  10.620  11.069  14.936
27097W        W92324  16.279  10.353   2.836
27098W        W92325  12.057  20.330  12.702
27099W        W92326  28.375  13.439  11.090
27100W        W92327  29.058   0.464  11.312
27101W        W92328   0.528  29.758   4.099
27102W        W92329  21.987  22.676  12.831
27103W        W92330  28.519   2.426   3.622
27104W        W92331  12.199  22.996  12.684
27105W        W92332  43.133  42.588   3.676
27106W        W92333  23.120  42.418  14.360
27107W        W92334  16.133  28.937   0.099
27108W        W92335   7.770  31.104  14.010
27109W        W92336  39.402  40.935   0.043
27110W        W92337  20.037  36.927  10.689
27111W        W92338  17.078   4.183   4.330
27112W        W92339  30.884  41.116  14.862
27113W        W92340  21.695  19.404   3.769
27114W        W92341  29.043  17.319  10.431
27115W        W92342  26.165  36.571  14.878
27116W        W92343  14.187  33.437   0.419
27117W        W92344  39.094  44.510  11.142
27118W        W92345  42.900  25.620  11.088
27119W        W92346  42.828  38.538   1.834
27120W        W92347  15.124  31.482  10.920
27121W        W92348  34.880  16.755  13.423
27122W        W92349  12.536   0.691  12.375
27123W        W92350  23.255  13.096   1.870
27124W        W92351  21.774  21.440  13.996
27125W        W92352  11.167   9.090   3.675
27126W        W92353  14.585  13.893   3.402
27127W        W92354  44.567  38.383   2.324
27128W        W92355   2.917   6.944  12.415
27129W        W92356   9.501   9.238  10.230
27130W        W92357  15.060   9.720  10.947
27131W        W92358  24.842  35.072  12.269
27132W        W92359  33.577  31.624   1.947
27133W        W92360   6.324  16.722  12.876
27134W        W92361  12.635   6.873   2.712
27135W        W92362   5.293   9.749   3.667
27136W        W92363  26.480  39.641   0.884
27137W        W92364  26.443  29.230   0.290
27138W        W92365   6.537  11.566  14.524
27139W        W92366  38.570  32.842   2.777
27140W        W92367  41.278  31.094   0.931
27141W        W92368  41.851  14.164  12.028
27142W        W92369  29.897  13.905   3.616
27143W        W92370   4.399  36.946  12.305
27144W        W92371  10.908  21.067  11.163
27145W        W92372  19.703  33.866   2.480
27146W        W92373   6.447  17.689  13.773
27147W        W92374  19.632   3.361  12.397
27148W        W92375   7.310  38.052  11.479
27149W        W92376  21.885  17.266  10.978
27150W        W92377  37.209  29.676  12.503
27151W        W92378  36.106  27.436   3.591
27152W        W92379  44.297  32.099  11.510
27153W        W92380  34.988  15.166  11.110
27154W        W92381  35.368   7.311  11.661
27155W        W92382  26.084  43.404  13.613
27156W        W92383  15.916  31.020   1.578
27157W        W92384  12.220  41.569  10.390
27158W        W92385  34.487  23.559   1.877
27159W        W92386  32.641  34.166  10.306
27160W        W92387  37.439  20.997  13.078
27161W        W92388  32.509  38.100   0.549
27162W        W92389  22.274   0.230  10.737
27163W        W92390  36.358  29.390   1.858
27164W        W92391   3.538   7.040   0.308
27165W        W92392   8.499  27.968   0.860
27166W        W92393  28.267  12.318  12.431
27167W        W92394  38.518   0.442   3.388
27168W        W92395  35.183  29.454  11.235
27169W        W92396  15.345   5.866  12.510
27170W        W92397  39.823  29.200  11.547
27171W        W92398  39.887   5.246   0.424
27172W        W92399  15.564  37.364  13.396
27173W        W92400  20.138  18.133  11.882
27174W        W92401  30.366  21.593   1.461
27175W        W92402  27.878  24.694   4.064
27176W        W92403   7.535  38.468  13.906
27177W        W92404  38.796  34.592   4.678
27178W        W92405  21.457  25.677  10.660
27179W        W92406   9.389  11.903   2.807
27180W        W92407   5.254  23.650  10.804
27181W        W92408  30.442   1.226  11.601
27182W        W92409   2.949  30.426   0.799
27183W        W92410   8.249  41.272   3.227
27184W        W92411  27.663  15.124  12.552
27185W        W92412   2.438  19.106   1.235
27186W        W92413   0.199  44.495   1.191
27187W        W92414  21.743  16.589  11.087
27188W        W92415   7.880  22.999  12.450
27189W        W92416  16.773  43.032  14.016
27190W        W92417  23.452  36.130  13.503
27191W        W92418  33.121  23.719  12.028
27192W        W92419   5.361   8.342   0.954
27193W        W92420  16.785  31.988  11.185
27194W        W92421  29.502   3.513  14.951
27195W        W92422  34.532  41.589  12.596
27196W        W92423  44.239  22.485   0.958
27197W        W92424  13.399  21.237  12.462
27198W        W92425  20.296  21.840   2.747
27199W        W92426   6.735   0.955   1.404
27200W        W92427   1.764  11.819   0.484
27201W        W92428  35.007   1.803  14.713
27202W        W92429  44.881  37.278   2.738
27203W        W92430  23.891  41.741  11.191
27204W        W92431  16.725   9.768  11.586
27205W        W92432  23.629  42.248   0.320
27206W        W92433  41.578  18.733  10.212
27207W        W92434  28.166  38.978  12.894
27208W        W92435   2.325  22.738  14.876
27209W        W92436  38.010  42.144  11.085
27210W        W92437  19.327  42.290   2.595
27211W        W92438  12.629  31.213   1.008
27212W        W92439  35.959   5.858  13.415
27213W        W92440  14.657  12.522   4.400
27214W        W92441  44.345   2.075   4.179
27215W        W92442  10.102  17.423  11.623
27216W        W92443  29.593  44.504  14.779
27217W        W92444  44.546   4.203   2.564
27218W        W92445  17.196   2.423  11.212
27219W        W92446  13.747  13.515   1.272
27220W        W92447  21.768   3.721  11.325
27221W        W92448  24.728   7.594  11.216
27222W        W92449  12.592   1.405   4.251
27223W        W92450   6.523  40.597  13.858
27224W        W92451  30.967  28.084  11.130
27225W        W92452  12.733  13.008   4.102
27226W        W92453  14.377  29.602  14.079
27227W        W92454  33.501  23.625  13.833
27228W        W92455   1.995  28.952   1.752
27229W        W92456  42.536  13.653   2.317
27230W        W92457  32.529  11.533   4.057
27231W        W92458  13.598  31.525   0.375
27232W        W92459  39.113   4.465  11.936
27233W        W92460  32.282  37.113   0.712
27234W        W92461  22.284  18.655  12.075
27235W        W92462   6.973  16.161  12.054
27236W        W92463  30.689  19.392  11.177
27237W        W92464   7.919  24.552  10.729
27238W        W92465  33.759  26.005   2.190
27239W        W92466   6.654  36.252  11.280
27240W        W92467  25.874  33.358   1.403
27241W        W92468  40.553  15.899   1.343
27242W        W92469   9.816  25.620   3.038
27243W        W92470  24.946  19.740   3.711
27244W        W92471  19.087  26.432   2.388
27245W        W92472  21.537  33.608  10.564
27246W        W92473   5.657  43.550   3.999
27247W        W92474  24.627  18.664   3.378
27248W        W92475  40.859  15.414  12.562
27249W        W92476  13.892  15.592   1.402
27250W        W92477  27.285  43.887  14.882
27251W        W92478  16.741  19.994   4.823
27252W        W92479  15.129   6.642   3.221
27253W        W92480  35.050  29.748   0.572
27254W        W92481  38.603  33.144  11.961
27255W        W92482   7.378  42.913   2.856
27256W        W92483  10.758  41.796  11.627
27257W        W92484  13.158   7.663   0.869
27258W        W92485  26.126  34.417   4.280
27259W        W92486   8.215  16.644  10.699
27260W        W92487  35.634  17.853  12.076
27261W        W92488  22.574  24.780   2.323
27262W        W92489  16.727  15.109  12.580
27263W        W92490   8.251   3.922   1.748
27264W        W92491  30.001  29.468  14.554
27265W        W92492  38.268  21.629   4.554
27266W        W92493  16.617   1.499   1.227
27267W        W92494   1.331   5.449  12.531
27268W        W92495  37.685  23.890  10.273
27269W        W92496  13.551  13.864   1.670
27270W        W92497  37.430  19.174   3.302
27271W        W92498  38.485  39.846   1.716
27272W        W92499  32.274  31.356  14.846
27273W        W92500  12.364  39.793  13.523
27274W        W92501   4.212  19.351  11.172
27275W        W92502   1.115  33.348  11.546
27276W        W92503   5.964  17.527  14.860
27277W        W92504  34.069  16.997   1.229
27278W        W92505  20.088  12.232  14.898
27279W        W92506  10.722  44.387   2.339
27280W        W92507  19.740   2.611  10.234
27281W        W92508  28.382   1.976  10.856
27282W        W92509  20.804   3.263   1.797
27283W        W92510  43.872  35.592  12.309
27284W        W92511  43.587  42.799  10.600
27285W        W92512  41.906  23.180   4.202
27286W        W92513   0.805  12.749  13.950
27287W        W92514  24.515  33.295   4.255
27288W        W92515  29.546  38.073   4.441
27289W        W92516  40.217  27.751  12.807
27290W        W92517  24.382  30.826  12.583
27291W        W92518  34.403  36.770   1.250
27292W        W92519  12.222  41.470   2.698
27293W        W92520  30.750  41.331   1.433
27294W        W92521  39.526  18.556   4.625
27295W        W92522  39.034  36.639  11.153
27296W        W92523   7.428  15.173  11.813
27297W        W92524  14.424  36.641   5.164
27298W        W92525  16.803  38.090  14.096
27299W        W92526  43.476  25.627   2.812
27300W        W92527   3.889   1.051  10.677
27301W        W92528  15.124  11.262   1.923
27302W        W92529  29.370  26.148   3.668
27303W        W92530  16.715   2.832  12.061
27304W        W92531  12.874   0.077   0.848
27305W        W92532  10.044  28.205  14.749
27306W        W92533  20.682  35.148   3.911
27307W        W92534  42.760  32.005   2.267
27308W        W92535  43.341  23.450   1.760
27309W        W92536  21.698  33.071   3.201
27310W        W92537   7.797  33.084   3.328
27311W        W92538  34.873   7.072   4.990
27312W        W92539  42.074  44.168  10.364
27313W        W92540  42.351  20.818  10.665
27314W        W92541  13.952   7.968   1.133
27315W        W92542  28.415  27.458  13.784
27316W        W92543  21.206  40.389   0.478
27317W        W92544  24.375  36.822   2.358
27318W        W92545  26.584  15.627   5.108
27319W        W92546  36.532   4.325   0.716
27320W        W92547   0.053  21.744   3.297
27321W        W92548   3.171  17.105   2.329
27322W        W92549   6.882   1.688  13.965
27323W        W92550  36.360  36.244   4.162
27324W        W92551  14.857   8.734  13.906
27325W        W92552  29.123  28.398  11.631
27326W        W92553  28.904  34.044   3.616
27327W        W92554  25.694  30.901   3.518
27328W        W92555  28.491  29.747  13.900
27329W        W92556  28.102  24.001   2.215
27330W        W92557  26.526  39.914  11.042
27331W        W92558  36.659  28.252  12.105
27332W        W92559  25.011  40.058  11.047
27333W        W92560  28.510  16.318  11.881
27334W        W92561  21.534   7.600  10.790
27335W        W92562  13.297  33.555   2.292
27336W        W92563  36.925  38.577   3.597
27337W        W92564  14.186  31.174  13.474
27338W        W92565  34.465  25.841  11.709
27339W        W92566  27.633  24.341   0.595
27340W        W92567  29.908   4.843   1.167
27341W        W92568  26.158  26.159   0.958
27342W        W92569  13.634  15.193   0.864
27343W        W92570  42.587  29.687  12.371
27344W        W92571   9.093  19.299   9.679
27345W        W92572   6.763  33.882  13.182
27346W        W92573   5.657  13.780   3.491
27347W        W92574  22.500  12.634   2.771
27348W        W92575  44.927  27.668   0.501
27349W        W92576  37.416  39.062  14.055
27350W        W92577  18.774   9.289  12.073
27351W        W92578  17.179  10.387  11.142
27352W        W92579  34.284  10.496  13.042
27353W        W92580  11.820   8.261   1.849
27354W        W92581  10.814  11.695  10.208
27355W        W92582  20.586  18.073   4.607
27356W        W92583  25.507  19.964   1.365
27357W        W92584  28.423  10.182   1.686
27358W        W92585  13.959  25.547   2.769
27359W        W92586  25.601  18.099  13.808
27360W        W92587  36.572  37.067  11.533
27361W        W92588   4.209  31.914   4.771
27362W        W92589   7.487  14.481  13.895
27363W        W92590  15.611  29.370   1.362
27364W        W92591  28.605  13.807   1.948
27365W        W92592  34.267  11.963  14.418
27366W        W92593  10.210   3.235  10.772
27367W        W92594  15.727  33.170   4.099
27368W        W92595   3.918  33.651   4.638
27369W        W92596   2.890  33.313  13.444
27370W        W92597  11.287  37.928   4.671
27371W        W92598   3.259  25.778  14.307
27372W        W92599  19.659  24.250   1.733
27373W        W92600  26.061   3.911  13.261
27374W        W92601  32.183  24.734   3.576
27375W        W92602  43.243   5.323  11.150
27376W        W92603  19.574  28.442  10.666
27377W        W92604  44.732   1.847   1.934
27378W        W92605  44.018  43.987  14.291
27379W        W92606  16.914  23.684   0.613
27380W        W92607  34.505  39.313   4.547
27381W        W92608  10.965  24.535  10.699
27382W        W92609  15.880  11.908  10.729
27383W        W92610   0.940  39.974   1.310
27384W        W92611   8.913  17.587   5.033
27385W        W92612  23.130   9.417   1.733
27386W        W92613   8.861  19.528   0.793
27387W        W92614  10.613  15.751   0.810
27388W        W92615  36.306   5.214  10.178
27389W        W92616  43.834   3.155  11.645
27390W        W92617  26.478   2.885   2.949
27391W        W92618   1.136  35.578   3.328
27392W        W92619  40.115  12.260  12.645
27393W        W92620  43.865  36.362  14.875
27394W        W92621  33.931  13.804  13.310
27395W        W92622  14.033  44.813   2.790
27396W        W92623  42.905  29.234   4.537
27397W        W92624  34.518   7.993  12.147
27398W        W92625  19.897  24.469   0.044
27399W        W92626  34.944  11.306   1.953
27400W        W92627  20.275   4.219   3.065
27401W        W92628   5.784  32.517   1.438
27402W        W92629  11.229  28.082  10.567
27403W        W92630  28.694  12.938  11.113
27404W        W92631  32.955   3.309   2.156
27405W        W92632  34.906   6.946  11.595
27406W        W92633  26.558  25.646  11.482
27407W        W92634  44.422  18.375  12.615
27408W        W92635  19.053   0.643   3.117
27409W        W92636   0.070  33.913   4.214
27410W        W92637  44.314  37.838  10.691
27411W        W92638  10.466  43.990  10.858
27412W        W92639  16.954   8.447   0.249
27413W        W92640  30.340  15.102  14.001
27414W        W92641  43.485  44.297  11.020
27415W        W92642  22.473  18.498  10.061
27416W        W92643   4.990  17.837  12.371
27417W        W92644  29.396  29.676  11.055
27418W        W92645  12.663  29.939  14.857
27419W        W92646   8.331   4.702   3.242
27420W        W92647  26.713  13.242   2.682
27421W        W92648  18.475  41.236  11.643
27422W        W92649  18.580  32.509   3.058
27423W        W92650   3.021  10.132   2.255
27424W        W92651  15.424  34.526   1.489
27425W        W92652  40.486  18.296   4.214
27426W        W92653  35.837  38.410  11.879
27427W        W92654   2.223  25.607  10.129
27428W        W92655   2.765   3.543  14.530
27429W        W92656  40.313  16.179   3.934
27430W        W92657  26.998  20.097   4.659
27431W        W92658  27.659   5.821   3.122
27432W        W92659   7.791  28.186   3.134
27433W        W92660   8.761  18.355   2.272
27434W        W92661  33.869   7.407   2.903
27435W        W92662  36.383  17.369   2.391
27436W        W92663  36.808  23.994  10.705
27437W        W92664  37.325  12.326   4.928
27438W        W92665  16.120  12.787   3.397
27439W        W92666  30.054  32.001   4.872
27440W        W92667   4.363  12.948  12.440
27441W        W92668  12.211  19.231  11.906
27442W        W92669  32.580   2.685  14.755
27443W        W92670  38.843  11.719  13.078
27444W        W92671  19.684  34.686   4.632
27445W        W92672  37.432  34.023   1.429
27446W        W92673  24.470  41.880   1.388
27447W        W92674  36.477  18.866   1.359
27448W        W92675  17.566  23.008   2.777
27449W        W92676   7.818  44.317  10.739
27450W        W92677  39.291   8.288  14.261
27451W        W92678  22.110  14.632   3.732
27452W        W92679   2.758  19.760   1.214
27453W        W92680  35.611  24.272  14.004
27454W        W92681  44.772  36.788  13.001
27455W        W92682  20.086  19.314  13.808
27456W        W92683  28.654  31.494  10.611
27457W        W92684  18.583  14.644   1.240
27458W        W92685  44.248  25.213   2.780
27459W        W92686   0.730  44.382   1.290
27460W        W92687  38.106  34.663   3.283
27461W        W92688  26.971  28.091   2.168
27462W        W92689  26.166  16.107  10.432
27463W        W92690   0.196   1.128  11.220
27464W        W92691  36.422  26.358  12.481
27465W        W92692  39.507  13.027  12.901
27466W        W92693  27.316  27.957  12.466
27467W        W92694  42.516  10.612  11.151
27468W        W92695  19.205  39.994   4.485
27469W        W92696  30.720  29.434  14.055
27470W        W92697  15.096  30.967   0.431
27471W        W92698  28.640  19.243  13.800
27472W        W92699  21.937  33.731  11.581
27473W        W92700  42.428  39.522   2.434
27474W        W92701   7.851  42.602   3.287
27475W        W92702  27.531   3.559  14.775
27476W        W92703  33.670   6.054   0.526
27477W        W92704  19.001  14.924   4.196
27478W        W92705   9.102  41.468  10.217
27479W        W92706  14.602  32.705  11.283
27480W        W92707   8.732   0.023   4.322
27481W        W92708  29.453  18.451   0.755
27482W        W92709  10.475  30.543  14.370
27483W        W92710  13.649   4.415   3.197
27484W        W92711  41.083   1.264   1.794
27485W        W92712  14.283  16.067  14.543
27486W        W92713  43.974   1.642  12.294
27487W        W92714   3.237  31.388   2.177
27488W        W92715  44.792  27.708   3.279
27489W        W92716  27.271  32.206  13.559
27490W        W92717  33.865  13.907  11.969
27491W        W92718  16.350  34.472   3.074
27492W        W92719  42.433  30.706  10.664
27493W        W92720  18.957   3.899   3.247
27494W        W92721   8.994  34.432   2.791
27495W        W92722   2.267  39.794  14.036
27496W        W92723   6.808   5.170   3.341
27497W        W92724  27.041  41.897  14.312
27498W        W92725  28.082  28.012   3.247
27499W        W92726   0.504   5.778  11.586
27500W        W92727  30.386   1.530   4.158
27501W        W92728  20.003  35.299   2.788
27502W        W92729  23.171  10.768   2.109
27503W        W92730  18.495  20.170   1.541
27504W        W92731  34.983   6.820  14.778
27505W        W92732   5.406  13.124  10.848
27506W        W92733  26.708   5.299   0.780
27507W        W92734  23.772  19.096  10.606
27508W        W92735  19.774  33.965   4.775
27509W        W92736  43.292   6.877  14.738
27510W        W92737  16.141  16.624   1.335
27511W        W92738  16.511   1.450  12.428
27512W        W92739  23.150   4.204   2.300
27513W        W92740  38.777  13.159  13.413
27514W        W92741  13.210  13.271  12.505
27515W        W92742  40.926  23.337   1.868
27516W        W92743  33.527   6.957   4.917
27517W        W92744  43.047  13.423  14.186
27518W        W92745   3.153  21.588   4.345
27519W        W92746  28.872  14.654  12.506
27520W        W92747  34.427  26.167  10.969
27521W        W92748  24.459  13.847  13.170
27522W        W92749   3.210  14.511   1.553
27523W        W92750  33.031  36.915   1.607
27524W        W92751  44.281   0.955   0.331
27525W        W92752  10.981  18.561   1.262
27526W        W92753   2.987   6.210   4.364
27527W        W92754  30.024  33.725   1.265
27528W        W92755   9.901  42.577   2.770
27529W        W92756   3.105  14.146  12.474
27530W        W92757  23.078  36.505  10.813
27531W        W92758  25.966   1.872   0.891
27532W        W92759  44.236  21.820  13.922
27533W        W92760  13.469  37.851  13.207
27534W        W92761  14.260  12.910   3.245
27535W        W92762   8.681  13.731  11.451
27536W        W92763   3.880  23.378  11.109
27537W        W92764   6.764   2.437   4.640
27538W        W92765   5.323  20.696  10.347
27539W        W92766   6.789  12.264   4.837
27540W        W92767  20.109  39.597  11.199
27541W        W92768   2.322  32.503   1.317
27542W        W92769  22.814   5.656  12.517
27543W        W92770  31.096   5.040   4.268
27544W        W92771  37.019   6.784   1.249
27545W        W92772  34.597  10.027  13.033
27546W        W92773  38.992   8.268  12.499
27547W        W92774  44.827  19.909   1.460
27548W        W92775  15.674  38.299   1.847
27549W        W92776   8.477  30.476  12.357
27550W        W92777  32.912  38.567   0.577
27551W        W92778  36.710  42.922  10.982
27552W        W92779  15.328  28.237   0.291
27553W        W92780  18.590   7.731   2.673
27554W        W92781  26.131   1.232   2.349
27555W        W92782  17.669  37.642  13.126
27556W        W92783  42.285  28.741   3.007
27557W        W92784   3.666  33.467   3.414
27558W        W92785  26.646   2.321   0.639
27559W        W92786  20.722  32.943   3.888
27560W        W92787  13.325  14.052   3.656
27561W        W92788  38.371  23.071  14.724
27562W        W92789  34.111  32.583  12.399
27563W        W92790  28.879  10.931   4.485
27564W        W92791  43.792  40.959   4.183
27565W        W92792  43.270  42.804  12.661
27566W        W92793  25.810   5.261  14.051
27567W        W92794  17.637  29.609   4.635
27568W        W92795   0.570  21.460   2.201
27569W        W92796  33.005  39.946   3.426
27570W        W92797  14.098  25.601  13.520
27571W        W92798  18.999  35.164   1.550
27572W        W92799  24.774  10.890  11.181
27573W        W92800  22.043  16.104   0.478
27574W        W92801  38.478  25.483   2.646
27575W        W92802  14.189   0.705  13.857
27576W        W92803  38.746  12.619   0.400
27577W        W92804  16.059  16.472   4.610
27578W        W92805   4.883  29.396   3.382
27579W        W92806  39.720   9.005  12.904
27580W        W92807  22.537  10.796  13.090
27581W        W92808  42.803   6.669   1.907
27582W        W92809   5.926   8.314   3.387
27583W        W92810  43.500  42.094   1.291
27584W        W92811   5.850   3.264  14.927
27585W        W92812  40.338  39.079  12.923
27586W        W92813  36.417  11.808   1.471
27587W        W92814  17.348   4.420  13.441
27588W        W92815  36.974  13.208  12.599
27589W        W92816  17.085  37.650  11.166
27590W        W92817  21.733  17.851  13.658
27591W        W92818  29.770   3.485  10.417
27592W        W92819  23.704  25.944   1.654
27593W        W92820  28.558  41.251  13.053
27594W        W92821  33.020  40.411  10.357
27595W        W92822  28.969  34.532   3.801
27596W        W92823  25.188  30.856   4.796
27597W        W92824   4.329  36.997  11.801
27598W        W92825  25.019   4.507   0.454
27599W        W92826  13.913  27.436   4.221
27600W        W92827  43.343  27.920   4.535
27601W        W92828  20.875  42.254   1.399
27602W        W92829  12.934   6.655  11.628
27603W        W92830  17.462  40.052  13.562
27604W        W92831   5.138  40.255  11.168
27605W        W92832   6.189  18.312   0.465
27606W        W92833  35.700  11.593  14.521
27607W        W92834  25.144  24.038  13.873
27608W        W92835  30.222  10.595   1.189
27609W        W92836  13.777  29.504   4.868
27610W        W92837  21.088  29.705  14.463
27611W        W92838  24.541  36.087  11.037
27612W        W92839  36.822  41.878  12.873
27613W        W92840  35.061  38.335  11.913
27614W        W92841   3.925  17.032  14.403
27615W        W92842  23.052   9.636  13.255
27616W        W92843  31.036  15.319   2.773
27617W        W92844  18.828  21.753   0.769
27618W        W92845  32.573  25.198   4.381
27619W        W92846  37.323  28.017   2.250
27620W        W92847   3.788   5.642   2.739
27621W        W92848  21.201  43.190   2.845
27622W        W92849   7.183  34.778   0.506
27623W        W92850  27.186  33.212  14.415
27624W        W92851   2.956  23.716   3.628
27625W        W92852  36.676  40.456   0.456
27626W        W92853  40.105  33.500  11.569
27627W        W92854  25.431  29.562  13.877
27628W        W92855   8.835  28.652   3.077
27629W        W92856  13.822  14.726   3.260
27630W        W92857  11.768  16.836  12.865
27631W        W92858  11.348   2.662   2.121
27632W        W92859  40.211   8.773  12.914
27633W        W92860  20.227   9.220   2.639
27634W        W92861   2.817  42.273  14.978
27635W        W92862  34.530  16.814   4.761
27636W        W92863   8.992   0.495   3.351
27637W        W92864   5.679   2.295  13.575
27638W        W92865   1.577   3.314  13.857
27639W        W92866  32.564   4.487   0.014
27640W        W92867   8.335  41.119  10.796
27641W        W92868   1.087  22.627  12.505
27642W        W92869  14.726  11.182  13.075
27643W        W92870  38.827   1.191  11.670
27644W        W92871  18.699   5.932  11.475
27645W        W92872  17.246  15.835  12.552
27646W        W92873  32.472  44.105  14.278
27647W        W92874  42.589  26.160  12.244
27648W        W92875  23.681  41.474   4.624
27649W        W92876  40.048  36.497  11.160
27650W        W92877  22.429  29.072  14.773
27651W        W92878  21.130   0.101  12.068
27652W        W92879  30.711  32.099   0.394
27653W        W92880  32.471  35.148  14.465
27654W        W92881  39.086   6.841   2.202
27655W        W92882  31.909   4.850  14.944
27656W        W92883  34.154  28.490  12.040
27657W        W92884  15.730  42.536  13.810
27658W        W92885  40.953  32.695  11.472
27659W        W92886   1.846  26.982  12.820
27660W        W92887  24.604   8.434  14.481
27661W        W92888  15.686  14.341  13.636
27662W        W92889   2.701   1.346  14.344
27663W        W92890  41.375  38.800   4.390
27664W        W92891  28.177   7.776  13.577
27665W        W92892   8.630   8.544  11.598
27666W        W92893  38.449  15.961   3.856
27667W        W92894  18.399   1.415   3.655
27668W        W92895  30.359  26.423  13.986
27669W        W92896   5.852  15.906  11.572
27670W        W92897   0.015  38.918   2.851
27671W        W92898  23.490  32.385  12.245
27672W        W92899  28.995  26.399  12.417
27673W        W92900  24.917  38.607  12.941
27674W        W92901   8.226   3.975   0.833
27675W        W92902   4.744   0.811   2.677
27676W        W92903  26.922  14.284   2.039
27677W        W92904  40.856   2.488  13.180
27678W        W92905  26.338   0.909  10.025
27679W        W92906  35.513  33.860   3.381
27680W        W92907  30.645   8.954  14.302
27681W        W92908  14.654  18.999   4.207
27682W        W92909  44.824   0.497   0.957
27683W        W92910  19.530   7.302  14.493
27684W        W92911  22.094  44.736  11.941
27685W        W92912  32.417   1.970  11.089
27686W        W92913  36.422   6.129  13.307
27687W        W92914   9.852  24.008  12.989
27688W        W92915   3.450  33.015   1.879
27689W        W92916  20.659  25.213  14.056
27690W        W92917  31.501  39.818   4.552
27691W        W92918   2.960  41.275   3.044
27692W        W92919  14.848  11.695   0.417
27693W        W92920  32.610  34.996  10.606
27694W        W92921  15.225  39.543   4.101
27695W        W92922  44.748  43.628   3.102
27696W        W92923  27.213  25.803   1.306
27697W        W92924   0.275   4.332  14.285
27698W        W92925  33.606  43.710   3.968
27699W        W92926   4.696  39.440   1.296
27700W        W92927   7.234  41.896  10.657
27701W        W92928  32.006  39.813  12.899
27702W        W92929  11.797  25.554   1.914
27703W        W92930  37.356  32.069   4.347
27704W        W92931  29.813  14.355  10.528
27705W        W92932   8.423  40.654  14.389
27706W        W92933  23.970  43.046   4.055
27707W        W92934  39.536  29.929  14.386
27708W        W92935  28.933  17.469   1.652
27709W        W92936  43.700  23.573   2.534
27710W        W92937  27.513  14.599   1.282
27711W        W92938  42.486  15.739   3.282
27712W        W92939  27.722  29.408   2.886
27713W        W92940  13.366  11.757   1.928
27714W        W92941  26.603  30.663   1.416
27715W        W92942  39.624  20.018  14.542
27716W        W92943  28.082   6.537  10.593
27717W        W92944  16.516  17.757   4.215
27718W        W92945  40.027  44.905  11.987
27719W        W92946  23.160  29.137  13.054
27720W        W92947   9.331  41.562   0.807
27721W        W92948  21.112   5.498   1.279
27722W        W92949  43.819  41.869  13.652
27723W        W92950  23.431  30.448  11.123
27724W        W92951  26.463   2.116   4.229
27725W        W92952   9.511  14.746   1.304
27726W        W92953   2.819  42.795   4.199
27727W        W92954   6.367  38.379   1.214
27728W        W92955  13.586  38.967  13.981
27729W        W92956  21.146   1.309  12.590
27730W        W92957   4.293  13.407  10.964
27731W        W92958  19.177  16.358  13.571
27732W        W92959  36.870  40.449  14.580
27733W        W92960  11.913  16.357   2.925
27734W        W92961  41.953  20.166   1.415
27735W        W92962   2.935  13.060  14.299
27736W        W92963  14.561  28.130  10.831
27737W        W92964  39.527   4.601   4.906
27738W        W92965  22.604  41.761   4.297
27739W        W92966   6.546  23.923  13.982
27740W        W92967  36.969  34.059  11.651
27741W        W92968  25.776  16.648  14.024
27742W        W92969  44.340  39.680   0.989
27743W        W92970  26.531  27.065  11.066
27744W        W92971  44.986  37.685  12.991
27745W        W92972  39.533  32.528   3.774
27746W        W92973  14.884  35.465  13.904
27747W        W92974  36.472   9.430   1.249
27748W        W92975  41.040   7.409   4.173
27749W        W92976  42.886  29.642  11.287
27750W        W92977  11.826  35.822  10.283
27751W        W92978  37.954   0.980   2.866
27752W        W92979  23.987  16.117  13.988
27753W        W92980  21.243  16.980   4.063
27754W        W92981   9.403   7.126   1.000
27755W        W92982  38.842  29.184  14.504
27756W        W92983  30.902  35.001  11.712
27757W        W92984  20.285  34.156   1.226
27758W        W92985  18.831   3.927  14.954
27759W        W92986  18.327   1.822  11.798
27760W        W92987  17.755   6.243   0.306
27761W        W92988   1.064  22.572  13.952
27762W        W92989  23.741  39.063  11.096
27763W        W92990  13.861  17.262   1.767
27764W        W92991   4.916   0.797   0.806
27765W        W92992   9.454  32.625   3.775
27766W        W92993  23.585  33.846   3.317
27767W        W92994   4.838  13.931  10.495
27768W        W92995  21.765  41.945   4.095
27769W        W92996  34.683  34.497   4.384
27770W        W92997  12.378   2.838   1.867
27771W        W92998   2.505  29.274  12.747
27772W        W92999  32.886   9.114  12.071
27773W        W93000   7.344   5.671  11.286
27774W        W93001  23.493  10.639  14.062
27775W        W93002   4.486  40.057   4.070
27776W        W93003  18.441  22.930   0.071
27777W        W93004   6.230  14.169  10.761
27778W        W93005  20.742  11.907  14.567
27779W        W93006  26.699  22.123   2.287
27780W        W93007   6.835  24.632   1.228
27781W        W93008  13.437  11.729   4.479
27782W        W93009  43.078  33.134   4.087
27783W        W93010   6.393  33.621  12.930
27784W        W93011  41.715  35.980  11.095
27785W        W93012  42.424  24.685   3.547
27786W        W93013  13.482   1.986  11.664
27787W        W93014  43.136  35.376  14.004
27788W        W93015  18.961  11.531   5.268
27789W        W93016  40.584  22.748  10.361
27790W        W93017  27.907  24.747  12.501
27791W        W93018   7.860  44.076   4.119
27792W        W93019  13.768  38.122   2.828
27793W        W93020   5.642  20.607   3.332
27794W        W93021   6.087  42.903  13.331
27795W        W93022  19.484  31.885   4.303
27796W        W93023  17.170  44.702  11.732
27797W        W93024  18.625  13.416   4.492
27798W        W93025  12.457  12.653  13.870
27799W        W93026  13.843   7.239   2.799
27800W        W93027  21.823  23.703   2.561
27801W        W93028  39.021  20.576  12.384
27802W        W93029  12.647  31.028   2.467
27803W        W93030   3.837  31.305   1.798
27804W        W93031  12.609  10.971  12.950
27805W        W93032   5.966  39.280   1.623
27806W        W93033  14.511  34.807  14.668
27807W        W93034  12.981  40.034  11.157
27808W        W93035  32.575  29.287   3.150
27809W        W93036  29.989  30.006   3.408
27810W        W93037   7.149  36.863   2.699
27811W        W93038  15.625  16.559   1.300
27812W        W93039  19.695  17.211   1.236
27813W        W93040  24.280  12.605  13.912
27814W        W93041  40.303  40.872  12.465
27815W        W93042   0.905   9.189  13.709
27816W        W93043   2.832   4.380  11.547
27817W        W93044   5.779  19.689  13.657
27818W        W93045   2.087  23.678   1.350
27819W        W93046  34.832  44.806   0.636
27820W        W93047  11.596  29.627   0.298
27821W        W93048  18.531  16.624  13.420
27822W        W93049  18.951  27.184  13.533
27823W        W93050   4.403  16.854  14.435
27824W        W93051  42.317  32.443  14.424
27825W        W93052  44.369  22.174  10.511
27826W        W93053  38.509  26.418  11.649
27827W        W93054  41.992  27.930  12.602
27828W        W93055  17.255   3.343   3.680
27829W        W93056  36.987   9.697   4.578
27830W        W93057   5.209  20.667  10.855
27831W        W93058   6.020  43.450  11.164
27832W        W93059  13.266  36.511  14.036
27833W        W93060  19.990   0.338  10.734
27834W        W93061  26.577  25.031   5.096
27835W        W93062  39.945  31.115  12.925
27836W        W93063  25.108  17.976  14.839
27837W        W93064   5.248  34.445  12.516
27838W        W93065  20.988  10.685  13.019
27839W        W93066   7.160   9.804  13.544
27840W        W93067  37.941  17.021  14.383
27841W        W93068  15.913  20.997   5.061
27842W        W93069  11.644  36.940   0.900
27843W        W93070  25.669  33.359  10.946
27844W        W93071  41.308  40.361   2.290
27845W        W93072  31.504   2.624   0.990
27846W        W93073  23.120  30.876  13.163
27847W        W93074  26.118  29.428   3.246
27848W        W93075  30.908  24.441  10.479
27849W        W93076  41.308  35.349  13.017
27850W        W93077  38.653  14.028  10.472
27851W        W93078  29.709  43.452   3.234
27852W        W93079   3.985  10.690  11.700
27853W        W93080  17.911  34.489   1.415
27854W        W93081  12.777  21.153   0.802
27855W        W93082  14.899  15.555  10.349
27856W        W93083  43.115   6.201   3.325
27857W        W93084  31.631  39.419  11.033
27858W        W93085  25.494  37.027  11.123
27859W        W93086   7.628  40.629  10.021
27860W        W93087  33.253  29.598  12.047
27861W        W93088   3.521  14.086   0.421
27862W        W93089  44.952  15.154   5.032
27863W        W93090  41.918  42.787  14.294
27864W        W93091  32.960   4.876   0.358
27865W        W93092   2.678   7.391  12.234
27866W        W93093  23.908  43.049  11.285
27867W        W93094  34.649   3.799  13.028
27868W        W93095   7.727  20.654  12.451
27869W        W93096   0.349   2.832   3.478
27870W        W93097   1.949   9.276   3.655
27871W        W93098  13.906  12.360   4.229
27872W        W93099  15.516   2.792   3.819
27873W        W93100  34.962  13.248  13.789
27874W        W93101  34.452  21.215  10.456
27875W        W93102   5.389   2.970   4.068
27876W        W93103  16.315  10.289   9.717
27877W        W93104   2.984  22.169  12.377
27878W        W93105   3.176  32.641   3.199
27879W        W93106  11.052   8.571   2.211
27880W        W93107   3.460   6.885   3.896
27881W        W93108   2.462  22.696   1.794
27882W        W93109  13.834   1.896  10.815
27883W        W93110  29.215  35.590  14.927
27884W        W93111  16.026  40.834  12.505
27885W        W93112  22.144  43.444   2.359
27886W        W93113   5.238  34.877  12.121
27887W        W93114   8.897  26.855  11.339
27888W        W93115  39.336  30.052  11.618
27889W        W93116  11.613  12.357  13.836
27890W        W93117  38.008  16.516  12.635
27891W        W93118   0.033  32.107  12.500
27892W        W93119  17.991   3.607   1.992
27893W        W93120   4.762  23.442   2.364
27894W        W93121  12.502  38.490   4.048
27895W        W93122  15.562  16.401   4.789
27896W        W93123   5.212  30.856  14.403
27897W        W93124   9.331   1.878   4.092
27898W        W93125   9.687   0.684  14.807
27899W        W93126  28.995  33.632  12.503
27900W        W93127  21.524  17.113  14.760
27901W        W93128  37.927  35.077  11.231
27902W        W93129  31.493  32.016   2.508
27903W        W93130  44.855   5.143  13.493
27904W        W93131  17.686   6.998  12.733
27905W        W93132  41.514   9.880  11.493
27906W        W93133   0.394  32.332   3.095
27907W        W93134  27.320  29.538  10.138
27908W        W93135  37.865  35.942  13.314
27909W        W93136   6.809  29.709  12.580
27910W        W93137  13.596  41.989   2.401
27911W        W93138  44.737   0.004  13.807
27912W        W93139   3.842  30.180   0.843
27913W        W93140  34.120  28.832   4.558
27914W        W93141  44.104   0.007   1.732
27915W        W93142  40.923  28.474  11.908
27916W        W93143   4.680  24.041   0.437
27917W        W93144  18.445  34.582  13.943
27918W        W93145  13.913   8.953  14.203
27919W        W93146  19.516  25.559  12.499
27920W        W93147  43.754   5.834  14.283
27921W        W93148  33.864   9.844  14.135
27922W        W93149  42.456   6.759  11.550
27923W        W93150  30.459  10.234  10.822
27924W        W93151   0.020  30.988   4.573
27925W        W93152   2.778  44.283  14.853
27926W        W93153   1.235  24.131  12.128
27927W        W93154   2.267  44.650  12.431
27928W        W93155  23.373   2.667   0.367
27929W        W93156  28.067  14.065  14.854
27930W        W93157  28.429  25.732  12.764
27931W        W93158  44.515  10.765  14.252
27932W        W93159  29.735   1.332  14.587
27933W        W93160  34.604  20.274   2.860
27934W        W93161  44.090  20.039  12.899
27935W        W93162   6.123   0.439   3.793
27936W        W93163  33.847  16.300   0.873
27937W        W93164  44.221  17.224  13.166
27938W        W93165  41.061   4.426   2.855
27939W        W93166  39.411  25.767   2.879
27940W        W93167  13.364  23.974  13.131
27941W        W93168  22.619  35.302   3.577
27942W        W93169  28.994  38.491   1.910
27943W        W93170  41.119  27.907   1.586
27944W        W93171   2.342  29.031   3.551
27945W        W93172  18.803  11.324  14.896
27946W        W93173  32.396  12.702   0.407
27947W        W93174  35.513   4.237   3.244
27948W        W93175  43.781  23.974  11.943
27949W        W93176  13.077  23.211   2.706
27950W        W93177   5.655  29.503  13.018
27951W        W93178  39.143  18.124   0.200
27952W        W93179  18.471   7.973   0.868
27953W        W93180  16.750  22.536   0.732
27954W        W93181   5.379  11.581   0.868
27955W        W93182  12.791   6.945  14.074
27956W        W93183  13.798  18.546   1.494
27957W        W93184   0.784  40.828   4.347
27958W        W93185   1.947  24.156   4.200
27959W        W93186  34.963  28.630   4.871
27960W        W93187   4.816  34.034  10.827
27961W        W93188  14.581  20.013   3.941
27962W        W93189  15.812  28.942   2.447
27963W        W93190  25.242  28.677  14.718
27964W        W93191  30.525   6.905   1.823
27965W        W93192  24.697  12.337  14.744
27966W        W93193  17.259  40.864   2.790
27967W        W93194   3.068  24.516  14.992
27968W        W93195   7.428   3.757   3.385
27969W        W93196   5.547  15.877   1.839
27970W        W93197  31.632   2.853   1.913
27971W        W93198  29.906  18.647   2.227
27972W        W93199  26.507  25.223  11.196
27973W        W93200  15.837  39.299   2.771
27974W        W93201  41.808  31.115   4.327
27975W        W93202  34.888  32.044  10.719
27976W        W93203  44.516   4.220  13.770
27977W        W93204  43.950  21.499  12.901
27978W        W93205  30.715   8.890  10.489
27979W        W93206  15.102   6.148  12.009
27980W        W93207  34.094  28.855  12.926
27981W        W93208  11.817  24.854   3.117
27982W        W93209  17.809  14.294  11.781
27983W        W93210   4.870  24.409   4.456
27984W        W93211  27.681  14.719  11.743
27985W        W93212  43.456  27.093  13.191
27986W        W93213   8.268   2.216   3.162
27987W        W93214   2.666  42.923   2.166
27988W        W93215   4.095  27.416  13.338
27989W        W93216   2.890   1.239   3.312
27990W        W93217   2.602  33.465   0.448
27991W        W93218  37.077  24.011  14.085
27992W        W93219  12.967  18.283  10.005
27993W        W93220  41.351  29.816   0.284
27994W        W93221  39.072   5.950   2.325
27995W        W93222  13.760   2.422  13.573
27996W        W93223  29.363  17.455   2.802
27997W        W93224  10.410   7.235  13.011
27998W        W93225  17.052  12.570   3.357
27999W        W93226  17.727  13.806  11.987
28000W        W93227  15.361  26.164  14.774
28001W        W93228  38.053  29.603   4.358
28002W        W93229   8.359  24.207   4.124
28003W        W93230  32.974  33.752   4.263
28004W        W93231  27.044   8.428  11.083
28005W        W93232  12.352  27.445  12.927
28006W        W93233   9.995  33.216   3.337
28007W        W93234  17.789   3.427   4.528
28008W        W93235  34.534  38.032   5.234
28009W        W93236  31.944  36.593  11.924
28010W        W93237   8.169  12.305   4.444
28011W        W93238  31.191  27.849  10.269
28012W        W93239   2.418  10.600  12.902
28013W        W93240   5.599  37.083   1.259
28014W        W93241  35.760   8.330  14.308
28015W        W93242  39.978  39.791  10.942
28016W        W93243  43.547  44.029  13.057
28017W        W93244   6.245  39.801   3.773
28018W        W93245  15.287  10.488   0.231
28019W        W93246  17.237  14.098   4.158
28020W        W93247  43.542  35.371  11.470
28021W        W93248  36.365   9.811   2.448
28022W        W93249  36.092   1.808  11.205
28023W        W93250  44.385  11.655   1.965
28024W        W93251  21.971  34.433  13.042
28025W        W93252   1.521  44.460   1.763
28026W        W93253  29.746  42.047   2.251
28027W        W93254  25.999   5.196  12.659
28028W        W93255  44.348   8.901   4.943
28029W        W93256   8.922  11.177  14.391
28030W        W93257  36.555  43.042   3.342
28031W        W93258  34.787   5.851   3.384
28032W        W93259  20.661  26.522   2.521
28033W        W93260  44.288  21.739  12.504
28034W        W93261  37.839   7.954   1.828
28035W        W93262  40.599  11.767   1.666
28036W        W93263  19.239   0.128  11.616
28037W        W93264   3.581  17.552   2.292
28038W        W93265  39.022  23.377  14.082
28039W        W93266  34.442  14.464  14.937
28040W        W93267  29.472   6.789  10.665
28041W        W93268   9.624  31.860  10.198
28042W        W93269  13.251  18.965  14.641
28043W        W93270  27.702   4.167  10.725
28044W        W93271   0.275  11.772  12.509
28045W        W93272   0.335  40.974  14.606
28046W        W93273  40.520  12.308   3.511
28047W        W93274  44.757  11.892  11.223
28048W        W93275  44.705  20.197   1.893
28049W        W93276  16.578  10.250   4.709
28050W        W93277   4.313  21.450  12.426
28051W        W93278  23.715  32.972   3.100
28052W        W93279   1.286   3.663  14.828
28053W        W93280  30.412   5.428  14.355
28054W        W93281   0.937   3.733   4.169
28055W        W93282  38.572  19.192  12.863
28056W        W93283  27.768  34.091   3.322
28057W        W93284  33.534  10.661   0.205
28058W        W93285   1.199  37.905  12.466
28059W        W93286  11.162   1.707   0.656
28060W        W93287  10.042  15.172  14.857
28061W        W93288   0.942   0.908   1.201
28062W        W93289   6.271  12.889   4.626
28063W        W93290  10.609  17.662  14.936
28064W        W93291   5.234  43.543  12.548
28065W        W93292  40.301  34.167  12.945
28066W        W93293  38.353  22.771  12.454
28067W        W93294   1.548  44.232   2.988
28068W        W93295   7.400  27.169  11.226
28069W        W93296  28.610  20.809   0.508
28070W        W93297  13.527   2.710   3.436
28071W        W93298  39.824  18.144   0.073
28072W        W93299  41.791  13.239  11.949
28073W        W93300  22.470  35.620   4.227
28074W        W93301   1.115  42.220  14.543
28075W        W93302  24.228  29.511   4.721
28076W        W93303  34.502   7.178  14.655
28077W        W93304  18.876  44.357   1.925
28078W        W93305  36.154   6.632  11.079
28079W        W93306  10.366  15.600   2.236
28080W        W93307  11.280   0.696  14.007
28081W        W93308  34.040  27.232  11.565
28082W        W93309  34.000  28.239  11.579
28083W        W93310  33.132  42.331   1.976
28084W        W93311   7.932   9.834  11.277
28085W        W93312  33.712  15.251   2.740
28086W        W93313  11.728  35.368  14.851
28087W        W93314   2.810  14.802   2.253
28088W        W93315  44.396  43.236  11.026
28089W        W93316  28.239  19.818   4.703
28090W        W93317  38.102  25.080  14.717
28091W        W93318  12.611  16.613   0.302
28092W        W93319   9.297  41.940  12.889
28093W        W93320  20.304   3.242  14.738
28094W        W93321  10.584  38.004   4.050
28095W        W93322   4.085  12.382   1.325
28096W        W93323  20.245  30.010  13.399
28097W        W93324   9.547  23.652  11.191
28098W        W93325  38.082  43.303   2.421
28099W        W93326   9.771   7.776  12.557
28100W        W93327  21.119  28.946   0.360
28101W        W93328   8.571  44.338  14.942
28102W        W93329  37.079  20.878  11.379
28103W        W93330  12.848  41.438   3.424
28104W        W93331  30.684  40.843  12.601
28105W        W93332  23.793  24.131   4.218
28106W        W93333   5.250  24.481   4.833
28107W        W93334  24.696  16.593  13.871
28108W        W93335   5.778  27.649  11.154
28109W        W93336   6.348  18.227   0.947
28110W        W93337   8.244  37.522  10.630
28111W        W93338  11.178  38.794  10.878
28112W        W93339   8.271  25.376   4.711
28113W        W93340  17.332  24.370   1.726
28114W        W93341  28.555  38.580  12.374
28115W        W93342   1.290  30.998  14.396
28116W        W93343  21.775  40.898  12.956
28117W        W93344   2.672  24.178   3.659
28118W        W93345  16.697  20.734   1.376
28119W        W93346  44.483  29.935   4.095
28120W        W93347  32.649  19.987  13.828
28121W        W93348  16.515  33.530   4.875
28122W        W93349  38.771  44.614  10.749
28123W        W93350  20.799  44.397   1.890
28124W        W93351  34.008  42.106   1.153
28125W        W93352  24.684  44.779  13.934
28126W        W93353  14.148  23.505  13.305
28127W        W93354   9.966  22.186  12.709
28128W        W93355  43.433   5.752   4.747
28129W        W93356  24.705  21.191   4.137
28130W        W93357  28.580   9.654  11.910
28131W        W93358  35.999  11.770  12.535
28132W        W93359   6.299  29.868   0.349
28133W        W93360  39.566  31.779   0.957
28134W        W93361   0.883  37.747   0.809
28135W        W93362  39.919  39.528   1.814
28136W        W93363   6.676  25.435   1.846
28137W        W93364  35.728  31.995   2.711
28138W        W93365  14.138  34.554   2.201
28139W        W93366   2.981  11.463   3.721
28140W        W93367  16.139  16.887  12.633
28141W        W93368  30.719  42.890  12.003
28142W        W93369  30.498  37.876   3.158
28143W        W93370  26.465  33.482   4.032
28144W        W93371  44.927  40.061  14.889
28145W        W93372   4.563  30.567   4.324
28146W        W93373   6.938  33.230  13.773
28147W        W93374  42.820   5.359  12.366
28148W        W93375  16.572  21.536  13.950
28149W        W93376  43.250  21.546  11.129
28150W        W93377  34.263  43.385   3.178
28151W        W93378  27.213   1.470   4.709
28152W        W93379  43.798  30.456   3.161
28153W        W93380   3.367   9.620   3.653
28154W        W93381  34.397  43.311  11.747
28155W        W93382  34.613  20.442  13.362
28156W        W93383  29.711  10.950  14.471
28157W        W93384  43.962  21.488   3.674
28158W        W93385  21.673  31.496   2.398
28159W        W93386   1.452  38.495   0.885
28160W        W93387  40.728  14.747   2.650
28161W        W93388  35.864   3.614  13.711
28162W        W93389   9.796   1.176   0.643
28163W        W93390  22.478  31.367  12.150
28164W        W93391  19.562  11.844   1.704
28165W        W93392  18.477  17.184  10.845
28166W        W93393  28.705  22.503  14.575
28167W        W93394  27.585  10.158  13.103
28168W        W93395  30.699   8.143   2.398
28169W        W93396  37.818  34.341   1.626
28170W        W93397  18.085  14.916  12.832
28171W        W93398  13.872  23.782   0.204
28172W        W93399   7.140  21.228  14.946
28173W        W93400   4.141   3.924   0.391
28174W        W93401  39.089  28.842   1.968
28175W        W93402  43.873  26.988  12.647
28176W        W93403  44.402   3.875   0.965
28177W        W93404  15.116  16.454   1.325
28178W        W93405  23.452  32.016   1.359
28179W        W93406  14.254  33.851  12.809
28180W        W93407  31.309   4.889  13.453
28181W        W93408  20.172  42.248   2.863
28182W        W93409  41.981  15.317  11.796
28183W        W93410  44.851  27.586  14.594
28184W        W93411   3.837  19.034  11.279
28185W        W93412  29.091  14.338   9.777
28186W        W93413  28.949  17.654   3.369
28187W        W93414  39.138  20.139  11.455
28188W        W93415  30.432   1.534   1.434
28189W        W93416  33.504  26.704  13.854
28190W        W93417  32.942  41.110   4.567
28191W        W93418   8.949  10.464  11.140
28192W        W93419   2.637  12.500  12.070
28193W        W93420  44.397  15.861  13.922
28194W        W93421  11.823  13.109  14.617
28195W        W93422   0.479  19.019  12.176
28196W        W93423  12.265  32.950  14.363
28197W        W93424  19.854  20.276  11.976
28198W        W93425  24.125   5.044  12.466
28199W        W93426  13.741  38.071  12.799
28200W        W93427  12.572  18.056  14.784
28201W        W93428  20.730  22.149  10.715
28202W        W93429  25.184  28.000   0.305
28203W        W93430   1.051  18.585  10.425
28204W        W93431   4.567  18.526   1.807
28205W        W93432   4.588   6.638  13.884
28206W        W93433  25.495  24.692   1.660
28207W        W93434   2.051   9.349  12.244
28208W        W93435   8.705  21.615   0.459
28209W        W93436  17.251  40.968   0.773
28210W        W93437  19.135   9.788  14.856
28211W        W93438  36.162  36.818   2.183
28212W        W93439   2.078  15.815   0.211
28213W        W93440  40.935  27.871   2.260
28214W        W93441  26.519  27.034   4.525
28215W        W93442  34.101  29.001   2.223
28216W        W93443  24.191  17.675   3.438
28217W        W93444  12.875  12.501  11.128
28218W        W93445  24.498  13.067   0.806
28219W        W93446  33.486  41.777  13.490
28220W        W93447  39.431  33.512   0.861
28221W        W93448  43.299   5.833   0.322
28222W        W93449  37.355   5.282   0.298
28223W        W93450   8.702  42.058   0.580
28224W        W93451  15.968  19.494   4.694
28225W        W93452  36.192  30.691   2.821
28226W        W93453  36.171  44.250  13.444
28227W        W93454   4.168  38.503  11.917
28228W        W93455  12.820   8.716  13.134
28229W        W93456  11.787   4.408   3.227
28230W        W93457  11.765   0.611   3.645
28231W        W93458  21.061   7.110   2.638
28232W        W93459  28.517  44.063   4.296
28233W        W93460  32.885  42.868  11.158
28234W        W93461   0.475   7.350  11.836
28235W        W93462  21.381  14.812  12.314
28236W        W93463   0.759  15.448   3.645
28237W        W93464  38.290   4.369  10.987
28238W        W93465   2.821  34.773  14.810
28239W        W93466  11.591  19.609  10.757
28240W        W93467  24.536  32.622   2.113
28241W        W93468  26.567  30.646  14.491
28242W        W93469   4.772  35.909   1.281
28243W        W93470  20.631  34.189   3.674
28244W        W93471  19.198   9.875   1.790
28245W        W93472  40.467  38.755   4.957
28246W        W93473  13.637  44.785   1.201
28247W        W93474  40.340  18.264  10.872
28248W        W93475  10.380   5.217   4.164
28249W        W93476   8.739  28.417   3.527
28250W        W93477  20.509  23.934  13.353
28251W        W93478  22.517  39.857  14.982
28252W        W93479  20.213  32.075  14.849
28253W        W93480  33.629  44.718   4.286
28254W        W93481  36.114  38.914  12.139
28255W        W93482  22.967  15.526  11.865
28256W        W93483  12.267  22.101  14.830
28257W        W93484  30.822  35.851  11.986
28258W        W93485  12.668  27.970   1.964
28259W        W93486   5.236  39.039   4.106
28260W        W93487  37.838  22.471  10.528
28261W        W93488  33.138  39.819   2.271
28262W        W93489  42.974   1.170  13.257
28263W        W93490  33.977  34.940   4.908
28264W        W93491  18.014  43.150   2.718
28265W        W93492  22.021  41.497   3.240
28266W        W93493  32.977   0.141   4.931
28267W        W93494  28.330   0.822  14.475
28268W        W93495  11.633  29.454  12.605
28269W        W93496   5.310  39.327   3.151
28270W        W93497  26.461   4.803  14.979
28271W        W93498  24.657   6.419   1.934
28272W        W93499  42.210  21.100   3.706
28273W        W93500   4.865  32.152  10.594
28274W        W93501   0.810  24.875   4.459
28275W        W93502  30.868  26.150  13.502
28276W        W93503   0.939  24.473   3.250
28277W        W93504  19.693  20.206  11.498
28278W        W93505   2.197  43.683   1.129
28279W        W93506  44.458  28.678  13.544
28280W        W93507  11.552  23.679  13.881
28281W        W93508  34.506  36.946   0.776
28282W        W93509  25.476  28.660  11.535
28283W        W93510  41.472  34.142  12.456
28284W        W93511  10.675  24.184  12.517
28285W        W93512  12.544  17.518  11.638
28286W        W93513  43.275   2.389  13.364
28287W        W93514  13.831  41.085   0.745
28288W        W93515  20.706  13.580   1.891
28289W        W93516  20.310   7.354  14.968
28290W        W93517  38.496   5.769   1.412
28291W        W93518  11.011   4.430  10.400
28292W        W93519  31.175  36.622  13.396
28293W        W93520  12.685  11.633  10.898
28294W        W93521  18.683  26.627  12.610
28295W        W93522  13.891  30.936   2.283
28296W        W93523  15.221  10.008   4.565
28297W        W93524   7.390   1.275   0.841
28298W        W93525  27.098  35.075  11.260
28299W        W93526  21.649  32.912  13.377
28300W        W93527  19.310  25.646  12.999
28301W        W93528  15.278  34.921   2.271
28302W        W93529  40.492  16.764  12.159
28303W        W93530  38.541  25.463  13.465
28304W        W93531  33.112  42.743   2.294
28305W        W93532  11.231   3.904  11.121
28306W        W93533  20.640   8.438  10.696
28307W        W93534   3.144  41.242   3.891
28308W        W93535  31.969  34.500  10.245
28309W        W93536   3.330   4.948  11.200
28310W        W93537  36.769   8.216  10.383
28311W        W93538  43.586  39.864  11.204
28312W        W93539  36.567  16.617  11.036
28313W        W93540  25.468   7.330   2.282
28314W        W93541  39.010  38.672   2.315
28315W        W93542  44.496  35.701  13.874
28316W        W93543   5.133  24.236   1.318
28317W        W93544   3.729   4.386  11.620
28318W        W93545  12.606  42.777   0.474
28319W        W93546  23.143  11.933   3.138
28320W        W93547   5.464  30.647   4.979
28321W        W93548   4.263   4.772   3.224
28322W        W93549  24.252  26.127   3.821
28323W        W93550  25.643   3.836  11.557
28324W        W93551   8.187   1.492  13.677
28325W        W93552  25.089  22.933   1.962
28326W        W93553  11.410  43.979   1.718
28327W        W93554  12.633  37.832   0.377
28328W        W93555   7.664  28.768   4.229
28329W        W93556  41.791  27.070  12.366
28330W        W93557  19.134  21.267   4.751
28331W        W93558  15.839  11.800   0.133
28332W        W93559  27.589  21.556  11.571
28333W        W93560  44.247  11.299   0.969
28334W        W93561   2.185   7.637   4.200
28335W        W93562  40.470  27.536  14.042
28336W        W93563  28.437  30.709   4.568
28337W        W93564  32.661   4.234   2.856
28338W        W93565   2.131   2.607  14.959
28339W        W93566  38.451  21.786  12.472
28340W        W93567   8.696  16.727   3.616
28341W        W93568  10.774  43.881   2.406
28342W        W93569  12.772  43.612   0.908
28343W        W93570  37.512  11.159   1.652
28344W        W93571  36.313  15.630   3.694
28345W        W93572  21.089  29.174  10.601
28346W        W93573  27.661  39.566  12.124
28347W        W93574  17.902  17.526  14.431
28348W        W93575  19.084  14.623   0.943
28349W        W93576   0.443  36.400  13.494
28350W        W93577  44.979  31.337  13.718
28351W        W93578  27.057   3.835   2.270
28352W        W93579  17.014  10.682  14.258
28353W        W93580  30.049  22.599  12.016
28354W        W93581  19.259   7.724  11.625
28355W        W93582   1.496  36.478  13.519
28356W        W93583  14.319   2.085   3.288
28357W        W93584  21.200   9.221   3.103
28358W        W93585  21.862   2.523  13.010
28359W        W93586  18.040  40.639   3.252
28360W        W93587  14.162  34.564   3.720
28361W        W93588  16.134  23.157  10.550
28362W        W93589  27.985  25.117   1.398
28363W        W93590  26.628   3.891  11.221
28364W        W93591  25.042  31.605   0.873
28365W        W93592  21.414  37.926  11.645
28366W        W93593  15.832  30.657  11.616
28367W        W93594   7.523  20.985   3.659
28368W        W93595   3.210  37.611  14.889
28369W        W93596  23.053  39.168   3.128
28370W        W93597  32.108  17.797   2.194
28371W        W93598  16.304  19.298   1.854
28372W        W93599  25.460  34.046   1.005
28373W        W93600  36.213  28.449  11.990
28374W        W93601  11.172   6.854  14.557
28375W        W93602  11.910   5.600  11.383
28376W        W93603   7.303  21.518   2.769
28377W        W93604   4.075  42.723   3.339
28378W        W93605  33.904  36.324  12.072
28379W        W93606  22.007  11.385   4.677
28380W        W93607  44.356  22.463   4.239
28381W        W93608   1.290  36.542   3.314
28382W        W93609   5.848  17.496   3.327
28383W        W93610   3.718  17.734  12.140
28384W        W93611  31.789  37.126  13.872
28385W        W93612   2.719  28.485   2.688
28386W        W93613  24.502   8.893  14.707
28387W        W93614  16.289   5.434   4.096
28388W        W93615   4.801  22.152   3.119
28389W        W93616  41.758  16.079  14.538
28390W        W93617  33.516   9.423   0.912
28391W        W93618  14.922  38.439  14.021
28392W        W93619  30.525   6.157   0.701
28393W        W93620  36.260  35.072  11.565
28394W        W93621  36.874  42.954   1.183
28395W        W93622  37.566   7.109   0.775
28396W        W93623  10.811   8.676   0.418
28397W        W93624   1.591  12.195  12.541
28398W        W93625  32.451  19.624   4.191
28399W        W93626  40.557   0.781  11.988
28400W        W93627  17.567  13.681   4.118
28401W        W93628   7.593  19.785   0.274
28402W        W93629  26.955  19.117  11.260
28403W        W93630   0.268  43.366  10.399
28404W        W93631  39.987   9.101   0.170
28405W        W93632   9.123  18.278   1.462
28406W        W93633   7.849  34.871  14.789
28407W        W93634   5.318  38.617   2.222
28408W        W93635   1.684  25.458  13.458
28409W        W93636  31.297   1.590   0.434
28410W        W93637   7.480  27.631  14.043
28411W        W93638   4.746  18.672  11.041
28412W        W93639   4.850  28.754   1.799
28413W        W93640  10.933  24.440   3.445
28414W        W93641  44.797   9.499   2.759
28415W        W93642  23.446  33.797  12.255
28416W        W93643   6.870  23.358   4.044
28417W        W93644  17.288  39.602  13.776
28418W        W93645  44.765  36.859   3.876
28419W        W93646  38.393  43.252  13.794
28420W        W93647  40.491  43.004   4.104
28421W        W93648   3.931   3.612  11.244
28422W        W93649  12.243  16.377  11.075
28423W        W93650  22.654   2.419   3.146
28424W        W93651  31.423  25.921   4.010
28425W        W93652  27.918  30.795  10.541
28426W        W93653  34.648  15.682   1.223
28427W        W93654   7.921  10.882   3.667
28428W        W93655  23.697  43.768  10.030
28429W        W93656  24.652  15.044   1.299
28430W        W93657  42.030   8.437  11.238
28431W        W93658  44.232  44.564   0.808
28432W        W93659  41.925  14.755   0.347
28433W        W93660   2.305  22.315  11.856
28434W        W93661  18.458  26.957   3.328
28435W        W93662  24.113  15.103  11.059
28436W        W93663  30.007  43.977   0.555
28437W        W93664  40.030  29.480  12.954
28438W        W93665  22.619  37.608   1.000
28439W        W93666  11.276  17.005   1.389
28440W        W93667  39.558  36.782  11.056
28441W        W93668   3.294  20.461  14.960
28442W        W93669  19.283  17.503   1.421
28443W        W93670  32.423   2.967   0.658
28444W        W93671  44.832  24.176   2.642
28445W        W93672  20.935  15.576  11.083
28446W        W93673  18.864  15.502   5.039
28447W        W93674  42.403  29.141  14.826
28448W        W93675  17.101   1.773   4.617
28449W        W93676  37.681  17.394  13.361
28450W        W93677  37.267  25.249   0.551
28451W        W93678  20.344  10.626   2.259
28452W        W93679  21.854  39.315  13.764
28453W        W93680  32.673  13.643  12.487
28454W        W93681   5.373  10.100   1.270
28455W        W93682  26.737  42.054  13.885
28456W        W93683   1.196  30.465   1.442
28457W        W93684  29.540  25.995   2.252
28458W        W93685   9.666  42.042   1.426
28459W        W93686  20.328  17.707   3.886
28460W        W93687  36.094  23.126  10.999
28461W        W93688  36.645  17.553  14.111
28462W        W93689   2.776  10.679  12.497
28463W        W93690  11.559  30.097   0.515
28464W        W93691  13.077   2.371   1.438
28465W        W93692  34.624  41.637  13.536
28466W        W93693  10.897  37.483   0.806
28467W        W93694  15.301  25.191  11.542
28468W        W93695  24.751  31.906   1.796
28469W        W93696  42.796  39.373   0.430
28470W        W93697   3.779   1.288   9.825
28471W        W93698  31.473   2.420  13.380
28472W        W93699  37.515   8.847   1.673
28473W        W93700  38.781  41.992  14.763
28474W        W93701  18.734  30.664   4.052
28475W        W93702   0.707  29.988  12.378
28476W        W93703  22.631   8.539  10.822
28477W        W93704  29.049  15.921  12.992
28478W        W93705  21.177   2.779  11.061
28479W        W93706  43.394  37.935  12.859
28480W        W93707  37.030   2.976   2.318
28481W        W93708  11.669  36.459   4.041
28482W        W93709  41.505  24.108   2.742
28483W        W93710  34.357   5.841  13.806
28484W        W93711   7.032  40.246   0.269
28485W        W93712   1.789  33.092   3.197
28486W        W93713  11.550  29.028  11.616
28487W        W93714  22.272   2.964   3.679
28488W        W93715  39.737  17.119  10.672
28489W        W93716  25.750   8.730  12.849
28490W        W93717  38.334   6.726  14.331
28491W        W93718   8.771  22.253  11.181
28492W        W93719  30.985  30.442   0.952
28493W        W93720   4.780  36.834   0.879
28494W        W93721   4.096   8.321  13.607
28495W        W93722  32.885  11.481   3.623
28496W        W93723  23.982  10.342   2.298
28497W        W93724  30.547   9.628  11.622
28498W        W93725   2.009  29.198  14.725
28499W        W93726  43.078  44.903   0.764
28500W        W93727  29.070   6.218  13.532
28501W        W93728  38.873  23.232   1.931
28502W        W93729  19.801  26.597  11.441
28503W        W93730  27.551  27.025  10.022
28504W        W93731  44.407  35.992   1.487
28505W        W93732  11.605  13.368   2.874
28506W        W93733  27.060  43.898  13.359
28507W        W93734  22.192  14.810  14.880
28508W        W93735  34.456   6.312   4.549
28509W        W93736  37.103  17.661  10.693
28510W        W93737  41.892  22.764  10.671
28511W        W93738  27.341  27.620  13.620
28512W        W93739  26.137  14.793  12.845
28513W        W93740  21.675  24.753  14.849
28514W        W93741  32.068   8.491   0.937
28515W        W93742   9.487  30.991  13.101
28516W        W93743  39.779   1.368   2.808
28517W        W93744  28.520  32.817   3.783
28518W        W93745  44.923  24.606   0.842
28519W        W93746   6.610   4.814  10.596
28520W        W93747   0.473  39.526  14.340
28521W        W93748  23.033  36.253   4.838
28522W        W93749  16.146  13.768   4.236
28523W        W93750  25.201  23.606  14.836
28524W        W93751   5.738  31.782  12.867
28525W        W93752  35.994  26.531  10.743
28526W        W93753  39.906  17.704  14.787
28527W        W93754   1.405  19.706  12.783
28528W        W93755   5.300  22.573  11.536
28529W        W93756  34.590  32.730  14.902
28530W        W93757  43.280  33.874   2.701
28531W        W93758  11.793  10.844   2.675
28532W        W93759   7.263  33.397   2.265
28533W        W93760  37.733  44.906  10.927
28534W        W93761  29.131  16.107   2.321
28535W        W93762   9.850  29.467   1.184
28536W        W93763  21.809  40.938   2.306
28537W        W93764  30.673  25.578   2.686
28538W        W93765  28.208   0.237  12.368
28539W        W93766   9.119  19.987  14.329
28540W        W93767  35.428  15.720   3.286
28541W        W93768  33.142  21.956   4.553
28542W        W93769  11.261  10.849   2.382
28543W        W93770  36.155  36.375   0.499
28544W        W93771  17.003  13.660   1.370
28545W        W93772  16.248  15.658  13.480
28546W        W93773   5.866  14.841  11.166
28547W        W93774  15.746  11.100   0.867
28548W        W93775  25.206   0.393  14.393
28549W        W93776  27.471  37.318  14.595
28550W        W93777  44.441  34.998   1.290
28551W        W93778   3.757   1.031  12.094
28552W        W93779  38.037  32.007  10.366
28553W        W93780   6.995  34.582   3.732
28554W        W93781  16.083  19.682   2.165
28555W        W93782  31.144  15.995   3.682
28556W        W93783  24.294   8.321   1.276
28557W        W93784   5.131  26.792  11.109
28558W        W93785  25.076  38.500   2.211
28559W        W93786  10.557  20.346   5.113
28560W        W93787  10.848  15.313  10.316
28561W        W93788  11.851   2.536  12.359
28562W        W93789  17.843  23.640  12.681
28563W        W93790  18.058  29.168   0.374
28564W        W93791  14.722  25.635   4.288
28565W        W93792  26.265  16.034  14.510
28566W        W93793  13.127   0.338   1.836
28567W        W93794  43.525   9.212   2.576
28568W        W93795  25.237   6.626  11.506
28569W        W93796  15.207  40.297   3.193
28570W        W93797  20.763  38.498  12.622
28571W        W93798   3.096  34.710   1.438
28572W        W93799   6.660   7.202   1.174
28573W        W93800  27.574   8.449  13.498
28574W        W93801  32.630   6.717   0.878
28575W        W93802  18.163  10.282   0.495
28576W        W93803  39.801  13.648  12.344
28577W        W93804  39.488   9.730  13.456
28578W        W93805  32.892   9.440   0.421
28579W        W93806  19.555   3.687  14.160
28580W        W93807   8.294  16.617  13.880
28581W        W93808  24.268  28.160  10.755
28582W        W93809  15.715  24.237  11.567
28583W        W93810   2.454  41.361  14.722
28584W        W93811  34.636  28.915  14.308
28585W        W93812  37.014  18.492  12.240
28586W        W93813  30.144  25.788  11.716
28587W        W93814   2.255  18.981   5.153
28588W        W93815  36.597   0.295   1.091
28589W        W93816  28.586  41.491  11.540
28590W        W93817  10.585  44.639   1.455
28591W        W93818  25.672  40.820  11.617
28592W        W93819  34.209  42.161   0.327
28593W        W93820   4.036  11.918  12.909
28594W        W93821  30.884  22.453   3.187
28595W        W93822  20.095  38.559  12.676
28596W        W93823  27.150   2.351   2.011
28597W        W93824  35.274  15.620  13.477
28598W        W93825  32.969  44.200   5.124
28599W        W93826  21.773  43.396   1.308
28600W        W93827  18.021  30.076   0.916
28601W        W93828  24.531   9.947   1.899
28602W        W93829  13.679   3.429  13.417
28603W        W93830   1.795   3.987   1.433
28604W        W93831  15.021  31.939  13.806
28605W        W93832  11.647   6.895   4.646
28606W        W93833  12.879  12.224  14.569
28607W        W93834  32.579  14.577   1.338
28608W        W93835  20.309   1.822  12.386
28609W        W93836  42.161  16.036   4.166
28610W        W93837  19.833  21.064   0.427
28611W        W93838  35.801  32.447  11.452
28612W        W93839   7.936  20.123   3.732
28613W        W93840  19.245  21.665   1.116
28614W        W93841  42.528  21.520   3.658
28615W        W93842  34.207  25.430  13.458
28616W        W93843   5.638  27.962  12.076
28617W        W93844  32.804  36.370   2.242
28618W        W93845  28.088   7.065  10.596
28619W        W93846  22.518  28.987   0.284
28620W        W93847  19.080  28.778  12.163
28621W        W93848   8.607  18.843   2.294
28622W        W93849  39.918  39.786  13.167
28623W        W93850  19.574  34.013  11.764
28624W        W93851  33.797  11.828  12.111
28625W        W93852   2.290  37.845   4.463
28626W        W93853  39.889  12.753  14.474
28627W        W93854   1.205  22.674  11.026
28628W        W93855   9.705  20.455  12.951
28629W        W93856  13.284   2.041   1.859
28630W        W93857  13.623   1.374  12.407
28631W        W93858  24.621  33.352  14.807
28632W        W93859   9.873  43.425  10.649
28633W        W93860  16.254  21.470  14.371
28634W        W93861  20.500  25.303  12.663
28635W        W93862  33.073  35.660  14.015
28636W        W93863  27.136   6.665   2.434
28637W        W93864  35.412  21.502  14.401
28638W        W93865   5.396  43.656   1.734
28639W        W93866   6.719  31.659  12.878
28640W        W93867  15.962  36.075  13.257
28641W        W93868   3.430  15.363  10.267
28642W        W93869  32.418   0.702   2.174
28643W        W93870  19.976   6.761  14.388
28644W        W93871   1.572  38.409  12.785
28645W        W93872   5.284  25.806  13.585
28646W        W93873   4.816  43.539   0.199
28647W        W93874  22.090  15.036  10.539
28648W        W93875  16.984  11.576   5.423
28649W        W93876  27.976   3.251  13.011
28650W        W93877  16.250  18.683  11.548
28651W        W93878  13.063  20.217   0.853
28652W        W93879  27.557  13.624   3.920
28653W        W93880   3.701  14.105   2.810
28654W        W93881  44.516  44.437   3.840
28655W        W93882  23.171  40.069  10.649
28656W        W93883  34.812  36.919  14.233
28657W        W93884  11.325  31.482   4.555
28658W        W93885   6.882  22.733   0.411
28659W        W93886   7.383  39.874   1.223
28660W        W93887  13.691  20.820  11.475
28661W        W93888  20.030  32.299  11.221
28662W        W93889   8.224  15.188  11.262
28663W        W93890   3.890  28.955   1.152
28664W        W93891  42.881  30.126   1.922
28665W        W93892  37.632   1.703   3.409
28666W        W93893  10.806  18.968   3.638
28667W        W93894   7.432   7.893   4.160
28668W        W93895  33.827  14.177  12.398
28669W        W93896  19.698   0.388  12.545
28670W        W93897  12.340  40.911   2.685
28671W        W93898   1.117  37.729   1.569
28672W        W93899  25.182   7.207  10.941
28673W        W93900  33.439  35.477  13.713
28674W        W93901   4.328  34.594  11.405
28675W        W93902  39.420   8.143  12.786
28676W        W93903  39.038  13.714   2.210
28677W        W93904  13.601  22.221  13.515
28678W        W93905  24.621  16.138  10.746
28679W        W93906  43.360  24.615  13.583
28680W        W93907  39.135  24.342  13.736
28681W        W93908  42.087  41.510   2.686
28682W        W93909  14.061   6.083   2.880
28683W        W93910   5.166  17.896  11.099
28684W        W93911   7.398  28.586  14.907
28685W        W93912  30.194  12.636  11.891
28686W        W93913  34.714   9.822   1.249
28687W        W93914   5.584  41.313   1.873
28688W        W93915  25.013  43.737   2.878
28689W        W93916   2.241  17.797   1.786
28690W        W93917   8.280  15.227  11.779
28691W        W93918  33.406  34.792   1.016
28692W        W93919   5.252  13.213   4.456
28693W        W93920  35.043  29.171  14.125
28694W        W93921  43.684  35.581   1.283
28695W        W93922  16.895  37.985   2.780
28696W        W93923   7.596  22.517   0.062
28697W        W93924  26.991  20.207  10.387
28698W        W93925  40.871   4.261  13.898
28699W        W93926   6.740  16.862  11.489
28700W        W93927   3.095  26.028  12.575
28701W        W93928  38.084  22.262   4.193
28702W        W93929   8.288   0.654   3.113
28703W        W93930  23.587  15.542  14.522
28704W        W93931  25.059  10.895  12.977
28705W        W93932  27.391  10.989  11.412
28706W        W93933   6.766  24.785  12.992
28707W        W93934  37.040  37.860  13.790
28708W        W93935  13.158  42.890  14.261
28709W        W93936  27.243   7.265  14.959
28710W        W93937  16.222  18.041   3.831
28711W        W93938  39.173  16.702   3.408
28712W        W93939  18.867  42.201   1.525
28713W        W93940  42.961  20.344   1.168
28714W        W93941   1.746   8.209  11.137
28715W        W93942  38.641  35.824  14.647
28716W        W93943  37.771  18.956   4.077
28717W        W93944  30.579  18.779   3.739
28718W        W93945  32.931  33.575   3.508
28719W        W93946   3.163  37.623  12.536
28720W        W93947   8.413  17.047   2.272
28721W        W93948  14.876   7.635   1.304
28722W        W93949   0.648  44.037   2.750
28723W        W93950  38.611  28.320  14.440
28724W        W93951  26.768  19.812   3.660
28725W        W93952  36.038  23.098   4.625
28726W        W93953  29.138   5.901   1.831
28727W        W93954  13.794   0.378  14.036
28728W        W93955  36.613   3.973   1.777
28729W        W93956   8.903  29.062  13.350
28730W        W93957  38.012   9.387  10.774
28731W        W93958   4.428   0.542  14.458
28732W        W93959   3.681  22.045   2.414
28733W        W93960  23.412  14.606  12.697
28734W        W93961  15.603  41.999  12.558
28735W        W93962  13.225   9.476   4.085
28736W        W93963  43.562  43.425   2.577
28737W        W93964  29.445   5.341   2.360
28738W        W93965  19.121   7.366   4.677
28739W        W93966  20.521  26.047   0.732
28740W        W93967  22.156  25.121  11.569
28741W        W93968  26.942  35.488  13.393
28742W        W93969  42.930  25.650   4.743
28743W        W93970  17.317  30.104  11.634
28744W        W93971  26.210   0.425  12.075
28745W        W93972  36.175  12.285  14.911
28746W        W93973  33.080   1.179   2.598
28747W        W93974  19.612  18.067   1.816
28748W        W93975   2.677   8.164   1.842
28749W        W93976  32.465  21.914   4.360
28750W        W93977  19.147  35.874   4.581
28751W        W93978  40.063  41.302  14.461
28752W        W93979  20.723   2.872   3.601
28753W        W93980  20.193  22.279  12.031
28754W        W93981   2.925  33.594   0.835
28755W        W93982  37.816  39.382  14.972
28756W        W93983  39.418   5.142  12.539
28757W        W93984  17.379   5.380   0.581
28758W        W93985   4.030  30.927  13.927
28759W        W93986  39.420  14.585   4.177
28760W        W93987  28.410  23.642   2.506
28761W        W93988  17.115  24.732   1.376
28762W        W93989  15.578  20.382   1.249
28763W        W93990   6.445  42.511  11.270
28764W        W93991  12.268  16.980   3.443
28765W        W93992  44.177  16.367  14.369
28766W        W93993  35.699  16.284   1.887
28767W        W93994  43.909  16.330  10.604
28768W        W93995  40.805  38.498   3.341
28769W        W93996  22.225  44.030  13.449
28770W        W93997   1.141  25.651   1.693
28771W        W93998  38.955  25.658   3.702
28772W        W93999  24.358  36.506   0.737
28773W        W94000  23.674  17.288   2.783
28774W        W94001  43.795  14.276   3.651
28775W        W94002   3.707  19.517   0.878
28776W        W94003  11.492  21.062   2.841
28777W        W94004  30.623  11.401   4.130
28778W        W94005   1.753   1.200  14.653
28779W        W94006  35.363  39.300  13.924
28780W        W94007  23.647  23.517   4.947
28781W        W94008   7.442  16.829   1.411
28782W        W94009  31.711   9.668  13.419
28783W        W94010  27.631  33.914  12.485
28784W        W94011  25.972  12.644   0.326
28785W        W94012  27.160  14.246  12.863
28786W        W94013  32.980  33.514   0.903
28787W        W94014  26.092  18.984   0.522
28788W        W94015  14.704  16.556  12.833
28789W        W94016  40.406  31.906   1.480
28790W        W94017   2.557  16.141  11.065
28791W        W94018   8.729  17.590  12.409
28792W        W94019  29.473   1.703  10.565
28793W        W94020  31.931   9.357  13.865
28794W        W94021  19.072  28.282   1.046
28795W        W94022  11.244  44.292   2.331
28796W        W94023   3.499  44.746  14.738
28797W        W94024  29.690   3.811   4.024
28798W        W94025  19.559  14.708  14.597
28799W        W94026  36.456  39.282   1.395
28800W        W94027  35.099  23.921   1.081
28801W        W94028  40.672  29.541  11.592
28802W        W94029  31.938  27.938  12.991
28803W        W94030  16.364  29.170   3.262
28804W        W94031  31.059  39.397  13.791
28805W        W94032  31.748  39.380  12.965
28806W        W94033  16.581   3.806   0.579
28807W        W94034   8.251   2.928   0.943
28808W        W94035  37.024  33.927   3.384
28809W        W94036  38.618  44.252   4.226
28810W        W94037  34.853   8.383   4.529
28811W        W94038   2.424  19.461   5.185
28812W        W94039  14.118   5.515  11.604
28813W        W94040  25.283  13.201  13.119
28814W        W94041  20.612  24.485  13.920
28815W        W94042  14.182   9.134   3.258
28816W        W94043   0.865   7.670  11.048
28817W        W94044  14.624  29.139  13.992
28818W        W94045   2.465  18.639  12.098
28819W        W94046  39.904   4.431  13.523
28820W        W94047  21.141   9.644   0.697
28821W        W94048  23.420  31.916  13.976
28822W        W94049  40.520  38.963   3.819
28823W        W94050  44.190  28.780   2.618
28824W        W94051  33.925  10.624   4.559
28825W        W94052  31.368  42.417  10.865
28826W        W94053   0.788  32.107  11.488
28827W        W94054  41.207  15.678   3.571
28828W        W94055  31.598  31.438   1.746
28829W        W94056  27.443   3.389  11.157
28830W        W94057  24.915  39.626   0.120
28831W        W94058  22.673  15.796   3.563
28832W        W94059  38.506  38.661  13.184
28833W        W94060  18.961  37.928  12.717
28834W        W94061  33.022  38.900  11.109
28835W        W94062  11.873  34.314   0.462
28836W        W94063  35.364  19.600  12.564
28837W        W94064  10.681   6.421   2.755
28838W        W94065  35.522  39.058  10.360
28839W        W94066  26.590  38.198  10.467
28840W        W94067  25.606  15.587   0.347
28841W        W94068   4.442  30.528   4.835
28842W        W94069   5.918  13.329  12.807
28843W        W94070  38.851  24.923  10.512
28844W        W94071   2.373  11.078  13.913
28845W        W94072  26.015  14.397   3.318
28846W        W94073   8.168   7.964   0.452
28847W        W94074  16.956   1.352   2.553
28848W        W94075   4.926  35.478   0.983
28849W        W94076  33.928   0.139  11.264
28850W        W94077  14.600  40.430   0.254
28851W        W94078  26.242  38.454   4.158
28852W        W94079  33.041  37.160  13.660
28853W        W94080  10.549  23.231   0.272
28854W        W94081  44.730  22.671   0.889
28855W        W94082  32.503   5.145  12.256
28856W        W94083  35.033  11.325  12.563
28857W        W94084  35.668  35.524   4.730
28858W        W94085  34.325  41.263  12.240
28859W        W94086  32.482   1.440  11.177
28860W        W94087   6.091  10.505   1.803
28861W        W94088  23.157  35.003  14.504
28862W        W94089  12.300  37.255  14.594
28863W        W94090  25.359  16.368  14.867
28864W        W94091   5.278   4.925  13.779
28865W        W94092  36.989  18.553   2.903
28866W        W94093  35.044   1.431  10.783
28867W        W94094   7.664  31.607  13.839
28868W        W94095   9.929  21.514   4.199
28869W        W94096  29.614  10.326   0.329
28870W        W94097  15.639   5.632   2.429
28871W        W94098   7.075  33.373   1.298
28872W        W94099  21.098  36.388  14.035
28873W        W94100  34.848  44.315  14.769
28874W        W94101   2.451  35.552   2.188
28875W        W94102  12.283  39.396  14.764
28876W        W94103  32.460  17.651   4.145
28877W        W94104  35.144  43.393  13.729
28878W        W94105   4.311  37.441   1.915
28879W        W94106  18.646  11.775   1.895
28880W        W94107  20.854   9.334   0.399
28881W        W94108  28.211  37.596   0.499
28882W        W94109  23.573  40.295   2.620
28883W        W94110   0.635  31.625  12.934
28884W        W94111   8.652  31.313   0.253
28885W        W94112   9.766  26.530  11.606
28886W        W94113   3.664  41.335   0.638
28887W        W94114  18.060  43.701  11.124
28888W        W94115  13.805  30.072  14.320
28889W        W94116  26.185   5.277   0.849
28890W        W94117  23.219   2.242  12.401
28891W        W94118  37.072  24.493  14.283
28892W        W94119  42.797  30.494  11.465
28893W        W94120  38.519  26.670  10.180
28894W        W94121  44.667  26.161   4.131
28895W        W94122  27.667  14.210  11.083
28896W        W94123  24.353   3.690  12.179
28897W        W94124  22.795  39.972   2.889
28898W        W94125   6.165   8.555  12.794
28899W        W94126  42.378  38.361  12.929
28900W        W94127  31.837  10.784   1.744
28901W        W94128  44.655  21.501   2.271
28902W        W94129   6.498   5.714   2.242
28903W        W94130   8.666   7.806   0.486
28904W        W94131   1.331  15.780  13.434
28905W        W94132  40.867  36.938   3.742
28906W        W94133  18.823  41.131   0.480
28907W        W94134  44.999   1.804   3.294
28908W        W94135  17.029  12.610  14.480
28909W        W94136  44.970  36.451   3.637
28910W        W94137  25.587  20.459  13.670
28911W        W94138  29.597  34.830   3.166
28912W        W94139  19.806   5.251   0.427
28913W        W94140  16.305   5.139   3.661
28914W        W94141  42.357  36.307  14.031
28915W        W94142  17.497   3.205  13.547
28916W        W94143  27.583  24.097  10.937
28917W        W94144  38.859  41.844  12.081
28918W        W94145  10.822  41.755   0.843
28919W        W94146  21.699  36.106   0.896
28920W        W94147   6.187  11.166  13.743
28921W        W94148  37.982  17.683   4.406
28922W        W94149   6.356  23.816   5.158
28923W        W94150   9.086  39.378   0.374
28924W        W94151  42.367  37.297   2.814
28925W        W94152  33.118  29.919   3.169
28926W        W94153  37.362  27.248  13.849
28927W        W94154  43.376  11.130   4.570
28928W        W94155   6.736  10.392   0.760
28929W        W94156  11.905  28.063   3.033
28930W        W94157  23.963   9.734  10.684
28931W        W94158  35.990  13.244   0.277
28932W        W94159  33.674   5.942   3.709
28933W        W94160  25.503  14.603  13.050
28934W        W94161  32.067   7.384  13.857
28935W        W94162  16.302  26.495   0.492
28936W        W94163  44.529  40.265  12.639
28937W        W94164  18.532  17.581   4.007
28938W        W94165  26.897  11.820   4.118
28939W        W94166   4.227  37.288   4.519
28940W        W94167  34.078  26.394   1.842
28941W        W94168  43.066   3.672   0.256
28942W        W94169  22.580  10.391   3.782
28943W        W94170   5.730  40.054  11.747
28944W        W94171  42.000  33.053   4.175
28945W        W94172  38.597   7.339  10.287
28946W        W94173  26.013   8.919   0.772
28947W        W94174   9.967  39.524  11.899
28948W        W94175  15.107  20.315  12.583
28949W        W94176  40.560  35.975   2.120
28950W        W94177  36.084  39.595   0.317
28951W        W94178   5.724   5.580   4.233
28952W        W94179  17.045   3.616  14.464
28953W        W94180  27.759  31.495   4.686
28954W        W94181   2.273  12.826   4.619
28955W        W94182  23.902  18.971   2.841
28956W        W94183  36.983   7.550  11.154
28957W        W94184  31.110  28.906   2.428
28958W        W94185   8.858   5.528   1.373
28959W        W94186  33.873  39.285  11.896
28960W        W94187  22.573  26.927  13.639
28961W        W94188   2.703  35.512   3.168
28962W        W94189  43.480  28.802  11.015
28963W        W94190  34.893  42.655  10.961
28964W        W94191  19.798   2.022   0.274
28965W        W94192  32.635  21.357  12.037
28966W        W94193   4.765  32.146   2.751
28967W        W94194  36.359  42.201  13.474
28968W        W94195  39.976   1.545  13.010
28969W        W94196   9.870   6.824  13.431
28970W        W94197  26.006  31.467  13.016
28971W        W94198  39.094  12.683   2.302
28972W        W94199  14.371  12.993  14.022
28973W        W94200   0.968   5.838   1.101
28974W        W94201  24.238   6.839  12.508
28975W        W94202  30.450  26.500  13.051
28976W        W94203  30.414  40.523   0.340
28977W        W94204  22.829   0.218   2.393
28978W        W94205  34.357  28.092   2.356
28979W        W94206   5.430   9.592   1.389
28980W        W94207  11.345  38.113   3.388
28981W        W94208  20.463   6.327   4.651
28982W        W94209  11.745  42.517   1.410
28983W        W94210  35.570  23.125  10.912
28984W        W94211  15.334  33.700   3.249
28985W        W94212  11.661  35.984   3.847
28986W        W94213  20.510   1.471  11.395
28987W        W94214  15.109  29.650  12.336
28988W        W94215   3.364  34.650  14.233
28989W        W94216  21.724  38.858   2.248
28990W        W94217  13.655  37.535  11.123
28991W        W94218   5.819  35.557   4.583
28992W        W94219  14.373  17.614  12.027
28993W        W94220  31.170   8.729  12.517
28994W        W94221  11.175  41.308  12.501
28995W        W94222  18.319  40.686  12.860
28996W        W94223  20.902  38.591  13.120
28997W        W94224  10.858  16.717  10.748
28998W        W94225  22.707  11.142   4.274
28999W        W94226  22.981  34.324  13.020
29000W        W94227  23.921   3.471  10.333
29001W        W94228  36.456  41.833   3.785
29002W        W94229   8.402  14.847   1.394
29003W        W94230  12.595   2.405   3.931
29004W        W94231  24.312  41.469   2.833
29005W        W94232   5.137   6.706  12.742
29006W        W94233   9.159  37.002   2.606
29007W        W94234  41.257   9.858   4.111
29008W        W94235  17.080  39.454   4.608
29009W        W94236   1.113   4.462  12.067
29010W        W94237   8.298  32.216  11.186
29011W        W94238  30.039   1.842  11.132
29012W        W94239   3.026  17.109   3.714
29013W        W94240   2.040  23.302  13.998
29014W        W94241  32.495  23.308   4.493
29015W        W94242   0.428  32.572   2.622
29016W        W94243  43.203  44.904  12.810
29017W        W94244  30.457  17.087  13.678
29018W        W94245  13.252  43.396   0.254
29019W        W94246  28.558  41.600   2.118
29020W        W94247   5.400  17.298   2.717
29021W        W94248  16.936   3.347  14.930
29022W        W94249   4.399  29.093   1.213
29023W        W94250  11.686  37.914   1.412
29024W        W94251  22.672  22.788   1.259
29025W        W94252  21.355  31.988  14.472
29026W        W94253   0.501   0.299   0.710
29027W        W94254  27.525  16.542  14.395
29028W        W94255  29.658  18.328  13.054
29029W        W94256  16.969  26.304   2.919
29030W        W94257  31.962   5.305   2.766
29031W        W94258   3.736  20.025  12.631
29032W        W94259  15.888  23.225  13.395
29033W        W94260  31.926  23.744  14.450
29034W        W94261   5.880   7.175   3.685
29035W        W94262  35.558  38.897   0.660
29036W        W94263  23.999  26.971  12.849
29037W        W94264  16.530  28.277   0.317
29038W        W94265  42.976   0.883   4.597
29039W        W94266  28.531  10.991  14.955
29040W        W94267  25.924  12.471  12.477
29041W        W94268  43.107  17.502   2.174
29042W        W94269  32.788  42.597   3.336
29043W        W94270  39.636  37.060   3.037
29044W        W94271  25.784  17.115   4.284
29045W        W94272  24.804  42.044   2.993
29046W        W94273  18.670  43.258   3.310
29047W        W94274  27.192   9.147   1.488
29048W        W94275  37.329  33.532   2.666
29049W        W94276   7.438  37.536   2.184
29050W        W94277  16.790  27.586  13.404
29051W        W94278  26.678  24.950   1.321
29052W        W94279  15.541  23.983  11.167
29053W        W94280  13.671  23.158  10.508
29054W        W94281  43.829  25.712   2.085
29055W        W94282  25.687  20.039   0.064
29056W        W94283  31.832  19.889  14.889
29057W        W94284  44.450  10.824  13.282
29058W        W94285  39.706  26.093  11.665
29059W        W94286   2.191   4.199   2.791
29060W        W94287   0.870  17.899  14.003
29061W        W94288  23.941  44.676   3.590
29062W        W94289  34.043  41.487   3.445
29063W        W94290  14.375  44.861  12.447
29064W        W94291  27.903  30.644   0.844
29065W        W94292   7.003  20.971  14.510
29066W        W94293   1.300  32.562   3.678
29067W        W94294  20.696  25.558  13.093
29068W        W94295  16.126  39.381  12.089
29069W        W94296  20.729  36.083  13.018
29070W        W94297  31.684  38.141   0.707
29071W        W94298  11.101  30.134  11.081
29072W        W94299  42.772   3.041  14.471
29073W        W94300  25.119  25.344  11.703
29074W        W94301   3.070   2.797   4.711
29075W        W94302  40.453  34.948   3.287
29076W        W94303  17.998  39.396   3.675
29077W        W94304  20.984  27.285   3.246
29078W        W94305  23.206   2.029  13.787
29079W        W94306  37.828  24.094  13.429
29080W        W94307  34.495  14.630  12.398
29081W        W94308  18.436  41.872   3.582
29082W        W94309  15.949  30.547   2.800
29083W        W94310  13.738  26.666  12.884
29084W        W94311  13.399  39.823  13.244
29085W        W94312  28.416  20.241  14.934
29086W        W94313  23.719  28.041   1.589
29087W        W94314  27.512  36.950  13.512
29088W        W94315   2.936   0.107  11.095
29089W        W94316  42.108  11.124   3.689
29090W        W94317  25.991  24.763   4.564
29091W        W94318  32.002  17.825  12.915
29092W        W94319  25.696  14.332  13.459
29093W        W94320  33.015  23.453   4.474
29094W        W94321  20.261  29.183   2.364
29095W        W94322  11.557  38.844  14.961
29096W        W94323  29.247  24.739  11.507
29097W        W94324  41.829  10.870   3.124
29098W        W94325  42.585  29.116   1.270
29099W        W94326   9.919  12.198  11.051
29100W        W94327   5.845  29.158   2.722
29101W        W94328   5.386  37.197  14.222
29102W        W94329  11.104  33.821   9.599
29103W        W94330  43.401  31.094  10.691
29104W        W94331  44.993  23.938   0.247
29105W        W94332   3.344  34.291  10.485
29106W        W94333  39.605  31.529  12.780
29107W        W94334  31.413   8.413   1.897
29108W        W94335  27.992  29.424  13.959
29109W        W94336  37.582   8.595   2.246
29110W        W94337   1.472  38.964  10.722
29111W        W94338  13.064   8.302   3.233
29112W        W94339  23.614   7.709   1.341
29113W        W94340  17.201  19.004   1.307
29114W        W94341  24.466  13.823  11.618
29115W        W94342  37.091   0.525  13.915
29116W        W94343  20.155  22.853   2.869
29117W        W94344  18.537  32.659   4.669
29118W        W94345  37.331  26.685   1.668
29119W        W94346  40.887   2.412  13.690
29120W        W94347  40.264  27.516   3.385
29121W        W94348  28.289  20.623   3.272
29122W        W94349  35.381  19.917   4.891
29123W        W94350  41.851  31.280   0.925
29124W        W94351  39.966  39.713  13.706
29125W        W94352   4.817  24.840   3.084
29126W        W94353  25.180  23.241   4.529
29127W        W94354  34.653  44.288  13.941
29128W        W94355  27.403  18.231   4.732
29129W        W94356  17.732  14.930  11.534
29130W        W94357  33.933  20.712   4.163
29131W        W94358  44.983  34.728  11.110
29132W        W94359  29.118  40.529  13.305
29133W        W94360  22.709  17.965   2.366
29134W        W94361   5.080  29.603   2.390
29135W        W94362  33.113  37.097  14.172
29136W        W94363  16.554  26.407  11.057
29137W        W94364  23.283  12.491   1.217
29138W        W94365  34.017  35.959   4.688
29139W        W94366   4.525  24.838  12.300
29140W        W94367  13.831  17.558  11.230
29141W        W94368   1.886  21.970   0.866
29142W        W94369  33.833  10.070   5.097
29143W        W94370   2.720  44.116   2.272
29144W        W94371  22.652  44.784  11.904
29145W        W94372  33.083  18.201   2.728
29146W        W94373   4.610  34.990  10.898
29147W        W94374  20.583   4.051   2.654
29148W        W94375  19.180  14.444   4.329
29149W        W94376  16.520  13.541  12.587
29150W        W94377  17.584  16.214   2.845
29151W        W94378  23.058  38.910   1.739
29152W        W94379  15.788   3.772  12.970
29153W        W94380  42.265  16.130  11.688
29154W        W94381  41.593  25.009  14.898
29155W        W94382  11.747  15.740   0.273
29156W        W94383  23.034  17.118  14.102
29157W        W94384  44.003  12.185  13.334
29158W        W94385   4.615  16.077   1.523
29159W        W94386  32.017  17.153  13.310
29160W        W94387  43.182  14.989  12.517
29161W        W94388  23.752  22.438  12.534
29162W        W94389  26.296  30.356   2.174
29163W        W94390  14.312  31.922   5.113
29164W        W94391  21.262  14.699   4.543
29165W        W94392  23.079  27.723   4.610
29166W        W94393  37.491   5.288   4.986
29167W        W94394   1.288  26.993   4.037
29168W        W94395  35.612  10.256   0.886
29169W        W94396   6.245  10.764   4.811
29170W        W94397  33.096   3.933  12.435
29171W        W94398  25.325  44.061   0.782
29172W        W94399  23.084  42.897  11.298
29173W        W94400   2.491  16.345  14.435
29174W        W94401  12.163  17.199  12.887
29175W        W94402  14.887   0.319   1.441
29176W        W94403  29.303   2.416   3.178
29177W        W94404  14.859  41.824   3.681
29178W        W94405  10.237   2.784  11.996
29179W        W94406  41.520  31.229  10.669
29180W        W94407  18.712  28.063  11.628
29181W        W94408   4.132  32.929  13.546
29182W        W94409  31.813  40.260   2.753
29183W        W94410  16.961  34.253  13.602
29184W        W94411   3.222  33.142  14.959
29185W        W94412  30.784   8.845  13.014
29186W        W94413  30.712  33.080   3.589
29187W        W94414   1.228   2.638   3.346
29188W        W94415  42.217  36.176   4.328
29189W        W94416  17.030  33.134  10.686
29190W        W94417  15.573  11.342  14.411
29191W        W94418  18.795  43.886  14.187
29192W        W94419   4.373  35.210   3.652
29193W        W94420  11.181  28.421  10.982
29194W        W94421  36.628   5.436   1.890
29195W        W94422   6.931  42.735   1.840
29196W        W94423  19.299  15.897  14.445
29197W        W94424  19.798  35.389  11.828
29198W        W94425  42.025  10.917  11.217
29199W        W94426  42.736  18.607   4.922
29200W        W94427   0.773  20.272  13.714
29201W        W94428  38.479  13.036  13.973
29202W        W94429   2.703   8.794  12.048
29203W        W94430  20.532  29.771  12.155
29204W        W94431  10.631  36.436   3.242
29205W        W94432  25.117   0.637   0.182
29206W        W94433  42.212  18.564   1.397
29207W        W94434  12.313  10.848   1.105
29208W        W94435  21.028  20.653  14.384
29209W        W94436  11.924  14.102  11.049
29210W        W94437  12.889  28.006   4.474
29211W        W94438  42.154  37.159  10.050
29212W        W94439  11.318  14.351   1.195
29213W        W94440   6.043  44.952  12.221
29214W        W94441  32.179  21.535  11.522
29215W        W94442  10.852  20.561   1.936
29216W        W94443  30.913  37.341  13.980
29217W        W94444  32.675   8.692   9.767
29218W        W94445  24.503  19.515  13.520
29219W        W94446  33.346   7.904   1.766
29220W        W94447  32.520  44.579  11.512
29221W        W94448   5.822  15.591  13.098
29222W        W94449  38.914  43.442   4.144
29223W        W94450   1.153  25.713  12.194
29224W        W94451  35.811  32.944  11.369
29225W        W94452   1.695   5.892  11.865
29226W        W94453  20.082  26.556  12.611
29227W        W94454  41.467  39.391   3.678
29228W        W94455   5.971  42.533   1.970
29229W        W94456  18.546  26.650   4.534
29230W        W94457   5.778  38.822  13.060
29231W        W94458  35.432  12.086   2.176
29232W        W94459  17.329  17.674   2.406
29233W        W94460   9.065  34.109  14.507
29234W        W94461   6.984   0.048   3.990
29235W        W94462  37.462   6.574  13.399
29236W        W94463  11.373  13.839   1.264
29237W        W94464  38.736  13.384   0.681
29238W        W94465  28.232  34.902   4.552
29239W        W94466  12.111   9.118  11.739
29240W        W94467   1.770  25.759   0.809
29241W        W94468  24.020  26.206   0.759
29242W        W94469  10.655  18.243   4.026
29243W        W94470  15.701  33.631  13.914
29244W        W94471  34.543  16.805  11.640
29245W        W94472  25.068  37.896   3.931
29246W        W94473  26.735  32.477   0.759
29247W        W94474  10.892  26.235  11.025
29248W        W94475  35.946  21.861  12.656
29249W        W94476  30.101  25.553   4.041
29250W        W94477   0.825  18.308  13.668
29251W        W94478  39.492  34.020  13.134
29252W        W94479  37.179  39.546  14.308
29253W        W94480  23.590  25.368  13.114
29254W        W94481   4.907   5.207   4.496
29255W        W94482  35.028  11.383  11.601
29256W        W94483  30.895   0.759  12.855
29257W        W94484  20.036  43.356   4.715
29258W        W94485  30.434  21.564  14.883
29259W        W94486  26.704  22.264   2.798
29260W        W94487  29.055   9.382  13.011
29261W        W94488  28.018  22.223   4.152
29262W        W94489  23.430  31.451   1.678
29263W        W94490  36.051  16.638  14.937
29264W        W94491  21.674  14.380  13.186
29265W        W94492   5.825  12.795   3.328
29266W        W94493  36.899  22.574  13.134
29267W        W94494  27.964  27.070  11.900
29268W        W94495  20.612  24.195  11.146
29269W        W94496  30.987   8.880   3.305
29270W        W94497  27.462  31.607   2.615
29271W        W94498  28.967  10.715  12.859
29272W        W94499   8.927  28.922   2.646
29273W        W94500  19.227  22.953   1.935
29274W        W94501   3.047  25.412  13.199
29275W        W94502  36.275  23.909   3.770
29276W        W94503  27.954   8.624   4.092
29277W        W94504  42.747  15.927   0.287
29278W        W94505  21.337  17.345   3.706
29279W        W94506  16.267  41.005  14.501
29280W        W94507  28.175  15.111  12.496
29281W        W94508  20.149   5.926  12.432
29282W        W94509  31.673   1.382   3.692
29283W        W94510  13.689  19.024  13.064
29284W        W94511  20.091  27.969   0.847
29285W        W94512  15.542  14.352  13.123
29286W        W94513   9.983   7.738  14.986
29287W        W94514  27.257  11.857   0.891
29288W        W94515  41.572  34.502   4.265
29289W        W94516   8.481  30.152   3.530
29290W        W94517  21.163  36.450   3.186
29291W        W94518  10.773  11.174  12.908
29292W        W94519  26.885  14.752   0.286
29293W        W94520  19.322  11.278  14.942
29294W        W94521  26.639   1.331   3.766
29295W        W94522   4.818  24.632   1.013
29296W        W94523   7.037  44.906   3.196
29297W        W94524  38.366   5.646   1.882
29298W        W94525  16.642  42.249   0.172
29299W        W94526   6.419   9.972   0.697
29300W        W94527  44.079  15.832  11.556
29301W        W94528  18.187  19.156  10.744
29302W        W94529  38.337  31.660  13.504
29303W        W94530  35.513  19.935  10.678
29304W        W94531  16.647  30.533   2.230
29305W        W94532  18.830  30.354   4.478
29306W        W94533  41.413  21.361   4.136
29307W        W94534  41.481  34.513  14.050
29308W        W94535  24.610   9.343   2.605
29309W        W94536  29.475  38.318  12.823
29310W        W94537  44.055  17.458   1.759
29311W        W94538   3.955  15.278  12.360
29312W        W94539  14.318  30.499  12.884
29313W        W94540  36.568  43.023  13.888
29314W        W94541  42.995  32.045   4.049
29315W        W94542  19.249  42.872   1.378
29316W        W94543  43.932  44.417  12.513
29317W        W94544   2.896  43.455   2.579
29318W        W94545  31.111  38.450  13.806
29319W        W94546  39.580   6.636  13.030
29320W        W94547  10.833  43.375   3.171
29321W        W94548  16.006   3.473  12.618
29322W        W94549  33.140   2.378   4.756
29323W        W94550  34.510  36.300   2.712
29324W        W94551   8.149  24.136  14.305
29325W        W94552  32.060   1.253  10.924
29326W        W94553  27.693  40.538  10.626
29327W        W94554   7.826  32.922   0.883
29328W        W94555  27.944  37.393   0.963
29329W        W94556   6.200  28.941   1.789
29330W        W94557  28.292  17.943   2.283
29331W        W94558  13.637  27.576  10.828
29332W        W94559  32.119  29.068  13.869
29333W        W94560  11.360  15.776  13.535
29334W        W94561  21.625  43.092   0.885
29335W        W94562  26.935   7.261   2.743
29336W        W94563  44.406  24.626   0.870
29337W        W94564   2.431  34.179  10.794
29338W        W94565  41.612  20.598   0.293
29339W        W94566  33.644  19.857  14.920
29340W        W94567  31.862  30.936   0.815
29341W        W94568  15.358  23.684  10.773
29342W        W94569  14.971  27.001   3.144
29343W        W94570  16.570  29.680  11.564
29344W        W94571   9.748  37.960   2.633
29345W        W94572  34.018  31.467  11.267
29346W        W94573  39.406  11.390  12.979
29347W        W94574  41.584  14.213  11.594
29348W        W94575  19.977   8.274  14.970
29349W        W94576  13.993  40.152  11.211
29350W        W94577   7.797  18.174  14.897
29351W        W94578   3.687   2.090   1.225
29352W        W94579   5.306  10.784  12.010
29353W        W94580  28.218   4.654  10.397
29354W        W94581  21.415   3.538  10.226
29355W        W94582  44.494   2.589   3.470
29356W        W94583  17.304  34.772   4.182
29357W        W94584  26.024  42.387  14.989
29358W        W94585  38.975  41.547   4.088
29359W        W94586   8.665  38.833  13.304
29360W        W94587   7.600  32.489   4.090
29361W        W94588  10.010  29.953   1.011
29362W        W94589  44.235  35.947   0.467
29363W        W94590  10.124   7.253   0.264
29364W        W94591   2.519  10.641   1.794
29365W        W94592  24.329  12.905  12.021
29366W        W94593  26.656  41.135   1.116
29367W        W94594  23.729  25.587  11.301
29368W        W94595  34.559  37.103  11.533
29369W        W94596  20.676  15.261  13.534
29370W        W94597   3.486   0.525   3.070
29371W        W94598  35.099   1.704   0.242
29372W        W94599  15.220   3.409   3.697
29373W        W94600   1.965  17.010   4.583
29374W        W94601  36.258  23.068   1.464
29375W        W94602  42.631   2.424   4.429
29376W        W94603  23.811  16.646   0.136
29377W        W94604  12.156  24.151  14.412
29378W        W94605   1.397  40.362  13.972
29379W        W94606  41.439  31.684   4.813
29380W        W94607  32.399  42.418   0.226
29381W        W94608  25.113  33.580  14.823
29382W        W94609   1.075  31.686  13.853
29383W        W94610  14.748  14.915  14.998
29384W        W94611  37.059  18.997  13.531
29385W        W94612  27.979  39.939   1.041
29386W        W94613  24.681  13.829   1.909
29387W        W94614  26.143  22.496   3.269
29388W        W94615  42.369  15.626  11.697
29389W        W94616   1.372  42.471  12.997
29390W        W94617  15.238  33.424  13.714
29391W        W94618  13.971  16.050   3.604
29392W        W94619   2.925  41.718   4.925
29393W        W94620  15.742  21.518  10.897
29394W        W94621  24.288  27.736   0.594
29395W        W94622  17.027   1.463   4.217
29396W        W94623  33.908   5.164   0.842
29397W        W94624  17.557   2.824   2.565
29398W        W94625  22.778  11.688   1.198
29399W        W94626  29.269  36.739   5.353
29400W        W94627  43.709   0.860  12.888
29401W        W94628   1.548  29.669  12.485
29402W        W94629  20.192  22.549   4.895
29403W        W94630   0.398   4.434  11.157
29404W        W94631  17.799  18.581   1.841
29405W        W94632  37.986  38.478  10.503
29406W        W94633  30.095   8.703  12.491
29407W        W94634   4.029  26.316  14.110
29408W        W94635  36.171  24.268   4.186
29409W        W94636  12.076  17.658  13.446
29410W        W94637   1.808  13.771   2.394
29411W        W94638  37.444  30.528   0.788
29412W        W94639  24.749  17.624   0.763
29413W        W94640  32.522  34.990   2.874
29414W        W94641  29.026   1.800   3.569
29415W        W94642  42.227  31.942   3.648
29416W        W94643   0.959   6.198   2.779
29417W        W94644  11.134  38.268   0.354
29418W        W94645   9.914   8.784   3.754
29419W        W94646  41.271   6.587  13.938
29420W        W94647  19.596  29.099   2.599
29421W        W94648  22.306  13.413  12.567
29422W        W94649  36.757   4.009  12.250
29423W        W94650  39.280  36.619   3.747
29424W        W94651  37.324  22.278  12.450
29425W        W94652   1.738  31.910  10.440
29426W        W94653  21.830  36.802   2.464
29427W        W94654  42.904   6.294  14.535
29428W        W94655  25.184  35.665  14.823
29429W        W94656  23.367  11.172  12.151
29430W        W94657   5.911  13.250   1.560
29431W        W94658  20.744  14.613   3.856
29432W        W94659  32.074   6.453  12.035
29433W        W94660  29.483  40.506   2.994
29434W        W94661  21.618   6.303   2.365
29435W        W94662   1.956   7.879   0.158
29436W        W94663   8.856  38.876   0.947
29437W        W94664   0.086   3.509  14.851
29438W        W94665   4.666  22.542  12.172
29439W        W94666  15.146   5.517   4.542
29440W        W94667   8.277   3.464  12.241
29441W        W94668  37.820   7.235   3.134
29442W        W94669  44.444  39.934   3.166
29443W        W94670  18.382   7.254   2.459
29444W        W94671   8.126  10.908  12.645
29445W        W94672  25.898   7.337  12.630
29446W        W94673  16.615  41.710   1.848
29447W        W94674  29.119   0.931   4.571
29448W        W94675   1.556  25.702  14.412
29449W        W94676  36.262  20.800  11.155
29450W        W94677   6.898  31.198   2.120
29451W        W94678  25.215   0.916  14.292
29452W        W94679   2.759  12.211  10.693
29453W        W94680   1.687  13.617  13.288
29454W        W94681  23.942  32.658   1.380
29455W        W94682  11.814  25.548   0.207
29456W        W94683   6.182  35.943   1.282
29457W        W94684  29.039  34.286  11.608
29458W        W94685   6.703   2.313   2.073
29459W        W94686  29.694  31.567   3.205
29460W        W94687  40.419  21.930   3.319
29461W        W94688  23.100  35.472  12.801
29462W        W94689  36.642  32.966  11.246
29463W        W94690   0.821   4.910  12.140
29464W        W94691  42.352   9.849  13.303
29465W        W94692  35.551  23.619   1.025
29466W        W94693  25.146  44.297   4.601
29467W        W94694  44.994   0.501  14.284
29468W        W94695  27.161  40.196  11.503
29469W        W94696   1.207  31.777  11.616
29470W        W94697   8.417  27.572   1.613
29471W        W94698  28.930   6.247  11.132
29472W        W94699  11.169  20.141   1.245
29473W        W94700  25.002   1.007   1.447
29474W        W94701  20.257  32.041   3.828
29475W        W94702  11.898  17.774   4.376
29476W        W94703  25.521  41.839  10.869
29477W        W94704  40.386  25.187  10.700
29478W        W94705   0.717  21.639  12.370
29479W        W94706   7.546  40.283   1.509
29480W        W94707  38.951  43.493  14.466
29481W        W94708   2.343  44.541  14.620
29482W        W94709  27.118  13.751   3.189
29483W        W94710  21.765  23.249   3.647
29484W        W94711  34.028   9.153   1.062
29485W        W94712   9.135  30.122   2.247
29486W        W94713  28.600  42.084  10.703
29487W        W94714  14.393   8.205  12.899
29488W        W94715  22.192  16.020   4.778
29489W        W94716  30.331  19.599  13.278
29490W        W94717  29.754  27.244  14.293
29491W        W94718  34.370  24.058   0.522
29492W        W94719  11.247  26.237   2.422
29493W        W94720  44.956   5.265   3.285
29494W        W94721  13.807   6.988   3.390
29495W        W94722   5.881  22.187  14.437
29496W        W94723  26.998  12.087   3.155
29497W        W94724  39.370  27.594   0.980
29498W        W94725  10.161  33.938  11.577
29499W        W94726   3.841  38.615  14.311
29500W        W94727   3.239  32.328  14.507
29501W        W94728  10.274  15.550  12.991
29502W        W94729  13.354  19.739   3.908
29503W        W94730  42.858  10.328   4.603
29504W        W94731  30.592   3.180  12.924
29505W        W94732  10.867   9.118  12.171
29506W        W94733  16.769  23.450   3.201
29507W        W94734   9.231  11.484   4.228
29508W        W94735   7.737  39.298   1.783
29509W        W94736  11.400  22.642  10.676
29510W        W94737  20.503   0.728   1.398
29511W        W94738  11.504  43.826  11.984
29512W        W94739  25.324  21.454   0.479
29513W        W94740  33.606   9.638   0.449
29514W        W94741   1.436   1.306  11.634
29515W        W94742  34.492  42.713  10.652
29516W        W94743   0.962  34.933   2.554
29517W        W94744   6.750  22.716  14.565
29518W        W94745  37.950   6.249  12.931
29519W        W94746  28.012  40.410   0.273
29520W        W94747  41.504  43.438  11.506
29521W        W94748  22.309   3.762   1.536
29522W        W94749   4.022  18.327   2.849
29523W        W94750  25.152  39.864   4.159
29524W        W94751  34.303  15.953  13.591
29525W        W94752  17.803  36.537  13.839
29526W        W94753  26.930  23.299  11.620
29527W        W94754  23.909  21.418  12.373
29528W        W94755  20.617   1.594  10.536
29529W        W94756  37.402   8.746   4.464
29530W        W94757   7.481  25.691   3.317
29531W        W94758   9.703   9.168  13.503
29532W        W94759   5.834  36.652   2.817
29533W        W94760  42.369   5.524  10.744
29534W        W94761  36.963  36.470   1.409
29535W        W94762  36.956  10.379  10.635
29536W        W94763  34.907  13.348  10.177
29537W        W94764   0.859  10.983  10.625
29538W        W94765   0.291  29.982   3.252
29539W        W94766  14.376  41.576   3.207
29540W        W94767   9.322  10.858  13.688
29541W        W94768  36.235  19.741  13.308
29542W        W94769   2.463  37.767  12.100
29543W        W94770   1.137  44.143   2.673
29544W        W94771  34.188  36.448  12.918
29545W        W94772  21.968  10.796  10.771
29546W        W94773  20.499  36.012   2.336
29547W        W94774  40.373  33.095  10.355
29548W        W94775  33.443  25.117   2.707
29549W        W94776  14.293  43.967  10.040
29550W        W94777  43.908  31.114   3.701
29551W        W94778  11.759  31.761   5.270
29552W        W94779  21.477  36.166  13.475
29553W        W94780  38.375  30.656   4.169
29554W        W94781   3.167  31.940   2.865
29555W        W94782   6.005  11.054   3.574
29556W        W94783  24.090  37.407  14.974
29557W        W94784  39.023  18.471   3.377
29558W        W94785  33.110  22.170   2.764
29559W        W94786  39.850  22.066   0.357
29560W        W94787  11.159  43.273   2.263
29561W        W94788  37.933   7.679   1.390
29562W        W94789   3.735  29.810   3.356
29563W        W94790  22.571   4.728  14.406
29564W        W94791  38.379  28.189   1.501
29565W        W94792  40.889  38.814  11.997
29566W        W94793  41.096  40.805  11.204
29567W        W94794  15.631  28.802  11.100
29568W        W94795  38.826  33.820  11.487
29569W        W94796   6.600   0.733  14.020
29570W        W94797  41.599  12.921   0.823
29571W        W94798   2.966   9.302   3.698
29572W        W94799  21.449   3.352  14.382
29573W        W94800  16.032  38.567   1.307
29574W        W94801  26.175  35.870   3.151
29575W        W94802  27.380   4.594  13.442
29576W        W94803  42.527  14.113   1.781
29577W        W94804  24.826  41.234   4.097
29578W        W94805  17.499  41.512  14.887
29579W        W94806  21.261   6.378  10.660
29580W        W94807  16.289  30.473   4.521
29581W        W94808  23.495  10.202   0.467
29582W        W94809  20.337  21.137  13.411
29583W        W94810  17.570   3.398   3.241
29584W        W94811  32.246  13.665  13.776
29585W        W94812  27.130  39.807   0.468
29586W        W94813  38.749  16.807   2.235
29587W        W94814  31.126  40.364   3.806
29588W        W94815  14.371  37.862   3.390
29589W        W94816  32.286  30.037  12.192
29590W        W94817  10.695  24.006   2.238
29591W        W94818  36.805  10.123  12.890
29592W        W94819  25.977  40.694  12.184
29593W        W94820  43.370  37.966  12.000
29594W        W94821  24.144  33.393   2.463
29595W        W94822   2.889  44.512  10.230
29596W        W94823  25.649  25.749  11.951
29597W        W94824  27.623   0.072   3.050
29598W        W94825  35.053  11.036   0.531
29599W        W94826   2.686  27.754  12.048
29600W        W94827  35.016  16.840   3.115
29601W        W94828  18.832  10.066  13.388
29602W        W94829  25.708  23.936   4.396
29603W        W94830   6.917  13.740  13.420
29604W        W94831   8.739  38.964  10.962
29605W        W94832  33.927  33.586  13.609
29606W        W94833   5.356  40.280  13.040
29607W        W94834   0.703  27.236   0.852
29608W        W94835   6.444  40.029   1.311
29609W        W94836  39.009  29.504   4.108
29610W        W94837   0.736  13.213   1.663
29611W        W94838   1.569  11.637  11.787
29612W        W94839  13.373  34.781   4.104
29613W        W94840  30.574  10.410   1.608
29614W        W94841  15.978  37.013  11.666
29615W        W94842  43.419  36.109  14.760
29616W        W94843  24.759  37.036   2.008
29617W        W94844   8.662  26.544   1.921
29618W        W94845  28.952   7.202  11.424
29619W        W94846  42.054  13.314  14.415
29620W        W94847  39.457  19.363  14.003
29621W        W94848  13.159  26.580  12.646
29622W        W94849  12.838  44.905   1.683
29623W        W94850  31.069  12.673  12.177
29624W        W94851  21.658  38.713  12.932
29625W        W94852  29.926  26.886   1.332
29626W        W94853  33.514  38.159  10.779
29627W        W94854  33.403  14.259   2.883
29628W        W94855  27.881   4.631  13.353
29629W        W94856  15.006  21.276   3.397
29630W        W94857   0.945  42.835   0.428
29631W        W94858  12.577  34.960   3.286
29632W        W94859  20.074  29.029  14.564
29633W        W94860  13.894  11.349  14.038
29634W        W94861  38.946   2.415   1.738
29635W        W94862  16.114   9.551   1.422
29636W        W94863  43.180  40.441   4.935
29637W        W94864  28.055  38.678  10.910
29638W        W94865  13.727   2.797   0.877
29639W        W94866  30.545  23.630   1.750
29640W        W94867  43.752  11.800  12.361
29641W        W94868   6.883   4.365  13.031
29642W        W94869  16.359  36.243   1.793
29643W        W94870  37.339  44.229  12.875
29644W        W94871  38.045   8.446  14.894
29645W        W94872  24.577  11.872   4.766
29646W        W94873  39.463   4.207  12.548
29647W        W94874  42.484  42.002   1.314
29648W        W94875  10.631  30.034   2.454
29649W        W94876  18.477   6.530  13.375
29650W        W94877  18.048   4.827  10.726
29651W        W94878  38.133  37.897  13.040
29652W        W94879  14.020  18.594   0.420
29653W        W94880  35.145   6.365  12.456
29654W        W94881  24.162  33.650   4.776
29655W        W94882  25.040  10.676   1.272
29656W        W94883   3.749  28.604  10.635
29657W        W94884  42.729  26.436   2.773
29658W        W94885  22.679   3.886  14.975
29659W        W94886  39.851  34.639  14.335
29660W        W94887  18.344  31.901   3.603
29661W        W94888  43.910  29.952  12.950
29662W        W94889  28.477  36.439   1.832
29663W        W94890  25.036  38.757   3.378
29664W        W94891  37.467  24.642  13.019
29665W        W94892  22.998  14.658   1.691
29666W        W94893  41.758  38.376   3.706
29667W        W94894  33.421   4.362  13.979
29668W        W94895  14.773  43.005  10.778
29669W        W94896  36.525  16.124   3.702
29670W        W94897  22.684  38.403  12.888
29671W        W94898   1.872   9.707  14.505
29672W        W94899  29.087  25.615   1.852
29673W        W94900   9.244  31.716  13.902
29674W        W94901  41.651   1.790  11.352
29675W        W94902  15.641  21.622   0.818
29676W        W94903  39.199  10.819   4.827
29677W        W94904   4.496   4.329  13.361
29678W        W94905  11.687   0.762   4.998
29679W        W94906  39.557   7.252  11.635
29680W        W94907  30.727  31.712  11.976
29681W        W94908  15.009  20.283   4.234
29682W        W94909  41.756  14.195   1.294
29683W        W94910  41.934  17.250   3.195
29684W        W94911  38.070  25.389  13.142
29685W        W94912  36.357  38.159  13.353
29686W        W94913  30.229  36.510  12.526
29687W        W94914   9.272  19.057  11.580
29688W        W94915  21.073  17.948   4.373
29689W        W94916  34.507   8.677  13.977
29690W        W94917   0.015   6.585  11.919
29691W        W94918  36.113  44.492   5.163
29692W        W94919  23.644  17.269   3.880
29693W        W94920  42.515  41.083  12.994
29694W        W94921  19.672   7.797   4.160
29695W        W94922  16.091   6.755   3.164
29696W        W94923  16.284  32.917  11.114
29697W        W94924  28.209  44.872   1.187
29698W        W94925  30.018  35.099   2.409
29699W        W94926  28.008  23.484   2.177
29700W        W94927  12.623  34.646   1.449
29701W        W94928  19.454  26.818   2.236
29702W        W94929  12.926  35.128   4.760
29703W        W94930  39.849  37.362  13.735
29704W        W94931  14.337  28.370  11.562
29705W        W94932  35.580  10.961  12.956
29706W        W94933  43.368  30.758   3.032
29707W        W94934  37.560   8.162  10.839
29708W        W94935  41.575  20.143   1.779
29709W        W94936  10.179  38.097  11.237
29710W        W94937  32.847   7.898   4.109
29711W        W94938  24.338  30.883  10.566
29712W        W94939  29.406  31.104   1.936
29713W        W94940   6.160  18.321  10.257
29714W        W94941  32.017  16.794   2.892
29715W        W94942  40.087  20.568   3.252
29716W        W94943  23.711  28.121  14.503
29717W        W94944   0.285   6.964   4.015
29718W        W94945  40.252  32.866   0.905
29719W        W94946   2.402  12.575   4.150
29720W        W94947  18.657  42.809  13.503
29721W        W94948   4.212  11.295  11.606
29722W        W94949   5.248  28.072  14.641
29723W        W94950  28.238  29.678   2.235
29724W        W94951  37.515  44.828  13.491
29725W        W94952   2.305  34.831   4.653
29726W        W94953   0.518   4.913  14.981
29727W        W94954  26.433  35.078   0.087
29728W        W94955  15.544  44.906   0.289
29729W        W94956   4.306  13.643  13.962
29730W        W94957  14.430  14.849  12.480
29731W        W94958  23.242  12.681  12.808
29732W        W94959  24.186  24.939   2.320
29733W        W94960  38.693  22.107   0.960
29734W        W94961  25.540   6.427  14.371
29735W        W94962   5.257  31.735   1.946
29736W        W94963  38.879   1.851  14.731
29737W        W94964  19.398  35.534  14.370
29738W        W94965  11.104  22.172   1.069
29739W        W94966  16.584   0.235  12.089
29740W        W94967  39.291  30.619  13.276
29741W        W94968  41.925  18.086   3.101
29742W        W94969  11.226   9.593   4.600
29743W        W94970  16.528   7.576   0.411
29744W        W94971  23.915  32.553  11.492
29745W        W94972  13.833   9.628   2.366
29746W        W94973   5.150  16.120   4.737
29747W        W94974  27.066  25.859  12.475
29748W        W94975  44.876  43.517  13.065
29749W        W94976  17.803  27.229  12.668
29750W        W94977  15.384  21.727   2.693
29751W        W94978  43.833   4.826  14.422
29752W        W94979  26.929  24.721  11.506
29753W        W94980  35.435  40.055  12.022
29754W        W94981  25.351  15.330  12.186
29755W        W94982  15.239  27.001  10.975
29756W        W94983   6.817  19.298   4.082
29757W        W94984  26.192  40.387   3.699
29758W        W94985  22.351  10.518  14.383
29759W        W94986  32.932   6.391   2.369
29760W        W94987   8.686  14.562  14.907
29761W        W94988  32.910  13.294   0.762
29762W        W94989  19.086  16.651   4.626
29763W        W94990  22.632  44.256   3.285
29764W        W94991   7.766  34.951   1.196
29765W        W94992  43.446   0.077  14.560
29766W        W94993  23.991  41.985   1.270
29767W        W94994   1.880  29.955   0.208
29768W        W94995  34.494  43.389   4.709
29769W        W94996  15.807  37.823  13.122
29770W        W94997  24.471   3.202  12.140
29771W        W94998  28.397  25.610   0.196
29772W        W94999   5.257  22.069  13.747
29773W        W95000  28.775  13.359   2.147
29774W        W95001  27.543   7.849  12.363
29775W        W95002  14.868  23.475  10.842
29776W        W95003  21.792   3.774   1.759
29777W        W95004  38.591   1.836  11.097
29778W        W95005   6.900  20.154  13.977
29779W        W95006  15.656   3.087   0.110
29780W        W95007  27.609  16.776   1.329
29781W        W95008  42.310   3.423   0.319
29782W        W95009   4.409  34.387   3.352
29783W        W95010   2.811  18.111  13.936
29784W        W95011  11.680   4.109   2.804
29785W        W95012  41.137  44.294  13.515
29786W        W95013   4.843  25.998  13.337
29787W        W95014   4.202  38.020  13.896
29788W        W95015  32.169   1.831  14.828
29789W        W95016  20.516  10.749  13.903
29790W        W95017  39.486  21.775   2.119
29791W        W95018  34.888  32.985   2.132
29792W        W95019  34.995  39.997  12.405
29793W        W95020  20.550  28.413   0.349
29794W        W95021  28.486  16.261  10.612
29795W        W95022  43.620  41.996   3.044
29796W        W95023  40.521   4.395   5.020
29797W        W95024  43.700  12.652  12.560
29798W        W95025  20.526   7.173   0.486
29799W        W95026  39.126  43.836  12.262
29800W        W95027  33.082   6.400   4.366
29801W        W95028  25.588  21.686   2.232
29802W        W95029   4.204  21.402  11.558
29803W        W95030  16.600  12.072  14.016
29804W        W95031  11.446  18.421  13.717
29805W        W95032  40.066  41.455   3.733
29806W        W95033  39.016  20.302  10.268
29807W        W95034  14.933  23.856  10.496
29808W        W95035  44.036   6.195  13.523
29809W        W95036  23.215  17.841  12.227
29810W        W95037  25.581  12.286   4.442
29811W        W95038  19.675  35.611   1.398
29812W        W95039   9.009  14.338   0.674
29813W        W95040   6.231  23.476   3.143
29814W        W95041  19.218  27.385   2.856
29815W        W95042  44.437  25.148   0.800
29816W        W95043  36.544  29.592   1.419
29817W        W95044  11.100  35.028   0.005
29818W        W95045  24.522   2.416  14.843
29819W        W95046  26.565  36.016  14.926
29820W        W95047  14.303  10.382  13.869
29821W        W95048  16.837   5.060   1.169
29822W        W95049  24.168  33.069   3.372
29823W        W95050  20.814  16.363  10.757
29824W        W95051  31.244  39.047   2.456
29825W        W95052  38.013   7.456   1.842
29826W        W95053   5.425   2.000   2.600
29827W        W95054  20.082   5.130  11.248
29828W        W95055  33.001  14.351  12.975
29829W        W95056  33.458  21.844   2.982
29830W        W95057  23.186  43.848   2.554
29831W        W95058  41.972  14.058  13.866
29832W        W95059  22.303   8.209   1.248
29833W        W95060  16.779  13.381   0.435
29834W        W95061  32.793   8.761  10.832
29835W        W95062  40.343  43.503   4.105
29836W        W95063  14.965  13.834  13.826
29837W        W95064  43.422  44.219   3.257
29838W        W95065  16.331  42.398   4.181
29839W        W95066  13.209  41.466   2.388
29840W        W95067  26.099  43.485   0.001
29841W        W95068   3.365  41.019   1.233
29842W        W95069  37.063  20.800   4.642
29843W        W95070  21.359  32.167   4.521
29844W        W95071  25.732  27.212  13.832
29845W        W95072  28.843  26.661   9.515
29846W        W95073  22.673  10.173  13.995
29847W        W95074  31.970   0.471  14.997
29848W        W95075   3.971  25.227  13.322
29849W        W95076  24.741  31.744  10.692
29850W        W95077  27.653   1.322  11.888
29851W        W95078  36.823  24.179   1.299
29852W        W95079  16.024  31.935   3.437
29853W        W95080   3.303  15.160  13.594
29854W        W95081  13.799  25.769  12.502
29855W        W95082  20.342  16.953  13.144
29856W        W95083  13.229   7.020  12.040
29857W        W95084   6.473  19.903   4.592
29858W        W95085  22.157  37.432  12.861
29859W        W95086  39.997  10.649   3.548
29860W        W95087  16.007  16.631  13.601
29861W        W95088  30.852  33.624   0.860
29862W        W95089   9.380  17.798   2.203
29863W        W95090  13.878   3.716  14.265
29864W        W95091   4.340  28.480   4.185
29865W        W95092  32.791  23.006  11.659
29866W        W95093  16.529  11.869   3.951
29867W        W95094  25.575  10.289  11.146
29868W        W95095  30.917   0.656   0.450
29869W        W95096  11.344  35.138   2.797
29870W        W95097  39.504  29.699   2.816
29871W        W95098   5.202  40.860   0.211
29872W        W95099  17.128  38.106   4.571
29873W        W95100  18.075  11.377  11.614
29874W        W95101  29.514   9.228  13.800
29875W        W95102  24.687   4.434   3.795
29876W        W95103   7.971  14.147   5.468
29877W        W95104  24.888   1.375   2.223
29878W        W95105  30.871  35.184  14.723
29879W        W95106  16.842  11.706  14.924
29880W        W95107  28.805  38.832   2.475
29881W        W95108  11.783  35.662   0.406
29882W        W95109  31.411   2.075  14.383
29883W        W95110  19.119   0.510  12.060
29884W        W95111  31.313  37.728  14.774
29885W        W95112  36.966  34.495  14.375
29886W        W95113  27.493  13.299   0.316
29887W        W95114   9.715  43.983   4.124
29888W        W95115   8.831  36.877   4.618
29889W        W95116  40.275   1.557  12.591
29890W        W95117  19.543  30.756  13.618
29891W        W95118  41.487  34.912   2.928
29892W        W95119  17.486  37.987   0.232
29893W        W95120  36.479  40.978  11.731
29894W        W95121  35.846   1.222   4.575
29895W        W95122  20.073  43.541  13.693
29896W        W95123   3.364  19.254   1.631
29897W        W95124  41.215  26.289  12.495
29898W        W95125  30.359  11.824  10.258
29899W        W95126   1.703  24.828  10.333
29900W        W95127   2.919   1.303   0.338
29901W        W95128  13.879  21.991  14.385
29902W        W95129  39.757   8.308   1.516
29903W        W95130   1.625  14.263  14.760
29904W        W95131  14.779  43.342   4.445
29905W        W95132  12.170  37.954   2.307
29906W        W95133  19.967  28.803   4.245
29907W        W95134   7.889  28.537   1.455
29908W        W95135  38.633  43.661  12.905
29909W        W95136   9.264   6.222   4.714
29910W        W95137   4.186   4.423   0.610
29911W        W95138   8.790  43.959  11.976
29912W        W95139   5.136  26.372   1.841
29913W        W95140  28.592  34.040   0.870
29914W        W95141   7.843  30.480   3.710
29915W        W95142  18.417  37.083   3.255
29916W        W95143  21.717  39.145  11.079
29917W        W95144  41.798  24.862   0.371
29918W        W95145   9.411   4.430   4.328
29919W        W95146  19.326  36.501  11.890
29920W        W95147  27.906  26.237  12.439
29921W        W95148  39.606  17.760  11.109
29922W        W95149   4.536  40.768  10.707
29923W        W95150  11.989  15.730   2.744
29924W        W95151  40.974  27.125   0.331
29925W        W95152   6.749  11.715  10.195
29926W        W95153  18.813  43.745  10.695
29927W        W95154  40.116  27.785   1.816
29928W        W95155   2.469   7.733   2.003
29929W        W95156  30.973  14.298   2.910
29930W        W95157  44.490  35.804  12.912
29931W        W95158  24.084   2.202  12.708
29932W        W95159  44.484  30.558  12.413
29933W        W95160  17.147  26.602   0.195
29934W        W95161   3.208   3.627  11.827
29935W        W95162  36.912  27.051  14.032
29936W        W95163  27.803  43.760   0.733
29937W        W95164  30.061  40.620  13.643
29938W        W95165  20.774  35.899   1.795
29939W        W95166  15.077  32.915  14.412
29940W        W95167  43.951  36.932   1.294
29941W        W95168   4.812  31.439   3.913
29942W        W95169   9.048  18.959   4.121
29943W        W95170   6.459   3.520   1.437
29944W        W95171  23.714  19.576  14.453
29945W        W95172   4.718  13.569   1.370
29946W        W95173  32.396  14.313  12.312
29947W        W95174  23.033   5.236   2.676
29948W        W95175   1.358  23.481  13.913
29949W        W95176  20.597   2.479  13.883
29950W        W95177  21.307  21.258  13.857
29951W        W95178  32.807   4.800  13.506
29952W        W95179  11.771  42.277   1.876
29953W        W95180   1.729   3.678   3.414
29954W        W95181   0.254   9.420  12.120
29955W        W95182  25.503  32.210  13.161
29956W        W95183   9.362  14.789  13.568
29957W        W95184  19.948  25.564   1.907
29958W        W95185   4.221  41.775   1.170
29959W        W95186  19.686  39.049   1.310
29960W        W95187   9.735  18.351   2.664
29961W        W95188   7.921   0.894  13.894
29962W        W95189   4.409  36.483   0.872
29963W        W95190  30.167  25.038   4.992
29964W        W95191  35.197  41.709  13.877
29965W        W95192  34.955  29.558   4.068
29966W        W95193  30.634   9.695  12.136
29967W        W95194  25.136  38.487   4.485
29968W        W95195   7.528  24.577   3.245
29969W        W95196   1.156   0.247   2.287
29970W        W95197  32.991  32.798  11.568
29971W        W95198  33.189  14.903  12.555
29972W        W95199  23.286  17.145  13.639
29973W        W95200  19.220   7.144   4.208
29974W        W95201  32.318  25.968  11.937
29975W        W95202  42.910  33.945   1.374
29976W        W95203   6.167   6.342   1.463
29977W        W95204  14.360  24.089   3.125
29978W        W95205  39.998  42.112   0.699
29979W        W95206  24.556  26.638   4.355
29980W        W95207  43.100  31.960  10.222
29981W        W95208  16.271  16.830  13.994
29982W        W95209   8.484  19.668   3.836
29983W        W95210  25.149  33.614   4.488
29984W        W95211  30.378  32.308  12.923
29985W        W95212  15.139  41.781  14.931
29986W        W95213  38.187   4.062  10.585
29987W        W95214  25.131  26.599  14.968
29988W        W95215  34.886  35.807  11.418
29989W        W95216   4.381  17.271   3.311
29990W        W95217  19.001  40.080  14.297
29991W        W95218  40.440   6.413  10.460
29992W        W95219  14.545   0.473   3.937
29993W        W95220  38.997  18.339  13.007
29994W        W95221   2.147  30.526  13.118
29995W        W95222  23.266  15.949  11.954
29996W        W95223  42.473   8.315   3.968
29997W        W95224  33.412  12.189  14.356
29998W        W95225  15.141  37.003  14.446
29999W        W95226  36.975   3.143   1.777
30000W        W95227  17.483  23.848  14.923
30001W        W95228  22.128  40.832   0.441
30002W        W95229   5.687  42.938  10.471
30003W        W95230  31.544  15.270  12.581
30004W        W95231  30.457   2.907   1.819
30005W        W95232  28.566  29.513  11.438
30006W        W95233  19.728  10.798   4.540
30007W        W95234  26.433  28.002  14.827
30008W        W95235  15.469  35.487   0.230
30009W        W95236  21.463  27.875  11.617
30010W        W95237  17.222  34.569   3.710
30011W        W95238  22.646  40.728   0.385
30012W        W95239  19.444  16.647   2.735
30013W        W95240   6.753   4.349   4.979
30014W        W95241  36.326  32.627  13.084
30015W        W95242   7.634   0.514  13.653
30016W        W95243  41.310  30.532  10.985
30017W        W95244   9.719  26.000  11.573
30018W        W95245  23.156  36.866  14.573
30019W        W95246   4.411   4.756   1.908
30020W        W95247  21.103  25.965  14.425
30021W        W95248  14.286   7.128  14.247
30022W        W95249  38.193  41.526   0.203
30023W        W95250  25.886  42.527   2.294
30024W        W95251  33.453  41.294  14.905
30025W        W95252  31.539   0.478  11.254
30026W        W95253   4.164  14.555   3.625
30027W        W95254   9.336  43.030   1.872
30028W        W95255  25.227  21.526   1.409
30029W        W95256  31.921   7.830   4.048
30030W        W95257  13.620  41.499   1.555
30031W        W95258  31.693  24.229  14.356
30032W        W95259  30.103  40.301  14.037
30033W        W95260   2.350  22.048   1.119
30034W        W95261   1.790  44.410   0.531
30035W        W95262   8.102  12.132  13.056
30036W        W95263  14.605  13.996   1.239
30037W        W95264  36.947  30.511  14.821
30038W        W95265   1.359  33.371   3.328
30039W        W95266   4.888  15.293  12.015
30040W        W95267  39.955  37.113   2.492
30041W        W95268   0.274   6.021   3.710
30042W        W95269   0.928  40.353   4.176
30043W        W95270  22.784  26.146  13.866
30044W        W95271   5.251  32.087   0.325
30045W        W95272  22.325   6.497  10.740
30046W        W95273  19.473  13.783   0.452
30047W        W95274  18.011   9.411  14.288
30048W        W95275   5.346  18.192  11.523
30049W        W95276  14.633  17.535  12.501
30050W        W95277  14.382   3.068   3.201
30051W        W95278  10.103  30.667   2.841
30052W        W95279  26.281  27.518  11.179
30053W        W95280  21.060   7.418   4.580
30054W        W95281  30.033  41.965   1.814
30055W        W95282  24.685  34.458  13.318
30056W        W95283  44.416  26.945   2.346
30057W        W95284  38.442  15.212  12.434
30058W        W95285  28.896  27.233  12.045
30059W        W95286  30.640  26.072   3.353
30060W        W95287  40.031  33.753   2.282
30061W        W95288  34.251  35.855  11.155
30062W        W95289   1.787  36.128   2.364
30063W        W95290  32.071  11.435  11.136
30064W        W95291  43.640  12.936  13.852
30065W        W95292  14.796   3.802  12.111
30066W        W95293  17.018  10.777  12.071
30067W        W95294  31.950  34.819  13.932
30068W        W95295  16.163  19.062   3.903
30069W        W95296  20.561   5.327   0.724
30070W        W95297  29.086  24.739   2.650
30071W        W95298  23.155   0.511   0.774
30072W        W95299  39.493  40.579   1.262
30073W        W95300  42.948   6.353   2.849
30074W        W95301  26.604  27.950  11.134
30075W        W95302  37.028   1.248  12.578
30076W        W95303   9.302   5.769  13.079
30077W        W95304   6.161  29.089  12.456
30078W        W95305  22.683  32.646   0.346
30079W        W95306  33.505  12.966  13.933
30080W        W95307  27.681  38.273  12.416
30081W        W95308  23.541  37.045   2.366
30082W        W95309   0.245  39.856  12.238
30083W        W95310  43.520  41.308   1.853
30084W        W95311  12.773   1.856   4.043
30085W        W95312  40.859  17.558   1.634
30086W        W95313  39.087   4.820  13.657
30087W        W95314  19.759  31.182   0.461
30088W        W95315   3.371  13.873   4.458
30089W        W95316  34.972  29.491   1.880
30090W        W95317  15.221  34.337   0.494
30091W        W95318  36.905  25.306   2.103
30092W        W95319   6.703  23.643  10.606
30093W        W95320  41.384  40.885   4.579
30094W        W95321  36.270   5.783   4.549
30095W        W95322  43.736  42.921  11.413
30096W        W95323  44.783  41.120  11.658
30097W        W95324  14.706  31.161   1.233
30098W        W95325  44.440  29.054  13.995
30099W        W95326   5.310   2.337   0.911
30100W        W95327   1.204  16.068  10.372
30101W        W95328   1.328   8.585  13.678
30102W        W95329  29.271  22.157  13.356
30103W        W95330  23.702  33.062   2.596
30104W        W95331  19.316  18.235   3.040
30105W        W95332  21.958   6.635  14.475
30106W        W95333  18.301  34.900  12.401
30107W        W95334  18.217   5.368   3.659
30108W        W95335  44.557   4.988   0.111
30109W        W95336   0.430  29.169  12.007
30110W        W95337  38.478  33.865   1.949
30111W        W95338  31.355  30.153   2.827
30112W        W95339  12.343  23.042  10.685
30113W        W95340   4.411  36.292   3.723
30114W        W95341  44.239   1.916   0.789
30115W        W95342  37.975  36.632   3.306
30116W        W95343  27.725   7.130   4.487
30117W        W95344  22.794  39.129  11.119
30118W        W95345  36.144  27.218  11.224
30119W        W95346  14.700  13.800   2.911
30120W        W95347  11.790  23.597   3.885
30121W        W95348  40.528  13.860   3.359
30122W        W95349  32.904  18.652   0.420
30123W        W95350  28.682  37.963  11.152
30124W        W95351  22.979  22.735   2.268
30125W        W95352  27.495   7.063   3.621
30126W        W95353  41.342   9.180  11.170
30127W        W95354   1.201  24.700   3.686
30128W        W95355   6.959   9.252  12.631
30129W        W95356   1.741  17.491  14.398
30130W        W95357  27.678  32.991   3.984
30131W        W95358  24.687  33.913  14.098
30132W        W95359   1.697  30.964   0.794
30133W        W95360  28.184   7.308   2.812
30134W        W95361  11.223  38.848  11.401
30135W        W95362  30.896   9.756   4.770
30136W        W95363  17.737  42.784   0.342
30137W        W95364  39.302   2.768   3.174
30138W        W95365  21.149  11.886   4.727
30139W        W95366  27.004  34.297  12.420
30140W        W95367   4.443  31.414  14.723
30141W        W95368  38.332  25.007   3.266
30142W        W95369   7.983  15.627  13.901
30143W        W95370  44.781  41.014   0.783
30144W        W95371   5.274  32.436  10.798
30145W        W95372   3.103   8.853  12.403
30146W        W95373   4.272  35.011   0.824
30147W        W95374  10.708   7.390  10.375
30148W        W95375  16.788   5.354   0.717
30149W        W95376  26.084  12.297   4.116
30150W        W95377   8.417  41.341  11.458
30151W        W95378  23.994  29.430  13.808
30152W        W95379  40.775  13.557   3.703
30153W        W95380   4.707  23.909   4.472
30154W        W95381  28.210  36.451   1.386
30155W        W95382  35.535  43.378   3.592
30156W        W95383  22.705  28.898  13.029
30157W        W95384  38.111  25.301  11.381
30158W        W95385  26.284  37.727   2.225
30159W        W95386   3.353   6.243  14.848
30160W        W95387  10.202  14.811   2.954
30161W        W95388  23.028  25.117  14.874
30162W        W95389  26.767  25.217  10.382
30163W        W95390  35.457   1.790   4.197
30164W        W95391  25.765  30.940   1.892
30165W        W95392  25.639  25.414   2.243
30166W        W95393  14.883  34.585  14.316
30167W        W95394  33.520   6.757   0.921
30168W        W95395  21.778  43.030  14.858
30169W        W95396  40.917  38.350   0.550
30170W        W95397  34.378  24.102  10.966
30171W        W95398  28.848  37.521   1.698
30172W        W95399  33.776  35.541   2.197
30173W        W95400   4.486  25.958  11.041
30174W        W95401  34.024  41.771   2.566
30175W        W95402  32.463  16.532  10.681
30176W        W95403  14.199  33.693  13.454
30177W        W95404  42.008  15.568  11.322
30178W        W95405   4.890  28.264   2.152
30179W        W95406  22.907   9.901  12.032
30180W        W95407  23.665  35.328  11.125
30181W        W95408  19.606  36.072   3.287
30182W        W95409  18.071  21.666   1.691
30183W        W95410  32.218   3.957  12.870
30184W        W95411  27.217  29.975  12.386
30185W        W95412   6.735  27.186   1.875
30186W        W95413  33.625  26.378  10.346
30187W        W95414  27.840  23.533   4.390
30188W        W95415  32.462  28.270   4.495
30189W        W95416  27.456   4.913   0.936
30190W        W95417  20.955  21.964  12.504
30191W        W95418  27.709  32.266   2.087
30192W        W95419  30.167  40.884   0.919
30193W        W95420  44.069  26.157   4.765
30194W        W95421  31.037  29.529   0.711
30195W        W95422  17.607   7.526  13.550
30196W        W95423  12.381  14.642  13.981
30197W        W95424  20.974  28.122  14.855
30198W        W95425  23.494  12.191  14.451
30199W        W95426   5.521   6.625   2.848
30200W        W95427   2.149  27.204  12.008
30201W        W95428  29.948  10.227   1.886
30202W        W95429  21.272  37.436  12.923
30203W        W95430  15.134  43.195   1.145
30204W        W95431  21.956  10.970   2.309
30205W        W95432   1.770  34.141   1.228
30206W        W95433  44.471  13.782   4.886
30207W        W95434  16.110  32.519   1.683
30208W        W95435   2.454  34.524   0.977
30209W        W95436  43.855  23.006  14.816
30210W        W95437  14.814   7.777   3.818
30211W        W95438  21.781   2.081  14.479
30212W        W95439  16.796  21.161   4.180
30213W        W95440   2.488  25.092   0.687
30214W        W95441   8.842  35.020  12.132
30215W        W95442  18.352  37.832   2.666
30216W        W95443  25.096  10.404   0.830
30217W        W95444  32.966  34.296   2.773
30218W        W95445  33.623  41.401   3.717
30219W        W95446  39.820   8.829  13.843
30220W        W95447  39.273   9.383  12.097
30221W        W95448  43.357  17.702   2.809
30222W        W95449  44.614  33.983  11.392
30223W        W95450   9.889  13.826   2.793
30224W        W95451  30.190  37.795   0.231
30225W        W95452  24.509  32.168   1.069
30226W        W95453  21.833  40.497   3.701
30227W        W95454  22.739  10.610   4.265
30228W        W95455  23.307   7.257   4.811
30229W        W95456  30.622  22.014  14.006
30230W        W95457  24.069  20.184   2.299
30231W        W95458  14.677  38.234   2.766
30232W        W95459  12.155  33.939   4.575
30233W        W95460   9.935  29.146   1.880
30234W        W95461  22.531  42.561  11.530
30235W        W95462  12.530  38.416  11.979
30236W        W95463   4.944  12.140  14.954
30237W        W95464  42.301  37.024  13.038
30238W        W95465  17.849  25.160   2.729
30239W        W95466   2.347   3.251   4.952
30240W        W95467  11.312  39.846  12.542
30241W        W95468  43.770  26.047  13.489
30242W        W95469  32.886  20.497  12.978
30243W        W95470  21.444  20.574   5.021
30244W        W95471   1.963   4.936   4.739
30245W        W95472   9.261   5.651  13.567
30246W        W95473   4.208   9.719   0.921
30247W        W95474  44.125   5.209   4.991
30248W        W95475  37.007  37.937  11.204
30249W        W95476   5.853  43.843  12.463
30250W        W95477  29.990  40.854   4.238
30251W        W95478  10.651  41.069  14.478
30252W        W95479  43.261   7.210   2.719
30253W        W95480  33.420  10.006  12.904
30254W        W95481   9.831  42.780   1.840
30255W        W95482  35.257  33.439   0.876
30256W        W95483  11.390  40.789  13.529
30257W        W95484  19.233  37.483  13.947
30258W        W95485  18.660  13.837  10.919
30259W        W95486  36.542  20.583  13.959
30260W        W95487  40.545  32.570  11.157
30261W        W95488   9.426  37.771  14.911
30262W        W95489   4.726   1.018   1.257
30263W        W95490  14.386   5.661  11.157
30264W        W95491  23.679  29.069  13.051
30265W        W95492  11.010  10.704   1.410
30266W        W95493   6.238  42.560   0.385
30267W        W95494  38.536  27.526  14.741
30268W        W95495  44.237  37.050  11.159
30269W        W95496  17.576   9.218  10.488
30270W        W95497  34.876  30.518  10.502
30271W        W95498   0.874  23.350   4.631
30272W        W95499  23.146   1.380   2.685
30273W        W95500   2.530  39.108  14.494
30274W        W95501  15.842  40.854   2.657
30275W        W95502  41.857   6.262  11.669
30276W        W95503  32.241  38.965  14.503
30277W        W95504  22.298  20.277  12.564
30278W        W95505  25.598  24.492  12.625
30279W        W95506   0.712  42.774  12.440
30280W        W95507  11.149  34.323   2.560
30281W        W95508   7.525   3.949  13.601
30282W        W95509  24.233  38.945   4.503
30283W        W95510  41.909  10.447   0.544
30284W        W95511  27.751  31.165  12.811
30285W        W95512   7.834  29.249   4.587
30286W        W95513  36.764  29.889   3.809
30287W        W95514  10.506   8.856   5.113
30288W        W95515  27.687  16.005   4.096
30289W        W95516  12.695   0.952   4.538
30290W        W95517   6.964  11.642  12.338
30291W        W95518   1.773  21.791  13.936
30292W        W95519   5.869   5.201   2.877
30293W        W95520   1.247  20.345   3.134
30294W        W95521  11.115  28.677   1.222
30295W        W95522   4.727   6.962   0.531
30296W        W95523  21.227  17.809  14.021
30297W        W95524   5.828  38.381   2.377
30298W        W95525   5.461  35.460   4.176
30299W        W95526  12.630  24.573   4.256
30300W        W95527  44.316  13.263  13.054
30301W        W95528  21.037  29.169   1.711
30302W        W95529  25.001  38.533   0.641
30303W        W95530  26.039  23.213  10.630
30304W        W95531  34.090  18.901  13.493
30305W        W95532  29.121  44.875  12.108
30306W        W95533  15.663  14.094   0.531
30307W        W95534  20.623   4.526  12.047
30308W        W95535  32.498   3.487   3.927
30309W        W95536  37.771  16.275  13.925
30310W        W95537  34.052  37.619   1.230
30311W        W95538  20.281  24.139   0.216
30312W        W95539   6.568  19.737  11.582
30313W        W95540  40.225  14.681   2.578
30314W        W95541   8.264  20.079  14.907
30315W        W95542   2.514  28.969   4.979
30316W        W95543  34.034   2.683   0.311
30317W        W95544  15.870  17.137   3.825
30318W        W95545  40.699  15.637   2.639
30319W        W95546   0.906  39.283   0.767
30320W        W95547   0.177  20.622  12.075
30321W        W95548  44.526   9.300   2.369
30322W        W95549  29.054  24.931  11.965
30323W        W95550  22.410  25.095  13.259
30324W        W95551   5.320  44.568   0.016
30325W        W95552   5.649  18.104  11.118
30326W        W95553  25.138  19.752  11.094
30327W        W95554  12.190  15.867  14.485
30328W        W95555  43.094  11.579   2.124
30329W        W95556  40.328  38.388  14.942
30330W        W95557  10.606  23.130   2.343
30331W        W95558   0.929  26.610   2.621
30332W        W95559  18.245   7.798  14.363
30333W        W95560  25.027  27.427   0.251
30334W        W95561  15.277   2.002   2.903
30335W        W95562   9.824  39.092   1.328
30336W        W95563   0.736  11.104   4.127
30337W        W95564  29.096  17.139   0.474
30338W        W95565  12.038  20.364  14.751
30339W        W95566  10.221  35.136  12.160
30340W        W95567  26.103  29.716   2.784
30341W        W95568  42.045  39.327   3.545
30342W        W95569  42.835  39.734  10.838
30343W        W95570  20.947  34.668  11.665
30344W        W95571  22.521  25.963   1.761
30345W        W95572  18.666   5.437   3.939
30346W        W95573  25.586  37.239   4.806
30347W        W95574  19.998   1.994   4.044
30348W        W95575  26.830  11.133  11.945
30349W        W95576  20.092  11.080   4.237
30350W        W95577   7.293  27.980   4.455
30351W        W95578   9.822  19.869   2.857
30352W        W95579   8.102   2.258  13.557
30353W        W95580  35.677  37.812  12.939
30354W        W95581  41.639  12.346  14.007
30355W        W95582   4.351  25.585  13.341
30356W        W95583   9.382  17.706   4.122
30357W        W95584  14.872  14.163   0.756
30358W        W95585  37.835   2.832   2.835
30359W        W95586  12.189  18.075  10.546
30360W        W95587   3.783  23.504   2.600
30361W        W95588  32.052  31.230   0.282
30362W        W95589  44.387   7.163  12.865
30363W        W95590  35.423  22.636  12.088
30364W        W95591   0.359   7.995  14.947
30365W        W95592   8.179  12.641  10.447
30366W        W95593  18.849  27.720   2.694
30367W        W95594  20.776  43.399   0.911
30368W        W95595  42.869  44.778  11.985
30369W        W95596  37.461   6.980   1.438
30370W        W95597   3.045  18.085  14.454
30371W        W95598   4.890  32.630  13.779
30372W        W95599  18.789  11.839  14.858
30373W        W95600  22.836   3.367  14.821
30374W        W95601   1.287  31.008  13.835
30375W        W95602  18.235  21.124  12.209
30376W        W95603  24.035  27.943  13.595
30377W        W95604  15.833  14.343   2.795
30378W        W95605  16.508  17.219   0.404
30379W        W95606  11.877   5.973  10.993
30380W        W95607  39.799  25.588   2.222
30381W        W95608  30.020  23.995  10.795
30382W        W95609  11.646  36.876  10.717
30383W        W95610   1.721  30.565  11.786
30384W        W95611  24.315  14.733   2.198
30385W        W95612  12.260  13.746   4.424
30386W        W95613  18.701  43.714   2.452
30387W        W95614  14.865  40.930   0.571
30388W        W95615  32.022  19.116   0.907
30389W        W95616  24.438  38.654  13.876
30390W        W95617   0.497  22.740   4.135
30391W        W95618  12.771  41.587  13.909
30392W        W95619  43.335   1.752  14.411
30393W        W95620   3.888  19.666   4.565
30394W        W95621  23.967  28.392   1.888
30395W        W95622  19.636  37.230  13.756
30396W        W95623  17.071  35.868   1.010
30397W        W95624  24.392  32.494  11.317
30398W        W95625  42.309  29.100   2.162
30399W        W95626  10.978  22.453  13.306
30400W        W95627  28.309  34.388   1.652
30401W        W95628  37.442  19.314  13.573
30402W        W95629   7.679  24.470  13.427
30403W        W95630  29.006  38.386  11.172
30404W        W95631   1.029  37.263   0.913
30405W        W95632  34.176   9.010  14.283
30406W        W95633  30.879  20.509  14.786
30407W        W95634  41.772  41.298  11.740
30408W        W95635  28.395  28.395  10.993
30409W        W95636  38.569  37.806   1.759
30410W        W95637  42.292   9.201   4.502
30411W        W95638   2.573   1.400   4.514
30412W        W95639  15.796  27.470   1.823
30413W        W95640  11.203  15.770   3.773
30414W        W95641  16.307   9.478   3.136
30415W        W95642   8.126  13.395  13.965
30416W        W95643  38.490  29.656   4.651
30417W        W95644  13.509  10.614  10.747
30418W        W95645   8.743  34.563  13.670
30419W        W95646  42.507  14.488  12.902
30420W        W95647   0.022  38.870   4.239
30421W        W95648   5.818   9.407  10.718
30422W        W95649  38.956  37.555  13.249
30423W        W95650  10.758  31.432   2.769
30424W        W95651  39.947  35.528  14.342
30425W        W95652  11.494  12.898  10.593
30426W        W95653  31.315   8.833   3.727
30427W        W95654  15.607  40.355  12.055
30428W        W95655  10.268  20.127   3.758
30429W        W95656  39.463  14.347   1.436
30430W        W95657  10.052  37.020   5.151
30431W        W95658  13.136  15.175  13.267
30432W        W95659  36.051  10.550   0.837
30433W        W95660  24.699  33.837  14.991
30434W        W95661  33.702  29.641   0.115
30435W        W95662  13.609   0.260   0.953
30436W        W95663  32.682  33.854   2.881
30437W        W95664  17.656  42.934  13.121
30438W        W95665   3.798   0.069  12.852
30439W        W95666  20.795  40.384   0.906
30440W        W95667   2.648  17.609  12.597
30441W        W95668  26.989  27.453   2.810
30442W        W95669  20.361  31.407   2.673
30443W        W95670  21.544  29.777  14.720
30444W        W95671  26.160  44.881   4.166
30445W        W95672  22.272  43.106   2.726
30446W        W95673  40.026  33.386  12.971
30447W        W95674  38.576  12.699   2.277
30448W        W95675  19.704  39.362   2.728
30449W        W95676  15.213  18.219  14.874
30450W        W95677  17.300  23.891  12.497
30451W        W95678  29.148  44.219   1.905
30452W        W95679  28.772   1.065  14.378
30453W        W95680  38.308   0.207   0.298
30454W        W95681  15.136  36.392   3.891
30455W        W95682  10.524  37.563  12.544
30456W        W95683  41.695  42.381   0.933
30457W        W95684  10.647   1.226   4.794
30458W        W95685  30.693   8.297   4.787
30459W        W95686  33.589  17.253   2.753
30460W        W95687  33.543  11.739  14.877
30461W        W95688  36.795  15.535  14.755
30462W        W95689  28.822  11.252   0.355
30463W        W95690   7.739  12.444   2.840
30464W        W95691  27.437   4.378   2.646
30465W        W95692  19.281  21.222  11.620
30466W        W95693   7.668   4.190  12.054
30467W        W95694  42.738  40.412   2.034
30468W        W95695   4.856   9.158  14.928
30469W        W95696   9.970  21.314  11.102
30470W        W95697   3.504  30.584   0.828
30471W        W95698  23.238  27.494  13.894
30472W        W95699  13.396   9.573   3.288
30473W        W95700  34.518   3.133  12.064
30474W        W95701  33.951  10.431  13.473
30475W        W95702  22.797  16.970  12.369
30476W        W95703  34.620  38.198   2.327
30477W        W95704   1.993  29.175   3.178
30478W        W95705  13.100  41.068   1.410
30479W        W95706  21.987  15.589   2.126
30480W        W95707   8.709  18.620   1.821
30481W        W95708  20.070  28.537   0.126
30482W        W95709  28.111   8.659  11.317
30483W        W95710   7.087  31.400   1.677
30484W        W95711  39.012  10.765  12.964
30485W        W95712  16.786  10.719   3.621
30486W        W95713  26.283  44.339  13.353
30487W        W95714  40.320   7.740  12.646
30488W        W95715  26.118  31.452   4.185
30489W        W95716  40.263  35.396  11.015
30490W        W95717  18.213  38.185  11.189
30491W        W95718  22.183  21.470  12.956
30492W        W95719  41.753  28.449  10.755
30493W        W95720   3.294  22.169  11.045
30494W        W95721   3.064  40.507   3.295
30495W        W95722  26.277   1.331  12.387
30496W        W95723   5.847  17.062   2.559
30497W        W95724   0.587  39.055   2.289
30498W        W95725   3.682   0.906  10.213
30499W        W95726   8.174  29.976   0.698
30500W        W95727  17.690  30.094  13.949
30501W        W95728  31.977  36.323   4.026
30502W        W95729   6.950   1.821   3.336
30503W        W95730   8.853  12.701  14.951
30504W        W95731  42.779  32.035   4.815
30505W        W95732  29.282  32.091   0.302
30506W        W95733  22.447   2.770  11.613
30507W        W95734  15.691  35.816   2.282
30508W        W95735  20.786  40.807   2.327
30509W        W95736  25.730  27.167   1.394
30510W        W95737   7.760  40.066  13.980
30511W        W95738  42.398   3.910  13.125
30512W        W95739  33.235  30.180  13.340
30513W        W95740  20.577  42.382  12.481
30514W        W95741  12.176  28.582   1.411
30515W        W95742  10.729   6.696   3.206
30516W        W95743  41.769  17.828  13.058
30517W        W95744   8.125   3.804  11.082
30518W        W95745  29.133   1.465  13.065
30519W        W95746  35.418  32.851   1.758
30520W        W95747  29.753  41.837   0.251
30521W        W95748  24.946  30.599   4.407
30522W        W95749  14.135  20.086  11.939
30523W        W95750  11.822  10.663  13.415
30524W        W95751  21.053  29.174  14.405
30525W        W95752  30.401  24.451  10.092
30526W        W95753  26.250  16.571   2.367
30527W        W95754   6.282   8.372   4.693
30528W        W95755  33.118  23.035  14.332
30529W        W95756   1.228  41.823   2.708
30530W        W95757   5.840  22.966  14.927
30531W        W95758  26.014  37.262   4.019
30532W        W95759   6.124  40.420   2.164
30533W        W95760  33.804  12.583  11.662
30534W        W95761  10.375   4.481  12.383
30535W        W95762  12.629   4.208   3.826
30536W        W95763   9.794   5.455  11.968
30537W        W95764  39.798  20.154   0.404
30538W        W95765  25.586  30.449   3.768
30539W        W95766   6.766  38.034  13.158
30540W        W95767   4.948   6.942   4.171
30541W        W95768  19.059  43.260  10.729
30542W        W95769  25.241  28.351   3.055
30543W        W95770   8.676  42.401  10.997
30544W        W95771  44.441  22.906  14.989
30545W        W95772  34.550  16.305  13.305
30546W        W95773  21.223  36.837   1.866
30547W        W95774  39.437  29.524  11.517
30548W        W95775  31.049  43.262  12.117
30549W        W95776  36.464  27.748   0.585
30550W        W95777  30.207  17.473   4.483
30551W        W95778  33.776  10.463  14.154
30552W        W95779  18.631  29.067  11.325
30553W        W95780  23.236  22.503  12.616
30554W        W95781  44.135  14.587   4.877
30555W        W95782  33.461  34.401  13.399
30556W        W95783  34.897   3.322  13.015
30557W        W95784  23.293  12.247  13.545
30558W        W95785  24.012  37.596   0.908
30559W        W95786  27.648  43.673  12.477
30560W        W95787  43.021  34.038  12.373
30561W        W95788  37.767   4.849  12.079
30562W        W95789  24.258  17.846   2.132
30563W        W95790  20.133  27.112  14.462
30564W        W95791  23.859  30.712  12.504
30565W        W95792  29.194  20.008  12.495
30566W        W95793   0.010   2.985  14.741
30567W        W95794  40.037  14.378  11.507
30568W        W95795  35.904  36.263  13.851
30569W        W95796  10.705  22.697  12.919
30570W        W95797  43.009   7.410   3.571
30571W        W95798  37.509  42.803   1.920
30572W        W95799   3.803  28.775  13.419
30573W        W95800   1.896   4.471  11.165
30574W        W95801  30.904   4.235   2.317
30575W        W95802  22.979   7.921   2.787
30576W        W95803  18.647  30.378   0.116
30577W        W95804  22.982   2.881  11.576
30578W        W95805   9.851  34.477   1.914
30579W        W95806  35.046   4.456   2.144
30580W        W95807  31.994   2.397  14.114
30581W        W95808  37.878  10.164   2.060
30582W        W95809  36.686  37.116   4.145
30583W        W95810  28.970  14.525   4.136
30584W        W95811  28.677  37.032  11.393
30585W        W95812   2.447   9.544   0.259
30586W        W95813   1.465  43.399  14.993
30587W        W95814   1.434  22.371   4.109
30588W        W95815  35.568  23.140   3.245
30589W        W95816  26.020  28.516  13.381
30590W        W95817  44.880  32.226   3.627
30591W        W95818  25.601  11.604   3.830
30592W        W95819  13.681  33.315   2.616
30593W        W95820  37.216  32.133  13.078
30594W        W95821  14.164  15.832  10.749
30595W        W95822   1.507  21.626  13.438
30596W        W95823  23.647  22.774   4.251
30597W        W95824  15.799  10.349   5.104
30598W        W95825  35.560   1.748  11.092
30599W        W95826   0.590  33.612   4.482
30600W        W95827  14.835   0.311  10.706
30601W        W95828   4.727  16.195   4.434
30602W        W95829  43.948  38.001  11.098
30603W        W95830  38.343  15.724   2.874
30604W        W95831  22.702   9.184   4.338
30605W        W95832  36.285  43.933   1.400
30606W        W95833  24.812  21.399  12.117
30607W        W95834  36.935  39.886  14.867
30608W        W95835  19.993  39.371  13.627
30609W        W95836  11.132  31.064  10.999
30610W        W95837  18.496  37.613   3.263
30611W        W95838  14.075  38.282   3.586
30612W        W95839  39.478  41.549  11.195
30613W        W95840  32.658  29.744   3.383
30614W        W95841  17.115  26.497   0.687
30615W        W95842  35.071   3.001  13.888
30616W        W95843  31.150  28.573   0.754
30617W        W95844  16.283  41.538  14.488
30618W        W95845  44.524   5.392  13.848
30619W        W95846  35.519  26.167  13.870
30620W        W95847  13.205  37.339   3.986
30621W        W95848  21.749  26.748  12.015
30622W        W95849  32.411   9.634   0.382
30623W        W95850   6.048  28.666   4.292
30624W        W95851  14.186  39.315  13.077
30625W        W95852  44.261  32.966   2.942
30626W        W95853  40.569   1.093   5.097
30627W        W95854  26.678   2.937   3.797
30628W        W95855   7.878  21.644   4.646
30629W        W95856   3.401  14.202  14.502
30630W        W95857  19.962  30.538   0.808
30631W        W95858  37.270  22.224   1.111
30632W        W95859  28.447  29.944  14.936
30633W        W95860  37.356  10.095   2.348
30634W        W95861  33.052  26.071   3.284
30635W        W95862  44.744  22.303  11.741
30636W        W95863  12.698  25.703   3.649
30637W        W95864   2.338  13.730   4.275
30638W        W95865  15.727  39.715   0.376
30639W        W95866  14.312  12.203   1.819
30640W        W95867   9.130  24.445  11.136
30641W        W95868   5.662  15.150  13.318
30642W        W95869  34.910  10.139   0.523
30643W        W95870  30.962  36.349  13.790
30644W        W95871  38.369  36.194   0.871
30645W        W95872  35.869  29.236   1.836
30646W        W95873  17.774   0.147   1.428
30647W        W95874  24.137  40.856  12.423
30648W        W95875  35.864  24.725   0.366
30649W        W95876  26.731  16.712  14.002
30650W        W95877  31.999  32.299  14.222
30651W        W95878  21.641  44.808  13.499
30652W        W95879  27.599   7.293  13.045
30653W        W95880  39.881  40.281   2.271
30654W        W95881  35.026  37.117   3.598
30655W        W95882  39.597   1.560  13.432
30656W        W95883  41.676  22.527   0.259
30657W        W95884   5.880  41.303  12.521
30658W        W95885  27.172   4.709   4.525
30659W        W95886  21.532   9.877   1.277
30660W        W95887  42.357  44.210   3.223
30661W        W95888   2.267   7.725   5.095
30662W        W95889  22.950  39.573   0.287
30663W        W95890  37.556  21.153  10.033
30664W        W95891  26.205  33.625   0.554
30665W        W95892   9.377   7.115  14.526
30666W        W95893  38.557  33.401  11.447
30667W        W95894  43.845  21.746  11.968
30668W        W95895  26.073  18.171  13.221
30669W        W95896  15.218  44.429  12.561
30670W        W95897  11.708  26.587  10.744
30671W        W95898  30.174   9.724   9.732
30672W        W95899   3.239  40.330  14.076
30673W        W95900  21.630   9.900  13.557
30674W        W95901  23.091  12.375   1.686
30675W        W95902   5.034  34.654   1.965
30676W        W95903   9.847  20.456   1.692
30677W        W95904  39.232  36.006   0.455
30678W        W95905  12.830  24.626  11.086
30679W        W95906  44.998  10.580  13.333
30680W        W95907  35.668  20.293   1.677
30681W        W95908  39.414  44.311   3.629
30682W        W95909  38.820  23.744  11.257
30683W        W95910  16.216  35.526  14.428
30684W        W95911  29.057  16.818  10.597
30685W        W95912  39.264   6.916  11.312
30686W        W95913  15.777  18.538  12.782
30687W        W95914  20.629  40.909  11.030
30688W        W95915  30.464  43.446   4.731
30689W        W95916  39.961  31.439   3.723
30690W        W95917   5.403  41.720   3.709
30691W        W95918   1.265  38.335  14.063
30692W        W95919  16.335  26.922   0.801
30693W        W95920   4.791  14.974   0.394
30694W        W95921   7.132  26.893  14.550
30695W        W95922  12.362  35.526  12.977
30696W        W95923  30.736  13.721   0.489
30697W        W95924  26.668   4.921  14.515
30698W        W95925  34.013  25.076   0.130
30699W        W95926   8.172  27.033   2.310
30700W        W95927   0.180   7.647  11.559
30701W        W95928  18.497  11.078   0.253
30702W        W95929  44.394  30.112   2.330
30703W        W95930  30.911   4.928   3.409
30704W        W95931  32.105   5.900  12.938
30705W        W95932  42.616  12.211   4.696
30706W        W95933  22.711   3.287   3.748
30707W        W95934  12.136   4.851   0.273
30708W        W95935  17.454  40.028  14.073
30709W        W95936  17.187   6.742  10.666
30710W        W95937  18.801  11.367  13.912
30711W        W95938  15.412  16.997  11.016
30712W        W95939   2.797  20.647  14.978
30713W        W95940  27.012  24.089   2.077
30714W        W95941  42.809   0.919  10.818
30715W        W95942  30.664   8.457   1.697
30716W        W95943  33.467   9.849  10.759
30717W        W95944  30.855  24.671  14.366
30718W        W95945  35.481  13.382   1.212
30719W        W95946  27.181  42.897  11.606
30720W        W95947  29.660  44.376  12.628
30721W        W95948   7.246   2.959  14.906
30722W        W95949  22.484  22.682  12.982
30723W        W95950  18.085  23.278   1.379
30724W        W95951  14.218  29.614  12.003
30725W        W95952   2.387   6.063  11.284
30726W        W95953  42.717   7.273  13.925
30727W        W95954  28.218  10.263  11.551
30728W        W95955  23.025   2.852  12.956
30729W        W95956  38.020  21.101  10.759
30730W        W95957  21.972  20.227  10.928
30731W        W95958  38.867  14.910   4.079
30732W        W95959  17.440   0.127  14.370
30733W        W95960  39.932  21.578  14.929
30734W        W95961   2.378  12.283   2.727
30735W        W95962  31.411  11.276  13.078
30736W        W95963  23.666  33.866   4.768
30737W        W95964  21.627  29.304  14.930
30738W        W95965   7.904  27.076  13.494
30739W        W95966  19.559  21.613  10.771
30740W        W95967  12.789  17.169  10.917
30741W        W95968  32.518  16.101  12.613
30742W        W95969  30.671  28.660  13.546
30743W        W95970   5.420   2.971  14.914
30744W        W95971  19.664   4.230  13.372
30745W        W95972  20.374  36.065   3.666
30746W        W95973  23.972  31.075   4.581
30747W        W95974  18.507  36.277   0.285
30748W        W95975  16.108   7.305   3.271
30749W        W95976   2.872  23.691  14.469
30750W        W95977  20.315  36.900  11.123
30751W        W95978  20.897   6.429  13.925
30752W        W95979  21.999  39.269  12.491
30753W        W95980  11.757  43.444  14.944
30754W        W95981  37.099  27.956   0.785
30755W        W95982  35.368  24.686   3.623
30756W        W95983  43.964   0.396   1.378
30757W        W95984  20.138  25.382   3.655
30758W        W95985   7.204  31.096   4.872
30759W        W95986  28.376   1.980   1.801
30760W        W95987  37.481  16.241   3.746
30761W        W95988   4.797  35.980   4.706
30762W        W95989  17.140  24.970   5.178
30763W        W95990  32.137  38.983   0.305
30764W        W95991  27.617  36.220   3.771
30765W        W95992   5.919   8.243  14.076
30766W        W95993  27.375  21.065  14.061
30767W        W95994  14.747  32.346  13.607
30768W        W95995  25.506  29.025   0.058
30769W        W95996   8.239  41.564   3.675
30770W        W95997  32.413   5.349   4.565
30771W        W95998   9.226   9.939   0.271
30772W        W95999  36.300  43.768   3.948
30773W        W96000  30.232  13.266   2.334
30774W        W96001  36.129  14.126   1.454
30775W        W96002  43.258   9.798   3.346
30776W        W96003  14.766  10.405   0.147
30777W        W96004  28.721  10.822   1.852
30778W        W96005   1.617  34.627   1.391
30779W        W96006   6.364  33.580   2.145
30780W        W96007  19.170   9.215   2.890
30781W        W96008  35.574  40.309  11.576
30782W        W96009  17.527  26.689  11.633
30783W        W96010  29.840  41.288   0.836
30784W        W96011   0.785   0.348   1.321
30785W        W96012  37.009  33.492   3.078
30786W        W96013  31.989  25.009  11.665
30787W        W96014  34.501  33.989   4.485
30788W        W96015  33.618  36.473   3.206
30789W        W96016  29.452  34.833  12.884
30790W        W96017  39.370  19.560  14.512
30791W        W96018  43.818  30.275  13.895
30792W        W96019  34.515  44.889   1.902
30793W        W96020  21.357  31.853   4.900
30794W        W96021   6.335   2.806  12.805
30795W        W96022  39.819  36.733   1.945
30796W        W96023  31.047  32.696   0.738
30797W        W96024  41.838  17.634   2.872
30798W        W96025  30.831  17.385  13.888
30799W        W96026  31.589  41.781   1.954
30800W        W96027  23.711   6.766   3.190
30801W        W96028   4.409  27.601   5.463
30802W        W96029  17.129  18.091   3.715
30803W        W96030  10.595  11.289   2.747
30804W        W96031  38.349  21.664  13.366
30805W        W96032  31.216   6.257  13.616
30806W        W96033  17.625  31.473   2.669
30807W        W96034  29.677  14.500  11.006
30808W        W96035  19.829  38.485  13.273
30809W        W96036  23.694  29.084   2.607
30810W        W96037  14.992   4.155  13.809
30811W        W96038   8.442  16.373  12.257
30812W        W96039   0.144   4.827   2.309
30813W        W96040  38.053  16.551  13.530
30814W        W96041  12.743  35.787  11.112
30815W        W96042  12.069  39.977   2.439
30816W        W96043  14.885   4.718  12.036
30817W        W96044  34.562  41.979   3.350
30818W        W96045  41.372  20.295   3.196
30819W        W96046  13.836   4.806  13.383
30820W        W96047  24.695  35.426   1.214
30821W        W96048  31.012  33.694  12.291
30822W        W96049  44.552  13.541   2.225
30823W        W96050   5.815  29.465   0.183
30824W        W96051  11.261   2.694   2.614
30825W        W96052  32.533  41.960  13.405
30826W        W96053  31.907  20.419  11.055
30827W        W96054   2.203  12.778  11.999
30828W        W96055   0.561  43.868   0.267
30829W        W96056  31.673  13.875  13.865
30830W        W96057  34.163  10.216  13.917
30831W        W96058  14.804   2.000   3.111
30832W        W96059  15.266  20.990  10.685
30833W        W96060  42.720  12.717  12.604
30834W        W96061   4.428   9.878  11.399
30835W        W96062  35.836  43.094  12.988
30836W        W96063  24.220  42.126  13.080
30837W        W96064  43.784   0.378  12.678
30838W        W96065  22.311  40.947   2.365
30839W        W96066   2.339  12.150  10.988
30840W        W96067   1.836  10.857   0.164
30841W        W96068   4.738  43.547   1.398
30842W        W96069  16.098  20.674   4.081
30843W        W96070  25.904  22.528   3.763
30844W        W96071  28.162  33.196   0.007
30845W        W96072  10.782  22.009  12.359
30846W        W96073  25.877  10.601  12.094
30847W        W96074  23.629  40.923  12.368
30848W        W96075  27.905  39.276  11.754
30849W        W96076  44.876   8.329  12.205
30850W        W96077  10.160  23.035   4.744
30851W        W96078  16.356  12.823  10.967
30852W        W96079   8.481   8.643  13.995
30853W        W96080  35.940   4.028   1.215
30854W        W96081   4.441  18.994   3.761
30855W        W96082  36.840  18.198  13.873
30856W        W96083  24.623  36.954   0.922
30857W        W96084  31.920  24.041  10.699
30858W        W96085  44.819  24.670   2.769
30859W        W96086  42.991  43.321  11.716
30860W        W96087   6.947   4.214  11.251
30861W        W96088   8.863  11.962   2.837
30862W        W96089   5.179  11.289   3.269
30863W        W96090  10.398  24.450  14.685
30864W        W96091   0.940  20.766   3.180
30865W        W96092  13.244  30.094   4.075
30866W        W96093   1.884  24.152  13.011
30867W        W96094   4.188  29.449  14.435
30868W        W96095  43.058  34.435  12.055
30869W        W96096  39.528  19.071   4.538
30870W        W96097  38.350  20.830  12.829
30871W        W96098  43.894   2.118   2.028
30872W        W96099  17.698  16.880   3.595
30873W        W96100  44.460   5.415  13.309
30874W        W96101  26.209  37.922  10.729
30875W        W96102  15.168  29.149  14.047
30876W        W96103  38.957  32.077  11.226
30877W        W96104  17.671   8.659  11.674
30878W        W96105  19.068  41.976  12.881
30879W        W96106  28.919  34.616  14.791
30880W        W96107  13.797  12.354  14.660
30881W        W96108  25.355   5.324  11.114
30882W        W96109  35.560   3.702  10.964
30883W        W96110   3.870  19.831   0.021
30884W        W96111  22.692  35.415  12.502
30885W        W96112  20.627  22.164   1.305
30886W        W96113  41.948   1.608  12.196
30887W        W96114  12.838  16.541  11.040
30888W        W96115  35.013  28.978   1.975
30889W        W96116  27.448  36.332  12.344
30890W        W96117  10.196   6.211   4.080
30891W        W96118  28.701  15.435   2.158
30892W        W96119  11.653   9.401   4.323
30893W        W96120  42.406  24.094   2.865
30894W        W96121  28.524  38.270   0.909
30895W        W96122  42.574  17.297   4.495
30896W        W96123  20.734  37.019   4.076
30897W        W96124  41.296  15.372  11.052
30898W        W96125  13.073  42.235   4.149
30899W        W96126   0.458   3.929   4.173
30900W        W96127  36.279   7.355  11.525
30901W        W96128  44.959   5.373   4.360
30902W        W96129   7.865  34.858   4.651
30903W        W96130  43.108  43.776   3.150
30904W        W96131  25.332  20.208   3.682
30905W        W96132   0.870  44.172   3.609
30906W        W96133   6.484   4.404  13.762
30907W        W96134  21.768  43.769  13.583
30908W        W96135  27.176  22.226   2.062
30909W        W96136  43.239  30.224   2.354
30910W        W96137   5.799  19.158  14.362
30911W        W96138  29.633  15.063  12.491
30912W        W96139  43.302   0.984  11.940
30913W        W96140  31.602  33.674   3.225
30914W        W96141  39.892  24.665   4.148
30915W        W96142   7.221  27.148  14.075
30916W        W96143  32.356   9.379   1.269
30917W        W96144  12.496   2.313   4.428
30918W        W96145  41.102  27.012   3.231
30919W        W96146  31.225  39.796   2.799
30920W        W96147  34.081  40.809  12.032
30921W        W96148  15.805  21.977  11.121
30922W        W96149  17.752  15.760  12.014
30923W        W96150  39.021  37.535   4.630
30924W        W96151  42.869  26.010   0.963
30925W        W96152   8.925  16.515   2.290
30926W        W96153  12.265  21.463   2.908
30927W        W96154  35.849  13.241   1.664
30928W        W96155  31.871  36.479   0.305
30929W        W96156  27.192   7.899   3.355
30930W        W96157  42.353  39.482   3.973
30931W        W96158  40.444  33.030  10.857
30932W        W96159  19.095  23.052   4.073
30933W        W96160  34.306  38.873  14.373
30934W        W96161  30.974  30.681  10.642
30935W        W96162   3.992  33.047   2.147
30936W        W96163  12.490  34.725   4.101
30937W        W96164  30.143   7.436   1.174
30938W        W96165  15.076  28.679   0.362
30939W        W96166  10.784  30.233  13.771
30940W        W96167  11.636  34.125   2.698
30941W        W96168  42.343  42.830  10.333
30942W        W96169  42.085  44.849  10.893
30943W        W96170  36.147  21.092  11.575
30944W        W96171   9.945  43.547  13.012
30945W        W96172  36.602  25.125  11.468
30946W        W96173   6.207  43.733   2.815
30947W        W96174  19.289   8.135   1.371
30948W        W96175   7.132  25.369   1.552
30949W        W96176  10.774   3.440   4.814
30950W        W96177  29.082  33.368  13.497
30951W        W96178  41.543  10.238  11.147
30952W        W96179  40.746  17.143  14.939
30953W        W96180  33.630  13.074   0.285
30954W        W96181  36.110  15.186   2.148
30955W        W96182  13.274  28.865   3.584
30956W        W96183   0.034   4.333  13.843
30957W        W96184  17.593  23.496  12.256
30958W        W96185   7.290  25.726  12.462
30959W        W96186  42.534  36.920  12.568
30960W        W96187   5.459   1.570  11.794
30961W        W96188  37.847  27.507   3.316
30962W        W96189  20.947   4.316   3.570
30963W        W96190  36.014  27.254   1.899
30964W        W96191  33.582   2.232   4.515
30965W        W96192  27.512  26.577   9.727
30966W        W96193  17.379  30.291   5.164
30967W        W96194   0.276  35.892  12.448
30968W        W96195  37.456  18.359  10.460
30969W        W96196  18.510  15.893  12.949
30970W        W96197  29.403   5.540   4.542
30971W        W96198   0.350   9.996   0.798
30972W        W96199  33.537  24.147   2.735
30973W        W96200  44.459   1.512  12.478
30974W        W96201  36.871   4.885  12.465
30975W        W96202  27.626   4.122  12.586
30976W        W96203  34.621  20.211   1.952
30977W        W96204  11.348  31.630   2.836
30978W        W96205  11.469  10.645   3.629
30979W        W96206   8.855  25.785  11.265
30980W        W96207   9.461   0.844   4.616
30981W        W96208  36.718  28.040  14.972
30982W        W96209  29.295  18.472   4.071
30983W        W96210   4.102  33.374  13.947
30984W        W96211  33.188   5.387   4.195
30985W        W96212  21.302   6.178  14.249
30986W        W96213  34.630  11.878   3.902
30987W        W96214  38.922  15.656  12.100
30988W        W96215  43.123   9.782  11.611
30989W        W96216  38.228  19.531   3.713
30990W        W96217  27.688   9.177   2.234
30991W        W96218   5.972  11.189  12.990
30992W        W96219  37.363  18.268   3.897
30993W        W96220  19.993  26.911  11.870
30994W        W96221  26.005  19.647   3.779
30995W        W96222   2.955  13.405   2.179
30996W        W96223  34.436  22.155   4.569
30997W        W96224  14.170   8.286   2.347
30998W        W96225   1.274  14.247   0.823
30999W        W96226   3.959  44.903  13.313
31000W        W96227   6.681  13.819  12.053
31001W        W96228  24.684  15.560   1.316
31002W        W96229  21.325  41.373   1.496
31003W        W96230  35.542  21.213  12.913
31004W        W96231  27.588   9.664   4.610
31005W        W96232  35.897  39.366   2.000
31006W        W96233   9.254   8.114   1.259
31007W        W96234  13.444  10.602   0.384
31008W        W96235  34.208  30.761   3.718
31009W        W96236  40.078  25.500   0.240
31010W        W96237   4.906  26.474   0.375
31011W        W96238   9.089  15.240  13.447
31012W        W96239  44.726  42.832  10.978
31013W        W96240   1.992  19.662   1.778
31014W        W96241  35.559  39.335   9.919
31015W        W96242  35.414  36.918   4.870
31016W        W96243  28.892  36.803   4.528
31017W        W96244  18.004  23.313   2.753
31018W        W96245   0.233  21.358   3.625
31019W        W96246  28.506  29.910  10.084
31020W        W96247  10.788   2.758  14.542
31021W        W96248  18.642  17.322   3.091
31022W        W96249  17.175  28.414  11.637
31023W        W96250   2.051   1.667   0.632
31024W        W96251  12.821   7.243  14.497
31025W        W96252  15.067  41.510  14.473
31026W        W96253  38.616  25.651  13.945
31027W        W96254  35.750  33.462  11.462
31028W        W96255  38.981  42.898   9.856
31029W        W96256  20.914  36.929   0.358
31030W        W96257  41.819  40.601   1.792
31031W        W96258  13.638  13.870  13.014
31032W        W96259  11.288  42.872  14.042
31033W        W96260   8.830  28.477   0.677
31034W        W96261  39.589   2.767  10.898
31035W        W96262  36.879  26.914   1.474
31036W        W96263  39.364  33.291  12.052
31037W        W96264  43.150  10.111   4.224
31038W        W96265  24.141  44.645   0.793
31039W        W96266  12.853   7.610   2.312
31040W        W96267  38.354  42.313  10.695
31041W        W96268  36.356   8.086  10.725
31042W        W96269  34.729  19.634   0.865
31043W        W96270  24.692  24.848  12.102
31044W        W96271  13.992  40.248  12.901
31045W        W96272  37.612  36.029  14.707
31046W        W96273  30.929  19.044  14.948
31047W        W96274  28.138  19.643  10.821
31048W        W96275  18.227  40.095   3.277
31049W        W96276   0.191   2.155   5.017
31050W        W96277   2.777   0.777   3.626
31051W        W96278   6.401  22.336   1.122
31052W        W96279  12.144  27.638   3.764
31053W        W96280  23.994  41.464   2.436
31054W        W96281  32.483  13.177   1.711
31055W        W96282  35.313  29.572  13.913
31056W        W96283  24.655  17.064  14.092
31057W        W96284  26.725  26.146   0.686
31058W        W96285  26.572   8.186  11.059
31059W        W96286  42.904  10.760  13.501
31060W        W96287  19.169  15.632  14.910
31061W        W96288  32.467  24.543  12.908
31062W        W96289  32.553  28.396  11.643
31063W        W96290  13.643  22.824   0.422
31064W        W96291  16.127  29.453   1.319
31065W        W96292  29.237  35.351  14.445
31066W        W96293  31.092   4.398  13.457
31067W        W96294  16.749  14.665   4.680
31068W        W96295   6.706  10.154   4.898
31069W        W96296  21.707  29.528   3.750
31070W        W96297  36.739   4.037   1.269
31071W        W96298   0.260  29.711   3.681
31072W        W96299  21.624   1.825   5.457
31073W        W96300   8.493  39.819  13.021
31074W        W96301   9.792   3.509   2.212
31075W        W96302   1.457  37.381  10.503
31076W        W96303  10.200  35.276   2.548
31077W        W96304   7.881  21.619  13.292
31078W        W96305  31.796  36.158  11.156
31079W        W96306  22.671  19.071   3.339
31080W        W96307   8.117  39.094   1.323
31081W        W96308  15.615  42.769  11.030
31082W        W96309  26.004  19.503   5.389
31083W        W96310  15.649  40.239  14.388
31084W        W96311  21.788  14.342   1.390
31085W        W96312  21.427  21.135   0.984
31086W        W96313  23.798  19.266  12.538
31087W        W96314   5.719   8.676   0.347
31088W        W96315   9.604  42.478  13.235
31089W        W96316  32.838  44.147   0.897
31090W        W96317   2.553  10.674   3.194
31091W        W96318   7.375   2.930  14.085
31092W        W96319  30.164   1.262   2.400
31093W        W96320  12.836   0.388   2.279
31094W        W96321  18.397  12.350  11.134
31095W        W96322   9.070  29.914  12.573
31096W        W96323  21.742  30.449   3.769
31097W        W96324  27.096   2.952  13.424
31098W        W96325   8.865  17.618   1.656
31099W        W96326  13.896  34.810  12.453
31100W        W96327  35.189   1.828  12.521
31101W        W96328   5.765  26.680   3.855
31102W        W96329   5.425   2.233   3.886
31103W        W96330  15.773   3.011  12.671
31104W        W96331  16.845   1.852   3.220
31105W        W96332  14.615  28.482  12.178
31106W        W96333  27.968  14.322  12.851
31107W        W96334  40.017   4.957   2.356
31108W        W96335  44.326   2.865  14.026
31109W        W96336  40.408   0.712   2.583
31110W        W96337  44.051  32.662  11.108
31111W        W96338  20.535  23.267   0.838
31112W        W96339  17.660  17.896   2.759
31113W        W96340  42.872  44.451  14.969
31114W        W96341  15.273   6.209  10.669
31115W        W96342  31.621  22.562  11.118
31116W        W96343   0.810  35.529  13.127
31117W        W96344  41.043  44.459  10.373
31118W        W96345  12.813  17.597  11.205
31119W        W96346   9.143  28.605   4.720
31120W        W96347  13.661   4.720  10.821
31121W        W96348  26.474   0.803  12.368
31122W        W96349   9.103  22.097  13.910
31123W        W96350  18.548  16.212   0.496
31124W        W96351   9.705  23.133   0.748
31125W        W96352  12.808   7.863  12.182
31126W        W96353  23.247  41.346  10.691
31127W        W96354  24.721  32.487  14.037
31128W        W96355  14.691  12.228   4.844
31129W        W96356   7.758  20.604  11.925
31130W        W96357   6.809  23.964   2.698
31131W        W96358  30.989  44.473  10.697
31132W        W96359  13.265   5.827  12.787
31133W        W96360  18.772  17.745   2.476
31134W        W96361  34.021  39.319   4.280
31135W        W96362  19.777  37.511   2.768
31136W        W96363  17.569  43.003  12.590
31137W        W96364  43.951  28.790   1.243
31138W        W96365  15.720  18.161   4.592
31139W        W96366  29.048   8.410  11.214
31140W        W96367   7.656  39.998  11.584
31141W        W96368   5.793  21.723  10.491
31142W        W96369   9.232   1.094  10.307
31143W        W96370   5.984   5.488   4.920
31144W        W96371  21.190  37.343   4.112
31145W        W96372  19.742  16.065  11.112
31146W        W96373  16.575   4.338  12.044
31147W        W96374  44.827  21.181   0.902
31148W        W96375  31.972  43.554  12.052
31149W        W96376  18.080  13.916   1.465
31150W        W96377  26.571  43.621   0.244
31151W        W96378  25.526  42.792   1.077
31152W        W96379  33.373   8.254  12.473
31153W        W96380  41.878   2.204   3.849
31154W        W96381  10.869  37.592  14.367
31155W        W96382   4.249  27.602   0.842
31156W        W96383  17.818   7.255   0.778
31157W        W96384  23.541   3.342   9.882
31158W        W96385  17.747  29.121  14.952
31159W        W96386  27.766  18.370  11.059
31160W        W96387   7.962  33.474  11.754
31161W        W96388  37.293  28.833   2.946
31162W        W96389  26.560   3.024  12.155
31163W        W96390  30.123   1.360   0.852
31164W        W96391  30.524  10.279   4.072
31165W        W96392   1.906  12.349  10.714
31166W        W96393  19.680  34.969  11.534
31167W        W96394  35.908  16.785  12.008
31168W        W96395   4.964  31.935   2.324
31169W        W96396  29.432  14.930  10.876
31170W        W96397   8.322   1.518  12.470
31171W        W96398  11.430  31.150   1.907
31172W        W96399   9.210   3.320  10.669
31173W        W96400  35.841  25.446  11.646
31174W        W96401  12.695  23.229  12.896
31175W        W96402  24.605  33.310   2.688
31176W        W96403  41.841  26.946   0.950
31177W        W96404  18.289  43.460  13.576
31178W        W96405  33.102  39.993   0.038
31179W        W96406   4.184  14.082   2.585
31180W        W96407  26.595  19.523  10.576
31181W        W96408   4.496  25.947   4.922
31182W        W96409  14.314   9.371  10.814
31183W        W96410  42.403  30.542   1.455
31184W        W96411  29.376  36.059   2.727
31185W        W96412  29.518  44.342   4.720
31186W        W96413  41.525  40.702  13.806
31187W        W96414  41.637  11.705   4.021
31188W        W96415  26.030  16.740   0.422
31189W        W96416  32.480  27.232  12.937
31190W        W96417  43.145  31.811   4.498
31191W        W96418   4.188  41.955  12.019
31192W        W96419  24.981  17.020  12.122
31193W        W96420  23.445  23.185   1.429
31194W        W96421  36.300   8.060  12.653
31195W        W96422  26.508  43.320   3.585
31196W        W96423  18.153  38.706  11.076
31197W        W96424  27.255  24.043  12.105
31198W        W96425  11.396  17.106   3.702
31199W        W96426   7.277  43.380   3.646
31200W        W96427   6.681  33.065  12.904
31201W        W96428  42.003  28.453   4.602
31202W        W96429   5.305  10.298   2.190
31203W        W96430  33.361  43.272   3.825
31204W        W96431   6.613  28.286  12.850
31205W        W96432  26.979  12.622  10.665
31206W        W96433   1.414  39.250   4.818
31207W        W96434  39.581  21.323   2.389
31208W        W96435  43.112  19.603   0.881
31209W        W96436  13.897  37.328   0.867
31210W        W96437  25.704  40.272   0.916
31211W        W96438  20.051  11.716  13.545
31212W        W96439  22.063  18.232  10.912
31213W        W96440   9.995  31.675   0.881
31214W        W96441   1.841   1.440  14.203
31215W        W96442  37.290  19.731  12.418
31216W        W96443   7.906  41.884   2.859
31217W        W96444  14.290  40.917   4.079
31218W        W96445  14.695  19.876  10.372
31219W        W96446  42.117  21.557   0.275
31220W        W96447  23.932   0.932   1.784
31221W        W96448   4.864  24.749  14.749
31222W        W96449   1.270  25.016   5.009
31223W        W96450  28.797   5.313  13.494
31224W        W96451  18.246  13.075   2.389
31225W        W96452  27.623   9.651  13.137
31226W        W96453  25.969  24.156  13.284
31227W        W96454  15.241  23.974  14.384
31228W        W96455  44.876  22.655   2.261
31229W        W96456  27.663   6.152  13.961
31230W        W96457   6.356  24.083   2.904
31231W        W96458  24.542  13.049   3.875
31232W        W96459  42.558   1.391   1.862
31233W        W96460   6.899   5.573   1.371
31234W        W96461   3.459  26.635   1.439
31235W        W96462  32.236  35.821  14.049
31236W        W96463  25.181  29.203  11.587
31237W        W96464   6.978  17.071  13.341
31238W        W96465  18.317  41.462   4.495
31239W        W96466   2.276  19.732  13.351
31240W        W96467  25.532  29.904  10.682
31241W        W96468  17.074  31.614  14.539
31242W        W96469  18.343  19.247   0.786
31243W        W96470  25.110   0.801  12.650
31244W        W96471  36.987  16.390  14.420
31245W        W96472  34.130  14.341  10.798
31246W        W96473   7.841  32.460  14.856
31247W        W96474   3.817  21.784   3.732
31248W        W96475   3.424   6.508   0.322
31249W        W96476  16.156  22.459  14.438
31250W        W96477  25.649  25.224  11.957
31251W        W96478  38.774   2.922   5.496
31252W        W96479  20.960   5.753   2.486
31253W        W96480  13.095  39.584  12.855
31254W        W96481  21.907  35.322   3.271
31255W        W96482  27.595  27.954   4.417
31256W        W96483   1.794  25.625  13.939
31257W        W96484   5.715  21.129  10.649
31258W        W96485   8.393  28.496  12.467
31259W        W96486   7.611  25.233  14.791
31260W        W96487   2.759   4.314   4.618
31261W        W96488  37.992  20.323   3.579
31262W        W96489  43.553   9.441  12.094
31263W        W96490  41.266   1.779   4.683
31264W        W96491  34.112  33.608   2.459
31265W        W96492  19.676  42.252  10.658
31266W        W96493  35.722  20.870  11.792
31267W        W96494  32.665  42.575  14.793
31268W        W96495  29.082  36.333  12.099
31269W        W96496  38.819  35.519  14.259
31270W        W96497  15.083  29.870   1.739
31271W        W96498  15.539  36.866   1.367
31272W        W96499   4.225  29.931  14.261
31273W        W96500  20.659  20.465   0.261
31274W        W96501  42.355  21.294  10.847
31275W        W96502  39.970   7.813  14.774
31276W        W96503   4.368  40.916   1.339
31277W        W96504  20.738  10.743   1.839
31278W        W96505  39.136  39.285   3.660
31279W        W96506   6.288   3.903  13.586
31280W        W96507  41.359   2.458  12.229
31281W        W96508  23.283  32.429   2.019
31282W        W96509   1.457   6.850   3.214
31283W        W96510  35.644   8.449   1.390
31284W        W96511  24.549  43.891  10.635
31285W        W96512  34.957   9.404   1.873
31286W        W96513  20.599  16.809   2.243
31287W        W96514   3.195  15.074  10.694
31288W        W96515  28.031   3.568   1.527
31289W        W96516  34.551  18.575  13.508
31290W        W96517  31.924  10.729  14.920
31291W        W96518  43.022  13.181  12.474
31292W        W96519   4.317  13.646   0.424
31293W        W96520  35.411   5.413   2.320
31294W        W96521  26.650  26.604   1.607
31295W        W96522  40.409   6.919  10.307
31296W        W96523  19.251  44.638  11.529
31297W        W96524  43.322  17.053   1.129
31298W        W96525  21.252  23.672   2.378
31299W        W96526  15.872  37.977  14.048
31300W        W96527  36.310  33.189   1.319
31301W        W96528  22.712  27.806   0.863
31302W        W96529  44.789  21.430   0.270
31303W        W96530  25.455  29.636   4.284
31304W        W96531  22.047  35.892  13.993
31305W        W96532  44.084  30.956   4.167
31306W        W96533  12.103  23.005   2.674
31307W        W96534  11.201   5.679  14.521
31308W        W96535  27.466  10.985  13.937
31309W        W96536  14.549   5.172  11.146
31310W        W96537  15.690  42.764   3.692
31311W        W96538   5.641  10.304  12.994
31312W        W96539  22.228  22.615   0.347
31313W        W96540  37.531  42.694   4.067
31314W        W96541  17.494  38.583   2.819
31315W        W96542  43.760  21.270  13.342
31316W        W96543  32.288  29.517   2.794
31317W        W96544  31.426   0.669   3.182
31318W        W96545  11.164   9.057  13.032
31319W        W96546  18.790   7.247   2.822
31320W        W96547  23.141   6.681  10.428
31321W        W96548  38.412   4.689   3.707
31322W        W96549  21.880  44.455   0.698
31323W        W96550  37.166  10.740   3.187
31324W        W96551  26.467   3.882   3.564
31325W        W96552  13.609   1.009   4.545
31326W        W96553  31.209  36.163  12.465
31327W        W96554  36.043  35.157   2.563
31328W        W96555  12.594  15.751   3.719
31329W        W96556  39.921   2.571   1.263
31330W        W96557  17.531   6.284   2.326
31331W        W96558  18.678  38.465  12.543
31332W        W96559  43.565  20.283   2.704
31333W        W96560  18.975  36.387   0.486
31334W        W96561  43.887  24.518  13.569
31335W        W96562  19.623  25.223   0.275
31336W        W96563   2.355   4.701   9.825
31337W        W96564   5.284  34.068   0.123
31338W        W96565  23.659   2.017   3.805
31339W        W96566  23.017  18.057   3.619
31340W        W96567   0.775  31.619   3.335
31341W        W96568  44.743  37.730   0.056
31342W        W96569  33.007  30.568   5.032
31343W        W96570  35.359  14.238  13.435
31344W        W96571  31.383  41.446  12.478
31345W        W96572  11.134  26.975  13.288
31346W        W96573  37.034  33.848   1.727
31347W        W96574  43.881   7.181  13.134
31348W        W96575  13.762  14.847   0.490
31349W        W96576  37.785   0.701  11.790
31350W        W96577  35.896   6.073  10.151
31351W        W96578  11.897  23.060  12.035
31352W        W96579  29.719  22.429   1.288
31353W        W96580  22.872  24.243   3.284
31354W        W96581   1.882   1.906  13.816
31355W        W96582  21.770  34.978   4.355
31356W        W96583  31.668  41.403  14.328
31357W        W96584  27.593  35.866  11.650
31358W        W96585  14.700  21.101   1.020
31359W        W96586  28.064  26.951   2.233
31360W        W96587   1.201  18.117   4.203
31361W        W96588   1.928  42.350   4.710
31362W        W96589  31.450  40.612   2.875
31363W        W96590  21.531  16.895   2.432
31364W        W96591  11.710  28.720  13.009
31365W        W96592  20.261   5.404  13.904
31366W        W96593  26.147  27.608  13.893
31367W        W96594  19.719  27.551  12.439
31368W        W96595  37.834  10.767   0.872
31369W        W96596  14.283  23.745  12.832
31370W        W96597  17.851   5.361   0.263
31371W        W96598  19.704  43.404  13.321
31372W        W96599  40.209   4.875   1.338
31373W        W96600  25.188  11.512  14.046
31374W        W96601   5.314   0.359  12.316
31375W        W96602  28.357  34.772   3.219
31376W        W96603  15.246   2.007   3.412
31377W        W96604  12.728  31.650  13.092
31378W        W96605  34.979  18.025   2.238
31379W        W96606   7.703  31.440  14.849
31380W        W96607   1.331   0.866  13.125
31381W        W96608  41.349  16.314   2.836
31382W        W96609  24.706  27.828   0.308
31383W        W96610  41.582   6.816   4.612
31384W        W96611   9.741  13.127  13.874
31385W        W96612  44.468  43.158   0.834
31386W        W96613   5.840  44.427   2.177
31387W        W96614  40.399  28.669  13.820
31388W        W96615   0.840  34.157  12.040
31389W        W96616  42.459  37.143   0.430
31390W        W96617  14.700  31.688  10.714
31391W        W96618  14.774  19.296   1.242
31392W        W96619  10.155  11.301   4.170
31393W        W96620  11.264  15.485  12.943
31394W        W96621  18.627   3.428   0.824
31395W        W96622  43.447  43.069  13.128
31396W        W96623  31.687  14.734   3.118
31397W        W96624  10.199  21.903   2.136
31398W        W96625  14.934  29.502   4.113
31399W        W96626  43.461  27.622  13.294
31400W        W96627  19.008   7.025   0.322
31401W        W96628  31.127  17.815   2.113
31402W        W96629   8.183  26.131  10.766
31403W        W96630  20.529   3.032   5.045
31404W        W96631  19.320  13.466   4.207
31405W        W96632  36.859   3.920   3.155
31406W        W96633  12.083  29.498   2.872
31407W        W96634   7.695  31.557   4.236
31408W        W96635  31.092  11.322  12.232
31409W        W96636   6.872  34.342   1.255
31410W        W96637  43.997   6.905   0.288
31411W        W96638  19.459  19.187   4.978
31412W        W96639   7.786  38.532   2.397
31413W        W96640  21.653  42.054  14.829
31414W        W96641  42.495  27.368   1.595
31415W        W96642  34.536  21.931   1.833
31416W        W96643  24.710  10.338   2.813
31417W        W96644  40.805  18.766   2.808
31418W        W96645  19.543   5.662   2.396
31419W        W96646  35.384   4.810  10.404
31420W        W96647  24.634  13.320   1.782
31421W        W96648  36.722  32.352   0.764
31422W        W96649   0.038   5.346  13.927
31423W        W96650  32.997  19.573  13.974
31424W        W96651  32.840  37.561  12.208
31425W        W96652  16.544   4.369  13.898
31426W        W96653  13.845  21.468  11.911
31427W        W96654   9.771  12.293   1.465
31428W        W96655   9.164   4.497   1.736
31429W        W96656  13.309   8.500  11.794
31430W        W96657  37.470  18.731  12.120
31431W        W96658  16.257  17.700   0.490
31432W        W96659  11.650  34.003   4.594
31433W        W96660   8.676  23.166  11.944
31434W        W96661  24.204  28.617   4.844
31435W        W96662  44.767  34.100   2.931
31436W        W96663  43.186  37.958  13.809
31437W        W96664  42.055  12.286   0.012
31438W        W96665  32.124  12.278   0.467
31439W        W96666   4.164   4.783  10.974
31440W        W96667  35.320   0.956  13.983
31441W        W96668  30.908  34.494  13.907
31442W        W96669   8.117  28.099  13.319
31443W        W96670   7.697   6.166   5.162
31444W        W96671   3.701  44.060  13.026
31445W        W96672   7.251  33.454  11.624
31446W        W96673   5.110  36.835   1.910
31447W        W96674  22.022  14.337   0.934
31448W        W96675   5.927  32.019   0.874
31449W        W96676   2.915  17.260  13.850
31450W        W96677  23.897   1.200  13.000
31451W        W96678  23.609  30.941  13.779
31452W        W96679  18.092  11.890  14.286
31453W        W96680  24.283   2.512   4.962
31454W        W96681  15.085  15.269   0.188
31455W        W96682  15.757  43.517  13.936
31456W        W96683  24.515  43.253   2.171
31457W        W96684  29.109  15.526  13.304
31458W        W96685  13.604   8.908  12.345
31459W        W96686  17.706  34.184  13.118
31460W        W96687  21.316  33.007  14.269
31461W        W96688  42.278  28.541  13.760
31462W        W96689   6.877  41.428   4.911
31463W        W96690  10.373  21.886  14.914
31464W        W96691  39.449  41.332  10.727
31465W        W96692  34.788  24.222   4.602
31466W        W96693  38.333   5.894   3.371
31467W        W96694  37.389  20.943  14.793
31468W        W96695  29.816  23.466  12.872
31469W        W96696  23.388  36.576   2.239
31470W        W96697   9.954  43.213  11.404
31471W        W96698  34.764  30.002   3.605
31472W        W96699  35.777  22.799   4.964
31473W        W96700  20.315  25.979   2.818
31474W        W96701   7.659  39.902  10.686
31475W        W96702  35.789  21.079   4.568
31476W        W96703  13.393  23.581   2.370
31477W        W96704   2.762  24.885   1.420
31478W        W96705   0.462  36.983   4.095
31479W        W96706   0.949   7.436   3.767
31480W        W96707  43.800   0.423   1.884
31481W        W96708  27.405  23.616  10.804
31482W        W96709  16.615  20.486  13.321
31483W        W96710  12.199  19.900  14.881
31484W        W96711   0.175   3.878  13.028
31485W        W96712   9.291  12.542   1.670
31486W        W96713  13.867  25.903   2.341
31487W        W96714  29.992   3.012  14.020
31488W        W96715   1.369  35.452  14.895
31489W        W96716  39.454  24.913  12.909
31490W        W96717   6.088  22.938  11.624
31491W        W96718  40.453  10.958   4.344
31492W        W96719  33.606  10.734   3.665
31493W        W96720  19.334  36.360   4.507
31494W        W96721  36.439  30.574  14.792
31495W        W96722  27.388  41.034   2.323
31496W        W96723  25.967  37.534  11.026
31497W        W96724  12.847  32.681   3.443
31498W        W96725  25.559   5.262   1.998
31499W        W96726  32.240  40.013   4.056
31500W        W96727  25.095   5.275   1.690
31501W        W96728  16.442  23.682   3.528
31502W        W96729  31.063  27.960  12.487
31503W        W96730   7.203  25.894   2.917
31504W        W96731  23.596  43.853  14.718
31505W        W96732   9.313  37.060   4.558
31506W        W96733  20.752   2.162   2.928
31507W        W96734  20.949   3.236   4.404
31508W        W96735  18.221  21.986   2.460
31509W        W96736  42.190  24.505   2.028
31510W        W96737  33.901  22.798  11.175
31511W        W96738   0.198  19.496  13.900
31512W        W96739  25.958   0.283  11.629
31513W        W96740   1.820  11.770  14.069
31514W        W96741  43.469  31.078  11.583
31515W        W96742  19.256   1.844   0.222
31516W        W96743  41.428  14.278   2.278
31517W        W96744   3.847  10.629  13.517
31518W        W96745  34.605  19.076  13.437
31519W        W96746  18.375  10.608   3.048
31520W        W96747  41.643  29.504  11.566
31521W        W96748  35.783  11.119   3.607
31522W        W96749  44.836  37.070  10.537
31523W        W96750  19.818   7.623  10.472
31524W        W96751  32.626  34.468   4.569
31525W        W96752  34.324  24.742  13.444
31526W        W96753  12.694   1.991   2.352
31527W        W96754  29.879  44.272   1.894
31528W        W96755  24.926  19.591   1.623
31529W        W96756   9.138  21.554   0.776
31530W        W96757  18.568  34.548  11.222
31531W        W96758   6.829   5.318   2.422
31532W        W96759  29.026  17.633  13.416
31533W        W96760  14.479  39.198   2.596
31534W        W96761  22.265   0.538  13.437
31535W        W96762  30.171   0.450   4.630
31536W        W96763  41.093  32.937   4.889
31537W        W96764  44.278  44.999  12.877
31538W        W96765  15.253  32.654   3.206
31539W        W96766   8.912  15.757   0.265
31540W        W96767  24.687  35.460  11.961
31541W        W96768  21.637  43.523   3.700
31542W        W96769  24.874  32.080   0.692
31543W        W96770   5.673  40.636   0.367
31544W        W96771   4.739   0.261   2.671
31545W        W96772  40.600  34.544   1.924
31546W        W96773  10.761  26.684   4.134
31547W        W96774  17.700  17.861  14.045
31548W        W96775  44.655   3.161  11.479
31549W        W96776  34.200  11.430  13.542
31550W        W96777  19.980  12.033   1.343
31551W        W96778  32.503   8.571  11.274
31552W        W96779  24.060  24.020   4.677
31553W        W96780   8.280   8.667   4.707
31554W        W96781  19.501  24.694  12.153
31555W        W96782  39.289   0.007  13.886
31556W        W96783  29.437   5.874  13.286
31557W        W96784  30.490  27.628   2.570
31558W        W96785   3.671  20.763   2.720
31559W        W96786  41.099   6.789   2.594
31560W        W96787  24.170   9.888   0.721
31561W        W96788  25.971  37.613   4.389
31562W        W96789  21.593  37.652   3.301
31563W        W96790  21.597  41.821   0.317
31564W        W96791  21.908  14.762  12.468
31565W        W96792  24.664  18.618  11.561
31566W        W96793   4.517  36.329   2.705
31567W        W96794  42.885  13.787   0.462
31568W        W96795  34.865  39.485  14.909
31569W        W96796  12.434  31.097   5.516
31570W        W96797  41.513  37.371   4.873
31571W        W96798  33.654  20.867  14.865
31572W        W96799  23.140  43.478  12.520
31573W        W96800  25.102  12.958  12.712
31574W        W96801  22.806   5.842   0.217
31575W        W96802  44.796  17.194   0.802
31576W        W96803  43.463  38.544  13.413
31577W        W96804   6.216  33.388  11.017
31578W        W96805  40.321   2.469  13.060
31579W        W96806  44.198   1.696  13.354
31580W        W96807  30.840  17.637  14.832
31581W        W96808  42.735  37.597  14.327
31582W        W96809  37.564   8.040   2.346
31583W        W96810   5.290  14.863   1.701
31584W        W96811   3.919  12.182  13.343
31585W        W96812  17.260   3.769   3.987
31586W        W96813  24.416  25.003  13.477
31587W        W96814  23.254  16.153  13.396
31588W        W96815  11.736   8.219  14.905
31589W        W96816  36.668  30.228  14.447
31590W        W96817  41.651  27.582  14.055
31591W        W96818  44.255  25.681   0.735
31592W        W96819   3.301  22.134   1.158
31593W        W96820  19.355  30.271   3.675
31594W        W96821  19.845   9.616  12.503
31595W        W96822  41.060  25.046  13.041
31596W        W96823  24.520  44.741   1.514
31597W        W96824  14.089   3.327   5.116
31598W        W96825   3.493  39.365   2.277
31599W        W96826  39.945  40.535  14.927
31600W        W96827  34.703  32.051   4.260
31601W        W96828  30.422  17.001  11.077
31602W        W96829  12.265  20.304   0.211
31603W        W96830  36.978  13.075   3.945
31604W        W96831  25.001  14.873   1.654
31605W        W96832  14.232  14.950   2.231
31606W        W96833   1.757  43.211   0.530
31607W        W96834  41.815  36.257   1.191
31608W        W96835  31.221  12.812   4.141
31609W        W96836   7.670  28.133   0.016
31610W        W96837  39.432  13.872   3.660
31611W        W96838  15.866  29.450  13.962
31612W        W96839  33.766  10.780  12.247
31613W        W96840  19.104  24.256   0.958
31614W        W96841  38.417  34.048  14.043
31615W        W96842  42.581   5.408   4.540
31616W        W96843  13.500  43.204  10.495
31617W        W96844   2.895  38.511  10.548
31618W        W96845  42.336   7.903  13.583
31619W        W96846  10.831  25.524   0.962
31620W        W96847  22.581  15.369  12.194
31621W        W96848   7.595  35.141   4.300
31622W        W96849  41.941  17.355  13.174
31623W        W96850  40.935  31.991   1.296
31624W        W96851  11.850  44.466  11.626
31625W        W96852  28.137  11.797  12.506
31626W        W96853  23.221  34.270  10.832
31627W        W96854  34.705  19.736  11.357
31628W        W96855  20.099  43.979  11.143
31629W        W96856  28.494  38.359   1.795
31630W        W96857  27.722   9.902  13.594
31631W        W96858  29.146  16.513  14.859
31632W        W96859  36.847  14.100  11.196
31633W        W96860  43.039  32.318   4.483
31634W        W96861   9.445  34.929  14.806
31635W        W96862  38.301  25.190  13.894
31636W        W96863   9.236  27.598  10.758
31637W        W96864  13.268  42.466  11.518
31638W        W96865  44.678  30.822   4.913
31639W        W96866  32.798   7.389  12.829
31640W        W96867  32.597  29.498   4.227
31641W        W96868  35.739   5.913  13.873
31642W        W96869   6.456   2.702  11.117
31643W        W96870  34.589   0.049  12.474
31644W        W96871  20.049  10.971  13.967
31645W        W96872  39.033  33.904  13.349
31646W        W96873   2.437   4.887  11.280
31647W        W96874  15.668  37.825  13.609
31648W        W96875  20.029  31.217  13.833
31649W        W96876  24.114  42.071   0.391
31650W        W96877  42.504  39.239   4.752
31651W        W96878   8.560  28.142   3.999
31652W        W96879   6.845  42.515  13.052
31653W        W96880  33.749  40.149  11.689
31654W        W96881  11.796  19.377  12.148
31655W        W96882  12.820  34.487   3.329
31656W        W96883  32.710  30.575   1.884
31657W        W96884   9.578  32.327  10.769
31658W        W96885   9.513  18.803   3.403
31659W        W96886  15.685  26.037   2.804
31660W        W96887  37.325   2.805   2.729
31661W        W96888   4.780  18.058   2.291
31662W        W96889  40.041  18.523  12.098
31663W        W96890  17.773   3.050   4.889
31664W        W96891  16.307  16.992   2.734
31665W        W96892   4.148  38.674  10.975
31666W        W96893  43.571  13.100  11.325
31667W        W96894   5.880  37.021  13.486
31668W        W96895   0.372  32.915   3.940
31669W        W96896   3.960  16.713  12.510
31670W        W96897  26.648   2.759  13.150
31671W        W96898  38.353  34.312   4.569
31672W        W96899  38.561  37.876  13.411
31673W        W96900  20.178  29.936   4.620
31674W        W96901  28.577   3.059   0.945
31675W        W96902  22.584  14.848   3.952
31676W        W96903  12.725  28.521   4.587
31677W        W96904   0.009   1.020  14.335
31678W        W96905  10.865  37.299  10.888
31679W        W96906  13.269   7.121  14.252
31680W        W96907   8.447  35.817   2.804
31681W        W96908  38.322  12.079  12.065
31682W        W96909  26.837  32.884  10.222
31683W        W96910  17.384  41.916  10.732
31684W        W96911  18.266  11.540  10.787
31685W        W96912  32.570  15.570   2.285
31686W        W96913  38.375  42.785   3.667
31687W        W96914  31.800  33.435   1.705
31688W        W96915  21.102   6.798   3.718
31689W        W96916  42.882   9.114   1.782
31690W        W96917  29.478   4.354  10.895
31691W        W96918  22.475   9.708  11.734
31692W        W96919   7.936   0.232  14.858
31693W        W96920  10.368  10.800   2.763
31694W        W96921   0.709  35.331  14.664
31695W        W96922  39.066  24.123  14.967
31696W        W96923   8.850  14.307   1.771
31697W        W96924  12.150   6.718   4.925
31698W        W96925  24.110  11.883   2.395
31699W        W96926  21.532  32.134   1.346
31700W        W96927   3.192  19.737  14.429
31701W        W96928  22.816   8.195   1.179
31702W        W96929   2.791  27.527  14.885
31703W        W96930   6.093  37.693  10.658
31704W        W96931  38.001  31.917  14.819
31705W        W96932  43.942  25.576   3.052
31706W        W96933  40.739  32.575   4.216
31707W        W96934  21.926  15.272   0.964
31708W        W96935   3.053  28.510   0.432
31709W        W96936  43.303   7.586   9.798
31710W        W96937  39.317  11.759  10.483
31711W        W96938  21.971  42.526   3.191
31712W        W96939   2.923  44.853   1.429
31713W        W96940  17.250  41.698   1.153
31714W        W96941  26.928  25.512  12.911
31715W        W96942  35.337  38.377  14.970
31716W        W96943   0.188  21.880  10.703
31717W        W96944  34.439   1.965  14.271
31718W        W96945  22.646  43.821   2.340
31719W        W96946   8.758  12.089  13.562
31720W        W96947  41.429  20.689   4.731
31721W        W96948  38.712  16.695   3.195
31722W        W96949  16.814  14.594   1.058
31723W        W96950  34.450   2.734  10.701
31724W        W96951   9.910   6.391  11.477
31725W        W96952   6.951  43.319   3.259
31726W        W96953  21.512  24.620   1.259
31727W        W96954  17.332  24.441  12.503
31728W        W96955  43.385  44.984   4.538
31729W        W96956   0.127  21.783  11.210
31730W        W96957  12.221  26.511  10.823
31731W        W96958  19.283  37.022   3.239
31732W        W96959  32.852   4.072   2.403
31733W        W96960  28.746  33.007   3.194
31734W        W96961  31.703   6.847  12.042
31735W        W96962  39.804   1.393   2.278
31736W        W96963  17.221  18.286  14.775
31737W        W96964  42.865  17.023   2.210
31738W        W96965  12.712  44.937  12.837
31739W        W96966  22.594  27.431  11.841
31740W        W96967   5.835  13.839  10.748
31741W        W96968  16.687  13.357  14.298
31742W        W96969   3.807   1.973  12.118
31743W        W96970  21.665   2.180   2.784
31744W        W96971  40.037  17.503  11.007
31745W        W96972  26.184  16.387  14.876
31746W        W96973  28.525  34.979  10.719
31747W        W96974   4.321  40.399  12.517
31748W        W96975   2.699   9.767   1.463
31749W        W96976  10.882  43.013  13.373
31750W        W96977  38.929  36.908  11.996
31751W        W96978  25.998  42.487  12.363
31752W        W96979   9.721  20.209   3.841
31753W        W96980  17.828  12.369  11.069
31754W        W96981  34.040   5.030   2.849
31755W        W96982  34.842  28.035   2.269
31756W        W96983  16.331  25.673   1.482
31757W        W96984   8.139  36.663   3.022
31758W        W96985  34.384  22.234   4.053
31759W        W96986  44.008   5.965   0.049
31760W        W96987  10.568  32.175  10.157
31761W        W96988  16.588   3.519  11.699
31762W        W96989  28.020  26.983  13.134
31763W        W96990  22.050  16.165  14.086
31764W        W96991  26.583  20.073  13.113
31765W        W96992  43.843  37.460  12.554
31766W        W96993  35.915  14.123  14.869
31767W        W96994   0.416   8.932   3.311
31768W        W96995  27.649  40.712  12.974
31769W        W96996  27.294   0.926   1.805
31770W        W96997  14.670  33.512  13.622
31771W        W96998  42.583  31.105   3.670
31772W        W96999  17.750   4.467  13.895
31773W        W97000  29.267   4.070   1.591
31774W        W97001  33.525  42.857   4.053
31775W        W97002  30.159  25.234  13.241
31776W        W97003  34.441  31.151   0.720
31777W        W97004  20.191  26.376   4.531
31778W        W97005  22.368  33.890  11.161
31779W        W97006  42.704  13.796   0.949
31780W        W97007   7.960   4.451  12.443
31781W        W97008   3.019  37.191  11.626
31782W        W97009  38.934  15.581  13.635
31783W        W97010  34.478  15.428  13.670
31784W        W97011  34.931  19.480  10.038
31785W        W97012   6.887  28.627  13.123
31786W        W97013  34.844  18.054  13.837
31787W        W97014  39.458   8.178   0.198
31788W        W97015  43.432  22.128   3.468
31789W        W97016  24.490  38.453  12.618
31790W        W97017  33.524  44.076   3.612
31791W        W97018  23.459  34.907  13.030
31792W        W97019   3.855  31.412  13.984
31793W        W97020  17.766  35.466  10.644
31794W        W97021  21.110  27.626  14.983
31795W        W97022  22.392  27.632  14.268
31796W        W97023  43.904  15.299  11.978
31797W        W97024  32.569   8.812  14.917
31798W        W97025  42.093  44.768  11.391
31799W        W97026  27.699  16.217  11.075
31800W        W97027  22.299  44.854   3.673
31801W        W97028   6.608  31.409  14.960
31802W        W97029  16.350  14.607   3.339
31803W        W97030  19.928  30.696   2.438
31804W        W97031   6.114  35.470  13.589
31805W        W97032   0.944  22.374  12.982
31806W        W97033  31.902  36.320   0.791
31807W        W97034  32.668  42.354   1.713
31808W        W97035  37.555  13.139  12.837
31809W        W97036  23.956  13.122   1.003
31810W        W97037  24.064   1.831   4.519
31811W        W97038  10.213  25.563   1.584
31812W        W97039  25.178  39.354   1.125
31813W        W97040  12.084   3.965  14.403
31814W        W97041  16.774   1.938  14.595
31815W        W97042  21.139  33.442  11.184
31816W        W97043  13.708  38.012  14.818
31817W        W97044  34.887  27.472   4.526
31818W        W97045  21.533  39.433  10.685
31819W        W97046  36.883  31.862  14.873
31820W        W97047   3.460   6.174  13.762
31821W        W97048  17.848   2.015  12.945
31822W        W97049  25.495  41.056   1.743
31823W        W97050  35.329  42.413  13.433
31824W        W97051  34.117   3.240   0.149
31825W        W97052  42.295  23.701  13.936
31826W        W97053  18.882  30.017  14.862
31827W        W97054  39.476  33.596   3.650
31828W        W97055  22.591  17.544   0.754
31829W        W97056  27.150  22.026   0.263
31830W        W97057  36.020  12.266   4.493
31831W        W97058  40.912   2.943  11.074
31832W        W97059  13.804  13.137  11.002
31833W        W97060  32.516  28.668  14.422
31834W        W97061  10.328   2.758  10.975
31835W        W97062  10.869  28.548   0.751
31836W        W97063  31.868  33.201   0.273
31837W        W97064  19.843  12.265   4.901
31838W        W97065  29.546  40.546  10.585
31839W        W97066   9.933  22.512  13.331
31840W        W97067  28.994  26.035  11.192
31841W        W97068   3.648  35.828  14.495
31842W        W97069   7.325  26.140   4.248
31843W        W97070  37.018  16.818  14.734
31844W        W97071  27.084   3.201   3.135
31845W        W97072  35.944  11.636   2.704
31846W        W97073  22.626  23.096  10.291
31847W        W97074  27.509   6.861   0.725
31848W        W97075  31.144  28.334  14.356
31849W        W97076  21.959  21.657  10.400
31850W        W97077   3.646  42.244  14.991
31851W        W97078  42.396   3.371   1.498
31852W        W97079  27.474   1.906   1.842
31853W        W97080  37.235  21.651  11.723
31854W        W97081  39.337  42.773   5.100
31855W        W97082  39.351  15.280  10.582
31856W        W97083  12.811   1.895   4.568
31857W        W97084  12.483  37.226  12.475
31858W        W97085  32.491  43.811  10.990
31859W        W97086  44.404  34.756   2.271
31860W        W97087   4.220  23.087  14.899
31861W        W97088  32.925  30.258   0.847
31862W        W97089  23.478  10.791  10.899
31863W        W97090  41.391  22.623  13.382
31864W        W97091  27.718   5.975   1.704
31865W        W97092  24.737  24.301   1.341
31866W        W97093  38.655   8.782   0.297
31867W        W97094  20.677   0.436   2.348
31868W        W97095  40.518  31.906   0.987
31869W        W97096  29.229  28.557   1.176
31870W        W97097  22.779  16.624   3.607
31871W        W97098   9.968  16.098   0.981
31872W        W97099  13.714  24.509   4.327
31873W        W97100  14.889  41.403  11.221
31874W        W97101  14.624  42.440   0.728
31875W        W97102  19.793   8.995  13.881
31876W        W97103   1.455   5.071   0.046
31877W        W97104  34.482  27.094  11.830
31878W        W97105  33.383  11.807  12.566
31879W        W97106  32.103  19.005  11.561
31880W        W97107  23.656  26.497   4.500
31881W        W97108  16.787  10.676   2.209
31882W        W97109  12.660  33.094  14.061
31883W        W97110   5.967  30.907   4.711
31884W        W97111   7.153  38.357   3.115
31885W        W97112  11.658  10.297   2.485
31886W        W97113  27.435  23.511   2.660
31887W        W97114  23.707  17.828  14.799
31888W        W97115  42.605  37.764   2.842
31889W        W97116  30.632  23.345   2.964
31890W        W97117  43.140  25.093  10.325
31891W        W97118  44.347  14.735   0.750
31892W        W97119  38.678  16.301   2.362
31893W        W97120   5.281  36.764   4.604
31894W        W97121  43.100  34.782   2.728
31895W        W97122  28.382  13.722   4.074
31896W        W97123  17.211  39.928   2.734
31897W        W97124  18.811  35.156  12.044
31898W        W97125  22.129  36.995  13.589
31899W        W97126   2.741   2.830  12.018
31900W        W97127  32.458  12.766  12.297
31901W        W97128   8.849  11.930  13.100
31902W        W97129  42.327  44.759   4.058
31903W        W97130   9.227  29.753   2.877
31904W        W97131  35.879  13.921  12.134
31905W        W97132  11.856  35.960   1.251
31906W        W97133  29.740  28.442   1.258
31907W        W97134  22.086  40.475   1.027
31908W        W97135   3.867  38.749  12.264
31909W        W97136   3.840   8.573   4.651
31910W        W97137  37.925   5.887   1.912
31911W        W97138  39.510  22.052   4.276
31912W        W97139  11.359  16.173   1.751
31913W        W97140   5.663  18.924   1.850
31914W        W97141  44.151  11.295  12.061
31915W        W97142  32.733  13.007  14.475
31916W        W97143   5.244  17.328  12.338
31917W        W97144  10.854   0.031   1.748
31918W        W97145  18.483  25.474  14.962
31919W        W97146  35.403  25.006   0.400
31920W        W97147  43.276  38.927  11.997
31921W        W97148  42.906   1.433   4.705
31922W        W97149  11.831  31.954   0.386
31923W        W97150   4.852  36.314  11.727
31924W        W97151   2.987  42.024   3.510
31925W        W97152   8.824  28.407   2.621
31926W        W97153  11.168  37.821  12.468
31927W        W97154  10.794  26.467  11.610
31928W        W97155  32.528  29.716  13.462
31929W        W97156  16.276  16.214  13.441
31930W        W97157  36.590  10.066   2.886
31931W        W97158  13.667  23.698   0.668
31932W        W97159  34.814   1.281  13.322
31933W        W97160   5.328  35.532   0.255
31934W        W97161   0.974  41.772  12.331
31935W        W97162  23.084   1.026   0.718
31936W        W97163  26.453  13.144   3.768
31937W        W97164  24.117  23.716   3.469
31938W        W97165  28.464   7.888  14.958
31939W        W97166  25.793  16.088  14.170
31940W        W97167  33.421  40.388  14.904
31941W        W97168  32.729  15.521   1.284
31942W        W97169  33.587   8.356  10.665
31943W        W97170  10.192   8.328   2.099
31944W        W97171  28.982  43.505  12.378
31945W        W97172  11.632  24.689  12.521
31946W        W97173  16.533   9.820   0.600
31947W        W97174  11.071   1.422   4.599
31948W        W97175  28.061  29.450   3.295
31949W        W97176  44.315  43.306  10.057
31950W        W97177  41.015  37.518  12.189
31951W        W97178  41.867  39.934  12.602
31952W        W97179  30.862  42.984   1.098
31953W        W97180  35.797  10.445   1.761
31954W        W97181  25.494  20.940  13.824
31955W        W97182  23.177  29.090   0.809
31956W        W97183   2.963   0.199   3.245
31957W        W97184  41.205  44.778  12.945
31958W        W97185  31.472  25.563  10.706
31959W        W97186  23.596   1.292  14.285
31960W        W97187  29.186   7.302   0.234
31961W        W97188  36.047  31.696   3.664
31962W        W97189   8.003  13.105   1.300
31963W        W97190  10.739  25.523  11.530
31964W        W97191  16.922  28.800   1.217
31965W        W97192  13.517  17.091  14.672
31966W        W97193  39.299   1.897   2.836
31967W        W97194  22.790  16.408   1.979
31968W        W97195  24.106   8.753  10.951
31969W        W97196  43.515  13.266   0.002
31970W        W97197  22.333  17.572   2.379
31971W        W97198  12.445  20.971   2.786
31972W        W97199  16.583  22.175  12.551
31973W        W97200  32.410  19.150  14.889
31974W        W97201   7.718  19.572   3.384
31975W        W97202  23.122  26.791   0.269
31976W        W97203  32.513  42.846   2.029
31977W        W97204  21.091   5.985   4.400
31978W        W97205   5.780  43.994   3.039
31979W        W97206   3.533  22.303   4.584
31980W        W97207  19.830  28.384   2.191
31981W        W97208  43.015  37.880  10.990
31982W        W97209  39.973  21.425   2.706
31983W        W97210  36.515  34.638  14.160
31984W        W97211   6.869   7.427  12.514
31985W        W97212  28.060  29.602   0.803
31986W        W97213  13.715  36.139  13.763
31987W        W97214  32.134   3.951  11.575
31988W        W97215  15.018   8.199   3.630
31989W        W97216  43.168  41.889  10.675
31990W        W97217  38.569  13.359  12.428
31991W        W97218  30.016  40.919   4.765
31992W        W97219  24.102  21.750   4.318
31993W        W97220   6.212  37.513  14.829
31994W        W97221   2.181  11.414  14.275
31995W        W97222  43.378   9.484  14.327
31996W        W97223   3.792  26.238   0.858
31997W        W97224   3.515  32.462  11.272
31998W        W97225   8.821  29.551  14.991
31999W        W97226  21.736  14.785  10.915
32000W        W97227  18.351   4.279  14.702
32001W        W97228  36.042  20.122   1.997
32002W        W97229  42.397  30.544  11.147
32003W        W97230  16.624  40.330  10.683
32004W        W97231  17.208  42.960   1.858
32005W        W97232  27.101  18.199  14.887
32006W        W97233  31.171  34.208  11.096
32007W        W97234  17.908  40.018  14.973
32008W        W97235  11.524  20.371  14.724
32009W        W97236  17.718   6.326  11.550
32010W        W97237  44.810   8.246  11.124
32011W        W97238  39.753  24.486   1.440
32012W        W97239  35.577  10.848   2.500
32013W        W97240  11.850  26.454   1.688
32014W        W97241  12.947   2.545   3.076
32015W        W97242  20.604  13.177   4.515
32016W        W97243   7.465  27.959  11.688
32017W        W97244  30.195  26.364   3.210
32018W        W97245  42.095  21.801   3.677
32019W        W97246   9.385   2.500  13.246
32020W        W97247  14.343  44.790  14.349
32021W        W97248  44.756  14.147  13.282
32022W        W97249  16.517  11.691  11.954
32023W        W97250  26.416  34.148  12.948
32024W        W97251   3.494  21.107  13.034
32025W        W97252  11.477  18.816   4.184
32026W        W97253  40.109  30.858  14.788
32027W        W97254   9.675  28.579   3.102
32028W        W97255  40.091  28.558  14.816
32029W        W97256  35.867   3.047   4.360
32030W        W97257   0.248  27.634  13.798
32031W        W97258  36.992  40.905   0.463
32032W        W97259  24.234  17.223   0.334
32033W        W97260  34.393  43.814  13.988
32034W        W97261  32.956  16.801  12.483
32035W        W97262  10.654  19.210  13.866
32036W        W97263   6.309   0.980  14.890
32037W        W97264   0.908  19.083   5.140
32038W        W97265  33.694   6.077  10.181
32039W        W97266   6.714  20.643   1.878
32040W        W97267  17.071  15.226   1.749
32041W        W97268  22.242  32.602  11.488
32042W        W97269   8.494  29.044   3.169
32043W        W97270  16.096  39.714  11.663
32044W        W97271  25.223  29.579   2.943
32045W        W97272   6.803  35.038  10.662
32046W        W97273  18.225  22.548   1.190
32047W        W97274  12.150  21.324   3.895
32048W        W97275  30.557   9.695   3.216
32049W        W97276  25.252  43.947  13.842
32050W        W97277  32.102   3.263   4.957
32051W        W97278   1.433  19.973   3.558
32052W        W97279  16.202  36.488   5.045
32053W        W97280  24.060   8.205  10.764
32054W        W97281   3.817  38.206   0.203
32055W        W97282  10.738  15.482   3.043
32056W        W97283  33.043  42.269   3.741
32057W        W97284  41.899  12.219   0.982
32058W        W97285  19.183  42.012   3.369
32059W        W97286  19.125  36.843   0.273
32060W        W97287   2.382  24.501  12.350
32061W        W97288   7.598   7.646  12.132
32062W        W97289  18.159  18.186   4.541
32063W        W97290  39.775  42.436   4.668
32064W        W97291  17.079  39.065   4.961
32065W        W97292  26.541  10.318   3.195
32066W        W97293  44.069  17.878   0.510
32067W        W97294  24.130   1.921   2.680
32068W        W97295   4.234  38.864   2.851
32069W        W97296  27.965  20.187  10.704
32070W        W97297  12.099  41.884   0.474
32071W        W97298  26.545  35.261   1.199
32072W        W97299  36.810  19.274   1.426
32073W        W97300  22.146  37.915  13.130
32074W        W97301  41.469  20.899  13.386
32075W        W97302  37.633  36.287  11.156
32076W        W97303  15.497  11.725  11.054
32077W        W97304  12.857  22.062   2.308
32078W        W97305  12.381  29.450   2.338
32079W        W97306   0.796  17.633  14.509
32080W        W97307  16.589  20.174   4.321
32081W        W97308  19.883  27.562  14.666
32082W        W97309  10.068  16.124   2.853
32083W        W97310  33.689  25.043   5.102
32084W        W97311  15.088   9.213  13.994
32085W        W97312  12.249  41.074   1.713
32086W        W97313  40.563  13.102   3.741
32087W        W97314  23.752  13.726   4.048
32088W        W97315  18.116  16.500  11.211
32089W        W97316   3.518  32.148  13.361
32090W        W97317  19.784  12.169  11.407
32091W        W97318  32.212  28.082   3.195
32092W        W97319   1.192  18.342  14.014
32093W        W97320  36.489  15.985   1.233
32094W        W97321  13.203   0.791   0.023
32095W        W97322  35.558   4.965   4.307
32096W        W97323   3.696  13.752  14.508
32097W        W97324   2.044  26.177   0.941
32098W        W97325   7.163  10.275  11.956
32099W        W97326  21.025  23.199   0.924
32100W        W97327  26.481  42.110   0.415
32101W        W97328  14.676  13.194   1.018
32102W        W97329   0.898  14.181  11.249
32103W        W97330  39.068  42.292  13.043
32104W        W97331   6.716  39.754  11.614
32105W        W97332  42.313  11.796  10.620
32106W        W97333   4.913  42.956  14.044
32107W        W97334  18.572  23.144   3.156
32108W        W97335  14.369   0.353   0.424
32109W        W97336  26.663  37.278  14.022
32110W        W97337  14.282  42.301   3.616
32111W        W97338  16.517  33.889  11.180
32112W        W97339  13.722  12.121   2.242
32113W        W97340  36.779  23.179  11.528
32114W        W97341  18.181  33.940  14.810
32115W        W97342  40.727  41.359   0.337
32116W        W97343  38.840  21.994   0.418
32117W        W97344  44.226  33.006  12.478
32118W        W97345   4.684  25.494   0.237
32119W        W97346  30.835  30.928   0.714
32120W        W97347  38.242  21.373  12.227
32121W        W97348   1.186  11.599  11.437
32122W        W97349  16.283  24.952  10.684
32123W        W97350  39.131  16.088  14.672
32124W        W97351  16.786  14.573  12.445
32125W        W97352  19.669  29.733   4.703
32126W        W97353  24.331  41.158   4.272
32127W        W97354  41.431  37.849  12.433
32128W        W97355  26.990  13.048   3.759
32129W        W97356  20.356  29.307  12.834
32130W        W97357  17.002  40.031  13.806
32131W        W97358  29.101  24.540  13.947
32132W        W97359   8.420  13.406  10.726
32133W        W97360  39.955   9.221  11.163
32134W        W97361   1.671   5.462  11.122
32135W        W97362  41.277  25.449  12.015
32136W        W97363   8.311  15.694  11.957
32137W        W97364  20.253  12.106  11.169
32138W        W97365   2.794  18.982   0.785
32139W        W97366  27.749  10.188   3.690
32140W        W97367  32.358  13.430  14.975
32141W        W97368  39.630  17.189   2.737
32142W        W97369   5.144   3.431   4.383
32143W        W97370  12.184  14.606  10.620
32144W        W97371  29.617  39.446  11.866
32145W        W97372  37.768  42.450  14.061
32146W        W97373  32.547  35.423  11.300
32147W        W97374   9.417  28.381  14.755
32148W        W97375  35.998  14.601   2.752
32149W        W97376  22.888  33.822  11.057
32150W        W97377  27.227  36.521   4.547
32151W        W97378  38.838  38.592  12.313
32152W        W97379  17.244  17.565   3.706
32153W        W97380   5.943  28.243  13.284
32154W        W97381  29.400  21.318  11.300
32155W        W97382   4.084  27.432   1.375
32156W        W97383   7.520  43.076  14.439
32157W        W97384   2.413   5.405  14.990
32158W        W97385   6.846  28.710  10.803
32159W        W97386  14.840  13.289  12.782
32160W        W97387   1.843  24.542  13.562
32161W        W97388  41.090  31.021   0.405
32162W        W97389  29.547  27.848  10.614
32163W        W97390  30.041   7.217   0.627
32164W        W97391  40.365  37.878   0.278
32165W        W97392  31.294  43.527   3.802
32166W        W97393  39.192  26.136  11.576
32167W        W97394  30.633   8.206   1.246
32168W        W97395  17.644  31.021  13.996
32169W        W97396  14.479  33.133  11.555
32170W        W97397  18.652  24.089   1.906
32171W        W97398  38.948  38.267   1.159
32172W        W97399   0.463  15.092  12.035
32173W        W97400  18.141  22.464   0.704
32174W        W97401   9.374  16.074  13.956
32175W        W97402  22.614  10.415  12.462
32176W        W97403  20.216  21.129  10.344
32177W        W97404   3.040  18.680   1.774
32178W        W97405  41.946  31.546  10.693
32179W        W97406  23.576  36.682   1.747
32180W        W97407  40.299   1.738   3.084
32181W        W97408  10.779  24.063  10.622
32182W        W97409  33.034  22.678  12.990
32183W        W97410   3.889   0.853   0.796
32184W        W97411  35.377   8.909   1.402
32185W        W97412   7.748  20.009  14.841
32186W        W97413  29.510   1.291  12.358
32187W        W97414   1.874  43.860   3.124
32188W        W97415  12.120  40.597   1.288
32189W        W97416  12.887  32.986   1.932
32190W        W97417   1.397  37.582  11.493
32191W        W97418   9.784   1.054   3.338
32192W        W97419  40.821  13.720   1.984
32193W        W97420  24.418   4.754   3.210
32194W        W97421  25.011  12.674   0.240
32195W        W97422  32.591  14.736   2.709
32196W        W97423   1.209   7.331  14.767
32197W        W97424  26.911  33.209   0.393
32198W        W97425  20.093  15.595   5.004
32199W        W97426  19.552  20.707  10.660
32200W        W97427  15.258  37.837  12.456
32201W        W97428  32.731  39.106  14.474
32202W        W97429  41.275  13.373   4.213
32203W        W97430  21.697   4.917  13.426
32204W        W97431  10.218  10.143  10.737
32205W        W97432  42.205  43.931   3.684
32206W        W97433  22.952  32.556   2.857
32207W        W97434  28.090  18.015   1.385
32208W        W97435  28.178  20.923  14.362
32209W        W97436  40.706   3.376   3.737
32210W        W97437   7.887  13.518  10.903
32211W        W97438  36.578  21.607  13.975
32212W        W97439  22.599  12.396  12.016
32213W        W97440  40.028   0.797   4.365
32214W        W97441  42.518  25.877  10.830
32215W        W97442  19.846  10.506   2.110
32216W        W97443  20.153   9.864   0.683
32217W        W97444  10.379  36.346   4.949
32218W        W97445   4.157   4.629  11.462
32219W        W97446  20.404  26.574   4.111
32220W        W97447   9.985   3.019   0.096
32221W        W97448  44.393   9.138  11.983
32222W        W97449   3.817  40.869   1.961
32223W        W97450  18.728  19.133   1.736
32224W        W97451  24.031   2.231   0.749
32225W        W97452  23.259  10.874   0.774
32226W        W97453   5.764  28.526   3.425
32227W        W97454  43.259  10.606   0.018
32228W        W97455   2.805   5.438   1.457
32229W        W97456  35.827  19.303   4.125
32230W        W97457  34.371  20.736  10.622
32231W        W97458  20.792  39.915   2.213
32232W        W97459   2.422  40.884   3.393
32233W        W97460   2.265  20.477   3.350
32234W        W97461  25.502  29.687  13.102
32235W        W97462  10.101  21.903  11.051
32236W        W97463  12.210  22.480   1.413
32237W        W97464   0.652  42.671   4.545
32238W        W97465  20.582   4.028   9.760
32239W        W97466  15.581  28.999  11.567
32240W        W97467  23.993  35.465   2.190
32241W        W97468   9.834  39.039   3.678
32242W        W97469   2.388  11.600  10.731
32243W        W97470  42.355  18.058  12.550
32244W        W97471  18.464  27.885   2.362
32245W        W97472  18.167  23.404   4.663
32246W        W97473  21.033  32.079   2.094
32247W        W97474   0.902   1.488   0.458
32248W        W97475  37.491   9.429   1.320
32249W        W97476  10.233   0.823   3.561
32250W        W97477  20.448  16.124  14.299
32251W        W97478   4.281  11.009   3.217
32252W        W97479   3.010  41.451  13.824
32253W        W97480  35.850  36.817  10.607
32254W        W97481  20.607  26.023  14.919
32255W        W97482  12.109  27.999  13.869
32256W        W97483   4.276  34.599   4.291
32257W        W97484  35.315   0.033  13.010
32258W        W97485  17.246  26.474   3.361
32259W        W97486  42.429   1.578  12.043
32260W        W97487  40.801   7.696  12.847
32261W        W97488   4.467  21.839   4.546
32262W        W97489  11.656   8.805  10.056
32263W        W97490   5.922   8.627  14.875
32264W        W97491  40.581  44.836   3.038
32265W        W97492  17.579   8.788  11.154
32266W        W97493  11.175  25.725   2.402
32267W        W97494   8.389  29.443  12.591
32268W        W97495  24.962   0.726  14.707
32269W        W97496  37.228  25.159   1.083
32270W        W97497   8.699  17.863  12.857
32271W        W97498  38.534  24.964   1.862
32272W        W97499  30.814  26.639   1.247
32273W        W97500  25.977   4.625   0.143
32274W        W97501  13.161  11.467  14.455
32275W        W97502  29.248  16.924   2.718
32276W        W97503  44.419  30.895   0.531
32277W        W97504  36.348  13.341  13.431
32278W        W97505  25.424  14.798   1.955
32279W        W97506  22.703   5.911   1.745
32280W        W97507  35.964  27.423   0.310
32281W        W97508   4.253   7.122   3.604
32282W        W97509   9.167  39.703   4.539
32283W        W97510  11.190  18.777   1.682
32284W        W97511  39.869  33.473   1.806
32285W        W97512  12.078  15.812   3.567
32286W        W97513   7.875  18.836   4.055
32287W        W97514  16.548  39.954   0.848
32288W        W97515  42.956  25.542   4.250
32289W        W97516  32.673  24.697  13.932
32290W        W97517  33.133  23.210  12.022
32291W        W97518  12.585  15.365  14.820
32292W        W97519   8.487  23.565   0.373
32293W        W97520  16.097  16.550   2.886
32294W        W97521  24.506   6.946   2.782
32295W        W97522   8.404  31.222   4.261
32296W        W97523  17.680  44.253   0.915
32297W        W97524  22.666  31.474   4.377
32298W        W97525   8.701  39.618  13.966
32299W        W97526  36.168   0.842   0.323
32300W        W97527  35.607  36.582   1.797
32301W        W97528  29.404  25.704  12.891
32302W        W97529  24.040   7.670  10.692
32303W        W97530  24.699  25.467  10.565
32304W        W97531  42.489  26.147  13.314
32305W        W97532  43.036  38.814  11.532
32306W        W97533   3.230   1.918  13.898
32307W        W97534  27.203  26.088  14.378
32308W        W97535  31.822   7.916  12.211
32309W        W97536  23.218  28.613  14.911
32310W        W97537   7.593  27.090  14.483
32311W        W97538  23.183  35.138  11.023
32312W        W97539  37.579  21.041   4.982
32313W        W97540  21.005  16.633   1.540
32314W        W97541  19.561  20.808  12.787
32315W        W97542  31.460  27.217  13.884
32316W        W97543  12.260  10.606   4.093
32317W        W97544  15.733  43.846  12.029
32318W        W97545   0.146  11.685  11.579
32319W        W97546   2.040   9.708   3.888
32320W        W97547  33.884  34.851   1.722
32321W        W97548  15.380  38.537  10.291
32322W        W97549   8.911  29.997   1.777
32323W        W97550  10.086  41.815   0.488
32324W        W97551   6.840   6.132  13.937
32325W        W97552   0.680  44.620  10.940
32326W        W97553   6.367  40.963  14.757
32327W        W97554  41.874  28.965  10.732
32328W        W97555  36.132  15.531  12.458
32329W        W97556  21.063  11.099   3.139
32330W        W97557  40.467   1.623   0.915
32331W        W97558  43.468  30.527   4.479
32332W        W97559  15.371  26.652   4.189
32333W        W97560  10.490  31.898   4.640
32334W        W97561  42.592  27.710  14.872
32335W        W97562  42.284   7.324   2.379
32336W        W97563  14.720  22.712   2.875
32337W        W97564   5.885  32.493   3.419
32338W        W97565   4.889  19.748   3.035
32339W        W97566  23.581   4.251  10.366
32340W        W97567  42.336  14.188   3.190
32341W        W97568  42.515  12.138  12.949
32342W        W97569   5.947   3.483   1.304
32343W        W97570   2.629  41.005  14.390
32344W        W97571  16.338   0.263   3.201
32345W        W97572  16.302  13.665  14.007
32346W        W97573  14.731  41.029   1.062
32347W        W97574  14.501  31.559  13.006
32348W        W97575   6.232  34.068   1.975
32349W        W97576   2.909  12.633   2.551
32350W        W97577   8.009  40.863   3.010
32351W        W97578  25.113  26.990   0.530
32352W        W97579  11.363  42.500  10.841
32353W        W97580  36.373   6.711   3.697
32354W        W97581  10.153  19.071   1.419
32355W        W97582  22.969  12.360  14.503
32356W        W97583  25.519  37.137  12.008
32357W        W97584  23.820  14.569  11.517
32358W        W97585  34.867  41.856  11.550
32359W        W97586  20.043  24.061  12.410
32360W        W97587   7.212  29.552   3.377
32361W        W97588  20.101  28.277  11.531
32362W        W97589  25.515  37.524  10.109
32363W        W97590  38.085  38.584   1.594
32364W        W97591  39.481  31.982  12.508
32365W        W97592  26.536  27.615   4.166
32366W        W97593  28.627  10.180  14.442
32367W        W97594  36.503  18.303  11.672
32368W        W97595   5.163   6.194   0.402
32369W        W97596  21.711  38.808  14.946
32370W        W97597  12.900  31.963  11.676
32371W        W97598  31.017  34.604   1.231
32372W        W97599  44.784  39.363   4.178
32373W        W97600  16.273  13.610  13.051
32374W        W97601  26.063   2.756  14.358
32375W        W97602   4.414  23.413   4.530
32376W        W97603  12.037  22.326  11.075
32377W        W97604  13.068  43.421   1.303
32378W        W97605   2.507   1.405   3.644
32379W        W97606   3.840  25.761   2.920
32380W        W97607  26.485   7.130  12.975
32381W        W97608   5.140  14.820  12.026
32382W        W97609  24.954  18.958  12.974
32383W        W97610  26.660   9.880   4.657
32384W        W97611  27.455   1.101   3.187
32385W        W97612  39.650  20.234  11.325
32386W        W97613  20.598   4.856   0.915
32387W        W97614   6.643  18.050   1.327
32388W        W97615  25.322  19.477   1.226
32389W        W97616  19.298  31.980  13.597
32390W        W97617   2.924   2.125  12.128
32391W        W97618  31.913  12.601   1.959
32392W        W97619   7.612  38.787   4.651
32393W        W97620  24.970  21.487  11.566
32394W        W97621  14.791  27.516   0.822
32395W        W97622   4.179  44.456  10.830
32396W        W97623  13.774   5.670   2.793
32397W        W97624  43.279  35.543  13.018
32398W        W97625  41.263  20.491  14.419
32399W        W97626   2.962   3.256   3.204
32400W        W97627  12.634  14.870   3.719
32401W        W97628  40.127  11.752  12.066
32402W        W97629  31.402  11.026   4.650
32403W        W97630   5.485  10.808  10.699
32404W        W97631  13.969   1.734   3.189
32405W        W97632  29.593   7.791   4.584
32406W        W97633   9.162   4.863  14.019
32407W        W97634  37.946  17.160   4.559
32408W        W97635   4.893  43.062   3.649
32409W        W97636  23.691  37.484  11.415
32410W        W97637  25.629  28.537   1.403
32411W        W97638  32.955  18.205   1.787
32412W        W97639  41.249  40.103   2.748
32413W        W97640  33.637  20.828  13.435
32414W        W97641  22.993  42.588  12.504
32415W        W97642  34.315  44.919  12.056
32416W        W97643   9.514  42.412   0.949
32417W        W97644  40.893  35.430   3.840
32418W        W97645  43.407  44.671  14.215
32419W        W97646  38.417  44.933  13.406
32420W        W97647  12.762  43.746   3.194
32421W        W97648   7.590   2.822  14.566
32422W        W97649  14.873  36.857  12.462
32423W        W97650  37.433  40.929  12.380
32424W        W97651   0.188  11.483   1.221
32425W        W97652  37.309   6.625   2.707
32426W        W97653  35.496  10.713  13.990
32427W        W97654   8.456  13.647  12.516
32428W        W97655  31.068  26.112  11.816
32429W        W97656  36.957   5.938  14.850
32430W        W97657  19.570   4.514   4.593
32431W        W97658  19.580  16.319  11.533
32432W        W97659  44.778   2.180  10.672
32433W        W97660  25.583  23.205  14.031
32434W        W97661  32.265   6.413   4.928
32435W        W97662  33.002  25.918  12.966
32436W        W97663   4.375  13.749   9.976
32437W        W97664  41.254  34.277  14.467
32438W        W97665   7.673  38.883   0.450
32439W        W97666  16.911   6.400   3.322
32440W        W97667  24.782  14.224  14.335
32441W        W97668  25.917  44.304   4.528
32442W        W97669   1.240   6.375  12.407
32443W        W97670  35.128  30.950  11.445
32444W        W97671  24.600   0.034   4.712
32445W        W97672  11.863  14.110   4.521
32446W        W97673   7.104  24.179   4.443
32447W        W97674  13.235   6.494   4.682
32448W        W97675   2.832  23.046   1.933
32449W        W97676   9.786  32.542   0.505
32450W        W97677  14.656   5.082  13.348
32451W        W97678   5.392  41.869  13.520
32452W        W97679  21.554  20.491   3.137
32453W        W97680  29.570  36.463  12.044
32454W        W97681   6.406  29.419  13.435
32455W        W97682  31.059  13.645  14.639
32456W        W97683   1.746  20.555  13.389
32457W        W97684  21.411  12.633  10.531
32458W        W97685  19.255  25.481  14.371
32459W        W97686  36.187  20.178   1.506
32460W        W97687   8.766  41.049   0.504
32461W        W97688   8.191  44.175   2.111
32462W        W97689  19.716  44.338  12.927
32463W        W97690  32.301  29.565  13.932
32464W        W97691  19.115  13.712   0.070
32465W        W97692  27.079  16.926   4.881
32466W        W97693  37.107  16.221  13.060
32467W        W97694  17.570   0.132   3.714
32468W        W97695  33.670  26.872   2.634
32469W        W97696  36.366  33.486  10.746
32470W        W97697  24.219  33.720   0.782
32471W        W97698  38.454   8.480   2.146
32472W        W97699  14.547   4.777   4.587
32473W        W97700  11.850  10.420   2.958
32474W        W97701  39.504  15.086   4.274
32475W        W97702   9.213  22.294  12.949
32476W        W97703  16.285  37.106  13.018
32477W        W97704  24.083  42.093   1.782
32478W        W97705  15.123  16.141  14.291
32479W        W97706   5.435  37.302   3.704
32480W        W97707  39.484   2.620  12.460
32481W        W97708  37.146  38.603  13.337
32482W        W97709  39.384  23.555  14.657
32483W        W97710   7.743  35.932  14.497
32484W        W97711  31.902  39.138  14.859
32485W        W97712  36.033  35.643   4.381
32486W        W97713   3.015   2.436  13.552
32487W        W97714   7.685  19.269   5.381
32488W        W97715  39.796   1.945  14.355
32489W        W97716  42.058  23.491   0.367
32490W        W97717  10.436   2.499   3.255
32491W        W97718  21.163  11.211  14.893
32492W        W97719  37.105  36.321   3.279
32493W        W97720  33.045   1.896   1.286
32494W        W97721  21.296  16.189  11.427
32495W        W97722   5.313   8.151  13.025
32496W        W97723  18.293  38.991   4.807
32497W        W97724  37.290  41.685  10.786
32498W        W97725   8.098   4.887  14.754
32499W        W97726  22.465  13.605  14.863
32500W        W97727  29.927  17.564   4.078
32501W        W97728  11.129  31.493   0.697
32502W        W97729  22.264  42.183   2.877
32503W        W97730   8.652   3.818  12.181
32504W        W97731   6.375   8.407   3.757
32505W        W97732   9.098   7.701  11.992
32506W        W97733  19.143  14.591  14.912
32507W        W97734  12.001  38.354   4.176
32508W        W97735  40.033  29.530   0.666
32509W        W97736  14.694  24.005  10.921
32510W        W97737  40.435  26.024  12.123
32511W        W97738  41.328  12.575   0.355
32512W        W97739  44.501  31.885  14.811
32513W        W97740  20.982  41.305   2.363
32514W        W97741  36.025  23.440   0.839
32515W        W97742  27.692  31.654   4.172
32516W        W97743  40.833  15.090  11.177
32517W        W97744  26.525  35.623   0.841
32518W        W97745   6.231  18.727   0.797
32519W        W97746  30.331   3.322  12.207
32520W        W97747  28.515  23.959  10.554
32521W        W97748  10.413   2.864  12.972
32522W        W97749  36.490  42.897   4.570
32523W        W97750  39.321  18.782   1.664
32524W        W97751   0.221   4.833   0.957
32525W        W97752  20.621  12.330  14.853
32526W        W97753  21.298  18.641  10.645
32527W        W97754  14.006  32.912  13.155
32528W        W97755  20.911   4.798  13.779
32529W        W97756  40.728   3.359  13.770
32530W        W97757  20.004  30.610  14.991
32531W        W97758  37.749   2.712   4.630
32532W        W97759  23.903   6.642   3.666
32533W        W97760  31.565  21.301  12.989
32534W        W97761   4.431  16.661  14.936
32535W        W97762   7.802  18.764  11.723
32536W        W97763  38.577  11.574   3.709
32537W        W97764   5.771  38.919  13.928
32538W        W97765  23.618   7.318  13.078
32539W        W97766  37.039  21.163   3.155
32540W        W97767  17.590  29.699   1.260
32541W        W97768  26.323  23.756   0.544
32542W        W97769  32.582  22.605   3.699
32543W        W97770   3.465   5.980   4.239
32544W        W97771  28.079  35.289  11.019
32545W        W97772  32.457  29.885  11.688
32546W        W97773   4.982  13.596   1.809
32547W        W97774  12.801  32.460   1.169
32548W        W97775  29.870  28.946   3.131
32549W        W97776  12.982  23.901  14.954
32550W        W97777  11.312  23.626  11.633
32551W        W97778  23.242  21.989  14.566
32552W        W97779  11.359   1.523  14.413
32553W        W97780  15.195  27.617  10.641
32554W        W97781  37.627  12.384   1.378
32555W        W97782  27.157  27.829   1.763
32556W        W97783  41.300   4.559   1.960
32557W        W97784  35.690  17.627  10.718
32558W        W97785   3.247  24.744   1.209
32559W        W97786  19.667   0.670  12.116
32560W        W97787  30.112  19.751   3.592
32561W        W97788  38.552  42.782  13.923
32562W        W97789  40.054  12.157   3.825
32563W        W97790  20.707  38.968   4.423
32564W        W97791   2.913  20.501   1.680
32565W        W97792  37.369  11.432  10.620
32566W        W97793  15.775  22.623   0.369
32567W        W97794   1.811  21.272  13.844
32568W        W97795  32.156   9.909   2.564
32569W        W97796  31.845   4.386  11.602
32570W        W97797   2.806   0.041   4.177
32571W        W97798  14.369  34.419  14.998
32572W        W97799   9.727  37.832   1.230
32573W        W97800  27.876   6.171   4.292
32574W        W97801  39.371   2.653  14.952
32575W        W97802   6.908   7.975  12.537
32576W        W97803  43.231  12.884   1.402
32577W        W97804  15.324  13.380   4.480
32578W        W97805  28.197   4.832  14.216
32579W        W97806  20.546  22.148   2.393
32580W        W97807  25.346  14.475   4.182
32581W        W97808   0.167  21.156   3.101
32582W        W97809  11.074  12.146  12.973
32583W        W97810  27.122  13.302   2.213
32584W        W97811  42.235  27.910  12.113
32585W        W97812  41.757   5.202  12.457
32586W        W97813  34.949  30.147   0.266
32587W        W97814   3.968   4.881   4.525
32588W        W97815   3.760  39.265  10.429
32589W        W97816  11.756  40.845   3.183
32590W        W97817  19.578  32.583   4.605
32591W        W97818  28.984  30.872  13.178
32592W        W97819  11.745  33.489   1.392
32593W        W97820  42.649  10.691   0.804
32594W        W97821  40.584  18.756  14.290
32595W        W97822  43.558  34.885   0.433
32596W        W97823  30.757  17.855  10.015
32597W        W97824   3.420  40.402  13.184
32598W        W97825  19.513   8.843   2.708
32599W        W97826   2.961  15.259   1.266
32600W        W97827  26.215  19.105   3.638
32601W        W97828  22.813  34.879  12.510
32602W        W97829  26.972   2.907  14.473
32603W        W97830  27.399  14.177   3.280
32604W        W97831  25.658  25.957  14.717
32605W        W97832   2.985   6.994  13.415
32606W        W97833  20.321  20.030  12.101
32607W        W97834  42.762   2.222  13.460
32608W        W97835  35.410  44.975   2.435
32609W        W97836   0.174   9.195  14.376
32610W        W97837   7.695  42.249   2.308
32611W        W97838  19.112  10.643  12.025
32612W        W97839  43.584   5.847  14.763
32613W        W97840  27.912  30.921   1.385
32614W        W97841  27.024  25.039   0.467
32615W        W97842  15.001  33.442  10.908
32616W        W97843  11.161   8.730  10.922
32617W        W97844  14.331  44.958   4.070
32618W        W97845   9.133  16.531  13.911
32619W        W97846  32.057  17.232  12.295
32620W        W97847  17.012  20.640  12.639
32621W        W97848  24.247  15.046   0.570
32622W        W97849  29.715   6.349  12.410
32623W        W97850  15.530   4.848  14.122
32624W        W97851  20.002  23.746   3.831
32625W        W97852  22.193   5.335  10.754
32626W        W97853  18.142  11.607   2.703
32627W        W97854  44.273  36.244   2.265
32628W        W97855  39.791   2.450  12.945
32629W        W97856  37.698   8.443   3.531
32630W        W97857  11.550  14.737   2.771
32631W        W97858   7.686   7.706   3.350
32632W        W97859  11.313  18.975  13.678
32633W        W97860   8.186  33.957  13.047
32634W        W97861  40.976  33.894   4.873
32635W        W97862  25.924   9.247   1.629
32636W        W97863   2.235  14.405  13.778
32637W        W97864  10.849   1.453   3.694
32638W        W97865  20.543   5.756  12.716
32639W        W97866   3.294  23.593  12.463
32640W        W97867   6.188  14.829   2.278
32641W        W97868   5.237  31.160   4.180
32642W        W97869  33.190  34.395   0.762
32643W        W97870  43.314  11.643  12.579
32644W        W97871  37.750   8.412   2.689
32645W        W97872   4.292  10.578  14.953
32646W        W97873  38.444  22.192  13.448
32647W        W97874  32.252  43.337  13.946
32648W        W97875   6.740   1.886   2.863
32649W        W97876   3.405  22.513  13.288
32650W        W97877   7.652  35.564  11.941
32651W        W97878  36.849   6.899   3.573
32652W        W97879  32.583  32.194   0.928
32653W        W97880  23.764  20.443  10.682
32654W        W97881  30.478  35.060   1.790
32655W        W97882  42.789   0.998  14.011
32656W        W97883  23.212   7.044  10.791
32657W        W97884  12.855  17.640   1.955
32658W        W97885   8.617  35.546  14.852
32659W        W97886   5.885  30.055  12.506
32660W        W97887  30.124  22.688   1.097
32661W        W97888  26.483  38.154  14.368
32662W        W97889  31.980   8.152   2.685
32663W        W97890  27.688  35.688   3.845
32664W        W97891  44.434  14.754  11.578
32665W        W97892  33.075  28.464   2.303
32666W        W97893  40.469  10.631  14.891
32667W        W97894  26.502  18.282  14.018
32668W        W97895  36.547  27.764  12.074
32669W        W97896  36.924  33.431   4.129
32670W        W97897   1.197  15.178   0.870
32671W        W97898  22.210   0.197   0.241
32672W        W97899  27.104  40.468   3.319
32673W        W97900  31.611   4.210   0.958
32674W        W97901  15.631  44.041   2.379
32675W        W97902   4.686   0.054   3.700
32676W        W97903  11.222  33.190   2.646
32677W        W97904   2.259  23.802  13.050
32678W        W97905  27.275  31.421   1.245
32679W        W97906  29.990  15.430  12.360
32680W        W97907  22.240  34.312   3.234
32681W        W97908   5.343   6.433  10.805
32682W        W97909   5.757   5.466   0.298
32683W        W97910  37.923  23.192   4.573
32684W        W97911   1.756   9.141   0.772
32685W        W97912  12.357  14.089  13.903
32686W        W97913  39.880  13.200  10.684
32687W        W97914  37.023  10.779  12.081
32688W        W97915  17.564  30.562  13.280
32689W        W97916  37.607  24.270  14.772
32690W        W97917  21.758  21.008   1.978
32691W        W97918  27.952  33.990   0.778
32692W        W97919  37.177  26.127   1.741
32693W        W97920  35.354  35.887   5.480
32694W        W97921   8.772  12.950   2.768
32695W        W97922   6.245  18.578  12.795
32696W        W97923  11.173  11.813   3.244
32697W        W97924  44.829  24.083  13.462
32698W        W97925  39.287  19.593   0.923
32699W        W97926   8.202  30.631  11.878
32700W        W97927  43.869  20.984  12.397
32701W        W97928  11.706   5.584  12.473
32702W        W97929   7.218  44.088  12.161
32703W        W97930   0.395  21.225   2.619
32704W        W97931  31.654   8.854   0.964
32705W        W97932  10.250   7.887   3.214
32706W        W97933  39.955  44.495   0.934
32707W        W97934  44.452  38.481   0.275
32708W        W97935  30.909  42.360  11.133
32709W        W97936  15.982  35.949   4.054
32710W        W97937  21.167   8.352  10.716
32711W        W97938  28.055  41.611   4.345
32712W        W97939  31.565   4.363  14.247
32713W        W97940  11.586  16.684   1.838
32714W        W97941  18.279  23.915  12.553
32715W        W97942  21.741  10.184   0.793
32716W        W97943  22.136  23.414  12.378
32717W        W97944   1.452  17.072   4.580
32718W        W97945  21.147  28.213  13.262
32719W        W97946   4.309  38.553   4.140
32720W        W97947  15.595  26.487  12.038
32721W        W97948  29.999  37.808  13.994
32722W        W97949  37.312   0.146   1.126
32723W        W97950   1.906  39.739   1.367
32724W        W97951   8.367  33.889  10.613
32725W        W97952  28.548  32.166   4.380
32726W        W97953  36.649   3.896  13.127
32727W        W97954  37.828  40.329  14.237
32728W        W97955   4.633  26.905  11.111
32729W        W97956  11.303   1.351  12.219
32730W        W97957  27.061  10.580   3.369
32731W        W97958  31.372  30.347  10.740
32732W        W97959  16.804   4.788  14.030
32733W        W97960  19.568  42.356  12.491
32734W        W97961  30.119  26.561   0.302
32735W        W97962  11.628  34.511   1.297
32736W        W97963  23.044  38.574  14.079
32737W        W97964  23.965  13.308  12.000
32738W        W97965  40.240  17.175  12.397
32739W        W97966  39.913  13.615  11.491
32740W        W97967  29.841   6.221   0.188
32741W        W97968  21.016  14.922   1.029
32742W        W97969  28.690  44.844   0.401
32743W        W97970   8.120  27.448   2.018
32744W        W97971  36.346  32.537  12.547
32745W        W97972  25.616  13.710   1.839
32746W        W97973   8.711  12.108   3.764
32747W        W97974  22.962   6.835  12.002
32748W        W97975   5.216  34.071  11.650
32749W        W97976   0.641  38.479   3.360
32750W        W97977  41.156   3.158   3.859
32751W        W97978  17.032   3.908   0.879
32752W        W97979  30.841  10.457  11.585
32753W        W97980  30.647  32.857   2.298
32754W        W97981   1.617  18.492  13.410
32755W        W97982  35.716  41.701  13.037
32756W        W97983  15.593   6.773   4.051
32757W        W97984  37.412  18.026  11.994
32758W        W97985  37.470  22.087  11.583
32759W        W97986  31.492  18.735   2.723
32760W        W97987  22.944  20.035  13.867
32761W        W97988  42.864  44.510  14.070
32762W        W97989   3.860  23.082   4.595
32763W        W97990  28.968  44.389  10.613
32764W        W97991  24.635  24.003   1.759
32765W        W97992  18.764  12.769  14.896
32766W        W97993  21.074  14.226   4.764
32767W        W97994  10.121  42.539  13.211
32768W        W97995  11.294  40.246   1.384
32769W        W97996  10.762  12.138  12.029
32770W        W97997  24.104   7.246  12.885
32771W        W97998  37.409   2.977   3.671
32772W        W97999  41.558  10.522   2.784
32773W        W98000  42.898  37.777   4.057
32774W        W98001  27.268  13.255   4.144
32775W        W98002  42.312   8.575   2.224
32776W        W98003  35.873  14.717   1.359
32777W        W98004  18.059  10.808   0.528
32778W        W98005  44.298  19.892   4.134
32779W        W98006  18.308  24.137   0.055
32780W        W98007  18.778   1.784   4.365
32781W        W98008  20.706  40.551   0.404
32782W        W98009  29.085  18.523  14.948
32783W        W98010  15.814  22.768  14.189
32784W        W98011  18.503  14.770   4.196
32785W        W98012   1.564  11.128  14.809
32786W        W98013  24.978  21.434  10.686
32787W        W98014   1.365   2.201   1.239
32788W        W98015   6.374  33.960   3.346
32789W        W98016  20.019  12.797  14.015
32790W        W98017  41.349  33.806   3.229
32791W        W98018  20.619  25.647   4.181
32792W        W98019  42.632  27.033  11.904
32793W        W98020   4.424  43.811  14.425
32794W        W98021  40.297  15.740  12.500
32795W        W98022   4.175   1.334  11.559
32796W        W98023  16.817  29.650   4.252
32797W        W98024  17.281   7.055  11.059
32798W        W98025  22.018  41.031   4.099
32799W        W98026  42.235  30.812   4.347
32800W        W98027  37.083  13.603   3.362
32801W        W98028  20.322   7.695  13.661
32802W        W98029  19.709  30.886  14.107
32803W        W98030   4.018  32.049   0.707
32804W        W98031  25.963  39.005   0.860
32805W        W98032  10.723  22.258  14.852
32806W        W98033  41.262  24.316   3.169
32807W        W98034  10.187   6.946   1.900
32808W        W98035   3.198  43.679  12.105
32809W        W98036  35.846  10.682  12.552
32810W        W98037  15.072  32.407   2.773
32811W        W98038   9.228  24.408   2.063
32812W        W98039  40.036  11.577   1.942
32813W        W98040  28.681  16.715  13.930
32814W        W98041  18.064  42.397   2.758
32815W        W98042  27.662  15.202   1.917
32816W        W98043  37.218  30.909   0.002
32817W        W98044  33.076   0.250   2.721
32818W        W98045  10.017  12.099   1.879
32819W        W98046  42.493  17.718  13.783
32820W        W98047  11.306  15.017   0.233
32821W        W98048  30.513  20.685   1.043
32822W        W98049   0.447  35.714  11.963
32823W        W98050  37.980  43.481   1.520
32824W        W98051  16.646  21.479   2.411
32825W        W98052  22.597  28.452   0.230
32826W        W98053  22.508  20.046   3.111
32827W        W98054  11.365  18.388  10.283
32828W        W98055  19.598  38.270   0.876
32829W        W98056  33.328  10.139  11.164
32830W        W98057  35.305  15.043   4.453
32831W        W98058  23.311  16.703  13.880
32832W        W98059  21.493   7.653  11.293
32833W        W98060  40.587  20.682  13.660
32834W        W98061  43.168  28.623  14.030
32835W        W98062  20.769  40.385   4.608
32836W        W98063   5.558  16.104  12.432
32837W        W98064  21.545   1.722   4.570
32838W        W98065  18.022  44.647   1.463
32839W        W98066  13.652   7.709   2.658
32840W        W98067  36.485  10.363   1.068
32841W        W98068   9.387  40.827  13.053
32842W        W98069  21.166  11.609   4.242
32843W        W98070  21.136  23.647   1.507
32844W        W98071  39.088  30.036  14.090
32845W        W98072  39.151  28.296  14.376
32846W        W98073  14.332  21.521   0.230
32847W        W98074  30.682  29.008  11.056
32848W        W98075  21.513  20.571  10.718
32849W        W98076  43.808  37.499   4.216
32850W        W98077  21.045  32.988  14.707
32851W        W98078  17.236  35.760  11.105
32852W        W98079  37.125  44.000   0.904
32853W        W98080  24.135  26.646   4.697
32854W        W98081  36.490  21.700  12.441
32855W        W98082  21.044  22.142   2.050
32856W        W98083  33.895  24.547  11.573
32857W        W98084   0.269  36.881  10.736
32858W        W98085  24.013  22.503   2.353
32859W        W98086   8.256  26.242   0.683
32860W        W98087   3.390  36.612  10.669
32861W        W98088  22.765  11.049   2.855
32862W        W98089  19.072  32.476   3.305
32863W        W98090  29.688  44.832   3.951
32864W        W98091  42.545  39.403   3.387
32865W        W98092   4.015  31.172  12.049
32866W        W98093   4.355  15.310  12.002
32867W        W98094  10.638  27.403   1.419
32868W        W98095  29.541  22.424  11.092
32869W        W98096  43.234   2.842  13.056
32870W        W98097  14.831   7.742   4.798
32871W        W98098   1.925  20.384   4.086
32872W        W98099  29.508   1.506  10.043
32873W        W98100  22.552  26.958   1.854
32874W        W98101   1.492  38.525  14.513
32875W        W98102  15.347  26.507  13.569
32876W        W98103  15.284  39.633  13.607
32877W        W98104   0.450  41.307   4.515
32878W        W98105  28.394  37.336   5.054
32879W        W98106  30.373  34.346  11.241
32880W        W98107  43.703   4.852   5.076
32881W        W98108   2.923  36.033   3.408
32882W        W98109  44.564  41.391  12.560
32883W        W98110   9.756  30.392  11.654
32884W        W98111  26.920  29.823  11.419
32885W        W98112  26.147  15.672  12.700
32886W        W98113   5.902  19.685  11.251
32887W        W98114  29.244  42.022   2.260
32888W        W98115  16.973  20.741   1.829
32889W        W98116  24.507  10.641   2.449
32890W        W98117  37.637  21.979  13.064
32891W        W98118  20.140   2.932  10.063
32892W        W98119  14.091  24.619  11.639
32893W        W98120  36.257   7.870  11.564
32894W        W98121  41.747  13.986  11.147
32895W        W98122   6.273  25.272   2.202
32896W        W98123  22.843  42.419  13.808
32897W        W98124  14.234  18.195   0.700
32898W        W98125  30.674  28.440  14.008
32899W        W98126  22.724  22.509   0.441
32900W        W98127  39.760  34.781   2.251
32901W        W98128  30.575  40.689  14.869
32902W        W98129   3.638   4.239   2.851
32903W        W98130   7.408  31.215  11.673
32904W        W98131   3.369   8.372   4.724
32905W        W98132  38.584  33.036  13.749
32906W        W98133  39.257  22.523  14.331
32907W        W98134   8.402  16.065   3.339
32908W        W98135  12.660  35.289  11.159
32909W        W98136   0.195  43.475   5.079
32910W        W98137  10.416  14.634  14.414
32911W        W98138  28.130  30.984   2.859
32912W        W98139  23.529  28.158   2.065
32913W        W98140   8.390   7.241  13.067
32914W        W98141  18.231  12.619   0.012
32915W        W98142  15.833  38.503  12.127
32916W        W98143  14.508  38.581  12.407
32917W        W98144  21.770  33.341  14.988
32918W        W98145  42.867  38.480  12.590
32919W        W98146  24.231  22.571  12.431
32920W        W98147   4.701  30.174   0.095
32921W        W98148   6.102   3.404   3.856
32922W        W98149  11.788  42.727   0.929
32923W        W98150  17.289  42.252   4.010
32924W        W98151  32.380  15.582   0.360
32925W        W98152   8.763  42.503   0.342
32926W        W98153  39.455   1.338  12.990
32927W        W98154  18.631  30.529   2.624
32928W        W98155  23.514  29.664  13.790
32929W        W98156  38.993  44.099  10.736
32930W        W98157  40.979  42.169  13.967
32931W        W98158  17.076  11.583   3.111
32932W        W98159  26.715  43.125   0.226
32933W        W98160  34.764  14.257   4.242
32934W        W98161  36.368  33.404  13.664
32935W        W98162  42.146   0.875  12.920
32936W        W98163   2.840  24.584  13.532
32937W        W98164   4.396  38.818   4.600
32938W        W98165   2.612  30.086  11.883
32939W        W98166   7.233  34.697  11.173
32940W        W98167   8.805  14.003  14.258
32941W        W98168  12.178  30.940   9.907
32942W        W98169  13.933  19.617  12.065
32943W        W98170  36.094  10.020   0.921
32944W        W98171   5.659  43.437  14.546
32945W        W98172  43.330   7.775  13.849
32946W        W98173  12.522  29.623   0.326
32947W        W98174   7.752  21.707  12.800
32948W        W98175  15.238  30.680  14.781
32949W        W98176  25.554  42.910   2.091
32950W        W98177   2.161  16.088   2.066
32951W        W98178   8.289  20.768   4.378
32952W        W98179  19.335  38.598  14.433
32953W        W98180  32.313  11.802   0.547
32954W        W98181  15.680   9.802   4.657
32955W        W98182  23.003  27.483   1.149
32956W        W98183   0.709  13.267  14.166
32957W        W98184   3.633  44.018  13.899
32958W        W98185  29.239  24.210  13.125
32959W        W98186  27.540  35.085  14.857
32960W        W98187  42.380   1.181   1.190
32961W        W98188  41.546  42.929  14.885
32962W        W98189   5.699   4.258   3.518
32963W        W98190  36.972  42.313  14.869
32964W        W98191  32.803   8.122   1.638
32965W        W98192  13.236  13.862   4.998
32966W        W98193  29.725  24.977  11.590
32967W        W98194   8.407  41.900   1.824
32968W        W98195  35.814  36.353   0.108
32969W        W98196   4.598   3.650   2.323
32970W        W98197  17.636  40.628   3.760
32971W        W98198  32.914  28.145   0.592
32972W        W98199  15.055  24.167   0.779
32973W        W98200  36.276   4.332  13.081
32974W        W98201  27.484  38.551   3.288
32975W        W98202  43.347   1.498  11.985
32976W        W98203  14.679   0.499   0.843
32977W        W98204   2.296  39.295  14.979
32978W        W98205  41.514  38.970   3.355
32979W        W98206  42.504  30.936   1.780
32980W        W98207  20.883  31.651  14.200
32981W        W98208   3.341  39.892  13.051
32982W        W98209  14.551  11.857   0.816
32983W        W98210  34.070   8.949   1.880
32984W        W98211  43.312  25.042  11.624
32985W        W98212   8.700  14.796  11.997
32986W        W98213  39.961  30.314   1.569
32987W        W98214   7.939  22.717  12.933
32988W        W98215  34.909  27.473  14.351
32989W        W98216  30.112  13.737   1.838
32990W        W98217  16.390  24.874  13.937
32991W        W98218  40.283  22.988  10.722
32992W        W98219  26.951   3.943  11.621
32993W        W98220  27.076   2.811   2.314
32994W        W98221   3.273  10.625   2.198
32995W        W98222  20.072  41.807  11.214
32996W        W98223  20.212  18.184   4.035
32997W        W98224   9.226  42.929  14.520
32998W        W98225  14.206  37.429  14.594
32999W        W98226  20.076  24.424  10.434
33000W        W98227  26.367  10.035  10.891
33001W        W98228  20.750  38.003   3.833
33002W        W98229  43.616  34.002   0.205
33003W        W98230   6.288  31.077  11.245
33004W        W98231  10.618  29.048  12.651
33005W        W98232   1.764  14.141   0.993
33006W        W98233   9.707  31.910  13.609
33007W        W98234  32.632  39.958   3.052
33008W        W98235  11.558  42.251  11.281
33009W        W98236  14.231  13.799  10.752
33010W        W98237  20.962  25.539  10.529
33011W        W98238  38.494  32.012   4.485
33012W        W98239  21.551  10.797  13.007
33013W        W98240  20.278   3.066   3.813
33014W        W98241  41.809  29.958  13.528
33015W        W98242   3.416  33.318  10.859
33016W        W98243  39.434  28.674  13.981
33017W        W98244  40.710  26.036  11.658
33018W        W98245  19.552  29.700  13.593
33019W        W98246  26.028  16.766  13.526
33020W        W98247  13.518  25.705   4.897
33021W        W98248   8.760  40.897   1.437
33022W        W98249  15.447   8.746  14.929
33023W        W98250  22.262  32.977   3.177
33024W        W98251  33.080  20.553   3.397
33025W        W98252  25.622   9.325   3.430
33026W        W98253  27.681  23.923   4.709
33027W        W98254  24.506  28.206  13.464
33028W        W98255  31.975  44.255  14.428
33029W        W98256   4.849  27.622   1.710
33030W        W98257  44.300  33.843   3.787
33031W        W98258  37.703  18.507  13.925
33032W        W98259  37.426  27.285  14.714
33033W        W98260   2.472   7.438   0.973
33034W        W98261  40.813  27.479  13.644
33035W        W98262  24.021   6.852  10.084
33036W        W98263  17.542  35.922   1.264
33037W        W98264  24.311  40.596  11.220
33038W        W98265  38.860   7.883   1.322
33039W        W98266  17.384  24.050   3.321
33040W        W98267   6.268  38.960   5.043
33041W        W98268  30.469   0.324  14.616
33042W        W98269  31.667  21.025  11.172
33043W        W98270  20.989  42.362  10.669
33044W        W98271  27.704  17.085  11.527
33045W        W98272   5.637  26.726  11.137
33046W        W98273   0.449   9.303   3.684
33047W        W98274  12.602   1.488   3.115
33048W        W98275   2.619  40.274   0.324
33049W        W98276   5.433  24.637   1.475
33050W        W98277  13.897   8.701   2.242
33051W        W98278   8.680   2.498   3.376
33052W        W98279  40.812   8.421   0.103
33053W        W98280  39.877  14.332  13.597
33054W        W98281  38.541  15.225  13.620
33055W        W98282  11.215  10.746  14.438
33056W        W98283  14.473  35.529   0.254
33057W        W98284   3.677  41.294   2.275
33058W        W98285  27.317  20.079  11.567
33059W        W98286  30.144   5.446  11.260
33060W        W98287  44.354  17.695  12.647
33061W        W98288  22.654  41.048  13.548
33062W        W98289  24.540  17.184   3.288
33063W        W98290  22.636  13.259   0.893
33064W        W98291  22.444  32.698   1.134
33065W        W98292   6.797   3.431  11.386
33066W        W98293  33.371   4.756   5.010
33067W        W98294  28.015  29.208  12.642
33068W        W98295   2.158  44.531  12.930
33069W        W98296  17.461  23.175  10.853
33070W        W98297   0.295   4.818  13.507
33071W        W98298  15.459   5.518   3.890
33072W        W98299  40.742  14.165   1.257
33073W        W98300  25.027  14.720   0.253
33074W        W98301   4.320  44.982  11.605
33075W        W98302  25.226  21.207   0.970
33076W        W98303  18.888   1.471   0.434
33077W        W98304  28.205  38.897   0.353
33078W        W98305  17.185  29.864   3.249
33079W        W98306  15.656  30.386   1.038
33080W        W98307  25.639   8.356   2.257
33081W        W98308  32.603  23.572   0.839
33082W        W98309   8.154  24.159   3.624
33083W        W98310   6.135   4.492   3.332
33084W        W98311  17.773  39.398  10.031
33085W        W98312   1.164  30.171  11.004
33086W        W98313  15.683   3.812   0.501
33087W        W98314  32.401  33.150  13.337
33088W        W98315  31.402   3.309  14.970
33089W        W98316  26.270  27.131   3.138
33090W        W98317  37.399  10.976   2.775
33091W        W98318  25.503   6.273   4.842
33092W        W98319  31.455   4.163  13.797
33093W        W98320   2.463  16.672  12.688
33094W        W98321  23.465   3.193   2.112
33095W        W98322  13.598   4.040  14.938
33096W        W98323  26.121  41.552  13.494
33097W        W98324  18.908  22.745  13.196
33098W        W98325   7.701  21.226  13.014
33099W        W98326  23.942  27.683  10.742
33100W        W98327  35.851  39.318   0.686
33101W        W98328  13.876  20.571  12.942
33102W        W98329  27.562  38.472  10.601
33103W        W98330  23.052  20.141   0.610
33104W        W98331  30.101  32.428  14.866
33105W        W98332  24.291   5.436  12.760
33106W        W98333   6.880  32.542   4.732
33107W        W98334  24.958  25.247   1.643
33108W        W98335  21.990  22.299   3.740
33109W        W98336  30.119  25.485   1.828
33110W        W98337   1.500  32.168   0.286
33111W        W98338  18.809  21.114   1.710
33112W        W98339  36.503  23.217   4.823
33113W        W98340  11.429  19.079  14.504
33114W        W98341   0.417  41.054   4.047
33115W        W98342  16.566  19.084  12.613
33116W        W98343  25.473  13.949   1.066
33117W        W98344  29.989   8.932  12.045
33118W        W98345  27.746  33.077   3.121
33119W        W98346  20.105  41.432   4.155
33120W        W98347  28.915  40.518   0.511
33121W        W98348  30.907   1.508   4.170
33122W        W98349   8.949  12.818  10.985
33123W        W98350  26.957   0.475   3.578
33124W        W98351  38.790  20.799   3.669
33125W        W98352  11.556  19.616   3.355
33126W        W98353  39.930   8.945   1.121
33127W        W98354  21.252  14.705   4.037
33128W        W98355   9.663   8.300   3.914
33129W        W98356   9.784  37.166   1.947
33130W        W98357  11.889  11.745   1.664
33131W        W98358  26.336  43.923  14.867
33132W        W98359  20.379  12.241   0.330
33133W        W98360  37.909  15.636   4.646
33134W        W98361  37.421  15.092  11.537
33135W        W98362  36.070  36.908   3.076
33136W        W98363  28.555  43.274   1.926
33137W        W98364  20.660  40.030   0.438
33138W        W98365  27.015  41.313   0.313
33139W        W98366  38.289  23.794   4.708
33140W        W98367  22.715  29.405  13.066
33141W        W98368  39.108  14.597  10.989
33142W        W98369   8.791   3.061   4.948
33143W        W98370  23.454  27.251   3.196
33144W        W98371  19.529  43.281   0.764
33145W        W98372  37.927  23.285   1.973
33146W        W98373  26.531  32.823  13.733
33147W        W98374  30.100  38.506  14.375
33148W        W98375  19.161  20.254  13.754
33149W        W98376  14.846   5.741  14.823
33150W        W98377  33.624  20.712   2.231
33151W        W98378  20.208  42.902   0.403
33152W        W98379  35.373  40.520  10.709
33153W        W98380   9.132   2.241   3.223
33154W        W98381  11.762  20.083   0.110
33155W        W98382  28.098  32.364  11.964
33156W        W98383  30.078  33.152  11.580
33157W        W98384  11.741  22.668   2.111
33158W        W98385  43.926   0.791  12.399
33159W        W98386  22.072  24.020  14.498
33160W        W98387   1.370  20.078   1.355
33161W        W98388  22.508  31.899   1.707
33162W        W98389  30.938   7.620  13.434
33163W        W98390  32.551   4.250   0.948
33164W        W98391  33.991   6.277   4.323
33165W        W98392  24.629  21.476  11.104
33166W        W98393  34.612  31.976   0.900
33167W        W98394   8.622  11.578  13.533
33168W        W98395  43.890   6.815   4.320
33169W        W98396   7.160  15.565   1.033
33170W        W98397  25.268  23.447  11.557
33171W        W98398  26.569   1.943  14.296
33172W        W98399   3.389  25.290  14.441
33173W        W98400   5.158   3.858   1.219
33174W        W98401  13.234   5.878   0.626
33175W        W98402   5.418  20.122   2.498
33176W        W98403  14.883  38.207  14.907
33177W        W98404  38.036  25.131   5.193
33178W        W98405   2.066  41.765  10.136
33179W        W98406  16.719  37.466  12.868
33180W        W98407   6.394  41.026   0.471
33181W        W98408   4.229  14.546  12.067
33182W        W98409  39.501  22.621   2.018
33183W        W98410  42.348  11.662  14.189
33184W        W98411  16.642  31.200   4.565
33185W        W98412  14.399  38.903  11.216
33186W        W98413  43.640  18.687   0.387
33187W        W98414  10.233  43.987  12.882
33188W        W98415  11.732  37.886   3.855
33189W        W98416  24.798   9.716   2.289
33190W        W98417  27.131   6.231  11.437
33191W        W98418  39.374   6.637   3.548
33192W        W98419  42.865  30.372  14.758
33193W        W98420  37.983  43.523   4.082
33194W        W98421   7.717  42.522  13.224
33195W        W98422  41.584   3.135   0.759
33196W        W98423  35.524  34.375   3.454
33197W        W98424  34.490  15.620  11.670
33198W        W98425  31.195  14.672   3.217
33199W        W98426  44.555  30.058   0.573
33200W        W98427   6.899   3.864   4.210
33201W        W98428   9.302  25.695   3.160
33202W        W98429  44.208  20.130   2.035
33203W        W98430  38.576  39.588  11.761
33204W        W98431   3.007   3.405  13.891
33205W        W98432  23.542  14.368  14.985
33206W        W98433  29.133   2.997  11.187
33207W        W98434  30.655  25.975   2.349
33208W        W98435  29.151  15.895  14.245
33209W        W98436   6.674  14.103  12.530
33210W        W98437  13.646   0.671   1.238
33211W        W98438  20.346  19.789  14.459
33212W        W98439  10.795  35.571   0.835
33213W        W98440   0.069  24.032   1.228
33214W        W98441   5.809   1.875   0.462
33215W        W98442   6.324  33.946  11.969
33216W        W98443   0.897  22.392   0.384
33217W        W98444  15.541  15.236   1.697
33218W        W98445  13.072   9.164   4.480
33219W        W98446   1.096  25.047  11.587
33220W        W98447  17.499   6.883   1.857
33221W        W98448  31.657  37.554  12.966
33222W        W98449  34.016  36.389  14.753
33223W        W98450   9.099  32.443  10.902
33224W        W98451  42.251  44.344  12.566
33225W        W98452  25.698  16.634   4.098
33226W        W98453  16.687  12.453  10.401
33227W        W98454   3.372  44.306  10.169
33228W        W98455  26.541   1.031  11.884
33229W        W98456  15.097  33.303   0.402
33230W        W98457  36.317   2.542   1.705
33231W        W98458   9.818  34.599   0.491
33232W        W98459   7.859  13.811   2.984
33233W        W98460  21.437   1.870  10.691
33234W        W98461   7.431  31.824   0.107
33235W        W98462  14.620  33.976  11.365
33236W        W98463  14.660  38.170   4.137
33237W        W98464   8.148   6.056   2.836
33238W        W98465  10.280  10.802   0.258
33239W        W98466  11.821  44.416   1.501
33240W        W98467  19.748  13.294  10.817
33241W        W98468  11.609  21.280   0.031
33242W        W98469   7.452  27.439  13.542
33243W        W98470   0.617   0.424  13.859
33244W        W98471  40.562   9.842  14.495
33245W        W98472   8.602  35.344   4.683
33246W        W98473  32.762  43.695  14.020
33247W        W98474  42.178  32.614   3.154
33248W        W98475  17.175  30.941  10.547
33249W        W98476   6.943   4.248  13.558
33250W        W98477  29.129  15.231   1.946
33251W        W98478   0.286  13.257  14.571
33252W        W98479   6.090  22.999  14.474
33253W        W98480  30.326  37.580   2.735
33254W        W98481  22.711  17.172   1.542
33255W        W98482  12.342  43.349   4.235
33256W        W98483  37.438  22.986   1.854
33257W        W98484  19.365  26.530  11.171
33258W        W98485  31.710   0.327   0.410
33259W        W98486   2.943  22.314   0.018
33260W        W98487  30.765  26.940  12.061
33261W        W98488  32.675  31.845   3.142
33262W        W98489  39.957   5.438   3.676
33263W        W98490  40.533  38.427   1.462
33264W        W98491  33.994   9.310   2.274
33265W        W98492  12.696  42.901   2.267
33266W        W98493   0.338  43.724   5.517
33267W        W98494  41.907  33.173   0.107
33268W        W98495  28.707  17.084  11.595
33269W        W98496   7.364  42.144  12.833
33270W        W98497  16.711   7.942  14.446
33271W        W98498  37.563  25.842   1.509
33272W        W98499  30.399  25.525   2.253
33273W        W98500  39.525  12.763  12.467
33274W        W98501  23.420  25.453   4.529
33275W        W98502  10.274  34.672  11.390
33276W        W98503  39.609   4.351  12.070
33277W        W98504  11.916  42.825  10.996
33278W        W98505  33.470   0.888   4.476
33279W        W98506  24.853  24.604   0.896
33280W        W98507  32.637  31.646   0.847
33281W        W98508  17.355   3.713   1.699
33282W        W98509  22.881  44.834  12.375
33283W        W98510  30.967  43.687   2.803
33284W        W98511  38.260   4.805   4.207
33285W        W98512  14.901  30.080  12.588
33286W        W98513  43.748  28.507   9.758
33287W        W98514  43.932   9.550  11.340
33288W        W98515  24.359  37.820  10.700
33289W        W98516  15.608  27.944  10.714
33290W        W98517  38.856  21.391  12.980
33291W        W98518  30.138  19.645   4.515
33292W        W98519  31.167  24.101   4.710
33293W        W98520   5.157  38.444  13.537
33294W        W98521  35.773  24.639   1.812
33295W        W98522  15.058  23.728  14.972
33296W        W98523  30.053  28.515   0.824
33297W        W98524  35.850  27.869   3.426
33298W        W98525  43.799   3.673  13.040
33299W        W98526  29.899   5.230   2.141
33300W        W98527  33.328  33.814   0.007
33301W        W98528  14.603   3.381   4.357
33302W        W98529   9.706  25.477  11.564
33303W        W98530  29.785  14.884   4.080
33304W        W98531  34.926   4.731   4.443
33305W        W98532  26.669  38.500  12.243
33306W        W98533  44.222  17.596  14.976
33307W        W98534   7.288  44.892   1.941
33308W        W98535  23.838  23.563  14.323
33309W        W98536  23.964  39.410  10.759
33310W        W98537   0.814  11.497   0.285
33311W        W98538  24.573   5.267   0.327
33312W        W98539  40.255  35.032   1.439
33313W        W98540  16.859  43.363  10.185
33314W        W98541  15.090  39.879   2.232
33315W        W98542  25.176  28.904  13.369
33316W        W98543  15.735  30.954   2.491
33317W        W98544  11.354  30.933  10.571
33318W        W98545  39.484  13.964  13.495
33319W        W98546   1.757  33.827  11.197
33320W        W98547  37.638   6.894   2.397
33321W        W98548  24.519  10.328  14.559
33322W        W98549  12.253   1.869   3.217
33323W        W98550   4.693  27.225  14.012
33324W        W98551  39.018  32.069   3.092
33325W        W98552  29.958   1.143  11.711
33326W        W98553  19.953   1.027  13.033
33327W        W98554   6.424  34.677  10.757
33328W        W98555  36.938  17.736  13.696
33329W        W98556  22.164  22.866  12.375
33330W        W98557  32.472  34.841  13.124
33331W        W98558   3.449  29.056   2.504
33332W        W98559  35.160  28.432  12.853
33333W        W98560  18.005  14.078   3.666
33334W        W98561   2.478  26.411  12.438
33335W        W98562  22.755  30.815  13.936
33336W        W98563  19.287  34.491   0.026
33337W        W98564  30.840  20.639   3.322
33338W        W98565  12.117  16.118  10.596
33339W        W98566  36.815  39.256  11.488
33340W        W98567  36.574   6.574   4.141
33341W        W98568   6.824   6.358   4.620
33342W        W98569  18.602  34.992   4.525
33343W        W98570  29.409  44.918   2.438
33344W        W98571  38.878   0.909  11.232
33345W        W98572  12.961   9.316  10.766
33346W        W98573  33.130  15.250  10.860
33347W        W98574  35.835  10.178   3.118
33348W        W98575  13.141  28.961   5.125
33349W        W98576  18.830   5.400  14.089
33350W        W98577  25.967  13.825  14.893
33351W        W98578   5.703  30.949  10.589
33352W        W98579  31.374   0.918  14.065
33353W        W98580  25.721  40.251   2.421
33354W        W98581  20.608  18.531  13.922
33355W        W98582  22.036   9.346   3.187
33356W        W98583  43.349  21.721   3.167
33357W        W98584   2.094   8.057  13.306
33358W        W98585  21.540  43.867   1.375
33359W        W98586  15.719   2.399  11.832
33360W        W98587  26.467  22.096   1.328
33361W        W98588  41.355   9.721   3.219
33362W        W98589  39.267   1.955   3.845
33363W        W98590  30.451   6.803   3.789
33364W        W98591  11.812  40.293   2.132
33365W        W98592  34.153  39.331   2.188
33366W        W98593  38.015  35.842  12.822
33367W        W98594   0.539  40.529  12.663
33368W        W98595   7.787  19.159   2.188
33369W        W98596  19.670  42.523   1.295
33370W        W98597  35.194  43.921  14.598
33371W        W98598  44.996  39.756   0.319
33372W        W98599  36.062   9.953   4.928
33373W        W98600  17.033  21.476  12.070
33374W        W98601  27.755  13.181  14.274
33375W        W98602   8.858  10.195   2.221
33376W        W98603  21.787  41.465  13.611
33377W        W98604  37.086  42.642   0.735
33378W        W98605   9.783  13.088   0.078
33379W        W98606  15.291   7.183  10.572
33380W        W98607  20.636  22.502  12.911
33381W        W98608  33.621  20.004   4.603
33382W        W98609  16.206  37.339   3.231
33383W        W98610  16.922  22.729   1.646
33384W        W98611  27.157  23.437   1.350
33385W        W98612  36.407   2.470   2.256
33386W        W98613  39.895  25.561   3.638
33387W        W98614   4.350  10.225   2.739
33388W        W98615  26.248   1.794  12.142
33389W        W98616   3.416  22.757   0.796
33390W        W98617  12.820  19.435   2.884
33391W        W98618  20.682  37.790  11.202
33392W        W98619  39.832  27.686  14.708
33393W        W98620  13.259  37.483  13.879
33394W        W98621  13.535  19.332  10.685
33395W        W98622  21.780  32.184   0.875
33396W        W98623  15.880  39.369  14.863
33397W        W98624  21.175   4.147   4.012
33398W        W98625   3.334  24.437  11.613
33399W        W98626  19.461  21.687   2.472
33400W        W98627   8.445  28.349  11.566
33401W        W98628  23.624  43.707   2.225
33402W        W98629  31.096   5.875   2.332
33403W        W98630   1.881  31.919   0.029
33404W        W98631  29.470   2.241  14.360
33405W        W98632   9.966  18.212  12.992
33406W        W98633  24.684  17.899  12.038
33407W        W98634  13.310  25.323   1.510
33408W        W98635   6.853  43.252   1.827
33409W        W98636  20.379  22.730   4.392
33410W        W98637  21.150  42.899   1.839
33411W        W98638  37.027  14.635   3.268
33412W        W98639   1.832  13.125   3.840
33413W        W98640  14.225  34.358   4.469
33414W        W98641  41.942  21.138  10.584
33415W        W98642  23.131  11.170  10.813
33416W        W98643   7.198  31.684   3.740
33417W        W98644  26.683  27.647   2.338
33418W        W98645  20.181   9.101  14.389
33419W        W98646  13.260   7.125   1.721
33420W        W98647  43.173  17.179   2.581
33421W        W98648  15.871  33.096   0.818
33422W        W98649  22.819  16.320   4.904
33423W        W98650  38.411  24.668   4.407
33424W        W98651  18.625  42.909   4.545
33425W        W98652   3.293  34.386  10.999
33426W        W98653  16.112  33.162   0.352
33427W        W98654   6.958   7.088  13.382
33428W        W98655   5.918  22.262  11.018
33429W        W98656  14.644   3.959  14.112
33430W        W98657  32.369  17.423   9.749
33431W        W98658  37.813  37.571   3.250
33432W        W98659  19.898  35.641   9.871
33433W        W98660   4.244  14.679   4.121
33434W        W98661  14.339  31.668  14.883
33435W        W98662  23.458   1.478  12.901
33436W        W98663  17.125  34.075  10.345
33437W        W98664  17.083   3.913  12.400
33438W        W98665  43.956  19.777  10.805
33439W        W98666  21.298  43.535  13.443
33440W        W98667  15.715  15.659  13.772
33441W        W98668  36.433  35.502  14.733
33442W        W98669   6.863   4.886  12.877
33443W        W98670  32.289  30.488  14.724
33444W        W98671  25.631  24.379   4.667
33445W        W98672   6.488   3.638  12.533
33446W        W98673  10.667  14.786  12.081
33447W        W98674  10.623  18.537   0.826
33448W        W98675  10.826  31.860   9.825
33449W        W98676  43.325   9.596   2.877
33450W        W98677  18.525  27.906   0.322
33451W        W98678  24.066  16.985  14.302
33452W        W98679  15.214  38.313   3.869
33453W        W98680  14.495  30.908   4.411
33454W        W98681  41.497  11.582   3.530
33455W        W98682  31.185   6.570  11.997
33456W        W98683  11.243  27.207  11.535
33457W        W98684  13.907  38.517   3.147
33458W        W98685  15.825   7.705  12.121
33459W        W98686  38.856  25.270   2.301
33460W        W98687  39.029   2.425   4.680
33461W        W98688  44.679  31.257   0.802
33462W        W98689  26.296   6.495   1.772
33463W        W98690  25.612   6.325   1.743
33464W        W98691  11.345   5.291  14.835
33465W        W98692  10.173  29.040  14.146
33466W        W98693  43.845  21.677   2.786
33467W        W98694  24.667  23.611   2.878
33468W        W98695   1.209  29.915   1.417
33469W        W98696   4.946   0.471  14.421
33470W        W98697  36.612   9.936   1.498
33471W        W98698  27.133  15.674   0.421
33472W        W98699  10.068  33.629   4.236
33473W        W98700   7.233  34.072  14.966
33474W        W98701  41.024  33.385   3.096
33475W        W98702   3.315  36.987  11.985
33476W        W98703  15.117  26.193   0.230
33477W        W98704  37.617  40.427   4.948
33478W        W98705  12.354  35.737   4.963
33479W        W98706  27.955  29.037   3.607
33480W        W98707  39.393   4.526   0.215
33481W        W98708  18.038  26.610  14.421
33482W        W98709   0.126  24.600  12.536
33483W        W98710  34.506  32.601  12.046
33484W        W98711   6.843   7.392   4.648
33485W        W98712   8.359  34.276   4.735
33486W        W98713   7.949  28.240  14.247
33487W        W98714   8.394   7.237  12.100
33488W        W98715   5.845  34.441   3.104
33489W        W98716  36.537  30.975   4.547
33490W        W98717  14.144  11.138  14.434
33491W        W98718  21.174  27.034   1.427
33492W        W98719  28.556   1.675   2.238
33493W        W98720  16.689  44.165   4.455
33494W        W98721   3.788  38.006   2.469
33495W        W98722  42.385  30.161  12.467
33496W        W98723  43.312   7.265  13.061
33497W        W98724  43.254  10.941   4.108
33498W        W98725  15.569  11.631   4.065
33499W        W98726  39.545  20.107   2.673
33500W        W98727  14.343  22.961  12.369
33501W        W98728  30.029  37.096   3.130
33502W        W98729  26.105  29.936   1.878
33503W        W98730  24.883  13.506  12.927
33504W        W98731  17.530  11.678  12.008
33505W        W98732  31.526  44.380  11.723
33506W        W98733  41.952  24.508   0.724
33507W        W98734  28.636  18.910  11.137
33508W        W98735  11.245  38.786  12.422
33509W        W98736   7.586  44.294   4.587
33510W        W98737  39.594  30.152   3.102
33511W        W98738  39.526  30.186  12.090
33512W        W98739  34.458  27.556  11.595
33513W        W98740  43.704  42.892   3.266
33514W        W98741  14.063  13.825   3.334
33515W        W98742  40.796  33.479  12.529
33516W        W98743  32.033   7.322   4.532
33517W        W98744   8.966  26.908   2.711
33518W        W98745   8.956  32.802   0.405
33519W        W98746   1.864  35.299  10.985
33520W        W98747  33.900  29.997  14.405
33521W        W98748  26.142  37.435  14.898
33522W        W98749  39.453  32.071   1.933
33523W        W98750  25.200  10.518   4.545
33524W        W98751  12.568   8.053   1.434
33525W        W98752  38.036  41.456   3.841
33526W        W98753  34.962  37.572  13.452
33527W        W98754  34.107  11.408  12.077
33528W        W98755  16.946   6.795   4.992
33529W        W98756   6.790   5.706   0.843
33530W        W98757   3.027  11.773   0.743
33531W        W98758  26.077  23.523   2.363
33532W        W98759  19.826  16.660   0.487
33533W        W98760   4.262  16.514   3.601
33534W        W98761  37.934  26.925  12.925
33535W        W98762  25.755  42.962   2.557
33536W        W98763   9.275  10.447   3.594
33537W        W98764  13.301   2.986  13.945
33538W        W98765   3.790  20.616  12.020
33539W        W98766  44.339   1.624  11.006
33540W        W98767  42.990   4.025   3.261
33541W        W98768  25.933  30.046   3.857
33542W        W98769   8.830  11.846   4.206
33543W        W98770  11.848  32.636  14.369
33544W        W98771  43.232  35.400   3.828
33545W        W98772   3.809   7.369   1.870
33546W        W98773  37.578  11.826   0.831
33547W        W98774   5.974   0.938   3.167
33548W        W98775  26.963  42.268   1.041
33549W        W98776   7.909  22.160   0.829
33550W        W98777  11.369   4.088   1.663
33551W        W98778  37.561  12.270  12.540
33552W        W98779  14.981   0.239   3.024
33553W        W98780  41.479  40.432  10.826
33554W        W98781  42.814  41.358  13.861
33555W        W98782  39.970  33.574   0.945
33556W        W98783  39.325  23.492  12.471
33557W        W98784  32.425   7.182   1.814
33558W        W98785  32.838   0.300  14.027
33559W        W98786  35.499  28.557  10.423
33560W        W98787   7.550  17.148   2.171
33561W        W98788  13.177  38.555   0.273
33562W        W98789  38.090  17.628  13.563
33563W        W98790   7.880  26.376  10.394
33564W        W98791   7.022  24.197   0.955
33565W        W98792  30.476  35.567   1.693
33566W        W98793  19.617   1.484   0.962
33567W        W98794  33.838   8.400  12.671
33568W        W98795  21.195  11.387   1.189
33569W        W98796  12.191  28.628   4.674
33570W        W98797  31.779  30.528   3.878
33571W        W98798  43.660  15.267  13.980
33572W        W98799  34.936  15.315  14.346
33573W        W98800  14.721   2.198   1.772
33574W        W98801  20.249  12.769   2.727
33575W        W98802  15.200  13.757   2.769
33576W        W98803   1.581  28.545   4.827
33577W        W98804  40.828  20.584   2.697
33578W        W98805  25.756   7.425   4.933
33579W        W98806  20.169   4.358   4.034
33580W        W98807  20.789  38.362  12.111
33581W        W98808  40.089  43.704  11.342
33582W        W98809  35.142  11.289  12.081
33583W        W98810   4.710  39.826   3.672
33584W        W98811   4.587  41.194   0.766
33585W        W98812  31.880  39.474  12.478
33586W        W98813  26.337  20.145   3.640
33587W        W98814  13.635  44.287  14.149
33588W        W98815  18.250  30.112  11.527
33589W        W98816  37.848  13.274   3.815
33590W        W98817  21.228  12.340  13.990
33591W        W98818  10.757  26.804  14.308
33592W        W98819  39.069  34.436  12.472
33593W        W98820  17.119  33.930   3.284
33594W        W98821   9.754  24.389  10.670
33595W        W98822   9.261  32.725  14.105
33596W        W98823  20.626   3.845  12.804
33597W        W98824   2.223   1.716  12.654
33598W        W98825   3.843  35.949   3.634
33599W        W98826  26.600  14.234   5.455
33600W        W98827   0.539  29.979  13.487
33601W        W98828   2.174   5.563  11.112
33602W        W98829   3.352   8.349   0.493
33603W        W98830  14.276  28.876  10.629
33604W        W98831  44.958  32.603  12.651
33605W        W98832  26.683   2.415   2.944
33606W        W98833  37.625  34.816   1.500
33607W        W98834  27.184  21.220   3.597
33608W        W98835  15.548  42.105   5.199
33609W        W98836  17.384  30.219  11.146
33610W        W98837  36.370  30.164  13.577
33611W        W98838  15.687  26.149  13.403
33612W        W98839  40.986  20.849   1.137
33613W        W98840  15.408  36.837   2.248
33614W        W98841  35.167  31.949  10.294
33615W        W98842  16.137  32.977  13.473
33616W        W98843   7.494  40.932  10.427
33617W        W98844  10.240  13.457   2.822
33618W        W98845  22.504   4.624   0.640
33619W        W98846  25.297  35.778   4.546
33620W        W98847  23.933  41.063   4.823
33621W        W98848  36.006  17.965   0.325
33622W        W98849  29.616   8.832  15.000
33623W        W98850  27.903  35.705  10.690
33624W        W98851  11.074  38.880  14.761
33625W        W98852  39.350  37.714   2.222
33626W        W98853  16.253   4.884   4.130
33627W        W98854  18.164  20.082  13.308
33628W        W98855  39.672  21.420  10.843
33629W        W98856  13.153  38.858  11.680
33630W        W98857  32.963  18.856   2.370
33631W        W98858   1.070  31.798  10.061
33632W        W98859  40.597  21.341   0.447
33633W        W98860  29.511  32.543  10.432
33634W        W98861  38.700   8.875  13.054
33635W        W98862   6.897  38.340  11.416
33636W        W98863   5.460  39.440   2.674
33637W        W98864  35.557   3.820   0.339
33638W        W98865   4.999  24.110   0.836
33639W        W98866  27.020  37.507  11.871
33640W        W98867  36.072  40.834   2.232
33641W        W98868  38.833  17.792   0.755
33642W        W98869  22.613  27.171   1.392
33643W        W98870   8.196  42.982   1.209
33644W        W98871  39.217  31.585   3.213
33645W        W98872   9.294  20.759   3.299
33646W        W98873   5.552  19.444   3.766
33647W        W98874  28.412  13.622   1.501
33648W        W98875  33.140  24.422   4.540
33649W        W98876  31.558  10.263  12.995
33650W        W98877  20.020  38.395   1.543
33651W        W98878  43.965  19.999   3.688
33652W        W98879  20.232  42.294  13.941
33653W        W98880  11.195  20.981  10.730
33654W        W98881  39.464  13.119  11.002
33655W        W98882  35.510  27.375   0.066
33656W        W98883   5.718  17.400  13.032
33657W        W98884   6.839  40.951   3.626
33658W        W98885  29.390  33.883   4.192
33659W        W98886   1.950  28.537  11.015
33660W        W98887   2.719  30.181  13.074
33661W        W98888  43.088   7.136   9.684
33662W        W98889   1.482  17.278   1.390
33663W        W98890  19.765  26.186  10.645
33664W        W98891  37.504  14.644   1.813
33665W        W98892  31.118  42.907  10.095
33666W        W98893  13.414   8.353   0.964
33667W        W98894  44.810   3.189   3.153
33668W        W98895  13.258  43.384   4.168
33669W        W98896  34.114  29.405   3.375
33670W        W98897   2.136  28.557  11.881
33671W        W98898  31.583  13.100  13.052
33672W        W98899  20.073  27.386  12.047
33673W        W98900  17.520  37.832  10.533
33674W        W98901  31.851  30.388  11.540
33675W        W98902  17.056   9.327  11.646
33676W        W98903  25.556  23.941   4.970
33677W        W98904  32.062  43.065   0.778
33678W        W98905  28.717  14.338   1.477
33679W        W98906  27.524   6.275  14.968
33680W        W98907  44.914   2.844   1.779
33681W        W98908  38.612   2.130   3.723
33682W        W98909   9.911   4.657  12.535
33683W        W98910  14.578  13.446   4.219
33684W        W98911  18.066  10.744  11.137
33685W        W98912  19.230  23.951   2.746
33686W        W98913  17.205  24.970  12.489
33687W        W98914  20.691  30.016   1.852
33688W        W98915  18.652  13.335   4.995
33689W        W98916  19.414  13.164  13.882
33690W        W98917  20.280   4.900   1.340
33691W        W98918  38.315  15.892   2.273
33692W        W98919  29.711  44.258  11.047
33693W        W98920  21.525   6.898   4.030
33694W        W98921   5.242   8.992  14.254
33695W        W98922  22.222  37.028  11.234
33696W        W98923  38.318  37.109   0.411
33697W        W98924  37.739  23.214   3.273
33698W        W98925   2.442  36.834  12.484
33699W        W98926  32.345  39.574   3.225
33700W        W98927  41.680  25.155   4.902
33701W        W98928  23.581  26.209   4.057
33702W        W98929   6.804  10.618   4.133
33703W        W98930  35.573  10.620  12.109
33704W        W98931   4.893  16.845   3.218
33705W        W98932  34.519  14.588   2.665
33706W        W98933  20.434  30.084   1.375
33707W        W98934  28.720   7.626   1.296
33708W        W98935  31.073  10.833  11.276
33709W        W98936   0.483   2.186  11.266
33710W        W98937  42.447  14.715  11.368
33711W        W98938  33.957  13.407  11.982
33712W        W98939  15.874  20.271  12.936
33713W        W98940   9.597   5.843   1.172
33714W        W98941  33.086  42.574   2.828
33715W        W98942   8.203   8.643   1.830
33716W        W98943  37.486   3.487  12.402
33717W        W98944  25.025  42.958   3.750
33718W        W98945   9.118   7.269   3.364
33719W        W98946  10.825  41.316  14.011
33720W        W98947  10.553  20.960   1.438
33721W        W98948  41.011  30.851   4.501
33722W        W98949  10.737  19.253  10.887
33723W        W98950   3.165  16.123   1.160
33724W        W98951  41.456   8.853  13.588
33725W        W98952   4.625  20.657  13.568
33726W        W98953  29.173   5.736  12.001
33727W        W98954  22.172  22.302  14.051
33728W        W98955  25.794  24.166   2.920
33729W        W98956  22.050  18.195  13.415
33730W        W98957  39.663  34.314   0.314
33731W        W98958  27.702  42.439   4.673
33732W        W98959  37.482  22.111   0.643
33733W        W98960   0.472  31.561   0.974
33734W        W98961  11.752  19.576   0.940
33735W        W98962  41.439  12.425   0.851
33736W        W98963   3.316  19.005   2.064
33737W        W98964  18.130  43.440   4.384
33738W        W98965  22.981  38.792  13.136
33739W        W98966  31.999  31.113   3.707
33740W        W98967  16.745  28.633  10.700
33741W        W98968  33.632   5.768  10.906
33742W        W98969  17.542  43.381   3.639
33743W        W98970  37.080  39.054   4.838
33744W        W98971  24.745  25.298  13.925
33745W        W98972  30.510   8.526  10.849
33746W        W98973   2.308  28.510   2.314
33747W        W98974  41.359   2.800   4.202
33748W        W98975  25.056   5.092   4.683
33749W        W98976  18.607  21.628   1.681
33750W        W98977   2.296  24.987  13.951
33751W        W98978   1.771  32.367   4.348
33752W        W98979  43.233  16.744  14.406
33753W        W98980  10.547  32.256   1.775
33754W        W98981  36.531  19.248  10.704
33755W        W98982   5.271  37.351  13.342
33756W        W98983  27.528  16.688   4.699
33757W        W98984  31.188  19.704  14.401
33758W        W98985   0.805  37.434  13.867
33759W        W98986  16.076   3.782  11.510
33760W        W98987  28.483  15.919   4.038
33761W        W98988  40.785  10.927  11.450
33762W        W98989  20.643  27.987  14.430
33763W        W98990  28.929  12.631   4.043
33764W        W98991  29.875   8.801   4.816
33765W        W98992  16.572   1.905   1.874
33766W        W98993  16.150  19.884  12.558
33767W        W98994  14.671  28.722   3.178
33768W        W98995  10.047  34.272   0.146
33769W        W98996  27.492   4.936  14.913
33770W        W98997  24.650   7.197   4.284
33771W        W98998  16.055   6.068   3.660
33772W        W98999  35.141  31.197  12.814
33773W        W99000  33.328  33.449  13.308
33774W        W99001   8.639  21.763  11.195
33775W        W99002  40.836   8.992   3.871
33776W        W99003   4.729   3.345   0.251
33777W        W99004  35.845   6.818  12.441
33778W        W99005   6.553  18.892  10.313
33779W        W99006  14.601  33.677  11.898
33780W        W99007  41.108  30.988  10.887
33781W        W99008  32.933  20.986   2.724
33782W        W99009  40.605  44.342  13.448
33783W        W99010  14.097  26.640  13.320
33784W        W99011  38.312  42.240  14.753
33785W        W99012  40.963  17.000   3.245
33786W        W99013  34.954  20.944  13.938
33787W        W99014  40.542  22.287   2.964
33788W        W99015   1.077  31.457  12.035
33789W        W99016   1.925  28.983   0.750
33790W        W99017   8.119  17.589  12.942
33791W        W99018  34.796  42.794   4.587
33792W        W99019  16.038   3.353   3.960
33793W        W99020  42.238   3.495   2.862
33794W        W99021  29.217  10.460  11.994
33795W        W99022  29.718   9.331   0.160
33796W        W99023  27.090  30.006   0.411
33797W        W99024  23.012  33.870   2.507
33798W        W99025   6.706  23.687   3.181
33799W        W99026  43.802   8.368   3.602
33800W        W99027  23.320  35.918   4.468
33801W        W99028  17.646  35.596   0.835
33802W        W99029  12.254  18.346  14.012
33803W        W99030  38.959  29.819  12.606
33804W        W99031  18.510  12.766   1.931
33805W        W99032  29.885  30.345   2.708
33806W        W99033  37.104  22.604   2.244
33807W        W99034   1.410  11.971   4.013
33808W        W99035   7.220   0.995  11.894
33809W        W99036  17.941   2.681  11.681
33810W        W99037  42.106   6.732  10.290
33811W        W99038   0.438   0.142  13.438
33812W        W99039   3.385  37.893   2.152
33813W        W99040  21.604  12.152   4.350
33814W        W99041  41.261  28.449   0.382
33815W        W99042   6.799  13.334   4.230
33816W        W99043  33.665  13.357   0.730
33817W        W99044  39.533  12.219  14.009
33818W        W99045  43.295  13.622  11.202
33819W        W99046  40.745  26.718  12.086
33820W        W99047   0.466  39.926  13.788
33821W        W99048   7.002  30.635  10.727
33822W        W99049  26.179  27.151  13.582
33823W        W99050  30.176  14.416   1.275
33824W        W99051  32.844  23.061  14.809
33825W        W99052  34.269  24.503   1.743
33826W        W99053  42.499  17.221  14.441
33827W        W99054  38.112  12.587  12.543
33828W        W99055  34.623  23.438  13.433
33829W        W99056   4.621  11.619   4.144
33830W        W99057  44.814  33.575   2.198
33831W        W99058   9.316   8.821  11.803
33832W        W99059   1.900  35.214  13.353
33833W        W99060  21.595   5.452   4.080
33834W        W99061  37.970  36.065   4.457
33835W        W99062  27.217  34.418   1.704
33836W        W99063  31.941  19.483  13.700
33837W        W99064  22.224  44.184  14.389
33838W        W99065  16.582   9.357   0.854
33839W        W99066  36.757  33.878  12.090
33840W        W99067   2.285  19.076   0.210
33841W        W99068  27.682  37.965  11.206
33842W        W99069  10.733   0.731   3.193
33843W        W99070  36.424  37.233   4.571
33844W        W99071  15.663   3.229   2.827
33845W        W99072  28.135  42.587  11.978
33846W        W99073  26.565   3.162  11.658
33847W        W99074  34.928   5.704   4.708
33848W        W99075  10.253  33.625  13.821
33849W        W99076   7.652  29.727  12.940
33850W        W99077   7.929  12.163   3.235
33851W        W99078  35.843  42.569  13.801
33852W        W99079  23.120   7.890   1.911
33853W        W99080  23.703  33.418  13.957
33854W        W99081  18.311  36.437   0.766
33855W        W99082  26.756  31.734   3.209
33856W        W99083   9.441  41.491  11.211
33857W        W99084  31.187  31.140   3.983
33858W        W99085   7.894  14.299   0.755
33859W        W99086   3.427   9.255   0.514
33860W        W99087  19.358  30.388  12.650
33861W        W99088  22.251  22.237  11.647
33862W        W99089  16.337  31.450   4.120
33863W        W99090  26.059  33.071   4.572
33864W        W99091   3.759  26.262   0.035
33865W        W99092  39.768  26.547  13.400
33866W        W99093  14.647  19.492   4.646
33867W        W99094   8.857  43.534   4.119
33868W        W99095  33.179  18.612   3.716
33869W        W99096  20.679   6.213   4.183
33870W        W99097  40.049   5.919  11.564
33871W        W99098   7.605  28.268   4.104
33872W        W99099   5.594   6.457  12.071
33873W        W99100  30.152  38.443  11.648
33874W        W99101   7.350  20.989  11.166
33875W        W99102  19.784  43.146  11.087
33876W        W99103  30.873  44.978  12.710
33877W        W99104  24.589   2.222  11.999
33878W        W99105  15.093   9.395  14.473
33879W        W99106   5.721  44.554   1.220
33880W        W99107  34.073  14.775  12.112
33881W        W99108  28.448  40.729   0.649
33882W        W99109  42.850  20.729   0.608
33883W        W99110  31.495  31.525   4.200
33884W        W99111  10.709   1.423  10.657
33885W        W99112  36.118  32.849   3.304
33886W        W99113   4.890  26.602   4.090
33887W        W99114   4.538   8.748   0.846
33888W        W99115  13.720  23.236  13.536
33889W        W99116   3.946  26.064   4.746
33890W        W99117  28.695  35.497  11.116
33891W        W99118  19.174  19.588   4.786
33892W        W99119  31.604  29.677   3.830
33893W        W99120   8.834   5.452   3.195
33894W        W99121  42.238   9.734  12.001
33895W        W99122   4.572   6.402  12.585
33896W        W99123  17.319   4.252  10.743
33897W        W99124  39.872  30.414   2.574
33898W        W99125   6.327  32.476   2.140
33899W        W99126   6.223  15.278   2.538
33900W        W99127  38.396  10.088   2.788
33901W        W99128   2.218  42.845  13.412
33902W        W99129  12.635  39.315  13.341
33903W        W99130  32.607  13.843  14.749
33904W        W99131  33.421  39.066   3.303
33905W        W99132  44.009  43.097  10.444
33906W        W99133  25.897  24.936  11.442
33907W        W99134   6.672   8.966   4.557
33908W        W99135  30.643  25.179  10.637
33909W        W99136  44.492  12.769   3.507
33910W        W99137   8.885  29.010   1.854
33911W        W99138   2.183   4.259   3.659
33912W        W99139   1.044  39.271   1.710
33913W        W99140  40.902  16.577   3.568
33914W        W99141  21.590  23.180  11.261
33915W        W99142  12.824  38.382   4.819
33916W        W99143  11.813  39.825   3.030
33917W        W99144  18.746   6.477   0.736
33918W        W99145  44.259  18.589  14.367
33919W        W99146   7.759   4.406  12.925
33920W        W99147   9.413   6.374  11.670
33921W        W99148  29.534  43.931  12.866
33922W        W99149  35.797  36.833   1.351
33923W        W99150  13.490   6.008  12.107
33924W        W99151  28.446  27.159  11.703
33925W        W99152   4.364  42.708  10.680
33926W        W99153  41.125  44.260   2.133
33927W        W99154  43.441  39.746   4.528
33928W        W99155  16.711  43.941   1.223
33929W        W99156  33.117  32.565  13.499
33930W        W99157   8.313  37.899   3.928
33931W        W99158  16.300   9.423   3.639
33932W        W99159  28.754  11.004  11.591
33933W        W99160  20.090   8.804   4.798
33934W        W99161  25.323   6.445  14.871
33935W        W99162  16.172  42.925   4.565
33936W        W99163  13.673  26.616   1.273
33937W        W99164  23.849  14.183  11.106
33938W        W99165  31.891   5.371   4.575
33939W        W99166   8.685  33.908  11.941
33940W        W99167  29.566  44.839  13.021
33941W        W99168  21.125  34.134  12.488
33942W        W99169  25.904  32.103   3.089
33943W        W99170   3.525  24.776   4.829
33944W        W99171   0.488  14.569   4.765
33945W        W99172  30.354  31.421  13.358
33946W        W99173  24.586  18.100  14.878
33947W        W99174  26.190  20.613  10.853
33948W        W99175  11.240  38.584   3.202
33949W        W99176   6.493  21.799  13.289
33950W        W99177  17.885  21.514  12.434
33951W        W99178  32.015   9.645   3.011
33952W        W99179   5.816  37.173   2.966
33953W        W99180  44.028  13.574   2.200
33954W        W99181   6.274   7.379   0.882
33955W        W99182   0.054  19.478  13.018
33956W        W99183   6.622  15.109   3.216
33957W        W99184  35.665   6.939   3.262
33958W        W99185  26.184  12.585  11.992
33959W        W99186  32.528  34.007   4.842
33960W        W99187  35.052  34.067  13.419
33961W        W99188   3.935   2.897   0.811
33962W        W99189  30.068   9.701   1.755
33963W        W99190  42.258  43.958  14.187
33964W        W99191  35.289  24.088  10.462
33965W        W99192  28.547  34.767   2.337
33966W        W99193  39.164  15.248  11.875
33967W        W99194   1.119   6.114  13.035
33968W        W99195  21.952   1.508  13.225
33969W        W99196   1.306   1.051   4.217
33970W        W99197  13.144  37.263  10.296
33971W        W99198   6.487   3.430   0.037
33972W        W99199  31.055  22.696  11.893
33973W        W99200  16.460  19.780   0.546
33974W        W99201  28.466  36.471  13.510
33975W        W99202  16.040  41.352  13.601
33976W        W99203   9.350  21.735   1.672
33977W        W99204   5.425  30.605  12.339
33978W        W99205  16.303  22.588  12.424
33979W        W99206   3.758  39.263   1.706
33980W        W99207  36.625  43.869  14.352
33981W        W99208  42.460  17.241   1.263
33982W        W99209  14.271  28.629   3.562
33983W        W99210   1.795  31.502  11.194
33984W        W99211  31.515   2.929  13.270
33985W        W99212  33.909  25.966  12.873
33986W        W99213  25.588  23.590  12.760
33987W        W99214  39.382  28.256  10.295
33988W        W99215  42.236  44.501   3.634
33989W        W99216  24.129  42.926   3.543
33990W        W99217  34.066  11.672  14.855
33991W        W99218  34.834  26.684   3.212
33992W        W99219  20.061  10.092  12.957
33993W        W99220  13.533  39.499   3.037
33994W        W99221  14.497  29.112  12.514
33995W        W99222  31.510  16.747  10.673
33996W        W99223  39.353  12.167   4.223
33997W        W99224   1.489  44.906   3.203
33998W        W99225  10.676  33.397  12.023
33999W        W99226   4.453  29.412   0.461
34000W        W99227  38.078  25.563   4.885
34001W        W99228   5.705  16.736  14.323
34002W        W99229   0.176  26.100   5.006
34003W        W99230  11.942   1.473   1.282
34004W        W99231  18.130  30.718  12.571
34005W        W99232  23.895  23.570  11.284
34006W        W99233  23.974  17.639   2.542
34007W        W99234  22.992   2.324   0.273
34008W        W99235  21.012  23.507   0.002
34009W        W99236  43.150   7.734  12.865
34010W        W99237   2.835   9.642   4.532
34011W        W99238   9.781   8.064   3.430
34012W        W99239  38.497  40.473   3.273
34013W        W99240  18.327  12.830   2.834
34014W        W99241  44.020  37.146  14.501
34015W        W99242  40.867  24.234  11.892
34016W        W99243   1.485  18.568   1.328
34017W        W99244   6.198   4.724   2.017
34018W        W99245  32.614  20.103   0.690
34019W        W99246  44.196  40.528  13.512
34020W        W99247  11.821  41.758   1.803
34021W        W99248  38.853  27.586   2.766
34022W        W99249  24.257   4.384  13.772
34023W        W99250   7.823  42.994  11.070
34024W        W99251  16.646  15.242   2.939
34025W        W99252   1.005  29.549   3.264
34026W        W99253  35.572   5.893   3.745
34027W        W99254  32.693   3.728  12.800
34028W        W99255  23.135  27.264   0.490
34029W        W99256  16.375  24.928   4.185
34030W        W99257  24.221  44.388   0.359
34031W        W99258  14.642   5.204  12.020
34032W        W99259  27.557  18.050  13.591
34033W        W99260  25.230  36.617  13.883
34034W        W99261   2.264   7.439  14.289
34035W        W99262  42.910   6.203   1.631
34036W        W99263  42.439  39.741  12.623
34037W        W99264  37.065   0.143  12.486
34038W        W99265  16.198  33.945   1.321
34039W        W99266  44.260   0.343   4.540
34040W        W99267   1.284  25.906  10.396
34041W        W99268  28.027  22.675   4.988
34042W        W99269  42.386  24.764  11.505
34043W        W99270  11.689  15.987  10.819
34044W        W99271  20.805  36.476   2.402
34045W        W99272  33.149  33.904  12.010
34046W        W99273   2.915  29.461  12.448
34047W        W99274   6.536  34.355   3.646
34048W        W99275  28.576  28.537   1.806
34049W        W99276  23.811  24.157  13.843
34050W        W99277  38.594  37.993   3.085
34051W        W99278   6.639  20.239  11.659
34052W        W99279  16.530  34.127   0.362
34053W        W99280  18.187  12.425   4.440
34054W        W99281  37.257  39.079   2.123
34055W        W99282  13.795  17.235  12.428
34056W        W99283  13.361  36.538   4.517
34057W        W99284   7.524  30.566   0.256
34058W        W99285   5.311  18.762   2.696
34059W        W99286  43.705  36.572  12.040
34060W        W99287  22.578  27.196  12.335
34061W        W99288  18.693  30.447   0.621
34062W        W99289  34.926   4.906   0.824
34063W        W99290  31.660  41.864   1.458
34064W        W99291  17.057  30.914   4.629
34065W        W99292  27.524  12.841   2.285
34066W        W99293  30.956   8.140   1.974
34067W        W99294  29.541  13.732  13.678
34068W        W99295   2.199  22.039  11.002
34069W        W99296  36.397   7.332  14.996
34070W        W99297   0.824  43.878   1.234
34071W        W99298  33.859  18.712   0.916
34072W        W99299   9.982   8.651  11.977
34073W        W99300  33.968   0.815   4.605
34074W        W99301  21.178  13.402   4.986
34075W        W99302  42.136   7.764   4.110
34076W        W99303  20.525  34.345   0.815
34077W        W99304   7.796   8.322  12.917
34078W        W99305  22.154  11.579  14.924
34079W        W99306  28.177  22.117  10.925
34080W        W99307   6.245  38.465   0.713
34081W        W99308   7.733  10.376  10.136
34082W        W99309  27.640  31.122  13.981
34083W        W99310  20.085   3.367  10.624
34084W        W99311  27.544  37.524  12.054
34085W        W99312  17.742  44.340  11.503
34086W        W99313  19.394   5.673  14.155
34087W        W99314  14.315   6.271   3.276
34088W        W99315  22.541  35.019  13.360
34089W        W99316  39.480  22.542   3.293
34090W        W99317  20.980  14.481  10.324
34091W        W99318   3.394   9.955  13.773
34092W        W99319  21.657  20.387   4.604
34093W        W99320  15.154  41.263   0.910
34094W        W99321   7.379   9.636  14.034
34095W        W99322   3.581  15.426   5.102
34096W        W99323  19.596   5.172  12.421
34097W        W99324   8.082  19.233   3.522
34098W        W99325   2.642  32.807  11.066
34099W        W99326   3.670   0.330  13.443
34100W        W99327   6.194   2.393  13.493
34101W        W99328  12.760  17.820   4.337
34102W        W99329  13.108  42.835   3.299
34103W        W99330  27.947  37.813   2.753
34104W        W99331  35.136  22.760  10.716
34105W        W99332   8.431  32.599   5.590
34106W        W99333  17.101  35.387  11.770
34107W        W99334  36.880  15.658  12.042
34108W        W99335  41.429  23.059  11.566
34109W        W99336  33.954  21.024  10.451
34110W        W99337   6.893  20.161   2.685
34111W        W99338  38.920   6.946  12.267
34112W        W99339   7.399  11.468   3.624
34113W        W99340   0.236   0.783   3.684
34114W        W99341  35.328  24.434  12.629
34115W        W99342  27.686  10.388   4.159
34116W        W99343  41.317   7.769   2.215
34117W        W99344  39.142  40.892   2.219
34118W        W99345   3.976  13.647   0.930
34119W        W99346  18.698  21.032  12.442
34120W        W99347  12.115  30.452   0.484
34121W        W99348  20.001   1.426  12.581
34122W        W99349  12.765  13.580  14.449
34123W        W99350  30.936  10.793   4.670
34124W        W99351  15.995   6.092  10.087
34125W        W99352   0.788  27.637  14.045
34126W        W99353  36.093  38.034  14.214
34127W        W99354  38.464  43.191   0.212
34128W        W99355  38.545  21.834  13.836
34129W        W99356   5.393  27.391  11.869
34130W        W99357  32.347  25.658   3.137
34131W        W99358  25.535  33.875  14.022
34132W        W99359   6.754  28.209  10.779
34133W        W99360  31.061  43.448  11.591
34134W        W99361  27.141   8.927  14.501
34135W        W99362  19.971  16.349  11.985
34136W        W99363  18.339  42.395  13.349
34137W        W99364  40.019   6.149   3.139
34138W        W99365  44.344  25.250  11.514
34139W        W99366  16.513  44.686   0.042
34140W        W99367  22.751  38.420   0.970
34141W        W99368   5.352   3.955   0.316
34142W        W99369   4.313   2.890  12.712
34143W        W99370  36.912  43.550  10.410
34144W        W99371  32.499  10.182  11.938
34145W        W99372  37.690   8.793  11.416
34146W        W99373  17.204  27.451  14.929
34147W        W99374  18.586  29.084   2.627
34148W        W99375   1.358  20.180  10.521
34149W        W99376  44.308  37.137   2.731
34150W        W99377  41.371   6.817   2.167
34151W        W99378   6.785   1.108  11.509
34152W        W99379  20.529  19.186  14.812
34153W        W99380  39.207  29.400   0.386
34154W        W99381   5.315  25.384  11.665
34155W        W99382  22.553   7.945   0.385
34156W        W99383  41.421  15.308  13.841
34157W        W99384  29.812  39.448   4.220
34158W        W99385  14.555  26.654   1.062
34159W        W99386  36.490  44.017  14.988
34160W        W99387  36.369  10.844  12.535
34161W        W99388   0.383   8.874  12.056
34162W        W99389  16.000  39.421   1.220
34163W        W99390  42.913  30.651  10.985
34164W        W99391  40.957  28.415  14.032
34165W        W99392  39.484  10.579   0.244
34166W        W99393  13.527   5.769  11.617
34167W        W99394  40.006  12.836  14.975
34168W        W99395  38.959   2.946   0.866
34169W        W99396  22.824  33.249   1.725
34170W        W99397   6.185   8.688  11.812
34171W        W99398   0.831  26.568   2.096
34172W        W99399   5.343  43.335   3.624
34173W        W99400  26.022  11.007   4.784
34174W        W99401  42.540  36.212  12.619
34175W        W99402  30.592  40.336   3.793
34176W        W99403  39.232   5.006  11.949
34177W        W99404  43.032   9.473  13.000
34178W        W99405  37.353  43.869  11.650
34179W        W99406  34.082   4.371   4.591
34180W        W99407  19.831  37.617   3.670
34181W        W99408  38.461  31.844   2.820
34182W        W99409  30.085  31.364   3.461
34183W        W99410  35.827  33.164   3.590
34184W        W99411  19.467  32.653  12.897
34185W        W99412  15.176   6.817   0.414
34186W        W99413  35.688  43.727  10.898
34187W        W99414  18.270  26.940  12.562
34188W        W99415   1.872  14.853  11.096
34189W        W99416   9.108  19.720  11.087
34190W        W99417  21.167   8.926   5.032
34191W        W99418  38.239  11.169   3.082
34192W        W99419   8.532   6.816   2.136
34193W        W99420  22.939   7.356   2.809
34194W        W99421  42.503  25.650  13.908
34195W        W99422  15.074  32.608   0.917
34196W        W99423  10.903  10.868   2.774
34197W        W99424   7.230  22.559  14.422
34198W        W99425  19.875  28.043  14.020
34199W        W99426  15.315  32.045   9.962
34200W        W99427  15.202  26.950   1.274
34201W        W99428  28.560  16.009  12.813
34202W        W99429  21.526  16.702   1.473
34203W        W99430  18.209  37.601   2.227
34204W        W99431  31.564   1.823   3.359
34205W        W99432  20.768   1.961   3.659
34206W        W99433   0.348  35.410  13.335
34207W        W99434  31.672  27.666  14.929
34208W        W99435  15.979  17.256   0.450
34209W        W99436  17.769  38.344   0.996
34210W        W99437  32.932  32.463  14.004
34211W        W99438   0.161  25.002   2.575
34212W        W99439  26.135  15.932   1.548
34213W        W99440   6.728  12.001  10.673
34214W        W99441  39.575  22.944   4.626
34215W        W99442  44.327  34.152  11.005
34216W        W99443  37.785   9.405   3.168
34217W        W99444   6.058  42.973  10.116
34218W        W99445   3.790  27.418  14.493
34219W        W99446  23.692  28.614   4.893
34220W        W99447  37.172   1.192   4.368
34221W        W99448  44.823  38.967  11.320
34222W        W99449   3.611  42.257  13.788
34223W        W99450   6.798  31.378  13.314
34224W        W99451  29.471  24.077   1.884
34225W        W99452  34.642   4.883   1.246
34226W        W99453  42.751  25.739  14.994
34227W        W99454  10.712  21.611  12.031
34228W        W99455  27.413  16.727  13.332
34229W        W99456  20.279  18.235  12.392
34230W        W99457  18.597  11.331  11.577
34231W        W99458  32.611   9.866   1.311
34232W        W99459  30.331  24.810  13.548
34233W        W99460  40.375  14.292  10.994
34234W        W99461  13.846  36.114   2.017
34235W        W99462  16.156  14.195   0.658
34236W        W99463  20.611  20.949   3.227
34237W        W99464   3.769  12.632   4.371
34238W        W99465  36.170  30.078   3.620
34239W        W99466  26.952  41.216  13.997
34240W        W99467  15.390  14.512  12.299
34241W        W99468  10.338  20.039  11.230
34242W        W99469   6.416  13.843  13.379
34243W        W99470  19.086  38.342  14.023
34244W        W99471  37.820  16.367  11.539
34245W        W99472  36.844  30.674   3.046
34246W        W99473  26.179  13.600  12.114
34247W        W99474  29.827  15.169   2.290
34248W        W99475  19.999  34.423   4.288
34249W        W99476   0.523  37.593   2.168
34250W        W99477  27.479  36.827  12.469
34251W        W99478  41.280  33.880  13.457
34252W        W99479   1.032  13.736   3.053
34253W        W99480  36.601  36.483  12.856
34254W        W99481  22.617   3.820   3.675
34255W        W99482   2.727  32.643   3.986
34256W        W99483  27.486  16.414   2.215
34257W        W99484  30.441   7.282   4.682
34258W        W99485   3.439   5.374  14.937
34259W        W99486  26.075   2.021  13.449
34260W        W99487  25.734  27.275   4.128
34261W        W99488  31.627   7.754  10.669
34262W        W99489   2.221  22.046  13.217
34263W        W99490  21.093  26.637   0.213
34264W        W99491  29.591   5.914  13.823
34265W        W99492   1.567  38.034  14.360
34266W        W99493  13.848  27.884   3.404
34267W        W99494  12.461  21.048  10.687
34268W        W99495  42.573  33.633  13.471
34269W        W99496  38.148  38.321   4.191
34270W        W99497  23.170  17.122   1.330
34271W        W99498  10.161  26.208  11.760
34272W        W99499  12.253   1.677  11.641
34273W        W99500   4.955  44.882   4.147
34274W        W99501  26.183  25.029  13.110
34275W        W99502   9.383   8.910  13.822
34276W        W99503  21.606  28.126  14.207
34277W        W99504   6.799  21.568   2.633
34278W        W99505   1.978   9.187   2.282
34279W        W99506  13.132  39.878  10.686
34280W        W99507  17.546  20.786   4.084
34281W        W99508  23.188   5.243   2.138
34282W        W99509   4.782  23.982   2.229
34283W        W99510  33.627  20.784   3.249
34284W        W99511  37.574  11.699   1.704
34285W        W99512  39.049  15.212   3.273
34286W        W99513  17.951  40.902   0.351
34287W        W99514   9.911  28.655  13.400
34288W        W99515  33.515   0.906   3.477
34289W        W99516  30.468  41.444  14.745
34290W        W99517  26.584  29.975   0.196
34291W        W99518  34.478  40.393   4.030
34292W        W99519  44.018  40.095   4.108
34293W        W99520  38.671  39.715  14.909
34294W        W99521  38.365   4.791  13.957
34295W        W99522  41.063  33.065   1.481
34296W        W99523   8.336  27.429  14.059
34297W        W99524  44.361  44.246  12.961
34298W        W99525  19.325  38.795   3.228
34299W        W99526   3.350  26.264   0.355
34300W        W99527   6.521   3.396   5.032
34301W        W99528  11.707  26.485   4.670
34302W        W99529  10.667  42.543  14.782
34303W        W99530  30.234   4.560   4.436
34304W        W99531   9.594  10.371   4.966
34305W        W99532  25.194  36.386   5.193
34306W        W99533  25.764  38.329   1.819
34307W        W99534  40.762  19.702  12.016
34308W        W99535  16.709  39.363  11.382
34309W        W99536  31.475  18.166   3.735
34310W        W99537  33.081  25.617  11.864
34311W        W99538  15.266  42.335   2.834
34312W        W99539  30.559  10.701  11.930
34313W        W99540  11.714  39.504  11.950
34314W        W99541   1.318  29.405   1.380
34315W        W99542  20.532  14.806  12.810
34316W        W99543  21.225   2.355   3.111
34317W        W99544  36.408  20.720   1.235
34318W        W99545  15.213  37.800   2.201
34319W        W99546  27.234   5.972   2.842
34320W        W99547  22.562  36.455   0.547
34321W        W99548  34.984  23.760   4.713
34322W        W99549   8.321   4.939  11.872
34323W        W99550  18.196  18.764   2.636
34324W        W99551  17.313  33.534  11.522
34325W        W99552  31.234  25.958  10.486
34326W        W99553  44.870  27.897   0.037
34327W        W99554   8.098  32.772   1.310
34328W        W99555  25.919   7.101  14.773
34329W        W99556  27.138   3.879  14.970
34330W        W99557  38.358  15.560   4.359
34331W        W99558  37.437  22.462  12.908
34332W        W99559  12.136  18.156  13.013
34333W        W99560  37.959   4.535  10.570
34334W        W99561  28.722  18.552   3.385
34335W        W99562  26.993  40.710  13.791
34336W        W99563  39.279  17.615   0.491
34337W        W99564  14.821  10.086  10.268
34338W        W99565   5.825  31.011  11.499
34339W        W99566   4.314  23.929  14.316
34340W        W99567   6.669  25.681   0.292
34341W        W99568  43.101  40.136  11.411
34342W        W99569  39.882  12.602   3.558
34343W        W99570   6.678  15.461  14.004
34344W        W99571  25.587  32.885   3.647
34345W        W99572  28.019  14.152   0.377
34346W        W99573  17.599   0.921  11.456
34347W        W99574  38.368  11.521   0.361
34348W        W99575  11.769  12.196   4.245
34349W        W99576  32.434  26.088   9.824
34350W        W99577   6.776  29.604  10.844
34351W        W99578   5.748  11.081  14.551
34352W        W99579   4.308  41.993   2.143
34353W        W99580   2.463  27.994  12.461
34354W        W99581  24.614  32.991  14.010
34355W        W99582  27.011  43.373   3.357
34356W        W99583  41.756  17.329   1.706
34357W        W99584  23.178  34.450   0.823
34358W        W99585   0.412  38.245   0.052
34359W        W99586  25.955  30.705  14.537
34360W        W99587  34.539  10.562   4.052
34361W        W99588  31.739  21.967  14.548
34362W        W99589  30.896  36.154  13.325
34363W        W99590  19.776   8.932   3.763
34364W        W99591  25.692  17.226   2.857
34365W        W99592  33.026  12.349   1.926
34366W        W99593   0.900   1.900   2.619
34367W        W99594  43.901  26.157  12.244
34368W        W99595  26.170  33.877   1.449
34369W        W99596   2.455  21.657   2.720
34370W        W99597  22.986  37.923  10.725
34371W        W99598  15.774  40.549  13.774
34372W        W99599  21.510  30.178  13.763
34373W        W99600  31.489  38.557   0.959
34374W        W99601   5.694  18.755  12.411
34375W        W99602  33.568  31.160   0.254
34376W        W99603   0.822  34.352  10.249
34377W        W99604  36.515  21.159  12.348
34378W        W99605  17.156  44.172   1.271
34379W        W99606   5.493  21.235  13.494
34380W        W99607   7.814  44.716  12.570
34381W        W99608   2.334   2.695  14.013
34382W        W99609  33.900   5.817  12.653
34383W        W99610  42.603  34.169   3.359
34384W        W99611  38.485  25.775  10.598
34385W        W99612  43.517  23.944   1.717
34386W        W99613  39.320   8.134   1.265
34387W        W99614  32.286  24.053  12.919
34388W        W99615   9.688  21.595   0.325
34389W        W99616  38.043  14.264  14.964
34390W        W99617   8.922  18.317  14.038
34391W        W99618   1.824  20.737  14.672
34392W        W99619  44.025  34.082   4.164
34393W        W99620   8.637  30.411   2.754
34394W        W99621  38.940  44.284   0.775
34395W        W99622  14.167  42.587   0.948
34396W        W99623   7.949  37.510   2.284
34397W        W99624  44.266  22.110  10.999
34398W        W99625  17.997  39.129   2.292
34399W        W99626  30.270  21.674   2.405
34400W        W99627  12.583  23.220  14.511
34401W        W99628  24.549  25.725  12.455
34402W        W99629  27.212  34.590  12.061
34403W        W99630  44.388  32.150   3.471
34404W        W99631   9.538   4.938   2.610
34405W        W99632  34.314  11.891  12.127
34406W        W99633   0.987  43.487   0.926
34407W        W99634  27.304   0.791   1.264
34408W        W99635  19.350  24.540  14.486
34409W        W99636   9.280  25.435  12.073
34410W        W99637  19.535  20.217   0.288
34411W        W99638  22.252  38.843   3.150
34412W        W99639   7.186   9.408  13.109
34413W        W99640   5.008  35.168   4.201
34414W        W99641  27.958  39.381  14.465
34415W        W99642  30.091  41.864   3.193
34416W        W99643  33.302  21.406  13.978
34417W        W99644   4.934  27.120   2.683
34418W        W99645  23.624   0.502  14.955
34419W        W99646  44.315  30.742  10.042
34420W        W99647  40.111  31.912  13.367
34421W        W99648  14.064  27.416   0.023
34422W        W99649  21.189  10.365  11.539
34423W        W99650  31.682  30.353  14.398
34424W        W99651  38.432  36.177  10.754
34425W        W99652  39.079  44.019  14.948
34426W        W99653  33.069  15.773  10.966
34427W        W99654  22.260  28.765  12.131
34428W        W99655  36.732  20.551  13.493
34429W        W99656  23.545   2.268   1.679
34430W        W99657   6.238  38.005   2.726
34431W        W99658  34.100  43.061   0.335
34432W        W99659  43.732  18.552  14.522
34433W        W99660  35.875  43.471   3.969
34434W        W99661  42.830   0.287   0.979
34435W        W99662  15.379   7.285   4.281
34436W        W99663   8.893  15.076   2.385
34437W        W99664  36.961  23.561   2.577
34438W        W99665  19.945  26.619   0.365
34439W        W99666   3.237   7.677  13.387
34440W        W99667  33.368  22.532  12.362
34441W        W99668  25.672  19.573   2.440
34442W        W99669  13.842  38.451   0.712
34443W        W99670  42.007   1.393  12.917
34444W        W99671  32.333   8.684   4.547
34445W        W99672  41.568  34.905  10.791
34446W        W99673  20.173  37.602  12.329
34447W        W99674   5.922  14.694  10.359
34448W        W99675  37.508  23.999   1.781
34449W        W99676  35.580  41.291   4.498
34450W        W99677  35.452   7.690  10.892
34451W        W99678  19.110  33.897  11.576
34452W        W99679  19.455   3.879  14.688
34453W        W99680  30.393  39.962   2.309
34454W        W99681  44.300   2.867   0.456
34455W        W99682  34.072   9.280   2.791
34456W        W99683  43.493   8.242  10.102
34457W        W99684   6.776  20.585   0.816
34458W        W99685  20.305   1.647   3.735
34459W        W99686  35.149  22.772   0.114
34460W        W99687  34.135   2.945   3.719
34461W        W99688  34.891   2.687   3.352
34462W        W99689  19.715  15.545  14.381
34463W        W99690  36.158  25.621  14.993
34464W        W99691  35.463  27.501  14.572
34465W        W99692   2.207  20.142   1.699
34466W        W99693  21.287  20.181   2.320
34467W        W99694  41.648  36.055  14.288
34468W        W99695  18.550  18.940  14.891
34469W        W99696  26.178  25.729  12.542
34470W        W99697   7.761  25.895  10.509
34471W        W99698  15.545  20.620   0.787
34472W        W99699  23.449  11.304  11.230
34473W        W99700  28.623  39.586   3.146
34474W        W99701  21.313  42.459  14.814
34475W        W99702   1.282   2.960  10.783
34476W        W99703  16.099   9.193  13.768
34477W        W99704  16.831  34.545  11.599
34478W        W99705   6.449  16.264   2.743
34479W        W99706  17.023  33.084  14.431
34480W        W99707   4.360   7.900   1.928
34481W        W99708  41.417  34.803   2.417
34482W        W99709  21.941  29.989  13.976
34483W        W99710   6.884  34.677   4.822
34484W        W99711   9.996  44.351   0.239
34485W        W99712   0.490  22.800   3.626
34486W        W99713  28.401   3.938   3.627
34487W        W99714  38.694  40.450   3.776
34488W        W99715   0.293  41.805  14.323
34489W        W99716  31.203  27.168  11.791
34490W        W99717   0.730  41.370   0.246
34491W        W99718   1.396  20.053  11.810
34492W        W99719  15.828   8.780  13.937
34493W        W99720   0.251  20.442  11.217
34494W        W99721   0.771   4.225  12.397
34495W        W99722  44.935  12.791   4.737
34496W        W99723  40.027  39.436   2.346
34497W        W99724  13.006  43.705  12.691
34498W        W99725   0.880  33.608   2.271
34499W        W99726   1.647   9.275   4.070
34500W        W99727  30.114  16.939  11.477
34501W        W99728  35.560  42.795  11.682
34502W        W99729  26.733  16.472   4.093
34503W        W99730   3.323  28.391  11.950
34504W        W99731  21.265  28.948  13.962
34505W        W99732  20.177  26.451   5.044
34506W        W99733  14.751  42.482  11.853
34507W        W99734  44.441   6.139   3.952
34508W        W99735  20.783   4.169   3.105
34509W        W99736  35.318  12.675  12.013
34510W        W99737  13.891  30.920   3.705
34511W        W99738  34.258  38.344  11.960
34512W        W99739   1.401   8.337   2.438
34513W        W99740  10.290   8.904  12.695
34514W        W99741  16.825  24.997  10.716
34515W        W99742   3.999  31.393  12.519
34516W        W99743  42.212  25.698  11.854
34517W        W99744   0.813  42.812   5.331
34518W        W99745  24.044  36.814   3.211
34519W        W99746  33.934  35.381  12.126
34520W        W99747  22.537  33.830  10.680
34521W        W99748  23.194  38.600   0.345
34522W        W99749   9.282  21.122  14.970
34523W        W99750  19.311  39.166   4.112
34524W        W99751  19.683  38.575  11.045
34525W        W99752  11.967  16.808  11.127
34526W        W99753  34.395  19.030   4.117
34527W        W99754  43.888   5.802   5.037
34528W        W99755  32.840  40.660  13.771
34529W        W99756  18.408  23.703  11.096
34530W        W99757  21.117   7.616   3.240
34531W        W99758   5.076  40.508   2.305
34532W        W99759  38.892  27.410   4.283
34533W        W99760   0.689  15.571  12.810
34534W        W99761   9.289  44.883   2.081
34535W        W99762   6.144  21.049  11.597
34536W        W99763  22.062   1.440  12.728
34537W        W99764  44.976  30.404  13.960
34538W        W99765  16.525   0.143  13.809
34539W        W99766  43.375  44.310   1.868
34540W        W99767  32.303   3.972   4.108
34541W        W99768  30.148   4.775   2.886
34542W        W99769   3.453   0.703  14.770
34543W        W99770  35.350  17.365  11.632
34544W        W99771  28.162  32.415  14.835
34545W        W99772  36.522  40.457   1.847
34546W        W99773  24.545   1.559  10.243
34547W        W99774  20.839   3.225   3.118
34548W        W99775  36.508  17.805   0.423
34549W        W99776  27.626  10.916   0.688
34550W        W99777   5.643  33.606  11.398
34551W        W99778  13.339  44.833   4.120
34552W        W99779  44.043  24.773   1.777
34553W        W99780  15.055  40.280  11.177
34554W        W99781  34.825   0.809  13.063
34555W        W99782  28.763  43.494  11.136
34556W        W99783  21.068  42.489   3.351
34557W        W99784  31.124  30.178  14.293
34558W        W99785   8.973  44.697  11.524
34559W        W99786  12.751  11.046  13.458
34560W        W99787  23.524  19.043   3.217
34561W        W99788  12.400  36.792   3.691
34562W        W99789   2.988  15.625  10.987
34563W        W99790  19.276  23.196  11.917
34564W        W99791  43.560  42.433   0.494
34565W        W99792   8.180   0.718  11.131
34566W        W99793  33.863  20.519  11.830
34567W        W99794  32.622   5.675  11.555
34568W        W99795  20.816  30.901  14.801
34569W        W99796  32.982  17.181   3.675
34570W        W99797  30.559  43.665  11.578
34571W        W99798  14.874   0.892   3.749
34572W        W99799  13.659  35.051  12.024
34573W        W99800  41.349   8.268   1.606
34574W        W99801   3.988  31.896  13.905
34575W        W99802  18.248   6.701  11.578
34576W        W99803  14.705  37.950   1.679
34577W        W99804  34.495  39.390   4.037
34578W        W99805  12.233  31.962  10.743
34579W        W99806   5.647  28.236   1.725
34580W        W99807  34.392  33.091   1.334
34581W        W99808  17.630  26.671   3.048
34582W        W99809   8.282  29.559  10.761
34583W        W99810  38.293  43.523   3.665
34584W        W99811  39.235   3.995  12.065
34585W        W99812  35.113  20.237   0.724
34586W        W99813  23.142  40.076   1.188
34587W        W99814  43.768  35.391   0.447
34588W        W99815   7.389  14.695  14.787
34589W        W99816  42.854  12.885   0.464
34590W        W99817  32.111  13.141   0.327
34591W        W99818   6.524   8.935  13.567
34592W        W99819  39.298  14.982   1.665
34593W        W99820  27.426  15.629   1.747
34594W        W99821  36.650  16.552   1.016
34595W        W99822   8.750  25.497   0.343
34596W        W99823  36.575   4.284  14.779
34597W        W99824  32.933   1.265  14.817
34598W        W99825   5.425  28.082  10.666
34599W        W99826  28.125  32.315   2.837
34600W        W99827   9.299  36.996   2.110
34601W        W99828  13.408  14.886   0.101
34602W        W99829  23.240   9.914   1.736
34603W        W99830  18.250  44.330   3.168
34604W        W99831  24.668  30.108   4.153
34605W        W99832   7.402  13.675  11.039
34606W        W99833  24.029  32.385   4.170
34607W        W99834  11.619  42.787  14.532
34608W        W99835   4.633  34.512  10.669
34609W        W99836  34.788  29.124   4.943
34610W        W99837  12.805  40.517  12.438
34611W        W99838  16.093   3.765  11.004
34612W        W99839  44.466  44.695  11.985
34613W        W99840  26.536  36.021  10.390
34614W        W99841  32.354  38.848   0.888
34615W        W99842  36.470  20.125   0.761
34616W        W99843  30.899   9.341  10.695
34617W        W99844   8.814  25.381  13.528
34618W        W99845  13.234  19.284  14.231
34619W        W99846   6.996   3.395  11.854
34620W        W99847  24.975  42.220  14.764
34621W        W99848  42.983  39.088   3.660
34622W        W99849   5.678   9.308   0.903
34623W        W99850  40.425  13.714   4.210
34624W        W99851   7.931   5.036  14.288
34625W        W99852  17.551  36.006  14.763
34626W        W99853  33.624  28.473  10.624
34627W        W99854  44.018   7.145  13.614
34628W        W99855  25.249  24.394   5.067
34629W        W99856  38.171  39.755  14.971
34630W        W99857  28.554   2.674  11.564
34631W        W99858  24.404  44.034  14.832
34632W        W99859   0.045  41.074   2.178
34633W        W99860   5.157  35.951  12.528
34634W        W99861   2.744   9.211   3.216
34635W        W99862   0.531  13.092  13.695
34636W        W99863  28.037  38.065   1.737
34637W        W99864  33.439  36.293   2.755
34638W        W99865   1.582  23.069   0.856
34639W        W99866  37.142  39.825   3.876
34640W        W99867  41.461   7.802   3.644
34641W        W99868  33.508  30.219   3.384
34642W        W99869  44.481  37.580   4.443
34643W        W99870  22.015  18.775   0.536
34644W        W99871  24.224  31.302  13.257
34645W        W99872  43.364  28.167  14.771
34646W        W99873  14.843  16.816   1.877
34647W        W99874  15.136  36.869   3.319
34648W        W99875  35.090  16.745  14.965
34649W        W99876  38.378  39.392  12.196
34650W        W99877   2.246  21.123   1.119
34651W        W99878  29.413   4.852  11.525
34652W        W99879  42.036  26.195   1.379
34653W        W99880  34.690   7.138  11.171
34654W        W99881  19.666  23.257  13.273
34655W        W99882  39.827  40.523  10.714
34656W        W99883  43.949   9.943   0.227
34657W        W99884   4.806  41.950   0.287
34658W        W99885   2.635  42.253  12.839
34659W        W99886  21.817  31.577  10.685
34660W        W99887  24.827  18.574   1.894
34661W        W99888  21.953  32.622  14.776
34662W        W99889  28.194   0.870   2.347
34663W        W99890   3.680  26.126  10.478
34664W        W99891  37.310  37.557   0.930
34665W        W99892  44.311  40.451   2.288
34666W        W99893  41.468  33.179  12.996
34667W        W99894  42.507  25.646   3.982
34668W        W99895  39.775  31.157  10.805
34669W        W99896  13.096  18.069  10.743
34670W        W99897  37.832  42.392  13.522
34671W        W99898  16.120  16.776   4.130
34672W        W99899   7.080  23.366  14.026
34673W        W99900  10.656  37.088   3.872
34674W        W99901  35.136  40.517  14.998
34675W        W99902  35.297   1.948   4.897
34676W        W99903  43.799  36.036  12.576
34677W        W99904  24.922   6.864   4.560
34678W        W99905  33.913   8.501   4.273
34679W        W99906   9.741  15.522   1.644
34680W        W99907  20.709  11.323   4.325
34681W        W99908   6.306   0.717  11.126
34682W        W99909  26.098  41.442   2.573
34683W        W99910  23.702  32.681   2.218
34684W        W99911   9.925  30.433   9.763
34685W        W99912  17.493  23.200   2.260
34686W        W99913  12.954  17.211   0.805
34687W        W99914  44.494  30.275  11.948
34688W        W99915  29.070  24.245   3.581
34689W        W99916  37.562  18.214   0.440
34690W        W99917  15.622  19.115   0.508
34691W        W99918   3.938  32.541   0.888
34692W        W99919  11.863  24.917   0.846
34693W        W99920  25.940  34.495   2.152
34694W        W99921  11.202  19.708  13.433
34695W        W99922   2.951  17.065   4.553
34696W        W99923  23.571  37.812   4.023
34697W        W99924  29.914  11.412   2.881
34698W        W99925  28.815  35.990   3.588
34699W        W99926  16.136  11.749   2.891
34700W        W99927   7.743  36.311   2.859
34701W        W99928  10.759  15.337  12.920
34702W        W99929  19.740   6.655   2.229
34703W        W99930  38.225  29.619  12.304
34704W        W99931  36.967  12.616   3.318
34705W        W99932  12.040  23.649  12.848
34706W        W99933  41.746  31.593  12.477
34707W        W99934  27.008   3.421   3.604
34708W        W99935  18.035  39.570   1.945
34709W        W99936   7.406  33.235  14.508
34710W        W99937   8.712  29.370   4.609
34711W        W99938   7.924  42.334  14.730
34712W        W99939  28.634   9.200   4.322
34713W        W99940  26.014   9.249  14.978
34714W        W99941  26.452  18.982  10.676
34715W        W99942   8.991   1.377   0.414
34716W        W99943  18.293  18.177  12.562
34717W        W99944  15.574  21.330   1.381
34718W        W99945   1.740  36.477  13.038
34719W        W99946  15.362   9.366  10.725
34720W        W99947  12.391  43.202  12.386
34721W        W99948  12.227  34.638  10.719
34722W        W99949  27.862   8.703  13.887
34723W        W99950   6.920  20.744  11.248
34724W        W99951  36.690  34.006   2.950
34725W        W99952   4.479  21.323   1.836
34726W        W99953  25.138  44.111   1.265
34727W        W99954  36.480  42.959   0.346
34728W        W99955  44.394  42.283   3.414
34729W        W99956   5.564  24.743   2.444
34730W        W99957  25.786  25.148  10.730
34731W        W99958  40.826  28.544   3.323
34732W        W99959  21.363   0.393   4.478
34733W        W99960  15.139  28.623  12.398
34734W        W99961  33.932   1.016  11.591
34735W        W99962  36.252  30.701  10.811
34736W        W99963  15.808  17.836  11.747
34737W        W99964  17.757  14.178   1.181
34738W        W99965  26.729  16.344  12.587
34739W        W99966  26.931  39.389   1.782
34740W        W99967  12.713   8.148  14.591
34741W        W99968  33.947  10.635  10.802
34742W        W99969  26.842  27.926   4.931
34743W        W99970  13.189  35.549   1.410
34744W        W99971  10.732  38.043   1.694
34745W        W99972  21.564  11.790  10.797
34746W        W99973   7.086  11.284  13.561
34747W        W99974  17.897  25.849   3.396
34748W        W99975  24.979   8.243  13.776
34749W        W99976  14.522  27.485  13.663
34750W        W99977  30.382  35.903  11.716
34751W        W99978   4.602  39.016   0.455
34752W        W99979  34.384  44.987   2.437
34753W        W99980  44.638   4.271   1.207
34754W        W99981  30.884  26.529  12.557
34755W        W99982   4.375   9.372  12.591
34756W        W99983  24.461  37.801   4.607
34757W        W99984  26.510  21.240   1.438
34758W        W99985   7.747   6.297   2.611
34759W        W99986  32.139  20.865  11.226
34760W        W99987  26.786  32.075   1.063
34761W        W99988  39.277   8.623   2.201
34762W        W99989  37.922   7.392   4.093
34763W        W99990  20.058  26.908   3.713
34764W        W99991  39.278  15.981  13.424
34765W        W99992   4.724  23.770  14.037
34766W        W99993  22.378  29.309  10.237
34767W        W99994   4.511  28.662  13.953
34768W        W99995  24.034  13.741  11.305
34769W        W99996  21.651  17.752   0.355
34770W        W99997  19.074  16.139   0.340
34771W        W99998  16.190  12.165  12.471
34772W        W99999  38.735  36.016   0.506
34773W        W    0   6.127  26.484   1.799
34774W        W    1   4.001  30.637   3.044
34775W        W    2  32.666  40.493   1.402
34776W        W    3   4.192  39.043  12.008
34777W        W    4  28.482  21.099   2.378
34778W        W    5  13.903  41.707   1.959
34779W        W    6  20.685   7.906  10.725
34780W        W    7  29.442   9.632   1.032
34781W        W    8   5.166  19.828  14.022
34782W        W    9   3.946  34.244  13.325
34783W        W   10   6.208  32.435  11.965
34784W        W   11  39.588  32.512  11.303
34785W        W   12  26.075  21.797  11.552
34786W        W   13  21.646  37.441  10.653
34787W        W   14  42.842  17.976  11.606
34788W        W   15   2.588  42.337  13.917
34789W        W   16  38.822  25.185  13.907
34790W        W   17   4.993   1.453   0.373
34791W        W   18  12.277  23.757   3.801
34792W        W   19  39.578   4.976   0.773
34793W        W   20   1.012  38.426   4.909
34794W        W   21  14.541  43.996   1.746
34795W        W   22   0.605   6.783  12.695
34796W        W   23   8.452  17.119   4.901
34797W        W   24   0.923  10.312  11.172
34798W        W   25  38.021  32.095  10.867
34799W        W   26  31.459  24.445  12.960
34800W        W   27  32.129  44.814  14.208
34801W        W   28  36.524  39.478   2.753
34802W        W   29   7.304   6.688  11.187
34803W        W   30   9.721   2.701  11.650
34804W        W   31   3.047  25.604   4.565
34805W        W   32  28.675   3.917   4.046
34806W        W   33  28.245   6.902   0.197
34807W        W   34   6.332  37.465   0.955
34808W        W   35  37.110  21.242   4.941
34809W        W   36  37.329   0.070  13.916
34810W        W   37   2.457  42.840  10.857
34811W        W   38  28.053  18.304  11.675
34812W        W   39  17.287   6.359  14.024
34813W        W   40  14.574  14.639   3.720
34814W        W   41  18.013   5.657  10.855
34815W        W   42   9.391   8.739  12.764
34816W        W   43  15.687   1.565  11.059
34817W        W   44  33.433  21.743  13.208
34818W        W   45  31.137  42.118   0.615
34819W        W   46  39.470  42.853   1.142
34820W        W   47  14.922  25.403   0.884
34821W        W   48  21.916  26.546  14.027
34822W        W   49   8.317   1.478   2.715
34823W        W   50  44.977  33.924  10.637
34824W        W   51  40.235  31.692  11.109
34825W        W   52   3.965  40.982   3.380
34826W        W   53   2.156   5.876  12.079
34827W        W   54  24.508  26.663   2.453
34828W        W   55  27.395   6.463   2.840
34829W        W   56  18.146  14.743   4.562
34830W        W   57  33.972  13.918  11.113
34831W        W   58  23.525  18.791   3.664
34832W        W   59  34.933   2.122   3.287
34833W        W   60  40.927  17.434   0.762
34834W        W   61   4.789  35.975   3.831
34835W        W   62  25.502  18.098   1.670
34836W        W   63  14.787   2.499  12.229
34837W        W   64  13.162  26.154   1.429
34838W        W   65  19.824  33.416  14.794
34839W        W   66  10.883  22.962  12.101
34840W        W   67   4.441  18.156   1.482
34841W        W   68   2.832   2.552  14.023
34842W        W   69  30.237  23.700  13.060
34843W        W   70  19.089  34.644  12.906
34844W        W   71  43.880  39.624   2.214
34845W        W   72   3.937  39.041  14.586
34846W        W   73  24.437   9.669  10.897
34847W        W   74  35.621   8.496   0.370
34848W        W   75  32.614  43.346   2.766
34849W        W   76  30.985  37.318  14.819
34850W        W   77  34.876   2.363   3.765
34851W        W   78  22.086  40.704   1.941
34852W        W   79  12.753  29.026  13.455
34853W        W   80  32.399  11.863   1.397
34854W        W   81  20.779  31.665  12.414
34855W        W   82  24.061  16.290   3.286
34856W        W   83  32.235  12.542  10.671
34857W        W   84  17.989   9.322   4.329
34858W        W   85  20.301  23.612   4.216
34859W        W   86  23.556   6.948  14.747
34860W        W   87  30.166  33.307  13.799
34861W        W   88  40.123   4.144  13.147
34862W        W   89  17.239  20.474  13.886
34863W        W   90   9.046  32.015   0.691
34864W        W   91  23.519   2.855  12.847
34865W        W   92   9.335  41.331   3.623
34866W        W   93  24.997  28.875   4.533
34867W        W   94  31.761  15.661  14.290
34868W        W   95  35.104  30.107   1.489
34869W        W   96  35.981   8.962   4.535
34870W        W   97  44.139   0.846   3.644
34871W        W   98  10.095  15.170  11.846
34872W        W   99  34.336  33.196   2.240
34873W        W  100  26.047  12.281  11.620
34874W        W  101  40.256  42.378   1.300
34875W        W  102  21.170  25.271  12.042
34876W        W  103  39.055  41.305  10.366
34877W        W  104  37.469  44.071   4.515
34878W        W  105  17.004  35.535   2.722
34879W        W  106  32.028  35.248   9.912
34880W        W  107  28.997   1.957   2.277
34881W        W  108  17.920   4.834   3.349
34882W        W  109   4.466  27.444  12.978
34883W        W  110  27.963   5.210   9.942
34884W        W  111  12.687   9.297   0.875
34885W        W  112   6.483  30.875  14.003
34886W        W  113  15.602   3.286  13.088
34887W        W  114  28.516  14.734   4.040
34888W        W  115  31.615  43.098  10.851
34889W        W  116   1.169  40.697   3.290
34890W        W  117   3.949  36.085  13.549
34891W        W  118  28.562   4.288   4.398
34892W        W  119   2.846  14.892  11.622
34893W        W  120  43.877  36.566   0.356
34894W        W  121  22.928  40.736  14.955
34895W        W  122   9.722  19.487   4.589
34896W        W  123   2.455  15.632   2.195
34897W        W  124  38.768   8.166  14.431
34898W        W  125  40.593  40.563   4.290
34899W        W  126   1.214  24.530   2.256
34900W        W  127  15.843  40.810   3.641
34901W        W  128  13.313   5.885   2.655
34902W        W  129  32.146  17.444  10.570
34903W        W  130   0.852  43.969   0.705
34904W        W  131  42.860  24.728   4.961
34905W        W  132  31.363  33.925  14.597
34906W        W  133  40.370  11.944   0.372
34907W        W  134  37.262  35.485  11.625
34908W        W  135  14.710  21.906   3.556
34909W        W  136  19.109  41.947   4.196
34910W        W  137  12.661  15.100   1.370
34911W        W  138   6.636  13.775   2.856
34912W        W  139  20.230  41.089  11.678
34913W        W  140  39.862  18.118  10.743
34914W        W  141  11.321  13.731  13.479
34915W        W  142  19.248  10.610   4.327
34916W        W  143  27.076  21.157   3.087
34917W        W  144  19.243  39.311   3.052
34918W        W  145  11.086  38.026  11.551
34919W        W  146   7.618  35.011  12.436
34920W        W  147   9.560  22.132  14.158
34921W        W  148  23.044  22.182  11.168
34922W        W  149  40.411   6.679  11.934
34923W        W  150  42.488  11.757  12.601
34924W        W  151  36.808   8.032   3.983
34925W        W  152   0.775  14.881   1.648
34926W        W  153  23.176   9.132  12.409
34927W        W  154  15.232   3.296   0.959
34928W        W  155  38.967  22.766  10.013
34929W        W  156  21.982   8.664  14.518
34930W        W  157   3.196  11.265  10.544
34931W        W  158   9.901  24.646   1.274
34932W        W  159  30.940  29.653  10.217
34933W        W  160  36.808  43.717  12.529
34934W        W  161  20.454  38.933  14.327
34935W        W  162  38.739  21.790   4.438
34936W        W  163  40.444  23.759  12.578
34937W        W  164  11.414  30.015   1.914
34938W        W  165  32.119   8.185   3.668
34939W        W  166  16.642  42.771   3.721
34940W        W  167  20.485  33.969   2.776
34941W        W  168  22.596  11.836   3.602
34942W        W  169  30.646  18.570  14.472
34943W        W  170  41.915   3.176  11.657
34944W        W  171  32.155   5.927  13.806
34945W        W  172  25.134  28.644   4.086
34946W        W  173  28.922  44.390   3.418
34947W        W  174  13.356  44.359   1.367
34948W        W  175  24.767  10.895  13.407
34949W        W  176  42.580  39.862   0.417
34950W        W  177  17.984  11.065   4.398
34951W        W  178  42.736   4.453   3.156
34952W        W  179  10.501  33.164   3.079
34953W        W  180   2.377  44.635   1.472
34954W        W  181  30.198  15.198   0.149
34955W        W  182  31.149   6.158  13.094
34956W        W  183   9.726  44.513   2.059
34957W        W  184  13.133   8.600  14.643
34958W        W  185  28.833  12.366  12.485
34959W        W  186   7.359  16.245  13.742
34960W        W  187  12.360   7.855   0.033
34961W        W  188  16.620   8.990   3.298
34962W        W  189  12.608  44.818   1.226
34963W        W  190  20.919   1.660   4.068
34964W        W  191  27.699  40.893  13.477
34965W        W  192  18.728  42.822   2.131
34966W        W  193  21.238   9.607  14.688
34967W        W  194  27.525  32.384  13.139
34968W        W  195  23.511  36.018  14.929
34969W        W  196   5.115  16.774   9.844
34970W        W  197   9.174  40.608  10.796
34971W        W  198  17.972   9.527   0.844
34972W        W  199  33.544  17.529  13.404
34973W        W  200   6.404  35.086  13.398
34974W        W  201  38.260  40.372  12.630
34975W        W  202  13.813  22.243   3.207
34976W        W  203  44.872  14.358   4.266
34977W        W  204  31.852  20.167   4.709
34978W        W  205  38.862  18.640   1.013
34979W        W  206  18.097   8.955  12.483
34980W        W  207  32.108   9.817  13.750
34981W        W  208  14.478  41.041  12.536
34982W        W  209  39.109  39.857   3.058
34983W        W  210  39.288  21.368  11.283
34984W        W  211  23.905  18.077   1.805
34985W        W  212  38.541  19.077   0.418
34986W        W  213  36.460  22.840  13.178
34987W        W  214   8.043  28.964  13.639
34988W        W  215   5.872  25.924   4.587
34989W        W  216  12.609  24.754   1.738
34990W        W  217  29.541  40.406   1.823
34991W        W  218   0.756  29.830   4.552
34992W        W  219  16.578  38.065   4.246
34993W        W  220  37.883  24.368  13.926
34994W        W  221  44.779  31.869  11.547
34995W        W  222  28.345  38.683  13.745
34996W        W  223   3.747   9.937   0.946
34997W        W  224  34.341  42.240   1.544
34998W        W  225  39.478   1.908  12.079
34999W        W  226  30.847  39.490   3.314
35000W        W  227  12.809  14.609   1.468
35001W        W  228  10.855   0.792  13.078
35002W        W  229  10.690  17.205   4.102
35003W        W  230  24.089  25.293   1.940
35004W        W  231  10.294   4.601   3.421
35005W        W  232  41.311   2.428   4.585
35006W        W  233  43.400  33.837   0.722
35007W        W  234   1.494   6.594  10.615
35008W        W  235  33.942  16.425   0.320
35009W        W  236  38.961  32.124   3.590
35010W        W  237  32.631  15.289  14.513
35011W        W  238  31.121  23.288   2.805
35012W        W  239   7.378  41.261  13.225
35013W        W  240  17.791   8.228   1.305
35014W        W  241  25.080  14.494   2.777
35015W        W  242  11.216   4.252   2.133
35016W        W  243  17.122  42.167  14.407
35017W        W  244  29.771  28.606  14.407
35018W        W  245  24.818  29.048  10.752
35019W        W  246  29.179   1.240  10.654
35020W        W  247  31.354  38.988   0.689
35021W        W  248  31.469  37.914  12.048
35022W        W  249  26.787  10.240  13.793
35023W        W  250  16.907   2.779   2.487
35024W        W  251  17.068   4.288  12.994
35025W        W  252  11.031  12.956  10.796
35026W        W  253  33.116  17.618   0.319
35027W        W  254   1.258  16.278  13.330
35028W        W  255  24.990  29.324   3.340
35029W        W  256  28.381   3.486   3.386
35030W        W  257  27.362   0.240  13.337
35031W        W  258  43.918  13.687  12.484
35032W        W  259  37.484   1.267  12.881
35033W        W  260  27.499  30.356   2.803
35034W        W  261   1.689  13.443   4.197
35035W        W  262  31.170  11.324   3.315
35036W        W  263  19.253  41.499   3.249
35037W        W  264  28.600  19.505  12.420
35038W        W  265   0.732  28.623   1.661
35039W        W  266  25.565  42.716   0.496
35040W        W  267  32.987   6.844   2.636
35041W        W  268   2.961  29.248   1.758
35042W        W  269  17.187  44.589   2.335
35043W        W  270   0.033  32.426   4.592
35044W        W  271  11.783  42.207  13.031
35045W        W  272   2.307  18.491   2.904
35046W        W  273  16.267  22.982   2.111
35047W        W  274  34.569  33.614   3.708
35048W        W  275  43.863  33.953  10.713
35049W        W  276  21.019  26.615  12.840
35050W        W  277  19.387  12.431   4.554
35051W        W  278  26.059  36.254  10.482
35052W        W  279  38.480   0.076  12.033
35053W        W  280  21.202  40.272   4.959
35054W        W  281  14.696   6.897   4.990
35055W        W  282  35.092  10.391  14.028
35056W        W  283  14.310  43.550  13.946
35057W        W  284  19.186  33.070   0.735
35058W        W  285  36.188  31.885  14.908
35059W        W  286  29.550   3.995   0.736
35060W        W  287  42.460   8.367   4.474
35061W        W  288  13.700  26.613   2.721
35062W        W  289  24.493  26.024   1.605
35063W        W  290  18.872   0.962   1.697
35064W        W  291  26.615  34.355  10.999
35065W        W  292  36.872  42.318   0.376
35066W        W  293   9.850  23.461   3.136
35067W        W  294   5.085  42.752  11.244
35068W        W  295  10.583   0.439   1.956
35069W        W  296   6.587  29.924  11.192
35070W        W  297  11.213  26.566  13.559
35071W        W  298   8.465  22.581  10.911
35072W        W  299   5.171   4.808   0.537
35073W        W  300   1.069   3.298   2.695
35074W        W  301  27.014   4.970  12.941
35075W        W  302   3.970   9.713  12.136
35076W        W  303  39.053  44.972  12.964
35077W        W  304   8.399  42.278  12.661
35078W        W  305   5.733   0.321  12.016
35079W        W  306  17.807   5.355   2.852
35080W        W  307  31.583  17.484  12.966
35081W        W  308  15.928  10.400  11.620
35082W        W  309  11.366  41.523   1.656
35083W        W  310  42.925   3.789   4.907
35084W        W  311  12.276  14.368   1.212
35085W        W  312  30.855   3.810   1.303
35086W        W  313  17.075  11.531   0.330
35087W        W  314  15.976  34.312   1.699
35088W        W  315  13.638  34.926  14.211
35089W        W  316  13.098  18.703   4.150
35090W        W  317  33.918  42.977   4.405
35091W        W  318  29.009   1.459  12.150
35092W        W  319  41.817  12.273  13.504
35093W        W  320  17.024  23.110  14.989
35094W        W  321   5.075  44.876  14.294
35095W        W  322   7.111  10.105   1.972
35096W        W  323  33.183   7.318  11.152
35097W        W  324  36.081   8.639  14.716
35098W        W  325   2.541  32.337  12.472
35099W        W  326  36.771  26.191  14.056
35100W        W  327  13.258  37.926  12.555
35101W        W  328  24.486   3.822   2.654
35102W        W  329  17.139  33.282   3.066
35103W        W  330  33.849  41.800  14.824
35104W        W  331  25.036  30.741  12.003
35105W        W  332  20.818  17.113  14.318
35106W        W  333  33.319   2.368  14.769
35107W        W  334  22.594   8.334   4.608
35108W        W  335  13.531  19.715   3.417
35109W        W  336   5.479   7.415  12.424
35110W        W  337  16.853   1.931  14.059
35111W        W  338  31.214   0.968  14.947
35112W        W  339   9.387  20.559   0.207
35113W        W  340  28.478  26.202   4.609
35114W        W  341  21.531  36.002  10.713
35115W        W  342  26.572   5.418   1.284
35116W        W  343  36.831  29.051   3.107
35117W        W  344   6.487   5.714  14.815
35118W        W  345  13.611  44.852  12.963
35119W        W  346  34.623  22.190   3.177
35120W        W  347  16.934  35.541  13.832
35121W        W  348   0.036  26.764  12.539
35122W        W  349   2.827  32.273  13.392
35123W        W  350   7.098  16.267   3.338
35124W        W  351  29.614  25.649   1.855
35125W        W  352  25.133  14.261   3.760
35126W        W  353  12.655  23.900   0.854
35127W        W  354  25.171  24.182   0.833
35128W        W  355  13.321  38.061  12.059
35129W        W  356   9.241  10.063   1.279
35130W        W  357  13.671  42.850   4.613
35131W        W  358  13.168  17.583   4.584
35132W        W  359  23.520  40.963  11.091
35133W        W  360  23.397   9.740   3.874
35134W        W  361  29.707   8.920   0.526
35135W        W  362  39.079  15.754  14.119
35136W        W  363  12.855  29.234  12.963
35137W        W  364  20.782  37.535  13.896
35138W        W  365   5.176  26.034  11.857
35139W        W  366  38.110  37.371  12.883
35140W        W  367  18.782   6.210  10.471
35141W        W  368  22.718  18.562   4.513
35142W        W  369  25.077  18.604   1.417
35143W        W  370  11.078   4.373  10.912
35144W        W  371  14.037  38.607  12.594
35145W        W  372  40.771   4.160   0.331
35146W        W  373  42.372  37.909  12.650
35147W        W  374   8.877  44.255   0.368
35148W        W  375  41.847  12.434   2.481
35149W        W  376   0.324  40.741  13.110
35150W        W  377  41.991  30.467   1.741
35151W        W  378  35.377  44.110   4.313
35152W        W  379  43.020  17.741   3.629
35153W        W  380   4.570  18.071  10.034
35154W        W  381  44.392  27.690  13.369
35155W        W  382  44.898  18.767  12.050
35156W        W  383  35.093  21.046  12.072
35157W        W  384  40.098  23.287   3.076
35158W        W  385   2.031  37.822   0.360
35159W        W  386  16.630  26.437   0.863
35160W        W  387   2.139   9.728  12.944
35161W        W  388   2.690   9.120  14.534
35162W        W  389  16.208  44.313  11.561
35163W        W  390  34.079  17.147  12.999
35164W        W  391  17.828  16.113  10.968
35165W        W  392  30.581  34.404   1.464
35166W        W  393   2.325  18.313   5.046
35167W        W  394  33.924   6.482   2.399
35168W        W  395  26.971  23.739   3.477
35169W        W  396   4.408  11.710  10.433
35170W        W  397   1.154  27.922   3.151
35171W        W  398  19.711  26.489  14.923
35172W        W  399  23.768   8.224   1.392
35173W        W  400  22.553  35.129   0.349
35174W        W  401   2.994   2.886  13.293
35175W        W  402  18.012   6.264  12.470
35176W        W  403  19.149  11.817   4.522
35177W        W  404  22.346  17.240  14.246
35178W        W  405  38.304  17.837  12.387
35179W        W  406   2.940   5.042   3.514
35180W        W  407  24.594  22.874   1.775
35181W        W  408  13.493  13.782  14.775
35182W        W  409   9.820  39.781  13.146
35183W        W  410   2.254  40.714   3.857
35184W        W  411  33.662  26.262   3.754
35185W        W  412   4.310  36.837  14.501
35186W        W  413  30.507   4.440   2.647
35187W        W  414  21.674  27.976   3.573
35188W        W  415  23.039  19.327   3.071
35189W        W  416  29.443  37.788  10.749
35190W        W  417  41.155  26.634   0.468
35191W        W  418   7.431  16.731   4.434
35192W        W  419  25.973  20.950  11.186
35193W        W  420  42.068  41.318   5.190
35194W        W  421  22.824  10.875   4.704
35195W        W  422  22.772  21.662   2.998
35196W        W  423  18.363  37.498  12.589
35197W        W  424  39.894  34.818  12.480
35198W        W  425  44.082   1.427   0.238
35199W        W  426  18.031  32.315   2.743
35200W        W  427  39.530  37.532   4.613
35201W        W  428  18.232  10.505   0.969
35202W        W  429  34.564  26.312  13.945
35203W        W  430  42.993   8.641  14.958
35204W        W  431  19.179   7.960   3.815
35205W        W  432  31.417   5.686  14.271
35206W        W  433   1.710  32.717  12.074
35207W        W  434   0.208  10.106   4.250
35208W        W  435  28.518  20.315   1.961
35209W        W  436   8.433  20.067   2.779
35210W        W  437  42.918  40.292  14.602
35211W        W  438   4.389  30.950  14.976
35212W        W  439  26.729  30.963   2.777
35213W        W  440   7.442  18.713   1.435
35214W        W  441  13.316  43.333  12.899
35215W        W  442  21.281  32.624  12.480
35216W        W  443  38.089  38.423  13.036
35217W        W  444  10.822  32.155   2.301
35218W        W  445  22.675  25.402   3.642
35219W        W  446  32.572   3.418   0.357
35220W        W  447   0.296  17.201  13.460
35221W        W  448  28.061  18.438   4.645
35222W        W  449  21.047   7.897  11.489
35223W        W  450  24.564  22.424  11.592
35224W        W  451  20.791  44.249  10.990
35225W        W  452  36.055  21.321  10.568
35226W        W  453  41.381  16.279   4.595
35227W        W  454  29.089   5.472   0.044
35228W        W  455   1.366  17.815  13.775
35229W        W  456  19.545  12.440  12.864
35230W        W  457  34.133  33.425   4.796
35231W        W  458  12.859  23.122   3.201
35232W        W  459  33.802  43.598   3.074
35233W        W  460   9.676   6.315   2.864
35234W        W  461  34.986  13.015   4.962
35235W        W  462  43.312   6.691  12.439
35236W        W  463  12.326  33.015   0.859
35237W        W  464  17.154   0.268   3.462
35238W        W  465   1.512   2.408   0.762
35239W        W  466  37.603  43.525  14.794
35240W        W  467  25.559  24.041  13.564
35241W        W  468  37.581  25.726  10.569
35242W        W  469  35.844  32.947   4.750
35243W        W  470  43.282  41.310   2.324
35244W        W  471  40.749   9.859   4.097
35245W        W  472  17.837  26.266  11.518
35246W        W  473   1.434  39.070  13.538
35247W        W  474  28.941  25.222   1.421
35248W        W  475  22.747  14.155   1.336
35249W        W  476  21.170  41.455  10.753
35250W        W  477  37.034   5.435   3.695
35251W        W  478  14.758  32.744   5.352
35252W        W  479  19.476  38.285   1.798
35253W        W  480   6.273  40.067  14.963
35254W        W  481  12.284   6.568   0.786
35255W        W  482  16.640  14.001  13.796
35256W        W  483  14.601  20.123   0.896
35257W        W  484  33.500   2.829   1.167
35258W        W  485  12.623  42.767  14.316
35259W        W  486   8.835   3.753  12.662
35260W        W  487  15.433  31.924   0.203
35261W        W  488   1.734  22.952  13.022
35262W        W  489  42.350  13.466   0.702
35263W        W  490  28.610  38.403   4.242
35264W        W  491  43.499   8.938   3.661
35265W        W  492  32.672  18.346  11.505
35266W        W  493  14.517   1.881  13.611
35267W        W  494   2.726  12.204  14.877
35268W        W  495  15.753   7.614  12.832
35269W        W  496   3.429  20.980  14.978
35270W        W  497  43.162  36.728   1.892
35271W        W  498   6.213  30.556  11.933
35272W        W  499  33.368  39.774   1.181
35273W        W  500  38.859  31.471   2.771
35274W        W  501  12.865   3.256  11.312
35275W        W  502  22.964  22.116   1.939
35276W        W  503   5.658  25.935  14.796
35277W        W  504   7.424  37.400   0.738
35278W        W  505  43.619  21.572  10.772
35279W        W  506  13.642  11.394   0.807
35280W        W  507  39.583  44.546   4.141
35281W        W  508  23.541  35.989   0.915
35282W        W  509   9.844  39.620   0.025
35283W        W  510  10.935  28.229  13.154
35284W        W  511  24.235  17.401  13.963
35285W        W  512  29.624  24.602   1.988
35286W        W  513   1.643  31.944  10.941
35287W        W  514  14.195  44.322  14.559
35288W        W  515   0.374  30.236  13.041
35289W        W  516  33.021  25.415  12.874
35290W        W  517   5.699  23.508   0.952
35291W        W  518   8.159   0.564   3.714
35292W        W  519  26.117   9.332  10.653
35293W        W  520  42.350  30.311   2.731
35294W        W  521  31.974  21.788   4.212
35295W        W  522  17.383  36.899  13.915
35296W        W  523  34.601  38.827  13.951
35297W        W  524  43.368   1.240  12.929
35298W        W  525  27.157  29.656   4.794
35299W        W  526  38.417  41.114  13.055
35300W        W  527  27.248  23.978   4.386
35301W        W  528   4.422   8.946  12.901
35302W        W  529  14.193  14.195   4.999
35303W        W  530  32.629   0.016   1.753
35304W        W  531  41.950  14.829  13.492
35305W        W  532  26.723  37.843  13.999
35306W        W  533   3.861  26.550  10.757
35307W        W  534  30.304  43.875   4.426
35308W        W  535  34.146  21.670   4.656
35309W        W  536   5.700  15.632  13.590
35310W        W  537  11.132  20.685   2.781
35311W        W  538  24.498  21.244   3.200
35312W        W  539   0.673  25.488   4.587
35313W        W  540  29.990   8.234  11.580
35314W        W  541  42.885  31.461   3.411
35315W        W  542  28.363  12.253  11.564
35316W        W  543   0.311  22.510  14.751
35317W        W  544  14.949  25.302   2.655
35318W        W  545  29.063  43.933   0.685
35319W        W  546  15.052  43.472  10.675
35320W        W  547  18.222  15.015   1.253
35321W        W  548  34.823  44.723  12.131
35322W        W  549   6.207  19.510   2.285
35323W        W  550  21.899  17.840   2.407
35324W        W  551  13.831  40.535   3.266
35325W        W  552   7.267  27.124   1.820
35326W        W  553  29.210   7.815   0.412
35327W        W  554  10.846   2.833   2.307
35328W        W  555   0.465  38.209   1.860
35329W        W  556   2.549  11.539  13.004
35330W        W  557  20.912   2.366  12.633
35331W        W  558  28.869  14.787  14.927
35332W        W  559  26.029  20.301  13.927
35333W        W  560  31.043  25.742  11.456
35334W        W  561   9.472  31.119   0.383
35335W        W  562  29.873  19.705   2.242
35336W        W  563  42.140  34.656   2.567
35337W        W  564   1.388   3.684  12.061
35338W        W  565  30.957  33.629  14.866
35339W        W  566  27.530   8.949   4.071
35340W        W  567  31.081  37.415   1.268
35341W        W  568   7.890  24.986  11.658
35342W        W  569  44.534  30.033  14.336
35343W        W  570   3.835   7.223   3.895
35344W        W  571  39.562  40.501  12.893
35345W        W  572  10.682   4.615  13.798
35346W        W  573  35.829  17.260  11.087
35347W        W  574   8.885  30.562   2.329
35348W        W  575  32.498  28.480   0.409
35349W        W  576  14.359  11.360   0.934
35350W        W  577  24.711  37.424  12.518
35351W        W  578   2.619   1.069  13.088
35352W        W  579  33.845  43.470   2.160
35353W        W  580  22.617  42.875  11.109
35354W        W  581  16.787   1.971   1.398
35355W        W  582   8.536  25.133   1.207
35356W        W  583   1.165  41.317   2.767
35357W        W  584  33.984  27.730  11.603
35358W        W  585  22.961  13.077  11.979
35359W        W  586  13.231  12.756  13.654
35360W        W  587  42.046  41.084   1.696
35361W        W  588  25.623  28.101  14.375
35362W        W  589  21.726  40.015   2.451
35363W        W  590   0.888   9.695  13.586
35364W        W  591  12.025  18.203  11.028
35365W        W  592  13.368   6.362   2.895
35366W        W  593  20.482  18.379  12.849
35367W        W  594  30.816  39.297   0.272
35368W        W  595  18.929  16.038   2.159
35369W        W  596   5.553  29.032  11.604
35370W        W  597  16.036  43.074  10.781
35371W        W  598   3.475   1.798   0.681
35372W        W  599  30.591  15.072   2.768
35373W        W  600  26.060   9.671  13.791
35374W        W  601  21.259  27.744  13.989
35375W        W  602  12.187   4.133  11.893
35376W        W  603  17.968  17.871  12.335
35377W        W  604   7.861   5.812  12.510
35378W        W  605  38.748  41.474  13.890
35379W        W  606  18.161  14.234   3.194
35380W        W  607  35.365  30.389   2.437
35381W        W  608  29.941  20.642   3.830
35382W        W  609  13.820  29.675  13.003
35383W        W  610   6.964  12.373  14.030
35384W        W  611  39.949  44.967  11.155
35385W        W  612   0.957  31.862  12.599
35386W        W  613  17.582  32.535  12.688
35387W        W  614  12.759  43.920   3.702
35388W        W  615  22.254   8.792   0.945
35389W        W  616  19.028  40.496   4.385
35390W        W  617  30.184  34.429  14.451
35391W        W  618  37.419  35.407   3.160
35392W        W  619  11.212  35.313   3.668
35393W        W  620  42.497  32.628  11.401
35394W        W  621  24.507  20.791   1.271
35395W        W  622   5.661  43.356  11.613
35396W        W  623   1.655  34.174   0.726
35397W        W  624  37.133  34.622   3.604
35398W        W  625  24.720  21.386  14.334
35399W        W  626   9.667   6.800  14.811
35400W        W  627  25.480   2.778   2.380
35401W        W  628  11.916  35.081  13.872
35402W        W  629   0.409  37.096   2.264
35403W        W  630  42.394  19.125  11.580
35404W        W  631  22.644  28.121  14.310
35405W        W  632  42.832  14.220  13.822
35406W        W  633  44.306  21.316   5.404
35407W        W  634   0.243   5.648   0.411
35408W        W  635  21.651  16.599  14.566
35409W        W  636  43.750   8.781  10.882
35410W        W  637   5.660   6.187  13.358
35411W        W  638  34.159  22.563  10.780
35412W        W  639  37.824  16.980   3.181
35413W        W  640   6.120  38.841   1.378
35414W        W  641  21.710  36.016   0.341
35415W        W  642  40.863  26.711   3.663
35416W        W  643  12.516  21.729  13.443
35417W        W  644  41.832  43.031   0.301
35418W        W  645   3.387  16.594   0.985
35419W        W  646  29.119   6.699  14.575
35420W        W  647  31.383  36.019  10.856
35421W        W  648  31.060   5.828   0.025
35422W        W  649  22.031   9.118   3.693
35423W        W  650  20.552   7.352   3.915
35424W        W  651  23.191   0.933   2.438
35425W        W  652  34.790   1.186   3.227
35426W        W  653  37.048  37.518   1.388
35427W        W  654  39.700  39.084  12.451
35428W        W  655  23.637  16.602   4.586
35429W        W  656  13.274  40.125  10.248
35430W        W  657  30.617  43.554   3.187
35431W        W  658  43.310  37.855   0.313
35432W        W  659   0.599  31.731   2.080
35433W        W  660  17.767   5.334  14.740
35434W        W  661   2.321  36.294  14.324
35435W        W  662  31.537  33.141  12.534
35436W        W  663  12.254   7.810   1.085
35437W        W  664  21.692  31.034   2.700
35438W        W  665  40.353   9.888   3.111
35439W        W  666  29.530  12.445  10.246
35440W        W  667  22.895  44.818   0.332
35441W        W  668   6.705   6.671  13.051
35442W        W  669  37.773  32.486  11.051
35443W        W  670  11.021   8.185   3.156
35444W        W  671  25.617  15.848   1.404
35445W        W  672  39.233  21.744  10.852
35446W        W  673  25.916  34.876  13.812
35447W        W  674  26.466   5.395   3.613
35448W        W  675   0.454  23.145   0.446
35449W        W  676  23.856  41.970  12.522
35450W        W  677   1.876   3.722  10.645
35451W        W  678  42.951   9.867  12.578
35452W        W  679  42.521  43.519  11.639
35453W        W  680  39.994  12.241  12.152
35454W        W  681  34.285  13.330   3.210
35455W        W  682   0.758  40.351   0.354
35456W        W  683  41.957  35.812   0.217
35457W        W  684  37.460  27.244  11.726
35458W        W  685  35.479  33.793  12.478
35459W        W  686   0.460  32.791   2.159
35460W        W  687  28.201  43.110  13.723
35461W        W  688   5.104  13.198   1.442
35462W        W  689   8.063  14.707   4.249
35463W        W  690  33.621  18.970  12.415
35464W        W  691  14.300  32.455   1.419
35465W        W  692  26.114  25.873  13.037
35466W        W  693   2.868   8.857   1.803
35467W        W  694   9.650  16.161  14.401
35468W        W  695  20.591   6.324   2.420
35469W        W  696  29.168  41.686  12.385
35470W        W  697  42.031  30.598   3.078
35471W        W  698  19.155  18.680  12.148
35472W        W  699   3.012  20.203  11.656
35473W        W  700  12.380  24.839  12.924
35474W        W  701  37.979   3.331  12.462
35475W        W  702  44.983  29.436   3.304
35476W        W  703  21.567  35.545  10.948
35477W        W  704  17.510  43.864  12.654
35478W        W  705   1.026   1.809   3.155
35479W        W  706  21.255   3.770   3.655
35480W        W  707  26.189  40.663   4.535
35481W        W  708  33.480   6.972   1.393
35482W        W  709  12.600   8.678  11.138
35483W        W  710  21.996  29.893  13.470
35484W        W  711  26.430  12.372   0.453
35485W        W  712  23.010  10.423   0.673
35486W        W  713  44.541  31.592   2.392
35487W        W  714  25.226   3.198   0.749
35488W        W  715  26.064   3.158   3.017
35489W        W  716  11.771  26.015   4.892
35490W        W  717  41.463   1.273  14.398
35491W        W  718  23.596  17.337  14.955
35492W        W  719  42.983  36.648  14.267
35493W        W  720  12.149  41.086  10.591
35494W        W  721  11.109  42.012  11.220
35495W        W  722  33.689  27.923   1.230
35496W        W  723   3.176  29.105  13.812
35497W        W  724  29.189  10.411   3.680
35498W        W  725  43.086  24.531  12.098
35499W        W  726  28.942   5.922   3.867
35500W        W  727  33.468  22.205  14.898
35501W        W  728   5.272  39.923  12.145
35502W        W  729   1.740  31.409   4.550
35503W        W  730  41.959  24.909   2.823
35504W        W  731  15.230  30.400  12.301
35505W        W  732   6.249  38.081  11.161
35506W        W  733  31.995  35.202   5.361
35507W        W  734  21.501  27.452   1.416
35508W        W  735  31.241   6.914  14.147
35509W        W  736   7.457  44.182   1.213
35510W        W  737   5.668  38.006  12.056
35511W        W  738  34.041  21.635   3.758
35512W        W  739  15.869   9.380  10.755
35513W        W  740  17.764  38.805  14.105
35514W        W  741  28.589  11.826  13.900
35515W        W  742  43.797   0.281  13.580
35516W        W  743  14.178   5.768   1.006
35517W        W  744   9.111  22.723   1.393
35518W        W  745   0.627  33.374  11.620
35519W        W  746  41.904  38.228  13.261
35520W        W  747  31.185  27.501  14.825
35521W        W  748   9.355   7.800  13.497
35522W        W  749  42.579  44.014  12.835
35523W        W  750  11.643  43.183   2.838
35524W        W  751  39.441  35.802  11.242
35525W        W  752   1.474  25.588   9.790
35526W        W  753  12.349  27.964  13.032
35527W        W  754  37.994  29.558  11.856
35528W        W  755  43.114   0.630  10.502
35529W        W  756  44.298  39.303   1.361
35530W        W  757  17.049  20.721   4.206
35531W        W  758  44.877  40.809  13.391
35532W        W  759  10.900  13.074   0.369
35533W        W  760  20.301  40.877   0.401
35534W        W  761  13.121   3.482  10.340
35535W        W  762  20.246  14.565  10.645
35536W        W  763  30.889   0.504  14.909
35537W        W  764  40.457  29.175  13.902
35538W        W  765  23.212   2.484  14.132
35539W        W  766   8.776  20.200  14.969
35540W        W  767  34.147   6.530  10.698
35541W        W  768  20.624  43.706   1.304
35542W        W  769   6.201  10.840  14.470
35543W        W  770  27.606  10.900  14.805
35544W        W  771  35.948  30.382   4.157
35545W        W  772   4.463  41.896  14.382
35546W        W  773   0.029   2.031  11.526
35547W        W  774  28.682  44.814   2.976
35548W        W  775   7.789  10.660   3.217
35549W        W  776   0.817  12.827  14.943
35550W        W  777  14.651  20.798   2.326
35551W        W  778   3.946   6.437  10.629
35552W        W  779  11.629  36.144  13.012
35553W        W  780   4.267  26.041   3.371
35554W        W  781  44.084   1.503  14.053
35555W        W  782  32.951  35.000  14.314
35556W        W  783   5.300   1.963   9.926
35557W        W  784  18.006  44.792   3.916
35558W        W  785  17.181  44.274   0.401
35559W        W  786   4.817  24.747   2.241
35560W        W  787  38.168  34.047  10.704
35561W        W  788  40.468  34.767   4.567
35562W        W  789  41.939  16.141  12.100
35563W        W  790  44.540  43.961  11.515
35564W        W  791   1.411  21.009   3.666
35565W        W  792  16.263  21.256   0.733
35566W        W  793   5.454  26.288   3.729
35567W        W  794  25.561  34.872   3.847
35568W        W  795  38.106  14.805   2.212
35569W        W  796  31.414   9.843   3.654
35570W        W  797  12.621  40.826   1.433
35571W        W  798  29.115  28.431   4.540
35572W        W  799  42.623   4.432  14.274
35573W        W  800   9.024  29.091   0.812
35574W        W  801  21.223   0.310  14.533
35575W        W  802   2.432  41.769   4.971
35576W        W  803  11.388  14.012  12.087
35577W        W  804  20.718  38.490  11.137
35578W        W  805  15.367   4.905  14.634
35579W        W  806  20.318   7.831   2.223
35580W        W  807  37.807  26.635   1.042
35581W        W  808  23.162  34.864   2.090
35582W        W  809  11.383  31.747  13.815
35583W        W  810  12.293  23.124   0.358
35584W        W  811  37.103  28.863  13.489
35585W        W  812  36.373  39.943  14.178
35586W        W  813  41.198  37.102   2.214
35587W        W  814  40.797   1.423   4.706
35588W        W  815  34.517  37.464  11.089
35589W        W  816  35.671  16.779   0.950
35590W        W  817  25.667  41.387   4.999
35591W        W  818  23.205   4.552   0.394
35592W        W  819  23.449  38.952  14.121
35593W        W  820  16.208   5.176  14.820
35594W        W  821  23.029   9.359  11.197
35595W        W  822  15.735  35.074  11.498
35596W        W  823  18.682  22.066   2.653
35597W        W  824  31.200  31.028   1.643
35598W        W  825  20.089  24.881  10.670
35599W        W  826   4.230  13.784   1.355
35600W        W  827  34.457  31.199   3.230
35601W        W  828  38.745   9.554  11.185
35602W        W  829  33.091  37.848  12.940
35603W        W  830  12.066  16.315  13.031
35604W        W  831  44.379  23.447  11.922
35605W        W  832  23.965  23.109   2.758
35606W        W  833   8.750   4.685  12.910
35607W        W  834   5.735  43.379  12.657
35608W        W  835  37.334  44.381  11.387
35609W        W  836  24.533  21.758  11.866
35610W        W  837  18.815  15.196  10.761
35611W        W  838  27.607  43.718   1.946
35612W        W  839  34.651  38.819   1.323
35613W        W  840  11.256  13.439   4.261
35614W        W  841  41.845  14.339  10.782
35615W        W  842  16.762  23.731  12.489
35616W        W  843   0.509  32.740  13.746
35617W        W  844   2.947  40.354  12.974
35618W        W  845  14.816  31.470   4.836
35619W        W  846  33.191  16.247   0.342
35620W        W  847   5.435   5.754   1.422
35621W        W  848  40.312  32.790   3.329
35622W        W  849  38.449  33.412   4.628
35623W        W  850  35.040   6.685  13.769
35624W        W  851  13.441  30.594  12.929
35625W        W  852  28.590  29.899   1.891
35626W        W  853  28.160  21.130   4.551
35627W        W  854  44.536  38.916   4.022
35628W        W  855  36.077  44.771  13.393
35629W        W  856  33.879  32.307   4.346
35630W        W  857  11.488  16.674   4.014
35631W        W  858  35.904  29.832   4.961
35632W        W  859  18.596  11.088   3.195
35633W        W  860  14.202  35.820  11.305
35634W        W  861  23.282  23.480  14.372
35635W        W  862  21.972  11.465  14.453
35636W        W  863  28.398   8.427  13.223
35637W        W  864  11.844  42.567   2.304
35638W        W  865  21.495  25.976  12.458
35639W        W  866  42.580  11.152  13.465
35640W        W  867  22.636  30.040   3.198
35641W        W  868  40.872  18.648   4.340
35642W        W  869  28.628  43.785  11.523
35643W        W  870  23.072  32.798   1.743
35644W        W  871  23.692   7.732   0.367
35645W        W  872  22.438  30.594   0.306
35646W        W  873  39.527   2.866  10.389
35647W        W  874   7.762  42.501  11.153
35648W        W  875   5.901  12.142   0.724
35649W        W  876   7.240  10.243   2.894
35650W        W  877  24.489  41.282   0.595
35651W        W  878  44.691  17.999   2.340
35652W        W  879  39.960  34.611   4.636
35653W        W  880  20.820  21.339  13.326
35654W        W  881  27.993  37.553   1.870
35655W        W  882  26.684  28.460  14.803
35656W        W  883  11.855  15.157  12.399
35657W        W  884  32.172  44.918  14.900
35658W        W  885  31.881  28.398  12.744
35659W        W  886  39.830  19.201  13.705
35660W        W  887  40.387   1.206  13.062
35661W        W  888   5.301   2.709  12.345
35662W        W  889  34.428  26.944   4.938
35663W        W  890  33.015  25.776   0.767
35664W        W  891   8.396  44.819  14.828
35665W        W  892  41.033  12.316  14.991
35666W        W  893  15.104  14.794  10.757
35667W        W  894  21.711   4.762  11.270
35668W        W  895   6.809  42.367   4.373
35669W        W  896  31.657  43.416   3.014
35670W        W  897  31.574   1.823  11.092
35671W        W  898  21.098  40.422  14.581
35672W        W  899  12.718   1.285   1.795
35673W        W  900  30.047   8.611   0.260
35674W        W  901  21.664  36.514   0.250
35675W        W  902  39.839   1.193  11.760
35676W        W  903  16.371  26.497  13.676
35677W        W  904  35.959  44.430   2.951
35678W        W  905  10.937  35.508   3.261
35679W        W  906  29.638  35.358   1.231
35680W        W  907  39.888  31.715  11.509
35681W        W  908   4.195   3.775   1.457
35682W        W  909  37.535   3.205   1.701
35683W        W  910   6.707  15.717  12.053
35684W        W  911  26.723  43.082   1.250
35685W        W  912  14.934  28.952   1.754
35686W        W  913   4.854   4.335  10.736
35687W        W  914   2.777   9.859  14.992
35688W        W  915   0.057  29.480   4.107
35689W        W  916   0.912  32.818   4.707
35690W        W  917  33.842   6.743   3.562
35691W        W  918  30.047  23.195  13.523
35692W        W  919  10.827   0.472   1.506
35693W        W  920  25.431  31.862  14.896
35694W        W  921  22.805   2.195   4.920
35695W        W  922  17.230  31.306  14.154
35696W        W  923   4.457  14.154   2.150
35697W        W  924  17.711  28.746  11.470
35698W        W  925  16.768  33.087   4.776
35699W        W  926  28.562  12.260  10.632
35700W        W  927  43.845  40.763   1.201
35701W        W  928   4.606  28.614  12.184
35702W        W  929   7.609  10.750  11.134
35703W        W  930  22.631  22.302  14.295
35704W        W  931  32.095  36.255  11.570
35705W        W  932  33.528  15.518   2.294
35706W        W  933  24.426  20.685   2.242
35707W        W  934  43.982  19.646   1.729
35708W        W  935  43.486  12.375   3.710
35709W        W  936  11.768   1.571  10.047
35710W        W  937   3.738  37.442  13.547
35711W        W  938  30.128  11.128   4.158
35712W        W  939  20.079   6.419   0.207
35713W        W  940  21.369  16.618  10.317
35714W        W  941  12.664  15.333   5.224
35715W        W  942  18.173   3.775   3.845
35716W        W  943  39.927   4.860  11.569
35717W        W  944  41.774  15.675   0.026
35718W        W  945   0.482  28.038  13.463
35719W        W  946  24.761  32.978  10.795
35720W        W  947  14.181  37.349  12.098
35721W        W  948  28.085  30.810   3.378
35722W        W  949  35.029  33.480   1.951
35723W        W  950   6.831  38.012  13.668
35724W        W  951  43.363  37.359   2.829
35725W        W  952  12.730  34.458  11.827
35726W        W  953  29.889  38.102  14.964
35727W        W  954  15.046  40.421   2.718
35728W        W  955  16.136  39.613   3.663
35729W        W  956  13.730  33.471  12.083
35730W        W  957  10.901   6.980  11.102
35731W        W  958  29.668  10.206  12.112
35732W        W  959   5.896  21.545   1.863
35733W        W  960  18.030  33.622   1.685
35734W        W  961  24.134   0.481   1.156
35735W        W  962  17.319   4.356  14.934
35736W        W  963   1.952  37.990  13.921
35737W        W  964  27.653  22.694  12.829
35738W        W  965  12.520   2.356   3.305
35739W        W  966  11.368  23.150  12.071
35740W        W  967  33.421  23.390   3.909
35741W        W  968   3.767   9.776  14.103
35742W        W  969  39.835  39.826  11.424
35743W        W  970  22.269  22.788  11.545
35744W        W  971  11.733   4.560   4.161
35745W        W  972  12.227  12.327  12.132
35746W        W  973  21.998  29.042   0.172
35747W        W  974  15.095  44.676  14.033
35748W        W  975  16.849  13.574  10.857
35749W        W  976  14.320   4.011  14.479
35750W        W  977  27.370  14.063   4.163
35751W        W  978  25.687  28.993  12.543
35752W        W  979  37.441  15.581   4.402
35753W        W  980  14.705  11.089  12.035
35754W        W  981  14.742   1.768  11.913
35755W        W  982  41.387  11.526   0.417
35756W        W  983  36.872  41.998  10.792
35757W        W  984   7.252  11.715  13.284
35758W        W  985  21.509  19.245  14.766
35759W        W  986  35.439  12.530  12.889
35760W        W  987  12.744  27.508  10.649
35761W        W  988  14.220  33.905  11.045
35762W        W  989  31.606  10.632   0.330
35763W        W  990  10.057  14.156  10.764
35764W        W  991   0.412  24.541  10.438
35765W        W  992  28.327  11.271  11.635
35766W        W  993  28.920  21.552  11.264
35767W        W  994  42.837  35.014  10.978
35768W        W  995   0.635  31.237  11.846
35769W        W  996  21.337  27.392   2.898
35770W        W  997  18.835  21.502   3.861
35771W        W  998  39.022  22.770   3.429
35772W        W  999   5.731   0.884   0.505
35773W        W 1000  36.866  10.441  13.760
35774W        W 1001  12.353  14.888  13.381
35775W        W 1002  28.444  14.499   4.540
35776W        W 1003  25.934  36.575  14.367
35777W        W 1004  37.506   8.437   1.334
35778W        W 1005   5.995  27.377   1.465
35779W        W 1006  24.273  15.914  11.280
35780W        W 1007  37.017  26.722  11.494
35781W        W 1008   8.394  20.260   1.413
35782W        W 1009  44.089  35.888   3.714
35783W        W 1010  34.974   5.166  11.195
35784W        W 1011  11.804  16.785   3.615
35785W        W 1012  40.063  16.316  14.759
35786W        W 1013  28.945   1.563   4.339
35787W        W 1014  34.400  13.157   2.730
35788W        W 1015  41.638  41.934  10.722
35789W        W 1016  12.787  33.612   1.414
35790W        W 1017  17.392  38.489   0.139
35791W        W 1018  19.201   7.206   0.766
35792W        W 1019  27.231  10.089  12.472
35793W        W 1020   3.956   5.947   0.900
35794W        W 1021  20.672  19.415  12.964
35795W        W 1022  17.887  41.290  13.897
35796W        W 1023   5.640  15.573  14.120
35797W        W 1024   9.504  20.946  11.139
35798W        W 1025  41.825   8.684  12.502
35799W        W 1026  12.208  37.995  13.601
35800W        W 1027  22.291  17.260  12.408
35801W        W 1028  28.908  26.876  11.608
35802W        W 1029  42.985  28.776   1.198
35803W        W 1030  41.491  43.757  11.935
35804W        W 1031  12.573   5.864  12.016
35805W        W 1032  35.554  43.353  10.550
35806W        W 1033  11.356   8.120   0.972
35807W        W 1034   8.187   9.387  10.491
35808W        W 1035  40.052  43.503   3.563
35809W        W 1036  40.013  24.029  11.934
35810W        W 1037  34.153  23.538  10.742
35811W        W 1038  41.964  15.143   0.702
35812W        W 1039   7.868  37.063  14.009
35813W        W 1040  39.869  11.659   0.352
35814W        W 1041  36.474  26.402   2.728
35815W        W 1042   0.838  27.752  12.726
35816W        W 1043  39.960  43.963   3.790
35817W        W 1044  14.891  27.945   1.192
35818W        W 1045  12.910  27.954   0.910
35819W        W 1046   9.706  39.350   2.220
35820W        W 1047  12.787  41.693   1.994
35821W        W 1048  15.045  41.874  11.414
35822W        W 1049  16.535   6.168   2.396
35823W        W 1050  30.830   8.130  10.915
35824W        W 1051  19.771  37.428  11.914
35825W        W 1052  17.262  14.010  12.164
35826W        W 1053   6.201  44.968   0.377
35827W        W 1054  43.986  13.097  13.439
35828W        W 1055  12.882  37.490  11.638
35829W        W 1056  14.609   1.968   2.242
35830W        W 1057   0.569  21.679   3.428
35831W        W 1058  35.152  44.629   1.230
35832W        W 1059  37.616  44.738  12.061
35833W        W 1060  10.123   1.480   4.190
35834W        W 1061  26.188   5.827   2.343
35835W        W 1062  35.733   4.136   2.775
35836W        W 1063   9.891  15.074   1.426
35837W        W 1064   5.931   4.685  12.953
35838W        W 1065  29.744   7.020  11.065
35839W        W 1066  25.579  34.817   4.350
35840W        W 1067  21.612   5.200   1.221
35841W        W 1068  38.754  19.738   3.697
35842W        W 1069   6.248  11.776   1.057
35843W        W 1070  33.571  42.852   2.532
35844W        W 1071  10.665   8.879   2.065
35845W        W 1072  30.648   4.743  10.748
35846W        W 1073   8.291  41.419  13.640
35847W        W 1074  28.484   7.854  12.363
35848W        W 1075  14.959  28.141   2.548
35849W        W 1076  29.888  34.041  12.576
35850W        W 1077  32.590  44.923  11.118
35851W        W 1078  30.156   0.426   2.876
35852W        W 1079  31.994  32.963  12.437
35853W        W 1080   2.416  11.300  11.174
35854W        W 1081  16.270  22.663   0.545
35855W        W 1082  32.656   6.819   3.338
35856W        W 1083   5.057  22.683  12.501
35857W        W 1084  19.431  10.349   1.854
35858W        W 1085  24.461  35.402   0.227
35859W        W 1086  39.957  31.728   1.295
35860W        W 1087  16.072  23.017  11.642
35861W        W 1088  36.194  10.750  11.196
35862W        W 1089  11.769  43.299  14.452
35863W        W 1090  31.984  39.986   4.513
35864W        W 1091  26.521   6.982   1.719
35865W        W 1092  15.804  13.769  12.877
35866W        W 1093  12.674  18.260  10.486
35867W        W 1094  22.096  27.246   4.603
35868W        W 1095  11.691  13.234   0.898
35869W        W 1096  32.892   5.996   3.675
35870W        W 1097  38.108  28.610   2.376
35871W        W 1098  11.637  43.325  11.817
35872W        W 1099  20.090  43.364   1.398
35873W        W 1100  20.990   8.242   0.802
35874W        W 1101  10.356  18.349   3.317
35875W        W 1102   0.983   3.765  12.360
35876W        W 1103  34.572  25.747   1.778
35877W        W 1104  36.835   7.880  10.760
35878W        W 1105  39.050  18.717  14.410
35879W        W 1106  10.373  38.456  10.915
35880W        W 1107  36.779  39.837  13.811
35881W        W 1108  34.129   6.937   3.170
35882W        W 1109   6.826  33.799  11.128
35883W        W 1110  44.014  37.414  13.926
35884W        W 1111  34.515  39.954  12.180
35885W        W 1112  36.582  35.172  10.399
35886W        W 1113   6.558   9.376   1.376
35887W        W 1114  12.745  13.703   2.773
35888W        W 1115   3.920  40.358   0.247
35889W        W 1116  29.947  30.889  11.065
35890W        W 1117  36.395  21.613   2.933
35891W        W 1118  22.773  12.777   3.206
35892W        W 1119  27.016  20.304   4.185
35893W        W 1120  36.617   2.735  13.897
35894W        W 1121  44.970   5.357   3.841
35895W        W 1122  15.896  13.317  11.079
35896W        W 1123  16.639  15.774   3.704
35897W        W 1124  34.669   9.261  13.445
35898W        W 1125   7.824  11.945   2.777
35899W        W 1126  39.968   0.637   1.154
35900W        W 1127  41.506   2.298  10.767
35901W        W 1128  18.228  34.047   1.908
35902W        W 1129  29.968   3.407  11.425
35903W        W 1130   6.717  40.097   1.959
35904W        W 1131  35.093  21.832  10.680
35905W        W 1132  29.723  17.748   1.963
35906W        W 1133  43.118  16.523   3.182
35907W        W 1134  39.076  18.700  13.514
35908W        W 1135  29.115  17.161   3.155
35909W        W 1136  21.943   4.732  12.148
35910W        W 1137  13.782  18.202   4.476
35911W        W 1138   2.379  42.291  11.660
35912W        W 1139  16.345  38.447  13.457
35913W        W 1140  44.513  24.863   1.952
35914W        W 1141  16.659  23.144   1.814
35915W        W 1142  29.031   4.686  13.803
35916W        W 1143   0.320   6.493  13.327
35917W        W 1144  30.561  30.030   4.112
35918W        W 1145  30.852  31.642  11.089
35919W        W 1146   6.685  19.585  10.718
35920W        W 1147  37.842  28.138   3.677
35921W        W 1148  11.897  11.677   3.545
35922W        W 1149  13.577  14.684  12.208
35923W        W 1150  14.711  26.620   2.010
35924W        W 1151  13.736  34.401  14.272
35925W        W 1152  13.638  21.255  10.644
35926W        W 1153  42.553   6.045   2.627
35927W        W 1154  27.603   7.835  12.877
35928W        W 1155  30.046  17.603  14.379
35929W        W 1156   0.184  42.004  14.891
35930W        W 1157  13.322   1.323   0.187
35931W        W 1158   6.186  25.459  11.205
35932W        W 1159  25.951  10.675   1.382
35933W        W 1160  13.658   4.616  14.238
35934W        W 1161  40.772  31.538   1.577
35935W        W 1162  30.090  19.326  11.729
35936W        W 1163   5.138   2.236  13.439
35937W        W 1164  35.601  27.120   4.306
35938W        W 1165  23.937  33.012  12.688
35939W        W 1166  37.133  40.765   1.307
35940W        W 1167  36.453   7.081  11.964
35941W        W 1168   5.399   4.277   2.688
35942W        W 1169  38.542  41.082   0.272
35943W        W 1170   6.859  19.330  12.922
35944W        W 1171   4.640  11.555  11.411
35945W        W 1172  22.692  28.238  11.649
35946W        W 1173  27.073  16.780  14.376
35947W        W 1174   8.805   8.799  11.172
35948W        W 1175  13.145  10.109   2.843
35949W        W 1176  26.171  29.691   0.392
35950W        W 1177   3.280  30.656  10.829
35951W        W 1178  16.563  24.568  13.535
35952W        W 1179   5.408  13.382   0.312
35953W        W 1180  23.090  21.305  12.217
35954W        W 1181  17.951  28.925  13.051
35955W        W 1182   9.535   3.986   3.581
35956W        W 1183  11.936  31.126   1.760
35957W        W 1184  10.305  30.706  12.443
35958W        W 1185  39.983  29.911  14.135
35959W        W 1186  31.512  41.855  14.064
35960W        W 1187  28.652  39.887   1.287
35961W        W 1188  29.656   2.702  12.647
35962W        W 1189  25.592  40.151  13.526
35963W        W 1190  16.191   2.923   4.263
35964W        W 1191  44.176  11.166   3.151
35965W        W 1192  16.310  17.357  14.062
35966W        W 1193  44.753  39.193  11.748
35967W        W 1194   1.746  29.725   2.371
35968W        W 1195  22.329  36.069  14.389
35969W        W 1196   9.752   3.467   1.331
35970W        W 1197  34.138   1.280  12.003
35971W        W 1198  35.494   1.987   0.982
35972W        W 1199  35.440  40.776   1.663
35973W        W 1200  39.352   1.103  12.541
35974W        W 1201   0.421  40.448  11.651
35975W        W 1202  16.485  19.728   3.088
35976W        W 1203   2.548  21.803   2.235
35977W        W 1204   1.667   6.225  12.945
35978W        W 1205  28.093  31.079   4.668
35979W        W 1206  38.255  43.477  11.707
35980W        W 1207  35.225  39.385   3.177
35981W        W 1208   4.434  33.352  10.761
35982W        W 1209  17.036  10.879  11.195
35983W        W 1210   8.663  24.284   3.724
35984W        W 1211  21.872  24.417   3.181
35985W        W 1212   9.348  34.194  12.915
35986W        W 1213  16.241  33.834  14.025
35987W        W 1214  32.123  19.662   4.619
35988W        W 1215  21.564  26.885  11.532
35989W        W 1216  34.319   3.475   2.804
35990W        W 1217  23.709  14.867  14.904
35991W        W 1218   6.933  41.289  13.478
35992W        W 1219   4.519  29.106  11.518
35993W        W 1220  37.121  26.891   4.160
35994W        W 1221  25.984  41.509  10.948
35995W        W 1222  44.645  33.920   0.443
35996W        W 1223  16.341  17.176  13.587
35997W        W 1224   4.494  26.466   1.280
35998W        W 1225  32.566  36.061  11.540
35999W        W 1226  17.296   4.962  14.200
36000W        W 1227  41.571   4.880  13.590
36001W        W 1228  29.051   1.479  13.955
36002W        W 1229   6.334  27.267   4.480
36003W        W 1230  36.982  15.783   1.139
36004W        W 1231  43.964  16.274  11.924
36005W        W 1232   1.344  31.737   0.029
36006W        W 1233  32.484  27.924   1.256
36007W        W 1234   8.121   7.677  13.066
36008W        W 1235  44.713  39.603   1.336
36009W        W 1236   5.718  16.385  11.553
36010W        W 1237  31.659  21.187  14.024
36011W        W 1238  38.973  41.162   3.158
36012W        W 1239  25.967  39.819   4.156
36013W        W 1240  25.549  27.577  13.513
36014W        W 1241   0.310  31.436   1.786
36015W        W 1242  16.431  26.057   4.096
36016W        W 1243  13.388  12.197  11.827
36017W        W 1244  41.606   0.479   3.497
36018W        W 1245  17.853  43.405   1.438
36019W        W 1246   7.408  31.012   0.949
36020W        W 1247  43.890  42.907   4.120
36021W        W 1248  21.146  34.700   4.732
36022W        W 1249  44.558  19.074  11.399
36023W        W 1250  44.763  30.960   2.219
36024W        W 1251   5.666  29.806  14.758
36025W        W 1252  27.861  20.813   1.727
36026W        W 1253  16.638  11.194   3.735
36027W        W 1254  14.054  23.975   1.178
36028W        W 1255  28.061  26.655  11.621
36029W        W 1256  16.077  25.648   0.263
36030W        W 1257  33.930  34.604  13.555
36031W        W 1258  35.044  10.742   1.184
36032W        W 1259   9.231  37.513   1.011
36033W        W 1260  36.288  44.697  12.045
36034W        W 1261  37.434  29.492   4.291
36035W        W 1262   9.589  37.019   1.045
36036W        W 1263  41.954  17.304  12.622
36037W        W 1264  40.731  43.229  10.793
36038W        W 1265  12.348  14.361   0.336
36039W        W 1266  11.734  22.117  10.696
36040W        W 1267   9.723   8.184  14.897
36041W        W 1268  17.172  43.374  10.593
36042W        W 1269  42.558   9.870   0.276
36043W        W 1270  33.973  17.303   1.674
36044W        W 1271  22.564  19.810   4.109
36045W        W 1272  38.303  18.687  10.749
36046W        W 1273  43.173  13.783  11.992
36047W        W 1274  10.053   5.379  13.381
36048W        W 1275  28.097  35.013   2.370
36049W        W 1276   9.854  15.250   0.581
36050W        W 1277  18.665  36.057  14.338
36051W        W 1278  11.757   9.935  13.863
36052W        W 1279  39.849  14.557  10.538
36053W        W 1280  41.522  17.367   1.247
36054W        W 1281  44.957   7.894   4.124
36055W        W 1282   6.153  40.381  11.579
36056W        W 1283  15.973  32.042   0.962
36057W        W 1284  41.285  41.600  12.963
36058W        W 1285  41.768  43.289  14.320
36059W        W 1286  36.822  18.175   3.210
36060W        W 1287  34.471  34.896  13.511
36061W        W 1288  19.848   9.782  13.343
36062W        W 1289  10.881  41.890  13.926
36063W        W 1290  27.437  11.809  11.857
36064W        W 1291  31.078  14.606  14.292
36065W        W 1292  43.865  25.689   4.106
36066W        W 1293  34.084  40.266   2.096
36067W        W 1294   6.179  14.308  13.411
36068W        W 1295   1.771  28.445   2.667
36069W        W 1296   0.981  26.497   3.145
36070W        W 1297  26.378  23.119   1.244
36071W        W 1298   2.799  42.531  14.345
36072W        W 1299  12.646   5.857   4.201
36073W        W 1300  39.498  24.089  13.092
36074W        W 1301   5.568  43.908   0.023
36075W        W 1302   4.163  14.951   0.042
36076W        W 1303  41.017   3.150   5.154
36077W        W 1304  36.199  37.782   1.372
36078W        W 1305  26.186  33.423  14.588
36079W        W 1306  39.947   8.303  14.982
36080W        W 1307   5.236  14.676   2.229
36081W        W 1308  10.279  26.974  14.482
36082W        W 1309   3.634  21.751   4.235
36083W        W 1310  18.990  43.762   0.805
36084W        W 1311  40.291  44.698   0.027
36085W        W 1312   2.343   0.876   2.133
36086W        W 1313   4.814  41.171   2.371
36087W        W 1314  32.914  19.062   3.696
36088W        W 1315  41.436   4.940  10.728
36089W        W 1316  10.865  44.285  13.899
36090W        W 1317   6.504  41.421   2.444
36091W        W 1318  44.982  26.435   3.085
36092W        W 1319  10.540   1.168   3.372
36093W        W 1320  15.733  35.323   2.475
36094W        W 1321  32.011  36.944  14.748
36095W        W 1322  15.661  31.198  12.817
36096W        W 1323   1.678  31.593   5.021
36097W        W 1324  12.587  20.784   0.375
36098W        W 1325   5.939  31.468   1.202
36099W        W 1326  27.610  43.282   0.721
36100W        W 1327   1.396  20.990  10.886
36101W        W 1328  39.317  21.824  13.644
36102W        W 1329  17.984  39.018   4.019
36103W        W 1330  38.989  16.531   2.712
36104W        W 1331  37.868  15.346  11.548
36105W        W 1332  28.204  35.337  12.175
36106W        W 1333  27.753  14.730   2.129
36107W        W 1334   8.535  18.308  11.309
36108W        W 1335  14.739  34.678  10.749
36109W        W 1336   0.291   4.870  14.034
36110W        W 1337  19.477  37.735  14.459
36111W        W 1338   3.906  24.468  10.357
36112W        W 1339  36.559   2.716   4.129
36113W        W 1340  13.808  30.438   3.556
36114W        W 1341   8.865  15.301  12.988
36115W        W 1342  39.967  34.925  11.979
36116W        W 1343   5.887  19.311  12.385
36117W        W 1344  20.034  38.524   0.996
36118W        W 1345  22.664  10.984   1.965
36119W        W 1346  17.588   5.544   3.385
36120W        W 1347  35.715   1.775  12.544
36121W        W 1348  23.725  29.490  13.363
36122W        W 1349  27.494  17.604  13.838
36123W        W 1350  26.677  21.083  11.645
36124W        W 1351   8.794  42.037   3.130
36125W        W 1352  42.703  10.343   3.404
36126W        W 1353  22.512  11.949   4.643
36127W        W 1354  33.084  36.180   0.275
36128W        W 1355  28.018  18.079  14.991
36129W        W 1356  18.343  11.440   4.419
36130W        W 1357  26.081   2.982  13.863
36131W        W 1358  19.890  13.326  14.021
36132W        W 1359  26.421  39.560   4.076
36133W        W 1360  26.031  42.559  13.879
36134W        W 1361   6.138  14.699   3.739
36135W        W 1362  37.289  25.407  13.368
36136W        W 1363  20.281  42.947   4.002
36137W        W 1364  21.303  40.850   2.321
36138W        W 1365  17.295   3.958  11.249
36139W        W 1366  28.593  10.675   4.113
36140W        W 1367  28.094   6.314   1.863
36141W        W 1368  36.642   5.853   2.227
36142W        W 1369  34.679  19.993  14.926
36143W        W 1370  32.814  35.009  11.140
36144W        W 1371   8.943   9.860  11.148
36145W        W 1372   2.689   0.852  12.173
36146W        W 1373  35.302  37.881   2.984
36147W        W 1374  13.518  26.555  11.151
36148W        W 1375   3.870  15.268  11.824
36149W        W 1376  42.037  24.733  13.985
36150W        W 1377  17.838  32.470  13.473
36151W        W 1378   7.679  38.335   0.886
36152W        W 1379  20.541  13.880  11.023
36153W        W 1380  42.450  40.600  12.840
36154W        W 1381  44.374  43.462  11.516
36155W        W 1382  39.381  11.128   4.196
36156W        W 1383  37.052   6.624  12.067
36157W        W 1384  28.896  20.973  12.627
36158W        W 1385   3.386   2.263   0.351
36159W        W 1386  40.556  35.080  10.728
36160W        W 1387  16.573   5.745  13.328
36161W        W 1388  35.273  18.122  14.105
36162W        W 1389  38.105  19.861  10.156
36163W        W 1390  36.807   5.779  10.608
36164W        W 1391  21.691  27.518  11.931
36165W        W 1392  24.397   3.048  13.052
36166W        W 1393  39.997  39.880   2.645
36167W        W 1394  12.279  44.567  11.364
36168W        W 1395   9.139  19.680  11.991
36169W        W 1396  28.530  36.516   3.700
36170W        W 1397  31.419   1.486   4.133
36171W        W 1398   4.493  29.259   3.747
36172W        W 1399  36.102  28.940  11.995
36173W        W 1400  13.033   2.307  11.661
36174W        W 1401   9.308   5.126  12.171
36175W        W 1402  11.071   2.591   4.555
36176W        W 1403   3.794   7.241   3.386
36177W        W 1404  25.253  24.259  11.019
36178W        W 1405  14.075   7.388   3.243
36179W        W 1406   0.502  28.262  14.444
36180W        W 1407   3.646  40.404   1.116
36181W        W 1408  39.100  34.127   0.258
36182W        W 1409   7.289  31.640  11.021
36183W        W 1410   8.662  11.803  12.639
36184W        W 1411  38.934  40.455   2.432
36185W        W 1412  37.120  17.796   4.095
36186W        W 1413  33.052  12.124   0.939
36187W        W 1414  44.339   6.473   3.553
36188W        W 1415  37.068  22.403   4.377
36189W        W 1416  36.592   4.016  13.979
36190W        W 1417  14.850  24.253  11.945
36191W        W 1418  11.743  15.366   1.819
36192W        W 1419  27.145  26.701   2.359
36193W        W 1420  40.829  41.067  14.899
36194W        W 1421  39.756   2.022   1.708
36195W        W 1422  26.483  10.351   4.500
36196W        W 1423  34.899   0.724   4.636
36197W        W 1424  31.839  37.398  11.604
36198W        W 1425  31.845  36.839   0.698
36199W        W 1426  11.148  25.152  11.445
36200W        W 1427   8.277  42.932  12.651
36201W        W 1428  33.793  25.718  13.379
36202W        W 1429   9.740  23.811   0.019
36203W        W 1430   6.233  18.732   3.720
36204W        W 1431   9.395  30.711   1.394
36205W        W 1432  12.282  23.257   4.583
36206W        W 1433  29.420  38.649  11.337
36207W        W 1434  32.402  14.784   0.305
36208W        W 1435   4.117  14.897   4.957
36209W        W 1436  38.412  38.967  14.450
36210W        W 1437  35.355  30.199   0.649
36211W        W 1438  34.070  19.448   3.232
36212W        W 1439  33.870   3.686   2.951
36213W        W 1440  11.677  23.192  14.687
36214W        W 1441   2.730  41.420  13.400
36215W        W 1442   3.999  19.749   1.236
36216W        W 1443  42.029  27.460  13.716
36217W        W 1444  11.679  27.021  12.490
36218W        W 1445  11.800  24.448  12.054
36219W        W 1446  30.100  23.120  11.939
36220W        W 1447  16.861  14.989  10.926
36221W        W 1448  21.588   1.817  14.903
36222W        W 1449  23.995  21.174  11.575
36223W        W 1450  18.760  20.619   1.285
36224W        W 1451   6.160  29.697  11.392
36225W        W 1452  22.965  22.660  13.968
36226W        W 1453  16.810   1.946   4.133
36227W        W 1454  42.775  34.903  13.864
36228W        W 1455  32.766   3.508  11.701
36229W        W 1456  26.334  10.214   2.297
36230W        W 1457  33.589  14.169  14.550
36231W        W 1458   4.079  24.323  12.123
36232W        W 1459  25.668   1.756  11.139
36233W        W 1460  35.102  33.632   4.629
36234W        W 1461  32.102  25.588   4.135
36235W        W 1462   5.337   1.519   2.849
36236W        W 1463  25.071  23.921   0.239
36237W        W 1464   5.773  14.625  14.447
36238W        W 1465  19.574  23.077  12.301
36239W        W 1466  18.643  28.373  14.398
36240W        W 1467   7.722  41.693  12.895
36241W        W 1468   4.911  19.340   2.234
36242W        W 1469   5.461  25.044   0.809
36243W        W 1470  25.150   6.802   2.225
36244W        W 1471  29.760  40.621   3.802
36245W        W 1472  29.573  16.760   4.625
36246W        W 1473  25.978  19.309   3.235
36247W        W 1474  18.894  29.605   4.173
36248W        W 1475   9.402   1.694   0.298
36249W        W 1476   2.434  14.758   3.896
36250W        W 1477  44.820  31.668   1.768
36251W        W 1478  16.038  32.682  10.252
36252W        W 1479  35.296  44.982   3.757
36253W        W 1480  24.632  37.657  13.837
36254W        W 1481  34.411   4.877  10.929
36255W        W 1482  22.165  18.533  10.490
36256W        W 1483  29.965  25.410   0.524
36257W        W 1484  20.024  20.806   2.404
36258W        W 1485  15.593  31.828   3.172
36259W        W 1486  42.909  36.215  13.318
36260W        W 1487  27.497  33.649  11.242
36261W        W 1488  42.008  32.837  14.256
36262W        W 1489  40.042  28.331  11.157
36263W        W 1490  23.689  21.740   2.669
36264W        W 1491  13.724  16.005   2.735
36265W        W 1492  34.215   0.423  13.546
36266W        W 1493   0.320  44.911  12.951
36267W        W 1494   8.621  12.258   2.314
36268W        W 1495  31.522  32.871   3.548
36269W        W 1496  35.078  42.564   2.898
36270W        W 1497  17.490   0.570  12.198
36271W        W 1498   4.645  10.434   3.845
36272W        W 1499  44.034  14.861  13.875
36273W        W 1500   4.430  18.260   0.973
36274W        W 1501  33.826  29.401  13.964
36275W        W 1502  29.816  26.437   2.364
36276W        W 1503  43.181   9.794  12.135
36277W        W 1504  32.725  10.653   0.959
36278W        W 1505  41.580  14.961   2.964
36279W        W 1506  21.268  14.838  13.929
36280W        W 1507   0.424  17.081   1.563
36281W        W 1508  34.139   5.380   4.243
36282W        W 1509  18.619   1.011  13.863
36283W        W 1510  39.124  28.024   2.701
36284W        W 1511  22.591  43.226  14.321
36285W        W 1512  41.652  44.051   0.307
36286W        W 1513  37.392  43.557   0.267
36287W        W 1514  44.239  25.943   2.351
36288W        W 1515  20.682  21.541  12.262
36289W        W 1516  21.558  15.583  14.951
36290W        W 1517  22.101  23.481  13.163
36291W        W 1518  38.135  27.227  12.531
36292W        W 1519   3.703  21.578   1.213
36293W        W 1520  34.761  22.674   2.986
36294W        W 1521  37.902  15.738   2.593
36295W        W 1522   0.992  34.447  14.492
36296W        W 1523  31.851  39.399  10.571
36297W        W 1524  11.266  16.648   4.468
36298W        W 1525   5.307  20.051   4.518
36299W        W 1526  19.287   9.259  12.100
36300W        W 1527  43.801  27.966   3.644
36301W        W 1528   3.403   0.907   0.644
36302W        W 1529  37.848   0.486   4.180
36303W        W 1530  42.970   0.771  13.583
36304W        W 1531  23.745  16.215   2.857
36305W        W 1532  23.944   4.418  14.691
36306W        W 1533   9.572  28.910   4.786
36307W        W 1534  35.877  33.087   0.389
36308W        W 1535  42.982  33.122   0.324
36309W        W 1536   4.196  19.133  12.552
36310W        W 1537  21.281  16.041  13.334
36311W        W 1538   4.904  10.576  12.425
36312W        W 1539   4.620  42.124  14.825
36313W        W 1540  36.991   3.829   2.154
36314W        W 1541   8.633  27.000   4.083
36315W        W 1542  11.534   9.172  14.384
36316W        W 1543  31.457  31.944  12.265
36317W        W 1544   5.844   3.240   9.883
36318W        W 1545  20.531  40.314   4.136
36319W        W 1546  14.158  44.836   1.272
36320W        W 1547  29.445  22.208   0.467
36321W        W 1548  15.270   0.378   1.795
36322W        W 1549  12.687  18.562  14.843
36323W        W 1550  22.886  16.627  11.550
36324W        W 1551  44.697  31.947   1.329
36325W        W 1552  42.695  20.562  12.532
36326W        W 1553  36.830  20.958   1.884
36327W        W 1554  37.733   9.472   0.035
36328W        W 1555  40.958  33.837  11.160
36329W        W 1556  41.590  40.831  11.169
36330W        W 1557   8.896  20.584  10.696
36331W        W 1558  36.817  36.808   3.559
36332W        W 1559  14.247  37.412  11.125
36333W        W 1560   7.731  21.083  14.002
36334W        W 1561  19.036   8.850  11.078
36335W        W 1562  27.410  21.835  11.125
36336W        W 1563  35.982  42.592  13.016
36337W        W 1564  12.397   0.860   1.805
36338W        W 1565   4.821  38.034   2.863
36339W        W 1566  20.684   2.030   2.415
36340W        W 1567  15.991  36.441  10.481
36341W        W 1568  43.974  18.420   0.663
36342W        W 1569  12.126   3.762   1.274
36343W        W 1570   1.591  41.346  14.336
36344W        W 1571   5.282   9.853  12.399
36345W        W 1572   0.575  14.040   1.345
36346W        W 1573  22.470  25.754  13.892
36347W        W 1574  26.728  38.487   2.720
36348W        W 1575  35.481  33.314   4.845
36349W        W 1576  22.443   6.026   0.867
36350W        W 1577   0.696  17.684  11.070
36351W        W 1578   2.804   3.963  13.488
36352W        W 1579  44.529  31.623  13.762
36353W        W 1580  12.361  30.962   4.229
36354W        W 1581  26.007  21.730   3.724
36355W        W 1582  41.409  13.065   4.614
36356W        W 1583  16.702  42.123   1.458
36357W        W 1584  29.958  36.478  13.750
36358W        W 1585  32.789   1.481   4.350
36359W        W 1586  22.278   1.830   1.315
36360W        W 1587   4.742  43.032   0.097
36361W        W 1588   1.498  43.749   0.373
36362W        W 1589  29.165   0.368   2.299
36363W        W 1590  27.589  13.988  12.988
36364W        W 1591  32.095   1.451  10.446
36365W        W 1592  33.513  10.061  10.296
36366W        W 1593  38.275  10.285   0.082
36367W        W 1594  24.175  38.390   3.576
36368W        W 1595  11.328   7.828   3.411
36369W        W 1596   6.796  30.968   4.077
36370W        W 1597   3.987   5.904   2.350
36371W        W 1598  39.537   9.638  14.895
36372W        W 1599  35.132  13.394   2.111
36373W        W 1600   4.407  21.956  12.470
36374W        W 1601  37.786  29.383   3.284
36375W        W 1602  33.489  34.548   2.813
36376W        W 1603  35.726  11.001   4.117
36377W        W 1604   6.357  16.287  12.612
36378W        W 1605  21.193   8.339   3.312
36379W        W 1606  42.466   0.935   0.747
36380W        W 1607   1.830   3.439  12.042
36381W        W 1608  43.764  38.578   1.281
36382W        W 1609  21.724  18.081  11.795
36383W        W 1610  23.153  27.030  12.917
36384W        W 1611  16.716  32.622  12.945
36385W        W 1612  32.846  24.481   1.410
36386W        W 1613  16.331  32.766   5.518
36387W        W 1614  41.352   7.053  13.006
36388W        W 1615  40.832  22.367   0.410
36389W        W 1616  39.374  41.786   4.698
36390W        W 1617  35.927  42.445  10.913
36391W        W 1618  37.977  36.233   1.371
36392W        W 1619  11.094  23.537  13.054
36393W        W 1620  13.790   1.945   3.770
36394W        W 1621  14.901  35.504   3.306
36395W        W 1622  25.195   9.121   0.408
36396W        W 1623   6.678  35.857   1.412
36397W        W 1624  33.279  40.277  12.903
36398W        W 1625  22.746  42.756  14.588
36399W        W 1626  26.979  20.331  11.864
36400W        W 1627  18.347  14.089   2.310
36401W        W 1628   5.344  24.590   4.313
36402W        W 1629   1.618  16.830   5.033
36403W        W 1630  28.954   2.263  12.583
36404W        W 1631  24.693  36.942  13.448
36405W        W 1632  10.838   4.372  11.670
36406W        W 1633  21.965  36.873   1.177
36407W        W 1634  29.948   8.777  11.511
36408W        W 1635  40.113  26.993  12.042
36409W        W 1636  29.922  15.799   3.845
36410W        W 1637  31.929  31.268  14.465
36411W        W 1638  26.278  15.264  12.965
36412W        W 1639  28.440  11.150  10.296
36413W        W 1640  37.268  10.134   3.217
36414W        W 1641  43.793   3.967  12.063
36415W        W 1642  36.300  31.567   3.237
36416W        W 1643  22.651  12.359   0.585
36417W        W 1644   4.998  22.640   1.801
36418W        W 1645  18.670  24.165   5.013
36419W        W 1646  41.694  20.894   3.766
36420W        W 1647   4.481  20.572  12.479
36421W        W 1648  27.531  43.702  13.510
36422W        W 1649  32.219   4.298   4.692
36423W        W 1650  13.207  10.704   3.682
36424W        W 1651   1.306  24.757   1.168
36425W        W 1652  44.295  35.792  14.334
36426W        W 1653  39.315  12.240   2.483
36427W        W 1654  11.010   7.394   0.271
36428W        W 1655  25.690   3.389  12.645
36429W        W 1656  20.491  22.117   4.777
36430W        W 1657  15.689  25.565  14.931
36431W        W 1658  37.090  42.710  12.532
36432W        W 1659  28.727  27.421  12.502
36433W        W 1660   7.904   9.582   2.220
36434W        W 1661   4.878  26.221   0.860
36435W        W 1662  13.973  19.187  14.815
36436W        W 1663  43.208  17.210  13.037
36437W        W 1664   4.247  24.064   1.935
36438W        W 1665  26.692  30.668   2.321
36439W        W 1666   5.338  40.905   1.645
36440W        W 1667  20.751  41.935  11.853
36441W        W 1668  13.641  34.928   0.726
36442W        W 1669  29.968  40.827   0.435
36443W        W 1670  22.694  30.411  11.779
36444W        W 1671  11.910  11.442  13.870
36445W        W 1672  21.246  44.961  13.866
36446W        W 1673   2.054  30.724  14.506
36447W        W 1674  23.039  40.453   2.171
36448W        W 1675  38.759  40.957   3.688
36449W        W 1676  24.197  36.789   3.726
36450W        W 1677  38.938  20.647   0.684
36451W        W 1678   8.060   9.790   4.374
36452W        W 1679  44.925   7.914   0.321
36453W        W 1680  10.595   5.502  11.035
36454W        W 1681  13.214  38.881  12.205
36455W        W 1682  35.117  38.833  14.009
36456W        W 1683  13.664   6.125   4.549
36457W        W 1684   9.668  15.655  13.931
36458W        W 1685  15.784   0.908   4.132
36459W        W 1686  41.320  30.662  14.013
36460W        W 1687  12.323  33.196  10.839
36461W        W 1688  36.739  32.479  11.101
36462W        W 1689   7.407  39.813  14.297
36463W        W 1690  30.403  42.948   3.056
36464W        W 1691  35.899   6.862   2.806
36465W        W 1692  44.232   4.420  10.947
36466W        W 1693  19.546   2.245   2.461
36467W        W 1694   1.786  34.334  11.957
36468W        W 1695  21.648  26.224  11.998
36469W        W 1696  39.566  18.800  13.511
36470W        W 1697  33.023  10.626  10.788
36471W        W 1698  35.645  24.087  14.790
36472W        W 1699  31.901   8.975   3.107
36473W        W 1700  16.601  39.141   3.126
36474W        W 1701  41.414  37.718  11.476
36475W        W 1702  14.877  36.223   2.888
36476W        W 1703   4.994   1.816   3.119
36477W        W 1704  13.169  38.017  13.641
36478W        W 1705  15.835   6.914  12.236
36479W        W 1706  20.002  27.716   4.123
36480W        W 1707  12.668  15.247   0.832
36481W        W 1708  12.081  29.678   1.209
36482W        W 1709   5.401  43.367   4.600
36483W        W 1710  37.841  17.308   2.292
36484W        W 1711  38.131  31.185   0.229
36485W        W 1712  21.472   6.280   4.578
36486W        W 1713  24.626   0.954  12.531
36487W        W 1714   0.157  16.975   2.857
36488W        W 1715  16.023   8.088  10.459
36489W        W 1716  12.513  23.638  13.155
36490W        W 1717  26.606  38.985  12.429
36491W        W 1718  37.922   3.963   3.997
36492W        W 1719  41.509  35.551  12.585
36493W        W 1720  19.547  28.624  14.389
36494W        W 1721  31.053   3.436   3.174
36495W        W 1722  26.672  22.675  13.102
36496W        W 1723  31.652  44.261   2.435
36497W        W 1724  41.914   6.246   1.926
36498W        W 1725  21.560  20.041  10.609
36499W        W 1726  19.129   2.542   3.006
36500W        W 1727  40.963  21.755   1.828
36501W        W 1728  21.118   0.189   9.756
36502W        W 1729   1.934   2.957  13.807
36503W        W 1730  24.039  31.839   5.029
36504W        W 1731  32.124  15.552   3.249
36505W        W 1732  37.579  16.353  13.423
36506W        W 1733  22.025  41.027  13.924
36507W        W 1734  14.565  25.561  13.008
36508W        W 1735  20.527   7.932   2.794
36509W        W 1736  37.598  39.456   2.845
36510W        W 1737  33.935  21.578  11.908
36511W        W 1738  11.880  33.545   2.255
36512W        W 1739   3.190   2.341   3.926
36513W        W 1740  14.909   3.381  11.847
36514W        W 1741  38.832  30.933  11.163
36515W        W 1742   0.651  20.055   1.856
36516W        W 1743  22.014  12.205  11.131
36517W        W 1744   5.781   0.587   1.327
36518W        W 1745  15.349  22.662  13.869
36519W        W 1746  14.235  36.324   1.685
36520W        W 1747  16.185  35.268   2.201
36521W        W 1748  27.068  13.214  14.345
36522W        W 1749   8.473  10.646   0.930
36523W        W 1750   2.981  15.299  14.035
36524W        W 1751   3.357  10.113   0.296
36525W        W 1752  31.832  23.182  14.964
36526W        W 1753  40.004  37.090   0.678
36527W        W 1754  42.475   2.483  11.634
36528W        W 1755  38.117  22.026  12.157
36529W        W 1756  36.979  22.589   3.262
36530W        W 1757  20.139  28.566  10.650
36531W        W 1758  14.255  10.305  14.939
36532W        W 1759   9.027  37.301  10.330
36533W        W 1760  43.389  40.074  12.908
36534W        W 1761   9.409   2.603  14.556
36535W        W 1762  11.126  18.863   4.970
36536W        W 1763  21.575  33.498   4.527
36537W        W 1764  34.461   2.232  13.826
36538W        W 1765  40.495  14.362   4.874
36539W        W 1766  32.057  43.271  13.463
36540W        W 1767   6.341  27.707   4.209
36541W        W 1768  31.571   5.624   1.250
36542W        W 1769  28.336   6.669   1.077
36543W        W 1770   7.619  35.446  10.661
36544W        W 1771  34.061   2.301   4.324
36545W        W 1772  35.932  15.614   3.346
36546W        W 1773  14.282  29.946  12.969
36547W        W 1774  14.380  40.539   3.210
36548W        W 1775  25.107  12.826  13.443
36549W        W 1776   4.053   3.902   3.485
36550W        W 1777  12.312  15.317  12.639
36551W        W 1778   4.695  22.019   2.200
36552W        W 1779   9.078  35.010   9.633
36553W        W 1780  31.771  22.567   0.444
36554W        W 1781   9.608   0.981  12.080
36555W        W 1782  38.412   4.747  10.659
36556W        W 1783  13.685  16.307   2.290
36557W        W 1784  29.113  20.693   1.408
36558W        W 1785  43.857  16.984  12.563
36559W        W 1786   2.362  24.580   0.518
36560W        W 1787  12.305  33.428   3.622
36561W        W 1788   0.907  16.739  11.176
36562W        W 1789   3.187  24.980  13.444
36563W        W 1790  21.227  26.389   5.164
36564W        W 1791   1.646  44.286  12.807
36565W        W 1792  24.381  14.366   4.850
36566W        W 1793  41.369  40.334  14.929
36567W        W 1794  40.382  19.540   0.624
36568W        W 1795   0.187  38.311   1.007
36569W        W 1796  23.669  14.607   1.264
36570W        W 1797   8.428  38.018   3.429
36571W        W 1798  11.266   4.376   1.242
36572W        W 1799  25.729  26.524   0.917
36573W        W 1800  34.969  13.097  12.818
36574W        W 1801  19.456  13.795  14.330
36575W        W 1802   6.725  29.761   4.623
36576W        W 1803  42.403  12.681   4.519
36577W        W 1804  35.379  14.181  13.972
36578W        W 1805   3.431  37.331  12.886
36579W        W 1806   0.220  14.179  13.569
36580W        W 1807  11.694  23.526  11.970
36581W        W 1808  36.159   6.580   0.484
36582W        W 1809  30.966  19.210   1.495
36583W        W 1810  20.763  36.472  10.724
36584W        W 1811  24.998   3.617  13.186
36585W        W 1812  37.108  43.117   1.919
36586W        W 1813  22.559  37.135  10.878
36587W        W 1814  25.399  24.943   2.281
36588W        W 1815  24.187   4.728  11.550
36589W        W 1816  20.990  24.190   0.863
36590W        W 1817   4.856  27.132   4.066
36591W        W 1818  23.646  44.155   4.963
36592W        W 1819   3.572  39.410  14.873
36593W        W 1820  11.702   4.707  14.919
36594W        W 1821  19.945  35.086   2.204
36595W        W 1822   2.362  15.202   4.286
36596W        W 1823  11.908  28.888  14.674
36597W        W 1824   7.051  16.977  14.744
36598W        W 1825  16.263  11.592   1.440
36599W        W 1826   0.852   5.850   0.489
36600W        W 1827  24.693  17.756   2.720
36601W        W 1828  41.406  32.396  12.447
36602W        W 1829  24.721  17.128  13.058
36603W        W 1830  17.118  23.217   2.602
36604W        W 1831   7.252  41.278   1.524
36605W        W 1832   4.802   7.322  12.202
36606W        W 1833  29.213  43.081  11.543
36607W        W 1834  28.464  27.920  14.825
36608W        W 1835  18.687   0.504  13.863
36609W        W 1836  24.529  42.587  12.499
36610W        W 1837  11.612  18.005   1.847
36611W        W 1838  21.006  39.534   3.284
36612W        W 1839  12.279  29.766  13.299
36613W        W 1840   6.744  24.611   0.703
36614W        W 1841  31.033   5.937  14.014
36615W        W 1842  34.789  27.747   4.989
36616W        W 1843  33.273  25.651   3.489
36617W        W 1844  38.620  11.383   0.964
36618W        W 1845  38.753   6.072  13.395
36619W        W 1846  21.597  37.454  11.596
36620W        W 1847   6.634  15.437  12.481
36621W        W 1848   6.305  27.568   2.771
36622W        W 1849   8.004  30.650  13.850
36623W        W 1850  23.537  21.321   4.720
36624W        W 1851  25.551   4.446   4.507
36625W        W 1852  26.548  21.040   3.239
36626W        W 1853  18.591  13.902  10.421
36627W        W 1854  22.315  33.257   1.826
36628W        W 1855  28.729  41.269   4.695
36629W        W 1856  19.225  27.243  14.463
36630W        W 1857  28.405  24.181  13.716
36631W        W 1858  39.072  11.854   4.568
36632W        W 1859   9.949  13.714   4.575
36633W        W 1860  23.570  25.550   1.285
36634W        W 1861  27.536   4.955  13.076
36635W        W 1862   7.138  22.581  11.173
36636W        W 1863  15.408   2.473   4.679
36637W        W 1864   3.476   2.762  14.761
36638W        W 1865  16.234  22.238  10.978
36639W        W 1866   1.225  29.445  14.488
36640W        W 1867  14.691  18.781   1.249
36641W        W 1868  43.441  28.276  11.103
36642W        W 1869   7.370   7.641   1.925
36643W        W 1870  31.080  18.142   2.488
36644W        W 1871   0.916  33.156  12.007
36645W        W 1872   2.795  22.696  14.574
36646W        W 1873  26.438   6.187   4.008
36647W        W 1874   0.162  43.923  12.056
36648W        W 1875  36.910  19.116   4.697
36649W        W 1876  27.537  21.224   1.734
36650W        W 1877  25.740  40.829   0.767
36651W        W 1878  15.169  27.222   4.561
36652W        W 1879  39.818  34.387  12.909
36653W        W 1880  17.757  39.508  14.087
36654W        W 1881   4.002  37.040  13.117
36655W        W 1882  26.952  31.470  14.008
36656W        W 1883  32.878  32.322   1.889
36657W        W 1884  20.698  12.413   4.152
36658W        W 1885  40.032  36.824  14.364
36659W        W 1886  27.094  16.468  12.905
36660W        W 1887   0.254  42.777   9.741
36661W        W 1888   5.386   5.464   3.605
36662W        W 1889  31.516  17.486  12.074
36663W        W 1890  30.176   8.118  13.055
36664W        W 1891  21.097  42.973   0.904
36665W        W 1892  42.031  38.321   2.724
36666W        W 1893  35.171  34.506   4.637
36667W        W 1894   3.943  41.285  14.725
36668W        W 1895   2.895   2.555   1.020
36669W        W 1896  41.981  11.438  11.296
36670W        W 1897  13.465  30.619   2.230
36671W        W 1898  33.279   2.200   0.480
36672W        W 1899  37.890   1.201  12.540
36673W        W 1900  28.326  34.903   1.415
36674W        W 1901   5.215  31.867  13.246
36675W        W 1902  10.248  27.866   4.180
36676W        W 1903  21.134  28.727  11.554
36677W        W 1904  26.907  14.719   1.759
36678W        W 1905  24.427  17.340  14.461
36679W        W 1906  31.466   8.645   3.245
36680W        W 1907  16.345  17.142  10.271
36681W        W 1908  28.203  44.270   1.850
36682W        W 1909  22.705   1.935  13.631
36683W        W 1910  21.151  14.677   3.521
36684W        W 1911   1.606  34.029  12.878
36685W        W 1912  26.652  11.745   4.853
36686W        W 1913  14.768  43.895  10.808
36687W        W 1914  19.820   3.847   0.068
36688W        W 1915  43.699  28.035   1.780
36689W        W 1916  11.829  42.954  14.065
36690W        W 1917  18.107   8.121  13.068
36691W        W 1918  27.673  25.733  10.189
36692W        W 1919   5.388  24.852  11.671
36693W        W 1920  24.763  43.302   1.080
36694W        W 1921  26.552  22.608  14.998
36695W        W 1922  16.428   6.603   2.168
36696W        W 1923   9.598  26.579   0.839
36697W        W 1924  15.250  39.870  10.420
36698W        W 1925  23.000  27.491   1.685
36699W        W 1926  37.912  42.579  12.623
36700W        W 1927   3.884  24.720   0.981
36701W        W 1928  40.846  13.330  10.682
36702W        W 1929   9.310  39.496  10.737
36703W        W 1930  13.658   8.866  11.851
36704W        W 1931  32.699  19.233  12.681
36705W        W 1932   4.284   7.376   1.192
36706W        W 1933  12.145   6.463  11.655
36707W        W 1934  36.584  14.350   0.103
36708W        W 1935  31.117  30.381   0.186
36709W        W 1936  42.320  21.986   4.107
36710W        W 1937  22.326  31.140   1.351
36711W        W 1938   4.512   8.299   1.210
36712W        W 1939   3.814  17.667  10.778
36713W        W 1940  31.901  21.380   3.906
36714W        W 1941  44.306  35.959  12.425
36715W        W 1942  29.667  39.124   2.453
36716W        W 1943  44.325  19.110  12.473
36717W        W 1944   3.719  20.067   0.931
36718W        W 1945   0.703  18.635   4.957
36719W        W 1946   2.469  38.100  14.452
36720W        W 1947  24.693  30.510  10.497
36721W        W 1948  26.590   1.002   4.981
36722W        W 1949   4.467  30.615   1.962
36723W        W 1950  34.877  39.027   4.264
36724W        W 1951  26.684  43.328   0.743
36725W        W 1952  24.967   9.707   1.787
36726W        W 1953   6.729  12.006   3.232
36727W        W 1954  18.575  10.214   1.248
36728W        W 1955   9.891  14.241  12.051
36729W        W 1956  41.079   2.998  11.986
36730W        W 1957   7.482  44.974  11.090
36731W        W 1958   8.855  21.271  11.935
36732W        W 1959  44.705  23.025  12.741
36733W        W 1960  33.614  26.611   4.692
36734W        W 1961  26.614  36.575   2.844
36735W        W 1962  18.565   4.123  11.204
36736W        W 1963  27.209  39.530   1.338
36737W        W 1964  35.964  27.220  12.104
36738W        W 1965   2.263  41.771   4.091
36739W        W 1966  41.502   5.687   1.159
36740W        W 1967  34.580  29.140  12.962
36741W        W 1968   3.862  26.229   5.379
36742W        W 1969  10.348  44.277  13.334
36743W        W 1970  18.650   1.183  13.002
36744W        W 1971  27.687   9.053  12.185
36745W        W 1972   9.226   0.066  14.339
36746W        W 1973  39.435   4.478  13.830
36747W        W 1974  22.289  26.464   4.143
36748W        W 1975  28.061  24.312   1.788
36749W        W 1976  35.086  34.130  12.481
36750W        W 1977  11.842  24.730  12.983
36751W        W 1978  36.172  32.379  11.811
36752W        W 1979  26.516   1.746  14.835
36753W        W 1980  19.803  38.443   4.652
36754W        W 1981  22.276   8.648  12.650
36755W        W 1982  23.913  41.333  13.142
36756W        W 1983  16.781   1.178  12.051
36757W        W 1984  33.427  16.434  14.573
36758W        W 1985   2.863  24.597  12.461
36759W        W 1986  14.137  32.680  13.607
36760W        W 1987  14.281  37.004   0.986
36761W        W 1988  29.432  24.030   2.397
36762W        W 1989   4.965  20.002  10.885
36763W        W 1990  14.874  33.041  13.467
36764W        W 1991  29.756  28.670  12.835
36765W        W 1992   4.187  12.418  14.859
36766W        W 1993   2.594  16.288   0.770
36767W        W 1994  10.855  22.553   3.714
36768W        W 1995   9.217  41.024  12.475
36769W        W 1996  20.355   9.321   0.524
36770W        W 1997  39.604   4.461   0.799
36771W        W 1998  12.229  33.380   4.562
36772W        W 1999  18.587  20.970  13.275
36773W        W 2000  17.672   6.512  10.789
36774W        W 2001   2.887  10.272   3.240
36775W        W 2002  32.295  25.987  14.059
36776W        W 2003  26.114   7.896   2.657
36777W        W 2004  15.538  10.831  14.251
36778W        W 2005  31.965  22.709  11.933
36779W        W 2006  37.977  44.796  11.350
36780W        W 2007  37.457  34.176  11.136
36781W        W 2008  40.838  19.821   0.027
36782W        W 2009  22.536  35.904  12.507
36783W        W 2010   0.278  44.209   4.216
36784W        W 2011  28.613  40.518  14.566
36785W        W 2012  23.239  44.865  14.042
36786W        W 2013  18.009   8.148  14.055
36787W        W 2014  16.226  17.581  10.751
36788W        W 2015  39.249  16.209   2.367
36789W        W 2016  32.608  30.035  12.579
36790W        W 2017  44.806  44.068  13.910
36791W        W 2018  40.277  32.101  12.904
36792W        W 2019  20.096   2.299  10.472
36793W        W 2020  40.273  40.108  13.886
36794W        W 2021   5.731   8.206   0.583
36795W        W 2022  35.832   7.633  14.813
36796W        W 2023  37.449  32.003  12.532
36797W        W 2024  35.669  42.460   0.782
36798W        W 2025  36.961  10.716   3.685
36799W        W 2026  10.608  29.501  10.685
36800W        W 2027  22.748  44.884  13.911
36801W        W 2028  16.400   3.337  14.929
36802W        W 2029  36.535  42.010  13.951
36803W        W 2030  15.609  37.151  11.990
36804W        W 2031  40.752   0.154   2.584
36805W        W 2032  19.996  30.206   2.342
36806W        W 2033  22.763  37.474  10.553
36807W        W 2034  10.246  35.460  10.910
36808W        W 2035   8.122  11.067  13.948
36809W        W 2036  40.896   9.805  14.977
36810W        W 2037  18.191  23.906   2.063
36811W        W 2038  30.155  17.546  13.061
36812W        W 2039   2.272  38.921  12.405
36813W        W 2040  39.078  11.245   0.722
36814W        W 2041  10.815  29.148   2.820
36815W        W 2042  20.525  19.536  14.003
36816W        W 2043  12.293  33.011  14.872
36817W        W 2044   6.856   4.359   2.983
36818W        W 2045  22.176   3.002   1.552
36819W        W 2046  42.870   2.250  12.052
36820W        W 2047  22.613   7.212   3.218
36821W        W 2048  10.012  19.633  14.781
36822W        W 2049  26.652   5.145  14.043
36823W        W 2050  43.209  44.274   0.899
36824W        W 2051  27.058   0.764  13.110
36825W        W 2052  28.239  27.456  14.818
36826W        W 2053   0.809   3.271  10.727
36827W        W 2054   5.149   1.300   0.877
36828W        W 2055   2.175  11.728  11.197
36829W        W 2056  24.098  30.604  12.953
36830W        W 2057   9.651   9.109  14.858
36831W        W 2058  20.812  41.343   1.362
36832W        W 2059   2.875  11.179  14.076
36833W        W 2060   9.624  30.136  13.279
36834W        W 2061  15.666   3.738   2.679
36835W        W 2062  31.087  18.548   3.763
36836W        W 2063  34.799  12.715  11.794
36837W        W 2064  10.187  43.626  13.858
36838W        W 2065   1.232  36.844   0.733
36839W        W 2066  38.265   7.748  11.722
36840W        W 2067  14.366  24.073   2.239
36841W        W 2068  44.256  40.309  14.414
36842W        W 2069   9.782  10.585  14.976
36843W        W 2070  25.103  40.301   1.450
36844W        W 2071  19.200  22.715   4.866
36845W        W 2072  37.382  38.039   2.116
36846W        W 2073  41.369  23.308  11.080
36847W        W 2074  40.269  26.468   1.639
36848W        W 2075   1.957  43.840  13.964
36849W        W 2076  39.824  37.276  12.916
36850W        W 2077  35.330  17.657  14.454
36851W        W 2078  39.424  35.596   1.399
36852W        W 2079  12.312   2.864  10.679
36853W        W 2080   4.815  44.382  14.806
36854W        W 2081  38.868  16.085  10.643
36855W        W 2082   4.520  21.545   2.303
36856W        W 2083  21.598  15.843   2.374
36857W        W 2084  13.658  25.407  13.279
36858W        W 2085  17.576   8.223   1.891
36859W        W 2086   4.730  29.553  12.203
36860W        W 2087  18.107  30.918  14.932
36861W        W 2088  13.434  25.086   3.274
36862W        W 2089  32.156   0.756   3.867
36863W        W 2090   8.522  40.793   4.099
36864W        W 2091   2.531  40.837  11.722
36865W        W 2092   1.904  33.427   1.771
36866W        W 2093   0.530   2.079   4.143
36867W        W 2094  43.685   4.054  14.036
36868W        W 2095  38.532  29.605   1.099
36869W        W 2096  32.914   5.179   0.797
36870W        W 2097   5.464   8.122  13.536
36871W        W 2098  13.732   0.721  13.607
36872W        W 2099   3.096  17.898   3.282
36873W        W 2100  41.247  31.378  11.190
36874W        W 2101   6.061   5.164  11.240
36875W        W 2102  10.178   1.352  14.820
36876W        W 2103  35.557  21.029   2.207
36877W        W 2104  32.133  24.642  14.020
36878W        W 2105  24.086  42.965   2.181
36879W        W 2106  22.283   7.663  13.633
36880W        W 2107  43.988  43.495   1.622
36881W        W 2108  40.961   4.694  10.719
36882W        W 2109  12.439  29.628  14.473
36883W        W 2110   0.344  23.010  14.955
36884W        W 2111   6.169  42.497  12.592
36885W        W 2112  16.151  36.840   4.658
36886W        W 2113  38.982  26.576  11.792
36887W        W 2114  44.109  15.414   5.066
36888W        W 2115   3.531  30.653   2.813
36889W        W 2116  25.832  16.188   0.215
36890W        W 2117  36.993  30.609  12.040
36891W        W 2118  27.314  39.029   3.142
36892W        W 2119   5.266  12.987   1.932
36893W        W 2120  20.282  31.558  12.449
36894W        W 2121  28.249  18.657   3.259
36895W        W 2122   5.542  23.193   2.897
36896W        W 2123  11.391  17.025  12.014
36897W        W 2124  36.963   9.156  12.648
36898W        W 2125  13.378  37.290   2.740
36899W        W 2126   2.171  13.427  14.014
36900W        W 2127  31.889  40.852  12.704
36901W        W 2128  30.150  17.108   3.961
36902W        W 2129  37.036   4.268   1.869
36903W        W 2130  31.517  43.419  13.488
36904W        W 2131  44.050  37.145   4.926
36905W        W 2132   8.774   6.600  10.676
36906W        W 2133  12.270   4.948  13.414
36907W        W 2134  43.976  35.678   0.843
36908W        W 2135  43.410  29.321  11.121
36909W        W 2136  38.105  18.008  10.771
36910W        W 2137  26.100   8.301   3.019
36911W        W 2138  43.653   5.200   0.342
36912W        W 2139   9.527  37.400   1.410
36913W        W 2140  30.613  33.100  12.126
36914W        W 2141  42.566  36.303  11.391
36915W        W 2142  17.916  29.473  11.042
36916W        W 2143  44.333  28.936   4.058
36917W        W 2144  16.088  42.573  10.877
36918W        W 2145  33.993  25.926  11.109
36919W        W 2146  40.128  21.196   9.978
36920W        W 2147  25.132  30.972  10.719
36921W        W 2148   8.347  17.690  11.222
36922W        W 2149  39.019   3.289  14.454
36923W        W 2150  19.154  35.569   3.137
36924W        W 2151  16.580  31.014  11.169
36925W        W 2152   2.729   6.811  11.011
36926W        W 2153  41.339   4.762   0.017
36927W        W 2154  33.161  26.281   0.588
36928W        W 2155   2.811  38.426  13.124
36929W        W 2156  12.167  35.737   2.857
36930W        W 2157   7.151   5.171  11.189
36931W        W 2158   5.483  39.878  11.264
36932W        W 2159   1.779  30.893  14.931
36933W        W 2160  40.748  36.868  13.357
36934W        W 2161   7.251  29.562   0.269
36935W        W 2162  17.999   8.037   4.511
36936W        W 2163   9.802  15.304  12.952
36937W        W 2164   3.344   0.529   4.446
36938W        W 2165  41.371  29.565   2.295
36939W        W 2166  38.341  17.525  13.128
36940W        W 2167   1.318  16.647  13.686
36941W        W 2168  38.048  35.375  12.089
36942W        W 2169  34.593   3.068   0.004
36943W        W 2170  16.257  22.246   3.731
36944W        W 2171  43.868  24.999  11.629
36945W        W 2172   3.578  29.987  11.377
36946W        W 2173  27.249  26.506  13.906
36947W        W 2174   9.593  40.521   0.784
36948W        W 2175  13.935  10.058  13.645
36949W        W 2176  36.097   6.024   1.381
36950W        W 2177  26.776   5.636  13.966
36951W        W 2178   7.413  31.984  12.051
36952W        W 2179  44.271  14.208   3.132
36953W        W 2180  43.105  31.164   2.794
36954W        W 2181  21.602  34.624  10.758
36955W        W 2182  30.191   7.175  12.850
36956W        W 2183   6.767   7.809  13.720
36957W        W 2184  13.148  23.213   3.631
36958W        W 2185  39.278  43.031  12.681
36959W        W 2186  25.957  37.040   4.522
36960W        W 2187  28.229   5.851   1.696
36961W        W 2188  36.324  10.421   5.013
36962W        W 2189   3.841  29.234  14.762
36963W        W 2190   4.816  36.820  11.886
36964W        W 2191  31.545  33.881  11.132
36965W        W 2192  29.324  27.617   1.011
36966W        W 2193  19.127  43.942   3.321
36967W        W 2194  40.454   4.130   1.852
36968W        W 2195  30.128  35.583   3.775
36969W        W 2196  14.214  21.681   4.315
36970W        W 2197  26.008  20.407  11.914
36971W        W 2198  17.943  32.896   4.115
36972W        W 2199   2.010  20.270  13.882
36973W        W 2200  23.123  36.882   1.902
36974W        W 2201  11.604  18.584  12.471
36975W        W 2202  16.023  17.139   1.316
36976W        W 2203  19.538  17.013   1.826
36977W        W 2204  27.981  29.498  12.225
36978W        W 2205  44.425  40.517   0.426
36979W        W 2206  21.780  16.554   2.757
36980W        W 2207   5.226  42.230   1.647
36981W        W 2208  23.334  17.894   1.932
36982W        W 2209  26.400  13.640  13.594
36983W        W 2210  33.241  17.721   3.589
36984W        W 2211  20.192  24.528   2.809
36985W        W 2212  17.675  16.593   4.029
36986W        W 2213  25.378  13.579  12.746
36987W        W 2214   1.443  22.549   2.806
36988W        W 2215  22.286  10.329   4.247
36989W        W 2216   3.011   3.435   1.353
36990W        W 2217   9.911  12.175  12.518
36991W        W 2218   7.795  32.383  11.143
36992W        W 2219   5.228  26.757   0.673
36993W        W 2220  28.128   5.815   0.740
36994W        W 2221   3.018  44.156   4.103
36995W        W 2222  11.712  42.649   2.829
36996W        W 2223  11.288  19.616  12.458
36997W        W 2224  40.043  33.745   3.129
36998W        W 2225   2.711  41.795  13.057
36999W        W 2226   2.837  38.128  12.395
37000W        W 2227   8.174   0.693   4.600
37001W        W 2228  28.323  19.336  11.193
37002W        W 2229  17.584   4.895   2.273
37003W        W 2230   2.759  32.774   1.180
37004W        W 2231  23.770   6.166  10.772
37005W        W 2232  16.225   3.713   4.543
37006W        W 2233  33.364  32.878  10.314
37007W        W 2234  38.044  41.060  11.180
37008W        W 2235  39.438  40.900   3.181
37009W        W 2236  18.136   4.810   4.154
37010W        W 2237  15.094  32.470   4.599
37011W        W 2238  14.677  10.941   0.970
37012W        W 2239  22.946   3.805  14.028
37013W        W 2240  25.674  26.281  11.995
37014W        W 2241  21.999  19.183  13.300
37015W        W 2242  41.919  22.236  10.663
37016W        W 2243  23.155  24.145   0.368
37017W        W 2244  26.082  26.334   3.709
37018W        W 2245   7.766  41.225   2.210
37019W        W 2246  25.112  29.363   4.552
37020W        W 2247   9.162  21.558   3.450
37021W        W 2248  42.431  40.310  14.415
37022W        W 2249   6.753  11.239   2.726
37023W        W 2250  36.948  20.834   1.394
37024W        W 2251  12.078  16.151  14.046
37025W        W 2252  20.675   9.717  13.793
37026W        W 2253  12.058  42.520   4.092
37027W        W 2254  42.779   2.506  14.379
37028W        W 2255   7.554  23.219  14.298
37029W        W 2256  20.462  37.550  14.311
37030W        W 2257  24.206  16.200   1.885
37031W        W 2258  36.322   3.832  14.907
37032W        W 2259  15.294  42.405  12.684
37033W        W 2260  25.533  33.111   0.806
37034W        W 2261  17.731  30.591   0.731
37035W        W 2262   3.240   7.116  10.425
37036W        W 2263  10.168  20.930   0.066
37037W        W 2264   0.433  11.585   3.228
37038W        W 2265  37.646   5.851  12.784
37039W        W 2266  44.901  14.218  10.978
37040W        W 2267  27.977  20.911   4.111
37041W        W 2268  19.609   8.155  13.560
37042W        W 2269  10.211  24.140   3.106
37043W        W 2270  41.942  18.706  13.101
37044W        W 2271   2.930  10.924   1.935
37045W        W 2272  17.069  18.833   3.436
37046W        W 2273  12.263   9.739  13.898
37047W        W 2274  11.272   9.899   2.408
37048W        W 2275   3.887  31.636  14.465
37049W        W 2276  36.852  35.052   3.536
37050W        W 2277   7.707  29.342  11.418
37051W        W 2278  38.873   1.494   2.245
37052W        W 2279  15.773  32.199   0.504
37053W        W 2280   9.327  31.135   4.699
37054W        W 2281   4.824   8.814   4.563
37055W        W 2282   2.818  34.133   4.649
37056W        W 2283  40.455  36.788   2.644
37057W        W 2284  15.370   5.109   4.268
37058W        W 2285  22.230  31.660  11.610
37059W        W 2286  23.534  34.049  13.288
37060W        W 2287   3.728  35.769   0.012
37061W        W 2288  44.456  30.520  14.867
37062W        W 2289  19.503  26.910  11.697
37063W        W 2290  13.866  14.843   4.267
37064W        W 2291  24.429  37.933  11.678
37065W        W 2292  21.358  19.057   2.382
37066W        W 2293   8.832  42.526   3.319
37067W        W 2294  24.443  10.268  13.428
37068W        W 2295  43.509  10.208  13.322
37069W        W 2296  27.753  15.299  13.871
37070W        W 2297   4.703  40.662   0.141
37071W        W 2298  20.292  22.277  10.960
37072W        W 2299   1.734  35.043   1.012
37073W        W 2300  18.825  24.903  11.454
37074W        W 2301  14.325  18.223   2.875
37075W        W 2302  39.419  17.910   1.824
37076W        W 2303   0.533   3.486  13.064
37077W        W 2304  17.635  19.849   1.384
37078W        W 2305  32.451  11.289   0.365
37079W        W 2306   1.494  30.039   0.558
37080W        W 2307  42.201   0.540   2.384
37081W        W 2308  20.747   4.866   4.664
37082W        W 2309  41.812  16.325   3.267
37083W        W 2310  18.337   9.874  13.405
37084W        W 2311  36.705  10.795  11.193
37085W        W 2312  30.211  15.386  11.484
37086W        W 2313  42.941  28.362   4.203
37087W        W 2314  37.309  24.427   2.959
37088W        W 2315  25.097  16.172   0.852
37089W        W 2316  41.415  13.516   0.601
37090W        W 2317  29.629  30.911  10.645
37091W        W 2318  28.236  43.471   5.018
37092W        W 2319  19.801  15.106  11.115
37093W        W 2320  40.423  18.722  11.746
37094W        W 2321  25.194   8.226   2.915
37095W        W 2322   4.723  28.678   0.909
37096W        W 2323  24.172  40.879  13.175
37097W        W 2324   4.426  13.201  13.056
37098W        W 2325   8.178  14.754   0.818
37099W        W 2326   1.342  20.516  14.551
37100W        W 2327  38.147  23.504  11.414
37101W        W 2328  23.596  30.610  14.265
37102W        W 2329   2.684   8.956   0.282
37103W        W 2330   3.838  43.062  12.883
37104W        W 2331  39.434  33.529  14.021
37105W        W 2332  35.556  39.901  12.500
37106W        W 2333   3.183  24.726  13.890
37107W        W 2334  20.540  44.563   1.018
37108W        W 2335   2.515  38.086   4.043
37109W        W 2336  21.858   6.139   0.321
37110W        W 2337  18.184  44.962  13.361
37111W        W 2338  18.527  10.420  11.556
37112W        W 2339  38.957   3.468  14.992
37113W        W 2340  29.079  32.923  13.748
37114W        W 2341  28.031  11.190  14.892
37115W        W 2342  29.501  32.578   0.287
37116W        W 2343   4.864  29.240   2.013
37117W        W 2344  29.988  31.808   1.978
37118W        W 2345  44.362  28.736   0.786
37119W        W 2346  36.030  26.062   0.236
37120W        W 2347  30.272  25.418   9.833
37121W        W 2348  22.062  35.305   4.096
37122W        W 2349  21.087  15.735  11.538
37123W        W 2350  37.553  15.827  13.750
37124W        W 2351   9.013  26.973  12.114
37125W        W 2352  21.010   4.822   3.422
37126W        W 2353   7.184  28.478   0.927
37127W        W 2354   1.909  31.112   2.217
37128W        W 2355  21.241  33.487  13.731
37129W        W 2356  16.354  23.087  13.124
37130W        W 2357  40.397  11.437  14.210
37131W        W 2358  24.319  35.979   2.790
37132W        W 2359   5.685  23.618  13.978
37133W        W 2360  39.932  33.892   3.618
37134W        W 2361  24.517  32.049  11.040
37135W        W 2362  40.347  32.559  13.146
37136W        W 2363  35.499  11.364   2.748
37137W        W 2364  36.930  41.026  13.951
37138W        W 2365  29.765  22.210  13.492
37139W        W 2366  31.879  10.653   0.787
37140W        W 2367  43.816  32.899  11.556
37141W        W 2368  41.359  11.604   1.307
37142W        W 2369  36.433  12.068  12.065
37143W        W 2370  22.008  13.659  11.246
37144W        W 2371  17.808  42.241  10.600
37145W        W 2372  24.391  26.485   0.521
37146W        W 2373  38.732  19.610   0.991
37147W        W 2374   6.993  43.448   4.109
37148W        W 2375  30.365  34.686   2.732
37149W        W 2376   9.436  14.510   0.384
37150W        W 2377  33.602  27.043  14.317
37151W        W 2378  13.355   3.733  12.015
37152W        W 2379   5.818  44.766   4.540
37153W        W 2380  39.522  24.671   2.284
37154W        W 2381  12.697   1.333  11.658
37155W        W 2382   1.506  38.228   4.724
37156W        W 2383  40.948  41.715  14.248
37157W        W 2384   4.176  29.555   3.232
37158W        W 2385  36.686  35.987  12.710
37159W        W 2386  42.678  24.615   2.182
37160W        W 2387  44.733  26.537  14.457
37161W        W 2388  25.623  17.965  10.718
37162W        W 2389  31.979  37.421   4.104
37163W        W 2390  13.719  11.396   1.752
37164W        W 2391  25.154  13.866  14.313
37165W        W 2392  24.879   5.613  14.420
37166W        W 2393   6.722  33.993   1.785
37167W        W 2394  28.135  39.585  13.941
37168W        W 2395  29.928  37.984  13.513
37169W        W 2396  24.148  18.566   2.652
37170W        W 2397  40.243  20.046  11.241
37171W        W 2398  14.566  42.576  10.990
37172W        W 2399  16.669  37.111   3.336
37173W        W 2400  43.295  12.587  13.669
37174W        W 2401  43.509  32.451  14.092
37175W        W 2402  29.450  23.046   4.708
37176W        W 2403  18.565  22.968  12.871
37177W        W 2404  11.590  40.175   2.620
37178W        W 2405  20.620   2.878   4.156
37179W        W 2406  41.151  44.525  11.322
37180W        W 2407  13.667  14.209  11.432
37181W        W 2408  41.949  10.824   0.182
37182W        W 2409   5.746  16.154   0.320
37183W        W 2410  30.911  27.119  13.634
37184W        W 2411  16.334  22.995  12.108
37185W        W 2412  13.327   2.548  10.795
37186W        W 2413  24.251  35.030   4.142
37187W        W 2414  24.690  14.574  14.842
37188W        W 2415   8.086  13.383   2.764
37189W        W 2416  11.234  26.179  13.882
37190W        W 2417  18.543  39.384   4.540
37191W        W 2418   4.741  29.448  14.553
37192W        W 2419  13.184  29.615  13.874
37193W        W 2420   1.207  20.638  13.559
37194W        W 2421  21.656   9.815  14.922
37195W        W 2422  36.552   2.314   3.786
37196W        W 2423  39.729  28.200  14.841
37197W        W 2424  12.688  19.937  12.523
37198W        W 2425  39.878  13.456  13.916
37199W        W 2426  13.454  10.453  14.473
37200W        W 2427   0.524   6.672   0.496
37201W        W 2428  16.210   1.104   3.915
37202W        W 2429  23.847  30.988   0.784
37203W        W 2430   1.899  22.250   1.305
37204W        W 2431  44.847  18.636   3.146
37205W        W 2432  17.492  25.471  13.975
37206W        W 2433  31.417   2.856  10.958
37207W        W 2434   2.986  33.047  14.247
37208W        W 2435   3.476  13.740   0.901
37209W        W 2436  12.148  22.012   1.193
37210W        W 2437  31.268   8.419  10.707
37211W        W 2438  19.528  22.716  14.465
37212W        W 2439  17.635  32.026   1.743
37213W        W 2440  28.971  12.168   2.362
37214W        W 2441  35.776  15.085  13.972
37215W        W 2442  19.070  14.816  12.165
37216W        W 2443   0.708  27.702   0.075
37217W        W 2444  18.458   9.699   1.269
37218W        W 2445  27.772  11.137   3.761
37219W        W 2446  15.948   5.553  13.411
37220W        W 2447   3.799  13.061   4.739
37221W        W 2448   7.380  19.943  11.195
37222W        W 2449  40.303  29.618   3.318
37223W        W 2450   8.902  26.188   3.721
37224W        W 2451  11.038   2.079   4.465
37225W        W 2452  21.589   8.779   2.082
37226W        W 2453  40.275  11.760  13.356
37227W        W 2454   6.770   0.528  14.683
37228W        W 2455  15.829  40.926  11.066
37229W        W 2456   2.362  24.129  11.500
37230W        W 2457   9.347  36.849  13.928
37231W        W 2458  16.662  34.627  10.654
37232W        W 2459  37.679  12.089  14.873
37233W        W 2460  39.484  16.887   3.811
37234W        W 2461  16.563  24.520  11.579
37235W        W 2462  13.557  22.654  11.223
37236W        W 2463  14.872  44.508  11.616
37237W        W 2464  26.008  13.821  13.886
37238W        W 2465  14.095  18.543  11.151
37239W        W 2466  35.314  29.230  11.680
37240W        W 2467   3.969  20.493  12.504
37241W        W 2468  10.828  21.546  11.032
37242W        W 2469  33.164   5.908  10.734
37243W        W 2470  26.460  25.933   0.318
37244W        W 2471  33.994  40.845  12.929
37245W        W 2472  17.471  42.424   2.717
37246W        W 2473  13.545  13.624  13.996
37247W        W 2474  42.712   7.395   1.545
37248W        W 2475   6.316  31.754   1.415
37249W        W 2476  37.498  24.502   1.648
37250W        W 2477  26.990  10.286   4.620
37251W        W 2478  43.425  25.991  11.543
37252W        W 2479   0.954   3.472   4.756
37253W        W 2480   3.800  26.112  13.383
37254W        W 2481  17.265  20.188   2.891
37255W        W 2482  10.381  24.230   1.019
37256W        W 2483  44.289  43.497  14.373
37257W        W 2484  39.441  10.089  11.606
37258W        W 2485   5.671  28.615   3.919
37259W        W 2486  14.140  38.638   0.279
37260W        W 2487   1.967  10.514  10.157
37261W        W 2488   4.750  20.491  10.694
37262W        W 2489  23.078   7.580  10.750
37263W        W 2490  32.175   0.871  12.915
37264W        W 2491  37.580  36.379   3.571
37265W        W 2492  34.994   5.706   0.535
37266W        W 2493  10.924  41.318  11.649
37267W        W 2494  30.422   6.122  11.697
37268W        W 2495  29.495  17.110  11.979
37269W        W 2496  31.621   1.864  13.440
37270W        W 2497   0.752  36.410  10.317
37271W        W 2498  44.380  43.399   2.836
37272W        W 2499  15.588  31.600  10.703
37273W        W 2500   2.239  32.305  12.871
37274W        W 2501  35.441  13.437   2.536
37275W        W 2502  31.963  27.207  13.571
37276W        W 2503  42.992  23.313   4.013
37277W        W 2504  37.054  12.303  13.454
37278W        W 2505  23.796   6.829  12.824
37279W        W 2506  40.034  22.633  13.130
37280W        W 2507   1.649  28.563   0.896
37281W        W 2508  32.497   5.863   1.184
37282W        W 2509   8.109  44.632  11.661
37283W        W 2510  19.092  17.040   3.160
37284W        W 2511  22.947   8.894  12.016
37285W        W 2512  38.587  12.902  11.054
37286W        W 2513  25.273  31.295  14.361
37287W        W 2514  38.473  18.224   3.217
37288W        W 2515   8.712  19.061  14.456
37289W        W 2516  31.930  39.966  11.836
37290W        W 2517  34.745  43.676  11.669
37291W        W 2518   0.294  14.761   2.428
37292W        W 2519  22.298  38.298  12.526
37293W        W 2520   1.241   9.376   0.754
37294W        W 2521  11.307  18.106  11.622
37295W        W 2522   8.601  24.331  14.454
37296W        W 2523  35.555   3.673   3.879
37297W        W 2524  14.424  20.333  13.815
37298W        W 2525  19.400  12.285  14.550
37299W        W 2526  44.258  11.087  14.594
37300W        W 2527  24.737  26.998   1.624
37301W        W 2528  17.809   8.892  14.167
37302W        W 2529  43.811   0.779  11.871
37303W        W 2530   4.686  39.602  13.061
37304W        W 2531  40.509  17.730  14.339
37305W        W 2532   3.236   8.833  10.449
37306W        W 2533   1.837  19.776  13.972
37307W        W 2534  16.037  35.159   4.712
37308W        W 2535  25.197   3.600  12.706
37309W        W 2536  20.551  26.992  13.596
37310W        W 2537   1.260   2.924   2.406
37311W        W 2538  38.832  43.404   0.532
37312W        W 2539  13.905   7.462   1.265
37313W        W 2540  24.291   4.931  10.690
37314W        W 2541  33.775  43.504   1.102
37315W        W 2542  31.949  44.553  12.013
37316W        W 2543  22.130  26.897  14.375
37317W        W 2544   1.333  24.707   1.682
37318W        W 2545   9.435  36.852  11.171
37319W        W 2546   3.715   2.712   3.113
37320W        W 2547  27.093  29.151  11.357
37321W        W 2548  39.463  17.312  12.526
37322W        W 2549  37.084  40.773  11.523
37323W        W 2550   3.821   3.461  13.373
37324W        W 2551   2.219  29.633   4.533
37325W        W 2552  30.057  18.526  13.977
37326W        W 2553   3.930  20.049   2.876
37327W        W 2554  17.290   1.713   0.536
37328W        W 2555  34.504  22.465  13.619
37329W        W 2556  16.873  38.416  10.793
37330W        W 2557   5.630   2.602   4.834
37331W        W 2558  42.912  29.659   1.706
37332W        W 2559   7.905  20.587   0.728
37333W        W 2560  36.398  19.775  14.416
37334W        W 2561  25.429  25.187  13.497
37335W        W 2562   9.686  22.779   4.698
37336W        W 2563  30.738  40.752   1.351
37337W        W 2564  36.119  15.492   4.387
37338W        W 2565  12.574  33.628  10.693
37339W        W 2566  14.400  26.300  11.543
37340W        W 2567   3.638  39.745  10.239
37341W        W 2568  31.409   9.400  10.758
37342W        W 2569  11.168   8.880   0.826
37343W        W 2570  20.778  31.418  10.675
37344W        W 2571   0.473  14.970   3.599
37345W        W 2572  38.754  28.521   0.226
37346W        W 2573  31.138  22.742   2.818
37347W        W 2574   3.805  18.225  13.543
37348W        W 2575  41.571  38.299   1.102
37349W        W 2576  34.617  40.572   4.757
37350W        W 2577  41.916  42.196   3.448
37351W        W 2578  20.093  30.707  12.946
37352W        W 2579  19.881   4.330  11.855
37353W        W 2580  35.989   7.514   4.454
37354W        W 2581  35.801  43.485   3.169
37355W        W 2582   0.919  11.511  10.607
37356W        W 2583   5.278  37.464  10.903
37357W        W 2584  13.594  41.611  13.545
37358W        W 2585  29.996  16.967  11.983
37359W        W 2586  43.282  31.682  13.054
37360W        W 2587  30.075  30.069  11.554
37361W        W 2588  31.962   2.903  10.689
37362W        W 2589  34.096  42.272  14.826
37363W        W 2590  11.588   9.636  14.627
37364W        W 2591  10.294  36.079  11.565
37365W        W 2592  32.410  30.164   0.882
37366W        W 2593  13.637  36.807  10.603
37367W        W 2594  12.735  33.360  12.719
37368W        W 2595  23.431  11.404  14.961
37369W        W 2596  19.018   0.049   1.702
37370W        W 2597  21.199  10.489   4.987
37371W        W 2598   9.910  21.756  13.883
37372W        W 2599  23.124  44.972   0.780
37373W        W 2600  27.584  22.140   3.865
37374W        W 2601   8.628  24.812  13.615
37375W        W 2602  18.670  19.359  10.762
37376W        W 2603  20.263  15.312   2.868
37377W        W 2604  25.874  41.431  12.374
37378W        W 2605  19.310   9.666  12.455
37379W        W 2606  27.090  27.496  13.159
37380W        W 2607  19.695  18.641  10.664
37381W        W 2608  20.192  34.137  10.698
37382W        W 2609  42.623   2.514   1.313
37383W        W 2610  10.999  14.700   5.077
37384W        W 2611   3.764  14.200  13.555
37385W        W 2612  24.184   4.917   1.375
37386W        W 2613  42.848  23.659   3.100
37387W        W 2614  30.028   3.812  12.200
37388W        W 2615   3.993  10.203  12.420
37389W        W 2616  29.734  40.563   0.835
37390W        W 2617  11.281   3.562   3.465
37391W        W 2618  27.573  15.378  13.395
37392W        W 2619   9.188  30.277   2.753
37393W        W 2620  13.665  19.136  11.142
37394W        W 2621   8.796  39.348  10.649
37395W        W 2622  12.692  18.792   2.212
37396W        W 2623  34.761   2.769   0.915
37397W        W 2624   3.378   5.152   2.224
37398W        W 2625  41.204  25.172  13.931
37399W        W 2626  41.994  40.820  13.028
37400W        W 2627  16.259  39.237  11.585
37401W        W 2628   2.231   9.707   1.771
37402W        W 2629   0.294  11.270  11.859
37403W        W 2630  22.787  41.731   3.420
37404W        W 2631  22.099  30.388   3.397
37405W        W 2632  34.635  14.549   1.780
37406W        W 2633  25.563   8.875  14.566
37407W        W 2634  32.565   9.132   3.652
37408W        W 2635   4.446   7.890  11.532
37409W        W 2636  26.073  18.199   2.237
37410W        W 2637  30.726  43.401  11.153
37411W        W 2638  30.603  20.309   0.706
37412W        W 2639  19.301   3.158  12.061
37413W        W 2640  21.123  18.982   0.098
37414W        W 2641   3.211  26.797  12.001
37415W        W 2642   7.919   0.820   1.501
37416W        W 2643  27.143   2.401  14.624
37417W        W 2644  17.536   0.845  10.437
37418W        W 2645   0.409  38.724   1.916
37419W        W 2646  42.270  43.455  14.328
37420W        W 2647  27.763  19.738   0.291
37421W        W 2648  18.528  34.319   4.277
37422W        W 2649   6.419   5.710  13.939
37423W        W 2650   6.618  27.007  13.051
37424W        W 2651  33.207  19.526   3.744
37425W        W 2652  32.386   3.286  13.991
37426W        W 2653  37.203  30.970   0.934
37427W        W 2654  39.439  14.302   2.392
37428W        W 2655  16.876  24.612   1.816
37429W        W 2656  21.746  35.329  12.861
37430W        W 2657  23.276  36.855   0.052
37431W        W 2658  19.058  16.634   3.585
37432W        W 2659  16.584  26.896  11.205
37433W        W 2660   4.712  33.131  12.565
37434W        W 2661  35.426  19.180   2.690
37435W        W 2662  32.235  28.299   4.999
37436W        W 2663  43.523   7.488   3.662
37437W        W 2664  18.552  40.924   1.924
37438W        W 2665  32.129   7.298  14.744
37439W        W 2666  18.759  35.239   0.171
37440W        W 2667   9.854  43.766  13.474
37441W        W 2668  28.142   3.297   4.541
37442W        W 2669  12.152   5.455  13.501
37443W        W 2670   9.936  42.734  11.230
37444W        W 2671  33.471   2.669   2.181
37445W        W 2672  43.848  31.435   4.120
37446W        W 2673  37.457  41.534   1.273
37447W        W 2674   4.772  35.766   3.356
37448W        W 2675  34.030   1.457  14.253
37449W        W 2676  29.607  42.926  13.805
37450W        W 2677  32.663   2.553  11.517
37451W        W 2678  25.915  22.544   0.702
37452W        W 2679  28.905  30.491  14.645
37453W        W 2680  31.375  25.586  12.009
37454W        W 2681  19.279  10.144   4.067
37455W        W 2682  20.158  20.687  11.990
37456W        W 2683  28.391  40.753   1.161
37457W        W 2684  16.300  41.738  11.985
37458W        W 2685   8.310   1.208   4.519
37459W        W 2686  38.989  37.298   0.470
37460W        W 2687  44.019  31.741  12.056
37461W        W 2688  41.969  26.547  13.925
37462W        W 2689   6.316  33.899  11.077
37463W        W 2690  20.963   7.172  13.404
37464W        W 2691  18.233  23.444  12.400
37465W        W 2692   6.475  15.046  12.816
37466W        W 2693  40.230  35.467  10.507
37467W        W 2694  35.684  16.266  11.160
37468W        W 2695  35.827   9.747   0.581
37469W        W 2696  37.607  29.983   0.019
37470W        W 2697  11.812  19.926  14.553
37471W        W 2698   2.922  32.499   2.128
37472W        W 2699  27.576   9.849   4.064
37473W        W 2700  25.566   0.938  13.906
37474W        W 2701  14.487  37.370   3.692
37475W        W 2702  43.117   6.466  14.993
37476W        W 2703  12.030   9.744  12.571
37477W        W 2704  34.510   8.317  11.691
37478W        W 2705  36.308  36.533  10.585
37479W        W 2706  31.955  25.480  10.466
37480W        W 2707  42.794   4.924  14.419
37481W        W 2708   7.643  11.633   4.059
37482W        W 2709   7.694   6.776   3.907
37483W        W 2710  43.844  34.762   1.800
37484W        W 2711  31.929  41.603   0.786
37485W        W 2712  40.420  19.809  13.524
37486W        W 2713  19.662  40.968   2.658
37487W        W 2714   8.889  38.021   3.199
37488W        W 2715  30.381   9.132  12.398
37489W        W 2716   5.364  30.635  13.783
37490W        W 2717  26.266   6.974   4.231
37491W        W 2718  14.592  44.576   3.705
37492W        W 2719   3.156  43.819   2.259
37493W        W 2720   7.402  42.981   1.792
37494W        W 2721  41.559  19.404   2.849
37495W        W 2722  43.806  39.337   0.321
37496W        W 2723  32.919  43.019  13.606
37497W        W 2724  35.608  18.773  11.818
37498W        W 2725   4.665  37.319   0.758
37499W        W 2726  22.629  39.129  13.329
37500W        W 2727  18.097  30.907  12.076
37501W        W 2728   3.915   7.931  11.532
37502W        W 2729   0.422   7.425   0.959
37503W        W 2730  27.627   1.799  12.145
37504W        W 2731   8.664  10.799   0.477
37505W        W 2732  24.483   6.268   1.057
37506W        W 2733  14.483  27.436  11.005
37507W        W 2734  10.465  18.139  14.788
37508W        W 2735  29.464   5.767  11.548
37509W        W 2736   4.631  22.063   3.618
37510W        W 2737  44.835  25.001   3.853
37511W        W 2738   2.361   8.189   0.260
37512W        W 2739   6.890   7.580  13.280
37513W        W 2740   5.806  40.821   1.861
37514W        W 2741  31.066  18.131  11.566
37515W        W 2742   9.384  28.451   1.836
37516W        W 2743  40.521  27.142  14.418
37517W        W 2744  33.568  37.065   3.255
37518W        W 2745   6.207  15.177  13.295
37519W        W 2746  24.512   2.403  13.949
37520W        W 2747  13.291  43.271   1.761
37521W        W 2748   7.527  20.747  12.923
37522W        W 2749  33.008  13.789  12.116
37523W        W 2750  21.684   8.880  13.310
37524W        W 2751   4.598   1.696   3.406
37525W        W 2752  40.524  41.069  12.901
37526W        W 2753   7.381  29.641  13.367
37527W        W 2754  12.067  34.887  10.301
37528W        W 2755  35.961  39.565   4.714
37529W        W 2756   3.279   9.826  14.269
37530W        W 2757  29.520  17.896   4.130
37531W        W 2758   3.415  27.229  14.166
37532W        W 2759   2.571  25.383   1.353
37533W        W 2760   7.249  12.360   4.514
37534W        W 2761   1.499  34.138   3.879
37535W        W 2762  31.120  14.298  11.642
37536W        W 2763  12.838  31.488  11.073
37537W        W 2764   8.355  16.821   5.369
37538W        W 2765  13.195  13.534   1.310
37539W        W 2766  43.789   4.195  10.733
37540W        W 2767  12.122  30.994  10.881
37541W        W 2768  27.241   5.981  10.613
37542W        W 2769  33.963  43.342   4.042
37543W        W 2770  20.148  14.603   3.255
37544W        W 2771  18.153   1.890   2.684
37545W        W 2772  11.143  21.572  12.312
37546W        W 2773  27.869  11.142   4.580
37547W        W 2774  44.598   9.175  13.749
37548W        W 2775  11.825   0.679   2.283
37549W        W 2776   9.150   4.594   2.659
37550W        W 2777  22.490  21.252   3.193
37551W        W 2778  35.929  35.141   1.830
37552W        W 2779  11.311  11.968  10.947
37553W        W 2780  13.292  23.102   2.220
37554W        W 2781  22.702  31.574   0.292
37555W        W 2782  42.795  28.671   3.224
37556W        W 2783  23.886  35.306  13.385
37557W        W 2784  37.087   7.840  12.410
37558W        W 2785  22.545  27.398   2.809
37559W        W 2786  19.840  43.711   4.004
37560W        W 2787   1.017  22.108   4.011
37561W        W 2788  36.382   0.723   1.803
37562W        W 2789   6.693  24.149   4.127
37563W        W 2790  28.042  34.390   2.136
37564W        W 2791   6.206   5.744  12.441
37565W        W 2792   6.637  16.094  11.064
37566W        W 2793   8.743  27.893   2.543
37567W        W 2794   1.238  10.375  12.149
37568W        W 2795  28.870  23.500   3.140
37569W        W 2796  14.911  38.708   3.647
37570W        W 2797  22.674  22.965   0.758
37571W        W 2798  11.162  25.159   1.292
37572W        W 2799  25.966  16.842   3.699
37573W        W 2800  35.468  23.091  14.267
37574W        W 2801   3.266  33.782   5.088
37575W        W 2802  40.002  20.531   2.266
37576W        W 2803  41.380  15.207  12.395
37577W        W 2804  42.725   4.290   1.354
37578W        W 2805  31.812  30.393  14.916
37579W        W 2806  27.634  12.762   0.048
37580W        W 2807   5.979  16.261  14.359
37581W        W 2808  21.866  30.031   0.485
37582W        W 2809  13.382  20.803   3.099
37583W        W 2810  21.368  21.059  10.933
37584W        W 2811  21.153  43.725   4.142
37585W        W 2812  20.020  44.888  11.001
37586W        W 2813  23.209  16.732  14.402
37587W        W 2814  27.550  16.558  11.490
37588W        W 2815  35.615  27.722   2.420
37589W        W 2816  23.475  24.760  12.106
37590W        W 2817  27.949  37.203  14.695
37591W        W 2818   5.155  27.879  11.935
37592W        W 2819   2.817  27.548  12.826
37593W        W 2820   2.377  33.964   0.387
37594W        W 2821  21.373  42.490   2.143
37595W        W 2822  13.412  19.603  13.847
37596W        W 2823  41.674  44.291  13.498
37597W        W 2824   8.705  34.109  14.914
37598W        W 2825  20.522  44.742   0.524
37599W        W 2826  38.334  12.685   1.209
37600W        W 2827   4.430  30.360   2.864
37601W        W 2828  32.793   0.584   4.713
37602W        W 2829  20.097  36.162  12.025
37603W        W 2830  18.554  13.760   2.817
37604W        W 2831  43.267   7.237   4.024
37605W        W 2832  36.442  32.233   1.217
37606W        W 2833  29.027  24.065  10.651
37607W        W 2834  10.640  26.694  10.764
37608W        W 2835  37.408  15.575  11.634
37609W        W 2836  12.669  24.169  14.306
37610W        W 2837  17.632  16.557   1.758
37611W        W 2838  19.031   8.276  10.735
37612W        W 2839   5.356  20.213  10.607
37613W        W 2840  42.944   4.530  11.197
37614W        W 2841  34.160   7.877   3.127
37615W        W 2842   4.696  22.001  12.923
37616W        W 2843  35.542  43.384   2.705
37617W        W 2844  14.079  27.341  11.643
37618W        W 2845  11.065  14.561   2.815
37619W        W 2846  28.682  17.664   4.135
37620W        W 2847  38.342  29.332   1.759
37621W        W 2848  31.976   3.168  13.443
37622W        W 2849   3.343   1.256   1.287
37623W        W 2850  22.409  37.510   2.807
37624W        W 2851  32.421   0.752   1.320
37625W        W 2852  23.670  37.670  12.335
37626W        W 2853  37.408  36.251  14.242
37627W        W 2854   3.812  26.103  12.879
37628W        W 2855  22.623  26.224  14.354
37629W        W 2856  26.533  33.649  12.798
37630W        W 2857  26.543   2.814  13.648
37631W        W 2858  16.825  28.616   4.010
37632W        W 2859  32.551   8.316  10.739
37633W        W 2860  34.452   4.725   3.599
37634W        W 2861  39.202   9.000  13.013
37635W        W 2862  28.234  43.306  14.539
37636W        W 2863  17.271  10.348   3.282
37637W        W 2864   4.710  12.798  13.675
37638W        W 2865  19.142   4.055  13.404
37639W        W 2866  18.038  28.072  13.091
37640W        W 2867  26.672   1.462   1.629
37641W        W 2868   9.235  33.823   2.362
37642W        W 2869  41.469  15.829  13.748
37643W        W 2870   6.815  24.527   1.768
37644W        W 2871  25.451  17.512   4.158
37645W        W 2872  22.022   7.915  14.008
37646W        W 2873  27.990  33.623  14.109
37647W        W 2874  40.421  16.731   0.697
37648W        W 2875  42.341  29.960  10.493
37649W        W 2876  12.603   8.189   4.207
37650W        W 2877  40.795  34.654  10.545
37651W        W 2878  19.354   1.980  11.951
37652W        W 2879  39.340  11.617  11.494
37653W        W 2880  17.157   5.601   1.571
37654W        W 2881   6.928   3.884  11.648
37655W        W 2882  39.979  29.924   2.799
37656W        W 2883  37.098  44.335  13.330
37657W        W 2884  25.209  33.030  11.383
37658W        W 2885  25.619  21.633  11.727
37659W        W 2886  28.728  34.530   0.676
37660W        W 2887  41.808  42.987   1.730
37661W        W 2888  18.994  44.463  11.940
37662W        W 2889  10.950  20.767   1.181
37663W        W 2890   8.922   7.817   3.334
37664W        W 2891   0.731   1.662  10.117
37665W        W 2892  41.889  37.599  11.605
37666W        W 2893   6.943  28.740   0.555
37667W        W 2894  37.397  30.971   3.354
37668W        W 2895  20.997  44.730   4.149
37669W        W 2896  12.837  43.220  12.654
37670W        W 2897  26.059   0.727   1.014
37671W        W 2898  39.769  35.266  10.397
37672W        W 2899  11.743  27.972  11.626
37673W        W 2900   4.953  36.024  13.365
37674W        W 2901   0.228  13.664   3.853
37675W        W 2902  31.108  21.569  12.958
37676W        W 2903  17.244   4.086   0.382
37677W        W 2904   8.147  37.479   0.213
37678W        W 2905   7.164   2.943  10.657
37679W        W 2906   7.259  40.742   1.510
37680W        W 2907   7.460  40.522   2.945
37681W        W 2908  24.526  38.835   4.107
37682W        W 2909  42.270  40.946  10.618
37683W        W 2910  33.086  17.145  10.852
37684W        W 2911  10.726  34.572   2.386
37685W        W 2912  22.518  24.920   3.587
37686W        W 2913  24.248   3.816  11.694
37687W        W 2914  39.856  10.109   1.910
37688W        W 2915  30.533  16.770   0.906
37689W        W 2916  32.382   8.693   1.343
37690W        W 2917   4.364  29.552  13.025
37691W        W 2918   5.872  16.011  13.898
37692W        W 2919  32.495   4.367  10.697
37693W        W 2920  44.492  41.493   4.131
37694W        W 2921   6.220  12.520   3.120
37695W        W 2922   2.252  15.716  13.422
37696W        W 2923  10.239  16.315   1.961
37697W        W 2924  14.551   1.549   0.769
37698W        W 2925   9.707  36.107   2.248
37699W        W 2926  39.037   3.320  11.399
37700W        W 2927  18.862  15.662  14.205
37701W        W 2928  42.687   7.985  11.896
37702W        W 2929   9.653  26.593   2.324
37703W        W 2930   1.917   1.938  10.681
37704W        W 2931  36.908  32.141   0.316
37705W        W 2932  20.512  17.113  11.138
37706W        W 2933  29.689  15.519   3.493
37707W        W 2934  43.924  15.065   4.703
37708W        W 2935   9.327  17.316   5.179
37709W        W 2936  39.826  41.683   4.161
37710W        W 2937   2.171  44.903  14.283
37711W        W 2938   4.687  19.657  10.550
37712W        W 2939  13.716   2.444   2.359
37713W        W 2940  38.698  20.512  13.983
37714W        W 2941  39.592   1.404  12.159
37715W        W 2942  32.283   7.799  14.827
37716W        W 2943  21.014  25.191  13.253
37717W        W 2944  10.943  23.891   2.897
37718W        W 2945  33.307  22.205   0.819
37719W        W 2946  26.386  37.274   4.386
37720W        W 2947  27.901  43.535  13.885
37721W        W 2948   2.176  15.198  13.410
37722W        W 2949  31.485   9.689  11.221
37723W        W 2950  30.474  42.536   2.392
37724W        W 2951  33.082   1.243  11.855
37725W        W 2952  14.769  34.510   0.845
37726W        W 2953  17.288  25.539  12.504
37727W        W 2954   1.606  42.890   2.919
37728W        W 2955  14.769  21.815   1.183
37729W        W 2956  23.135  35.240   2.448
37730W        W 2957  34.535  37.695   2.718
37731W        W 2958  26.652   5.029   1.757
37732W        W 2959   5.650  36.916  12.074
37733W        W 2960  44.308  17.571   2.425
37734W        W 2961  19.192  16.851  14.494
37735W        W 2962  18.327  40.833  10.647
37736W        W 2963   4.848  22.945   2.209
37737W        W 2964  36.871  14.675  12.752
37738W        W 2965   0.753  34.127   1.940
37739W        W 2966  42.448  40.974  13.948
37740W        W 2967   7.621   6.252   1.164
37741W        W 2968  17.483   7.615  12.060
37742W        W 2969  26.009  10.234  14.401
37743W        W 2970  27.713  36.000  11.159
37744W        W 2971  40.020   5.915  13.675
37745W        W 2972  31.631  42.529  14.856
37746W        W 2973  12.703  17.785   0.213
37747W        W 2974  41.554  21.778   2.299
37748W        W 2975  41.836  41.916   0.718
37749W        W 2976  40.880  25.016   1.191
37750W        W 2977  20.265  35.633   0.451
37751W        W 2978  31.529  13.402   1.756
37752W        W 2979  42.671  21.333   2.903
37753W        W 2980  21.668  40.491  13.324
37754W        W 2981  14.819  35.734   1.987
37755W        W 2982  26.050  20.057   1.349
37756W        W 2983  11.945  14.831   4.097
37757W        W 2984   5.372  12.125   0.872
37758W        W 2985   3.935  30.955   4.669
37759W        W 2986   1.892  27.461   0.396
37760W        W 2987  19.116  15.813  12.110
37761W        W 2988   9.089  16.021   2.470
37762W        W 2989  11.305  41.217   5.027
37763W        W 2990  31.877   1.793  12.989
37764W        W 2991  10.777  40.503   3.154
37765W        W 2992  15.720  30.421  12.591
37766W        W 2993  33.874   1.741  11.979
37767W        W 2994  13.395  29.518   2.392
37768W        W 2995   3.461  39.371  11.507
37769W        W 2996  41.942  25.988   3.517
37770W        W 2997   1.192  32.576  12.088
37771W        W 2998  23.506  16.071  12.401
37772W        W 2999  17.595   1.966   0.195
37773W        W 3000  29.642  24.276  11.053
37774W        W 3001  30.339  16.569  12.966
37775W        W 3002  17.694  23.730   2.661
37776W        W 3003  16.451  13.787   0.522
37777W        W 3004  13.839  16.395   4.542
37778W        W 3005  22.628  17.369   2.011
37779W        W 3006  38.359   6.380  13.321
37780W        W 3007   2.420  28.483   4.620
37781W        W 3008  36.547   6.405   1.639
37782W        W 3009  10.219  41.387   3.440
37783W        W 3010  39.413  37.279   0.785
37784W        W 3011   9.103  22.604   4.761
37785W        W 3012  29.046  41.806  10.631
37786W        W 3013   7.646  40.955  13.547
37787W        W 3014  39.110   8.325   9.996
37788W        W 3015   5.670  36.812   3.283
37789W        W 3016  31.111  36.096   4.614
37790W        W 3017  24.665  18.922  12.016
37791W        W 3018  30.148  40.549   2.223
37792W        W 3019  35.415   1.330  12.532
37793W        W 3020   5.686  16.096  11.073
37794W        W 3021   1.070  11.521  11.919
37795W        W 3022   1.500  17.314  11.499
37796W        W 3023  28.985  11.202  12.635
37797W        W 3024  26.938  10.898   2.345
37798W        W 3025  21.002   8.425   1.329
37799W        W 3026   5.670  17.084   3.579
37800W        W 3027   3.291  16.992  14.079
37801W        W 3028  20.665  18.102   2.784
37802W        W 3029  38.062   1.224   4.897
37803W        W 3030  29.832  35.995   3.864
37804W        W 3031  15.554  11.784   3.569
37805W        W 3032   2.753   2.264  10.734
37806W        W 3033  31.633  31.093  12.196
37807W        W 3034  38.460  36.611   3.130
37808W        W 3035   5.595   7.906   4.207
37809W        W 3036  19.248   1.475  13.204
37810W        W 3037  17.373  23.007   1.794
37811W        W 3038  31.306  25.907   4.503
37812W        W 3039  32.299  23.376  12.360
37813W        W 3040  36.987  25.328  13.935
37814W        W 3041  31.072   7.843   1.168
37815W        W 3042  14.631  39.682   1.386
37816W        W 3043  10.874  15.541   4.605
37817W        W 3044  37.999  26.485  10.808
37818W        W 3045  40.112  16.992  11.038
37819W        W 3046  39.007  38.499  13.809
37820W        W 3047  33.244  35.926  11.035
37821W        W 3048   4.175   4.766   0.223
37822W        W 3049  43.278  16.025   0.330
37823W        W 3050  38.094  28.715  12.393
37824W        W 3051  31.007   6.872   1.467
37825W        W 3052  12.414  28.042   3.556
37826W        W 3053  22.757  18.238   4.921
37827W        W 3054  44.370  41.049   0.419
37828W        W 3055  13.580  12.397   3.309
37829W        W 3056   2.061  16.568   4.923
37830W        W 3057  26.555   8.173  14.333
37831W        W 3058  20.237   4.236   0.035
37832W        W 3059   4.676   8.630  12.554
37833W        W 3060  36.775   4.776   4.204
37834W        W 3061  17.375  12.309  13.923
37835W        W 3062  31.914   2.229  13.644
37836W        W 3063  26.266  31.910   4.017
37837W        W 3064   7.600  32.419   1.808
37838W        W 3065   2.915   6.348   3.874
37839W        W 3066  36.609  32.952  13.658
37840W        W 3067  41.112  27.503  11.529
37841W        W 3068  43.719   1.399   4.212
37842W        W 3069  10.484  35.774   3.641
37843W        W 3070  19.020  37.480   3.321
37844W        W 3071  27.534  23.088   1.255
37845W        W 3072  12.885  26.972   0.950
37846W        W 3073  21.595  32.601   4.688
37847W        W 3074   9.422  36.911  13.007
37848W        W 3075  43.728  21.122   1.429
37849W        W 3076  33.851  34.442   2.388
37850W        W 3077  12.397  23.641   2.358
37851W        W 3078  19.163  16.179   1.734
37852W        W 3079  40.986   5.655   2.352
37853W        W 3080  15.125  31.594  13.398
37854W        W 3081  14.680  20.652   2.822
37855W        W 3082   0.040  41.477   0.764
37856W        W 3083   4.858  42.774   0.570
37857W        W 3084  27.606  11.639   3.727
37858W        W 3085  15.248  42.453  10.434
37859W        W 3086  28.669  29.520  14.328
37860W        W 3087  16.312  11.888   1.916
37861W        W 3088  41.326  37.976   0.136
37862W        W 3089   8.641  26.672   4.505
37863W        W 3090  18.408  14.016  14.382
37864W        W 3091  42.130  33.297   2.738
37865W        W 3092  32.329  10.806  12.623
37866W        W 3093   5.414  24.184   4.001
37867W        W 3094  23.142   3.148  13.364
37868W        W 3095   2.008  38.346  14.494
37869W        W 3096  28.989   6.713  14.042
37870W        W 3097  10.364   8.940   1.309
37871W        W 3098  25.520   1.423   0.278
37872W        W 3099  12.486  41.518   0.338
37873W        W 3100  20.383  33.634  14.126
37874W        W 3101  42.232  18.736  13.553
37875W        W 3102  13.047  11.181   5.036
37876W        W 3103  25.732   7.364   0.188
37877W        W 3104  40.151  14.117  14.565
37878W        W 3105  24.983  34.007  13.286
37879W        W 3106  25.513  14.832   2.872
37880W        W 3107   4.370  19.842  13.059
37881W        W 3108  32.650  15.135  13.352
37882W        W 3109   0.991  42.983  14.522
37883W        W 3110  39.849  40.279  12.069
37884W        W 3111  36.178   2.854  11.514
37885W        W 3112   5.796  26.487   3.379
37886W        W 3113   4.255  33.897   3.420
37887W        W 3114  15.750  15.204   3.909
37888W        W 3115  35.417  37.708   5.345
37889W        W 3116  44.190   7.278   9.928
37890W        W 3117  14.011  18.045  11.184
37891W        W 3118  20.902  24.628   2.921
37892W        W 3119  24.470   5.732  11.737
37893W        W 3120  29.501  43.255  13.192
37894W        W 3121  25.609  12.904  13.566
37895W        W 3122   3.390  43.989   1.767
37896W        W 3123   5.448   3.863   4.064
37897W        W 3124  15.630  21.119  11.925
37898W        W 3125  39.350  42.583  14.289
37899W        W 3126  27.580  28.509   1.573
37900W        W 3127  34.707  13.147   0.858
37901W        W 3128  29.348   2.358   2.214
37902W        W 3129  21.198  33.970   5.199
37903W        W 3130  42.931   6.491  11.210
37904W        W 3131  33.381  17.673  11.156
37905W        W 3132  29.109  29.634   3.110
37906W        W 3133  16.771  28.494   0.750
37907W        W 3134  34.847   9.903  11.152
37908W        W 3135  14.834  33.565   2.301
37909W        W 3136  11.683  43.726  10.598
37910W        W 3137  13.251  42.348  10.636
37911W        W 3138  43.904  20.140  14.333
37912W        W 3139  28.646   2.110   4.470
37913W        W 3140  29.101  37.607   2.249
37914W        W 3141  35.651  30.537   0.367
37915W        W 3142  25.546   7.758  10.872
37916W        W 3143  18.229   9.775   3.536
37917W        W 3144  14.213  40.600  11.060
37918W        W 3145   2.947  38.253  11.444
37919W        W 3146   4.859  28.253   4.935
37920W        W 3147  42.455  44.245   1.894
37921W        W 3148  30.556   6.313   2.676
37922W        W 3149   1.244  32.366   3.197
37923W        W 3150  22.937  18.972  11.567
37924W        W 3151  36.990   7.721   1.181
37925W        W 3152  43.004  12.200  10.358
37926W        W 3153  32.319  38.319   1.848
37927W        W 3154  44.418  43.365  12.054
37928W        W 3155  28.488   7.153  12.658
37929W        W 3156   1.250  43.478  12.153
37930W        W 3157  19.432  15.203   1.166
37931W        W 3158  42.053   2.167  11.524
37932W        W 3159  31.800  42.030  14.744
37933W        W 3160  38.462   7.171   2.581
37934W        W 3161  19.299   6.769   1.013
37935W        W 3162  10.229  23.037   0.826
37936W        W 3163  41.937  12.389  11.628
37937W        W 3164  44.975  30.612  14.887
37938W        W 3165  28.201  18.645  13.936
37939W        W 3166  43.677  18.312   2.282
37940W        W 3167   3.937  42.595  13.537
37941W        W 3168  30.231   6.851  11.148
37942W        W 3169  33.880  34.325  13.098
37943W        W 3170   2.949  38.931   2.255
37944W        W 3171  44.433  20.202  11.531
37945W        W 3172  21.197  43.723  12.224
37946W        W 3173   2.662  30.578  12.043
37947W        W 3174  44.717  42.457  12.267
37948W        W 3175  31.990   5.354  10.640
37949W        W 3176  39.845   6.284   2.330
37950W        W 3177  44.367   4.896   1.723
37951W        W 3178  23.802   9.135  12.960
37952W        W 3179  41.154  17.812   3.544
37953W        W 3180   6.700  28.069   0.155
37954W        W 3181  20.323  19.150  12.443
37955W        W 3182  15.178   7.174  14.005
37956W        W 3183   3.338  29.124   4.363
37957W        W 3184  15.102  28.116  13.966
37958W        W 3185  44.223  10.967   0.093
37959W        W 3186  32.860  22.462   3.131
37960W        W 3187  44.842   7.468  14.537
37961W        W 3188  12.053  31.784   1.432
37962W        W 3189  27.887  19.126  12.238
37963W        W 3190  20.794  36.424  11.770
37964W        W 3191  35.465  33.368   1.701
37965W        W 3192  19.999  15.699   0.643
37966W        W 3193  11.595  40.777  14.296
37967W        W 3194   1.190  13.784  13.469
37968W        W 3195  19.923  32.831   3.249
37969W        W 3196   5.129  38.984  10.503
37970W        W 3197   1.382  31.879   1.194
37971W        W 3198  29.061  42.573   3.159
37972W        W 3199  16.247  29.205   1.794
37973W        W 3200  39.409  35.614   2.260
37974W        W 3201  31.905  34.437   2.935
37975W        W 3202  25.335  11.305   4.177
37976W        W 3203  37.369  21.056  10.577
37977W        W 3204  32.996  13.269  12.855
37978W        W 3205  19.103  41.541  13.335
37979W        W 3206  21.476  35.081   3.418
37980W        W 3207  41.859   7.544   2.171
37981W        W 3208  30.504   5.506   3.688
37982W        W 3209   9.786  34.545   2.416
37983W        W 3210   6.346  32.640   0.289
37984W        W 3211  23.073  25.023   0.956
37985W        W 3212  29.981   9.942  10.154
37986W        W 3213  26.567   7.347  13.881
37987W        W 3214  19.588  42.847  13.433
37988W        W 3215  13.150   1.535   4.920
37989W        W 3216  34.075  35.963   2.222
37990W        W 3217  16.862  19.744  12.864
37991W        W 3218  24.542  15.341   4.841
37992W        W 3219  16.298  24.633  11.140
37993W        W 3220   2.430  17.384  11.552
37994W        W 3221  32.420  25.547   1.007
37995W        W 3222  31.175   7.518   2.902
37996W        W 3223  34.365  33.012   3.249
37997W        W 3224  30.988  11.335   4.612
37998W        W 3225  26.792   0.509   4.895
37999W        W 3226  24.938  36.471  14.370
38000W        W 3227  15.595   9.842  10.809
38001W        W 3228  41.524  16.521  10.803
38002W        W 3229  41.286  15.528  13.372
38003W        W 3230   5.740  25.674  13.345
38004W        W 3231  28.343  18.356   3.679
38005W        W 3232   2.825  17.053   1.181
38006W        W 3233   0.708   0.079   2.829
38007W        W 3234  11.810   3.176  14.063
38008W        W 3235  37.833  41.149  12.673
38009W        W 3236  16.270  37.454  11.681
38010W        W 3237  37.400  37.121  10.273
38011W        W 3238  33.453  34.946  14.126
38012W        W 3239  25.095  10.768  11.588
38013W        W 3240   9.134   8.515   3.801
38014W        W 3241  41.814  38.793   2.696
38015W        W 3242   7.217   3.323   2.552
38016W        W 3243  14.685  14.378   3.188
38017W        W 3244  38.942  33.629   0.678
38018W        W 3245   2.841  36.648   0.352
38019W        W 3246  18.354  15.173   4.741
38020W        W 3247  16.787  16.070  14.836
38021W        W 3248  15.190   7.133  12.085
38022W        W 3249  43.733  30.093   4.360
38023W        W 3250  41.727  28.763   1.284
38024W        W 3251   0.295  34.992  13.014
38025W        W 3252  42.803  21.142   2.458
38026W        W 3253   0.178   8.718   2.506
38027W        W 3254  44.408   8.849  11.553
38028W        W 3255  23.481   4.804  12.070
38029W        W 3256  30.503  27.703  14.375
38030W        W 3257  15.759  40.014  13.006
38031W        W 3258   9.115   3.384  11.660
38032W        W 3259  34.953  40.182   2.223
38033W        W 3260  34.054  39.770  11.984
38034W        W 3261  12.788  12.219   4.095
38035W        W 3262  27.866  39.283   2.357
38036W        W 3263  41.116   9.769   2.733
38037W        W 3264  33.339  36.097   1.655
38038W        W 3265  12.665   8.681  13.622
38039W        W 3266  25.983  16.631  11.633
38040W        W 3267   9.306  19.180  10.645
38041W        W 3268  40.798   0.216   2.056
38042W        W 3269  40.069  28.867   1.868
38043W        W 3270  36.537  34.934  10.841
38044W        W 3271  12.661   1.323  14.434
38045W        W 3272  43.211  18.834   1.253
38046W        W 3273  24.696  28.589   2.235
38047W        W 3274  39.991  20.665   0.306
38048W        W 3275  14.179  27.774  10.763
38049W        W 3276  33.388  20.162  11.217
38050W        W 3277  15.275  28.661  11.887
38051W        W 3278  17.117  20.721   0.959
38052W        W 3279  37.466  34.363   4.274
38053W        W 3280  10.211  11.157   0.857
38054W        W 3281  23.562   4.710  14.462
38055W        W 3282  22.006   8.821   3.217
38056W        W 3283  37.421  14.334  11.970
38057W        W 3284  13.319   8.289  10.650
38058W        W 3285   8.422  36.696   2.447
38059W        W 3286  20.253  15.052  10.826
38060W        W 3287   7.950  27.696  14.253
38061W        W 3288  16.079   8.134   4.567
38062W        W 3289  41.048  44.889   4.941
38063W        W 3290  16.441  38.701   1.655
38064W        W 3291   8.957  20.860  13.379
38065W        W 3292  24.198  18.096   3.753
38066W        W 3293   9.072  17.672  10.694
38067W        W 3294  20.163  25.770  14.938
38068W        W 3295   5.228  19.169  11.608
38069W        W 3296  29.156  29.873   3.580
38070W        W 3297   0.616   5.883   1.473
38071W        W 3298  28.852  38.414   9.845
38072W        W 3299  15.238  40.530  14.548
38073W        W 3300  35.445   6.593   2.871
38074W        W 3301  27.624   0.885  11.107
38075W        W 3302  12.335  10.745  12.471
38076W        W 3303   9.547   9.217  12.628
38077W        W 3304  33.982  18.865  12.059
38078W        W 3305  29.653  16.178   0.966
38079W        W 3306  27.634  13.196   1.310
38080W        W 3307  25.981  35.105  14.319
38081W        W 3308  43.245  13.905  13.772
38082W        W 3309  17.053  21.930  12.643
38083W        W 3310  36.841  10.958  11.646
38084W        W 3311  42.592   5.348  10.322
38085W        W 3312   5.314  41.100   0.648
38086W        W 3313  20.584  26.230   3.762
38087W        W 3314  12.093  41.472  12.789
38088W        W 3315  39.559   4.879   4.479
38089W        W 3316  29.987  34.567  12.462
38090W        W 3317   1.514  38.810   3.875
38091W        W 3318   9.753   4.871  10.258
38092W        W 3319  12.395  44.486  14.031
38093W        W 3320  26.061  11.312  10.539
38094W        W 3321   6.808  13.311  14.701
38095W        W 3322  38.611  13.462   0.025
38096W        W 3323  39.304  36.432  12.545
38097W        W 3324   3.358  10.749   1.679
38098W        W 3325  16.227  14.277   4.124
38099W        W 3326  12.864  37.045   3.675
38100W        W 3327  39.343   4.685   5.369
38101W        W 3328  41.981  18.287  14.444
38102W        W 3329  12.805   0.938   0.847
38103W        W 3330  28.566  42.452   2.568
38104W        W 3331  25.427  21.473  13.862
38105W        W 3332  30.926  11.959   5.418
38106W        W 3333  43.059   2.358   2.711
38107W        W 3334  41.005   1.051  14.539
38108W        W 3335  22.047  10.382   3.777
38109W        W 3336  39.861   9.652   3.164
38110W        W 3337  27.738  22.267  11.128
38111W        W 3338  33.975  32.394  12.901
38112W        W 3339  31.803  14.465  12.949
38113W        W 3340  42.963  44.761  13.245
38114W        W 3341  43.155  12.785  13.230
38115W        W 3342  27.850   5.924   1.217
38116W        W 3343  23.207  41.434   4.852
38117W        W 3344  23.946  20.397   1.543
38118W        W 3345   6.597  10.057  14.254
38119W        W 3346   7.834  17.764  13.705
38120W        W 3347  34.049  16.092  14.021
38121W        W 3348  15.046  36.469  10.767
38122W        W 3349  31.685  44.011  14.871
38123W        W 3350  44.934  26.257  12.554
38124W        W 3351  22.124  32.506  14.261
38125W        W 3352  28.002  38.066   0.700
38126W        W 3353  28.526  11.158   1.479
38127W        W 3354  34.391   1.986   4.598
38128W        W 3355  27.201  35.016   2.192
38129W        W 3356   9.929  17.171  13.653
38130W        W 3357   1.225  12.391  14.351
38131W        W 3358  39.616   6.189  11.443
38132W        W 3359  27.582  14.477  13.151
38133W        W 3360  34.480  36.329   4.222
38134W        W 3361   0.787  39.123  11.060
38135W        W 3362  21.132  32.703   1.449
38136W        W 3363  22.078   9.135  13.570
38137W        W 3364  18.909  23.777   0.951
38138W        W 3365  13.114  13.005   5.175
38139W        W 3366  39.860  35.901  11.990
38140W        W 3367   4.272  24.638   3.121
38141W        W 3368   8.821   0.992  13.818
38142W        W 3369  26.410  14.069   3.208
38143W        W 3370  10.639  35.021   3.204
38144W        W 3371  35.292   4.197  14.962
38145W        W 3372   5.437   2.478   2.755
38146W        W 3373  20.115  34.320   3.794
38147W        W 3374  25.500  14.646   4.662
38148W        W 3375   3.338  25.868  13.335
38149W        W 3376  25.066  23.083  14.795
38150W        W 3377  12.801  44.313  10.633
38151W        W 3378  35.002  23.709  10.912
38152W        W 3379   6.607  20.342   1.256
38153W        W 3380   7.737  38.246  11.689
38154W        W 3381  37.334  22.435  11.952
38155W        W 3382   8.342  10.050  14.079
38156W        W 3383   0.524  39.227   1.793
38157W        W 3384  11.366  17.424  11.188
38158W        W 3385  13.227  12.980  14.930
38159W        W 3386  44.497  39.514   1.819
38160W        W 3387   3.442  15.773   1.877
38161W        W 3388  18.336  33.614   3.566
38162W        W 3389  36.321  36.746   4.383
38163W        W 3390  38.333  26.628  11.195
38164W        W 3391  32.073  28.676   2.160
38165W        W 3392   5.889   0.940  10.825
38166W        W 3393  43.934  13.662   4.827
38167W        W 3394   2.790  16.837   4.104
38168W        W 3395  30.411  16.203  12.422
38169W        W 3396  12.357   5.392   0.941
38170W        W 3397  11.581  11.899  10.508
38171W        W 3398  44.259  42.786   3.213
38172W        W 3399  37.097   3.798   5.177
38173W        W 3400   1.766  37.346  11.192
38174W        W 3401  37.993  15.591  10.626
38175W        W 3402  22.115  35.049   3.647
38176W        W 3403  17.553  33.540   1.874
38177W        W 3404  32.167  44.313   2.176
38178W        W 3405  36.890  41.284  10.669
38179W        W 3406  38.538   9.880  14.824
38180W        W 3407  25.326   2.830  11.558
38181W        W 3408   4.248  28.632  13.160
38182W        W 3409   0.179  44.594  10.969
38183W        W 3410   6.479  17.210  12.581
38184W        W 3411  41.839  23.616   2.341
38185W        W 3412  22.164  17.311   0.916
38186W        W 3413  22.841  33.864   3.805
38187W        W 3414   2.967   6.754  11.950
38188W        W 3415  24.264  34.344   2.889
38189W        W 3416  29.920  10.403  14.916
38190W        W 3417  36.004  41.551   2.773
38191W        W 3418  18.092   1.570   1.743
38192W        W 3419  29.914   1.734   3.676
38193W        W 3420  13.284  41.154  14.884
38194W        W 3421  20.479  23.605  12.044
38195W        W 3422  31.874  15.433  14.734
38196W        W 3423  22.645  21.957  11.903
38197W        W 3424   5.273  27.736   0.937
38198W        W 3425  41.847  23.522   4.630
38199W        W 3426   6.726  26.194   0.308
38200W        W 3427  29.820  31.353  12.040
38201W        W 3428  26.016  23.691  10.439
38202W        W 3429   3.898  28.894  12.467
38203W        W 3430  14.857  24.968   3.024
38204W        W 3431  32.954   9.928   2.328
38205W        W 3432   5.165  20.589   2.592
38206W        W 3433  42.037  26.122  12.093
38207W        W 3434  13.044  43.551  13.281
38208W        W 3435  39.678  31.920  11.974
38209W        W 3436  21.730  37.052  14.472
38210W        W 3437  37.942   2.813   1.406
38211W        W 3438  25.501  37.415   0.759
38212W        W 3439  21.204   9.188   1.696
38213W        W 3440  30.572   4.935   4.585
38214W        W 3441  34.109  16.047   0.013
38215W        W 3442  10.721  18.579  11.647
38216W        W 3443  20.519  16.078   1.526
38217W        W 3444  18.313  41.236   0.548
38218W        W 3445  35.988  40.993   2.724
38219W        W 3446  37.365  21.113   0.713
38220W        W 3447  41.245  10.810   0.908
38221W        W 3448  26.508  16.787   3.741
38222W        W 3449  13.614   9.458  13.055
38223W        W 3450   6.760  22.908  14.086
38224W        W 3451  16.047  12.267  13.419
38225W        W 3452  11.623  23.341  12.982
38226W        W 3453  16.137  17.546  12.052
38227W        W 3454  27.429  38.726  14.785
38228W        W 3455  31.888  43.493   4.768
38229W        W 3456  34.606   1.359   2.713
38230W        W 3457  12.669  25.174   3.733
38231W        W 3458  12.877   9.638   3.232
38232W        W 3459  35.950  43.399   0.820
38233W        W 3460  11.715  29.492   3.229
38234W        W 3461  31.532  39.575  10.188
38235W        W 3462  21.926  29.627  14.389
38236W        W 3463  21.645  13.871  11.959
38237W        W 3464  24.978  16.787   2.695
38238W        W 3465   3.721  30.966  12.430
38239W        W 3466  40.162  39.405   2.857
38240W        W 3467  40.691  17.636   2.134
38241W        W 3468  36.541  18.796   3.229
38242W        W 3469   5.238  15.397   4.141
38243W        W 3470  40.546  35.384   4.569
38244W        W 3471  39.981  20.838   4.489
38245W        W 3472  44.042  17.682  13.065
38246W        W 3473   5.024   5.650   4.732
38247W        W 3474  12.557  30.858   0.498
38248W        W 3475  34.231  29.981  11.945
38249W        W 3476   1.660  32.585  14.492
38250W        W 3477  42.953  14.137   2.643
38251W        W 3478  23.768  16.119   0.399
38252W        W 3479   7.341  15.998  13.311
38253W        W 3480  11.194  24.076   4.753
38254W        W 3481  30.195   1.086  14.502
38255W        W 3482  24.109  23.092  12.399
38256W        W 3483  39.384  27.897   2.255
38257W        W 3484  41.324   6.177   1.376
38258W        W 3485  30.062  10.926  12.098
38259W        W 3486  38.406  29.457  13.707
38260W        W 3487  10.765  37.585  11.324
38261W        W 3488  12.033   4.516   2.758
38262W        W 3489  33.433   7.383   3.660
38263W        W 3490  41.757  24.651   1.196
38264W        W 3491   0.359   9.707   1.357
38265W        W 3492  14.121  22.121   1.170
38266W        W 3493  29.798  42.303   2.862
38267W        W 3494  28.123  13.014   3.695
38268W        W 3495   2.213  40.216   3.782
38269W        W 3496  17.460  38.403  11.554
38270W        W 3497   2.514  17.309  10.228
38271W        W 3498  18.069  26.774  11.571
38272W        W 3499   4.335  15.579   2.348
38273W        W 3500  34.139  20.318  12.638
38274W        W 3501  25.977  41.868  11.557
38275W        W 3502  36.573  11.306   1.534
38276W        W 3503  15.117  43.466   2.634
38277W        W 3504  22.123  17.993   3.794
38278W        W 3505  11.456  17.639   3.587
38279W        W 3506  16.103   1.683  13.887
38280W        W 3507  39.833   2.292   0.811
38281W        W 3508  13.758   5.853   0.649
38282W        W 3509   1.067  18.044  11.235
38283W        W 3510  34.501  35.818   4.890
38284W        W 3511  21.420  44.235  10.936
38285W        W 3512   5.570  29.031  14.332
38286W        W 3513  25.413  10.796  12.024
38287W        W 3514  37.107  35.499   3.547
38288W        W 3515   8.857  34.790   3.746
38289W        W 3516  12.282   1.353  12.946
38290W        W 3517  23.939  41.098  11.977
38291W        W 3518  19.471  10.032   3.149
38292W        W 3519  18.998   6.589  14.399
38293W        W 3520  26.425  33.196  10.318
38294W        W 3521  27.698  43.363  12.063
38295W        W 3522  11.464  30.063  14.348
38296W        W 3523  11.854   7.904   1.412
38297W        W 3524  41.739  38.002  13.716
38298W        W 3525   1.350  19.149   0.010
38299W        W 3526  30.833  21.381   1.570
38300W        W 3527  37.595  16.388  10.206
38301W        W 3528  28.910  13.851   9.907
38302W        W 3529   0.728  40.390  14.430
38303W        W 3530  22.139  38.065  12.098
38304W        W 3531   2.462   2.823   4.255
38305W        W 3532  16.958  36.031   2.860
38306W        W 3533  11.046  36.058   0.842
38307W        W 3534   9.811   3.740  14.518
38308W        W 3535  22.841  18.687  12.871
38309W        W 3536  25.619   2.935   3.765
38310W        W 3537  12.784  16.246   3.110
38311W        W 3538  23.626   0.394   0.930
38312W        W 3539  27.419  14.339   2.119
38313W        W 3540  19.684  17.027   4.064
38314W        W 3541  23.097  12.158   0.336
38315W        W 3542  42.852  31.474  12.774
38316W        W 3543  16.744  30.018   1.467
38317W        W 3544  34.042  19.093   0.347
38318W        W 3545  44.830  13.152  13.109
38319W        W 3546  33.395  18.480   3.280
38320W        W 3547   7.485  30.844   3.799
38321W        W 3548  23.539  44.081   2.854
38322W        W 3549   9.332  43.881  12.453
38323W        W 3550   2.248  17.596  14.857
38324W        W 3551   1.385  19.103  10.314
38325W        W 3552  44.875   9.880   3.605
38326W        W 3553  42.892  28.024  13.688
38327W        W 3554   0.600  28.883  11.580
38328W        W 3555   1.847  39.093  13.840
38329W        W 3556  31.623  42.964  13.311
38330W        W 3557  39.086  19.266  13.068
38331W        W 3558  33.380  12.112  10.808
38332W        W 3559  20.027  20.043  12.771
38333W        W 3560  20.236  37.382  10.868
38334W        W 3561  25.680  20.639   2.165
38335W        W 3562  25.010  23.040  10.705
38336W        W 3563  31.529  35.478   0.785
38337W        W 3564  26.424   5.040  11.937
38338W        W 3565  25.707  29.250   2.748
38339W        W 3566  44.139  18.785   0.292
38340W        W 3567  44.645   0.472   3.290
38341W        W 3568  12.525  24.039  11.736
38342W        W 3569  36.111   8.328   4.173
38343W        W 3570  10.492  21.735   1.108
38344W        W 3571   1.221  29.166   2.730
38345W        W 3572  31.582  32.890  12.084
38346W        W 3573  18.717  26.660  14.923
38347W        W 3574  35.139  23.077   0.991
38348W        W 3575  17.017  34.943   3.422
38349W        W 3576   2.978  23.235   3.849
38350W        W 3577   8.774   2.415  12.457
38351W        W 3578  33.696  10.628   2.757
38352W        W 3579  27.958  22.532  10.677
38353W        W 3580  19.909   1.329  14.591
38354W        W 3581  35.887   2.076   4.229
38355W        W 3582   8.244  21.120  10.258
38356W        W 3583  31.825   5.465   0.794
38357W        W 3584  16.645  40.756   4.650
38358W        W 3585  38.510   3.642   3.531
38359W        W 3586  29.459  42.613  12.405
38360W        W 3587   8.879  39.692  12.192
38361W        W 3588  28.459  17.767  14.323
38362W        W 3589  10.624  34.129  11.096
38363W        W 3590  42.241  22.764   0.866
38364W        W 3591  10.157  37.813   2.938
38365W        W 3592  30.885  20.880  14.420
38366W        W 3593  38.968  10.102  10.361
38367W        W 3594   7.880   9.081  10.805
38368W        W 3595  40.885  31.016   3.238
38369W        W 3596  23.571  13.087   0.277
38370W        W 3597  12.981  44.287  10.150
38371W        W 3598   5.217  40.511   3.367
38372W        W 3599  34.476  44.183   4.192
38373W        W 3600   9.269  11.903   3.301
38374W        W 3601  27.624   2.798   1.252
38375W        W 3602   5.017  33.654   4.066
38376W        W 3603  22.802  32.190  10.053
38377W        W 3604  29.602  23.759  10.987
38378W        W 3605   9.861  26.103   2.252
38379W        W 3606  10.951  40.060   1.767
38380W        W 3607  42.343  25.027  10.685
38381W        W 3608  18.871  30.113  13.630
38382W        W 3609  30.468  18.908   2.322
38383W        W 3610   4.494  43.485  13.321
38384W        W 3611  44.498   1.650  13.793
38385W        W 3612  14.066  13.150   2.803
38386W        W 3613  39.515  34.458  13.917
38387W        W 3614  30.339   1.836   0.441
38388W        W 3615   9.690  41.447  14.415
38389W        W 3616  37.643   4.910  13.128
38390W        W 3617  37.648  44.346   5.032
38391W        W 3618   5.501  42.830   4.534
38392W        W 3619   7.154   4.879  12.436
38393W        W 3620  19.605  35.434  13.863
38394W        W 3621   8.389  21.171   4.749
38395W        W 3622  25.765  17.520  14.399
38396W        W 3623  14.073   7.956  10.877
38397W        W 3624  22.665  20.874   1.231
38398W        W 3625  20.732   0.262   1.460
38399W        W 3626  20.791  29.687  11.268
38400W        W 3627  16.373  25.386   0.775
38401W        W 3628   6.693  14.164   3.808
38402W        W 3629  36.123  43.878   0.922
38403W        W 3630  27.752  11.584  10.580
38404W        W 3631  25.840  14.334   1.025
38405W        W 3632  35.562  12.676   3.401
38406W        W 3633  34.869   8.840   3.617
38407W        W 3634  27.916  13.163  13.410
38408W        W 3635  43.978  30.866  11.676
38409W        W 3636  18.803  16.243   1.336
38410W        W 3637  27.141  41.424   2.004
38411W        W 3638  29.929   1.250  14.107
38412W        W 3639   6.182  21.665  12.449
38413W        W 3640  41.986  37.510   2.092
38414W        W 3641   4.833  25.097   3.522
38415W        W 3642  27.500  16.334   3.663
38416W        W 3643  37.411  27.678   1.864
38417W        W 3644  19.782  11.546  14.848
38418W        W 3645  29.430   4.394   2.374
38419W        W 3646  12.351   0.639   0.469
38420W        W 3647  41.932  44.959   4.331
38421W        W 3648   2.932  21.001  11.987
38422W        W 3649  43.365   4.240  11.907
38423W        W 3650  29.715  37.856  11.194
38424W        W 3651  11.718  12.184   4.881
38425W        W 3652  43.320  10.572   4.509
38426W        W 3653  25.251  21.527  14.359
38427W        W 3654  37.538   9.127   2.206
38428W        W 3655  25.631  27.706   2.514
38429W        W 3656  37.321  14.007   4.191
38430W        W 3657  18.370  16.213   0.000
38431W        W 3658  36.072   5.342   2.923
38432W        W 3659   1.411  12.902   2.345
38433W        W 3660   6.682   0.752   4.900
38434W        W 3661  41.692   1.742  12.627
38435W        W 3662  17.289  41.913  13.989
38436W        W 3663   2.905  29.651   4.081
38437W        W 3664  18.685  34.303  14.334
38438W        W 3665  13.382  33.217  11.580
38439W        W 3666  31.348  39.251  10.587
38440W        W 3667  15.513  26.581  12.564
38441W        W 3668  44.910  36.367   1.733
38442W        W 3669  40.768  40.430   1.689
38443W        W 3670  27.987  40.336   3.797
38444W        W 3671  36.599  21.136  11.842
38445W        W 3672  11.971  43.504  14.011
38446W        W 3673   9.860  12.243  13.285
38447W        W 3674  39.973   8.952  10.711
38448W        W 3675   3.704   3.898  13.065
38449W        W 3676  41.415  28.523  14.856
38450W        W 3677  12.845  34.978  12.571
38451W        W 3678  13.067  38.501   3.838
38452W        W 3679  28.673  43.445  12.805
38453W        W 3680  40.272   8.807  11.101
38454W        W 3681  40.621  41.288   2.374
38455W        W 3682  23.152  33.527   1.457
38456W        W 3683  37.974   7.453  12.451
38457W        W 3684  33.958  30.431   3.255
38458W        W 3685  41.889   8.136  13.425
38459W        W 3686  25.559   3.421   3.592
38460W        W 3687   6.344  41.215  11.723
38461W        W 3688  33.961  38.400  13.054
38462W        W 3689  44.374   2.138  11.055
38463W        W 3690  23.539  20.793   4.604
38464W        W 3691   7.140  26.368   2.665
38465W        W 3692  25.109  21.495   3.279
38466W        W 3693  44.875  28.130  11.662
38467W        W 3694  31.151  32.982   3.892
38468W        W 3695  35.503  23.518  14.536
38469W        W 3696  16.717  25.329  14.463
38470W        W 3697  26.563  22.505  13.613
38471W        W 3698  40.470   3.352  13.323
38472W        W 3699  20.599   7.876  12.232
38473W        W 3700  12.708  38.634  14.431
38474W        W 3701  42.538  35.979   0.786
38475W        W 3702  44.942  17.523  11.508
38476W        W 3703  27.001  38.965   2.696
38477W        W 3704  40.488   0.548   4.362
38478W        W 3705  18.762  28.056   1.386
38479W        W 3706  31.626   0.958  13.616
38480W        W 3707  15.598  21.058   1.888
38481W        W 3708   6.438  20.229   1.729
38482W        W 3709  27.154   0.553  14.434
38483W        W 3710   7.354  30.650   1.337
38484W        W 3711   8.550   3.113  13.175
38485W        W 3712   8.767  23.443  10.609
38486W        W 3713   1.910  22.475  13.134
38487W        W 3714  36.372  37.794   2.255
38488W        W 3715  32.509  28.776   3.684
38489W        W 3716  14.164  16.139  12.068
38490W        W 3717   0.644  39.960  11.928
38491W        W 3718  37.823   6.654  14.485
38492W        W 3719  27.488   0.279  14.725
38493W        W 3720  27.071  18.352  14.400
38494W        W 3721  42.424   1.656  11.184
38495W        W 3722  12.235  24.146   2.284
38496W        W 3723  25.448   4.656   0.880
38497W        W 3724  26.255  17.166   4.022
38498W        W 3725  22.654   2.121  12.886
38499W        W 3726  30.535  17.243   2.632
38500W        W 3727  29.491  41.457  11.652
38501W        W 3728  26.312  42.950  13.711
38502W        W 3729   7.334  12.648  14.289
38503W        W 3730   6.875  42.001  13.037
38504W        W 3731  41.865  42.020  12.450
38505W        W 3732  21.106   9.591   4.069
38506W        W 3733  42.790  12.638   1.434
38507W        W 3734   4.292  22.574   2.856
38508W        W 3735  15.048  21.374   1.349
38509W        W 3736  16.105  43.255   1.281
38510W        W 3737  30.181  36.907   1.781
38511W        W 3738   1.775  24.459   4.596
38512W        W 3739  26.230  37.417  11.458
38513W        W 3740   4.137  10.944   2.371
38514W        W 3741  36.154   9.752   2.943
38515W        W 3742  32.925  10.249   2.746
38516W        W 3743  39.819  41.573   2.148
38517W        W 3744  33.397  34.028   2.890
38518W        W 3745  32.354   2.208  12.524
38519W        W 3746  21.498  43.791   1.895
38520W        W 3747  24.001  15.296  11.941
38521W        W 3748  11.584  42.831   4.213
38522W        W 3749  28.707  25.425   2.824
38523W        W 3750  26.122  43.891  10.681
38524W        W 3751  16.399  23.305  14.481
38525W        W 3752  40.057  12.269   1.245
38526W        W 3753  28.562   1.306  11.391
38527W        W 3754  16.027  10.734   4.245
38528W        W 3755  13.744  20.185  11.167
38529W        W 3756  44.447  38.149   0.967
38530W        W 3757  41.510  42.018   1.838
38531W        W 3758  42.079  27.983   1.708
38532W        W 3759  36.332  29.626   3.892
38533W        W 3760  19.487  16.717   3.260
38534W        W 3761  20.780   0.492  11.081
38535W        W 3762  24.504  30.659  13.282
38536W        W 3763   7.996  23.177  14.558
38537W        W 3764  26.003  17.544  11.559
38538W        W 3765  13.880   2.259  12.389
38539W        W 3766  40.547  44.799  11.967
38540W        W 3767  32.917  18.216   4.527
38541W        W 3768   7.339  16.268   1.485
38542W        W 3769  26.183  13.881  11.458
38543W        W 3770  40.792  11.900  14.228
38544W        W 3771  27.735  30.720   4.667
38545W        W 3772  36.107  18.108   0.814
38546W        W 3773  38.500  28.206   2.422
38547W        W 3774   2.290  17.599  11.060
38548W        W 3775  25.615   8.343   3.213
38549W        W 3776  40.341   0.819  14.365
38550W        W 3777  37.142  32.464   1.679
38551W        W 3778  22.242   2.806   0.266
38552W        W 3779  34.527  33.305  11.619
38553W        W 3780  33.183   6.800   2.163
38554W        W 3781   7.784   8.860   2.629
38555W        W 3782  38.679  39.122  14.032
38556W        W 3783  42.827  23.789  13.861
38557W        W 3784  16.180  23.724   0.005
38558W        W 3785   3.811  32.631  12.336
38559W        W 3786  18.512   8.080   4.609
38560W        W 3787   9.701   9.082  12.015
38561W        W 3788  23.937  18.606   0.228
38562W        W 3789  40.638  40.471  14.015
38563W        W 3790  20.869  33.637   3.378
38564W        W 3791  14.948  41.955   1.445
38565W        W 3792  36.615   9.532   2.842
38566W        W 3793   6.163   1.911  12.339
38567W        W 3794  25.580  22.080  12.599
38568W        W 3795   3.914  27.125   2.812
38569W        W 3796  33.127   6.048  13.100
38570W        W 3797  26.950  18.024  14.009
38571W        W 3798  31.575  37.629   1.285
38572W        W 3799  15.146   2.093   3.918
38573W        W 3800   9.439   6.843  12.081
38574W        W 3801   9.503  11.931  10.930
38575W        W 3802  35.078  39.358   2.651
38576W        W 3803  44.696   1.600  14.864
38577W        W 3804  36.968  42.018   3.071
38578W        W 3805  29.014  15.110   0.304
38579W        W 3806  24.587  25.177   2.530
38580W        W 3807  19.003  28.746   3.956
38581W        W 3808   6.171  40.199  12.055
38582W        W 3809  42.993  22.442   3.622
38583W        W 3810  25.751  26.263  10.661
38584W        W 3811  37.089  31.137   3.759
38585W        W 3812  41.288  37.324   2.724
38586W        W 3813  36.326  15.061   4.595
38587W        W 3814  17.611  42.331   0.556
38588W        W 3815  19.456  10.896   2.142
38589W        W 3816  12.337  43.325   0.822
38590W        W 3817   7.647  33.460   1.752
38591W        W 3818   2.459  35.483   0.811
38592W        W 3819  43.956  13.630  13.437
38593W        W 3820  41.275  34.860   1.314
38594W        W 3821   2.429   5.721  11.646
38595W        W 3822  16.749  31.389   2.468
38596W        W 3823  13.353  23.296   0.337
38597W        W 3824  19.001  17.656  13.277
38598W        W 3825  16.276  25.665   4.853
38599W        W 3826   7.381  33.372   4.096
38600W        W 3827  20.298   0.252   2.692
38601W        W 3828  31.480  35.595   0.263
38602W        W 3829  14.018  26.664  11.059
38603W        W 3830  24.459   7.808   4.746
38604W        W 3831  26.211  18.021  11.123
38605W        W 3832  37.487  22.276   0.124
38606W        W 3833  31.062  41.345  14.387
38607W        W 3834  44.726  40.505  12.192
38608W        W 3835   6.278  37.447   2.902
38609W        W 3836   0.408   1.744   1.293
38610W        W 3837  31.398  17.293   3.819
38611W        W 3838  28.292  25.840   2.684
38612W        W 3839   4.783   0.055   0.312
38613W        W 3840  15.279   4.447  14.318
38614W        W 3841  41.329  42.372  10.670
38615W        W 3842  36.617  30.518   0.318
38616W        W 3843  36.869  33.121  14.520
38617W        W 3844   5.059   9.674   4.177
38618W        W 3845  38.292   0.237   4.224
38619W        W 3846  44.592  30.985   0.075
38620W        W 3847   3.666  39.325  11.994
38621W        W 3848  42.008  39.896   0.426
38622W        W 3849  43.458   0.312  10.802
38623W        W 3850  40.326  44.519  12.500
38624W        W 3851  16.247  33.057   4.932
38625W        W 3852   5.728   4.007  13.908
38626W        W 3853  31.848  34.074   4.661
38627W        W 3854  13.271  10.802   1.228
38628W        W 3855  13.674  21.062   1.153
38629W        W 3856  25.884   0.343  10.758
38630W        W 3857  39.933   7.459   4.541
38631W        W 3858   4.798  38.019  10.713
38632W        W 3859  39.560   4.552   2.839
38633W        W 3860  27.245  14.164  14.368
38634W        W 3861  26.308  27.647  12.057
38635W        W 3862  38.469  33.188   3.164
38636W        W 3863  17.709  40.860   4.540
38637W        W 3864  23.937  15.497   3.695
38638W        W 3865  34.600  33.483   4.596
38639W        W 3866  19.526  41.705  11.327
38640W        W 3867  25.768  39.962  11.514
38641W        W 3868  25.183  10.192  11.477
38642W        W 3869  20.194  26.941  11.401
38643W        W 3870  27.219  19.016  14.027
38644W        W 3871  41.986  25.032   4.510
38645W        W 3872   0.664  36.625   4.589
38646W        W 3873  41.758  33.695   1.841
38647W        W 3874  21.957  43.070   3.184
38648W        W 3875   3.408   7.716  14.767
38649W        W 3876   0.469  17.677  13.179
38650W        W 3877  23.220  29.546  13.369
38651W        W 3878  44.551   6.704   0.196
38652W        W 3879   3.989  24.799   5.141
38653W        W 3880  24.792  15.097  13.903
38654W        W 3881  16.901  42.720  13.296
38655W        W 3882  23.027  25.460   2.752
38656W        W 3883  33.602  24.208   4.582
38657W        W 3884  17.338  34.901   0.320
38658W        W 3885  38.958  25.242   3.999
38659W        W 3886  33.945  41.288  14.744
38660W        W 3887  23.763   0.744  12.585
38661W        W 3888  18.135  40.207   4.135
38662W        W 3889  11.537  16.340  10.146
38663W        W 3890  43.021   3.995  11.069
38664W        W 3891  40.536   9.868   3.601
38665W        W 3892  15.409  40.112  13.429
38666W        W 3893   1.272  24.830  14.214
38667W        W 3894  37.997  21.078   0.908
38668W        W 3895  28.292  23.224  13.316
38669W        W 3896  10.251   8.403  14.178
38670W        W 3897  41.625  25.955   2.449
38671W        W 3898   2.146  22.718  10.592
38672W        W 3899   7.286  39.901  14.806
38673W        W 3900  20.316  28.153   2.175
38674W        W 3901  27.078  42.363   1.525
38675W        W 3902   4.833   8.616  10.689
38676W        W 3903  27.164  15.701  14.362
38677W        W 3904  41.976  29.521   4.051
38678W        W 3905  41.306   6.333   2.764
38679W        W 3906   3.482  25.591   3.673
38680W        W 3907   7.770  44.796  12.055
38681W        W 3908  27.491   3.181   2.212
38682W        W 3909  30.559  25.876   9.911
38683W        W 3910  18.034   3.658   3.354
38684W        W 3911   5.463  43.832  12.118
38685W        W 3912  21.008   6.387   0.664
38686W        W 3913   6.958  12.052   1.428
38687W        W 3914  39.500  10.730  11.103
38688W        W 3915  35.598   9.320  13.557
38689W        W 3916  19.574  30.980  10.444
38690W        W 3917  19.766  10.267  13.558
38691W        W 3918  11.085  14.771   3.715
38692W        W 3919  25.487   9.266   4.302
38693W        W 3920  18.224  28.926  12.083
38694W        W 3921  13.139  14.098   2.069
38695W        W 3922  38.941  19.230   2.725
38696W        W 3923  27.670   5.758   2.631
38697W        W 3924  27.480  35.530  14.328
38698W        W 3925   1.280   1.804  13.009
38699W        W 3926  41.222  23.737   1.760
38700W        W 3927  10.373  12.416  11.123
38701W        W 3928  12.839  32.365   0.332
38702W        W 3929  21.142  16.081   2.349
38703W        W 3930  39.039   4.121   4.128
38704W        W 3931   6.249  12.290   0.323
38705W        W 3932  10.680   1.883  13.982
38706W        W 3933  17.099  16.861   0.059
38707W        W 3934  30.610   9.145   2.241
38708W        W 3935  31.811   5.184   3.264
38709W        W 3936  26.952  33.830  12.132
38710W        W 3937  38.105  18.764   2.362
38711W        W 3938  31.424   4.225   2.262
38712W        W 3939  25.154   2.426   4.294
38713W        W 3940  11.833  36.486   0.717
38714W        W 3941  12.850  14.869  13.914
38715W        W 3942  21.899  13.974   2.666
38716W        W 3943  41.787  17.117   4.538
38717W        W 3944  38.910  28.355  11.899
38718W        W 3945  38.063  19.161   3.167
38719W        W 3946  16.569  15.060   0.838
38720W        W 3947  27.213  40.373  10.638
38721W        W 3948   2.655  39.003  12.711
38722W        W 3949  30.455  24.196  10.550
38723W        W 3950  33.668   0.524  14.417
38724W        W 3951  41.330  21.703   3.711
38725W        W 3952  39.582   8.221   5.402
38726W        W 3953  37.037  27.492  12.909
38727W        W 3954  23.157  26.320   4.459
38728W        W 3955  19.623  31.394  14.098
38729W        W 3956  21.207   2.313   1.773
38730W        W 3957  11.495   1.159  13.376
38731W        W 3958  40.027   6.525   1.918
38732W        W 3959  44.920   0.685  14.762
38733W        W 3960  33.526  32.680  12.882
38734W        W 3961   4.465  41.576   0.380
38735W        W 3962  35.596  24.004  11.952
38736W        W 3963  25.745  27.657   3.750
38737W        W 3964  36.419  14.295  14.073
38738W        W 3965  15.759  25.610   1.254
38739W        W 3966  11.035  31.166  10.245
38740W        W 3967  38.795  43.591  10.844
38741W        W 3968   1.270  30.723  14.946
38742W        W 3969  30.113  37.565  14.781
38743W        W 3970  31.081   7.364   2.397
38744W        W 3971   2.397  12.715   2.420
38745W        W 3972  36.589   6.378  13.749
38746W        W 3973  14.305  39.573   4.237
38747W        W 3974   2.976  43.664  13.361
38748W        W 3975   7.326  36.902   0.529
38749W        W 3976  30.954  15.518  12.557
38750W        W 3977  35.797  15.776  11.260
38751W        W 3978  32.842  15.025   1.218
38752W        W 3979   2.957   7.840   2.140
38753W        W 3980   0.057  10.863   1.778
38754W        W 3981  24.422  33.791   4.355
38755W        W 3982  35.500  37.384   4.608
38756W        W 3983  41.791  18.904   5.172
38757W        W 3984  41.446   5.255   3.633
38758W        W 3985  17.392   4.035  12.006
38759W        W 3986  19.343  17.628   4.232
38760W        W 3987   6.124  34.891   0.844
38761W        W 3988  40.962  32.469   4.665
38762W        W 3989  40.366   4.152  14.886
38763W        W 3990   3.836  37.336   3.328
38764W        W 3991  20.034  36.678  12.043
38765W        W 3992   3.480  29.529  11.150
38766W        W 3993  39.739   3.029   5.301
38767W        W 3994  12.881  13.849  11.803
38768W        W 3995  19.804  34.822   2.761
38769W        W 3996  10.138   8.881  14.562
38770W        W 3997   4.170   3.479   3.189
38771W        W 3998  34.643  39.784   4.375
38772W        W 3999   1.980  11.560   3.198
38773W        W 4000  17.516   9.618   1.420
38774W        W 4001  37.980  15.853  11.559
38775W        W 4002  27.487   3.727   1.437
38776W        W 4003   8.910  40.307  13.560
38777W        W 4004  36.827   3.827  11.777
38778W        W 4005   9.413   2.078  14.448
38779W        W 4006  28.631   3.338   3.860
38780W        W 4007  40.316  10.801  11.641
38781W        W 4008  28.164  37.037  14.232
38782W        W 4009  43.049   6.833  12.939
38783W        W 4010   4.636  22.244   1.734
38784W        W 4011  42.173  39.852  12.195
38785W        W 4012  34.383   0.262  10.535
38786W        W 4013  39.472   7.332   3.231
38787W        W 4014  28.131  28.992  12.173
38788W        W 4015   7.362  31.134  14.484
38789W        W 4016  13.980  27.545   1.532
38790W        W 4017  30.681  19.833   2.707
38791W        W 4018  32.877  17.508   9.633
38792W        W 4019  41.909   5.747  11.616
38793W        W 4020  43.800  28.624   4.689
38794W        W 4021  28.162  44.788  10.608
38795W        W 4022  42.206   8.751  10.681
38796W        W 4023  13.681  41.499   1.029
38797W        W 4024   6.922  17.824   4.143
38798W        W 4025   0.695  40.711   0.781
38799W        W 4026  30.175  35.655   2.939
38800W        W 4027  39.395  24.249  11.747
38801W        W 4028  33.701  40.117   4.093
38802W        W 4029  41.318  25.075  10.767
38803W        W 4030  35.057  27.402   0.347
38804W        W 4031  38.979  34.014  11.039
38805W        W 4032  36.219  18.326   4.941
38806W        W 4033  34.651  44.575   0.206
38807W        W 4034  28.444  42.448  12.415
38808W        W 4035   1.726  23.558  14.944
38809W        W 4036  24.559  12.910   4.720
38810W        W 4037  26.474  40.839   2.336
38811W        W 4038  14.022  33.961  14.274
38812W        W 4039  19.783  18.311  12.233
38813W        W 4040  44.029  43.386   2.402
38814W        W 4041  25.475  38.449   3.312
38815W        W 4042   7.449  35.516   1.690
38816W        W 4043  27.963  17.071  12.054
38817W        W 4044   9.399  38.497  14.340
38818W        W 4045  38.602  37.536   3.694
38819W        W 4046   7.431  38.629  12.577
38820W        W 4047  32.494  33.476   4.246
38821W        W 4048  43.306  38.741   4.206
38822W        W 4049   7.402  22.020  10.996
38823W        W 4050  41.519   1.352   2.741
38824W        W 4051  16.184  10.618   4.745
38825W        W 4052  37.865   4.008   0.745
38826W        W 4053  32.171  19.546  10.819
38827W        W 4054  23.296   5.779   3.711
38828W        W 4055   3.218  10.980   3.608
38829W        W 4056  31.091  38.413  12.782
38830W        W 4057   4.504  28.366  11.082
38831W        W 4058  31.983  29.595  13.513
38832W        W 4059  44.500  11.421  11.444
38833W        W 4060   4.847  19.797   3.635
38834W        W 4061  44.232  11.260  12.587
38835W        W 4062  16.695  24.431   0.424
38836W        W 4063  11.846  28.947  10.324
38837W        W 4064  26.288  30.859  11.679
38838W        W 4065  40.705   2.910   0.907
38839W        W 4066  12.596  25.095   4.259
38840W        W 4067   4.458  20.500   0.383
38841W        W 4068  27.110  40.069   4.496
38842W        W 4069  21.248  25.013   3.140
38843W        W 4070   8.282  42.380   0.513
38844W        W 4071  16.033  28.400   0.339
38845W        W 4072  16.676  26.484   2.093
38846W        W 4073   9.658  41.511   0.377
38847W        W 4074   9.230  42.349  11.703
38848W        W 4075  19.448  42.541   0.247
38849W        W 4076   2.775  14.587  11.206
38850W        W 4077  25.673  32.881  12.096
38851W        W 4078  32.084  32.120  12.993
38852W        W 4079  13.520  21.680   2.333
38853W        W 4080  35.886  29.168  13.343
38854W        W 4081  14.197  15.606  13.570
38855W        W 4082  20.146  32.436  14.470
38856W        W 4083  14.246  12.645   2.757
38857W        W 4084  22.335   8.147  10.993
38858W        W 4085   5.748  16.096   1.313
38859W        W 4086  16.801   8.333   2.381
38860W        W 4087  11.155   9.336   4.144
38861W        W 4088  38.480  17.753   4.564
38862W        W 4089  22.561  26.036   4.862
38863W        W 4090  44.509  11.240  13.599
38864W        W 4091   5.248  34.000   4.659
38865W        W 4092   5.479   0.322   0.353
38866W        W 4093  23.649  33.962  11.487
38867W        W 4094   6.364   4.779  14.107
38868W        W 4095  25.115  23.522  12.985
38869W        W 4096  34.342  43.380  13.117
38870W        W 4097   0.485  33.372   3.653
38871W        W 4098  32.617  23.922  11.169
38872W        W 4099   5.623  22.950  13.337
38873W        W 4100  24.582  37.918  12.596
38874W        W 4101   8.246  12.604   3.033
38875W        W 4102  35.193  38.468   4.900
38876W        W 4103   7.364  41.339   2.529
38877W        W 4104  15.139   0.726  13.811
38878W        W 4105  41.794  21.013  11.071
38879W        W 4106  17.869  14.686   3.200
38880W        W 4107   1.010  35.305   0.243
38881W        W 4108  22.855  29.536  11.674
38882W        W 4109   3.778  41.313  12.445
38883W        W 4110  44.722  23.603  11.159
38884W        W 4111  26.258  27.140  12.474
38885W        W 4112  17.038  36.824  13.555
38886W        W 4113   2.848   7.436   2.952
38887W        W 4114  13.165  32.145  13.948
38888W        W 4115  32.310  32.214   4.106
38889W        W 4116  17.323  33.476  13.386
38890W        W 4117   5.937  41.806   3.058
38891W        W 4118   0.436  10.428  11.303
38892W        W 4119   1.608  32.063  13.418
38893W        W 4120  35.679   7.889   0.262
38894W        W 4121  38.902  10.441   2.295
38895W        W 4122  24.682  21.756  13.517
38896W        W 4123  21.047   9.186  14.388
38897W        W 4124  12.546   6.890   3.288
38898W        W 4125   0.332  40.930  14.107
38899W        W 4126  15.982   9.539   1.915
38900W        W 4127   6.860   3.524  12.872
38901W        W 4128   5.348  17.611  14.433
38902W        W 4129  18.137  37.961  13.874
38903W        W 4130  35.414   6.390   3.774
38904W        W 4131  40.381  15.018  13.094
38905W        W 4132  26.032  24.020   1.613
38906W        W 4133  12.805  19.962   2.777
38907W        W 4134  32.492  34.609  13.585
38908W        W 4135  32.026  35.863  10.310
38909W        W 4136  22.537  22.928   1.925
38910W        W 4137  15.660  32.611  14.033
38911W        W 4138  43.093  21.809   1.313
38912W        W 4139  34.648  19.813   2.576
38913W        W 4140  30.842  20.122  14.409
38914W        W 4141  35.678  28.034   0.858
38915W        W 4142  36.471  11.592  11.793
38916W        W 4143  40.381  22.408  12.066
38917W        W 4144  32.112  41.271  12.954
38918W        W 4145   3.696  44.387  13.498
38919W        W 4146  27.151  19.574  13.318
38920W        W 4147  24.217  33.429  11.098
38921W        W 4148  41.403  21.098  12.894
38922W        W 4149   7.942  38.488  11.262
38923W        W 4150   7.214  32.555  13.252
38924W        W 4151  22.979  23.985   4.671
38925W        W 4152   6.329  40.960   3.375
38926W        W 4153  41.301  15.750   0.243
38927W        W 4154  43.823   4.460   4.276
38928W        W 4155  16.568  22.393  14.751
38929W        W 4156   0.822  32.913  11.573
38930W        W 4157  34.955   8.608   0.349
38931W        W 4158  18.672  18.829  12.068
38932W        W 4159  15.619  34.970  13.340
38933W        W 4160  10.760   7.307   3.855
38934W        W 4161  25.320  26.024  12.267
38935W        W 4162  34.794  13.222   3.129
38936W        W 4163   2.685  32.108   2.685
38937W        W 4164  28.827  13.345   4.795
38938W        W 4165  11.204  24.482  11.152
38939W        W 4166  33.450  19.278   4.216
38940W        W 4167   9.219  40.155   4.811
38941W        W 4168  17.231  14.332   0.351
38942W        W 4169  38.132  36.998   4.081
38943W        W 4170  36.829  12.822  12.255
38944W        W 4171  23.671  17.246   1.424
38945W        W 4172  35.919  23.219   0.353
38946W        W 4173  32.138  30.083   1.312
38947W        W 4174  30.321  35.911  13.344
38948W        W 4175   2.020  15.188   1.229
38949W        W 4176  39.297  10.872   1.443
38950W        W 4177   4.177   8.102   4.577
38951W        W 4178  20.616  31.235  14.440
38952W        W 4179  37.542  43.079   0.021
38953W        W 4180  30.037  35.744  14.964
38954W        W 4181   5.358  17.815  13.932
38955W        W 4182  13.869   1.440   0.292
38956W        W 4183  36.326   6.905  14.531
38957W        W 4184  30.923  31.613  13.437
38958W        W 4185  34.660  31.216   4.606
38959W        W 4186  40.061  26.657  13.800
38960W        W 4187   3.628  21.536   3.292
38961W        W 4188  32.191  40.414   4.687
38962W        W 4189  31.143  23.021  12.858
38963W        W 4190  35.071  24.344   1.382
38964W        W 4191   7.255  23.052   0.183
38965W        W 4192  33.457  27.793  13.774
38966W        W 4193  14.104   0.216  11.157
38967W        W 4194  36.298  35.935   3.661
38968W        W 4195  34.801  35.475  12.471
38969W        W 4196  26.022  34.911   2.980
38970W        W 4197  15.349  24.576   4.730
38971W        W 4198  38.691  39.021  12.535
38972W        W 4199  21.582  26.724   0.065
38973W        W 4200  25.885  23.076  11.134
38974W        W 4201  21.698   8.232   1.828
38975W        W 4202  19.405  39.859   1.752
38976W        W 4203  18.174  17.298   3.308
38977W        W 4204  37.633  35.041  13.077
38978W        W 4205  42.538  19.073  14.446
38979W        W 4206   9.700  27.727   0.288
38980W        W 4207  13.765   4.679   1.895
38981W        W 4208  16.910  44.235   3.721
38982W        W 4209   2.138   1.054  14.932
38983W        W 4210  13.049  30.643   3.929
38984W        W 4211   2.313  29.645  13.040
38985W        W 4212  38.395  37.934  12.519
38986W        W 4213  16.136  14.576   0.287
38987W        W 4214   4.955  31.123  11.555
38988W        W 4215  28.086   8.802  13.448
38989W        W 4216  36.191  40.472   1.408
38990W        W 4217  14.156  36.845  10.566
38991W        W 4218  21.108  38.796  12.341
38992W        W 4219  23.441   7.457  14.075
38993W        W 4220  19.465  27.672  12.898
38994W        W 4221  38.013  15.784   0.835
38995W        W 4222  16.778  33.924   4.626
38996W        W 4223  37.953  37.458   0.274
38997W        W 4224  43.822  35.322  14.940
38998W        W 4225  42.914  24.114  14.543
38999W        W 4226  20.072   4.481  13.163
39000W        W 4227  11.178  41.569   3.055
39001W        W 4228  10.718  24.451  11.533
39002W        W 4229  28.792  18.175  10.633
39003W        W 4230  29.267  42.309   1.813
39004W        W 4231   0.859   2.615   2.199
39005W        W 4232  41.852  19.991   3.842
39006W        W 4233  10.596   2.821  13.696
39007W        W 4234  21.972   2.369   4.836
39008W        W 4235  26.611  44.503  12.317
39009W        W 4236   5.822  28.719  12.519
39010W        W 4237  44.978  17.449   1.291
39011W        W 4238  23.315   1.010  12.648
39012W        W 4239  24.520  12.558   3.760
39013W        W 4240   3.869  39.680  10.706
39014W        W 4241  13.223  21.012   1.420
39015W        W 4242  22.624   2.539  10.694
39016W        W 4243  11.050  23.773  14.004
39017W        W 4244  40.606  11.395  11.566
39018W        W 4245   8.224  37.655  12.336
39019W        W 4246   5.668  44.631  13.155
39020W        W 4247  44.433  12.783   4.510
39021W        W 4248   5.113  38.457  11.168
39022W        W 4249  11.905  31.986  14.864
39023W        W 4250   4.784  22.757  13.001
39024W        W 4251  38.615  41.344   2.842
39025W        W 4252  21.489  38.628  12.037
39026W        W 4253  44.236  43.811   4.439
39027W        W 4254  39.301  39.343   0.920
39028W        W 4255  17.629  27.044   1.704
39029W        W 4256  28.485  11.505  14.855
39030W        W 4257  44.111  17.645   4.954
39031W        W 4258  20.451  33.992  14.528
39032W        W 4259  41.209  10.234   3.034
39033W        W 4260  23.024   8.911   4.655
39034W        W 4261  37.876  18.807   1.871
39035W        W 4262  18.561   7.777   2.144
39036W        W 4263   4.905  20.313  13.290
39037W        W 4264   5.323  16.037  11.433
39038W        W 4265   3.447  10.502   3.366
39039W        W 4266  18.990   6.435  13.349
39040W        W 4267  11.726  25.859  11.533
39041W        W 4268   4.811  28.901   3.514
39042W        W 4269  26.786   5.169   2.651
39043W        W 4270  40.084  32.640  11.373
39044W        W 4271  34.913  10.258  10.771
39045W        W 4272  27.000  25.348  11.254
39046W        W 4273   4.250  23.579  13.883
39047W        W 4274  25.710  22.208   2.418
39048W        W 4275  42.569  41.417  13.387
39049W        W 4276  14.854  27.217  10.712
39050W        W 4277  18.373  36.614  12.557
39051W        W 4278  30.977  22.591  10.044
39052W        W 4279  42.050   6.737   1.925
39053W        W 4280  28.002  20.658  10.944
39054W        W 4281  42.394  37.061  10.740
39055W        W 4282  19.969  17.277   1.691
39056W        W 4283  18.769   5.495   4.441
39057W        W 4284  28.456  21.973   1.261
39058W        W 4285   9.345  36.534  13.468
39059W        W 4286  25.503  21.071  14.886
39060W        W 4287  44.690  26.841   9.800
39061W        W 4288   3.968   3.877  12.094
39062W        W 4289  16.773   7.592   2.854
39063W        W 4290   9.403   8.001  12.265
39064W        W 4291  40.394  30.690   2.432
39065W        W 4292  40.569  14.678   3.581
39066W        W 4293  19.423  18.270  12.837
39067W        W 4294  20.466  23.545  12.995
39068W        W 4295  21.707  39.025   4.614
39069W        W 4296  18.282  33.044  12.322
39070W        W 4297  22.177  26.413  14.487
39071W        W 4298  16.083   3.415  10.235
39072W        W 4299   2.731  30.422   4.594
39073W        W 4300  44.499  30.582  13.939
39074W        W 4301  16.055  27.205   4.024
39075W        W 4302   1.825   7.685   1.320
39076W        W 4303   2.022  12.399  12.329
39077W        W 4304  23.993   0.787   0.214
39078W        W 4305  36.648  38.296   0.592
39079W        W 4306  19.916  12.777  10.762
39080W        W 4307   0.488  26.491  12.694
39081W        W 4308   7.677   6.264  12.617
39082W        W 4309  23.979   4.313  13.327
39083W        W 4310  38.846  28.487   2.732
39084W        W 4311   1.985  39.058  11.853
39085W        W 4312  10.873   9.802   1.893
39086W        W 4313  30.189  23.613   5.130
39087W        W 4314   8.561   0.253   2.875
39088W        W 4315  28.427  38.584   5.146
39089W        W 4316  26.031   4.690  10.809
39090W        W 4317   3.260  20.552   2.995
39091W        W 4318  24.680  43.363   3.720
39092W        W 4319  18.000  19.264   2.815
39093W        W 4320  22.233  12.675  11.088
39094W        W 4321  34.055   8.867  13.786
39095W        W 4322  15.523  12.878   3.601
39096W        W 4323  23.133  25.648   1.552
39097W        W 4324  34.541  29.448  10.362
39098W        W 4325   2.783   3.043  14.221
39099W        W 4326  42.169  29.142  11.121
39100W        W 4327  22.465  32.979  10.396
39101W        W 4328   7.812  43.370   0.398
39102W        W 4329   2.123  29.073  13.022
39103W        W 4330  36.686  29.665   0.157
39104W        W 4331  30.214  32.469   1.388
39105W        W 4332  37.282  29.950   2.375
39106W        W 4333  37.404  23.484   3.563
39107W        W 4334  18.602  35.788  12.608
39108W        W 4335  19.583  33.429   0.258
39109W        W 4336   1.331   1.217   0.369
39110W        W 4337  28.080  13.250  12.347
39111W        W 4338  10.782  44.554  13.446
39112W        W 4339  22.373  16.531  11.558
39113W        W 4340  18.702   5.915   4.114
39114W        W 4341  30.598   3.940   1.766
39115W        W 4342   9.980   8.807   5.108
39116W        W 4343   8.894   8.862  12.571
39117W        W 4344  10.705  41.744  12.466
39118W        W 4345  31.806   0.776  11.590
39119W        W 4346  42.142  35.170   4.123
39120W        W 4347   7.295  26.944  10.766
39121W        W 4348  16.563   3.885  10.793
39122W        W 4349  27.386  22.181  13.505
39123W        W 4350  26.111   8.651  11.630
39124W        W 4351  31.877  13.116   0.882
39125W        W 4352  16.149  22.134  14.995
39126W        W 4353   9.928  39.854   1.946
39127W        W 4354  16.964  39.475  12.232
39128W        W 4355  30.415  34.061   4.117
39129W        W 4356  33.450  16.634   0.048
39130W        W 4357  39.252  26.695   4.199
39131W        W 4358  35.028   7.201  12.035
39132W        W 4359  36.106   4.386  10.717
39133W        W 4360   9.328  19.544   2.699
39134W        W 4361  13.636  35.278   2.128
39135W        W 4362   4.547  33.487  12.902
39136W        W 4363   9.659  31.423   3.258
39137W        W 4364  32.928  15.797  12.514
39138W        W 4365  37.072  22.927  11.096
39139W        W 4366  23.352   8.387   0.972
39140W        W 4367  34.909   8.602   4.066
39141W        W 4368  20.107  11.898   3.641
39142W        W 4369  10.100   3.854   0.919
39143W        W 4370  16.333  39.210   2.645
39144W        W 4371   7.961  38.836   1.745
39145W        W 4372  20.627  26.640  11.380
39146W        W 4373  20.713  15.314   2.271
39147W        W 4374   8.013  12.987   0.005
39148W        W 4375  13.209  10.021   4.126
39149W        W 4376  29.610  16.464  11.241
39150W        W 4377   3.005  18.209   0.229
39151W        W 4378  20.817  17.860  11.573
39152W        W 4379  12.334  31.785  13.433
39153W        W 4380  13.359  28.006   3.548
39154W        W 4381  33.981  36.904   0.813
39155W        W 4382  15.665   2.795   4.334
39156W        W 4383  42.481  18.291   1.045
39157W        W 4384  11.385   4.321  14.224
39158W        W 4385  28.709  20.222  13.784
39159W        W 4386  13.086   3.280   2.014
39160W        W 4387  31.005   4.414  12.522
39161W        W 4388  43.793  17.879  14.903
39162W        W 4389  37.055  12.767   4.841
39163W        W 4390   5.923  43.305   3.097
39164W        W 4391  12.252  41.519  10.902
39165W        W 4392   3.705  24.174  14.310
39166W        W 4393  25.167  41.998   2.603
39167W        W 4394   4.923  13.171   3.200
39168W        W 4395  41.108  32.436  12.868
39169W        W 4396  39.544  16.564   4.881
39170W        W 4397  26.874  14.418   1.259
39171W        W 4398  11.953  29.468   4.133
39172W        W 4399  42.201  14.375  13.316
39173W        W 4400  16.263  17.519   4.606
39174W        W 4401  14.869  31.209  13.117
39175W        W 4402  15.540  34.992   0.408
39176W        W 4403  29.530  41.352  12.163
39177W        W 4404   3.441   1.371   0.387
39178W        W 4405   1.327  40.370   1.383
39179W        W 4406  17.065  38.933  13.547
39180W        W 4407  23.768  39.315   1.714
39181W        W 4408   5.171  12.746   4.699
39182W        W 4409  18.730  22.603  11.258
39183W        W 4410  12.001  27.494  12.503
39184W        W 4411  33.969  15.013  13.956
39185W        W 4412  43.386   1.341  11.039
39186W        W 4413  42.016  27.193  11.107
39187W        W 4414  16.805  22.915   3.909
39188W        W 4415  30.406  31.618   3.163
39189W        W 4416  40.931  32.947  11.949
39190W        W 4417  14.767  15.286  12.052
39191W        W 4418  34.380  11.127   2.586
39192W        W 4419   4.848  18.917   1.949
39193W        W 4420  11.815  43.247   0.957
39194W        W 4421  44.751  42.892  14.971
39195W        W 4422  18.359  26.458   5.015
39196W        W 4423  17.287   7.442   2.790
39197W        W 4424   2.518  36.504  12.075
39198W        W 4425  33.105  11.614   0.825
39199W        W 4426  38.906   2.437   3.262
39200W        W 4427  22.073  23.879   2.133
39201W        W 4428  34.952  20.321   3.758
39202W        W 4429  38.577  42.915  10.604
39203W        W 4430  22.327  39.938   3.142
39204W        W 4431   5.423  14.646  12.459
39205W        W 4432  26.236   1.070   2.821
39206W        W 4433  10.772  31.758  10.962
39207W        W 4434  11.778   2.945  13.202
39208W        W 4435  13.825   1.085   2.660
39209W        W 4436  36.940  26.132  13.567
39210W        W 4437  30.126   9.079   4.429
39211W        W 4438  24.060  31.867   2.343
39212W        W 4439   5.305   6.103   1.045
39213W        W 4440  27.967   6.485  11.346
39214W        W 4441  25.734   5.372  11.449
39215W        W 4442   5.314  39.043   3.578
39216W        W 4443  10.455  34.062  10.620
39217W        W 4444  26.539  13.921   1.961
39218W        W 4445   6.133  28.219  14.486
39219W        W 4446  24.242  10.053   2.853
39220W        W 4447  31.216  35.863   2.824
39221W        W 4448  39.057   0.858  14.291
39222W        W 4449  29.797  23.103  14.829
39223W        W 4450  35.936  15.992   4.466
39224W        W 4451  17.262  14.692  10.692
39225W        W 4452  37.607  40.796  10.428
39226W        W 4453  23.129  25.453  12.871
39227W        W 4454  27.450  33.512   2.191
39228W        W 4455  32.429  12.152  12.861
39229W        W 4456  39.581  16.120  13.025
39230W        W 4457  38.506  28.643  10.685
39231W        W 4458   1.218  26.092   2.636
39232W        W 4459   0.221  18.738  12.528
39233W        W 4460  23.255   3.014  11.998
39234W        W 4461  12.646  24.514  13.490
39235W        W 4462  28.163   6.496   3.195
39236W        W 4463  16.554  19.722   4.058
39237W        W 4464  38.539   7.782  12.146
39238W        W 4465  36.811  23.630   4.840
39239W        W 4466  44.042  26.652   4.668
39240W        W 4467  13.367  35.645   3.302
39241W        W 4468   3.814  21.734  14.872
39242W        W 4469  34.924  19.600  13.895
39243W        W 4470   1.105  28.933   1.440
39244W        W 4471  23.700   7.266   2.316
39245W        W 4472  44.745   9.270   4.270
39246W        W 4473  32.897  18.062  14.824
39247W        W 4474   0.983   0.526   3.676
39248W        W 4475   0.459  41.711  12.038
39249W        W 4476  18.220  35.579   2.821
39250W        W 4477  39.034  43.130  10.936
39251W        W 4478  24.401  19.006   2.674
39252W        W 4479   2.372  20.728   2.925
39253W        W 4480  15.103  15.217   0.724
39254W        W 4481  17.738  34.636   3.817
39255W        W 4482   4.236  16.807  11.211
39256W        W 4483  29.491  30.522  12.522
39257W        W 4484  26.219  24.466   2.807
39258W        W 4485  34.348   9.685  13.963
39259W        W 4486  32.805  16.326  11.134
39260W        W 4487   7.126  13.225   2.984
39261W        W 4488   0.668  42.453   9.793
39262W        W 4489   7.579   6.757   2.448
39263W        W 4490  11.941  29.183  12.930
39264W        W 4491   8.858   1.424  10.427
39265W        W 4492  17.869  22.815   1.473
39266W        W 4493  25.233  16.987   4.956
39267W        W 4494  30.029  32.193  10.713
39268W        W 4495  32.976  42.505  13.711
39269W        W 4496  27.690   5.203  11.639
39270W        W 4497  19.617  28.140   1.775
39271W        W 4498  44.395   2.813   1.946
39272W        W 4499   3.512  39.944   1.339
39273W        W 4500  37.882  28.979   1.030
39274W        W 4501  43.529   7.170   9.357
39275W        W 4502  18.089   2.827   3.698
39276W        W 4503   0.873  38.463   2.114
39277W        W 4504  24.201  20.151   0.738
39278W        W 4505   2.215   7.292  12.030
39279W        W 4506  38.675  12.900   3.829
39280W        W 4507  30.494  33.860   1.437
39281W        W 4508  32.708  40.612   2.359
39282W        W 4509  28.223  38.434  14.947
39283W        W 4510  39.612  15.617  11.178
39284W        W 4511  21.842  19.098  13.798
39285W        W 4512  21.619  37.393   4.773
39286W        W 4513  12.572  43.096   2.731
39287W        W 4514  17.750  14.937   1.467
39288W        W 4515  11.732  41.610   2.914
39289W        W 4516  44.477   7.488  14.189
39290W        W 4517  41.457  21.486   1.889
39291W        W 4518  20.274   3.008  12.858
39292W        W 4519  41.606  19.924   2.926
39293W        W 4520  14.654  14.821  11.026
39294W        W 4521  32.981  28.558   0.230
39295W        W 4522  19.878   7.995  10.816
39296W        W 4523  26.280  22.139  14.945
39297W        W 4524   5.409  36.986  11.077
39298W        W 4525  43.500  16.041  10.817
39299W        W 4526  16.248  23.140   2.620
39300W        W 4527   2.344  34.101  13.405
39301W        W 4528  11.698   4.399   2.364
39302W        W 4529   0.771  31.604  11.311
39303W        W 4530  25.646  33.537   1.868
39304W        W 4531  11.433   9.144  13.481
39305W        W 4532  11.870  43.931   2.634
39306W        W 4533   6.279  31.518  12.086
39307W        W 4534  24.327  30.941  11.102
39308W        W 4535  43.481  18.560  12.808
39309W        W 4536  30.844   0.404   1.785
39310W        W 4537  10.339  17.354   0.300
39311W        W 4538  23.979   9.360  13.939
39312W        W 4539  14.273   0.348  12.661
39313W        W 4540  42.339  29.832  13.447
39314W        W 4541  22.303  43.691   0.420
39315W        W 4542  34.910  20.326  14.591
39316W        W 4543   7.494  19.199  13.846
39317W        W 4544  11.284  35.817   0.417
39318W        W 4545   3.990  11.393   2.160
39319W        W 4546   6.589  29.874   3.741
39320W        W 4547  11.612  25.926   0.859
39321W        W 4548  36.851  15.060  12.422
39322W        W 4549  23.498  43.754   1.295
39323W        W 4550  34.344  39.246  10.301
39324W        W 4551  13.616   1.190  13.398
39325W        W 4552  23.057   4.536   3.819
39326W        W 4553  10.844  14.835   2.420
39327W        W 4554  41.398   1.798  14.394
39328W        W 4555  42.450   3.923   3.354
39329W        W 4556  16.201  19.492  14.609
39330W        W 4557  14.940  21.188  12.488
39331W        W 4558  33.929  29.558   1.782
39332W        W 4559  19.595  34.631   0.466
39333W        W 4560  27.759   1.261  14.188
39334W        W 4561  33.138  18.272  11.694
39335W        W 4562  22.963  24.654   3.569
39336W        W 4563  25.901   3.855   0.717
39337W        W 4564  37.774   4.746  12.612
39338W        W 4565  18.372   8.652   5.085
39339W        W 4566  21.837  28.964  11.059
39340W        W 4567  37.566  15.153   0.377
39341W        W 4568  29.115  26.224   0.023
39342W        W 4569  20.624  40.224  10.774
39343W        W 4570   4.807   9.380   0.967
39344W        W 4571  26.920  33.951  10.717
39345W        W 4572   3.809  29.521  10.755
39346W        W 4573  22.932  35.721   2.391
39347W        W 4574   3.288  35.858  12.796
39348W        W 4575  42.938  40.394   3.065
39349W        W 4576  36.603  30.883   3.657
39350W        W 4577  23.881  19.725   3.506
39351W        W 4578  25.726  42.401   1.381
39352W        W 4579  40.976  34.649   4.525
39353W        W 4580  21.191  11.154  13.183
39354W        W 4581  20.436  12.315   1.319
39355W        W 4582  19.638  19.835  13.063
39356W        W 4583  27.712  38.836  13.096
39357W        W 4584  34.801  37.956  10.297
39358W        W 4585  14.865   1.322  12.988
39359W        W 4586  34.665  44.179  11.706
39360W        W 4587  41.358  38.986  11.843
39361W        W 4588  37.679  36.029   2.391
39362W        W 4589  31.016   2.398   3.181
39363W        W 4590  20.776  32.361  10.713
39364W        W 4591  22.066  41.775   4.513
39365W        W 4592  42.535  29.732  11.661
39366W        W 4593   4.801  41.570  14.920
39367W        W 4594  13.823  20.504   1.894
39368W        W 4595  21.757   8.074  11.496
39369W        W 4596  43.075   5.814   2.749
39370W        W 4597  11.036  32.400   1.879
39371W        W 4598   6.795  26.341   3.377
39372W        W 4599  23.315  13.359  14.914
39373W        W 4600   3.259  29.667   1.672
39374W        W 4601  39.897  41.178   4.143
39375W        W 4602  32.053  16.593  14.122
39376W        W 4603  31.550  33.365   3.640
39377W        W 4604  24.480  13.358   2.277
39378W        W 4605  20.045   5.386  11.701
39379W        W 4606   8.067   4.470   2.846
39380W        W 4607  25.662  34.401   4.031
39381W        W 4608   7.410   8.762   2.973
39382W        W 4609  15.832  34.678  13.824
39383W        W 4610  34.543  31.414   1.572
39384W        W 4611  16.651  18.106  11.549
39385W        W 4612  32.656  11.445  11.420
39386W        W 4613   8.787  20.033   0.901
39387W        W 4614  20.079  20.144  13.270
39388W        W 4615  21.882  22.532   0.972
39389W        W 4616   5.233  44.433  14.025
39390W        W 4617  19.561  24.168   1.231
39391W        W 4618  39.781  13.219  14.718
39392W        W 4619  20.259   1.732   1.371
39393W        W 4620  30.856  36.385   0.211
39394W        W 4621  34.954  23.246   0.051
39395W        W 4622  18.287  29.438  13.794
39396W        W 4623   6.464  38.322  12.457
39397W        W 4624  28.121  33.004  12.857
39398W        W 4625  29.639  24.619   0.518
39399W        W 4626  27.021  41.542   3.418
39400W        W 4627  11.186  13.605   1.708
39401W        W 4628  25.710  25.537   4.928
39402W        W 4629   6.861  28.687  12.586
39403W        W 4630  16.647  11.334   4.689
39404W        W 4631  10.093  22.788  11.973
39405W        W 4632  35.094  13.880   4.334
39406W        W 4633  41.009  17.443   4.148
39407W        W 4634   1.799  25.993  13.525
39408W        W 4635  31.730   6.180  13.636
39409W        W 4636  27.286  28.608   5.555
39410W        W 4637  16.066  29.709  11.570
39411W        W 4638  40.385  42.055  12.047
39412W        W 4639  28.984  21.030   2.269
39413W        W 4640   4.431  26.400   4.199
39414W        W 4641  43.857  28.748   4.181
39415W        W 4642  43.993   6.006   1.802
39416W        W 4643   4.143  35.479   0.128
39417W        W 4644   8.392   0.988  12.560
39418W        W 4645  13.576  38.558  11.948
39419W        W 4646  38.776  21.435   0.453
39420W        W 4647   8.789  32.283  10.490
39421W        W 4648  33.115   5.385   1.316
39422W        W 4649   6.191  43.474   4.560
39423W        W 4650  13.711  36.879   0.676
39424W        W 4651   1.795   9.895  11.438
39425W        W 4652  37.279  43.694  12.752
39426W        W 4653  35.484  25.825   2.091
39427W        W 4654  44.197   8.740  10.180
39428W        W 4655   0.462   4.857   3.790
39429W        W 4656  40.386  28.166   2.342
39430W        W 4657  13.285  22.103  14.753
39431W        W 4658  32.992  44.810  11.558
39432W        W 4659  31.647  39.397   2.339
39433W        W 4660  37.842  19.888   3.786
39434W        W 4661  32.074  38.539   4.971
39435W        W 4662  27.561  22.929   0.743
39436W        W 4663  37.339  26.238   0.343
39437W        W 4664   5.168  25.937   1.213
39438W        W 4665   5.309  40.947   2.156
39439W        W 4666  44.194  27.524   2.661
39440W        W 4667  33.510  30.923  11.861
39441W        W 4668   7.895  42.206  12.831
39442W        W 4669  17.301  42.214   2.264
39443W        W 4670  26.998  33.996   2.805
39444W        W 4671  23.953  41.991   2.306
39445W        W 4672   6.640  17.016   3.518
39446W        W 4673  14.488  10.985   4.122
39447W        W 4674  26.573  27.273  13.917
39448W        W 4675  12.575  10.883   5.000
39449W        W 4676  43.418  40.749  11.574
39450W        W 4677  23.017  28.157   4.327
39451W        W 4678  28.369  11.760  11.539
39452W        W 4679  34.143  22.996   1.253
39453W        W 4680  12.232   5.080   9.913
39454W        W 4681  35.200   7.057  11.193
39455W        W 4682  36.062  43.933   3.083
39456W        W 4683  42.316  43.558   2.370
39457W        W 4684  16.196  29.792   0.874
39458W        W 4685  17.493  11.324   3.222
39459W        W 4686  29.598  43.791  10.408
39460W        W 4687  23.289  16.514   2.863
39461W        W 4688  12.751   0.214  10.626
39462W        W 4689  44.303  16.775   4.215
39463W        W 4690  17.848  10.311  14.280
39464W        W 4691  10.637  22.513   2.712
39465W        W 4692  16.573  13.329   4.872
39466W        W 4693  34.674  35.642  13.854
39467W        W 4694   5.268  44.306   1.216
39468W        W 4695  11.376  11.067   2.853
39469W        W 4696  44.217  37.672   2.308
39470W        W 4697  42.030  25.668   2.304
39471W        W 4698  15.752  13.884   3.664
39472W        W 4699  32.478  20.089   3.856
39473W        W 4700  44.464   6.439  13.386
39474W        W 4701  44.557  22.982  12.035
39475W        W 4702  25.179  41.864   3.339
39476W        W 4703   5.667   1.322   4.212
39477W        W 4704  29.947   2.775   1.255
39478W        W 4705  13.370  31.305  12.380
39479W        W 4706  40.809  34.808  11.113
39480W        W 4707  24.562  41.403   3.609
39481W        W 4708  35.121  29.160  13.621
39482W        W 4709  16.926  32.088  11.702
39483W        W 4710  23.712  38.935   4.528
39484W        W 4711  25.551   7.328   3.167
39485W        W 4712  27.059   1.247   4.279
39486W        W 4713  32.625   6.696  10.786
39487W        W 4714   7.826   5.247  13.834
39488W        W 4715  21.585  34.208   0.878
39489W        W 4716  42.366  16.663   2.706
39490W        W 4717   8.444  38.356  11.137
39491W        W 4718   2.337  25.850   1.482
39492W        W 4719  19.578  20.203  13.423
39493W        W 4720  14.722  41.447  12.750
39494W        W 4721  19.608  40.082  13.993
39495W        W 4722   2.326   4.956  10.789
39496W        W 4723   4.430  25.935  11.531
39497W        W 4724   7.379   1.930   3.629
39498W        W 4725  29.667  38.934  12.149
39499W        W 4726  10.333  36.482   0.377
39500W        W 4727   9.708  11.093  14.926
39501W        W 4728  13.139  22.628  12.912
39502W        W 4729   7.329  38.586  13.422
39503W        W 4730   4.971  33.897   2.336
39504W        W 4731  14.897  29.588  14.026
39505W        W 4732  25.043  22.628   4.848
39506W        W 4733  12.775  17.708   2.810
39507W        W 4734  10.878  30.425   2.186
39508W        W 4735   7.056  11.665   3.993
39509W        W 4736  14.160  21.778  12.157
39510W        W 4737   6.897   9.384  11.537
39511W        W 4738  17.318  39.346  13.326
39512W        W 4739  17.256  16.724  12.901
39513W        W 4740  33.871   6.020   2.135
39514W        W 4741  16.001  32.466  14.809
39515W        W 4742  33.520  25.661   0.847
39516W        W 4743   8.676  27.243   4.541
39517W        W 4744  10.633  13.131   2.810
39518W        W 4745  33.544  15.508  12.615
39519W        W 4746  10.632  39.827   2.737
39520W        W 4747  11.365  26.508   2.839
39521W        W 4748  42.412  22.666  10.717
39522W        W 4749   7.132  22.055   1.839
39523W        W 4750  14.760  11.736   2.219
39524W        W 4751  31.462  38.565   1.468
39525W        W 4752   2.179  13.134   2.672
39526W        W 4753  19.219  13.879   2.598
39527W        W 4754  38.230  35.128   4.201
39528W        W 4755  20.331   6.965  11.597
39529W        W 4756  24.447   7.888  11.601
39530W        W 4757  26.940  35.764  11.682
39531W        W 4758   4.578   1.348  11.847
39532W        W 4759  44.349  23.233   4.525
39533W        W 4760  33.833   2.227  11.169
39534W        W 4761  16.423  14.204  10.904
39535W        W 4762  14.714   1.538  14.036
39536W        W 4763  31.508  37.070   1.255
39537W        W 4764   0.452  19.090  13.107
39538W        W 4765  42.397  10.283   0.568
39539W        W 4766   8.232   3.952  13.830
39540W        W 4767  31.991  27.436  13.092
39541W        W 4768   1.425  34.965  14.116
39542W        W 4769   4.800  36.791   3.321
39543W        W 4770  18.619  31.463   3.750
39544W        W 4771  16.842   2.975  12.533
39545W        W 4772  17.249  12.832  13.611
39546W        W 4773   4.078  38.532  13.839
39547W        W 4774  20.217  21.787  12.147
39548W        W 4775   8.867  35.598   0.360
39549W        W 4776  16.873  16.180  11.684
39550W        W 4777  27.937  21.025  13.054
39551W        W 4778  11.196  43.106  14.485
39552W        W 4779  39.329   6.767  13.533
39553W        W 4780  10.105  16.648   2.965
39554W        W 4781   1.919   3.936  14.442
39555W        W 4782  10.291  41.078  14.941
39556W        W 4783  29.165  34.394   1.352
39557W        W 4784  28.105  38.414  12.172
39558W        W 4785  27.659  30.405   0.443
39559W        W 4786   0.592  38.623  11.003
39560W        W 4787   1.524  17.316  13.952
39561W        W 4788  12.944  28.507   3.761
39562W        W 4789  12.728   6.981  11.253
39563W        W 4790  35.904  10.578  13.417
39564W        W 4791  34.561  12.298   0.264
39565W        W 4792   4.998  34.453   4.647
39566W        W 4793  20.796  36.056  14.384
39567W        W 4794   7.301   6.589   4.568
39568W        W 4795  22.828  38.587  11.094
39569W        W 4796  40.834   0.011   1.137
39570W        W 4797  36.527   2.731  11.151
39571W        W 4798  40.235  28.226  11.630
39572W        W 4799   4.425  35.542   4.161
39573W        W 4800   1.497  25.474   4.934
39574W        W 4801   2.041  11.325   1.420
39575W        W 4802  24.223  44.552  14.440
39576W        W 4803  25.484   3.343  14.634
39577W        W 4804  29.031   4.071   1.138
39578W        W 4805  40.349  42.857  11.418
39579W        W 4806  12.124  41.780  11.900
39580W        W 4807  44.829   2.486   1.373
39581W        W 4808   2.787   0.808   2.623
39582W        W 4809  13.153  42.765   1.874
39583W        W 4810  28.408  39.719  14.765
39584W        W 4811  23.191  12.443   3.100
39585W        W 4812  13.864  16.844   4.776
39586W        W 4813   9.687  38.585   0.007
39587W        W 4814   0.477  38.945  13.231
39588W        W 4815  29.634  21.751   3.552
39589W        W 4816  40.505  28.210   4.565
39590W        W 4817  36.462   7.900  13.208
39591W        W 4818  21.633   6.966  12.296
39592W        W 4819   4.026  27.444  12.247
39593W        W 4820  22.767  22.555   3.526
39594W        W 4821  43.853  24.129   4.699
39595W        W 4822  24.416  36.939   1.412
39596W        W 4823  22.618   6.639  14.943
39597W        W 4824  39.217  40.556   0.805
39598W        W 4825  17.626  24.685  11.646
39599W        W 4826  11.221  43.877   4.528
39600W        W 4827  44.008   7.730  12.054
39601W        W 4828  12.579  43.527  13.009
39602W        W 4829  18.469  42.749  10.790
39603W        W 4830  13.366  26.168   0.943
39604W        W 4831   1.026  11.278   1.205
39605W        W 4832  13.311   7.267   2.694
39606W        W 4833  23.785  12.345  14.859
39607W        W 4834  19.211  35.095   3.380
39608W        W 4835  36.493  24.759  13.579
39609W        W 4836  34.348  27.527   0.862
39610W        W 4837  17.804  21.962  12.001
39611W        W 4838   1.973   5.929   3.248
39612W        W 4839  25.462  28.990   2.365
39613W        W 4840  28.709   9.363  11.473
39614W        W 4841  11.088  22.155   0.555
39615W        W 4842   2.289  13.151   1.191
39616W        W 4843  41.962  15.808   3.249
39617W        W 4844  33.938  22.036  11.636
39618W        W 4845  23.038  10.926   1.598
39619W        W 4846  25.223  21.807  13.528
39620W        W 4847  44.054  33.897   5.008
39621W        W 4848  33.556   6.429  14.791
39622W        W 4849  39.873  34.347   1.441
39623W        W 4850  17.062  39.802  13.341
39624W        W 4851  19.548  15.266   3.175
39625W        W 4852  14.578   3.013   2.159
39626W        W 4853   3.753   4.828  10.657
39627W        W 4854  26.609  44.328   0.021
39628W        W 4855  16.555  38.419  11.202
39629W        W 4856  43.008  12.164  13.713
39630W        W 4857   9.886  44.925  11.966
39631W        W 4858  10.302   9.478   4.109
39632W        W 4859  10.106  39.253   0.300
39633W        W 4860  13.831  13.665   2.074
39634W        W 4861  38.806  11.146   4.748
39635W        W 4862  27.515  35.365   1.860
39636W        W 4863  43.066  11.819   0.761
39637W        W 4864  36.055  25.402   2.450
39638W        W 4865  33.092  39.558  11.699
39639W        W 4866  22.341   2.828   4.613
39640W        W 4867   9.330  12.219  10.463
39641W        W 4868  20.035   9.689   0.166
39642W        W 4869  16.662  24.664   2.319
39643W        W 4870  23.751  16.723   1.230
39644W        W 4871   7.443  13.187   4.768
39645W        W 4872  16.508  16.041   1.245
39646W        W 4873  42.268  21.184  14.889
39647W        W 4874  10.271  27.986   1.973
39648W        W 4875  11.834  34.849   4.017
39649W        W 4876   9.673  14.080  12.481
39650W        W 4877  30.837  32.537  12.821
39651W        W 4878   9.654   1.256   1.577
39652W        W 4879  32.200  11.651  11.602
39653W        W 4880  26.791  38.076   3.204
39654W        W 4881  10.702  23.396  13.996
39655W        W 4882  43.463  40.285  13.943
39656W        W 4883  38.364  30.135  10.943
39657W        W 4884  41.324  33.923  14.920
39658W        W 4885   2.927  11.382  13.336
39659W        W 4886  16.551  15.271  14.327
39660W        W 4887  19.332   2.964  12.554
39661W        W 4888  28.506   7.208  11.165
39662W        W 4889  34.369  19.931  13.470
39663W        W 4890   6.694  25.780  13.925
39664W        W 4891  38.273  30.062   4.889
39665W        W 4892   4.304  34.617  11.914
39666W        W 4893  40.421  34.417  13.390
39667W        W 4894  25.190  21.359   4.134
39668W        W 4895   0.162  33.503   1.750
39669W        W 4896   6.491  16.659   2.360
39670W        W 4897  18.620  15.017  13.849
39671W        W 4898  24.519  23.706   3.872
39672W        W 4899  32.057  32.220   0.245
39673W        W 4900  27.699   7.446   2.646
39674W        W 4901  43.748   9.725   2.629
39675W        W 4902  30.682  39.062  11.137
39676W        W 4903  12.630  41.213  10.705
39677W        W 4904  28.952  41.598  13.259
39678W        W 4905  35.915  13.359   3.784
39679W        W 4906   4.401  17.171   2.804
39680W        W 4907  15.488  44.333  14.819
39681W        W 4908  29.482  22.066   4.342
39682W        W 4909  21.368  13.863   3.579
39683W        W 4910  37.522  31.435  14.656
39684W        W 4911  41.858  31.381   4.759
39685W        W 4912  22.735  12.867   0.588
39686W        W 4913   0.198  41.082   4.957
39687W        W 4914   8.135   5.416  12.939
39688W        W 4915  36.760   9.372   0.828
39689W        W 4916  40.692  24.958  11.603
39690W        W 4917  23.037  28.439   1.888
39691W        W 4918   8.788  34.628  10.405
39692W        W 4919   7.766   3.449   4.576
39693W        W 4920  35.682  30.350   3.713
39694W        W 4921  27.718  42.321  12.969
39695W        W 4922   0.255  39.863   2.888
39696W        W 4923   9.197  16.321  12.604
39697W        W 4924  29.983  41.966  12.570
39698W        W 4925  12.047   9.831  13.429
39699W        W 4926  42.801  15.334  13.869
39700W        W 4927  37.350  40.604  13.351
39701W        W 4928  27.729  24.996  10.728
39702W        W 4929  33.698  19.917   9.827
39703W        W 4930  25.674  18.321  11.934
39704W        W 4931   6.187  41.909  14.852
39705W        W 4932   6.819  11.617  10.997
39706W        W 4933   1.409  26.693  13.853
39707W        W 4934  21.631  39.218  14.216
39708W        W 4935  15.610   8.745   1.183
39709W        W 4936   6.940  19.670  14.222
39710W        W 4937  25.183  28.208  12.889
39711W        W 4938  24.187   5.479   2.244
39712W        W 4939  23.445  21.523   0.422
39713W        W 4940   1.498  18.550  11.209
39714W        W 4941  43.430  20.830   0.353
39715W        W 4942  40.846  33.315   3.569
39716W        W 4943  15.647   4.930   3.091
39717W        W 4944  29.937  41.363  12.567
39718W        W 4945  30.026  40.573  13.132
39719W        W 4946  33.680  37.756  11.577
39720W        W 4947  19.065  21.010  12.967
39721W        W 4948  31.011  28.969  11.519
39722W        W 4949  27.665  44.371   4.527
39723W        W 4950  36.086  15.016   4.123
39724W        W 4951  27.891  22.874  11.567
39725W        W 4952  30.025  10.486  10.965
39726W        W 4953  22.945  16.338  13.018
39727W        W 4954   5.321  40.087   0.937
39728W        W 4955  38.985   1.740   0.711
39729W        W 4956  33.545  27.977  12.469
39730W        W 4957   6.805  22.461   2.902
39731W        W 4958  20.288  43.665  14.329
39732W        W 4959   8.126   6.402   1.239
39733W        W 4960  10.541  23.046  11.704
39734W        W 4961  36.964  30.496   2.069
39735W        W 4962  44.499  30.306   1.853
39736W        W 4963  34.847  22.891   3.453
39737W        W 4964  21.496  44.535  14.002
39738W        W 4965  28.646  42.782  12.959
39739W        W 4966  29.200   1.724  13.514
39740W        W 4967   6.758   6.660  13.908
39741W        W 4968  31.682  22.270   2.682
39742W        W 4969  15.909   0.643  14.298
39743W        W 4970  10.434   7.011   4.166
39744W        W 4971  14.231  20.739  14.775
39745W        W 4972  37.511   6.287  14.237
39746W        W 4973  28.782  16.748   2.782
39747W        W 4974  25.394  40.598  11.992
39748W        W 4975  39.038   3.467  13.906
39749W        W 4976  35.295  19.105   4.096
39750W        W 4977  34.494  39.767  14.029
39751W        W 4978  38.520  42.546  11.913
39752W        W 4979   7.837  11.410   2.791
39753W        W 4980  11.179  10.288   1.703
39754W        W 4981  36.568  22.522   2.671
39755W        W 4982  41.797  11.902   2.396
39756W        W 4983   3.799   8.779   3.659
39757W        W 4984  34.874   9.170   0.857
39758W        W 4985  16.027   6.301   2.348
39759W        W 4986  38.180   7.475   2.870
39760W        W 4987   7.544   6.294   0.276
39761W        W 4988  25.143   6.434   3.264
39762W        W 4989  21.578  19.959   3.144
39763W        W 4990  19.453  40.467  11.325
39764W        W 4991  44.985   7.272  12.040
39765W        W 4992  25.468  13.126  12.366
39766W        W 4993  19.665  30.178   1.913
39767W        W 4994  42.597   8.935  14.780
39768W        W 4995  27.297  41.736  10.900
39769W        W 4996  14.251  25.154  13.316
39770W        W 4997  10.699  20.142   3.375
39771W        W 4998  24.047  19.325   2.476
39772W        W 4999  14.721  39.590   3.912
39773W        W 5000  14.781  33.533  12.356
39774W        W 5001  34.664  25.141  13.483
39775W        W 5002  18.680  16.198  10.451
39776W        W 5003  21.340  23.918   1.893
39777W        W 5004  13.860  27.694   2.064
39778W        W 5005   4.448   5.800   1.030
39779W        W 5006  33.432  18.309   1.973
39780W        W 5007  34.032  33.076  13.640
39781W        W 5008  17.644  25.216   4.468
39782W        W 5009   0.938  17.698   4.012
39783W        W 5010  30.134  35.436  10.963
39784W        W 5011  42.268  14.204   1.337
39785W        W 5012  44.461  15.766   2.140
39786W        W 5013  42.069  23.255  14.888
39787W        W 5014  36.677  36.865   2.215
39788W        W 5015  42.043  12.225   2.893
39789W        W 5016  22.726  39.920   4.536
39790W        W 5017   9.944   0.239  11.101
39791W        W 5018  38.058   2.780   4.222
39792W        W 5019   1.730  24.455   1.026
39793W        W 5020   0.453  25.332  13.085
39794W        W 5021   7.859  37.474   3.205
39795W        W 5022  14.056   7.216  12.551
39796W        W 5023  38.543  15.603  14.934
39797W        W 5024  32.950  22.199   1.190
39798W        W 5025  44.451  33.170   0.481
39799W        W 5026  12.138  12.744   2.504
39800W        W 5027  34.900   1.935  12.940
39801W        W 5028  18.668   5.212   2.870
39802W        W 5029  24.866  16.258   4.530
39803W        W 5030  15.070  12.830   4.427
39804W        W 5031   9.885  18.670   0.368
39805W        W 5032  29.566   6.662   3.698
39806W        W 5033   8.718  15.076  12.470
39807W        W 5034  16.059   1.013   2.924
39808W        W 5035  31.918  29.177   0.939
39809W        W 5036  30.750  42.957   2.384
39810W        W 5037  44.992  20.399  14.305
39811W        W 5038  42.196  39.831   1.263
39812W        W 5039   6.664  21.703  10.888
39813W        W 5040   2.141  30.558  12.107
39814W        W 5041   2.423  30.023   0.315
39815W        W 5042  17.969  21.185  11.227
39816W        W 5043  33.315  29.519  13.864
39817W        W 5044  40.981  34.281  13.970
39818W        W 5045  28.582  16.708   1.888
39819W        W 5046  33.689   5.491  14.819
39820W        W 5047  31.026  15.619   2.252
39821W        W 5048  18.482  35.896  10.404
39822W        W 5049  39.273  17.422  13.987
39823W        W 5050  30.584  37.606  14.963
39824W        W 5051  14.033  27.286  10.677
39825W        W 5052  14.875  33.647  10.428
39826W        W 5053  29.010  31.557  12.680
39827W        W 5054  37.007  22.648  12.647
39828W        W 5055  34.684  34.442  12.639
39829W        W 5056  43.598  36.852  13.285
39830W        W 5057  34.848   6.928  13.348
39831W        W 5058  15.308  10.246   0.680
39832W        W 5059  35.765  29.035   4.705
39833W        W 5060  28.057  26.910   2.751
39834W        W 5061  31.429   7.363  14.283
39835W        W 5062  36.495  18.264  10.736
39836W        W 5063   7.700  25.462   3.723
39837W        W 5064  12.299  30.184   3.108
39838W        W 5065  37.403  17.529  13.778
39839W        W 5066  37.859  39.593   2.401
39840W        W 5067   2.720  18.755  11.647
39841W        W 5068  28.720  22.631   1.442
39842W        W 5069  40.075  35.132  12.974
39843W        W 5070  44.944  34.850   1.311
39844W        W 5071  33.992  17.713  14.152
39845W        W 5072  37.539  42.556   3.201
39846W        W 5073   4.823  23.562  12.136
39847W        W 5074  43.757   7.175  10.939
39848W        W 5075  36.309   0.899   2.299
39849W        W 5076  16.661   2.226  11.427
39850W        W 5077  15.294  18.137   4.278
39851W        W 5078  30.389  21.126   2.478
39852W        W 5079  22.206  18.266   3.275
39853W        W 5080  26.533   8.470  10.639
39854W        W 5081   7.403   2.820  12.943
39855W        W 5082  42.193  31.164  13.898
39856W        W 5083  32.783  40.895  12.468
39857W        W 5084  32.937  29.694  11.634
39858W        W 5085  12.969  23.635   0.398
39859W        W 5086  27.514  31.934   4.578
39860W        W 5087  39.411  37.259   2.616
39861W        W 5088  22.121  42.607  13.145
39862W        W 5089  30.641  35.945  13.755
39863W        W 5090  11.753   6.727  11.888
39864W        W 5091   5.841  30.052   4.362
39865W        W 5092  27.183   5.813  11.099
39866W        W 5093  10.172  29.947   4.166
39867W        W 5094  36.119  18.009  11.559
39868W        W 5095  39.783  20.172  13.390
39869W        W 5096   9.123  23.066  10.647
39870W        W 5097  41.401  34.027  10.571
39871W        W 5098  44.266   6.659  11.538
39872W        W 5099  35.471   7.140  10.759
39873W        W 5100  27.936   3.642  11.085
39874W        W 5101   0.781   2.741  11.981
39875W        W 5102  35.825   9.925   1.822
39876W        W 5103  15.213  42.472  13.636
39877W        W 5104   9.089  15.639  13.942
39878W        W 5105  38.566  16.421   4.038
39879W        W 5106  15.159   4.721  12.839
39880W        W 5107  32.989  26.529   3.062
39881W        W 5108  17.717   2.736  13.321
39882W        W 5109  21.025   6.792  12.969
39883W        W 5110  28.494   2.178  11.692
39884W        W 5111  30.607  31.699   1.814
39885W        W 5112  37.118  41.756  14.350
39886W        W 5113  38.421  42.597  14.399
39887W        W 5114  38.512  22.949  12.918
39888W        W 5115  21.644  29.528  11.041
39889W        W 5116  30.004  43.549  10.641
39890W        W 5117   0.532   6.746  10.525
39891W        W 5118   6.301  11.804  14.131
39892W        W 5119  34.492  30.934  13.430
39893W        W 5120  38.907  35.943  12.393
39894W        W 5121   6.394  26.570  12.007
39895W        W 5122  16.556   9.513  11.991
39896W        W 5123  16.246  30.903  10.788
39897W        W 5124  15.331   5.204  10.679
39898W        W 5125  31.592   6.629  12.918
39899W        W 5126  42.355  26.091   4.218
39900W        W 5127  22.258  35.995   4.530
39901W        W 5128  18.448  12.106  13.359
39902W        W 5129  20.535   8.992   0.123
39903W        W 5130  14.266  15.714   1.756
39904W        W 5131   9.662  12.667  11.006
39905W        W 5132  11.150  24.985  10.911
39906W        W 5133   3.838  22.203   4.070
39907W        W 5134  26.460  28.536   3.186
39908W        W 5135  34.045  44.743  11.621
39909W        W 5136  42.605   6.401  14.935
39910W        W 5137  37.426   2.888   1.278
39911W        W 5138   3.758   3.963   1.991
39912W        W 5139  10.343  22.238  13.033
39913W        W 5140  25.814   5.498   2.808
39914W        W 5141  19.743   9.922   1.904
39915W        W 5142  37.006  31.184   0.415
39916W        W 5143  10.658  10.904  10.725
39917W        W 5144  10.471  34.113  13.009
39918W        W 5145   2.802  44.316   1.442
39919W        W 5146  16.580  24.503  10.733
39920W        W 5147  16.325  43.028   0.515
39921W        W 5148  30.145  32.565   0.884
39922W        W 5149  32.898  21.768   3.723
39923W        W 5150   5.734   7.201   1.425
39924W        W 5151  20.728  39.659   2.717
39925W        W 5152  32.535  19.310  13.422
39926W        W 5153  30.142   4.715   2.372
39927W        W 5154  43.782   6.258  10.698
39928W        W 5155  13.578  41.940   3.226
39929W        W 5156   1.454  20.847  12.452
39930W        W 5157  18.631  13.580  13.350
39931W        W 5158   5.926  32.342  11.535
39932W        W 5159   7.212  35.027   3.001
39933W        W 5160   9.292  39.396  12.060
39934W        W 5161  23.145  22.519   2.725
39935W        W 5162  25.608  43.726  12.939
39936W        W 5163   8.166  22.959   1.410
39937W        W 5164  22.227  35.925   0.817
39938W        W 5165  35.539  41.696   3.016
39939W        W 5166  41.597  32.522  11.417
39940W        W 5167  14.641   5.562   0.829
39941W        W 5168  11.609   4.302  10.979
39942W        W 5169  12.893  20.513   1.361
39943W        W 5170  31.961  30.574  13.392
39944W        W 5171  30.136  40.336   3.559
39945W        W 5172  35.854  33.113  14.567
39946W        W 5173  16.173  42.646  12.178
39947W        W 5174  34.641   4.231   3.897
39948W        W 5175  41.801   3.518   0.437
39949W        W 5176  41.860  24.550   4.280
39950W        W 5177   3.702  31.180   0.844
39951W        W 5178  39.088  44.406  14.331
39952W        W 5179  39.910  40.073   1.773
39953W        W 5180  42.445   8.878   1.806
39954W        W 5181   3.650   8.853  11.612
39955W        W 5182  15.118  41.520  12.403
39956W        W 5183  30.407   2.948  14.321
39957W        W 5184  20.956  39.020  14.555
39958W        W 5185  35.113  26.215   3.230
39959W        W 5186  17.080  38.979  14.472
39960W        W 5187  40.522  12.647  10.303
39961W        W 5188  17.698  40.267   3.334
39962W        W 5189  36.414  38.983  11.280
39963W        W 5190  41.934  40.842  11.561
39964W        W 5191  11.110   4.899   0.883
39965W        W 5192  20.539  41.702  10.343
39966W        W 5193   1.563   5.832   4.298
39967W        W 5194   8.180  16.197   2.907
39968W        W 5195  29.587  21.480  14.517
39969W        W 5196  31.608  10.880   1.279
39970W        W 5197  21.703  20.737  14.765
39971W        W 5198   3.278  36.544  13.295
39972W        W 5199  36.860   0.198   0.385
39973W        W 5200   5.954   7.278   2.750
39974W        W 5201  22.230   2.821  13.313
39975W        W 5202  41.998  18.419  12.552
39976W        W 5203   3.295  36.494   0.147
39977W        W 5204  41.324  16.445   3.330
39978W        W 5205  36.655  13.775  13.423
39979W        W 5206  18.752   4.179   1.373
39980W        W 5207  22.287  22.354  12.559
39981W        W 5208  28.454  37.819   1.919
39982W        W 5209  23.801  13.711  14.497
39983W        W 5210  15.690  24.847   0.489
39984W        W 5211  23.493  15.362  11.230
39985W        W 5212  23.769  43.917   4.107
39986W        W 5213  37.079   9.945  11.535
39987W        W 5214  19.060  15.352  13.593
39988W        W 5215  28.619  43.538   3.317
39989W        W 5216  43.041  27.881   0.880
39990W        W 5217   3.948  10.554   0.343
39991W        W 5218  23.578   2.816  14.006
39992W        W 5219  28.995  29.844  11.432
39993W        W 5220   3.978   2.038  10.699
39994W        W 5221   4.595  35.077  14.106
39995W        W 5222  38.603  43.957   1.714
39996W        W 5223   6.920  16.797   4.151
39997W        W 5224  24.069  36.091  13.039
39998W        W 5225  17.232  20.562   0.457
39999W        W 5226  13.255  32.491  13.094
40000W        W 5227  19.653  27.788  11.445
40001W        W 5228  38.509   9.716  12.498
40002W        W 5229  43.070   8.133  14.853
40003W        W 5230  18.750   7.440   4.267
40004W        W 5231  27.073   5.463  11.492
40005W        W 5232   0.822  10.767  12.981
40006W        W 5233  23.210  34.975   4.246
40007W        W 5234  43.503  17.322  10.186
40008W        W 5235  37.625  41.788  14.527
40009W        W 5236  33.220  23.918   4.394
40010W        W 5237  29.629  25.598   0.928
40011W        W 5238  15.726  36.393   0.570
40012W        W 5239  34.420  13.280  12.922
40013W        W 5240   5.392  10.159   0.754
40014W        W 5241  33.368   0.169  10.006
40015W        W 5242  17.719  20.307   0.439
40016W        W 5243  38.219  25.548   4.379
40017W        W 5244  18.278  16.040   3.723
40018W        W 5245  15.216  36.050   4.774
40019W        W 5246   6.887  32.992   2.659
40020W        W 5247  44.082   1.213  14.470
40021W        W 5248   3.865   2.534   5.529
40022W        W 5249  11.477  16.644   3.153
40023W        W 5250  40.664  13.122   2.725
40024W        W 5251  31.369   4.842  14.893
40025W        W 5252  20.985  39.282  12.206
40026W        W 5253  30.769  33.467  14.412
40027W        W 5254  23.726  14.338  13.485
40028W        W 5255  42.151  30.068  11.000
40029W        W 5256  33.468  35.374  12.356
40030W        W 5257   2.263   3.462  12.330
40031W        W 5258  24.622   6.179   3.196
40032W        W 5259  37.817  20.716   2.224
40033W        W 5260  42.321   7.356   4.870
40034W        W 5261  40.097  38.649  12.575
40035W        W 5262  44.339  39.617   2.605
40036W        W 5263  22.664  19.577   0.349
40037W        W 5264  37.540   0.851  11.365
40038W        W 5265  37.374  38.303   1.667
40039W        W 5266  17.603  23.920  12.001
40040W        W 5267  21.503  36.601  14.283
40041W        W 5268  24.171  10.643  12.060
40042W        W 5269  22.634  29.346   3.600
40043W        W 5270  43.935  30.468  14.842
40044W        W 5271   4.294   6.214   2.079
40045W        W 5272   5.828  24.648   0.997
40046W        W 5273  36.359   3.715  13.619
40047W        W 5274   9.450  16.717   4.771
40048W        W 5275  38.104  44.059   4.113
40049W        W 5276  25.141   2.525   4.799
40050W        W 5277  12.883  36.640  14.365
40051W        W 5278  29.901   0.796  13.004
40052W        W 5279   1.190   6.388   3.212
40053W        W 5280  31.172  33.896   3.499
40054W        W 5281  19.076  25.276  11.191
40055W        W 5282  42.600  20.825  13.963
40056W        W 5283  21.466  18.750   0.502
40057W        W 5284  43.794  37.561   1.319
40058W        W 5285   3.373   7.606   2.292
40059W        W 5286  35.105  23.381   3.344
40060W        W 5287  16.163  23.270   1.701
40061W        W 5288  33.575   5.881   1.290
40062W        W 5289  43.925   4.920   4.602
40063W        W 5290  27.365  25.562   2.781
40064W        W 5291  37.881  44.607   2.138
40065W        W 5292  28.413  27.623   3.169
40066W        W 5293  22.242  39.312   0.891
40067W        W 5294   9.343  17.886  12.386
40068W        W 5295  43.372  40.955  13.485
40069W        W 5296   5.908  37.526   3.358
40070W        W 5297  17.585  21.475  14.833
40071W        W 5298   9.233  10.125   2.608
40072W        W 5299  32.973  34.239  11.072
40073W        W 5300  28.154   5.951  13.949
40074W        W 5301  28.206  12.046  11.992
40075W        W 5302   2.025  37.811  14.430
40076W        W 5303   2.237  23.834   9.805
40077W        W 5304  13.169  14.542   3.816
40078W        W 5305  22.617  19.994  13.441
40079W        W 5306  16.829  25.624  12.871
40080W        W 5307  19.798  33.847  11.014
40081W        W 5308  34.396  29.454  12.600
40082W        W 5309  15.411  12.704  12.049
40083W        W 5310   5.796   4.731   1.708
40084W        W 5311  42.719  42.617   1.412
40085W        W 5312  36.713  14.721  11.470
40086W        W 5313  26.002  36.990  12.666
40087W        W 5314  18.894  24.152  10.710
40088W        W 5315  37.767  36.387  11.648
40089W        W 5316  28.107  14.260   4.984
40090W        W 5317  14.572   2.793   1.256
40091W        W 5318  40.203   9.696  11.136
40092W        W 5319   1.370  41.190   3.207
40093W        W 5320  27.759  20.614  13.391
40094W        W 5321  14.792   8.248   0.421
40095W        W 5322  24.601  19.195  12.660
40096W        W 5323  27.062  44.342  14.788
40097W        W 5324   3.449  10.250  11.084
40098W        W 5325  12.828  27.378   4.610
40099W        W 5326   6.185  37.537   1.929
40100W        W 5327   7.876  39.854   3.263
40101W        W 5328  17.855  24.983  10.824
40102W        W 5329  29.877  26.469  13.748
40103W        W 5330  31.493  19.806  12.548
40104W        W 5331   3.623  16.008  11.630
40105W        W 5332  19.265  43.008   3.700
40106W        W 5333  42.044  25.445   4.214
40107W        W 5334  35.939  36.906  12.661
40108W        W 5335   0.392   1.108   4.059
40109W        W 5336  27.907  25.061  13.321
40110W        W 5337  19.689  38.679   3.610
40111W        W 5338  24.306  19.314   5.019
40112W        W 5339  34.631  34.572   2.861
40113W        W 5340  20.605  10.182   4.543
40114W        W 5341  38.385   3.658   5.275
40115W        W 5342  39.866   8.376   4.083
40116W        W 5343  41.435  36.801   4.147
40117W        W 5344  33.406  27.852   2.725
40118W        W 5345   3.929  19.265  13.405
40119W        W 5346   3.995  17.461   2.606
40120W        W 5347  19.452  36.905   1.086
40121W        W 5348  26.617  26.909   1.180
40122W        W 5349  26.041   9.340   2.619
40123W        W 5350  35.651  32.426   4.702
40124W        W 5351  24.155  41.533   0.248
40125W        W 5352  16.170  21.794   2.071
40126W        W 5353  15.635  20.157   3.197
40127W        W 5354  19.588  21.236   2.251
40128W        W 5355  33.588  11.522   2.979
40129W        W 5356   8.500  22.064   3.395
40130W        W 5357  21.174  20.267   0.382
40131W        W 5358  38.649   0.309   3.857
40132W        W 5359  44.723   4.815  14.547
40133W        W 5360  32.993  40.792   3.707
40134W        W 5361  25.760  43.481   1.742
40135W        W 5362  31.736  40.910   1.418
40136W        W 5363   0.240  38.017   1.417
40137W        W 5364   9.398  18.840  12.040
40138W        W 5365  35.878  33.296  12.104
40139W        W 5366  42.884   8.589   1.772
40140W        W 5367  21.954  31.385  14.664
40141W        W 5368   6.972  42.392  14.871
40142W        W 5369  22.794  43.587   2.832
40143W        W 5370  41.191  23.529  11.519
40144W        W 5371  18.996  32.908  10.883
40145W        W 5372  21.341   2.940  11.727
40146W        W 5373   3.437  42.562   0.863
40147W        W 5374  40.449  28.643  11.021
40148W        W 5375  14.723   4.708   1.799
40149W        W 5376  16.902  14.195  13.397
40150W        W 5377  24.695  18.631  14.843
40151W        W 5378  30.971  13.017   1.607
40152W        W 5379  31.182   0.572  13.462
40153W        W 5380  42.537  32.002  13.811
40154W        W 5381  30.635  16.819  11.503
40155W        W 5382  16.446  44.617   4.482
40156W        W 5383   8.370  11.701  13.111
40157W        W 5384  25.574  19.004   4.146
40158W        W 5385   1.345  34.392   3.422
40159W        W 5386   9.158  38.554  10.342
40160W        W 5387  26.754  24.577   0.593
40161W        W 5388   6.464  43.133   9.791
40162W        W 5389  11.108  32.234  13.874
40163W        W 5390  33.349   4.479   0.350
40164W        W 5391   8.378   3.766   3.394
40165W        W 5392   0.692  25.817   4.135
40166W        W 5393  23.956  30.383   4.576
40167W        W 5394  11.144   1.129   4.083
40168W        W 5395  27.872  13.305   5.383
40169W        W 5396  30.748  26.432   2.578
40170W        W 5397  32.123  39.158   3.476
40171W        W 5398   2.496  36.417   4.666
40172W        W 5399  26.063  23.027   4.475
40173W        W 5400  33.107   0.655   0.859
40174W        W 5401  33.194  23.590   0.934
40175W        W 5402  19.799   6.884  12.578
40176W        W 5403  10.070  32.313  13.406
40177W        W 5404   6.036   5.246   4.467
40178W        W 5405  26.186   2.820  11.829
40179W        W 5406   1.342  32.752   0.918
40180W        W 5407  12.134   2.246   2.884
40181W        W 5408  26.722  16.558   1.448
40182W        W 5409  39.815  31.052   3.194
40183W        W 5410   9.782   1.077  13.891
40184W        W 5411  24.944   5.781  13.195
40185W        W 5412  20.936  11.478   5.163
40186W        W 5413  37.310  32.374   0.894
40187W        W 5414   3.312  41.079   1.826
40188W        W 5415  24.462  29.804  12.398
40189W        W 5416  37.835  20.847  10.350
40190W        W 5417  15.132  28.472   1.778
40191W        W 5418   2.559  34.304  14.420
40192W        W 5419  15.440  16.286  12.444
40193W        W 5420  32.524  28.021   1.766
40194W        W 5421   0.311   4.883  12.011
40195W        W 5422  24.342  37.056  12.514
40196W        W 5423  17.962  25.710   3.924
40197W        W 5424  38.167  34.612   1.292
40198W        W 5425  16.885   1.968   5.038
40199W        W 5426  14.123  13.976   2.392
40200W        W 5427  44.126   5.160  13.628
40201W        W 5428  31.449  18.481   2.283
40202W        W 5429   0.042  42.620   2.739
40203W        W 5430   7.854   3.136   1.685
40204W        W 5431   7.861   8.885   0.652
40205W        W 5432  18.086   8.169   1.763
40206W        W 5433  13.607  14.810   3.800
40207W        W 5434  29.363  19.773   4.231
40208W        W 5435  38.087  27.501  10.676
40209W        W 5436  29.532  24.429   1.488
40210W        W 5437  36.535  15.027   1.889
40211W        W 5438   7.407  27.039  12.610
40212W        W 5439  24.964  11.076  12.111
40213W        W 5440  15.101  34.428   2.880
40214W        W 5441  44.780  17.239  11.950
40215W        W 5442  33.372  11.731   4.487
40216W        W 5443  44.569  10.217   1.363
40217W        W 5444   6.095  34.178  11.499
40218W        W 5445  22.184   6.203  12.438
40219W        W 5446  29.490  35.775  14.274
40220W        W 5447  13.061  27.172  13.515
40221W        W 5448  40.497  32.484  11.657
40222W        W 5449   7.115   8.041  11.160
40223W        W 5450   8.002   6.263  12.214
40224W        W 5451  24.687  17.677   3.284
40225W        W 5452  29.206  12.893  11.952
40226W        W 5453  40.478  24.810   0.865
40227W        W 5454  37.166  18.221   4.999
40228W        W 5455  35.322  13.173   3.020
40229W        W 5456  31.686  34.493   1.933
40230W        W 5457  35.431  21.483   1.916
40231W        W 5458  29.921  40.719   3.289
40232W        W 5459  37.372  25.161   4.810
40233W        W 5460  16.809   3.685  13.997
40234W        W 5461   1.894  31.425  12.144
40235W        W 5462  38.697  25.998  11.399
40236W        W 5463  22.084  36.527  11.225
40237W        W 5464  36.580  17.579  12.116
40238W        W 5465  21.068  21.730  10.640
40239W        W 5466  39.329  12.116  11.141
40240W        W 5467   7.761   8.486  14.480
40241W        W 5468  37.235   4.566   4.351
40242W        W 5469   3.457  37.506   1.826
40243W        W 5470  37.503  22.480   1.924
40244W        W 5471  12.667   8.272  11.447
40245W        W 5472   9.928  25.707  14.325
40246W        W 5473  40.789  29.306  14.260
40247W        W 5474  13.323  28.495  10.516
40248W        W 5475  42.959  28.616   3.728
40249W        W 5476  31.523  11.602  12.162
40250W        W 5477  34.607   5.393  12.153
40251W        W 5478  33.037   3.468   1.645
40252W        W 5479  31.147   5.822   3.206
40253W        W 5480  42.414  33.852  10.773
40254W        W 5481  32.707   9.266  13.448
40255W        W 5482  10.413  28.509  13.445
40256W        W 5483  35.741  39.392   3.299
40257W        W 5484  43.275  31.370  13.475
40258W        W 5485  30.559  20.349   2.675
40259W        W 5486  19.643  19.742  11.685
40260W        W 5487  42.420  16.227  13.447
40261W        W 5488   7.681  41.017   4.221
40262W        W 5489  25.674   1.923   2.343
40263W        W 5490  15.660  37.384   1.332
40264W        W 5491   0.189  29.632  11.656
40265W        W 5492   4.544  26.271   1.780
40266W        W 5493  18.653  13.253   2.656
40267W        W 5494  33.437  33.395   0.635
40268W        W 5495  36.841   6.821  11.627
40269W        W 5496  26.515   4.732   2.516
40270W        W 5497  44.891  19.998   2.846
40271W        W 5498   1.199   9.004   2.631
40272W        W 5499  38.329  41.862   3.686
40273W        W 5500   9.125  33.911  13.270
40274W        W 5501  40.255  10.947  14.501
40275W        W 5502  24.951  10.209   2.340
40276W        W 5503  10.112  35.364   3.681
40277W        W 5504  42.892  18.666  12.294
40278W        W 5505  24.770  38.855   4.552
40279W        W 5506  13.086  34.092   0.807
40280W        W 5507   6.544  25.054   0.900
40281W        W 5508   4.013  26.257   1.686
40282W        W 5509  35.922  21.049  12.603
40283W        W 5510   2.264  44.432   2.296
40284W        W 5511  10.334  29.009  14.623
40285W        W 5512  38.057  40.777  11.621
40286W        W 5513  37.203  32.223  14.633
40287W        W 5514  34.994  40.521   1.819
40288W        W 5515  40.643  30.433   3.279
40289W        W 5516  27.986   2.420  14.533
40290W        W 5517  28.231  10.362  10.691
40291W        W 5518  43.980   5.534   4.614
40292W        W 5519  36.065  43.464  13.887
40293W        W 5520  28.986  35.325  11.541
40294W        W 5521  43.881  29.530  11.166
40295W        W 5522  32.351  19.344   1.522
40296W        W 5523  13.853  19.566   3.807
40297W        W 5524  11.410  20.715   1.415
40298W        W 5525  24.593  23.586  12.968
40299W        W 5526   6.644  33.091   1.253
40300W        W 5527  26.236  11.678  13.869
40301W        W 5528  42.375   3.967  10.721
40302W        W 5529  34.442  39.759  13.173
40303W        W 5530   8.015  30.031  13.529
40304W        W 5531   7.618  29.119   0.983
40305W        W 5532  40.252  41.102   1.589
40306W        W 5533  25.552   4.709   4.064
40307W        W 5534  18.587  27.479   1.178
40308W        W 5535  35.105  28.125  13.921
40309W        W 5536  38.809  17.606   3.745
40310W        W 5537  26.395  24.811  11.522
40311W        W 5538   4.347   3.490   3.707
40312W        W 5539  43.612  15.528   4.642
40313W        W 5540  15.690  13.420  11.580
40314W        W 5541   9.428  30.216  13.833
40315W        W 5542   3.794  10.059   4.638
40316W        W 5543  44.198  30.091   1.500
40317W        W 5544  24.677  41.951  12.908
40318W        W 5545  11.638  23.740   1.058
40319W        W 5546  29.902  11.551   1.522
40320W        W 5547  24.633  35.704  10.703
40321W        W 5548  35.660  31.537  12.205
40322W        W 5549   1.893  37.814  11.052
40323W        W 5550   0.460  40.156   1.373
40324W        W 5551  38.983  34.900  14.857
40325W        W 5552  34.946  36.316  11.487
40326W        W 5553   6.720  17.085  11.953
40327W        W 5554  41.518  43.655   3.244
40328W        W 5555  14.233   5.973   3.689
40329W        W 5556   2.368  43.271   2.441
40330W        W 5557   1.182  33.011   4.210
40331W        W 5558   5.093   6.556  12.145
40332W        W 5559  32.418   7.926   2.858
40333W        W 5560  44.872   7.338   2.611
40334W        W 5561   5.317  26.338   5.075
40335W        W 5562  17.801  29.896   1.825
40336W        W 5563   7.872  29.081  10.045
40337W        W 5564   9.117   5.734   2.087
40338W        W 5565  33.684  22.634  10.649
40339W        W 5566  33.967  32.378  10.954
40340W        W 5567  37.623  27.886   0.133
40341W        W 5568  27.080  16.736   3.803
40342W        W 5569   9.364  25.210  10.745
40343W        W 5570  12.573  39.958   2.316
40344W        W 5571  29.967  44.984   2.587
40345W        W 5572  28.481  24.720  14.453
40346W        W 5573  34.249   6.853  11.103
40347W        W 5574  40.521   2.339  14.536
40348W        W 5575  35.010  39.569  12.073
40349W        W 5576  16.851  27.877  11.163
40350W        W 5577  20.697  27.671  12.561
40351W        W 5578  11.708   1.683  12.152
40352W        W 5579  33.621   8.138  11.135
40353W        W 5580  39.925  27.310  12.943
40354W        W 5581  13.341  42.086   0.279
40355W        W 5582  20.727  33.295   0.924
40356W        W 5583  42.316  12.885   3.666
40357W        W 5584  37.333  15.700   1.817
40358W        W 5585  31.560  39.517   4.122
40359W        W 5586  24.146  17.702   4.076
40360W        W 5587  33.335   7.931  13.692
40361W        W 5588   8.908  42.284  12.555
40362W        W 5589  26.427  32.300   2.215
40363W        W 5590   7.149  39.863   3.676
40364W        W 5591  37.862  31.962   1.512
40365W        W 5592  30.499   8.782  13.837
40366W        W 5593  19.749   0.257   5.099
40367W        W 5594   5.153   2.549   0.426
40368W        W 5595  31.501  18.786   0.788
40369W        W 5596   3.531  13.206   0.329
40370W        W 5597  17.135  26.792   2.914
40371W        W 5598  12.107  12.201  10.618
40372W        W 5599  22.143  13.540   1.679
40373W        W 5600   0.787   2.219  14.541
40374W        W 5601  14.282  31.082   3.377
40375W        W 5602  18.168  12.394   1.527
40376W        W 5603   7.163  29.702   1.249
40377W        W 5604  21.740  43.264  13.465
40378W        W 5605  11.623  16.339  12.022
40379W        W 5606  26.533  18.308   1.553
40380W        W 5607  44.471   0.268   1.257
40381W        W 5608   7.959  12.270  14.526
40382W        W 5609  37.059  31.455  12.006
40383W        W 5610  17.778  39.634  13.568
40384W        W 5611  29.103  34.129  14.945
40385W        W 5612  23.664   3.273  10.814
40386W        W 5613   9.682   3.790  12.256
40387W        W 5614   8.010   1.210   0.206
40388W        W 5615  12.164   6.826   2.416
40389W        W 5616   8.886  22.294   3.653
40390W        W 5617  37.681  44.029   3.134
40391W        W 5618   4.326  35.573   1.934
40392W        W 5619  23.552  35.944   1.438
40393W        W 5620  12.413   4.437  14.520
40394W        W 5621  28.040  22.665  14.757
40395W        W 5622  44.730  41.421   1.220
40396W        W 5623  34.015   3.268  12.100
40397W        W 5624   7.881  36.576  14.367
40398W        W 5625  34.087  38.119  11.544
40399W        W 5626  21.823  43.911   2.766
40400W        W 5627  27.724  24.499   1.092
40401W        W 5628   9.186  42.409  11.179
40402W        W 5629  13.645   5.186  11.008
40403W        W 5630  43.295  18.782   0.742
40404W        W 5631  15.028  17.780   4.006
40405W        W 5632   1.814   3.785  11.608
40406W        W 5633   7.354   1.460  12.108
40407W        W 5634  43.486  25.486  14.409
40408W        W 5635   4.924  30.657   2.868
40409W        W 5636  36.473  40.765   4.532
40410W        W 5637  16.418  31.162   1.664
40411W        W 5638   5.193  30.988   0.892
40412W        W 5639  24.518   1.368  13.807
40413W        W 5640  36.682  25.566  12.496
40414W        W 5641   0.125  44.143   9.715
40415W        W 5642  33.740   8.937  11.957
40416W        W 5643  42.089   4.312  14.756
40417W        W 5644  27.091  16.268  14.259
40418W        W 5645  26.037  42.607  11.113
40419W        W 5646  25.378  32.119   0.750
40420W        W 5647  38.844  14.596  13.546
40421W        W 5648  16.153  12.142   3.626
40422W        W 5649  38.758  41.489  14.930
40423W        W 5650  12.181   5.961  13.426
40424W        W 5651  15.458  38.823   3.642
40425W        W 5652  44.952  16.835  14.409
40426W        W 5653  22.513  43.556  11.606
40427W        W 5654  29.145  15.831   4.522
40428W        W 5655  15.552  17.232   0.776
40429W        W 5656  11.322  33.464   0.267
40430W        W 5657  25.881  39.931  14.979
40431W        W 5658   8.799  12.606   1.414
40432W        W 5659  16.541  44.622   3.697
40433W        W 5660   7.338   9.330  13.609
40434W        W 5661  30.585  39.742   0.113
40435W        W 5662   2.708   3.404   0.929
40436W        W 5663  31.467  38.136   5.339
40437W        W 5664  36.576  20.666   4.582
40438W        W 5665   8.725  13.142  13.681
40439W        W 5666   8.345  13.362  13.434
40440W        W 5667  23.006  27.916  12.451
40441W        W 5668  37.159  43.552   4.075
40442W        W 5669  38.292  11.787   1.271
40443W        W 5670  28.581   4.808   1.459
40444W        W 5671  26.218  35.557  12.110
40445W        W 5672  44.837   2.653   4.362
40446W        W 5673  39.741   0.174  14.072
40447W        W 5674   0.379  31.332  11.041
40448W        W 5675  24.690  24.102  13.543
40449W        W 5676   8.233  16.150   1.421
40450W        W 5677  15.742  33.361  13.472
40451W        W 5678  30.427  24.298  11.056
40452W        W 5679   8.735  12.806  12.847
40453W        W 5680  12.214   4.311   3.528
40454W        W 5681  31.666  12.339   0.206
40455W        W 5682   7.594  39.250   0.800
40456W        W 5683  39.641  32.692   2.832
40457W        W 5684   8.543  24.196  12.620
40458W        W 5685  35.809  21.564   3.655
40459W        W 5686  11.239  44.877  13.445
40460W        W 5687  32.040  29.368  13.006
40461W        W 5688   0.417  38.815  14.995
40462W        W 5689   2.846  26.937  14.697
40463W        W 5690  41.019   2.135   1.516
40464W        W 5691   7.478  37.048   2.344
40465W        W 5692  35.586  31.913   4.788
40466W        W 5693  31.378  18.223   1.835
40467W        W 5694  31.888   7.139  14.282
40468W        W 5695  31.228  21.656   0.354
40469W        W 5696  37.797  31.962   2.023
40470W        W 5697  20.774  42.845  12.158
40471W        W 5698  17.096  36.467   1.287
40472W        W 5699  34.141   0.484   4.219
40473W        W 5700  16.600  10.759   2.707
40474W        W 5701  42.961  10.080  10.621
40475W        W 5702  17.452  33.667  11.044
40476W        W 5703   6.379   8.955  13.054
40477W        W 5704   6.609  28.627   1.934
40478W        W 5705  35.572   6.145   1.941
40479W        W 5706  11.927   7.001   0.464
40480W        W 5707  29.509  18.990  13.480
40481W        W 5708   8.906  35.415   1.853
40482W        W 5709   1.632  31.423  11.676
40483W        W 5710  27.694   1.342  11.381
40484W        W 5711   3.019  18.125   0.731
40485W        W 5712  44.546  26.051  13.444
40486W        W 5713  14.163  29.136   1.274
40487W        W 5714  10.460  41.601  12.029
40488W        W 5715  39.885  34.395  12.037
40489W        W 5716  41.938  37.895   3.650
40490W        W 5717  42.919  15.988  11.077
40491W        W 5718   6.349  22.577  14.290
40492W        W 5719  39.422   3.792   1.797
40493W        W 5720  30.989   9.379  13.025
40494W        W 5721  30.346  40.166  14.954
40495W        W 5722  16.532  35.329   1.755
40496W        W 5723   9.794  33.443  12.106
40497W        W 5724  24.542  44.941   0.917
40498W        W 5725   0.972   9.563  14.376
40499W        W 5726  41.570  19.076  13.203
40500W        W 5727  36.924   4.404  13.466
40501W        W 5728  41.256   0.354   2.719
40502W        W 5729  23.146   2.529  10.685
40503W        W 5730  18.557  38.585   5.040
40504W        W 5731   5.219   0.156  11.848
40505W        W 5732   3.357   4.649   2.332
40506W        W 5733   9.598   8.773   2.653
40507W        W 5734  28.639  44.949  12.275
40508W        W 5735  29.644  16.650  12.437
40509W        W 5736  16.805  25.401  12.406
40510W        W 5737  24.295   1.800  11.970
40511W        W 5738  22.607  21.505  12.640
40512W        W 5739   8.726  30.701  11.026
40513W        W 5740  24.203  31.813   0.373
40514W        W 5741   3.348  15.877   4.868
40515W        W 5742  29.038  43.455  10.712
40516W        W 5743  22.623  25.928  13.424
40517W        W 5744  10.652  11.664  14.201
40518W        W 5745  28.465   7.641  12.843
40519W        W 5746  18.542   4.638   0.488
40520W        W 5747  26.542  21.117  14.611
40521W        W 5748  44.370   9.685   1.904
40522W        W 5749  28.523  14.877  12.183
40523W        W 5750   1.837  15.423  11.556
40524W        W 5751  35.450  12.771  14.847
40525W        W 5752   4.199  40.813   2.812
40526W        W 5753   6.777   6.851  11.601
40527W        W 5754  35.353  12.073  14.417
40528W        W 5755  43.242  20.542  13.377
40529W        W 5756  28.073  20.782   0.762
40530W        W 5757   1.506   9.762   0.477
40531W        W 5758  11.690  30.758  14.075
40532W        W 5759  29.172  30.048   1.357
40533W        W 5760  35.108  17.237  13.369
40534W        W 5761   0.219  35.390  12.304
40535W        W 5762  32.686   8.325  12.082
40536W        W 5763  19.502  16.233   3.052
40537W        W 5764  41.281  28.793   4.207
40538W        W 5765  38.903  31.725  11.624
40539W        W 5766   6.898  13.744  11.188
40540W        W 5767  34.967   1.550   4.985
40541W        W 5768   9.343  41.099  13.489
40542W        W 5769   7.838  25.468   2.784
40543W        W 5770  27.429  41.607   0.461
40544W        W 5771  42.310  12.354  14.403
40545W        W 5772   0.035   6.732  10.629
40546W        W 5773   1.662  36.241   1.035
40547W        W 5774  19.777   1.515  11.595
40548W        W 5775  19.262  22.019   3.296
40549W        W 5776   9.250   7.781   4.854
40550W        W 5777  22.885  39.336  11.589
40551W        W 5778  34.943  30.099   4.111
40552W        W 5779  36.138  17.119  10.052
40553W        W 5780   9.039  11.827  11.092
40554W        W 5781  40.883  25.151   2.212
40555W        W 5782   8.651  34.535  14.625
40556W        W 5783  44.290  43.828   2.494
40557W        W 5784  24.360  21.645  14.600
40558W        W 5785   7.063  28.487   1.725
40559W        W 5786  30.355  28.946   3.266
40560W        W 5787   8.849  32.625  11.724
40561W        W 5788  23.288  24.111   4.285
40562W        W 5789   2.260  26.154  11.979
40563W        W 5790  32.420  24.221   2.862
40564W        W 5791  20.780  21.539   3.643
40565W        W 5792  28.154  22.769  12.804
40566W        W 5793  22.492  16.175   1.279
40567W        W 5794  17.774  18.513  14.190
40568W        W 5795  27.575  31.932  14.391
40569W        W 5796  43.436  33.334  14.537
40570W        W 5797  42.812   4.838   1.274
40571W        W 5798  16.620  36.501  11.334
40572W        W 5799  24.052  23.119   4.703
40573W        W 5800  23.911  19.450   3.041
40574W        W 5801  31.148  16.952  13.582
40575W        W 5802  21.329   6.711   2.181
40576W        W 5803  26.060  32.471  14.770
40577W        W 5804  33.049  26.201   1.080
40578W        W 5805  41.519   9.399   4.123
40579W        W 5806  17.659   8.728   3.642
40580W        W 5807   8.796  13.759  11.936
40581W        W 5808  35.538  39.533  12.115
40582W        W 5809  14.615  35.320   2.906
40583W        W 5810  23.174  31.936  14.439
40584W        W 5811  15.202  10.661  11.619
40585W        W 5812  40.538  17.117   4.179
40586W        W 5813   6.690  40.526   1.643
40587W        W 5814  13.686  19.259  12.591
40588W        W 5815  20.536  42.219  10.460
40589W        W 5816  19.874  14.278  10.405
40590W        W 5817  19.008  14.301   4.792
40591W        W 5818  35.604  34.552   3.915
40592W        W 5819  12.934   9.105  14.462
40593W        W 5820   7.254   0.910   0.241
40594W        W 5821  37.245   1.727   4.196
40595W        W 5822   2.677  18.025  13.069
40596W        W 5823   5.186  19.555  14.955
40597W        W 5824  38.442  24.709   0.299
40598W        W 5825  31.070  29.990   4.892
40599W        W 5826  17.113  21.053   5.145
40600W        W 5827  30.401  20.275  14.730
40601W        W 5828  34.979   7.147   0.414
40602W        W 5829   6.283  33.824   0.795
40603W        W 5830  24.050   8.649   3.669
40604W        W 5831  25.026  18.996  12.425
40605W        W 5832  33.322  29.931   0.934
40606W        W 5833  10.240  27.440  12.177
40607W        W 5834   2.252  12.749   0.418
40608W        W 5835   5.143  27.482  13.926
40609W        W 5836  21.823   0.529   0.868
40610W        W 5837   3.926  31.218  14.804
40611W        W 5838  18.184   2.708   4.661
40612W        W 5839  32.712  26.358   3.586
40613W        W 5840  22.662  33.233  14.274
40614W        W 5841   0.243  28.677  11.198
40615W        W 5842  34.594  31.914  14.987
40616W        W 5843   7.270  39.340   3.572
40617W        W 5844  40.429  39.248   4.729
40618W        W 5845  35.431  32.068  13.423
40619W        W 5846   8.134   9.162  14.847
40620W        W 5847  12.165   4.433  14.973
40621W        W 5848  39.611   5.487  10.791
40622W        W 5849   7.829  12.304  13.646
40623W        W 5850  39.551  18.053   0.518
40624W        W 5851  27.625   0.384  14.247
40625W        W 5852  14.616   2.040   0.780
40626W        W 5853   8.174  39.442  12.870
40627W        W 5854  20.796   9.342   1.355
40628W        W 5855  35.326  44.098  12.516
40629W        W 5856  35.216  26.619  12.983
40630W        W 5857  10.403  17.814   3.299
40631W        W 5858  35.462  38.916   3.228
40632W        W 5859  33.936   8.820  14.700
40633W        W 5860   4.118  26.898  11.173
40634W        W 5861   1.290  37.782  14.760
40635W        W 5862  18.070  19.998   3.240
40636W        W 5863  30.067  31.599  11.589
40637W        W 5864  26.995   7.288  10.969
40638W        W 5865  21.097  11.134   4.030
40639W        W 5866  13.048   3.666   0.318
40640W        W 5867  22.763  25.068  12.865
40641W        W 5868  40.281  44.837   2.608
40642W        W 5869  11.370  29.508  11.736
40643W        W 5870  34.680  41.376  11.511
40644W        W 5871  14.269  41.309   0.567
40645W        W 5872  40.986  37.579   2.335
40646W        W 5873  31.450  15.468  10.784
40647W        W 5874  32.669  22.296  13.005
40648W        W 5875  17.510   6.153  12.496
40649W        W 5876  44.267  30.144   3.134
40650W        W 5877   2.433  38.572   5.087
40651W        W 5878  20.206  35.778   2.735
40652W        W 5879  22.250  24.459   0.707
40653W        W 5880  19.994  24.987  13.278
40654W        W 5881  17.540  16.054  14.497
40655W        W 5882  26.025  33.555   4.818
40656W        W 5883  41.978  32.076   0.846
40657W        W 5884  22.857  18.400   4.047
40658W        W 5885  26.861   2.750   3.318
40659W        W 5886  42.478  44.014  11.890
40660W        W 5887  37.940  15.411   3.021
40661W        W 5888   3.261   3.166   2.490
40662W        W 5889  16.167  18.818   9.840
40663W        W 5890  39.328  17.371   1.811
40664W        W 5891   3.952  36.751   0.796
40665W        W 5892  30.681  36.332  14.510
40666W        W 5893  18.769  34.000  10.638
40667W        W 5894  39.865  37.639  12.482
40668W        W 5895   2.275  40.536   2.932
40669W        W 5896   0.167  38.187   4.672
40670W        W 5897  38.366  14.929   5.157
40671W        W 5898  35.834   5.698  11.039
40672W        W 5899  19.680  13.817   2.334
40673W        W 5900  26.807  40.959   4.081
40674W        W 5901  29.516   4.265   1.179
40675W        W 5902  18.695  10.164  11.139
40676W        W 5903  27.707  14.699  11.227
40677W        W 5904  29.582  41.113   4.004
40678W        W 5905  34.086   8.131  11.902
40679W        W 5906  39.115   5.903   0.445
40680W        W 5907  42.924  40.324  11.871
40681W        W 5908  15.126  41.595  13.416
40682W        W 5909  25.928  17.054  11.219
40683W        W 5910   4.078  17.671   2.150
40684W        W 5911  39.602   0.803   2.386
40685W        W 5912   3.263  18.175   4.366
40686W        W 5913   5.015  42.259   4.078
40687W        W 5914  32.517  30.757   2.354
40688W        W 5915   2.842  40.931   2.054
40689W        W 5916  39.354   6.301   2.722
40690W        W 5917  41.768  25.577  13.029
40691W        W 5918  40.760  19.363  10.169
40692W        W 5919  43.777  20.652   0.876
40693W        W 5920   0.966   5.892   3.245
40694W        W 5921  18.288  19.561  13.567
40695W        W 5922   8.067  15.304  14.448
40696W        W 5923   3.251  11.772   2.313
40697W        W 5924   4.853  34.046   2.820
40698W        W 5925  30.383  19.182   1.884
40699W        W 5926   3.297  26.570   4.983
40700W        W 5927  33.122  26.001  10.805
40701W        W 5928  11.930  17.744   3.853
40702W        W 5929  14.677  41.324  14.767
40703W        W 5930   4.680  43.376  14.255
40704W        W 5931  35.547   9.802  10.678
40705W        W 5932  25.629  28.035   3.232
40706W        W 5933   0.979  42.870  14.010
40707W        W 5934  31.286  20.380   1.805
40708W        W 5935  11.622  18.285   1.386
40709W        W 5936  37.826   7.019  10.211
40710W        W 5937  31.785  34.021  14.918
40711W        W 5938  26.294  18.844  12.458
40712W        W 5939   4.661  29.654   1.052
40713W        W 5940  39.012  13.580  11.657
40714W        W 5941  23.440   6.785   0.321
40715W        W 5942  13.131  34.069   3.223
40716W        W 5943  14.442  10.420  11.360
40717W        W 5944  40.519  38.753  12.320
40718W        W 5945  34.600  18.016   1.296
40719W        W 5946  19.601  27.050  10.700
40720W        W 5947  22.237  32.581   3.861
40721W        W 5948  28.875  17.333   2.707
40722W        W 5949  39.994  17.738   2.753
40723W        W 5950  32.098  33.060   2.806
40724W        W 5951  17.040   2.340   3.119
40725W        W 5952  39.427  24.914   1.187
40726W        W 5953  23.582  36.383  10.792
40727W        W 5954   4.686   5.828  13.430
40728W        W 5955  42.932  29.788   2.323
40729W        W 5956   9.216  17.752  12.870
40730W        W 5957  21.009  18.400  12.929
40731W        W 5958  27.304  10.117  13.917
40732W        W 5959   5.437  16.815   4.105
40733W        W 5960  44.419  40.438   3.142
40734W        W 5961  14.584   0.082   4.993
40735W        W 5962  42.788  16.510   3.984
40736W        W 5963   8.912  11.320   3.494
40737W        W 5964  22.704   4.484   2.447
40738W        W 5965  32.533  38.594   3.218
40739W        W 5966   8.287  37.037   4.932
40740W        W 5967  24.170  35.466  14.770
40741W        W 5968  25.009  36.048  11.734
40742W        W 5969  37.908  19.613  14.343
40743W        W 5970  28.107  36.014  11.496
40744W        W 5971  25.582   9.633   0.829
40745W        W 5972   4.732  35.442  11.547
40746W        W 5973  28.070  32.026  11.110
40747W        W 5974  34.978  42.461  14.284
40748W        W 5975  34.676  37.607  11.604
40749W        W 5976   1.424  11.370   2.276
40750W        W 5977  25.675  19.200  12.020
40751W        W 5978  42.452  20.531   0.359
40752W        W 5979  16.066  20.353  10.713
40753W        W 5980  34.007  15.624   0.320
40754W        W 5981  25.082  24.691   3.370
40755W        W 5982   5.354  32.970   1.425
40756W        W 5983   1.870  17.115   0.230
40757W        W 5984  44.056  15.346  14.408
40758W        W 5985  36.573  18.532  13.034
40759W        W 5986  21.766  27.469  10.696
40760W        W 5987  24.102  32.985  12.200
40761W        W 5988  25.869  15.433  13.908
40762W        W 5989  38.009  15.102  10.388
40763W        W 5990  33.643  19.407   0.226
40764W        W 5991  24.416  27.845   5.049
40765W        W 5992   5.134  42.075  14.862
40766W        W 5993  12.821  40.075  11.700
40767W        W 5994  24.397   0.926   0.871
40768W        W 5995  30.189   2.253  13.904
40769W        W 5996  41.054  14.628  14.844
40770W        W 5997  39.511  24.132  10.655
40771W        W 5998   6.685  36.938  12.020
40772W        W 5999  34.774  18.562   3.783
40773W        W 6000  18.723  40.685  13.864
40774W        W 6001   8.420  18.168  14.012
40775W        W 6002  40.370  42.706   2.150
40776W        W 6003  12.146  38.189   0.487
40777W        W 6004  37.000  26.479   3.847
40778W        W 6005  20.189  17.170  12.165
40779W        W 6006  33.123  39.020  13.045
40780W        W 6007   3.328  35.524  14.756
40781W        W 6008  31.119  13.172  13.303
40782W        W 6009  40.226  32.646   4.212
40783W        W 6010   8.749  19.659   2.632
40784W        W 6011  26.297  11.405   2.761
40785W        W 6012  35.808  35.904  12.435
40786W        W 6013  18.649   1.146   4.989
40787W        W 6014   3.294  20.664   4.456
40788W        W 6015  31.059   4.714  13.034
40789W        W 6016  35.062  42.949   3.284
40790W        W 6017  31.055  30.968  12.872
40791W        W 6018  41.428  44.305  13.056
40792W        W 6019  27.487  33.008   0.895
40793W        W 6020  10.396  41.052   1.945
40794W        W 6021   8.341  39.265  14.904
40795W        W 6022  31.046  37.511   0.722
40796W        W 6023   5.325  13.569   4.022
40797W        W 6024  27.355  38.602   2.781
40798W        W 6025  42.249  26.023   4.756
40799W        W 6026  43.503  33.383   2.741
40800W        W 6027  20.290  38.575   2.377
40801W        W 6028   2.138  36.148  14.802
40802W        W 6029   6.410  24.898  12.563
40803W        W 6030  13.464  42.846  14.791
40804W        W 6031  15.160  23.243  12.494
40805W        W 6032   3.896  29.699  12.092
40806W        W 6033  14.283  20.737   4.160
40807W        W 6034  12.403   9.850  14.390
40808W        W 6035  15.396  12.428  12.995
40809W        W 6036  35.939  40.773   3.185
40810W        W 6037  37.859  18.847  13.042
40811W        W 6038  22.507  17.267  11.891
40812W        W 6039  27.924  15.764   3.208
40813W        W 6040  44.510  34.076   1.838
40814W        W 6041  39.451  43.135  11.269
40815W        W 6042  29.558  14.759  13.367
40816W        W 6043  40.698  26.303  12.484
40817W        W 6044  12.280   2.967  11.868
40818W        W 6045  17.231  27.376  10.750
40819W        W 6046  35.658  17.799   4.019
40820W        W 6047   0.540  32.981   1.164
40821W        W 6048   5.408  17.428  11.032
40822W        W 6049   9.966  20.094  14.506
40823W        W 6050  41.125  25.996   2.365
40824W        W 6051  16.163  10.359  12.077
40825W        W 6052  41.304  38.389  14.767
40826W        W 6053  37.275  33.340   1.768
40827W        W 6054  31.227   2.204   3.641
40828W        W 6055  29.009  41.211  14.350
40829W        W 6056  41.616   9.483   4.969
40830W        W 6057   9.750  39.358  12.337
40831W        W 6058  34.096  14.875  10.636
40832W        W 6059  16.095  21.826  10.679
40833W        W 6060  36.164  10.917   3.284
40834W        W 6061  11.715  20.499  13.479
40835W        W 6062  12.037   7.330  11.129
40836W        W 6063  28.946  25.524  14.392
40837W        W 6064  16.633  34.111  10.664
40838W        W 6065  19.229   0.877   4.227
40839W        W 6066  28.522  25.211  11.139
40840W        W 6067  15.573  24.214   1.695
40841W        W 6068  20.958  19.815  12.769
40842W        W 6069  22.628  30.741   1.224
40843W        W 6070  12.849   0.410  13.965
40844W        W 6071   2.479  20.235  11.133
40845W        W 6072  28.612   4.669   0.032
40846W        W 6073   6.886  36.340  10.814
40847W        W 6074  16.051  18.180   0.443
40848W        W 6075  18.653  24.339  14.221
40849W        W 6076  22.560  27.707   2.371
40850W        W 6077  27.501   4.448  11.122
40851W        W 6078  44.982  27.540  12.032
40852W        W 6079  40.075  22.294  11.621
40853W        W 6080  11.842  30.945   4.150
40854W        W 6081  16.230  13.086  11.390
40855W        W 6082   9.631  25.275  14.310
40856W        W 6083  33.216  18.721   2.871
40857W        W 6084  12.966  30.247   1.029
40858W        W 6085  40.202  33.441   2.697
40859W        W 6086  11.587  12.570  10.139
40860W        W 6087  36.820  38.378   1.527
40861W        W 6088  35.849   2.855  12.005
40862W        W 6089   2.658  15.086  12.419
40863W        W 6090  32.151  12.918   2.363
40864W        W 6091  27.663  28.690   4.112
40865W        W 6092   3.141  16.164   2.218
40866W        W 6093  23.475  35.229   3.863
40867W        W 6094  35.728  27.629  11.877
40868W        W 6095  18.018  13.604  11.611
40869W        W 6096   2.539  22.048   4.527
40870W        W 6097  38.186   3.289   9.678
40871W        W 6098  42.061   9.305   3.206
40872W        W 6099  30.399   5.974  13.481
40873W        W 6100  31.060  36.351   2.938
40874W        W 6101  20.522  21.037  12.115
40875W        W 6102  39.578   0.078   3.248
40876W        W 6103  16.266  30.240  12.461
40877W        W 6104  11.796  36.069  11.293
40878W        W 6105   9.691  44.775  13.426
40879W        W 6106  13.428  33.486  13.872
40880W        W 6107  24.008  40.407  13.096
40881W        W 6108  22.551   5.681   4.159
40882W        W 6109  17.801  12.722  10.520
40883W        W 6110  36.556  38.918   2.775
40884W        W 6111   7.345   5.184  13.280
40885W        W 6112  44.337  17.063   0.582
40886W        W 6113   1.768   2.413  10.904
40887W        W 6114  16.954  29.945  14.517
40888W        W 6115  39.851  33.489   3.985
40889W        W 6116   8.390  19.542  13.302
40890W        W 6117  41.875  26.890   4.553
40891W        W 6118  10.342   5.859   3.189
40892W        W 6119  10.051  40.556  13.721
40893W        W 6120  19.535  27.471   4.265
40894W        W 6121  36.784  10.869  13.422
40895W        W 6122  12.615  31.428   4.128
40896W        W 6123  22.485  42.232   3.365
40897W        W 6124  41.950   5.674  12.475
40898W        W 6125  35.210   3.717  13.083
40899W        W 6126  27.753  33.956   2.273
40900W        W 6127   2.478  37.292  12.267
40901W        W 6128  43.222   1.100   2.461
40902W        W 6129  13.642  23.665   4.305
40903W        W 6130   7.320  28.072  11.025
40904W        W 6131   0.353  15.659   2.338
40905W        W 6132  13.150  32.911  14.401
40906W        W 6133  24.186  44.299  11.491
40907W        W 6134  31.238  36.983   2.631
40908W        W 6135  13.277  24.478   0.310
40909W        W 6136  37.560  43.247  12.083
40910W        W 6137  20.708  43.123  14.958
40911W        W 6138  38.052  43.611   2.012
40912W        W 6139  14.345  42.597   4.607
40913W        W 6140  11.638   3.449   2.139
40914W        W 6141  24.506  26.478   0.025
40915W        W 6142  25.696  27.601  12.981
40916W        W 6143  40.865  20.872  11.014
40917W        W 6144   3.172  12.807   3.565
40918W        W 6145  22.634  36.216   0.993
40919W        W 6146  37.293  12.761  12.574
40920W        W 6147  21.134   1.303  13.112
40921W        W 6148  35.092   9.128  13.210
40922W        W 6149  14.201  12.541   0.362
40923W        W 6150  31.473  20.242   0.035
40924W        W 6151  43.858   3.594   4.063
40925W        W 6152  11.044  13.849  10.786
40926W        W 6153   4.434  20.077  10.689
40927W        W 6154  20.757  42.826   4.139
40928W        W 6155  13.816  21.037  14.275
40929W        W 6156  30.129   9.229   2.001
40930W        W 6157  15.519  25.947  13.882
40931W        W 6158  31.828  21.821  10.940
40932W        W 6159  14.530   7.161  11.024
40933W        W 6160   8.561  12.243  12.105
40934W        W 6161   2.183  43.926   2.138
40935W        W 6162   0.603  20.909  14.898
40936W        W 6163  15.643  25.153   1.508
40937W        W 6164   8.836   4.886   4.358
40938W        W 6165  29.345  36.484  12.521
40939W        W 6166  23.057  40.602  14.462
40940W        W 6167  25.080  12.470  13.010
40941W        W 6168  42.288  33.135  13.421
40942W        W 6169  42.486  39.348  12.940
40943W        W 6170  24.246  28.374   4.197
40944W        W 6171  44.890  33.993   0.898
40945W        W 6172   0.660  31.736  11.813
40946W        W 6173  38.439   5.157   2.012
40947W        W 6174  32.078  43.374   0.341
40948W        W 6175  36.945  31.851   4.599
40949W        W 6176  16.706  10.789   4.695
40950W        W 6177  41.905  24.926  11.617
40951W        W 6178  44.590  24.502   2.320
40952W        W 6179  43.914  27.484   4.105
40953W        W 6180  33.160   9.223  11.649
40954W        W 6181  34.579  34.602  13.101
40955W        W 6182  27.557   1.380   1.886
40956W        W 6183  26.661  17.077  10.727
40957W        W 6184   1.283  24.542   2.779
40958W        W 6185  29.340  23.641  10.552
40959W        W 6186  15.843   0.019   4.095
40960W        W 6187  18.771   7.216  14.016
40961W        W 6188   2.740  20.876  13.424
40962W        W 6189  13.846  37.568  12.921
40963W        W 6190  40.978  44.746   0.650
40964W        W 6191  16.618  29.899  13.988
40965W        W 6192  35.079   5.135  12.056
40966W        W 6193  41.256  21.790   2.721
40967W        W 6194  17.051  40.958  13.956
40968W        W 6195  10.431  18.855  13.564
40969W        W 6196  14.334  14.178   2.846
40970W        W 6197  29.498  21.406   9.889
40971W        W 6198   2.990  26.133  15.000
40972W        W 6199  21.127  27.756  13.490
40973W        W 6200   6.347  34.156  13.347
40974W        W 6201  20.603  23.692   0.293
40975W        W 6202  37.853   4.847   3.244
40976W        W 6203  35.720  38.487   2.374
40977W        W 6204   8.900   0.069   1.516
40978W        W 6205   1.328  22.585   0.190
40979W        W 6206   6.206  13.162   3.416
40980W        W 6207   6.360   4.779  11.993
40981W        W 6208  22.195  28.227  10.694
40982W        W 6209  42.471  34.383  14.696
40983W        W 6210  26.973  17.633  13.672
40984W        W 6211  16.674  37.602   3.054
40985W        W 6212  22.506  30.027  10.886
40986W        W 6213  26.907  17.788   0.762
40987W        W 6214  40.214  25.268   0.851
40988W        W 6215  40.941  18.065   3.078
40989W        W 6216  30.842  14.670  11.390
40990W        W 6217  22.012  10.817  14.065
40991W        W 6218   5.436  22.200  10.225
40992W        W 6219   7.756  33.971   0.698
40993W        W 6220  12.674  26.382  14.864
40994W        W 6221  26.144  26.494  13.869
40995W        W 6222  40.502  33.848  14.812
40996W        W 6223  34.145  25.121  12.579
40997W        W 6224  24.938  29.159  13.790
40998W        W 6225  40.053  21.095   3.116
40999W        W 6226  20.152  41.765  13.909
41000W        W 6227  39.567  19.553   4.830
41001W        W 6228  35.786  23.493  12.969
41002W        W 6229  21.600  24.819   5.046
41003W        W 6230  28.492  22.388   0.278
41004W        W 6231  39.773   7.540   3.632
41005W        W 6232  23.788  40.919  12.847
41006W        W 6233   2.670   7.186   0.558
41007W        W 6234  36.978  35.089  12.474
41008W        W 6235   6.020  22.005  13.125
41009W        W 6236   2.689  11.288  10.362
41010W        W 6237  37.048  32.713  11.430
41011W        W 6238  33.656  25.674  14.523
41012W        W 6239  29.966   5.792  10.485
41013W        W 6240  11.684  35.559   2.770
41014W        W 6241   1.873  18.800   4.361
41015W        W 6242  43.446   2.975  13.521
41016W        W 6243  15.402   2.409  11.005
41017W        W 6244  20.176  25.646   1.423
41018W        W 6245  30.150  32.932  14.789
41019W        W 6246   2.980  24.879  11.823
41020W        W 6247  21.273  44.759  14.415
41021W        W 6248  16.652  14.122   0.842
41022W        W 6249  30.886  35.804  11.474
41023W        W 6250  36.581  37.913  14.031
41024W        W 6251   9.384  10.957   2.173
41025W        W 6252  17.730  20.427  14.883
41026W        W 6253   2.781   3.697   3.413
41027W        W 6254  27.920  42.812   3.014
41028W        W 6255  34.157  11.108  10.143
41029W        W 6256  16.067  41.828   0.744
41030W        W 6257   0.336  37.894  13.968
41031W        W 6258  15.136  10.395   1.588
41032W        W 6259   5.776   2.520  11.657
41033W        W 6260  34.458  13.248  13.666
41034W        W 6261  39.787   2.887   0.843
41035W        W 6262  22.543  14.432  12.110
41036W        W 6263  23.607  25.463   1.800
41037W        W 6264  24.616   2.545   3.120
41038W        W 6265  28.387  11.124   4.556
41039W        W 6266  19.519  15.701  12.892
41040W        W 6267  31.070   4.152   1.825
41041W        W 6268  25.515  35.410   2.251
41042W        W 6269  17.623  19.914   2.192
41043W        W 6270  17.726  29.629  14.160
41044W        W 6271  42.492  13.740   1.422
41045W        W 6272  43.988  37.278  10.775
41046W        W 6273  44.151  26.503  10.799
41047W        W 6274   2.383  37.899  11.610
41048W        W 6275  32.326  39.635  10.543
41049W        W 6276   6.465  25.012  10.621
41050W        W 6277  25.119  37.683   1.368
41051W        W 6278   2.283  23.632  11.504
41052W        W 6279  44.782  25.052  11.313
41053W        W 6280  36.807  20.281   3.717
41054W        W 6281   2.267  19.697  14.273
41055W        W 6282  41.176  24.186   4.967
41056W        W 6283  41.488  24.864   4.517
41057W        W 6284  25.429  10.369   2.231
41058W        W 6285   9.103  38.368  12.000
41059W        W 6286  20.684  17.986   1.380
41060W        W 6287   1.658  22.573   1.651
41061W        W 6288  37.649   3.410   3.553
41062W        W 6289   7.209   9.152   4.088
41063W        W 6290  33.517  16.060  11.658
41064W        W 6291   8.594  35.102  13.536
41065W        W 6292  14.186  16.583  14.519
41066W        W 6293  17.940   9.975   1.762
41067W        W 6294  37.833  16.504  10.657
41068W        W 6295  30.645  13.318   2.814
41069W        W 6296  27.262   7.673  13.203
41070W        W 6297  12.222  34.379  11.157
41071W        W 6298  35.425   7.758  12.645
41072W        W 6299  27.867  21.155  14.025
41073W        W 6300  37.294  40.584   4.572
41074W        W 6301  14.062   8.448  11.202
41075W        W 6302   9.624  22.595   4.217
41076W        W 6303  27.777   8.352   4.488
41077W        W 6304  19.246  34.849   1.949
41078W        W 6305  28.604  40.996  10.656
41079W        W 6306  22.488  38.564  11.949
41080W        W 6307  12.261  32.382   2.005
41081W        W 6308   8.760  22.726  14.440
41082W        W 6309  37.499  24.515  10.787
41083W        W 6310   7.241  12.135   4.019
41084W        W 6311   7.666   5.288  11.219
41085W        W 6312   5.821  38.457   4.173
41086W        W 6313   7.553  24.150   3.562
41087W        W 6314  22.881  30.507  12.256
41088W        W 6315  42.618   3.277   3.136
41089W        W 6316   8.286   8.372   1.325
41090W        W 6317  40.915  18.135   1.049
41091W        W 6318  18.166  30.438   2.318
41092W        W 6319  15.359  30.373  11.812
41093W        W 6320   0.260   1.906   3.717
41094W        W 6321  27.563  35.774   2.459
41095W        W 6322  15.648   1.878  11.902
41096W        W 6323   1.819  31.929   2.704
41097W        W 6324  13.807  19.811  10.760
41098W        W 6325   0.426   2.911  10.673
41099W        W 6326  24.709   2.515   3.967
41100W        W 6327  33.580  41.977   2.108
41101W        W 6328  17.809  38.610   3.681
41102W        W 6329  28.318   5.706   1.217
41103W        W 6330  27.221  43.034  14.309
41104W        W 6331  19.210  27.531  12.023
41105W        W 6332  34.728  15.273   4.634
41106W        W 6333   2.339  41.001  11.157
41107W        W 6334  44.715  25.332   1.915
41108W        W 6335  14.713  39.994   0.512
41109W        W 6336  19.252  11.100  14.024
41110W        W 6337   8.308   1.411  11.094
41111W        W 6338  31.531  44.366   2.947
41112W        W 6339  35.898  26.132   1.950
41113W        W 6340  27.997   1.048   3.179
41114W        W 6341  34.114  37.907   4.003
41115W        W 6342  22.237  24.973   1.730
41116W        W 6343  39.829  16.742  14.049
41117W        W 6344  15.714  17.692   2.752
41118W        W 6345  32.593  29.689  11.233
41119W        W 6346  10.330   9.802   2.070
41120W        W 6347  43.597  25.285  13.005
41121W        W 6348  10.289  20.925  12.460
41122W        W 6349  20.297  35.339   4.219
41123W        W 6350  21.985  24.932  11.116
41124W        W 6351   7.625   4.758  14.909
41125W        W 6352  44.417  39.665  13.258
41126W        W 6353  38.822  30.966  14.495
41127W        W 6354  11.630  26.584   9.890
41128W        W 6355   9.039  38.831   2.424
41129W        W 6356  24.776  11.692  10.728
41130W        W 6357  10.818   2.163   3.167
41131W        W 6358   5.895   2.220   2.757
41132W        W 6359   3.714  35.544   1.344
41133W        W 6360  37.667  12.353   3.363
41134W        W 6361   7.615  29.510   1.665
41135W        W 6362  32.505  43.715   1.560
41136W        W 6363   9.012   1.229   0.969
41137W        W 6364  35.420  31.764   1.927
41138W        W 6365  40.381  21.561  14.368
41139W        W 6366   6.793  37.018  14.145
41140W        W 6367  43.722   8.127   1.336
41141W        W 6368  39.049   2.265  13.328
41142W        W 6369  22.549  35.577   0.080
41143W        W 6370  34.408   1.686  13.821
41144W        W 6371  34.516  20.775  13.748
41145W        W 6372  22.484  31.404  14.779
41146W        W 6373   5.502  33.892   1.449
41147W        W 6374  14.580  43.403   2.609
41148W        W 6375  15.511  26.973   1.752
41149W        W 6376  24.385  22.056  11.086
41150W        W 6377  38.074  31.918   0.696
41151W        W 6378  31.015   1.850   2.223
41152W        W 6379  27.654  22.611   3.539
41153W        W 6380  24.566  32.788   3.583
41154W        W 6381  18.074  26.046  14.378
41155W        W 6382  27.418  20.043   0.019
41156W        W 6383   8.873  39.817   1.992
41157W        W 6384   9.379  12.818   0.824
41158W        W 6385  32.414  20.072  14.724
41159W        W 6386   0.259   9.276   4.161
41160W        W 6387  34.425  22.421  14.607
41161W        W 6388  12.558  42.816   1.408
41162W        W 6389  24.108  26.260  13.104
41163W        W 6390  18.068  43.221  12.126
41164W        W 6391   4.441  16.137  11.529
41165W        W 6392  23.460  31.287  14.860
41166W        W 6393  15.711   3.623   3.188
41167W        W 6394   8.431  13.650  14.376
41168W        W 6395  16.065  44.904   0.187
41169W        W 6396   8.123  23.779   4.241
41170W        W 6397   3.494  37.478  14.456
41171W        W 6398  24.436  10.350   3.682
41172W        W 6399  15.121  25.193   1.686
41173W        W 6400  42.871  37.408   2.596
41174W        W 6401   5.921  14.354  12.083
41175W        W 6402  32.863   9.906   1.778
41176W        W 6403  36.025  34.560  14.997
41177W        W 6404  10.357  22.041   4.623
41178W        W 6405  15.991  14.466  11.017
41179W        W 6406  32.390  42.232   3.357
41180W        W 6407  19.579  15.564  11.976
41181W        W 6408  35.822  29.807  13.912
41182W        W 6409  40.574  11.936   4.705
41183W        W 6410  13.775  31.883   1.189
41184W        W 6411   4.286  30.439  11.654
41185W        W 6412   1.420  29.863   3.271
41186W        W 6413   6.002  32.635  14.897
41187W        W 6414  23.731  18.179   1.325
41188W        W 6415  18.785   2.096  10.497
41189W        W 6416   3.735  40.352   3.527
41190W        W 6417   2.325  27.614  13.884
41191W        W 6418  27.470  42.040  12.590
41192W        W 6419  16.961   3.609   1.359
41193W        W 6420  23.934   7.428  13.892
41194W        W 6421  11.644   0.893  10.694
41195W        W 6422  19.629  22.717   0.837
41196W        W 6423  15.305  16.591   1.786
41197W        W 6424  18.704  26.710  11.577
41198W        W 6425  43.961  19.339   2.884
41199W        W 6426  27.004  38.756  11.555
41200W        W 6427   8.636  10.561  10.702
41201W        W 6428  21.037  34.400  13.812
41202W        W 6429   7.454  37.007   1.383
41203W        W 6430   7.346   6.858   1.241
41204W        W 6431  43.965  27.115  13.138
41205W        W 6432  26.637  36.830   2.368
41206W        W 6433  32.005  42.528  12.091
41207W        W 6434   9.540  20.538   2.459
41208W        W 6435  34.156  37.850  10.726
41209W        W 6436   0.406  15.078   1.250
41210W        W 6437   0.178  43.594   1.244
41211W        W 6438  29.422  41.946  14.298
41212W        W 6439   2.389  17.773   2.302
41213W        W 6440  25.083  14.324  11.112
41214W        W 6441  18.457  16.357  14.394
41215W        W 6442  35.555  17.579  13.403
41216W        W 6443  33.558  34.036  11.666
41217W        W 6444   0.213   6.934   1.771
41218W        W 6445   9.769  14.619   4.110
41219W        W 6446  10.370  40.911   0.962
41220W        W 6447  15.927   4.542  11.055
41221W        W 6448  34.761  39.593   3.157
41222W        W 6449   1.707   7.792   2.261
41223W        W 6450  24.138  37.926  14.891
41224W        W 6451  43.492   7.981   3.808
41225W        W 6452  23.532  20.774  13.852
41226W        W 6453   5.910  15.738  14.554
41227W        W 6454  16.613  11.075   1.941
41228W        W 6455  22.593  38.955  14.725
41229W        W 6456   4.050  29.670  13.411
41230W        W 6457  31.091   2.140   1.770
41231W        W 6458  16.361  29.460   4.517
41232W        W 6459  20.216  18.649   3.630
41233W        W 6460  28.193   0.762  14.984
41234W        W 6461  17.409   9.567  11.259
41235W        W 6462   0.528  19.835  14.761
41236W        W 6463  25.527  37.725  12.910
41237W        W 6464   2.869  12.290   1.627
41238W        W 6465   7.172  12.239  12.080
41239W        W 6466  17.171  11.406   2.574
41240W        W 6467  22.099   5.333   4.009
41241W        W 6468   3.049  25.170  11.387
41242W        W 6469  29.322  24.063  13.828
41243W        W 6470  26.870  39.790   4.086
41244W        W 6471  36.009  32.879   2.107
41245W        W 6472   8.007  20.221  11.700
41246W        W 6473  18.458  34.958  13.345
41247W        W 6474   7.921  13.244   4.569
41248W        W 6475  31.669  35.565  14.382
41249W        W 6476  33.844  14.216   0.900
41250W        W 6477  41.940  30.386  13.848
41251W        W 6478  40.904  22.408  12.025
41252W        W 6479  26.106  18.703  10.993
41253W        W 6480  14.155  20.629   4.660
41254W        W 6481  26.848   3.663   5.019
41255W        W 6482  16.947  30.481   3.871
41256W        W 6483  26.341  18.494   0.863
41257W        W 6484  41.903  11.678   2.850
41258W        W 6485  25.947  21.920  12.913
41259W        W 6486  12.190  18.571  10.673
41260W        W 6487  10.128  41.748   2.274
41261W        W 6488  24.423  14.597  14.372
41262W        W 6489  11.355  13.349  14.404
41263W        W 6490  23.115  40.106   4.240
41264W        W 6491   7.285  32.876   2.300
41265W        W 6492  23.479  29.006   4.625
41266W        W 6493   4.495  28.476   0.475
41267W        W 6494  10.919  26.309  14.334
41268W        W 6495  29.055  39.506   1.259
41269W        W 6496  32.989   7.370   3.942
41270W        W 6497  44.265  31.887  13.294
41271W        W 6498  44.922  10.618   1.315
41272W        W 6499  35.954  22.475  12.789
41273W        W 6500  11.018  16.370  10.089
41274W        W 6501  26.993  26.056  11.971
41275W        W 6502  16.874  27.658  12.052
41276W        W 6503  24.658  38.599   3.677
41277W        W 6504   2.652  12.833  11.164
41278W        W 6505  34.135   3.828  12.871
41279W        W 6506   5.841  18.388  11.516
41280W        W 6507  20.009  31.909  14.403
41281W        W 6508  12.783  13.054  13.820
41282W        W 6509  17.626  10.566  10.957
41283W        W 6510  18.720   9.255   1.345
41284W        W 6511  33.630  29.310   3.186
41285W        W 6512  15.069  26.513  11.050
41286W        W 6513   6.845  36.580   0.857
41287W        W 6514  11.643  10.825   3.192
41288W        W 6515  21.541  11.165  12.577
41289W        W 6516  32.565  39.668  11.009
41290W        W 6517  33.570  23.110  10.451
41291W        W 6518  40.448   6.137  11.888
41292W        W 6519  35.365   8.601   2.752
41293W        W 6520  26.132  39.385  13.608
41294W        W 6521  30.519   1.650   3.176
41295W        W 6522  40.012  38.432   4.421
41296W        W 6523  23.125  31.112  13.616
41297W        W 6524  39.993  34.026  14.991
41298W        W 6525  29.182  11.134  13.116
41299W        W 6526  19.083   6.101  12.544
41300W        W 6527  43.437   4.189  12.398
41301W        W 6528  40.580  37.372   3.747
41302W        W 6529  43.235  24.702   1.369
41303W        W 6530  26.722  21.732   0.238
41304W        W 6531  40.429  36.604   1.263
41305W        W 6532  14.492   9.903  11.554
41306W        W 6533  21.031  43.819   0.702
41307W        W 6534   2.811  41.652  12.058
41308W        W 6535  10.141  18.261   4.219
41309W        W 6536  28.216  41.791  12.521
41310W        W 6537  21.167  36.370   1.451
41311W        W 6538  21.454  29.685   3.289
41312W        W 6539  21.504   4.975  12.122
41313W        W 6540  38.892  26.148   3.544
41314W        W 6541  13.668  30.238  13.861
41315W        W 6542   6.816  26.332  13.035
41316W        W 6543  37.875   7.752   3.203
41317W        W 6544   4.324  40.305  13.498
41318W        W 6545  42.357  29.622   1.405
41319W        W 6546  40.935  32.943   3.905
41320W        W 6547  20.943  30.977   2.195
41321W        W 6548   4.179  35.542  11.575
41322W        W 6549  19.638  31.815  12.053
41323W        W 6550  10.347  40.409   2.147
41324W        W 6551  18.077  34.001   1.351
41325W        W 6552  16.772  23.653   1.352
41326W        W 6553  44.073  22.134  13.486
41327W        W 6554  44.505  44.241  14.872
41328W        W 6555  39.318   1.617  12.561
41329W        W 6556  32.655  40.470   9.979
41330W        W 6557  22.281   7.675  12.240
41331W        W 6558   9.445  37.309  14.685
41332W        W 6559  34.199  25.379   2.636
41333W        W 6560  24.436  12.267  12.397
41334W        W 6561  14.855   6.901   3.593
41335W        W 6562   9.777   6.751  12.459
41336W        W 6563  27.673  43.872  11.511
41337W        W 6564  35.631  44.918  14.358
41338W        W 6565  30.434  32.101   2.706
41339W        W 6566  44.360  36.889  10.682
41340W        W 6567  37.760  19.529   1.415
41341W        W 6568  28.709   8.685   4.188
41342W        W 6569  38.241  12.676   0.247
41343W        W 6570   6.746   7.735   3.482
41344W        W 6571  13.603  18.589  14.446
41345W        W 6572  31.096   5.564   4.167
41346W        W 6573  38.068   2.457  14.066
41347W        W 6574  20.476  21.082   0.755
41348W        W 6575  23.237   0.194  12.439
41349W        W 6576  15.315  15.174   1.216
41350W        W 6577  36.047  35.102  14.760
41351W        W 6578  23.174  22.773   1.290
41352W        W 6579  26.557  18.292  14.922
41353W        W 6580  20.552  35.879  10.576
41354W        W 6581  34.623  30.729   0.440
41355W        W 6582  25.892  11.812   0.723
41356W        W 6583   6.266  44.991   0.935
41357W        W 6584   4.904  32.327   3.675
41358W        W 6585  14.079  18.697  10.659
41359W        W 6586  35.025  33.576  12.308
41360W        W 6587  15.377  30.452   0.223
41361W        W 6588   5.799  18.040  14.842
41362W        W 6589  27.408  43.399  11.635
41363W        W 6590   4.320  40.553  13.981
41364W        W 6591   2.373  24.533   1.408
41365W        W 6592  22.093   2.878   1.040
41366W        W 6593  21.920  29.453   3.209
41367W        W 6594  39.806  43.458   4.509
41368W        W 6595  29.221  14.250   1.352
41369W        W 6596  23.220   3.420  13.799
41370W        W 6597  14.618  18.793   2.192
41371W        W 6598  34.042  41.049   3.755
41372W        W 6599  41.383  28.497  12.849
41373W        W 6600  39.541   6.297   3.187
41374W        W 6601  24.039  35.062   4.626
41375W        W 6602  38.534  30.943  10.727
41376W        W 6603  15.383  25.641   1.681
41377W        W 6604  24.221  29.192   1.652
41378W        W 6605   0.540  12.834   3.655
41379W        W 6606  25.580  42.793  12.086
41380W        W 6607  36.023  32.505   2.697
41381W        W 6608  10.154   4.874   1.728
41382W        W 6609  34.861  18.690   0.517
41383W        W 6610  20.834  20.055  10.284
41384W        W 6611   8.259   3.403   1.878
41385W        W 6612   9.922  32.228   2.716
41386W        W 6613  44.356  16.101  10.697
41387W        W 6614  17.745  44.855  11.632
41388W        W 6615  17.631   8.194  14.886
41389W        W 6616   4.839  19.460  11.432
41390W        W 6617  11.906  26.705  11.213
41391W        W 6618  35.594   2.898   1.137
41392W        W 6619   7.225  17.035  11.529
41393W        W 6620  18.481   4.050   0.366
41394W        W 6621  14.833  13.251  13.766
41395W        W 6622  10.189  33.592  10.713
41396W        W 6623  34.462   2.211  10.700
41397W        W 6624   0.294  42.592   1.071
41398W        W 6625  18.567  20.117  14.461
41399W        W 6626   2.434  14.511   1.414
41400W        W 6627  28.905  44.990  11.151
41401W        W 6628  39.420  36.882   1.116
41402W        W 6629  32.201  17.696  13.800
41403W        W 6630   5.908  24.283   3.122
41404W        W 6631   0.972   4.128   0.953
41405W        W 6632  38.916  32.439   0.836
41406W        W 6633  24.053   2.140   4.106
41407W        W 6634   0.476   2.426   1.785
41408W        W 6635  17.639   8.133  12.133
41409W        W 6636  32.114  35.781   1.630
41410W        W 6637  33.065  20.188   0.979
41411W        W 6638   3.095  13.758  12.822
41412W        W 6639  44.624  37.447  12.039
41413W        W 6640  33.691  12.244  12.553
41414W        W 6641  36.048  15.144   3.185
41415W        W 6642   4.155  23.241   0.383
41416W        W 6643  12.736  35.725   2.258
41417W        W 6644  21.123  33.490   4.772
41418W        W 6645  13.808  15.058  11.946
41419W        W 6646  43.324  40.760   1.229
41420W        W 6647  19.146  25.925   3.650
41421W        W 6648   1.321  33.268  14.147
41422W        W 6649  24.071   7.288  12.363
41423W        W 6650  22.156   4.051   3.729
41424W        W 6651  23.308  14.244   0.482
41425W        W 6652  44.839  25.914  14.886
41426W        W 6653   0.354  42.482  11.505
41427W        W 6654  27.585   5.248  14.087
41428W        W 6655   5.457  19.870   0.325
41429W        W 6656   9.479  39.812   4.137
41430W        W 6657   6.748  12.824  11.008
41431W        W 6658  25.552  43.279  11.954
41432W        W 6659  34.726  40.341   3.565
41433W        W 6660  35.277  39.318  11.714
41434W        W 6661  25.074  33.493  10.657
41435W        W 6662  14.853   8.255  11.528
41436W        W 6663   0.076  19.077  14.536
41437W        W 6664  26.056  38.349  10.433
41438W        W 6665  25.394  15.699   1.880
41439W        W 6666  43.381  12.885  14.625
41440W        W 6667  20.690   2.905  11.181
41441W        W 6668  11.045   6.155   1.804
41442W        W 6669  20.717  11.121   4.796
41443W        W 6670  29.575  20.758  11.530
41444W        W 6671   7.829  24.945   0.693
41445W        W 6672  31.215   9.010  11.684
41446W        W 6673  12.333  41.287  13.929
41447W        W 6674   9.717  37.753   0.343
41448W        W 6675  20.819  22.033  14.603
41449W        W 6676  37.582  11.853  10.952
41450W        W 6677  23.477  42.702   2.061
41451W        W 6678  31.133  35.796   4.190
41452W        W 6679  38.558   5.761  14.229
41453W        W 6680   5.448  21.554  13.884
41454W        W 6681  33.030  17.137  12.879
41455W        W 6682   5.717  21.187  13.019
41456W        W 6683  12.665  36.355   1.352
41457W        W 6684  23.503  12.396   4.531
41458W        W 6685  11.848   0.397  13.924
41459W        W 6686  40.363   0.299   2.880
41460W        W 6687  34.882  17.182   0.792
41461W        W 6688  18.995   9.711  10.956
41462W        W 6689  27.641  21.669   4.658
41463W        W 6690  38.101  23.717  10.566
41464W        W 6691  11.663  13.383   1.830
41465W        W 6692  34.968  29.402  14.606
41466W        W 6693  34.344   3.632  12.232
41467W        W 6694  42.312  33.613  12.539
41468W        W 6695  38.547   6.901   2.132
41469W        W 6696  23.266  24.437  14.295
41470W        W 6697   7.901  29.227  14.072
41471W        W 6698  35.626  41.043  11.961
41472W        W 6699   0.746   5.337  10.945
41473W        W 6700   5.722   2.902  12.016
41474W        W 6701  27.104  19.721  14.735
41475W        W 6702  13.238  39.394   0.747
41476W        W 6703  37.984  27.474  13.007
41477W        W 6704  10.662  15.226  14.218
41478W        W 6705   3.951  18.010   0.813
41479W        W 6706  26.480  25.054  14.480
41480W        W 6707  34.861   3.226  14.340
41481W        W 6708  44.278  23.995   3.153
41482W        W 6709  40.905  34.536   3.647
41483W        W 6710  26.958  15.315   3.498
41484W        W 6711   3.658  30.607  13.038
41485W        W 6712   4.695   2.920  13.432
41486W        W 6713  41.731  24.351   0.287
41487W        W 6714   2.407  42.484   4.507
41488W        W 6715  24.950  29.707  12.976
41489W        W 6716   1.776  19.998  12.586
41490W        W 6717   2.504  13.181   0.277
41491W        W 6718  33.335  10.774  11.842
41492W        W 6719  34.879  44.991   2.601
41493W        W 6720  35.314  42.911  10.800
41494W        W 6721  37.264  20.809   4.120
41495W        W 6722   1.943  43.278  14.665
41496W        W 6723  24.579  27.226  14.254
41497W        W 6724  43.254  43.843  11.605
41498W        W 6725  28.723  11.198  14.487
41499W        W 6726  11.694  14.619   4.514
41500W        W 6727   1.991  22.167  11.464
41501W        W 6728  13.850  35.470   3.241
41502W        W 6729  26.531  15.376  12.425
41503W        W 6730  12.283  34.094   1.286
41504W        W 6731  38.825  16.850  12.988
41505W        W 6732  35.713  38.605   0.265
41506W        W 6733  32.959  43.992  14.416
41507W        W 6734  33.518  22.253  13.428
41508W        W 6735  36.967  43.536   2.838
41509W        W 6736  11.372   1.796  11.354
41510W        W 6737  32.141  14.792  11.779
41511W        W 6738  31.126  33.133   4.869
41512W        W 6739  40.007  40.461  12.521
41513W        W 6740  12.783   7.179  12.420
41514W        W 6741  10.722  38.129  11.163
41515W        W 6742   4.755  28.090   4.053
41516W        W 6743  41.418  44.323   4.929
41517W        W 6744   9.151  15.512  12.218
41518W        W 6745  44.510  10.308  14.469
41519W        W 6746  13.285  24.236  13.978
41520W        W 6747  16.216   8.683   3.298
41521W        W 6748   7.838  44.294  12.145
41522W        W 6749   4.699  16.762   2.713
41523W        W 6750  10.839  19.077  11.831
41524W        W 6751  38.711  39.036   3.918
41525W        W 6752  17.155  17.153  10.727
41526W        W 6753  30.923  13.594  12.024
41527W        W 6754  18.206  16.239  13.654
41528W        W 6755  26.895  14.607   2.770
41529W        W 6756   0.862   2.933  11.106
41530W        W 6757   2.188  44.544  11.739
41531W        W 6758   9.820  19.735  11.766
41532W        W 6759   6.335  23.688  11.885
41533W        W 6760  29.825  24.679  13.498
41534W        W 6761  40.372  38.835   2.765
41535W        W 6762  40.338  33.883  14.308
41536W        W 6763  25.066   3.869   1.318
41537W        W 6764  37.572  14.022  12.920
41538W        W 6765  44.769  44.054  11.035
41539W        W 6766   7.095  15.019  13.106
41540W        W 6767  10.135  25.174   3.694
41541W        W 6768  10.846  44.046  13.361
41542W        W 6769  33.534  19.820  14.345
41543W        W 6770  34.024  42.914  10.612
41544W        W 6771  40.507  11.641  14.962
41545W        W 6772  36.916   2.532  12.994
41546W        W 6773  38.972  38.298   0.249
41547W        W 6774   2.818  34.357  13.433
41548W        W 6775  11.897  10.061  14.365
41549W        W 6776  21.497  34.701   2.315
41550W        W 6777  11.582  24.535   1.735
41551W        W 6778  33.360  30.528   2.714
41552W        W 6779  23.446  39.272  10.727
41553W        W 6780  34.658  43.610   0.574
41554W        W 6781  28.835  13.833  12.011
41555W        W 6782  22.561  37.562  13.152
41556W        W 6783  24.667  40.788  12.522
41557W        W 6784   8.734  31.027   2.180
41558W        W 6785  32.491   3.292  12.096
41559W        W 6786  10.330  39.311   3.613
41560W        W 6787  12.647  13.297   4.533
41561W        W 6788  17.254  40.838   4.274
41562W        W 6789  29.088  28.622   2.516
41563W        W 6790  21.409  39.479  11.342
41564W        W 6791  34.667  38.326   4.829
41565W        W 6792  19.603  44.708   0.922
41566W        W 6793  36.134  17.159  14.852
41567W        W 6794  31.552  31.532  10.518
41568W        W 6795  33.686  11.366  10.207
41569W        W 6796   7.820  20.109   4.729
41570W        W 6797  27.019  25.782   4.092
41571W        W 6798   9.354  32.175  14.838
41572W        W 6799   5.528  36.348  14.621
41573W        W 6800  23.900  25.933   1.173
41574W        W 6801  13.855  13.494   0.318
41575W        W 6802  42.099   4.462  14.229
41576W        W 6803   9.703   4.925   3.540
41577W        W 6804  32.534   8.281  12.988
41578W        W 6805  22.781  27.506   3.280
41579W        W 6806  34.637   0.364   2.190
41580W        W 6807  31.451  30.173   4.122
41581W        W 6808  31.714   4.900  10.707
41582W        W 6809  26.601   3.659   2.116
41583W        W 6810  29.395  41.315  13.126
41584W        W 6811   4.004  41.663   2.451
41585W        W 6812  12.287  40.000   2.899
41586W        W 6813  44.000   5.206  13.141
41587W        W 6814  13.563   8.795   0.697
41588W        W 6815  15.271  29.421   0.837
41589W        W 6816  44.575  41.473   1.728
41590W        W 6817  41.477  17.539  12.552
41591W        W 6818  18.279   4.648   3.675
41592W        W 6819  44.928  34.364  12.096
41593W        W 6820  20.340  38.325  10.437
41594W        W 6821  17.608  14.267   0.704
41595W        W 6822   6.608  32.559   2.819
41596W        W 6823  26.543  44.089   0.477
41597W        W 6824   9.747  10.379  10.761
41598W        W 6825   4.559  11.918  12.895
41599W        W 6826  44.534   0.826   1.266
41600W        W 6827  28.583  34.511  11.453
41601W        W 6828  22.026  40.698   2.833
41602W        W 6829  21.047  23.876  14.249
41603W        W 6830   3.383  23.121   2.691
41604W        W 6831  22.499  30.130  10.384
41605W        W 6832  32.616   4.224  13.595
41606W        W 6833  32.894   0.275  12.641
41607W        W 6834  11.862  12.300  12.863
41608W        W 6835  10.454  10.610   3.516
41609W        W 6836  18.452  13.868  12.927
41610W        W 6837  21.040   1.587  12.143
41611W        W 6838  32.135  14.350  13.309
41612W        W 6839  30.647  40.482   2.346
41613W        W 6840  32.154  20.578   4.941
41614W        W 6841  39.795  18.780   2.814
41615W        W 6842  23.306  11.641   0.411
41616W        W 6843  42.351  12.573   2.335
41617W        W 6844  38.951  33.474   5.160
41618W        W 6845   6.070  41.254   1.728
41619W        W 6846  17.501  24.291   3.792
41620W        W 6847  43.072   9.886   0.289
41621W        W 6848   9.927   1.350   3.715
41622W        W 6849  14.344   8.318  11.626
41623W        W 6850   5.775  26.942   2.284
41624W        W 6851  18.405  15.298  11.055
41625W        W 6852   0.137   4.744   3.258
41626W        W 6853   2.380  33.851  12.502
41627W        W 6854   1.155  36.400   0.985
41628W        W 6855  18.049  26.990  10.741
41629W        W 6856   6.286  28.895   2.702
41630W        W 6857  38.585  33.801  14.487
41631W        W 6858  19.171   7.299  13.688
41632W        W 6859   6.699  12.034  14.392
41633W        W 6860  14.300  42.796   3.772
41634W        W 6861  30.794  34.531  11.034
41635W        W 6862  10.172  23.221  13.050
41636W        W 6863  25.248  36.128  14.603
41637W        W 6864  25.681   9.548   3.887
41638W        W 6865  12.378   7.711  11.866
41639W        W 6866  29.135  20.590   3.821
41640W        W 6867  34.056  19.808   3.647
41641W        W 6868  22.591  21.472  12.138
41642W        W 6869  25.584  22.939   4.680
41643W        W 6870  30.844  44.312   0.779
41644W        W 6871  37.140  13.616  13.685
41645W        W 6872  26.569  25.203   2.288
41646W        W 6873  37.904  43.768   4.521
41647W        W 6874   8.695  40.021  11.836
41648W        W 6875  39.529  41.082   1.125
41649W        W 6876  29.368   0.652   4.969
41650W        W 6877  10.831   8.768   1.595
41651W        W 6878  28.914  40.349  14.152
41652W        W 6879  27.692  40.822  14.845
41653W        W 6880  19.808   2.301   3.672
41654W        W 6881   2.424  38.318   4.637
41655W        W 6882   7.850  14.811  13.681
41656W        W 6883   8.367  23.253   1.801
41657W        W 6884  38.824  29.046  12.937
41658W        W 6885  40.494  14.912   2.220
41659W        W 6886  41.004  17.486  13.537
41660W        W 6887  43.471   1.682   0.174
41661W        W 6888  39.417  22.157   1.780
41662W        W 6889   9.632  35.039   0.305
41663W        W 6890  19.124  41.448   0.191
41664W        W 6891  12.581  29.121  12.531
41665W        W 6892  20.564  10.221  13.875
41666W        W 6893   6.788  30.388  11.125
41667W        W 6894  11.257  12.152  11.830
41668W        W 6895  28.663   4.523  10.727
41669W        W 6896  28.900   5.331   4.542
41670W        W 6897  20.084  22.990  14.487
41671W        W 6898  32.403  42.990  11.261
41672W        W 6899  25.236  44.346  14.483
41673W        W 6900  25.671   8.163   2.727
41674W        W 6901  19.144  30.516  13.942
41675W        W 6902  44.770   9.772   4.118
41676W        W 6903   4.174  15.035   0.920
41677W        W 6904   0.433  24.947  14.273
41678W        W 6905   4.964   2.345  12.551
41679W        W 6906  27.076  40.300   0.257
41680W        W 6907  20.264  37.557   0.101
41681W        W 6908  41.775   0.444   0.190
41682W        W 6909  38.125  30.672   1.264
41683W        W 6910  14.936   7.734   3.286
41684W        W 6911   3.045  15.574   2.891
41685W        W 6912  43.858  10.628   4.371
41686W        W 6913  44.126  10.611  14.707
41687W        W 6914  26.493  34.965   2.786
41688W        W 6915  42.750   1.702  14.815
41689W        W 6916   5.289  40.603   0.819
41690W        W 6917  21.258  33.015   3.526
41691W        W 6918  27.988  13.098   0.335
41692W        W 6919  12.303   3.941  11.431
41693W        W 6920  13.429  15.575   2.776
41694W        W 6921   6.480  14.556  13.905
41695W        W 6922  35.175  39.421  11.209
41696W        W 6923  31.022  41.680   4.103
41697W        W 6924   9.155  40.118  10.551
41698W        W 6925  41.094  22.020   2.291
41699W        W 6926  30.153   9.543   5.384
41700W        W 6927  10.376  19.629  13.025
41701W        W 6928  12.306  33.686   0.571
41702W        W 6929  30.258  22.963   4.293
41703W        W 6930  26.633  19.612  13.430
41704W        W 6931  18.442  11.935   4.302
41705W        W 6932  10.160  11.703   0.572
41706W        W 6933  12.318  19.639  14.441
41707W        W 6934  35.637  11.358  13.329
41708W        W 6935  44.907   2.786  12.324
41709W        W 6936  38.619  27.440  12.563
41710W        W 6937  31.900  37.124   3.685
41711W        W 6938   0.938   9.678   0.457
41712W        W 6939   2.688  25.994  13.973
41713W        W 6940  14.066  10.350   3.215
41714W        W 6941  37.959  19.385  11.934
41715W        W 6942  33.524  24.060  10.415
41716W        W 6943  13.135   4.221   2.383
41717W        W 6944  44.239  36.650  13.835
41718W        W 6945  19.444  26.529   4.278
41719W        W 6946  16.635  35.896   3.250
41720W        W 6947  29.095  17.206  12.867
41721W        W 6948   0.497  28.666   2.133
41722W        W 6949  28.036  10.436  12.019
41723W        W 6950  19.082  35.436  13.903
41724W        W 6951   8.679  31.264  12.162
41725W        W 6952  41.555  19.519   0.289
41726W        W 6953  16.103  28.977  14.053
41727W        W 6954  22.280  26.954   2.865
41728W        W 6955   6.967  38.457   4.101
41729W        W 6956  35.775  21.983   0.785
41730W        W 6957  38.483  38.827   0.922
41731W        W 6958  17.017   1.980   0.905
41732W        W 6959  24.897  24.550   0.028
41733W        W 6960  24.644  26.586  12.016
41734W        W 6961  25.028  29.390   0.738
41735W        W 6962  34.135  29.758  14.833
41736W        W 6963  43.530  44.041  12.533
41737W        W 6964  12.296  28.595   2.419
41738W        W 6965   3.355   8.384  12.207
41739W        W 6966  34.414  14.688   0.945
41740W        W 6967  27.288  22.634   1.082
41741W        W 6968  31.312  31.582   3.287
41742W        W 6969  28.020  11.992   1.411
41743W        W 6970  25.776  14.166  12.374
41744W        W 6971  37.215  23.978   3.281
41745W        W 6972   4.247  31.324   2.643
41746W        W 6973  24.709   1.775  13.548
41747W        W 6974   6.413   8.303  12.040
41748W        W 6975  19.060   9.162  11.623
41749W        W 6976  25.617  39.269  13.904
41750W        W 6977  44.922  14.079  12.783
41751W        W 6978   3.280  41.274  12.674
41752W        W 6979  28.914  24.998  14.128
41753W        W 6980  42.188  13.852   0.972
41754W        W 6981   0.508  40.813  10.405
41755W        W 6982   4.765  14.269  13.856
41756W        W 6983  22.548  41.986  13.808
41757W        W 6984  30.206  23.144   9.819
41758W        W 6985  26.027  12.050  13.560
41759W        W 6986  22.641  38.654   1.967
41760W        W 6987   2.362  15.344  14.239
41761W        W 6988  21.183  17.371   2.761
41762W        W 6989  30.507  31.148   0.342
41763W        W 6990  34.961  36.574   2.861
41764W        W 6991  15.347  24.501  14.456
41765W        W 6992   5.316   4.964   2.386
41766W        W 6993  27.999  26.567  14.352
41767W        W 6994   6.297  28.226   4.163
41768W        W 6995   7.361  17.581  11.139
41769W        W 6996  10.393  11.419  11.157
41770W        W 6997  17.088  37.825  12.811
41771W        W 6998  29.721  39.978  14.318
41772W        W 6999  43.952  15.262   0.971
41773W        W 7000  24.291  38.378   4.061
41774W        W 7001  15.765  21.285  14.439
41775W        W 7002   0.374   9.597   2.823
41776W        W 7003  11.625  34.936   3.177
41777W        W 7004  23.083   7.378   0.867
41778W        W 7005  41.545   8.854  14.102
41779W        W 7006  31.952   2.160  11.204
41780W        W 7007  38.030  42.147  12.362
41781W        W 7008  23.908  24.484   0.710
41782W        W 7009  43.978   2.473  13.960
41783W        W 7010  13.713  20.360  11.687
41784W        W 7011  36.722  41.161   9.886
41785W        W 7012  18.234  30.554   0.873
41786W        W 7013   4.232  30.507   1.530
41787W        W 7014  10.078  22.758   2.161
41788W        W 7015   0.728  10.411  12.050
41789W        W 7016  40.985  14.033   3.663
41790W        W 7017  44.266  37.841   1.347
41791W        W 7018  18.806  25.499   0.517
41792W        W 7019   5.227  16.459  11.148
41793W        W 7020  34.346  31.732  12.872
41794W        W 7021   7.310  33.479  13.482
41795W        W 7022  17.958   3.311  13.308
41796W        W 7023   5.534  14.823  14.021
41797W        W 7024   7.428  26.678  14.150
41798W        W 7025  43.722  38.908   2.916
41799W        W 7026  31.405  10.018   1.853
41800W        W 7027   3.695  15.542  11.437
41801W        W 7028  41.146  29.123   3.777
41802W        W 7029   6.281  13.810   0.262
41803W        W 7030  16.253   7.899   4.117
41804W        W 7031  18.827  33.471  11.563
41805W        W 7032   7.852  44.587   4.219
41806W        W 7033  43.601  34.756  14.393
41807W        W 7034  42.537   6.806   3.686
41808W        W 7035  31.927  25.078   2.106
41809W        W 7036  18.323  33.576  11.467
41810W        W 7037  44.721   4.311  14.260
41811W        W 7038  41.550  35.499  12.079
41812W        W 7039   2.406  19.190  13.383
41813W        W 7040  24.230  30.314  12.550
41814W        W 7041  31.460  17.806   0.678
41815W        W 7042  16.249  13.898   2.804
41816W        W 7043  42.543  15.001  12.941
41817W        W 7044  41.360  16.818   3.720
41818W        W 7045  29.395  13.871   3.431
41819W        W 7046  35.045  43.877   3.130
41820W        W 7047   3.456  13.349   2.297
41821W        W 7048  33.654  43.965  10.764
41822W        W 7049  24.180  16.744   3.922
41823W        W 7050  26.322  30.405  14.883
41824W        W 7051  41.118  17.261   2.805
41825W        W 7052  11.147  33.376   1.805
41826W        W 7053  17.611   3.655  14.336
41827W        W 7054   6.103  22.553  14.737
41828W        W 7055  27.179  11.751  13.567
41829W        W 7056   9.220  44.049  14.474
41830W        W 7057  12.270  43.558  11.508
41831W        W 7058  30.642  39.691   1.463
41832W        W 7059  40.021  43.261   1.305
41833W        W 7060  42.874  26.221  10.928
41834W        W 7061   8.335  24.852   4.774
41835W        W 7062   8.447  37.920  13.075
41836W        W 7063  14.371  44.348  11.553
41837W        W 7064  44.286   7.127   4.212
41838W        W 7065  34.088  15.307   3.091
41839W        W 7066  10.139  16.912  12.393
41840W        W 7067  24.582   4.712  14.026
41841W        W 7068  44.587  18.184  14.376
41842W        W 7069  17.552  44.594   2.984
41843W        W 7070   1.244  40.428  14.461
41844W        W 7071  33.515  30.773   1.268
41845W        W 7072  24.781  20.513  14.441
41846W        W 7073  18.083  40.413   0.261
41847W        W 7074   7.124   7.440   4.212
41848W        W 7075  33.624  37.874   0.399
41849W        W 7076   7.183  36.275  11.232
41850W        W 7077  17.143  14.201   0.875
41851W        W 7078  18.942  44.283  10.732
41852W        W 7079  24.739  16.834  11.232
41853W        W 7080  21.328   4.739   1.165
41854W        W 7081  30.192  41.768  14.003
41855W        W 7082   6.066  44.713  14.132
41856W        W 7083  13.288   2.722   2.447
41857W        W 7084  23.640  26.220  14.861
41858W        W 7085   4.885  14.802  10.319
41859W        W 7086  21.513  37.487  14.323
41860W        W 7087  16.203  13.610  11.557
41861W        W 7088  22.180  18.860   1.030
41862W        W 7089   4.231  17.032  13.003
41863W        W 7090  16.789  10.247  14.427
41864W        W 7091  19.319   3.281  10.633
41865W        W 7092  26.727  25.175  11.664
41866W        W 7093   4.401  28.179  12.358
41867W        W 7094  27.254  42.137  13.892
41868W        W 7095  23.824  44.341   5.396
41869W        W 7096  36.007  42.068   3.689
41870W        W 7097  11.396  10.337  12.974
41871W        W 7098  25.766  19.642   0.394
41872W        W 7099  22.270   1.895  13.346
41873W        W 7100  42.893  36.870  14.843
41874W        W 7101  42.969  26.281   1.434
41875W        W 7102  19.131  31.499  10.436
41876W        W 7103   7.784  43.194  13.983
41877W        W 7104  16.312  44.803  13.405
41878W        W 7105  14.714  44.471  12.501
41879W        W 7106  35.608  39.528  13.530
41880W        W 7107  27.804   7.397  13.527
41881W        W 7108  25.648  21.024  12.372
41882W        W 7109  34.316   0.683  13.988
41883W        W 7110  27.559  17.726   4.860
41884W        W 7111  25.931  24.493  14.948
41885W        W 7112   3.653   7.692  12.462
41886W        W 7113  23.696  27.034   4.541
41887W        W 7114  11.677   2.565   4.146
41888W        W 7115  11.112  23.029  14.480
41889W        W 7116  40.368   5.207  12.095
41890W        W 7117  19.256  31.551  12.356
41891W        W 7118  39.944  27.290   2.715
41892W        W 7119  39.925  24.931  11.501
41893W        W 7120  36.822  14.231   4.684
41894W        W 7121  40.764   3.810  13.516
41895W        W 7122  33.667  28.619   3.317
41896W        W 7123  34.564  11.870   2.190
41897W        W 7124  30.585  30.430   2.283
41898W        W 7125  38.264   2.854   4.684
41899W        W 7126  21.271  13.774   4.077
41900W        W 7127   0.674  26.445  13.191
41901W        W 7128  21.655   1.213  12.465
41902W        W 7129  42.619  10.129   4.153
41903W        W 7130  13.960  33.575   4.099
41904W        W 7131  15.717  34.665  14.747
41905W        W 7132  10.051  10.624   1.806
41906W        W 7133  38.939   5.375  14.336
41907W        W 7134  21.207  37.616   4.550
41908W        W 7135   9.655  13.743   4.132
41909W        W 7136  42.548  35.589  14.558
41910W        W 7137  24.100   5.204  13.424
41911W        W 7138  17.478  28.851  13.715
41912W        W 7139  29.232  35.438   4.162
41913W        W 7140  23.699  37.377   0.307
41914W        W 7141  42.251  18.801   3.241
41915W        W 7142  12.226  34.122   2.704
41916W        W 7143   4.418  32.642  11.180
41917W        W 7144  42.973  38.594  14.895
41918W        W 7145  43.802  27.005   1.846
41919W        W 7146  27.479  30.341   3.734
41920W        W 7147  32.023  22.191  11.930
41921W        W 7148  30.477  42.416   3.741
41922W        W 7149  31.474  32.395  12.000
41923W        W 7150  29.070  14.331   2.834
41924W        W 7151  44.871  18.259  13.327
41925W        W 7152  44.291  37.882   5.142
41926W        W 7153  11.803  16.664  13.349
41927W        W 7154  28.107  39.516   3.197
41928W        W 7155  14.505  11.595  11.177
41929W        W 7156  23.625  17.730   1.556
41930W        W 7157   2.942  18.287  10.758
41931W        W 7158  32.645  19.685  10.595
41932W        W 7159  44.888  33.413  10.654
41933W        W 7160   1.679  20.883  14.203
41934W        W 7161  34.654  21.172   0.019
41935W        W 7162   1.873  21.252   0.297
41936W        W 7163  19.698  33.053   3.709
41937W        W 7164  12.197  22.490   1.926
41938W        W 7165   4.260  25.971   3.908
41939W        W 7166  42.459  24.545  10.956
41940W        W 7167   8.101   4.391   1.692
41941W        W 7168  28.248  15.480  12.116
41942W        W 7169  42.411  18.247   2.400
41943W        W 7170  19.091  27.262   4.425
41944W        W 7171  21.565  40.557  14.742
41945W        W 7172  12.344  22.095   2.238
41946W        W 7173  20.147  24.920  12.795
41947W        W 7174  32.161  23.729  11.920
41948W        W 7175  36.376   3.780   2.190
41949W        W 7176  22.451   9.783  14.737
41950W        W 7177   3.634  11.396   1.313
41951W        W 7178  23.619  19.020  13.446
41952W        W 7179  22.063  13.274   5.043
41953W        W 7180   7.657  17.644   2.318
41954W        W 7181   5.928  26.111   3.729
41955W        W 7182  32.319  38.568   5.415
41956W        W 7183  10.985   3.851   4.553
41957W        W 7184  28.404  26.135  10.588
41958W        W 7185   5.751  29.038   3.230
41959W        W 7186  25.777  20.849  10.655
41960W        W 7187  30.379  21.969  11.105
41961W        W 7188   0.437  24.326  11.223
41962W        W 7189  33.793   2.813   0.750
41963W        W 7190  42.495  24.581  10.440
41964W        W 7191  12.442  18.725   4.209
41965W        W 7192  38.504   7.200  14.288
41966W        W 7193  10.852  42.567  12.067
41967W        W 7194  18.464  40.815   0.247
41968W        W 7195  25.499  44.765  13.330
41969W        W 7196   9.760  17.071   2.564
41970W        W 7197  38.533  24.246   4.686
41971W        W 7198  22.636  33.999  13.185
41972W        W 7199  25.543  41.301  10.778
41973W        W 7200  41.585  43.854  12.857
41974W        W 7201  43.315  34.269   1.032
41975W        W 7202  30.874   1.973   2.711
41976W        W 7203  29.484  34.355  12.518
41977W        W 7204   2.709  15.281  10.720
41978W        W 7205  28.009   5.269  14.453
41979W        W 7206  42.980  25.736   1.378
41980W        W 7207  31.402   1.177   3.296
41981W        W 7208   7.771   3.171   0.766
41982W        W 7209  18.300  36.498  13.914
41983W        W 7210   8.865   1.899  10.622
41984W        W 7211  17.645  21.076  12.565
41985W        W 7212  14.017  39.108   0.494
41986W        W 7213  13.228   4.381   1.076
41987W        W 7214  37.395  23.045  10.691
41988W        W 7215  27.989   7.234   3.678
41989W        W 7216  41.292  11.295   3.914
41990W        W 7217  41.451  13.234  12.529
41991W        W 7218  14.892  14.827   4.187
41992W        W 7219  28.942  19.769  13.723
41993W        W 7220  13.551   6.265   5.024
41994W        W 7221  35.965  13.684   3.348
41995W        W 7222   3.485   0.352   2.557
41996W        W 7223  11.824   8.895   3.613
41997W        W 7224   2.782  30.174  13.603
41998W        W 7225  23.763   9.994  11.066
41999W        W 7226  26.698  40.407   3.643
42000W        W 7227  17.779  10.136   4.264
42001W        W 7228  13.771  32.467  13.285
42002W        W 7229  34.082  44.964   4.370
42003W        W 7230  35.937  20.898  13.131
42004W        W 7231  31.600  33.977  12.952
42005W        W 7232  12.730   1.854  11.600
42006W        W 7233  37.905   5.294   2.668
42007W        W 7234   6.910   5.860   4.714
42008W        W 7235  35.585  19.701  11.592
42009W        W 7236  13.529  43.826  14.369
42010W        W 7237  43.748  34.167   4.720
42011W        W 7238  39.968  12.860   3.129
42012W        W 7239   3.305  15.210  11.613
42013W        W 7240  25.548   7.587  10.215
42014W        W 7241   0.940  29.151   0.987
42015W        W 7242  12.560  29.070  11.665
42016W        W 7243  12.624  41.290  13.481
42017W        W 7244  18.108  13.962  12.505
42018W        W 7245   8.211  39.992  11.612
42019W        W 7246  34.088  39.131   3.802
42020W        W 7247  35.946  10.700   4.823
42021W        W 7248  20.016   5.221  10.737
42022W        W 7249  12.033  20.746   0.366
42023W        W 7250  26.801  11.644   5.358
42024W        W 7251  31.619  37.059  11.201
42025W        W 7252  39.559  27.415  10.756
42026W        W 7253  30.603  11.316  11.089
42027W        W 7254  31.761  17.745   3.705
42028W        W 7255  33.388  35.368   0.496
42029W        W 7256   9.365  31.179   2.880
42030W        W 7257   8.867   5.975   3.264
42031W        W 7258   3.354  30.921  13.405
42032W        W 7259  30.069  41.293   2.703
42033W        W 7260   1.111  23.666   2.298
42034W        W 7261   9.796  17.660  12.358
42035W        W 7262   1.909   7.535   2.850
42036W        W 7263  36.983  36.588   2.525
42037W        W 7264   0.731  41.038  11.239
42038W        W 7265  17.814  10.900  11.595
42039W        W 7266  19.054  24.003   4.675
42040W        W 7267   1.254  30.543   0.484
42041W        W 7268  33.371  43.302   4.830
42042W        W 7269   6.718  44.989   0.281
42043W        W 7270   9.287  27.623  14.416
42044W        W 7271  37.947  41.910  14.940
42045W        W 7272  28.220   9.804  11.160
42046W        W 7273   9.467  39.482  13.378
42047W        W 7274  34.173  42.795  14.858
42048W        W 7275  27.138  42.763   1.197
42049W        W 7276  12.112  20.738  12.229
42050W        W 7277   3.952  40.497   4.300
42051W        W 7278  25.131  43.497  14.044
42052W        W 7279  34.166  18.279   0.873
42053W        W 7280   2.233   5.947  10.783
42054W        W 7281  40.058  28.203  13.476
42055W        W 7282  26.212  14.137   0.704
42056W        W 7283   4.370  22.472   1.050
42057W        W 7284  31.252  18.059   1.096
42058W        W 7285   0.525  23.681   5.067
42059W        W 7286   3.888  41.234   2.762
42060W        W 7287  18.360  27.017  14.366
42061W        W 7288  15.072  24.562   3.279
42062W        W 7289   9.369  16.353   1.268
42063W        W 7290   4.377  19.226   4.993
42064W        W 7291  20.356   0.870   0.626
42065W        W 7292  39.411  18.282  14.772
42066W        W 7293  38.154  25.053   2.783
42067W        W 7294  19.556  44.793  13.106
42068W        W 7295  18.120  31.731   4.031
42069W        W 7296  22.259  41.675   2.791
42070W        W 7297  29.175  39.298  11.416
42071W        W 7298  12.311  33.607  13.024
42072W        W 7299   1.478  26.112   1.805
42073W        W 7300  28.623  29.107  12.090
42074W        W 7301  35.825  24.927   3.683
42075W        W 7302  17.142  41.607   1.662
42076W        W 7303  13.325  11.700  13.749
42077W        W 7304  40.036  11.873  14.906
42078W        W 7305  26.275   3.218  14.462
42079W        W 7306  38.888   4.467   3.751
42080W        W 7307  17.738  17.025   3.105
42081W        W 7308  14.810  17.689   2.221
42082W        W 7309  44.907  18.364  12.379
42083W        W 7310  40.083   5.393  14.642
42084W        W 7311  30.101  37.403  14.305
42085W        W 7312   4.252  25.817   1.786
42086W        W 7313  34.648  40.878   3.366
42087W        W 7314  10.046  44.963   1.295
42088W        W 7315  44.840  40.789  11.037
42089W        W 7316   7.857  42.235  12.111
42090W        W 7317  27.463  10.833   2.292
42091W        W 7318  14.582   7.331   3.738
42092W        W 7319  24.377  23.568   4.379
42093W        W 7320  26.063   7.409  13.107
42094W        W 7321   2.301   3.128  11.046
42095W        W 7322  29.924  30.862   2.674
42096W        W 7323  34.040  31.729   0.733
42097W        W 7324   5.881  18.022   0.853
42098W        W 7325  28.082  21.197  12.059
42099W        W 7326  22.945  41.851   4.664
42100W        W 7327  22.552  33.636   2.680
42101W        W 7328  22.622  38.079  13.281
42102W        W 7329  39.145   2.402   2.760
42103W        W 7330  32.139   9.338   3.433
42104W        W 7331  13.423  25.725   1.189
42105W        W 7332  10.402  38.986   1.954
42106W        W 7333   5.265  44.442  14.528
42107W        W 7334  41.226  11.890  10.887
42108W        W 7335  36.304  36.444  14.984
42109W        W 7336  43.829  29.158  10.809
42110W        W 7337  12.068   7.178   4.663
42111W        W 7338  37.213   7.667   2.415
42112W        W 7339   1.832  19.787   9.863
42113W        W 7340  25.553  39.258   2.251
42114W        W 7341  35.770   8.068  11.522
42115W        W 7342  14.881   4.998  11.584
42116W        W 7343  44.817  21.574   3.846
42117W        W 7344  10.788  16.587  13.475
42118W        W 7345   3.808  39.492   0.320
42119W        W 7346  37.213  35.536   1.808
42120W        W 7347  14.654  15.189  13.312
42121W        W 7348  23.190   8.423  14.283
42122W        W 7349  39.391   0.450   2.740
42123W        W 7350  19.785  29.675  11.193
42124W        W 7351  26.829  13.534   3.758
42125W        W 7352  21.565  13.823   0.049
42126W        W 7353  40.831  20.000   4.608
42127W        W 7354  15.211  35.341   1.236
42128W        W 7355  19.780  40.655   0.355
42129W        W 7356   3.893  39.465   3.411
42130W        W 7357  43.277   9.401   1.657
42131W        W 7358   9.317  21.985   3.659
42132W        W 7359  16.224  43.310  12.774
42133W        W 7360  30.139  17.413  11.255
42134W        W 7361  44.022  19.338   4.080
42135W        W 7362  30.859  27.601   0.257
42136W        W 7363  23.199   5.409   3.362
42137W        W 7364  42.860  17.547  11.288
42138W        W 7365  34.802   3.467  13.879
42139W        W 7366   5.841  30.629   0.645
42140W        W 7367   4.855  28.269  14.941
42141W        W 7368  44.911  43.211   4.442
42142W        W 7369  41.350   1.881   1.059
42143W        W 7370   8.740  36.766   2.839
42144W        W 7371  22.997  30.798   4.623
42145W        W 7372  36.390  18.301   0.348
42146W        W 7373  20.726  36.640  13.776
42147W        W 7374  44.318  40.973   4.122
42148W        W 7375   3.218  37.454  13.433
42149W        W 7376  30.061  23.427   1.595
42150W        W 7377  44.993  17.789   3.713
42151W        W 7378  44.549  13.910   1.364
42152W        W 7379  30.265  30.573  14.873
42153W        W 7380  17.768  26.866  13.998
42154W        W 7381  29.241  40.087   2.717
42155W        W 7382  16.683   5.828  14.805
42156W        W 7383  21.527  39.212   4.157
42157W        W 7384   3.450  17.273  10.755
42158W        W 7385  32.758  28.673   1.820
42159W        W 7386  15.566  36.589   1.828
42160W        W 7387   4.258  26.398  14.913
42161W        W 7388  43.498  24.491   4.341
42162W        W 7389  16.037  22.129  14.053
42163W        W 7390   3.208  39.502   0.247
42164W        W 7391   3.683   8.735   1.162
42165W        W 7392  21.525  32.457   2.261
42166W        W 7393  38.076   2.286  14.573
42167W        W 7394  25.725  33.102  13.116
42168W        W 7395  42.282  23.039  14.215
42169W        W 7396   7.861  32.303  12.040
42170W        W 7397  32.068  22.658   0.017
42171W        W 7398  29.623  28.668  13.371
42172W        W 7399  22.666  30.160  12.867
42173W        W 7400   7.017  22.731  13.120
42174W        W 7401  19.554  44.747  14.915
42175W        W 7402  12.625  11.689  14.374
42176W        W 7403  40.288  29.590  13.404
42177W        W 7404   6.256  15.006   0.210
42178W        W 7405  31.561  38.330  12.535
42179W        W 7406  23.730   8.184  13.485
42180W        W 7407  23.266  20.983   2.809
42181W        W 7408  24.033  15.814   2.654
42182W        W 7409   2.979  36.326  11.943
42183W        W 7410  39.088  38.045   3.283
42184W        W 7411  11.460  17.709   4.117
42185W        W 7412  24.146  40.404   1.361
42186W        W 7413   7.903  40.369   3.152
42187W        W 7414   1.799  23.114   2.179
42188W        W 7415  26.781  41.548  11.529
42189W        W 7416   7.636  23.912   1.866
42190W        W 7417   8.002  34.789  11.632
42191W        W 7418  24.394  24.668  14.939
42192W        W 7419  15.102  25.422  14.311
42193W        W 7420   8.661  12.459   2.778
42194W        W 7421  21.550  41.812  10.669
42195W        W 7422   3.191  12.092  10.945
42196W        W 7423   7.196  26.623   3.137
42197W        W 7424  14.301  19.261   1.463
42198W        W 7425  32.867  18.352   2.283
42199W        W 7426  11.419  40.361  12.356
42200W        W 7427   7.958   8.585  14.012
42201W        W 7428   3.517  36.076   0.351
42202W        W 7429  31.840  30.509   1.476
42203W        W 7430  26.919  15.685   1.714
42204W        W 7431  31.231   1.446  11.603
42205W        W 7432   0.473  19.838   2.293
42206W        W 7433  16.556   7.221  11.253
42207W        W 7434   2.721  15.912  11.491
42208W        W 7435  28.530  43.757  12.394
42209W        W 7436  18.183  30.919  11.065
42210W        W 7437   9.199   8.552   2.402
42211W        W 7438  16.304   9.730  13.881
42212W        W 7439  24.182   2.764   4.553
42213W        W 7440  22.216  17.744  11.650
42214W        W 7441  35.740  35.794  10.722
42215W        W 7442   1.371  18.216   0.929
42216W        W 7443  34.975  11.382  14.042
42217W        W 7444  31.574  36.602   2.575
42218W        W 7445   8.338   5.691  11.253
42219W        W 7446   8.365   8.360  10.724
42220W        W 7447   3.800  15.671   4.726
42221W        W 7448   2.425  27.923   2.703
42222W        W 7449   4.558  23.185  10.483
42223W        W 7450   4.786  29.401   1.498
42224W        W 7451  38.150  17.698   2.470
42225W        W 7452  36.522  42.924  11.461
42226W        W 7453   4.849  39.276   3.831
42227W        W 7454  36.734   9.639  12.737
42228W        W 7455   2.058  41.410   4.961
42229W        W 7456   1.155  16.896   2.813
42230W        W 7457   2.940  22.566  10.995
42231W        W 7458   9.922  35.606  12.567
42232W        W 7459  43.896  15.594  14.839
42233W        W 7460  31.526  43.753   3.394
42234W        W 7461  39.134  35.150  14.419
42235W        W 7462   1.007  13.111  10.774
42236W        W 7463  27.680  30.836   3.732
42237W        W 7464  32.940  20.526  12.096
42238W        W 7465  15.607  35.878   4.422
42239W        W 7466  18.951  15.223   2.365
42240W        W 7467   9.321  33.576  14.810
42241W        W 7468  20.273  32.485  12.446
42242W        W 7469  27.574  33.768  14.867
42243W        W 7470  25.453  34.390   4.614
42244W        W 7471  38.752  10.771  13.424
42245W        W 7472  23.242  12.935   4.068
42246W        W 7473  19.672   7.484   0.779
42247W        W 7474  18.642  36.599   1.479
42248W        W 7475  33.320  16.051  13.429
42249W        W 7476   1.046  39.644  11.417
42250W        W 7477  40.424  17.450   4.585
42251W        W 7478  37.024  34.866  11.175
42252W        W 7479   6.974   8.972  10.807
42253W        W 7480   4.224  11.217   4.900
42254W        W 7481  12.632  28.783   4.146
42255W        W 7482  26.923   1.641   0.154
42256W        W 7483   1.041  37.778   0.251
42257W        W 7484  15.094  36.486   2.009
42258W        W 7485  23.090  38.030  12.038
42259W        W 7486  28.698   8.847  13.269
42260W        W 7487   8.643  27.737   4.362
42261W        W 7488  27.695   2.000   4.248
42262W        W 7489  19.737  36.435  10.799
42263W        W 7490  10.409   4.236  11.932
42264W        W 7491   8.668  38.027   1.383
42265W        W 7492  19.825  39.357   4.799
42266W        W 7493   3.899  20.727   0.223
42267W        W 7494  14.602  36.153   4.185
42268W        W 7495  26.288  31.069  14.324
42269W        W 7496  35.580  39.078   1.123
42270W        W 7497  35.992  42.363  14.774
42271W        W 7498  19.261  22.964  10.634
42272W        W 7499  32.348  11.364   0.884
42273W        W 7500  38.338   1.920  11.529
42274W        W 7501  21.498  43.408  11.442
42275W        W 7502  26.743  31.056  11.107
42276W        W 7503  44.574  37.964   0.498
42277W        W 7504  20.315  33.568   0.876
42278W        W 7505  42.867   2.689   0.414
42279W        W 7506   1.964  21.480   0.883
42280W        W 7507  15.722  16.174   3.389
42281W        W 7508  36.030  41.598  12.640
42282W        W 7509  24.365  10.336   0.554
42283W        W 7510  17.636  36.507  14.697
42284W        W 7511  10.803   1.838  12.408
42285W        W 7512  43.415   4.790   4.628
42286W        W 7513  44.580  22.545   1.391
42287W        W 7514  38.371  12.413   0.694
42288W        W 7515  36.861  29.606   3.187
42289W        W 7516  44.060  17.269   2.772
42290W        W 7517  26.520  28.618   4.134
42291W        W 7518   1.217  37.101   4.683
42292W        W 7519  17.732  13.190  11.774
42293W        W 7520  35.677   0.415  13.078
42294W        W 7521  17.552  29.443   1.754
42295W        W 7522  29.788  16.042  11.021
42296W        W 7523  14.381  33.334   4.263
42297W        W 7524  42.477   2.184  11.196
42298W        W 7525   2.958  18.477  12.990
42299W        W 7526  38.571  14.795   0.410
42300W        W 7527  41.003  32.431  11.911
42301W        W 7528   9.974  32.580   3.673
42302W        W 7529  11.800  32.501   0.364
42303W        W 7530  20.056   8.745  11.005
42304W        W 7531  38.926   4.704  12.679
42305W        W 7532   0.997  32.015  14.721
42306W        W 7533  30.468   3.173  13.842
42307W        W 7534   6.208  25.103   1.291
42308W        W 7535   5.752  11.371  12.559
42309W        W 7536  10.905   3.863  12.481
42310W        W 7537  24.196  23.205   1.788
42311W        W 7538  15.792   8.808  11.625
42312W        W 7539   3.302  23.069   0.329
42313W        W 7540  16.152  37.155   0.689
42314W        W 7541  31.894  21.354   3.408
42315W        W 7542  28.404  43.901  12.866
42316W        W 7543  40.911  32.099  14.783
42317W        W 7544   6.283  25.412  12.639
42318W        W 7545  33.859   3.236  14.705
42319W        W 7546  42.026  13.120   0.468
42320W        W 7547  43.364  26.462   2.262
42321W        W 7548   7.379  37.898   0.884
42322W        W 7549   2.763   5.300   4.346
42323W        W 7550   6.267  18.593  13.312
42324W        W 7551  22.182  41.910   0.997
42325W        W 7552   8.142  20.281   0.371
42326W        W 7553  14.463  31.991   0.322
42327W        W 7554  11.874  29.491   2.399
42328W        W 7555  18.061   7.932  11.286
42329W        W 7556  18.789  26.007   2.271
42330W        W 7557  26.302  24.888  14.951
42331W        W 7558  22.029  21.771  14.779
42332W        W 7559  25.071   9.624   1.293
42333W        W 7560  38.332  12.647   3.520
42334W        W 7561   9.361   6.161  13.462
42335W        W 7562  35.298  20.588   1.427
42336W        W 7563  32.051  37.940  14.433
42337W        W 7564  42.449  17.671  11.601
42338W        W 7565  10.378  14.108  14.381
42339W        W 7566  37.929  20.152   2.085
42340W        W 7567   2.996   8.376  12.577
42341W        W 7568  24.304  30.006   4.510
42342W        W 7569  23.672   6.149   1.108
42343W        W 7570  37.439  41.078   4.575
42344W        W 7571  26.943  44.911  12.483
42345W        W 7572  26.662  36.974   0.465
42346W        W 7573  27.545  39.118   1.357
42347W        W 7574  13.789  29.641  11.660
42348W        W 7575  19.236  12.288  14.054
42349W        W 7576  13.314  16.167  14.924
42350W        W 7577  18.807  40.968  10.489
42351W        W 7578  36.123   3.335   3.187
42352W        W 7579  11.221  26.137   3.330
42353W        W 7580   1.985  33.674   1.312
42354W        W 7581   9.919  22.959   3.080
42355W        W 7582   1.673  27.439  14.422
42356W        W 7583  19.280  41.446  10.743
42357W        W 7584  22.539   5.366  13.356
42358W        W 7585  43.460   1.562  10.135
42359W        W 7586  36.552  41.771   4.292
42360W        W 7587  22.546  38.811   3.803
42361W        W 7588   7.379  20.717  10.714
42362W        W 7589   5.727  44.977  11.116
42363W        W 7590  17.789  33.850  13.977
42364W        W 7591  20.103  20.646   1.918
42365W        W 7592   4.350  16.670  11.684
42366W        W 7593   5.107   3.745  11.508
42367W        W 7594  38.079  10.652   4.388
42368W        W 7595  20.587  34.890  14.550
42369W        W 7596  36.619  38.606  13.359
42370W        W 7597  11.113   5.890   3.853
42371W        W 7598  34.372   3.199   2.338
42372W        W 7599   5.756  30.138   0.821
42373W        W 7600  18.591  21.960   3.872
42374W        W 7601  27.114   9.270   0.430
42375W        W 7602  41.726  20.992   2.791
42376W        W 7603   9.835  35.855  11.561
42377W        W 7604  22.852  40.498   0.808
42378W        W 7605  36.942   1.349   3.957
42379W        W 7606  32.937  15.264   3.109
42380W        W 7607  28.824  13.074   1.730
42381W        W 7608  15.754  38.923   4.532
42382W        W 7609  37.451   2.494   3.870
42383W        W 7610  37.896  17.651   3.830
42384W        W 7611  26.539  36.592  11.601
42385W        W 7612  19.622  42.069   0.309
42386W        W 7613  11.377   1.006  14.432
42387W        W 7614  15.112  14.800   0.414
42388W        W 7615  30.099   7.500   3.415
42389W        W 7616  28.559  19.813  11.238
42390W        W 7617  32.027  37.577   1.924
42391W        W 7618   9.732  33.410   1.680
42392W        W 7619  14.248   9.488   1.071
42393W        W 7620  32.802  29.653   2.866
42394W        W 7621  26.513  37.023  12.684
42395W        W 7622  21.983  25.580  13.898
42396W        W 7623  37.551  30.929   0.415
42397W        W 7624  44.309  34.703   0.856
42398W        W 7625   8.393  18.585  11.809
42399W        W 7626  29.581   8.859  10.408
42400W        W 7627   8.819  41.545   4.332
42401W        W 7628  36.825  17.586  11.129
42402W        W 7629  43.252  12.657  14.171
42403W        W 7630  20.445  24.910   4.677
42404W        W 7631  17.814  42.986  11.145
42405W        W 7632  21.687  27.901   1.602
42406W        W 7633  14.776   3.720  14.542
42407W        W 7634  24.134   6.439   1.398
42408W        W 7635  24.059  24.210  12.544
42409W        W 7636  18.169  21.688  12.942
42410W        W 7637  36.566  23.957  12.012
42411W        W 7638  37.636   1.516  14.779
42412W        W 7639  22.822   1.929  12.436
42413W        W 7640   9.142  39.906  13.919
42414W        W 7641  25.306   8.909  11.976
42415W        W 7642  43.265  10.434  13.725
42416W        W 7643  40.502   4.378   1.337
42417W        W 7644   1.423   7.773  14.004
42418W        W 7645   6.411   0.769  13.533
42419W        W 7646  11.884  38.373   2.196
42420W        W 7647  10.333  19.610  10.944
42421W        W 7648   0.527  33.529  14.457
42422W        W 7649  32.854  28.273   1.101
42423W        W 7650  42.374  34.331   3.830
42424W        W 7651   2.663  30.180   9.790
42425W        W 7652   4.209  30.927  12.624
42426W        W 7653  10.674  23.922  12.051
42427W        W 7654  22.028   7.159   0.360
42428W        W 7655   3.791  34.911  10.526
42429W        W 7656  27.025  18.744  13.588
42430W        W 7657   2.417  29.524  14.685
42431W        W 7658   4.749  14.611   2.796
42432W        W 7659  32.642  11.094   3.317
42433W        W 7660   7.790  41.878   1.464
42434W        W 7661  22.662   0.099  11.502
42435W        W 7662  12.022  18.245   3.650
42436W        W 7663  39.637   4.247  13.054
42437W        W 7664  42.907  17.231  13.472
42438W        W 7665   5.276  34.753   3.897
42439W        W 7666  21.073  22.125  13.766
42440W        W 7667  36.868  16.836  11.468
42441W        W 7668  24.651  28.930  12.337
42442W        W 7669  26.175  33.378  13.088
42443W        W 7670  29.474   1.909  13.016
42444W        W 7671  21.485  12.440  12.542
42445W        W 7672  33.760  31.028  11.108
42446W        W 7673  12.377  33.543   5.459
42447W        W 7674  12.359  20.630   3.228
42448W        W 7675   0.002   7.919  11.950
42449W        W 7676  14.890  41.579   3.230
42450W        W 7677  43.624   4.906   4.148
42451W        W 7678  14.591  16.818   3.189
42452W        W 7679  40.594  27.578  11.539
42453W        W 7680   3.229  35.420   2.661
42454W        W 7681  44.039  16.733  13.044
42455W        W 7682   8.613  15.779   2.598
42456W        W 7683   5.022   0.814  14.916
42457W        W 7684  44.505   8.726  12.936
42458W        W 7685  35.203  17.185  14.731
42459W        W 7686  20.604   9.303  14.082
42460W        W 7687  41.836  44.975   3.329
42461W        W 7688  42.728  31.908   3.618
42462W        W 7689  30.552  16.235  11.514
42463W        W 7690  18.013  41.372  12.404
42464W        W 7691  13.307   2.265   3.335
42465W        W 7692  36.147  14.897  12.124
42466W        W 7693   7.673  34.352  14.812
42467W        W 7694  19.199  20.016  12.787
42468W        W 7695   4.949   3.892   4.194
42469W        W 7696  28.647   0.164   1.273
42470W        W 7697  40.557  14.529  14.551
42471W        W 7698   1.157  28.683   0.774
42472W        W 7699  39.666   5.828   3.367
42473W        W 7700  33.625  21.749   4.689
42474W        W 7701  12.710  25.887  14.910
42475W        W 7702  15.206  13.104  13.418
42476W        W 7703  29.152  30.813  10.837
42477W        W 7704  34.948  10.675  11.586
42478W        W 7705  18.696  19.022   0.404
42479W        W 7706  40.790  30.928   4.040
42480W        W 7707   8.530  23.181  14.540
42481W        W 7708  35.585  21.170   3.321
42482W        W 7709   0.597  43.808  14.324
42483W        W 7710  38.472  23.469   3.671
42484W        W 7711  42.537  28.514   0.857
42485W        W 7712  15.245   5.255   2.931
42486W        W 7713   8.892  31.334   4.879
42487W        W 7714   2.975  11.319  12.831
42488W        W 7715  38.493  39.555   4.571
42489W        W 7716  12.063  11.863  11.941
42490W        W 7717   1.461  27.161   0.536
42491W        W 7718  29.333  30.570   3.998
42492W        W 7719  35.665  12.694   1.715
42493W        W 7720  14.535  44.195  10.455
42494W        W 7721  31.935  19.699   0.375
42495W        W 7722  17.466  43.950  13.149
42496W        W 7723  17.686  24.536   2.166
42497W        W 7724  14.684  38.407  12.879
42498W        W 7725  19.859   8.893   1.821
42499W        W 7726   9.538  33.486   9.745
42500W        W 7727   5.944  29.892   4.916
42501W        W 7728  14.647  12.258  14.761
42502W        W 7729   4.900  17.218   2.609
42503W        W 7730   7.544  29.567   2.915
42504W        W 7731  15.372   7.436   1.341
42505W        W 7732   4.763  19.325   3.336
42506W        W 7733   1.250  37.057   3.373
42507W        W 7734   0.718  22.469  11.091
42508W        W 7735   0.734  32.100   1.701
42509W        W 7736  15.522  22.259  13.381
42510W        W 7737  20.175  29.131  10.546
42511W        W 7738  39.865  26.995   2.310
42512W        W 7739  28.883  19.120  12.625
42513W        W 7740  33.072  33.847   2.529
42514W        W 7741  28.476  29.472   0.529
42515W        W 7742   2.313  36.841   1.989
42516W        W 7743  12.126   3.997  13.800
42517W        W 7744   9.883   7.327   4.819
42518W        W 7745  25.005   8.967  14.939
42519W        W 7746  10.599  40.334   2.605
42520W        W 7747  25.581   4.881  11.017
42521W        W 7748  18.077  38.801  14.512
42522W        W 7749  10.667  43.410   2.614
42523W        W 7750  39.414  22.046   0.793
42524W        W 7751  28.865   0.644   4.217
42525W        W 7752  17.955  16.851   1.020
42526W        W 7753   9.975  38.335  10.591
42527W        W 7754  30.086  24.906   0.420
42528W        W 7755   2.280  41.900  13.916
42529W        W 7756  42.306  16.374  11.238
42530W        W 7757  25.087   7.423   2.938
42531W        W 7758  27.787  27.589   4.738
42532W        W 7759  17.605  16.978  10.557
42533W        W 7760   7.533  26.581  14.656
42534W        W 7761  24.998  35.125   2.853
42535W        W 7762  41.373   2.376   3.909
42536W        W 7763   1.988  41.848  10.631
42537W        W 7764  18.296  22.371   2.785
42538W        W 7765  23.901  25.034  13.455
42539W        W 7766  18.631   1.444  12.018
42540W        W 7767  44.766  44.595   4.785
42541W        W 7768   8.415  25.059   4.324
42542W        W 7769  37.048  19.736   0.714
42543W        W 7770   9.082  17.786   1.227
42544W        W 7771   7.498  43.857   4.913
42545W        W 7772  33.891  20.725  11.374
42546W        W 7773  27.015   7.572  14.071
42547W        W 7774   1.942  28.142   2.221
42548W        W 7775  17.372  19.506  13.228
42549W        W 7776  36.274   2.727   4.626
42550W        W 7777   4.896   7.836  14.725
42551W        W 7778  44.470   4.887  11.002
42552W        W 7779  35.366   7.066   1.831
42553W        W 7780   7.802  11.111   0.887
42554W        W 7781  41.820  29.873   0.476
42555W        W 7782   1.667   8.939  13.425
42556W        W 7783  38.577  24.205  14.811
42557W        W 7784  39.503  43.898  12.641
42558W        W 7785  20.953   3.654   1.460
42559W        W 7786  13.356  17.755   1.955
42560W        W 7787  42.534  16.852  13.794
42561W        W 7788  16.632  11.661  13.651
42562W        W 7789  14.943  11.402  14.984
42563W        W 7790  29.998   4.150   3.786
42564W        W 7791  20.023  22.167   3.664
42565W        W 7792  21.165  30.634  10.634
42566W        W 7793  14.189  37.069   1.837
42567W        W 7794   8.382  23.977  12.036
42568W        W 7795  17.321  33.833   4.859
42569W        W 7796  20.048  22.214  12.539
42570W        W 7797  44.922  19.528   2.118
42571W        W 7798  19.834  22.744  14.876
42572W        W 7799  33.053  31.997  12.733
42573W        W 7800  20.676  44.562   0.035
42574W        W 7801  20.055  11.744   1.777
42575W        W 7802  14.578  26.706  12.457
42576W        W 7803   5.683  19.112   3.160
42577W        W 7804  31.991  23.335  14.128
42578W        W 7805  36.404  39.113  11.768
42579W        W 7806  22.949  42.910  13.101
42580W        W 7807  18.633  23.335   4.419
42581W        W 7808  17.477  32.055   3.396
42582W        W 7809  30.715  36.428   3.354
42583W        W 7810  31.812  43.858   0.456
42584W        W 7811   4.183   8.690   1.219
42585W        W 7812  41.777  11.389   2.397
42586W        W 7813   5.946  27.667   0.152
42587W        W 7814  36.560  21.173   1.452
42588W        W 7815  21.656  39.074  13.336
42589W        W 7816   9.745  31.548  13.187
42590W        W 7817  43.253   0.217   0.022
42591W        W 7818   2.138  40.846  12.091
42592W        W 7819   4.701  35.435  10.657
42593W        W 7820   8.937  40.073  13.110
42594W        W 7821  35.527  15.792  10.824
42595W        W 7822   4.293  27.885  13.247
42596W        W 7823  19.618  43.364  11.948
42597W        W 7824  44.116  23.991  11.542
42598W        W 7825   8.754  12.840   4.810
42599W        W 7826   8.262  30.477  11.024
42600W        W 7827  34.682  25.510  14.375
42601W        W 7828  36.883  29.886   4.911
42602W        W 7829  15.464  15.135  10.713
42603W        W 7830  19.220  29.388   3.364
42604W        W 7831   2.181   2.933   3.212
42605W        W 7832  25.778  15.094  10.597
42606W        W 7833  17.718   2.870   0.165
42607W        W 7834  17.124  44.700   3.641
42608W        W 7835   7.683  16.791   0.911
42609W        W 7836  17.624   0.444  11.252
42610W        W 7837  12.840  26.670  14.392
42611W        W 7838  23.079  21.036   4.572
42612W        W 7839  18.289   9.738   2.606
42613W        W 7840  29.589  25.981   2.764
42614W        W 7841  18.138  38.994  10.636
42615W        W 7842  28.660   5.757   1.971
42616W        W 7843  14.675   4.931  13.832
42617W        W 7844   5.841  43.005  10.982
42618W        W 7845  12.777  23.109   4.597
42619W        W 7846  18.748   0.052   0.704
42620W        W 7847  27.155  42.390   3.964
42621W        W 7848   7.905  32.676   4.678
42622W        W 7849  22.653  16.143  11.266
42623W        W 7850  14.552  33.412   1.858
42624W        W 7851  29.328   2.533  11.023
42625W        W 7852  24.186  18.716  11.956
42626W        W 7853   8.762  33.977   4.563
42627W        W 7854  14.805  32.578   2.329
42628W        W 7855  27.873  17.568  13.420
42629W        W 7856  12.628  15.576  14.342
42630W        W 7857  42.467  31.555  14.059
42631W        W 7858  26.214  38.331  12.008
42632W        W 7859  24.460  27.550  12.516
42633W        W 7860   6.126  16.520   0.303
42634W        W 7861  28.477   0.199  12.806
42635W        W 7862  20.513  13.095  14.784
42636W        W 7863  44.529  37.800   1.808
42637W        W 7864  29.033  41.209  11.491
42638W        W 7865  22.164  38.315  10.749
42639W        W 7866  14.317  13.895   4.228
42640W        W 7867  14.728  26.086  14.280
42641W        W 7868  15.833  41.544  11.751
42642W        W 7869  10.127  33.808  14.283
42643W        W 7870  32.168  19.605   0.829
42644W        W 7871  25.345  15.639   2.384
42645W        W 7872  43.305  18.896  12.481
42646W        W 7873  41.195  16.623  14.265
42647W        W 7874  12.181   5.401  12.612
42648W        W 7875  26.449  28.419   1.762
42649W        W 7876  28.906  23.075  11.566
42650W        W 7877  37.347  22.481  10.719
42651W        W 7878   3.796  26.911  14.368
42652W        W 7879  26.248  27.789   3.697
42653W        W 7880   0.023  13.274  10.827
42654W        W 7881  12.606  15.400   1.901
42655W        W 7882  15.111  20.165   0.515
42656W        W 7883   1.773  42.028  13.895
42657W        W 7884  40.826  24.046  10.962
42658W        W 7885  18.796   2.673   0.631
42659W        W 7886  16.986  28.706  12.890
42660W        W 7887   2.572   9.258  14.069
42661W        W 7888  30.509  44.057   3.165
42662W        W 7889  40.264  39.768   4.649
42663W        W 7890  37.584  40.318   0.208
42664W        W 7891  34.375  24.574  10.715
42665W        W 7892  34.150  41.989  12.981
42666W        W 7893  27.618  26.451  10.707
42667W        W 7894  18.414  18.842   5.060
42668W        W 7895   3.429   0.864   1.628
42669W        W 7896  28.915  27.885   1.278
42670W        W 7897  21.811  23.745   3.560
42671W        W 7898  25.884  10.649  12.903
42672W        W 7899  39.980  14.030   3.677
42673W        W 7900  33.005  30.526   2.321
42674W        W 7901  17.316   6.306  14.537
42675W        W 7902  27.437   9.355  14.427
42676W        W 7903  25.730   2.003   3.792
42677W        W 7904  29.787   3.371   4.426
42678W        W 7905  34.480  25.484  12.727
42679W        W 7906  15.534  13.678  11.170
42680W        W 7907  42.803   7.771  13.259
42681W        W 7908  13.080   7.367   3.491
42682W        W 7909   0.266  25.598   3.362
42683W        W 7910   3.706  31.073   3.144
42684W        W 7911   9.648  35.408  14.945
42685W        W 7912  38.855  27.888  11.020
42686W        W 7913   3.970  26.536   1.269
42687W        W 7914  20.740  22.567   4.717
42688W        W 7915  15.786  27.985   0.168
42689W        W 7916  18.594  23.954  12.965
42690W        W 7917  29.030   0.177  12.548
42691W        W 7918  38.397  21.608  14.670
42692W        W 7919  33.327  43.877   3.153
42693W        W 7920  15.833  41.852  14.460
42694W        W 7921  40.029   3.920   0.935
42695W        W 7922  10.852   4.142  13.537
42696W        W 7923   8.414   3.446  13.575
42697W        W 7924  19.374   0.411   1.514
42698W        W 7925  28.377   2.367   4.106
42699W        W 7926   9.134   5.812   0.231
42700W        W 7927   4.558  36.521  10.782
42701W        W 7928   9.010  21.838  12.421
42702W        W 7929  29.978  36.115   2.202
42703W        W 7930  28.156  23.305   1.722
42704W        W 7931   0.965  38.025   4.077
42705W        W 7932  14.750  34.141   0.355
42706W        W 7933  41.110  19.471  12.449
42707W        W 7934  13.654  17.049  10.969
42708W        W 7935  28.840  15.061   3.240
42709W        W 7936  24.003  20.014   1.186
42710W        W 7937  20.608  44.369   3.166
42711W        W 7938  23.028   7.713   4.595
42712W        W 7939  15.346  21.906  12.406
42713W        W 7940  14.622  43.358  12.134
42714W        W 7941  25.112   4.377  14.909
42715W        W 7942   4.542  14.251  11.140
42716W        W 7943  13.532  21.164  11.134
42717W        W 7944  44.761  36.970  11.071
42718W        W 7945  26.771  20.387  13.508
42719W        W 7946   9.158   3.465   0.857
42720W        W 7947   1.403  36.500   0.383
42721W        W 7948  32.682  44.026  12.792
42722W        W 7949  30.651   1.933  12.480
42723W        W 7950   5.787  34.894   2.874
42724W        W 7951  15.769   2.690   1.088
42725W        W 7952  44.846  29.138   0.823
42726W        W 7953  24.252  24.686  12.697
42727W        W 7954  31.585  38.839   2.788
42728W        W 7955  20.533  18.780  13.415
42729W        W 7956  44.114   0.448   3.270
42730W        W 7957  41.097  10.268   0.809
42731W        W 7958  23.940   0.583  12.075
42732W        W 7959  14.190   1.181   2.298
42733W        W 7960  10.300   1.638   1.203
42734W        W 7961  31.396  35.885   3.673
42735W        W 7962  38.002   9.680  13.543
42736W        W 7963  18.153  29.619  14.435
42737W        W 7964  44.966  18.631  14.899
42738W        W 7965   5.854  35.328   3.144
42739W        W 7966   0.250  26.454  14.469
42740W        W 7967  22.695   5.728   4.686
42741W        W 7968  27.461  42.416   0.965
42742W        W 7969  43.818  19.153   1.881
42743W        W 7970  34.827  27.722  13.339
42744W        W 7971  24.967  18.151   1.648
42745W        W 7972  36.279  19.688   4.666
42746W        W 7973  36.291  26.928   3.688
42747W        W 7974   3.895   8.238   2.876
42748W        W 7975  40.967  31.718  14.429
42749W        W 7976   1.285  38.074   1.192
42750W        W 7977  16.722  17.562   0.730
42751W        W 7978  32.498  25.677   0.526
42752W        W 7979   1.773  17.984   0.708
42753W        W 7980   1.825  29.181   2.416
42754W        W 7981  27.051  34.113  13.572
42755W        W 7982  18.346  26.950   2.412
42756W        W 7983  32.394  15.588   4.121
42757W        W 7984   0.406   8.457  13.345
42758W        W 7985  17.351  39.947   9.641
42759W        W 7986   1.634  33.666   2.126
42760W        W 7987  27.896   9.532   3.016
42761W        W 7988  11.693  28.683   4.488
42762W        W 7989  26.562  40.574   2.779
42763W        W 7990  37.615  41.790  12.756
42764W        W 7991  21.994  11.459   2.460
42765W        W 7992  21.839  28.525  14.453
42766W        W 7993  17.190  37.816  14.283
42767W        W 7994  25.437  38.554  14.869
42768W        W 7995  26.366   9.510   1.576
42769W        W 7996  27.111   2.363   4.553
42770W        W 7997  33.523  23.619   1.945
42771W        W 7998  23.742   3.823  11.581
42772W        W 7999  35.100  20.522   4.752
42773W        W 8000   0.751   3.894   3.724
42774W        W 8001   7.227  44.906  14.386
42775W        W 8002  14.790  15.168  13.815
42776W        W 8003  15.818   9.076  12.064
42777W        W 8004  24.811  43.801   2.384
42778W        W 8005  41.548  21.180  12.403
42779W        W 8006  35.119   3.867  13.968
42780W        W 8007  38.488  31.623   1.048
42781W        W 8008  21.907  43.384  11.129
42782W        W 8009   2.215   9.843  10.703
42783W        W 8010  10.388   6.802   0.247
42784W        W 8011  35.667  13.796  11.695
42785W        W 8012  25.627  12.827  14.954
42786W        W 8013  31.064  17.999   9.504
42787W        W 8014  23.171  39.770  13.351
42788W        W 8015  29.647   6.582  11.937
42789W        W 8016  20.522  41.829  13.239
42790W        W 8017  43.404  29.053  13.838
42791W        W 8018   8.629   6.683  14.750
42792W        W 8019  42.479  25.165   3.754
42793W        W 8020  43.314  27.120   1.749
42794W        W 8021  42.051  43.400   3.687
42795W        W 8022  12.611  25.959   4.242
42796W        W 8023  33.138  37.124   2.603
42797W        W 8024   3.320  16.229  14.515
42798W        W 8025  34.294  24.583  14.279
42799W        W 8026  34.842  40.275   0.358
42800W        W 8027  32.394  35.738   5.144
42801W        W 8028  24.115   5.560   0.377
42802W        W 8029  36.084  25.574   0.532
42803W        W 8030  39.396  37.203   2.102
42804W        W 8031   9.204  44.150  12.883
42805W        W 8032  36.605  15.495   4.623
42806W        W 8033  34.270  26.426   1.089
42807W        W 8034  34.187  24.442   0.850
42808W        W 8035   4.038  42.241   1.446
42809W        W 8036  42.924  40.362   2.525
42810W        W 8037  22.647   0.743  14.822
42811W        W 8038  31.148  12.745   2.298
42812W        W 8039  26.464  28.106   2.243
42813W        W 8040  27.814  34.959   1.509
42814W        W 8041  18.312  35.019   2.232
42815W        W 8042   8.646  20.271   0.463
42816W        W 8043  15.643  44.548  10.001
42817W        W 8044  30.000  11.822  10.634
42818W        W 8045  27.727  18.101   0.991
42819W        W 8046  22.950  30.511   1.568
42820W        W 8047  27.182   8.954   2.507
42821W        W 8048   3.347  38.458  14.343
42822W        W 8049  19.498  37.608  13.419
42823W        W 8050  13.196  18.001  12.608
42824W        W 8051  11.036  13.582   0.348
42825W        W 8052   6.296  11.128   2.982
42826W        W 8053  21.961  26.669   1.853
42827W        W 8054   9.672  17.498  14.561
42828W        W 8055  39.921  27.943   1.361
42829W        W 8056  35.922  32.314   1.277
42830W        W 8057   5.871  17.507   2.813
42831W        W 8058  38.369  15.171   2.799
42832W        W 8059  30.572   3.410   1.773
42833W        W 8060  34.473   8.827   0.890
42834W        W 8061  24.819  33.513  13.339
42835W        W 8062  24.728  11.403  13.420
42836W        W 8063  37.870  19.351  11.069
42837W        W 8064  14.423  38.904  14.323
42838W        W 8065  41.069  26.228   0.801
42839W        W 8066  26.201   6.148  11.374
42840W        W 8067  22.316  18.774   2.435
42841W        W 8068  27.479  44.591   3.176
42842W        W 8069   6.382  23.706   1.504
42843W        W 8070  27.031  17.023  13.728
42844W        W 8071  44.043  39.765   1.433
42845W        W 8072   1.511  39.521   0.798
42846W        W 8073  40.913  30.094  10.449
42847W        W 8074   4.413  11.189   2.746
42848W        W 8075  31.496  15.576  13.439
42849W        W 8076  15.063  13.594  13.349
42850W        W 8077   7.902   1.319   0.737
42851W        W 8078  13.012  38.482   4.343
42852W        W 8079  43.351  22.558  13.066
42853W        W 8080  23.746  24.548  13.509
42854W        W 8081   1.707  37.545  12.368
42855W        W 8082  13.053  18.483   0.538
42856W        W 8083  27.016  20.344  13.032
42857W        W 8084  39.951   8.460  10.571
42858W        W 8085  32.016  20.167   2.293
42859W        W 8086  33.503  38.659  12.938
42860W        W 8087   4.301  10.215  10.550
42861W        W 8088   0.341  26.032  14.843
42862W        W 8089  34.828  31.587  12.917
42863W        W 8090  21.386  39.310   3.604
42864W        W 8091   3.691   4.620   0.081
42865W        W 8092  16.505   3.451  13.590
42866W        W 8093  39.557   2.320   3.061
42867W        W 8094  44.997  13.721  13.455
42868W        W 8095  33.348  38.049  11.263
42869W        W 8096  43.480  22.476  10.685
42870W        W 8097  41.886  36.521   2.343
42871W        W 8098  15.754  29.536   3.292
42872W        W 8099  19.974  27.202   4.150
42873W        W 8100  32.567  33.856  14.047
42874W        W 8101  43.832  37.395  14.976
42875W        W 8102  32.611  30.707  11.086
42876W        W 8103   5.768  23.621   4.721
42877W        W 8104  16.792   6.304   1.929
42878W        W 8105  17.540  11.144  12.508
42879W        W 8106  18.079  12.770  11.246
42880W        W 8107  12.654   4.000   0.408
42881W        W 8108  20.631  39.554  13.006
42882W        W 8109  24.089  32.799   1.876
42883W        W 8110  18.563  29.917  12.949
42884W        W 8111  10.238   4.270   0.264
42885W        W 8112  25.047  38.451  10.731
42886W        W 8113  21.291   3.647  11.504
42887W        W 8114  33.856  27.949  12.905
42888W        W 8115   3.234  16.601   1.471
42889W        W 8116   0.180  20.857  13.073
42890W        W 8117  33.040  41.467  13.505
42891W        W 8118  38.440   5.229   1.502
42892W        W 8119  27.267   2.276  10.144
42893W        W 8120   1.264   2.498  12.816
42894W        W 8121  22.120  13.730   2.170
42895W        W 8122  37.784  41.422  14.888
42896W        W 8123  14.837  39.137  14.132
42897W        W 8124  17.511  41.125   3.594
42898W        W 8125  37.668  10.274  12.222
42899W        W 8126  39.676   7.437   0.871
42900W        W 8127  11.337  43.611   0.930
42901W        W 8128  40.453   2.819   4.022
42902W        W 8129  29.579   6.779   1.804
42903W        W 8130   5.356  35.298   4.667
42904W        W 8131   0.945  12.396   0.245
42905W        W 8132  34.740  32.715   4.608
42906W        W 8133   4.772  24.172  14.432
42907W        W 8134  29.552  10.864  12.198
42908W        W 8135   1.519  23.619   3.228
42909W        W 8136   4.476  14.484   3.215
42910W        W 8137  10.293  21.337   1.868
42911W        W 8138  37.747  44.515  12.502
42912W        W 8139  11.811   8.251  10.225
42913W        W 8140  19.770  22.134  13.825
42914W        W 8141  36.770  22.265   3.978
42915W        W 8142  28.937  35.028  11.127
42916W        W 8143   5.427   3.484   1.461
42917W        W 8144   9.403  22.984   3.953
42918W        W 8145  41.729  25.691  12.057
42919W        W 8146  12.239  31.575   3.172
42920W        W 8147  24.244   7.190   4.613
42921W        W 8148  36.996  33.461   3.623
42922W        W 8149  27.259   4.955   2.685
42923W        W 8150  30.227  10.792   1.674
42924W        W 8151  40.026  34.269   3.266
42925W        W 8152  29.374   6.806  13.689
42926W        W 8153   1.947  21.430   3.319
42927W        W 8154  21.832   2.476   2.409
42928W        W 8155  37.092  41.000  11.981
42929W        W 8156  43.783   5.860   1.348
42930W        W 8157   4.675  19.667  11.867
42931W        W 8158  37.896  41.614   5.370
42932W        W 8159  22.277  10.021  14.320
42933W        W 8160   2.339   7.278   1.811
42934W        W 8161  35.170  31.989   4.501
42935W        W 8162   5.317   9.930  13.985
42936W        W 8163  13.999  14.817   2.704
42937W        W 8164  22.946  37.040  13.784
42938W        W 8165   3.442  34.713  11.365
42939W        W 8166  18.999  14.774  11.307
42940W        W 8167  35.759  31.425   2.367
42941W        W 8168  19.577  11.672   1.206
42942W        W 8169  19.690  34.788   0.968
42943W        W 8170  36.936  27.364   1.221
42944W        W 8171  10.707   9.265   4.455
42945W        W 8172  28.595  37.783   2.946
42946W        W 8173  20.077  14.112  10.852
42947W        W 8174  29.377  42.298  13.161
42948W        W 8175  33.856  37.984  13.339
42949W        W 8176  38.072  13.162   1.408
42950W        W 8177   3.343  39.897  11.483
42951W        W 8178   6.089  27.147   0.987
42952W        W 8179  19.029  25.077   3.295
42953W        W 8180  17.188   4.819   2.611
42954W        W 8181  14.197  13.110   3.743
42955W        W 8182   2.374   3.760  14.228
42956W        W 8183  13.510   6.186   0.280
42957W        W 8184   3.216  22.069  10.082
42958W        W 8185   7.760  41.033   0.279
42959W        W 8186  34.383  19.420   0.542
42960W        W 8187  13.852  30.231  12.962
42961W        W 8188  13.712  35.524   1.398
42962W        W 8189   7.723  42.816   4.640
42963W        W 8190   4.844  37.853  11.649
42964W        W 8191  16.635  40.391   1.714
42965W        W 8192   8.953  32.397  10.012
42966W        W 8193  20.802   7.172   1.073
42967W        W 8194   6.408  41.547  10.396
42968W        W 8195  44.025  29.923   4.737
42969W        W 8196  16.404  34.365   2.070
42970W        W 8197   0.377  34.363  14.441
42971W        W 8198  17.033  15.977  11.223
42972W        W 8199  34.039  27.099  14.043
42973W        W 8200   8.164  19.524   1.308
42974W        W 8201  34.008  18.429   4.180
42975W        W 8202  43.769  11.851   1.429
42976W        W 8203  18.496  44.380  12.036
42977W        W 8204  38.025  13.673   3.191
42978W        W 8205  38.510  29.534  11.697
42979W        W 8206   3.439  18.775  14.459
42980W        W 8207  42.344  39.908  11.720
42981W        W 8208   5.385  22.158   2.273
42982W        W 8209  27.187   9.231  12.236
42983W        W 8210  42.106  41.063  14.911
42984W        W 8211  13.311  26.879   3.881
42985W        W 8212  41.270  28.084   0.761
42986W        W 8213  35.351  19.629   1.943
42987W        W 8214  22.042  31.955   1.947
42988W        W 8215  41.358  30.692   1.274
42989W        W 8216   2.380   7.303   2.747
42990W        W 8217  32.531   1.819  14.421
42991W        W 8218  11.636   0.999   0.062
42992W        W 8219   6.267  23.408  12.849
42993W        W 8220  14.117  11.545  14.763
42994W        W 8221  43.313   6.339   0.489
42995W        W 8222  41.946  10.639   3.570
42996W        W 8223  13.777   6.021  12.686
42997W        W 8224  13.200  19.677  13.347
42998W        W 8225  29.636   1.651   3.155
42999W        W 8226  38.637  44.790   4.194
43000W        W 8227  31.126  28.978  14.844
43001W        W 8228  31.731  29.197   3.537
43002W        W 8229   7.392  41.951   3.279
43003W        W 8230  28.613  18.085   3.172
43004W        W 8231  38.194  20.873  12.089
43005W        W 8232  11.375  18.040  12.949
43006W        W 8233  29.419  11.135   1.639
43007W        W 8234  23.469  18.171   0.860
43008W        W 8235  25.245  40.511  14.751
43009W        W 8236  16.204  34.264  10.960
43010W        W 8237  25.936  16.065  12.437
43011W        W 8238  38.980  17.088  12.538
43012W        W 8239  25.594  40.997   3.923
43013W        W 8240  44.288   4.688  13.703
43014W        W 8241  12.211  41.959  12.921
43015W        W 8242  13.628  29.076   3.174
43016W        W 8243   0.853  16.225   4.774
43017W        W 8244   1.986  33.153   1.343
43018W        W 8245  22.578  44.246   4.708
43019W        W 8246  22.436   4.844  12.074
43020W        W 8247  12.524  18.282  10.974
43021W        W 8248   0.042   6.795   0.333
43022W        W 8249  31.940   7.143  12.460
43023W        W 8250  21.148   0.988   4.442
43024W        W 8251  41.162   5.204  13.723
43025W        W 8252  17.674   6.730  14.553
43026W        W 8253  41.934   9.056  10.359
43027W        W 8254  19.264  20.344   3.799
43028W        W 8255   1.206  38.374  13.150
43029W        W 8256  16.201   5.601   1.854
43030W        W 8257  35.540  28.955   2.152
43031W        W 8258  25.871  31.417   4.672
43032W        W 8259  25.812   3.616   2.932
43033W        W 8260  12.559  28.954   1.620
43034W        W 8261  17.044  13.713  11.351
43035W        W 8262  26.426  12.832  14.483
43036W        W 8263   9.839  25.720   1.221
43037W        W 8264  40.259  10.973   3.230
43038W        W 8265  40.847  12.878  12.835
43039W        W 8266  12.393  23.297   4.085
43040W        W 8267  18.803   9.615   2.675
43041W        W 8268  38.960  27.482   0.628
43042W        W 8269  33.958  11.592   1.207
43043W        W 8270  31.477   4.465   3.605
43044W        W 8271   7.883  38.340   4.625
43045W        W 8272  35.430  43.264  11.523
43046W        W 8273   9.214   9.697  10.632
43047W        W 8274  20.947  34.927  12.809
43048W        W 8275  22.122  21.558  10.890
43049W        W 8276  29.859   8.428   2.327
43050W        W 8277  24.163   8.773  11.515
43051W        W 8278  24.699  33.295   3.672
43052W        W 8279  28.086  10.671  14.864
43053W        W 8280  15.055  21.823   0.719
43054W        W 8281  32.803  27.647   2.015
43055W        W 8282  24.447  25.009  11.268
43056W        W 8283  14.119  22.453  14.342
43057W        W 8284   7.742   1.813  13.839
43058W        W 8285  32.357   6.661  13.298
43059W        W 8286   3.861   8.826  11.137
43060W        W 8287  11.506  27.095   0.955
43061W        W 8288  18.820  33.862   1.111
43062W        W 8289  28.050  39.219   1.508
43063W        W 8290  14.864   1.800  14.506
43064W        W 8291  25.568  28.540  10.699
43065W        W 8292   0.540  22.032  12.024
43066W        W 8293  10.155   4.656   0.641
43067W        W 8294   5.822   0.528  11.126
43068W        W 8295  30.168  35.280  13.035
43069W        W 8296  11.212  22.844   3.998
43070W        W 8297  17.367  44.813   4.499
43071W        W 8298  13.703  12.287  13.609
43072W        W 8299  22.947  12.281  12.689
43073W        W 8300  15.625  36.283   1.434
43074W        W 8301  25.141  15.249   2.036
43075W        W 8302  13.295  42.737  12.004
43076W        W 8303  34.932  32.950   3.816
43077W        W 8304  13.566  12.100   0.136
43078W        W 8305  18.666  12.686  14.036
43079W        W 8306  14.838  24.506   2.811
43080W        W 8307  15.658   4.844   0.472
43081W        W 8308  15.583  12.359   1.315
43082W        W 8309  20.453  32.361  13.804
43083W        W 8310  33.797  33.247  13.217
43084W        W 8311  14.994   1.081   2.186
43085W        W 8312  37.076  20.781  14.428
43086W        W 8313  18.808   2.231   1.238
43087W        W 8314  33.526  13.064  13.086
43088W        W 8315  14.563  19.550   5.168
43089W        W 8316  43.834   1.928   4.038
43090W        W 8317   2.026  25.513  13.084
43091W        W 8318  18.484  19.145  14.375
43092W        W 8319  43.655  18.045   4.095
43093W        W 8320  33.801   4.857   2.402
43094W        W 8321  19.090   3.874  14.333
43095W        W 8322   5.669   3.915   1.302
43096W        W 8323  43.225  44.727   4.105
43097W        W 8324  36.117   8.379   0.191
43098W        W 8325   8.363  15.639   3.023
43099W        W 8326   7.281  34.510   1.507
43100W        W 8327  25.526  27.021  11.164
43101W        W 8328  14.934  30.041  12.020
43102W        W 8329  29.707  17.256   0.268
43103W        W 8330  20.025  14.765  12.929
43104W        W 8331  13.409  22.423   5.157
43105W        W 8332   3.260   6.516  14.408
43106W        W 8333  16.803   3.368  10.750
43107W        W 8334  29.452  25.722  12.020
43108W        W 8335  10.746  25.512  12.907
43109W        W 8336  35.164   7.678   1.354
43110W        W 8337  40.979  22.312  11.508
43111W        W 8338  13.557   7.340   3.707
43112W        W 8339  18.619  16.313   3.371
43113W        W 8340   1.403  16.530  10.465
43114W        W 8341  44.136  14.596  11.064
43115W        W 8342   7.108  35.112   3.505
43116W        W 8343  21.244  28.976  14.851
43117W        W 8344  41.220   5.145  12.483
43118W        W 8345  25.072   6.658   1.674
43119W        W 8346  42.250  11.300  12.546
43120W        W 8347  40.011   5.737  14.175
43121W        W 8348   2.672  38.951  14.954
43122W        W 8349  17.120   0.213  12.031
43123W        W 8350  31.668  42.686  11.653
43124W        W 8351  42.953   8.435  10.303
43125W        W 8352  16.278  24.360  12.013
43126W        W 8353  12.059  38.854  13.930
43127W        W 8354  32.136  11.197   3.187
43128W        W 8355  36.530   7.597   0.899
43129W        W 8356  15.281  37.560  12.009
43130W        W 8357  33.971  33.983   0.770
43131W        W 8358   4.673  36.993  10.591
43132W        W 8359  29.516  13.336  11.929
43133W        W 8360   6.113  19.436   4.957
43134W        W 8361  32.617  15.728  10.706
43135W        W 8362  23.480  10.786  11.407
43136W        W 8363   4.173   3.746  14.786
43137W        W 8364   0.159  27.422   1.837
43138W        W 8365   6.544  25.492   3.352
43139W        W 8366  29.130  43.071   0.273
43140W        W 8367  15.354  24.277  12.665
43141W        W 8368  42.805  11.112  12.150
43142W        W 8369  41.584   2.278   0.323
43143W        W 8370  40.284  19.734  14.377
43144W        W 8371  16.750   9.819  12.351
43145W        W 8372   9.407   9.909   4.859
43146W        W 8373  34.265  14.673   2.202
43147W        W 8374  10.897   4.220  14.072
43148W        W 8375  10.935  26.726  11.177
43149W        W 8376  26.136  39.503   4.545
43150W        W 8377   3.110  11.695   2.875
43151W        W 8378   8.740  18.699  12.954
43152W        W 8379  28.754  29.403   2.775
43153W        W 8380  33.809  22.149   3.346
43154W        W 8381  15.282  15.058   3.176
43155W        W 8382  35.547  43.870   2.913
43156W        W 8383   7.691  13.191  13.685
43157W        W 8384  22.897  41.978  13.422
43158W        W 8385  17.703  43.154  14.065
43159W        W 8386  18.802  31.905  11.620
43160W        W 8387  18.009   8.872   4.014
43161W        W 8388  23.749  20.116  11.535
43162W        W 8389  28.845  12.250   1.828
43163W        W 8390  15.738  41.409  10.255
43164W        W 8391  31.018  20.587   0.808
43165W        W 8392  36.616   7.218   1.821
43166W        W 8393   6.559  29.579   4.162
43167W        W 8394  16.126  25.613  12.175
43168W        W 8395  34.966  36.015   2.653
43169W        W 8396  41.356   4.158   0.798
43170W        W 8397  14.670   8.815  10.743
43171W        W 8398  13.699   8.756   1.226
43172W        W 8399  10.628  16.132  14.556
43173W        W 8400   4.879  44.528   0.302
43174W        W 8401  30.414  34.066  14.133
43175W        W 8402   2.226  29.980  14.821
43176W        W 8403  32.547  33.352  14.981
43177W        W 8404  37.435  40.964  13.977
43178W        W 8405  37.832  12.777   1.129
43179W        W 8406  32.417  15.603  13.435
43180W        W 8407  20.305   6.604   4.094
43181W        W 8408  23.714  32.084   2.709
43182W        W 8409  11.175  44.511   3.186
43183W        W 8410   4.016  36.832   3.333
43184W        W 8411  38.503  20.056   4.909
43185W        W 8412   0.193  27.926   1.755
43186W        W 8413   7.745  19.173  10.937
43187W        W 8414  13.548   3.398   3.115
43188W        W 8415  14.136   2.182   2.152
43189W        W 8416  39.509  15.465   0.235
43190W        W 8417  44.580  34.974  13.395
43191W        W 8418  10.894  13.601   1.222
43192W        W 8419  19.775  38.046  10.871
43193W        W 8420  12.230  18.669   0.424
43194W        W 8421  31.868  13.513  12.961
43195W        W 8422  26.380  35.777  13.900
43196W        W 8423  44.601  37.917  14.583
43197W        W 8424   1.456  37.044  10.931
43198W        W 8425   5.304  33.584   0.286
43199W        W 8426  38.468   3.703  14.968
43200W        W 8427  37.486   7.660  11.281
43201W        W 8428   8.806  34.303   3.611
43202W        W 8429  29.467  12.687   2.344
43203W        W 8430  14.276  20.421   1.683
43204W        W 8431  22.715  19.506   2.189
43205W        W 8432   6.843  31.090   3.122
43206W        W 8433   8.885  27.493   1.880
43207W        W 8434  13.309  36.887  12.033
43208W        W 8435  40.417  42.841  10.905
43209W        W 8436  20.216  27.470   0.700
43210W        W 8437  28.941  18.568  11.382
43211W        W 8438  41.002  23.632   3.490
43212W        W 8439  17.614   1.900  14.657
43213W        W 8440  34.115  10.536   3.704
43214W        W 8441  22.825  17.819   1.882
43215W        W 8442   4.753  39.209  13.370
43216W        W 8443  13.556   9.536   1.206
43217W        W 8444   8.441   5.709   1.968
43218W        W 8445  27.347  23.114  12.895
43219W        W 8446  38.711  31.944  14.292
43220W        W 8447  15.810   0.538  11.654
43221W        W 8448  17.295  29.362   3.357
43222W        W 8449   2.859  20.482  12.060
43223W        W 8450   8.221   3.461   0.891
43224W        W 8451  29.951  18.181  12.613
43225W        W 8452  38.402  10.695   1.345
43226W        W 8453  13.709  14.291  13.912
43227W        W 8454  25.736   5.967   3.650
43228W        W 8455  38.782  42.113  11.647
43229W        W 8456  40.361  17.525   0.006
43230W        W 8457  43.615  44.928   0.817
43231W        W 8458  18.949   7.261   1.229
43232W        W 8459  13.719  24.549  11.286
43233W        W 8460   3.340  41.218   4.374
43234W        W 8461   4.660   0.446   1.734
43235W        W 8462  41.035  18.562   1.865
43236W        W 8463  19.679  14.791   3.236
43237W        W 8464  21.081  23.011  14.830
43238W        W 8465   4.862  31.762  14.419
43239W        W 8466  25.075  39.335   4.102
43240W        W 8467   1.126  36.887  13.325
43241W        W 8468  43.513  16.601  11.713
43242W        W 8469  14.058  17.125   2.222
43243W        W 8470  39.481  38.226  14.467
43244W        W 8471  12.585  31.648   0.738
43245W        W 8472   9.674  41.926  14.533
43246W        W 8473   1.004  42.411  13.354
43247W        W 8474  10.175  24.662  11.818
43248W        W 8475  20.187  38.042  14.845
43249W        W 8476  19.673  38.594   4.136
43250W        W 8477  20.600  23.009   1.930
43251W        W 8478  22.613  44.322  13.119
43252W        W 8479  34.673   0.661  10.721
43253W        W 8480  39.307  30.653  12.744
43254W        W 8481   6.859  36.703  11.204
43255W        W 8482  18.302   8.255  13.547
43256W        W 8483  40.662  21.425  13.052
43257W        W 8484   5.771  42.587   0.744
43258W        W 8485   4.911  20.146   2.620
43259W        W 8486  29.546  15.182  12.999
43260W        W 8487  36.993  40.847   2.278
43261W        W 8488  28.170   3.328  10.152
43262W        W 8489  22.151   2.386   2.830
43263W        W 8490  34.947  11.487   5.159
43264W        W 8491   8.377  30.067  10.713
43265W        W 8492  24.530  27.097   3.118
43266W        W 8493   3.821   1.928  10.212
43267W        W 8494  30.635   5.942   3.931
43268W        W 8495  10.701  15.838  12.948
43269W        W 8496  12.933   7.113   2.333
43270W        W 8497  39.084  12.372  14.214
43271W        W 8498  37.191  36.278   4.761
43272W        W 8499  27.393  38.519   9.728
43273W        W 8500  32.178  30.011  14.889
43274W        W 8501  41.144  42.288   4.540
43275W        W 8502  15.139  18.496   1.255
43276W        W 8503  30.809  37.221   2.790
43277W        W 8504  38.924  38.564   0.709
43278W        W 8505  13.241  42.982   3.788
43279W        W 8506  21.176  19.582   3.130
43280W        W 8507  15.523  10.281   3.830
43281W        W 8508   0.798   9.287   4.106
43282W        W 8509  28.262   0.248   4.736
43283W        W 8510  26.167  20.487  14.386
43284W        W 8511  29.075  43.420   1.323
43285W        W 8512  37.568   7.408  10.433
43286W        W 8513   0.838  16.312  12.568
43287W        W 8514   8.870   6.794  12.426
43288W        W 8515   6.679   1.435  14.829
43289W        W 8516  38.958  18.128   1.166
43290W        W 8517  24.611  34.945  14.259
43291W        W 8518  23.485  28.580   0.393
43292W        W 8519  12.747   2.169   1.079
43293W        W 8520  30.982  23.210  11.903
43294W        W 8521  40.908  11.126   4.900
43295W        W 8522  32.525  13.891  14.228
43296W        W 8523   7.194  20.128   4.091
43297W        W 8524  37.300  29.206   3.294
43298W        W 8525  25.534  39.553   4.293
43299W        W 8526   8.502  15.439  10.251
43300W        W 8527  12.564  40.107  12.165
43301W        W 8528  23.345  42.599  13.910
43302W        W 8529  17.572  38.909   0.399
43303W        W 8530   2.688  44.453  11.833
43304W        W 8531   3.458   8.705   3.280
43305W        W 8532   2.809   6.404   3.335
43306W        W 8533   6.687   8.621  14.434
43307W        W 8534  30.548  21.423  12.581
43308W        W 8535  43.061  24.482   0.706
43309W        W 8536  30.165  16.467  14.972
43310W        W 8537  25.695  24.055   2.409
43311W        W 8538  14.826   2.263  11.768
43312W        W 8539   2.465   9.722   3.102
43313W        W 8540  30.182  23.063   2.940
43314W        W 8541  34.493  33.969   5.016
43315W        W 8542  18.621  31.078   1.629
43316W        W 8543  24.802  12.414   2.975
43317W        W 8544  21.811   0.706  12.516
43318W        W 8545   3.842  28.944  11.577
43319W        W 8546  20.221   8.698  13.443
43320W        W 8547  31.023  25.995   2.711
43321W        W 8548   4.566  28.065   4.525
43322W        W 8549  18.641  24.337   4.536
43323W        W 8550  26.802  10.637  12.043
43324W        W 8551  32.858  25.850   2.288
43325W        W 8552  34.327  26.684   3.199
43326W        W 8553  43.033  15.911  12.816
43327W        W 8554  27.581   7.252  10.672
43328W        W 8555   2.026  38.394  13.050
43329W        W 8556  30.583  11.862   0.374
43330W        W 8557   4.829  20.489   1.231
43331W        W 8558  30.606  16.150  13.809
43332W        W 8559  35.297   5.325  11.625
43333W        W 8560  12.243  19.360  12.408
43334W        W 8561   8.386  34.880  13.942
43335W        W 8562  19.063  37.661  11.452
43336W        W 8563  43.939  41.028   3.098
43337W        W 8564  25.115  20.329   4.992
43338W        W 8565  43.949  17.391   4.533
43339W        W 8566   7.763  36.050   4.214
43340W        W 8567  12.605  11.237  10.560
43341W        W 8568   5.185  32.731  14.509
43342W        W 8569   3.281  34.476  13.193
43343W        W 8570   5.812  18.287  13.258
43344W        W 8571  41.890  11.329   0.394
43345W        W 8572  36.591   1.379  12.850
43346W        W 8573  30.591  20.770  13.168
43347W        W 8574   3.920  11.831   1.215
43348W        W 8575  32.480   0.358  14.962
43349W        W 8576   7.678  22.525   2.333
43350W        W 8577  20.058   4.679   0.459
43351W        W 8578   5.979  18.120   2.239
43352W        W 8579  16.076  41.433   4.293
43353W        W 8580  16.900  14.741   0.392
43354W        W 8581  42.369  30.421  13.003
43355W        W 8582   9.944  31.314   1.635
43356W        W 8583  27.517  34.506   3.036
43357W        W 8584   2.943  23.049  13.825
43358W        W 8585  13.072  25.139  14.698
43359W        W 8586  42.280  28.980   0.840
43360W        W 8587  18.601  28.887  14.402
43361W        W 8588  17.139  40.402  12.493
43362W        W 8589  25.515   3.334   0.161
43363W        W 8590  15.437   7.220  11.059
43364W        W 8591  33.879  42.521   4.181
43365W        W 8592  43.906   6.940   0.827
43366W        W 8593  34.503  14.633   4.005
43367W        W 8594  35.556  19.779   4.240
43368W        W 8595  11.204  34.579   1.576
43369W        W 8596  18.561  38.660   2.802
43370W        W 8597  31.269  41.891   4.515
43371W        W 8598   0.335  14.110   4.120
43372W        W 8599  17.268  21.557  11.222
43373W        W 8600  33.371  11.197   0.979
43374W        W 8601  10.917  17.302  11.981
43375W        W 8602   1.666  36.554   4.190
43376W        W 8603  19.331  43.898  10.682
43377W        W 8604  34.813  14.725   1.316
43378W        W 8605  14.682  29.939   2.715
43379W        W 8606  39.098   8.389  10.583
43380W        W 8607  22.599  33.916   3.331
43381W        W 8608   7.265  38.083  13.399
43382W        W 8609  31.380  15.021  12.153
43383W        W 8610  23.093  42.020  11.799
43384W        W 8611   5.770  30.859  14.448
43385W        W 8612   7.333  20.989   2.762
43386W        W 8613  25.096  11.715   2.646
43387W        W 8614  27.411  37.736  11.602
43388W        W 8615  18.012  18.790   3.739
43389W        W 8616  12.795  13.176   2.110
43390W        W 8617  15.634  16.566   4.251
43391W        W 8618  25.690  39.004  12.555
43392W        W 8619   2.613   2.450  14.949
43393W        W 8620  42.535  20.724  14.835
43394W        W 8621   1.415  43.319   2.536
43395W        W 8622   5.477  26.471   4.215
43396W        W 8623  40.750   9.076   1.650
43397W        W 8624   8.298  22.099   2.934
43398W        W 8625  31.080  20.545   2.863
43399W        W 8626  13.582  11.117   0.346
43400W        W 8627  24.087  16.961  12.374
43401W        W 8628  40.769  24.466  11.396
43402W        W 8629  12.162  39.711  14.007
43403W        W 8630   6.776   2.702  14.930
43404W        W 8631   8.113  37.645   2.784
43405W        W 8632  26.482  33.763  14.286
43406W        W 8633   6.834  18.500   1.552
43407W        W 8634   6.336  24.629   1.135
43408W        W 8635  23.314  23.569   4.491
43409W        W 8636  37.301  25.719  13.784
43410W        W 8637   3.492  31.780   2.431
43411W        W 8638  33.838  23.427   1.260
43412W        W 8639  11.306  40.054   2.198
43413W        W 8640  36.400  15.208  13.468
43414W        W 8641  11.100  38.959  14.251
43415W        W 8642  33.671  39.446  11.081
43416W        W 8643  25.121  27.145   4.059
43417W        W 8644  12.351  10.893   3.639
43418W        W 8645   1.657   1.459  12.922
43419W        W 8646  24.416  39.921  11.998
43420W        W 8647  11.793  28.403   1.767
43421W        W 8648  37.784  44.397  10.767
43422W        W 8649  37.750  25.470  14.687
43423W        W 8650  23.969  42.875   2.681
43424W        W 8651  20.648   1.429  13.860
43425W        W 8652  12.714   0.269   3.122
43426W        W 8653  23.304  29.587  11.396
43427W        W 8654   0.284  32.470   1.780
43428W        W 8655  42.016  30.719   2.194
43429W        W 8656   1.939  14.620  12.119
43430W        W 8657  41.600   8.465   0.802
43431W        W 8658  33.122  17.841  13.418
43432W        W 8659  40.780  23.457  12.304
43433W        W 8660  29.709   7.231  14.071
43434W        W 8661  22.712  34.376  12.574
43435W        W 8662  41.305  21.736   0.871
43436W        W 8663  20.579   9.393  14.569
43437W        W 8664  20.791  31.025  11.982
43438W        W 8665  37.727  41.566  14.028
43439W        W 8666  34.123  43.315  14.061
43440W        W 8667   5.106   8.194   0.009
43441W        W 8668   6.819  26.420   0.819
43442W        W 8669  20.567  38.497   4.149
43443W        W 8670  32.092  16.549   0.503
43444W        W 8671  11.931  31.010  13.700
43445W        W 8672  37.358  14.654   2.307
43446W        W 8673  13.318  36.381   4.011
43447W        W 8674  38.794  30.017   4.894
43448W        W 8675  25.239  27.433  13.913
43449W        W 8676  34.612  20.168   1.437
43450W        W 8677  44.219  20.573   1.755
43451W        W 8678  12.368   8.717   1.766
43452W        W 8679   5.574  37.036   1.772
43453W        W 8680  33.637  14.636  11.484
43454W        W 8681  41.937  18.347  11.686
43455W        W 8682  13.949  12.207   2.707
43456W        W 8683  29.919  41.801   2.689
43457W        W 8684  11.295  10.618   0.313
43458W        W 8685  33.268  15.248  12.158
43459W        W 8686  14.888  17.132  14.693
43460W        W 8687  31.397  44.828   0.354
43461W        W 8688   5.120  24.097   1.824
43462W        W 8689  26.053  14.755   3.718
43463W        W 8690   9.686  12.215  13.782
43464W        W 8691  22.661  32.987  14.880
43465W        W 8692  44.766  31.974   4.386
43466W        W 8693  26.660   7.667   2.546
43467W        W 8694  16.796  30.529   4.405
43468W        W 8695  10.565  38.055  14.330
43469W        W 8696  19.657  40.905  13.634
43470W        W 8697  19.567  19.546   3.314
43471W        W 8698  23.714  12.125   4.155
43472W        W 8699  11.231  15.898  11.032
43473W        W 8700  32.618   7.795  10.829
43474W        W 8701   7.341  26.957   4.579
43475W        W 8702  32.870  18.442   4.084
43476W        W 8703  36.119   5.496   1.641
43477W        W 8704  36.676  23.970   2.839
43478W        W 8705   0.597   2.299  13.454
43479W        W 8706  35.960  31.014  14.391
43480W        W 8707  16.489  19.789   1.813
43481W        W 8708  42.043  34.174   2.725
43482W        W 8709  39.294  23.074   4.217
43483W        W 8710  11.721  40.259  14.162
43484W        W 8711  22.410  22.131  14.737
43485W        W 8712  13.779  42.107  13.553
43486W        W 8713   6.709  22.773   3.317
43487W        W 8714  18.380  27.995  12.056
43488W        W 8715  21.197  23.394   1.942
43489W        W 8716   3.099  40.843  12.442
43490W        W 8717   0.848   7.169   2.790
43491W        W 8718  36.921  36.319   2.089
43492W        W 8719  25.073  44.716  14.809
43493W        W 8720  13.124   9.603   2.785
43494W        W 8721  33.065   1.218  13.853
43495W        W 8722   2.930  30.900   5.498
43496W        W 8723   2.000  37.497   3.648
43497W        W 8724   9.139  17.249   4.233
43498W        W 8725   0.446  15.576   1.317
43499W        W 8726  13.806  40.275   4.548
43500W        W 8727  21.617   9.455   3.835
43501W        W 8728  10.785   3.380   1.776
43502W        W 8729  33.042  30.277  12.392
43503W        W 8730  43.348  11.131   0.572
43504W        W 8731  40.348   4.443   4.542
43505W        W 8732   0.864  41.216   3.680
43506W        W 8733  11.008  10.740   1.933
43507W        W 8734   7.375   2.657   0.830
43508W        W 8735  14.192  38.406   2.684
43509W        W 8736   1.455  38.393   2.936
43510W        W 8737  44.256   3.750   3.725
43511W        W 8738  34.816   7.834  14.905
43512W        W 8739  10.491   3.189  11.209
43513W        W 8740   2.878  25.019  14.836
43514W        W 8741   8.131  25.240  14.776
43515W        W 8742   7.548  23.977  10.178
43516W        W 8743   0.151  19.729  12.589
43517W        W 8744  17.426  34.171  13.826
43518W        W 8745  42.842  17.033  11.215
43519W        W 8746  10.778  22.627   4.219
43520W        W 8747  36.851  43.188  12.525
43521W        W 8748  36.625  38.990   3.709
43522W        W 8749  28.785   5.292   3.131
43523W        W 8750  33.186  27.844  11.221
43524W        W 8751  27.294   5.885  12.735
43525W        W 8752  16.102  25.137   0.357
43526W        W 8753  15.417  38.589   0.992
43527W        W 8754  39.741  17.229  13.885
43528W        W 8755   6.667   9.399  13.037
43529W        W 8756  10.618  33.002   1.256
43530W        W 8757  11.261   8.096   4.665
43531W        W 8758  31.913  33.444  12.711
43532W        W 8759  15.653  34.436  12.537
43533W        W 8760  25.546   3.937   3.650
43534W        W 8761  30.026  15.218  12.812
43535W        W 8762   6.569  27.123   0.050
43536W        W 8763  22.158  27.453  11.145
43537W        W 8764  40.317  26.885   3.629
43538W        W 8765  34.240  23.394   0.879
43539W        W 8766  38.087  40.269  12.143
43540W        W 8767  44.166  26.766   9.821
43541W        W 8768  22.938  15.534  11.109
43542W        W 8769  38.011  41.410  14.427
43543W        W 8770  32.303   9.210   4.540
43544W        W 8771  20.958  14.807   1.543
43545W        W 8772  21.080  15.601   2.627
43546W        W 8773   5.820   3.388  12.981
43547W        W 8774  27.500   4.315   4.368
43548W        W 8775  37.429  23.275  12.389
43549W        W 8776  19.538  15.774   2.797
43550W        W 8777  21.080  32.993  13.823
43551W        W 8778  12.854  21.630   0.592
43552W        W 8779  31.368  41.585   2.365
43553W        W 8780  15.217  18.509  13.028
43554W        W 8781  27.276  37.142  13.104
43555W        W 8782  18.802  14.121   2.065
43556W        W 8783  19.281   2.768  10.629
43557W        W 8784  36.169  26.152  14.732
43558W        W 8785  35.541   8.512  12.937
43559W        W 8786  21.767  19.556   4.741
43560W        W 8787  23.580  10.630   2.797
43561W        W 8788  24.700  26.024  14.837
43562W        W 8789  26.517  17.029  13.464
43563W        W 8790  39.636  35.117  14.304
43564W        W 8791  27.620  31.537   3.652
43565W        W 8792  44.497  11.138  10.604
43566W        W 8793  23.905  22.786  14.294
43567W        W 8794  40.572   1.138   1.813
43568W        W 8795  16.647  26.315   1.605
43569W        W 8796  16.578  33.066   2.593
43570W        W 8797  19.838   1.043   0.676
43571W        W 8798   8.646  29.658  11.190
43572W        W 8799   8.680  38.811  10.479
43573W        W 8800  32.641  23.020  10.760
43574W        W 8801  42.455   1.990   4.199
43575W        W 8802  17.255  27.076  11.974
43576W        W 8803  15.092  36.039   4.268
43577W        W 8804  39.371  15.197   0.696
43578W        W 8805   8.102  43.041   1.710
43579W        W 8806  15.428   9.841   2.210
43580W        W 8807  30.882  35.572  10.550
43581W        W 8808   4.808  33.817   0.067
43582W        W 8809  13.435  24.054  12.136
43583W        W 8810  15.068  41.762   0.950
43584W        W 8811   4.491  23.676   3.967
43585W        W 8812   4.878   2.248   0.100
43586W        W 8813  14.356  23.625  14.240
43587W        W 8814  19.662   0.229   3.837
43588W        W 8815   8.228  32.530   0.276
43589W        W 8816  17.217  40.410   3.523
43590W        W 8817  33.362  40.783  11.138
43591W        W 8818  44.276  11.785   2.561
43592W        W 8819  25.412  15.943  11.044
43593W        W 8820  35.770  24.507  14.462
43594W        W 8821  43.742  33.725  14.421
43595W        W 8822  13.232  22.548  10.244
43596W        W 8823  42.980   4.173   1.829
43597W        W 8824  31.892  12.877  12.360
43598W        W 8825  44.013  28.669  14.478
43599W        W 8826  21.376  34.007  12.027
43600W        W 8827  23.639  20.441  11.941
43601W        W 8828  32.153   7.956  10.695
43602W        W 8829  26.623  14.612  10.392
43603W        W 8830   7.968  17.202   2.467
43604W        W 8831  17.648  28.460   2.034
43605W        W 8832  30.581  31.353  11.473
43606W        W 8833  36.864   0.438  12.122
43607W        W 8834  29.435  12.627   3.945
43608W        W 8835  13.788  28.494  14.206
43609W        W 8836  24.395  26.527   5.270
43610W        W 8837   6.652  10.904   0.819
43611W        W 8838  40.611  25.469   1.909
43612W        W 8839  43.963  26.533  13.470
43613W        W 8840  24.244  43.938   3.217
43614W        W 8841  10.794   7.454   0.940
43615W        W 8842  16.176   2.805  13.949
43616W        W 8843  10.796   0.863  13.872
43617W        W 8844  39.024  31.201  11.567
43618W        W 8845  36.031  18.910   1.934
43619W        W 8846  42.559  14.914   2.745
43620W        W 8847   0.930  12.195  13.362
43621W        W 8848   1.770  43.692   0.813
43622W        W 8849  44.324  31.148   1.485
43623W        W 8850  29.228  16.992  12.407
43624W        W 8851  15.548  10.538  11.244
43625W        W 8852  26.797  19.260  14.246
43626W        W 8853  37.257  35.547  10.831
43627W        W 8854  41.896  26.377  11.213
43628W        W 8855   4.883  18.249  13.291
43629W        W 8856   2.505  39.999  11.598
43630W        W 8857  42.553   1.082  13.543
43631W        W 8858  15.168  33.187  12.365
43632W        W 8859  27.087  13.681   2.658
43633W        W 8860  27.669  21.200  14.499
43634W        W 8861  42.894   7.347   3.074
43635W        W 8862   0.544  26.130   0.318
43636W        W 8863  24.066   4.774  12.910
43637W        W 8864  30.087  37.278   1.453
43638W        W 8865  25.083  14.646   3.287
43639W        W 8866  34.026  31.044  14.987
43640W        W 8867  18.095  33.530   4.535
43641W        W 8868   2.807  19.856  13.380
43642W        W 8869  29.436  21.530   0.868
43643W        W 8870   5.708   1.635   1.373
43644W        W 8871  35.357  37.564   2.202
43645W        W 8872  22.441   1.459  13.584
43646W        W 8873  21.035  43.438  11.188
43647W        W 8874  35.881   4.771  13.965
43648W        W 8875  37.822   0.271   1.195
43649W        W 8876  15.846  24.963   2.798
43650W        W 8877   2.341  19.530   3.804
43651W        W 8878  20.498  13.439   1.418
43652W        W 8879  21.602  36.028   1.440
43653W        W 8880  41.400   6.081  13.828
43654W        W 8881   5.779   8.226   2.819
43655W        W 8882  11.648  14.409  10.072
43656W        W 8883   2.385  18.593  14.525
43657W        W 8884  36.314   4.276   0.228
43658W        W 8885  40.148   8.663  14.221
43659W        W 8886  21.049   0.818  10.310
43660W        W 8887  35.283  42.374  11.529
43661W        W 8888  10.161  29.516   0.767
43662W        W 8889  10.687  24.283   4.737
43663W        W 8890  13.855  18.818  11.550
43664W        W 8891  31.389   9.565   5.191
43665W        W 8892  42.307  14.412   0.349
43666W        W 8893  26.636  38.796   3.602
43667W        W 8894  40.810  16.266  14.164
43668W        W 8895   7.197  24.028  11.228
43669W        W 8896   6.422  20.185  13.352
43670W        W 8897   0.155  36.802   1.892
43671W        W 8898   8.634  28.133  13.403
43672W        W 8899   1.695  17.169   2.396
43673W        W 8900  31.137  11.819  12.951
43674W        W 8901  29.726  34.532   0.356
43675W        W 8902  18.504  21.326   0.806
43676W        W 8903  27.526   2.197  13.322
43677W        W 8904  19.487  33.152  14.367
43678W        W 8905  30.458  22.533   4.634
43679W        W 8906  18.276   6.260   0.607
43680W        W 8907  15.255  25.640  10.963
43681W        W 8908  40.893   5.875   1.384
43682W        W 8909  10.295  43.301   1.329
43683W        W 8910  33.126   6.643   4.809
43684W        W 8911  41.656  29.105   4.043
43685W        W 8912  23.513  25.693   4.059
43686W        W 8913   3.337   0.264  13.878
43687W        W 8914  18.163  12.792  14.055
43688W        W 8915  14.522  31.867  13.832
43689W        W 8916  37.474  39.037   2.586
43690W        W 8917   4.984  14.320  10.181
43691W        W 8918  18.389  18.009  12.041
43692W        W 8919  41.406   4.375   2.453
43693W        W 8920  25.395   2.296   2.105
43694W        W 8921  34.440  26.873   1.303
43695W        W 8922   5.861  37.556   3.879
43696W        W 8923  15.654  18.211  14.064
43697W        W 8924  31.569   7.611   1.150
43698W        W 8925  23.553   5.108  12.520
43699W        W 8926  43.783  38.071   1.320
43700W        W 8927  18.129  14.097  10.556
43701W        W 8928  42.991   6.997   0.863
43702W        W 8929  15.652   7.908   0.876
43703W        W 8930  10.028  31.428  14.534
43704W        W 8931   4.038  18.172   3.353
43705W        W 8932   7.310  10.734  13.056
43706W        W 8933  14.199  38.389  13.042
43707W        W 8934  16.640   0.869   4.671
43708W        W 8935   6.297   0.921  11.665
43709W        W 8936  35.893   7.817  14.302
43710W        W 8937   4.932   3.646   1.645
43711W        W 8938  10.087  20.668   2.689
43712W        W 8939  34.101   6.682  11.931
43713W        W 8940  25.159  19.810   4.181
43714W        W 8941  29.703  27.650  12.645
43715W        W 8942  17.681  13.791  14.891
43716W        W 8943  27.930   5.984  11.620
43717W        W 8944  44.141  26.748  10.338
43718W        W 8945  14.936  17.274  10.841
43719W        W 8946   3.491  23.828   4.450
43720W        W 8947  12.039  16.538  12.320
43721W        W 8948  25.667   1.482  14.784
43722W        W 8949  22.938  37.940   3.564
43723W        W 8950   9.714  38.010   4.150
43724W        W 8951  21.908  13.905  13.538
43725W        W 8952  24.580  17.138  12.551
43726W        W 8953  30.977  24.558   3.754
43727W        W 8954  10.190   9.806  12.776
43728W        W 8955  26.704  36.513  10.576
43729W        W 8956  11.468   6.965  12.323
43730W        W 8957  11.202  14.371   2.178
43731W        W 8958  29.916  29.668  11.240
43732W        W 8959   7.988   1.680  12.857
43733W        W 8960  25.655  17.040   2.351
43734W        W 8961  27.619  21.045  11.532
43735W        W 8962  16.005  30.984  14.833
43736W        W 8963  29.610   7.261   1.541
43737W        W 8964  35.254  21.734  12.073
43738W        W 8965  44.004  39.041  12.574
43739W        W 8966  28.348  26.723   4.559
43740W        W 8967  11.349  26.525  14.554
43741W        W 8968  44.928  18.482  12.874
43742W        W 8969  28.967   7.181  12.415
43743W        W 8970   4.985  39.119  11.024
43744W        W 8971  12.159  27.911  12.202
43745W        W 8972  33.207  14.791  10.568
43746W        W 8973  10.726   1.364  13.970
43747W        W 8974  16.614  38.792   4.929
43748W        W 8975   7.833  18.658   1.046
43749W        W 8976  26.482   9.428  14.794
43750W        W 8977  11.694  26.938   1.607
43751W        W 8978  11.776  44.373   2.403
43752W        W 8979  23.159  24.518   4.563
43753W        W 8980  37.430  10.939  10.750
43754W        W 8981  38.380  21.117   4.572
43755W        W 8982  28.707  23.224   2.708
43756W        W 8983  41.063  23.727  10.625
43757W        W 8984   2.627  35.972  11.140
43758W        W 8985  20.952   9.245  14.906
43759W        W 8986  21.134  25.693  13.461
43760W        W 8987  29.575  36.200  10.727
43761W        W 8988  29.319  19.502   1.334
43762W        W 8989  15.163   8.221   1.725
43763W        W 8990  26.499  33.371   3.539
43764W        W 8991  40.640  35.649  12.350
43765W        W 8992  27.612  36.813  10.627
43766W        W 8993  36.868  40.634   4.866
43767W        W 8994   5.405  42.963   0.860
43768W        W 8995  24.656  17.743   1.709
43769W        W 8996  24.939  21.628  13.941
43770W        W 8997  17.633  27.171  13.131
43771W        W 8998  17.076  12.355  13.480
43772W        W 8999  42.839  11.332   0.352
43773W        W 9000  41.776  37.672  14.931
43774W        W 9001  36.995  12.247  14.374
43775W        W 9002  28.828   4.563   0.958
43776W        W 9003  15.511  42.136   2.206
43777W        W 9004   6.786  15.987   3.662
43778W        W 9005  27.465  27.501   4.202
43779W        W 9006  35.526  33.110  11.761
43780W        W 9007   1.485  42.829   1.164
43781W        W 9008   4.099  38.363   1.706
43782W        W 9009  27.013  33.684   3.547
43783W        W 9010   9.735   2.276  12.919
43784W        W 9011  34.389  30.921   2.305
43785W        W 9012  33.108  22.552  11.487
43786W        W 9013  43.732   9.432   1.945
43787W        W 9014  42.946  27.622   0.265
43788W        W 9015   1.771  15.522  13.427
43789W        W 9016  34.896  25.952  14.527
43790W        W 9017  14.591  41.113   1.540
43791W        W 9018   8.682  41.420   1.346
43792W        W 9019  18.762  14.383  14.441
43793W        W 9020  30.939  27.419   2.728
43794W        W 9021  32.346   1.738   0.341
43795W        W 9022  26.555  40.067   1.898
43796W        W 9023  23.469  13.412   3.233
43797W        W 9024  13.753  36.301   4.786
43798W        W 9025   7.619   7.320   4.143
43799W        W 9026  40.989   0.729   1.873
43800W        W 9027   6.768   9.296  14.942
43801W        W 9028  14.222  12.952   2.332
43802W        W 9029  31.582   8.931   1.837
43803W        W 9030   5.850  21.795   1.405
43804W        W 9031  35.599  20.029   1.241
43805W        W 9032  22.531  31.933  14.955
43806W        W 9033  27.659  37.759  14.854
43807W        W 9034  20.562  20.426  14.392
43808W        W 9035  17.753   9.717   0.012
43809W        W 9036  19.578  26.522  12.561
43810W        W 9037  13.181   4.467  14.003
43811W        W 9038  17.062  26.069  13.800
43812W        W 9039   8.896   6.211  12.502
43813W        W 9040  16.143   3.237  14.383
43814W        W 9041  29.421  19.026   3.725
43815W        W 9042   1.955  22.530  10.145
43816W        W 9043   2.645   1.558  12.914
43817W        W 9044  27.101  37.571  10.754
43818W        W 9045  44.070  34.955   0.456
43819W        W 9046  39.868   3.494  10.974
43820W        W 9047  12.207  12.636  13.396
43821W        W 9048  35.420  16.932   2.766
43822W        W 9049  21.303  20.642  11.213
43823W        W 9050  13.660   3.017  14.893
43824W        W 9051   1.776   1.281  12.034
43825W        W 9052  21.117  30.398   1.364
43826W        W 9053  18.701   6.194  13.711
43827W        W 9054  31.360  30.672   4.269
43828W        W 9055  32.835   0.777  14.224
43829W        W 9056  10.711  39.535  10.810
43830W        W 9057   6.899  36.039   0.962
43831W        W 9058  28.786   8.139   4.225
43832W        W 9059   3.371  26.359  13.559
43833W        W 9060  16.573   2.903   3.893
43834W        W 9061  26.965  33.184   3.628
43835W        W 9062  40.277  11.895   4.284
43836W        W 9063  12.879   7.425  13.112
43837W        W 9064  25.180   0.269  12.686
43838W        W 9065  23.250   8.898   0.941
43839W        W 9066  33.952  43.491   4.555
43840W        W 9067   3.810  22.398  11.170
43841W        W 9068  22.568  38.327  13.967
43842W        W 9069  41.215  29.375   4.227
43843W        W 9070  18.621  35.799  14.785
43844W        W 9071  26.774  30.176  13.014
43845W        W 9072   2.345  38.286   3.175
43846W        W 9073  42.042  19.166  11.957
43847W        W 9074   9.884  21.593   3.184
43848W        W 9075   5.762   4.454  14.504
43849W        W 9076  41.058  24.734   0.812
43850W        W 9077  39.344   9.431   4.688
43851W        W 9078  41.555  41.303  14.842
43852W        W 9079  39.325   9.902  12.070
43853W        W 9080  24.699   4.296   2.947
43854W        W 9081   7.091  31.386  12.581
43855W        W 9082   6.076  11.726   4.318
43856W        W 9083  31.697  36.576   1.179
43857W        W 9084  20.308  13.657  10.614
43858W        W 9085   4.386  44.505   3.455
43859W        W 9086  36.612  13.672  10.715
43860W        W 9087   8.191  19.380  12.131
43861W        W 9088  36.381  14.287   4.182
43862W        W 9089  14.622  41.124   3.137
43863W        W 9090  21.713  27.564   4.924
43864W        W 9091   9.306   8.916  12.293
43865W        W 9092  13.346  13.274  13.679
43866W        W 9093  30.709  26.668   0.274
43867W        W 9094   9.695  27.644   1.448
43868W        W 9095   9.428   1.045   1.175
43869W        W 9096  40.538  31.693  13.138
43870W        W 9097  31.513  35.023  10.573
43871W        W 9098   2.373   4.236   0.797
43872W        W 9099  38.101  38.481   2.118
43873W        W 9100  24.255  36.786  12.076
43874W        W 9101  25.168   2.480  14.337
43875W        W 9102  40.252  41.990   2.891
43876W        W 9103  40.553   9.851   0.381
43877W        W 9104  27.878  17.692   3.229
43878W        W 9105   4.992  14.683   4.666
43879W        W 9106  11.479   4.542   0.802
43880W        W 9107  10.678   6.199  12.417
43881W        W 9108  25.509   6.623  11.961
43882W        W 9109  30.933  26.871   2.762
43883W        W 9110  32.137  41.225  14.495
43884W        W 9111  19.321  18.048  13.842
43885W        W 9112  28.646  22.610  12.052
43886W        W 9113   8.754  41.318  10.570
43887W        W 9114  27.721   1.367  10.880
43888W        W 9115  13.331  37.600  14.940
43889W        W 9116  25.579  42.118  14.320
43890W        W 9117   4.024  38.565   0.916
43891W        W 9118   3.471  41.922  14.411
43892W        W 9119  28.336   7.139   1.897
43893W        W 9120  44.975  15.278   0.267
43894W        W 9121  33.601  15.747   1.817
43895W        W 9122  38.969  20.971  14.868
43896W        W 9123  42.191  15.198  12.635
43897W        W 9124  28.321  15.188  14.415
43898W        W 9125  37.010  19.512  12.013
43899W        W 9126  38.754  43.348  11.702
43900W        W 9127  35.817  39.835  11.702
43901W        W 9128  24.349  40.815   0.833
43902W        W 9129  30.543  25.950  13.886
43903W        W 9130   1.859   4.879   2.457
43904W        W 9131  28.658  15.940   2.244
43905W        W 9132  42.385  11.377  12.063
43906W        W 9133  23.611  39.075   1.248
43907W        W 9134   3.865  36.191  14.058
43908W        W 9135   7.406  22.111  12.490
43909W        W 9136  26.678   1.366   1.130
43910W        W 9137  34.427   5.100   0.830
43911W        W 9138   0.205   8.592   2.994
43912W        W 9139  10.611  25.926  11.929
43913W        W 9140  10.695  22.412   0.345
43914W        W 9141  34.452  37.758  12.095
43915W        W 9142  41.387  16.200  10.429
43916W        W 9143  36.312  37.282   2.298
43917W        W 9144   2.130   9.443   0.975
43918W        W 9145  12.187  20.631  10.871
43919W        W 9146  40.599   7.655   0.794
43920W        W 9147  23.128  30.042  13.623
43921W        W 9148   2.773  19.597  14.051
43922W        W 9149   4.565  16.013  12.708
43923W        W 9150   4.773  10.837   2.355
43924W        W 9151  17.055  35.478  12.803
43925W        W 9152  41.253  24.940  12.118
43926W        W 9153   2.880  16.544   1.102
43927W        W 9154  21.980   1.095   3.310
43928W        W 9155  18.326   0.223   1.595
43929W        W 9156  11.642   3.161   1.704
43930W        W 9157  15.284  24.009  11.690
43931W        W 9158   1.290   2.858   3.837
43932W        W 9159  26.885  36.933   1.366
43933W        W 9160  26.882  21.960  11.136
43934W        W 9161   7.969  22.120  12.581
43935W        W 9162  39.995  24.617   4.675
43936W        W 9163   9.741  11.876  12.912
43937W        W 9164  41.034  39.744  11.258
43938W        W 9165  38.146  24.071  13.009
43939W        W 9166  33.585   1.015   1.891
43940W        W 9167   5.044   6.432  11.251
43941W        W 9168  28.179   9.319   1.128
43942W        W 9169   1.634  22.763  10.524
43943W        W 9170  26.095  40.301  13.386
43944W        W 9171   2.703  19.087  13.802
43945W        W 9172  15.625  35.069   1.459
43946W        W 9173  25.398  34.017   2.832
43947W        W 9174  42.803  42.721  11.164
43948W        W 9175  19.703  40.868  12.578
43949W        W 9176  32.874  16.539   1.717
43950W        W 9177  32.351  36.516   2.054
43951W        W 9178  22.912  19.582   4.653
43952W        W 9179  41.400   3.613   3.808
43953W        W 9180  42.825  18.207   4.564
43954W        W 9181  28.066   4.441  13.871
43955W        W 9182  10.160  41.356   3.994
43956W        W 9183  14.364   9.931   3.233
43957W        W 9184   3.179  42.362  11.150
43958W        W 9185  19.943  32.166  10.432
43959W        W 9186  38.042  18.585  13.512
43960W        W 9187   3.212   8.666   2.307
43961W        W 9188  21.315  19.596  10.044
43962W        W 9189  27.685  20.175   1.813
43963W        W 9190  22.516  25.641  12.116
43964W        W 9191  24.123  23.453  10.820
43965W        W 9192  29.103  25.298   0.607
43966W        W 9193  13.439  42.360  13.886
43967W        W 9194  40.262  42.289   4.559
43968W        W 9195  18.786  38.754  10.769
43969W        W 9196  19.445   9.668   1.386
43970W        W 9197   6.472  19.300   1.879
43971W        W 9198  18.782  40.470  12.065
43972W        W 9199   6.722  19.870   3.306
43973W        W 9200  19.104  29.548  14.796
43974W        W 9201  42.919   3.240   2.206
43975W        W 9202  37.500   9.932   0.000
43976W        W 9203  35.429   5.741  13.505
43977W        W 9204  25.751  39.747  10.715
43978W        W 9205  41.892  25.165   1.340
43979W        W 9206  10.019  26.749  11.191
43980W        W 9207  27.999  29.900  11.922
43981W        W 9208  38.645  23.080   4.962
43982W        W 9209   2.285   0.944   1.302
43983W        W 9210  33.016  27.538   3.393
43984W        W 9211   2.859  39.362  10.763
43985W        W 9212  40.312  27.732   4.753
43986W        W 9213  21.505  23.300   2.666
43987W        W 9214  31.457  28.403   0.356
43988W        W 9215  40.009   6.772   2.392
43989W        W 9216  35.783  36.171   0.832
43990W        W 9217  44.498  41.868   3.098
43991W        W 9218  19.792   3.126   2.272
43992W        W 9219  26.225   7.190   1.284
43993W        W 9220  15.648  22.752  10.761
43994W        W 9221  34.853  42.527  13.798
43995W        W 9222  17.557  36.574  12.931
43996W        W 9223  31.662  27.354   1.222
43997W        W 9224  12.886   9.201   0.393
43998W        W 9225  32.070  15.010   0.654
43999W        W 9226  34.964  37.842  12.028
44000W        W 9227  43.716  31.424   0.753
44001W        W 9228  35.092  25.174  14.306
44002W        W 9229  27.108  30.889  11.524
44003W        W 9230  13.190   5.273  10.782
44004W        W 9231  29.946  10.746  14.034
44005W        W 9232   3.453   9.181  13.218
44006W        W 9233   5.673  31.110   0.712
44007W        W 9234  26.592  18.775  11.166
44008W        W 9235  30.489  15.761   0.863
44009W        W 9236  44.708  20.887   3.098
44010W        W 9237  19.788  11.673  12.324
44011W        W 9238   9.072   5.614   3.617
44012W        W 9239  25.230  20.715   2.820
44013W        W 9240  30.591  17.879  13.049
44014W        W 9241  43.753   0.865   4.045
44015W        W 9242   3.853  26.449  14.574
44016W        W 9243   8.094  26.718   0.435
44017W        W 9244  38.533  28.087   4.369
44018W        W 9245   3.380  10.893   4.505
44019W        W 9246  10.151  24.163  14.306
44020W        W 9247  32.287  21.247   3.064
44021W        W 9248  37.523  42.005   2.327
44022W        W 9249  15.774   4.983  12.594
44023W        W 9250  26.624  38.911  11.913
44024W        W 9251  19.749  39.819  10.585
44025W        W 9252  11.010   0.423  12.716
44026W        W 9253  37.533  43.929  10.699
44027W        W 9254  16.179   5.971  13.577
44028W        W 9255  22.459  27.788  11.469
44029W        W 9256  18.571   1.996  14.076
44030W        W 9257  13.964  30.366   2.289
44031W        W 9258  42.127  21.085  11.796
44032W        W 9259  44.311   0.170  12.041
44033W        W 9260  20.607  34.542   1.400
44034W        W 9261  26.003   0.434   1.893
44035W        W 9262  38.895   9.168  10.279
44036W        W 9263  27.552  28.578   2.130
44037W        W 9264  35.925   7.559   4.983
44038W        W 9265  12.803  43.224   4.050
44039W        W 9266  24.605  30.977  12.117
44040W        W 9267  38.333   3.077  12.726
44041W        W 9268   2.211  34.921   0.343
44042W        W 9269   9.855  12.822   3.427
44043W        W 9270  34.303   6.696  12.406
44044W        W 9271   0.431   7.290   2.478
44045W        W 9272  28.680  37.854   0.463
44046W        W 9273  21.713  27.657  12.425
44047W        W 9274   2.465  10.350  12.092
44048W        W 9275  14.247  42.457   3.105
44049W        W 9276  29.213  38.457   1.452
44050W        W 9277   7.989   4.991   4.132
44051W        W 9278  26.205  31.789  10.664
44052W        W 9279   9.947  14.370  14.210
44053W        W 9280  13.002  40.990   2.445
44054W        W 9281   4.698  14.442  13.373
44055W        W 9282   9.387  31.227  13.945
44056W        W 9283  17.657  43.267   4.571
44057W        W 9284  28.439  31.085  14.577
44058W        W 9285   8.294  38.493  13.445
44059W        W 9286   5.253  28.934   3.222
44060W        W 9287   1.763  18.936   5.370
44061W        W 9288  38.549  13.749   4.480
44062W        W 9289  37.280   8.151  14.359
44063W        W 9290  26.391   6.367  13.679
44064W        W 9291  19.886  27.856   2.189
44065W        W 9292  17.047  26.172   1.072
44066W        W 9293   3.074  16.182  13.199
44067W        W 9294  33.643  26.273   0.376
44068W        W 9295  36.458  25.955  12.787
44069W        W 9296  27.455  24.566  10.766
44070W        W 9297   6.908  19.037   0.841
44071W        W 9298  41.288  21.457  14.314
44072W        W 9299  25.873   9.115   3.043
44073W        W 9300  10.937  16.557  14.508
44074W        W 9301  18.626  16.489   1.758
44075W        W 9302   5.436   5.319   4.578
44076W        W 9303   5.477  11.142   3.672
44077W        W 9304  41.924   5.988   2.368
44078W        W 9305  17.443  23.538   1.856
44079W        W 9306   6.276  42.945  13.823
44080W        W 9307  35.421  14.288  11.076
44081W        W 9308  19.680  40.710   3.119
44082W        W 9309   4.009  29.978  11.664
44083W        W 9310  21.372  21.685  11.565
44084W        W 9311  33.210  12.962   4.837
44085W        W 9312  14.924  39.781   4.992
44086W        W 9313   0.335  34.256   0.741
44087W        W 9314  25.558  33.890  11.043
44088W        W 9315  16.088   8.135  12.094
44089W        W 9316  27.328   0.020   2.235
44090W        W 9317  43.272  43.968   4.615
44091W        W 9318   7.034  24.652   3.115
44092W        W 9319   3.636  40.943  12.851
44093W        W 9320  26.508   0.313  12.941
44094W        W 9321   0.696  18.238   3.307
44095W        W 9322  18.550   0.361   2.871
44096W        W 9323  32.733  14.694   4.880
44097W        W 9324   3.655  33.192  14.183
44098W        W 9325  13.758  31.894   2.631
44099W        W 9326  26.651   2.532  10.715
44100W        W 9327  32.090  41.815  11.808
44101W        W 9328  35.860  24.114   4.619
44102W        W 9329  29.392  22.168  13.866
44103W        W 9330   0.328  15.461  14.871
44104W        W 9331  32.518  13.107  13.628
44105W        W 9332   9.679  18.602  13.690
44106W        W 9333  31.370  16.316   0.814
44107W        W 9334   1.746   5.162  12.416
44108W        W 9335   0.804  13.921  14.006
44109W        W 9336  17.710   9.498   1.900
44110W        W 9337   1.234  33.432   1.891
44111W        W 9338  17.725  30.592  12.268
44112W        W 9339   5.742   4.617  10.800
44113W        W 9340  40.313  23.103   3.529
44114W        W 9341  40.650  15.193  11.702
44115W        W 9342  14.144   9.123   1.932
44116W        W 9343  33.597  17.439  14.345
44117W        W 9344   5.544  14.662   3.070
44118W        W 9345  16.600  31.712   4.567
44119W        W 9346   8.219  19.308  12.628
44120W        W 9347  12.083   7.286  11.643
44121W        W 9348  21.728   8.343  13.419
44122W        W 9349  43.381   8.183  12.322
44123W        W 9350  19.052   6.532  11.195
44124W        W 9351  32.478  26.711  14.910
44125W        W 9352  39.035   3.561   0.954
44126W        W 9353  33.310   9.469   3.274
44127W        W 9354  32.381  19.506  12.976
44128W        W 9355  29.635  26.190  12.971
44129W        W 9356   1.279  12.781  13.423
44130W        W 9357   7.315  18.973  11.540
44131W        W 9358  42.081  15.279   0.223
44132W        W 9359  15.317   2.451   2.610
44133W        W 9360  37.990  23.694   5.137
44134W        W 9361  43.900   7.388   3.159
44135W        W 9362   0.251  39.864   4.692
44136W        W 9363  18.228  19.714   2.751
44137W        W 9364   4.216  30.691  12.141
44138W        W 9365  31.442  39.667  13.985
44139W        W 9366  35.000  37.331  11.334
44140W        W 9367   9.782  13.186  11.849
44141W        W 9368  25.333  40.359   3.129
44142W        W 9369  36.302  19.050  14.863
44143W        W 9370  39.977  14.189   0.485
44144W        W 9371  43.507  40.760   3.200
44145W        W 9372  19.024  18.729  14.989
44146W        W 9373  36.969  35.832   4.565
44147W        W 9374  10.604  31.927  14.794
44148W        W 9375  12.803  19.211   4.782
44149W        W 9376  33.874  38.373   3.933
44150W        W 9377  23.813   2.995  10.222
44151W        W 9378  28.758  37.018  13.344
44152W        W 9379  12.192  39.077   3.304
44153W        W 9380  10.065  21.455  14.953
44154W        W 9381  22.587  14.857   4.494
44155W        W 9382  29.627   1.762   4.930
44156W        W 9383  36.759  40.353  10.648
44157W        W 9384  13.138  41.347  13.604
44158W        W 9385  23.651  43.380  12.500
44159W        W 9386  25.257  12.265   2.738
44160W        W 9387  10.194  12.562   3.772
44161W        W 9388   2.189   9.074  12.667
44162W        W 9389  31.529  15.510   9.880
44163W        W 9390   8.594  15.277  14.379
44164W        W 9391  25.244  18.342  14.111
44165W        W 9392  39.408  21.546   1.658
44166W        W 9393  13.174  37.860   1.042
44167W        W 9394  22.924  43.357  12.079
44168W        W 9395  38.510  10.195   1.509
44169W        W 9396   5.184  10.275   4.642
44170W        W 9397   3.809  32.581   2.925
44171W        W 9398  29.155  19.496  12.367
44172W        W 9399  18.203  32.607  13.794
44173W        W 9400  17.961   9.042   1.910
44174W        W 9401  37.584  31.841   0.860
44175W        W 9402  12.865  11.426  12.809
44176W        W 9403  23.052  11.874  13.820
44177W        W 9404  10.275   4.936  13.549
44178W        W 9405   9.662   9.317   1.832
44179W        W 9406   7.746  36.525   3.325
44180W        W 9407   3.925   1.390   2.727
44181W        W 9408  17.994   2.969  12.931
44182W        W 9409  13.676  37.157   3.690
44183W        W 9410  26.223  34.509  13.577
44184W        W 9411   4.021   9.848   2.903
44185W        W 9412  26.869   1.465   5.084
44186W        W 9413  10.627  37.085   1.956
44187W        W 9414  25.917  36.613   4.873
44188W        W 9415  23.463  30.054   2.666
44189W        W 9416  30.968  15.031   0.604
44190W        W 9417   7.684  23.670   3.317
44191W        W 9418  40.595  19.721  11.495
44192W        W 9419  24.781  14.314   5.195
44193W        W 9420  41.084  20.008   4.112
44194W        W 9421  14.276  11.164  11.382
44195W        W 9422   0.417  16.178   4.042
44196W        W 9423  15.808  27.082   2.174
44197W        W 9424  30.435  44.459  14.385
44198W        W 9425  36.085  41.890   0.304
44199W        W 9426  11.862  26.700  12.911
44200W        W 9427  24.172  14.632  14.830
44201W        W 9428  37.057   1.295  14.255
44202W        W 9429  10.834  13.312  14.367
44203W        W 9430  40.430  23.280  11.108
44204W        W 9431  30.074  43.940   1.070
44205W        W 9432  40.034  33.171  14.990
44206W        W 9433  27.574  13.146  12.365
44207W        W 9434  18.493  32.518   0.317
44208W        W 9435   6.763   3.703   1.818
44209W        W 9436   1.702  35.228   2.281
44210W        W 9437   3.426  19.523   2.098
44211W        W 9438  34.513  15.170  10.776
44212W        W 9439  27.883  40.377   1.774
44213W        W 9440  16.550  39.651   3.316
44214W        W 9441  30.857  16.335  14.267
44215W        W 9442  21.771   1.754   3.650
44216W        W 9443  30.532  14.144   0.685
44217W        W 9444  12.853   7.841  11.116
44218W        W 9445  18.731  16.193  10.972
44219W        W 9446  36.123  21.596   0.757
44220W        W 9447  28.244  30.231  12.848
44221W        W 9448  29.925  40.853   1.793
44222W        W 9449  22.179   4.427   4.072
44223W        W 9450  11.202   0.743  10.912
44224W        W 9451  44.914   7.669  12.394
44225W        W 9452  41.279  36.846  13.292
44226W        W 9453  12.184  40.985  12.614
44227W        W 9454  36.572   5.448  14.979
44228W        W 9455  28.530  25.758   3.649
44229W        W 9456   5.385  15.129  14.585
44230W        W 9457  20.218  15.638  14.329
44231W        W 9458  32.798   3.888   4.125
44232W        W 9459   1.746  43.692   2.285
44233W        W 9460  25.291   0.298  13.542
44234W        W 9461  34.480  27.673  14.593
44235W        W 9462  27.644  14.240   2.807
44236W        W 9463  25.687  11.393  12.535
44237W        W 9464  38.312  26.367  13.365
44238W        W 9465  22.661  22.472   1.707
44239W        W 9466  12.158  13.097   0.676
44240W        W 9467  20.986   9.847   1.265
44241W        W 9468   7.132  26.040   1.264
44242W        W 9469  26.981  11.313  11.498
44243W        W 9470  29.253  34.372  12.967
44244W        W 9471   7.823  29.080   1.957
44245W        W 9472   2.302  16.769  13.588
44246W        W 9473  37.847   3.904   3.492
44247W        W 9474  20.206  38.878  13.865
44248W        W 9475  39.707  25.834   1.631
44249W        W 9476   1.486  22.706   2.180
44250W        W 9477   6.254  43.908  11.375
44251W        W 9478  16.661  12.246   3.603
44252W        W 9479   5.813  29.454   1.164
44253W        W 9480  28.506  28.931  14.853
44254W        W 9481  43.961  41.278  12.135
44255W        W 9482  25.029   8.910  10.207
44256W        W 9483  34.666  14.143  10.811
44257W        W 9484  30.415   4.201   2.186
44258W        W 9485  33.126   2.927   1.866
44259W        W 9486  43.213  14.218   3.062
44260W        W 9487  43.781  26.002   0.870
44261W        W 9488   9.295  37.318  14.172
44262W        W 9489   2.133  27.965  10.154
44263W        W 9490   5.446  33.875   4.211
44264W        W 9491  26.548   1.703  11.678
44265W        W 9492  10.112  38.186  13.432
44266W        W 9493  23.545   2.032  12.049
44267W        W 9494  40.097  22.622   2.285
44268W        W 9495  24.715  43.773   1.277
44269W        W 9496  35.346  18.526   0.803
44270W        W 9497  11.279  35.244  14.562
44271W        W 9498  35.595  35.340  14.217
44272W        W 9499   6.717  41.491  13.029
44273W        W 9500  33.506  29.226  11.078
44274W        W 9501  10.169  29.078   1.054
44275W        W 9502   9.986  41.394  11.887
44276W        W 9503   8.330   1.181   3.137
44277W        W 9504  34.925  34.598  13.470
44278W        W 9505  21.352  34.693   4.268
44279W        W 9506   0.364  15.804  10.955
44280W        W 9507  30.682  27.433  14.785
44281W        W 9508  10.361  31.233  11.555
44282W        W 9509  12.615  31.326   5.052
44283W        W 9510  39.439  44.111  11.041
44284W        W 9511  10.548   1.897   2.258
44285W        W 9512  16.293   9.037   2.869
44286W        W 9513  41.536  25.766   1.689
44287W        W 9514  33.679  41.160   3.260
44288W        W 9515   0.268  23.101  11.470
44289W        W 9516  33.403  28.176  14.134
44290W        W 9517  44.943  26.415  13.484
44291W        W 9518  35.870  36.453  12.345
44292W        W 9519  18.298  24.604   0.312
44293W        W 9520  17.455   2.662  14.395
44294W        W 9521  25.044  31.959   2.212
44295W        W 9522  37.539  23.644   1.213
44296W        W 9523  39.306  32.764   0.754
44297W        W 9524   3.935  13.801  12.452
44298W        W 9525  39.548  33.669  14.525
44299W        W 9526  16.345  22.601  11.660
44300W        W 9527  23.103  30.353   2.306
44301W        W 9528  18.026  33.009  13.525
44302W        W 9529   2.487  33.770  11.723
44303W        W 9530  26.211  36.512   3.350
44304W        W 9531  26.694  14.208  14.422
44305W        W 9532  39.979   6.629  10.289
44306W        W 9533   6.388   6.489   3.690
44307W        W 9534  35.886  27.072  13.451
44308W        W 9535  14.576  27.976   0.760
44309W        W 9536   1.784  29.226  11.407
44310W        W 9537   1.532  38.294  11.939
44311W        W 9538   8.005   2.963   3.711
44312W        W 9539   3.254   8.575   3.753
44313W        W 9540  28.725   0.334  13.818
44314W        W 9541  40.907  11.249  12.995
44315W        W 9542   4.644  23.023  13.466
44316W        W 9543   8.222  13.671   0.809
44317W        W 9544  22.831   6.328  14.249
44318W        W 9545  11.260  44.323  13.562
44319W        W 9546  27.180  17.765  11.917
44320W        W 9547  22.169  27.455   3.180
44321W        W 9548  13.579  44.380   1.849
44322W        W 9549   9.131   8.395  14.394
44323W        W 9550  40.370  37.420  14.500
44324W        W 9551  35.127   1.888   2.258
44325W        W 9552  28.259  43.057  12.755
44326W        W 9553  25.066  29.398  12.069
44327W        W 9554   0.370  43.266  13.078
44328W        W 9555  26.158   1.740   2.409
44329W        W 9556  21.187  33.150   1.666
44330W        W 9557  41.553  31.376   0.067
44331W        W 9558  35.539  19.662   0.019
44332W        W 9559  24.160  41.883  14.015
44333W        W 9560  16.597  18.735  14.329
44334W        W 9561  42.562  20.711   3.717
44335W        W 9562  14.366  17.024   1.758
44336W        W 9563   8.433  15.611   2.150
44337W        W 9564   0.446  13.826  11.574
44338W        W 9565  29.918  20.706  12.559
44339W        W 9566  21.214  38.873  14.981
44340W        W 9567  22.085  34.067   2.079
44341W        W 9568  12.037   9.029  14.368
44342W        W 9569   5.156  25.069  13.890
44343W        W 9570  41.037  19.667  11.062
44344W        W 9571  10.295  15.269   3.170
44345W        W 9572  35.849  23.487  11.628
44346W        W 9573  29.555  34.070  13.283
44347W        W 9574  15.346  27.498  11.111
44348W        W 9575  32.357  11.212  14.757
44349W        W 9576  12.045   2.753   1.423
44350W        W 9577  19.279  38.152  14.677
44351W        W 9578   1.537  41.402   1.798
44352W        W 9579  44.390  20.200  10.190
44353W        W 9580  21.776   6.705  13.647
44354W        W 9581   3.529  15.789   2.912
44355W        W 9582  25.575  42.770  12.592
44356W        W 9583  35.015  29.514   3.567
44357W        W 9584  19.294   4.426   1.339
44358W        W 9585   3.382  28.048  12.348
44359W        W 9586  30.518  39.005   2.681
44360W        W 9587  16.630   5.680   2.254
44361W        W 9588   6.347  13.595  13.829
44362W        W 9589  30.032  39.586  12.599
44363W        W 9590  30.089  35.076   3.911
44364W        W 9591  40.778  13.213  14.917
44365W        W 9592  44.557  34.918   0.284
44366W        W 9593   4.771  23.395  12.622
44367W        W 9594  17.197  34.757  10.179
44368W        W 9595  26.175   7.515  11.326
44369W        W 9596  18.286  13.182  10.948
44370W        W 9597  33.917  18.188   2.150
44371W        W 9598  27.005   5.716   4.672
44372W        W 9599   6.381  32.814  12.417
44373W        W 9600  28.074  36.114  13.924
44374W        W 9601  23.950   8.661  10.475
44375W        W 9602  20.433  21.845  12.610
44376W        W 9603  20.080   2.352  12.506
44377W        W 9604  42.200  23.656   4.291
44378W        W 9605   1.274   9.278  12.919
44379W        W 9606  23.275  20.694   3.235
44380W        W 9607  13.415  38.882   1.840
44381W        W 9608  37.313   0.901   3.785
44382W        W 9609  10.761  17.365  12.882
44383W        W 9610  10.929  38.807   2.827
44384W        W 9611  31.155  39.875   1.354
44385W        W 9612  10.785   4.791  12.361
44386W        W 9613  17.728   9.178   2.901
44387W        W 9614  38.349  14.478   3.429
44388W        W 9615  38.823   8.049   2.847
44389W        W 9616   7.274  43.333   0.267
44390W        W 9617  17.848  26.589  12.030
44391W        W 9618  38.364   4.985  11.579
44392W        W 9619  32.932   5.271  11.513
44393W        W 9620   7.589  10.987  14.917
44394W        W 9621  14.836  38.504   3.191
44395W        W 9622  36.939  34.187   2.461
44396W        W 9623  38.056  33.078   4.505
44397W        W 9624  22.668   4.356   1.043
44398W        W 9625   3.217  31.443   2.714
44399W        W 9626  25.495  28.449  13.394
44400W        W 9627  41.897  20.352  14.782
44401W        W 9628  27.131  36.046  14.186
44402W        W 9629  16.351  18.198   5.294
44403W        W 9630  30.009   9.499  12.977
44404W        W 9631   6.316   0.480   3.301
44405W        W 9632  28.935  32.666  10.930
44406W        W 9633   1.165   0.468  11.322
44407W        W 9634  10.167   5.226  11.094
44408W        W 9635  18.890  20.119   3.487
44409W        W 9636  16.656  41.085  12.996
44410W        W 9637  23.709  15.741  10.591
44411W        W 9638  11.214   6.443   3.277
44412W        W 9639  25.754  35.520   0.462
44413W        W 9640  23.744  42.090   0.802
44414W        W 9641  29.501  37.908  13.837
44415W        W 9642   6.758  24.126   1.400
44416W        W 9643  28.171  16.763   0.149
44417W        W 9644   5.164  24.410  12.475
44418W        W 9645  10.840  34.060   3.940
44419W        W 9646  22.029  27.026  10.729
44420W        W 9647  11.669   8.121   0.545
44421W        W 9648  14.140  20.132   0.154
44422W        W 9649  42.405   5.736  11.715
44423W        W 9650  15.402   2.856   3.319
44424W        W 9651  19.330  43.949   4.652
44425W        W 9652   4.946  10.670   4.339
44426W        W 9653  36.587   8.172   0.310
44427W        W 9654  39.174  44.879   4.228
44428W        W 9655   7.247  42.645  14.469
44429W        W 9656  39.355  18.281   1.466
44430W        W 9657  16.380  28.124  11.194
44431W        W 9658   3.075  19.141   9.500
44432W        W 9659  36.482  25.649  10.549
44433W        W 9660  27.054   9.739  12.141
44434W        W 9661  41.611  22.555   4.929
44435W        W 9662   2.086  24.087  14.300
44436W        W 9663  25.442  18.772   3.679
44437W        W 9664  24.879  38.775  12.461
44438W        W 9665  18.644  15.022   2.011
44439W        W 9666  11.635   4.970   0.361
44440W        W 9667  12.800  16.144  12.604
44441W        W 9668  11.502   8.327   3.261
44442W        W 9669  38.571   5.449   3.150
44443W        W 9670   7.159  12.837   1.244
44444W        W 9671  11.359  14.502  12.916
44445W        W 9672  35.996  41.309   4.103
44446W        W 9673   6.830  37.443   3.174
44447W        W 9674  24.887  44.664   2.397
44448W        W 9675  16.019  33.055  10.613
44449W        W 9676   6.136   8.681  14.387
44450W        W 9677  35.422   7.487  12.205
44451W        W 9678  21.086  10.861  10.680
44452W        W 9679   5.774  27.772   1.888
44453W        W 9680  37.065   8.366  10.771
44454W        W 9681  37.075  31.641   3.647
44455W        W 9682  18.503   4.447   1.742
44456W        W 9683   0.910   2.442   3.890
44457W        W 9684   8.901  16.640  14.392
44458W        W 9685  13.747   7.551   0.325
44459W        W 9686  19.314   0.982  13.344
44460W        W 9687  39.568   1.150   0.962
44461W        W 9688   4.855  34.099   4.287
44462W        W 9689  21.181  23.746   4.695
44463W        W 9690   5.952  30.548  12.362
44464W        W 9691  25.567  25.680   2.676
44465W        W 9692  40.311  30.046   1.862
44466W        W 9693  39.848  38.086   0.785
44467W        W 9694  14.730   4.797   0.406
44468W        W 9695  41.243  30.050  11.968
44469W        W 9696   1.279   3.474  10.792
44470W        W 9697   5.419  18.570  11.993
44471W        W 9698  11.566   1.901  12.886
44472W        W 9699   1.345  26.219  13.636
44473W        W 9700  26.522  14.004   4.656
44474W        W 9701  26.567  18.061  13.537
44475W        W 9702  30.192  41.075   2.225
44476W        W 9703  13.219  10.912   2.311
44477W        W 9704   6.998  14.103   1.736
44478W        W 9705   1.231  27.079  11.751
44479W        W 9706   2.239  19.729   2.785
44480W        W 9707  26.539  23.772   2.275
44481W        W 9708  41.535  30.866   2.811
44482W        W 9709   0.731  28.494  14.010
44483W        W 9710   9.374  44.528   4.161
44484W        W 9711  36.584   4.099   3.946
44485W        W 9712  11.907  19.239   3.227
44486W        W 9713  12.089  40.373   4.070
44487W        W 9714   2.499   8.388   4.598
44488W        W 9715  35.704  25.070  12.564
44489W        W 9716   4.412  25.403   0.853
44490W        W 9717  32.177  32.960  11.968
44491W        W 9718  30.905  15.098   3.291
44492W        W 9719  30.047  41.392   1.757
44493W        W 9720  18.822  24.278  13.330
44494W        W 9721  14.047  13.366  13.906
44495W        W 9722  19.828  19.999   2.693
44496W        W 9723  33.529  31.623   4.572
44497W        W 9724  43.320  33.808  10.741
44498W        W 9725  33.914  23.590  12.463
44499W        W 9726  24.392   7.396   1.736
44500W        W 9727  37.493  43.479   4.457
44501W        W 9728   2.816   5.406   3.833
44502W        W 9729  43.267  25.685  12.010
44503W        W 9730   2.851  34.067  12.895
44504W        W 9731  22.249   0.169   4.663
44505W        W 9732  20.202  28.487   2.558
44506W        W 9733   7.728  26.620  12.510
44507W        W 9734  12.306  15.581   1.010
44508W        W 9735   2.819  40.453   1.780
44509W        W 9736   5.730  37.953  11.158
44510W        W 9737  39.828  42.252   1.590
44511W        W 9738  43.891   5.906  12.053
44512W        W 9739  17.098  26.405  11.606
44513W        W 9740  37.358   4.914   0.702
44514W        W 9741  24.070   3.602  10.805
44515W        W 9742  26.014  28.950   0.151
44516W        W 9743  38.465  28.196  10.384
44517W        W 9744  23.608  23.114   0.043
44518W        W 9745  20.473   3.211   0.255
44519W        W 9746   3.809  30.307   1.699
44520W        W 9747  10.326  15.108  12.300
44521W        W 9748   7.205   7.827   1.455
44522W        W 9749  14.238  41.755  13.315
44523W        W 9750  37.748  40.522   0.654
44524W        W 9751  31.384  43.448   5.026
44525W        W 9752  30.903  30.462   2.853
44526W        W 9753  42.614  40.444   3.472
44527W        W 9754  39.310  25.662   2.376
44528W        W 9755  28.408  13.407   0.389
44529W        W 9756  29.687   6.274  10.686
44530W        W 9757  17.381  22.022   4.486
44531W        W 9758  41.901  31.608   3.983
44532W        W 9759  19.655  14.073   2.781
44533W        W 9760  38.810  15.425   4.622
44534W        W 9761  27.005  12.859  11.518
44535W        W 9762  15.284   9.488   4.503
44536W        W 9763   8.285  18.139  10.296
44537W        W 9764   7.835  42.680   1.967
44538W        W 9765  21.515  33.929  13.618
44539W        W 9766  42.864   3.981  14.450
44540W        W 9767  27.671   4.205  13.623
44541W        W 9768  10.252  30.438   0.231
44542W        W 9769  16.249  21.700  13.368
44543W        W 9770  44.124  44.747   3.710
44544W        W 9771  35.337   2.597   4.814
44545W        W 9772  29.650  35.561  10.812
44546W        W 9773   6.970   8.255   2.317
44547W        W 9774  30.472   6.877  14.460
44548W        W 9775  14.020   6.902  11.640
44549W        W 9776  14.245  36.073   4.731
44550W        W 9777   0.257  35.951   2.931
44551W        W 9778  44.382  27.956   1.254
44552W        W 9779  15.386  15.307  11.606
44553W        W 9780   3.769  40.795   4.699
44554W        W 9781   1.421  36.085  11.949
44555W        W 9782  10.202   2.270  11.109
44556W        W 9783  20.648  28.978   4.061
44557W        W 9784  30.811  38.265   2.952
44558W        W 9785  23.048  12.750   0.201
44559W        W 9786  21.013  42.283  14.406
44560W        W 9787  25.760  24.524  11.718
44561W        W 9788  21.076  31.192   0.444
44562W        W 9789  13.220  29.582  14.804
44563W        W 9790  11.227  30.963  13.286
44564W        W 9791  40.859  28.917   2.302
44565W        W 9792  16.424   7.746   4.586
44566W        W 9793  15.597  37.291   4.966
44567W        W 9794  33.729  37.935   3.635
44568W        W 9795   3.917  16.722  11.961
44569W        W 9796  22.481  36.868  11.628
44570W        W 9797  38.215  11.600  12.380
44571W        W 9798  39.073  34.935  10.517
44572W        W 9799  20.963   0.238   4.180
44573W        W 9800  34.390  15.027  12.722
44574W        W 9801  18.099   8.364   2.830
44575W        W 9802  18.116  14.784  13.337
44576W        W 9803  28.950  29.155  10.727
44577W        W 9804  10.541  44.434   3.680
44578W        W 9805  22.711  32.039  10.947
44579W        W 9806  14.283  11.683  10.721
44580W        W 9807   2.308  16.258   0.342
44581W        W 9808  26.634  11.837  12.049
44582W        W 9809  26.739  37.529  11.438
44583W        W 9810  28.940  30.945   4.031
44584W        W 9811  22.190  26.519  12.048
44585W        W 9812  27.745  32.681   1.768
44586W        W 9813   9.869   2.790  13.001
44587W        W 9814   1.592  40.909   0.501
44588W        W 9815  16.285  26.672   3.362
44589W        W 9816  33.991  35.375   2.650
44590W        W 9817   0.987   9.938  12.018
44591W        W 9818  38.353  37.916   4.474
44592W        W 9819  19.192  21.516  14.236
44593W        W 9820  38.541   0.426  14.864
44594W        W 9821  12.668  13.193  11.835
44595W        W 9822   1.834  33.925   4.777
44596W        W 9823  39.041  36.779   1.473
44597W        W 9824  16.690   9.199   4.889
44598W        W 9825  34.106  12.491   5.083
44599W        W 9826  31.219  30.516   3.810
44600W        W 9827   0.921  35.455   3.809
44601W        W 9828  29.920  41.777  11.592
44602W        W 9829  36.740   3.180   3.926
44603W        W 9830  23.919   1.816   9.651
44604W        W 9831   8.844  41.834  10.666
44605W        W 9832   2.994  31.296  14.551
44606W        W 9833   6.837   0.022  11.520
44607W        W 9834  25.993   2.024   1.940
44608W        W 9835  21.027  10.610   4.055
44609W        W 9836  40.307  21.997   4.850
44610W        W 9837   6.478  36.699  10.830
44611W        W 9838   8.657  11.256  13.935
44612W        W 9839  31.952  17.266   2.709
44613W        W 9840  29.209  33.564   4.831
44614W        W 9841  31.712   0.755  12.630
44615W        W 9842  28.989  19.355  14.562
44616W        W 9843  33.748  28.557   4.812
44617W        W 9844  41.404   0.995  14.854
44618W        W 9845  11.976  11.785  12.820
44619W        W 9846  41.047   9.743   2.221
44620W        W 9847  34.537  24.933  13.943
44621W        W 9848  19.583   7.994   0.799
44622W        W 9849  27.987  26.999   1.337
44623W        W 9850  32.959  15.055   4.552
44624W        W 9851  26.071  17.178   0.710
44625W        W 9852  32.972  32.504  12.016
44626W        W 9853  19.772  40.422  12.826
44627W        W 9854  32.443  10.817   0.105
44628W        W 9855  23.158  18.330  13.119
44629W        W 9856  15.427  22.151   2.395
44630W        W 9857  30.578   7.379  13.135
44631W        W 9858  44.949  10.877   3.672
44632W        W 9859  19.535  10.179  11.416
44633W        W 9860  26.015  33.477   4.261
44634W        W 9861   5.665  31.893  11.587
44635W        W 9862  29.195  15.222  14.830
44636W        W 9863   8.588  32.692  10.213
44637W        W 9864  18.952  24.146   2.369
44638W        W 9865  35.444  17.290   2.399
44639W        W 9866  16.724  19.365   3.728
44640W        W 9867  22.037  32.515   2.389
44641W        W 9868  16.421  16.997  14.939
44642W        W 9869  30.999   5.617   0.521
44643W        W 9870  18.733  25.296  13.314
44644W        W 9871  34.364   3.499   1.910
44645W        W 9872  44.814  16.371  11.390
44646W        W 9873  26.983   6.754   2.936
44647W        W 9874   0.398   7.184   0.473
44648W        W 9875  43.761  37.476   2.153
44649W        W 9876  38.767  37.621   4.192
44650W        W 9877  30.885  12.127   9.721
44651W        W 9878   3.340  16.215   2.686
44652W        W 9879  41.497  31.095  13.051
44653W        W 9880  33.656  10.822   4.161
44654W        W 9881  22.177  25.170   2.736
44655W        W 9882  41.292  34.022  12.936
44656W        W 9883  11.343  35.959  11.006
44657W        W 9884  32.416  33.479   2.635
44658W        W 9885  26.200   9.356   4.058
44659W        W 9886  27.277  11.251   3.797
44660W        W 9887  39.297  13.597   4.258
44661W        W 9888  43.030  23.132  14.447
44662W        W 9889   8.736  36.466  12.651
44663W        W 9890  19.768  32.717  14.181
44664W        W 9891  31.382   3.099  14.088
44665W        W 9892  26.743   9.854   2.296
44666W        W 9893  26.150  26.214  10.964
44667W        W 9894  39.466  30.646   2.851
44668W        W 9895  18.499  41.878   1.725
44669W        W 9896  21.341  40.734   3.709
44670W        W 9897  22.559  27.349   3.780
44671W        W 9898  32.635  32.916   3.843
44672W        W 9899  23.144  20.318  11.931
44673W        W 9900  29.511  28.088   1.935
44674W        W 9901  19.007  38.105  11.737
44675W        W 9902  25.995   0.890  13.582
44676W        W 9903   6.814   8.916   1.629
44677W        W 9904  41.276  25.541  12.875
44678W        W 9905   5.790  36.424  12.106
44679W        W 9906  17.158   5.196  11.671
44680W        W 9907  28.933   2.537   1.449
44681W        W 9908  12.361  17.153   5.050
44682W        W 9909  19.945  33.496   3.416
44683W        W 9910  35.054   3.146  12.018
44684W        W 9911  33.362   9.615   2.387
44685W        W 9912  25.150  15.769   1.180
44686W        W 9913   1.306  26.998  12.816
44687W        W 9914  42.367   8.251   0.721
44688W        W 9915  12.609  40.989  11.615
44689W        W 9916  40.507   0.408  14.769
44690W        W 9917  37.668  25.317  11.970
44691W        W 9918  24.727  31.282   2.609
44692W        W 9919   5.879   5.150  10.759
44693W        W 9920  31.178   9.115  13.452
44694W        W 9921   6.821  31.208  13.795
44695W        W 9922  30.271  14.629   0.024
44696W        W 9923   0.267  11.332   1.720
44697W        W 9924  11.588  23.146   2.379
44698W        W 9925   4.493  22.708   1.893
44699W        W 9926  12.058  37.874  11.454
44700W        W 9927  36.838  41.819  14.831
44701W        W 9928  15.446  22.055   4.447
44702W        W 9929  19.761  40.715  10.510
44703W        W 9930  38.225  27.686  13.865
44704W        W 9931  23.628   8.943  12.519
44705W        W 9932  19.642  22.269  14.728
44706W        W 9933   8.721  41.805  14.571
44707W        W 9934   9.821  26.713   0.315
44708W        W 9935  22.790  20.461  12.550
44709W        W 9936  10.873  27.784  13.474
44710W        W 9937   3.310  22.555  14.744
44711W        W 9938  14.267  29.452  14.830
44712W        W 9939  41.790  17.598   4.318
44713W        W 9940  32.049  31.767  14.313
44714W        W 9941  37.014  43.809  14.998
44715W        W 9942   5.688  38.917   4.369
44716W        W 9943  36.420  31.156   4.072
44717W        W 9944   7.656   6.390   2.106
44718W        W 9945  20.912  24.800  11.863
44719W        W 9946  16.695  32.082   0.486
44720W        W 9947  18.648  39.360  14.959
44721W        W 9948  28.432  13.126  13.499
44722W        W 9949  20.121  21.814  10.846
44723W        W 9950   7.317  13.433   4.317
44724W        W 9951  25.268   9.633   0.412
44725W        W 9952  33.866  32.611   1.208
44726W        W 9953  41.986  39.502  11.889
44727W        W 9954  17.627   1.387  14.526
44728W        W 9955  39.664  43.471  10.524
44729W        W 9956  38.496  24.404  14.327
44730W        W 9957   3.794  32.049  11.501
44731W        W 9958  23.492  14.708   0.387
44732W        W 9959  25.576  11.911  13.374
44733W        W 9960  28.470  24.611  11.664
44734W        W 9961  42.027  32.982   2.310
44735W        W 9962   8.901   1.209   3.728
44736W        W 9963  29.368   0.355  11.693
44737W        W 9964  24.321  16.720   0.049
44738W        W 9965   7.251  23.889   1.331
44739W        W 9966   9.813  19.886   1.716
44740W        W 9967  21.824  42.820   2.751
44741W        W 9968  35.111   2.370   0.898
44742W        W 9969  34.538  13.259   5.130
44743W        W 9970   0.506  24.310   1.288
44744W        W 9971  36.496  15.182   2.789
44745W        W 9972  24.232  15.147   1.890
44746W        W 9973  44.355  11.866  10.703
44747W        W 9974  20.808  22.753  12.511
44748W        W 9975   5.441  34.341   1.196
44749W        W 9976   6.959   0.615  11.537
44750W        W 9977  37.787   7.926  11.662
44751W        W 9978   0.530   7.353  11.308
44752W        W 9979  14.458  42.728   1.355
44753W        W 9980   5.859   8.198   1.086
44754W        W 9981  11.406   0.343  13.640
44755W        W 9982   4.880   5.663   3.723
44756W        W 9983  25.018   3.027   4.677
44757W        W 9984  38.613  14.870   3.154
44758W        W 9985  39.456  37.503   0.324
44759W        W 9986  15.095   2.230   0.852
44760W        W 9987  14.295   5.478   2.839
44761W        W 9988  12.384  24.074  12.919
44762W        W 9989  18.710  18.805   1.350
44763W        W 9990   2.308  14.670   2.349
44764W        W 9991   7.846  31.987   1.926
44765W        W 9992  21.079  44.134  10.559
44766W        W 9993  43.012  23.271  13.953
44767W        W 9994  37.071   3.451   2.578
44768W        W 9995  22.374  44.293   4.219
44769W        W 9996  35.038   4.767  14.339
44770W        W 9997  10.228   6.705  12.165
44771W        W 9998  44.340  42.732  14.041
44772W        W 9999  19.448  43.571   3.209
44773W        W10000  29.512   7.852  10.844
44774W        W10001  23.743  33.294   3.904
44775W        W10002  41.277  21.252   2.681
44776W        W10003   0.447  34.377   3.317
44777W        W10004  41.128  21.320   1.532
44778W        W10005  26.139  28.593   1.354
44779W        W10006  43.857   5.134  10.453
44780W        W10007  43.409  33.139   1.950
44781W        W10008  22.692  41.258   0.328
44782W        W10009   0.563  20.248  12.065
44783W        W10010  33.660   3.506  13.505
44784W        W10011  13.750  27.068  11.937
44785W        W10012  29.643   9.779  13.893
44786W        W10013   5.266  33.976   3.114
44787W        W10014  23.583  43.381  13.022
44788W        W10015  42.744  17.936   4.119
44789W        W10016  37.858  39.230  12.992
44790W        W10017  17.191  42.823  11.975
44791W        W10018  31.936  11.198  11.593
44792W        W10019  28.631   8.091   1.058
44793W        W10020   7.629  26.030   0.367
44794W        W10021   8.427  15.018  12.888
44795W        W10022  26.714  29.455  11.123
44796W        W10023   0.838  38.013   3.201
44797W        W10024  42.247  35.333  13.090
44798W        W10025   8.742   0.002  12.995
44799W        W10026  37.538  36.647  12.929
44800W        W10027  18.839  34.734   4.133
44801W        W10028  11.186  36.130   3.987
44802W        W10029  23.475  36.771   2.782
44803W        W10030  26.978  24.346   4.137
44804W        W10031  16.603  39.881  14.491
44805W        W10032  11.350   8.316  14.565
44806W        W10033   2.993  37.402  11.145
44807W        W10034  31.127  38.984  12.054
44808W        W10035  14.978  39.565  13.193
44809W        W10036  12.433  21.601  14.723
44810W        W10037  12.426  30.493  14.573
44811W        W10038  12.930  21.471  13.266
44812W        W10039  18.759  24.546   1.226
44813W        W10040   8.610  24.554  12.999
44814W        W10041  37.643  16.895  10.993
44815W        W10042   6.784  25.074   3.602
44816W        W10043  30.943  27.892  14.618
44817W        W10044  41.802  15.527   2.831
44818W        W10045  19.338  10.710  12.488
44819W        W10046   7.261  17.158  13.752
44820W        W10047  29.645  25.028   2.517
44821W        W10048  36.199  12.876   3.381
44822W        W10049  10.604  21.023  14.816
44823W        W10050   5.314  41.595  14.785
44824W        W10051  37.062   2.219   3.636
44825W        W10052  34.025  25.022   4.139
44826W        W10053  12.032  30.729   5.416
44827W        W10054  21.194  12.781   2.847
44828W        W10055  34.102  11.339   1.646
44829W        W10056  22.102  25.815  12.533
44830W        W10057  32.211  34.928  12.178
44831W        W10058   5.402   5.434  13.937
44832W        W10059  38.805   1.482   2.772
44833W        W10060   9.183  31.358  12.000
44834W        W10061  13.351   8.073   1.820
44835W        W10062  24.277  43.763  12.212
44836W        W10063  43.936  18.964  14.215
44837W        W10064  44.760  37.582  12.518
44838W        W10065   6.888   0.099  12.877
44839W        W10066  14.171   4.811   1.277
44840W        W10067   9.815  10.177   0.865
44841W        W10068  24.542  10.726  11.615
44842W        W10069  29.563  20.971   1.356
44843W        W10070  28.049   9.392  14.346
44844W        W10071  41.101  19.203   2.775
44845W        W10072  43.003  44.482   2.729
44846W        W10073  16.984   7.116   3.068
44847W        W10074  26.998  29.615  10.613
44848W        W10075  35.034   6.455   0.834
44849W        W10076  24.709  28.991  11.478
44850W        W10077  19.808  43.815   3.494
44851W        W10078  26.103   9.606  13.086
44852W        W10079  32.819  33.789   5.208
44853W        W10080   8.331  36.927   4.401
44854W        W10081  16.714  40.556  12.998
44855W        W10082  31.647  11.726  13.030
44856W        W10083  10.417   1.952  11.599
44857W        W10084  36.514  38.031  12.891
44858W        W10085  17.894   8.612   4.935
44859W        W10086  23.856  40.958   2.304
44860W        W10087  12.736  29.688  13.104
44861W        W10088  22.032  31.197  10.929
44862W        W10089  20.698  29.643  12.639
44863W        W10090  32.014  13.767  14.244
44864W        W10091  10.992   4.814  11.445
44865W        W10092  28.754  22.730  12.839
44866W        W10093  31.360  15.059  13.027
44867W        W10094  12.164  39.791  12.008
44868W        W10095  11.464  14.786   5.347
44869W        W10096  11.170   0.332   0.550
44870W        W10097   5.991  42.398  14.909
44871W        W10098  12.616   6.760  12.672
44872W        W10099   7.135  18.776   3.323
44873W        W10100   4.973  24.610  11.070
44874W        W10101   8.609  35.984  13.357
44875W        W10102  29.437  25.725  11.206
44876W        W10103  33.382   7.970  14.901
44877W        W10104  41.413  33.953   4.118
44878W        W10105   5.724  29.054  12.105
44879W        W10106  40.079  30.389  13.879
44880W        W10107  26.122  13.390  11.601
44881W        W10108  16.218  41.212   1.925
44882W        W10109  30.528  21.799   2.845
44883W        W10110   8.450  25.935  13.931
44884W        W10111  29.046  37.094   9.662
44885W        W10112  30.253   9.271  14.453
44886W        W10113  27.011   1.046  14.449
44887W        W10114   1.268   1.277   3.258
44888W        W10115  17.183  31.353  13.227
44889W        W10116  38.345  23.560   0.809
44890W        W10117   9.781  41.010  14.675
44891W        W10118  20.170   3.738   2.881
44892W        W10119   6.917   9.419   3.253
44893W        W10120  30.131  44.926   3.091
44894W        W10121  37.305  26.107   0.870
44895W        W10122  35.125   8.219   1.242
44896W        W10123  33.141  32.041   3.230
44897W        W10124   5.378  37.888   1.873
44898W        W10125  37.934  43.527  11.181
44899W        W10126  39.426  20.498  14.490
44900W        W10127   3.611  34.086   4.818
44901W        W10128   7.715  22.701   4.813
44902W        W10129  29.621  22.911  14.385
44903W        W10130  36.824  28.520  13.736
44904W        W10131   8.761  33.058  11.459
44905W        W10132   3.542  18.095   3.489
44906W        W10133  14.902  18.665   0.788
44907W        W10134  22.949  14.638   4.993
44908W        W10135  19.045  40.482   3.073
44909W        W10136   8.659  21.585  12.734
44910W        W10137  41.126  40.093   1.874
44911W        W10138  10.810  31.123   0.551
44912W        W10139  22.464   8.862   2.347
44913W        W10140  23.299  33.609  13.519
44914W        W10141  12.292   0.649  14.576
44915W        W10142  23.163  20.801  11.061
44916W        W10143  16.799  19.198   1.638
44917W        W10144  28.759  26.832   5.438
44918W        W10145   5.477  32.045   4.218
44919W        W10146   1.834  27.726  10.710
44920W        W10147  13.730  35.836  14.260
44921W        W10148  44.321  25.574  12.499
44922W        W10149  37.833  22.734  14.480
44923W        W10150  43.260  28.562   5.843
44924W        W10151  35.744  38.753  13.065
44925W        W10152  40.955  30.674   0.021
44926W        W10153   4.034  22.214  11.592
44927W        W10154  10.688   8.705  12.425
44928W        W10155  26.449  28.681  14.370
44929W        W10156  43.804  31.703  12.544
44930W        W10157  38.350  20.021   3.875
44931W        W10158  32.669  36.803  13.308
44932W        W10159   9.185   8.164  14.881
44933W        W10160  12.131  23.661  14.951
44934W        W10161  41.486  38.256  14.215
44935W        W10162  17.228  33.475  12.025
44936W        W10163  33.078  19.149   4.617
44937W        W10164  38.372   9.254  14.430
44938W        W10165  17.320  27.515   4.701
44939W        W10166   5.694  36.545  11.176
44940W        W10167  14.295  31.818   2.730
44941W        W10168  13.658   6.840   3.841
44942W        W10169  43.026  12.211   2.782
44943W        W10170  21.941   4.333  12.565
44944W        W10171  11.766  18.775   0.246
44945W        W10172  34.085  36.076  13.429
44946W        W10173  12.438  42.101   1.865
44947W        W10174  38.946   9.933   1.374
44948W        W10175  26.179  26.037  13.540
44949W        W10176   5.170  28.037   1.761
44950W        W10177  36.374   3.245   1.155
44951W        W10178   4.794  21.599  12.550
44952W        W10179  34.098  28.678  10.602
44953W        W10180  39.448   5.045   0.271
44954W        W10181  22.051  41.991  13.926
44955W        W10182  18.216  29.117   4.171
44956W        W10183  12.735  18.159   3.444
44957W        W10184   5.319  22.339   0.348
44958W        W10185  17.462   5.880   0.496
44959W        W10186   9.133  19.471   0.306
44960W        W10187  39.442  25.871   3.745
44961W        W10188  36.284  42.074   1.297
44962W        W10189  19.030   3.547  13.311
44963W        W10190  26.516  32.488   3.422
44964W        W10191   5.875  16.074  13.329
44965W        W10192  34.576   0.194   4.271
44966W        W10193  21.520   7.321   4.316
44967W        W10194  29.090  11.125   2.267
44968W        W10195  30.754  39.744   2.001
44969W        W10196  10.655  16.751   2.728
44970W        W10197  25.246  44.376  13.583
44971W        W10198  30.909  16.281  14.802
44972W        W10199  30.539   8.200  14.778
44973W        W10200   5.249  28.619   3.613
44974W        W10201   7.671   4.895  12.390
44975W        W10202  32.100  17.885   0.262
44976W        W10203  44.578  38.960  10.043
44977W        W10204   5.780  40.311   4.531
44978W        W10205  21.292  33.037   4.581
44979W        W10206  43.921  21.736   4.613
44980W        W10207  15.572  43.221   2.780
44981W        W10208  26.160  34.343  14.964
44982W        W10209   5.852  12.610  14.400
44983W        W10210   7.880  20.206  13.992
44984W        W10211  25.614  15.804   4.273
44985W        W10212  17.198  43.491   4.389
44986W        W10213   2.682  28.607   1.309
44987W        W10214  38.529  35.356   2.420
44988W        W10215   9.369  41.046  10.983
44989W        W10216   9.919  11.652   4.632
44990W        W10217  43.616   5.389   1.322
44991W        W10218  41.965   3.118   1.384
44992W        W10219  27.759   2.320  11.943
44993W        W10220   9.191  42.250   2.297
44994W        W10221  31.571   9.945   1.374
44995W        W10222  38.017  25.730  12.158
44996W        W10223   8.260  18.091  13.008
44997W        W10224   4.538  23.090   4.137
44998W        W10225   2.332  16.664   3.377
44999W        W10226   6.152   1.467  14.750
45000W        W10227  37.806  11.618  14.386
45001W        W10228  33.724  14.017   4.103
45002W        W10229  16.100  20.829   4.597
45003W        W10230  10.130  44.296  10.128
45004W        W10231  17.626  37.957  13.560
45005W        W10232  21.581  10.599   4.644
45006W        W10233  12.185  24.338   4.831
45007W        W10234  18.241  18.516   4.126
45008W        W10235  12.145  31.577   4.972
45009W        W10236  28.987   8.378   1.372
45010W        W10237  44.602  35.869   0.090
45011W        W10238  18.618  28.857   4.383
45012W        W10239   0.687  23.996  11.538
45013W        W10240   2.281  36.991  10.649
45014W        W10241  14.312  15.724  12.944
45015W        W10242  36.393  41.950  12.592
45016W        W10243   5.157  18.544   4.188
45017W        W10244  44.986   2.768   4.827
45018W        W10245  15.911  29.920  12.673
45019W        W10246  12.564  34.982   0.901
45020W        W10247  18.551  18.004   0.826
45021W        W10248  14.820  44.097  11.301
45022W        W10249  19.519   4.983  13.649
45023W        W10250  21.789  13.808   1.361
45024W        W10251  27.755  24.291   3.758
45025W        W10252  25.616  33.404   3.616
45026W        W10253  24.825  35.928   1.322
45027W        W10254  18.233  33.648  14.122
45028W        W10255   7.003  26.773  12.847
45029W        W10256  14.282  15.699   0.398
45030W        W10257  23.067  43.224   4.237
45031W        W10258  18.311   0.308   4.582
45032W        W10259  14.127  24.289   4.555
45033W        W10260   4.428  30.029  11.376
45034W        W10261  37.514  27.233  12.942
45035W        W10262  32.608  32.453  11.603
45036W        W10263  44.494   8.213   1.744
45037W        W10264  31.508   6.333   0.575
45038W        W10265  34.928  22.010   0.298
45039W        W10266  22.887  28.644   2.674
45040W        W10267  41.803  27.008   3.668
45041W        W10268   2.416  15.731   4.269
45042W        W10269   0.501  33.865   3.439
45043W        W10270  20.303   6.242   1.987
45044W        W10271  23.403  26.309  14.385
45045W        W10272  36.485   8.886   4.469
45046W        W10273  17.140  11.296  14.839
45047W        W10274   7.861  23.687  14.472
45048W        W10275   6.899  22.144  10.994
45049W        W10276  31.231   0.311   0.270
45050W        W10277  21.151  20.184   3.279
45051W        W10278  26.692  29.396   2.852
45052W        W10279  14.720  40.159   3.111
45053W        W10280  34.618  24.091   3.901
45054W        W10281  41.636  34.605   1.739
45055W        W10282  25.454  34.630   0.395
45056W        W10283  38.937   8.947  13.872
45057W        W10284  26.005   5.937   0.389
45058W        W10285  39.697  11.400  10.502
45059W        W10286   6.627   5.220  14.022
45060W        W10287   1.911   4.258   3.202
45061W        W10288   7.777   3.214  14.869
45062W        W10289   9.103  17.792  10.173
45063W        W10290  18.594  17.899  10.300
45064W        W10291  32.376  42.967  14.606
45065W        W10292  33.020  14.056  14.384
45066W        W10293  23.008  22.796   3.142
45067W        W10294  28.455  34.071  13.173
45068W        W10295  41.704  43.776   3.704
45069W        W10296  36.810  14.568   3.728
45070W        W10297  19.099   0.487  14.855
45071W        W10298  42.124   9.672   1.225
45072W        W10299  19.116  21.174  13.871
45073W        W10300  25.447   7.929  13.337
45074W        W10301  32.687  28.078  10.233
45075W        W10302  13.233  37.589   3.140
45076W        W10303   6.886  18.354  11.655
45077W        W10304   7.296   9.772   3.238
45078W        W10305  16.599   1.598  13.754
45079W        W10306  41.786  39.898   3.473
45080W        W10307   8.148  40.092  10.714
45081W        W10308  11.509  22.116   9.833
45082W        W10309   8.252  21.928  11.996
45083W        W10310  10.293  14.676   1.935
45084W        W10311  39.775  14.876   1.841
45085W        W10312  20.927  10.806   2.311
45086W        W10313  19.164  38.606  11.107
45087W        W10314  21.275   5.883  14.981
45088W        W10315  18.804  36.861  12.464
45089W        W10316  34.804  12.649   0.964
45090W        W10317  13.535  16.355   1.793
45091W        W10318  37.927  26.461   3.360
45092W        W10319   6.220  16.738   1.897
45093W        W10320  24.705  19.637   3.258
45094W        W10321  13.983  27.649  11.225
45095W        W10322   3.708  13.764   1.399
45096W        W10323  22.774  21.233   3.625
45097W        W10324   1.006  36.798  12.434
45098W        W10325  18.140   0.988   3.824
45099W        W10326  32.173  36.913   0.244
45100W        W10327  20.836  21.185  11.715
45101W        W10328  24.989   7.852   0.835
45102W        W10329  17.511  16.750  13.485
45103W        W10330   9.612  22.602  12.030
45104W        W10331  44.173  26.569   5.555
45105W        W10332  29.684  27.651  13.542
45106W        W10333  29.955  29.038   0.781
45107W        W10334   5.876  11.622   0.713
45108W        W10335  36.840  26.605   3.335
45109W        W10336   9.198   4.789  12.632
45110W        W10337  43.388   5.062  14.114
45111W        W10338   9.297  41.718   4.361
45112W        W10339   1.402  40.889   1.386
45113W        W10340  18.003   5.813   0.469
45114W        W10341  26.157  33.141   2.270
45115W        W10342  23.270  20.157  14.421
45116W        W10343  13.932  10.023   3.599
45117W        W10344  26.387  39.419   5.221
45118W        W10345  32.299  27.141   3.545
45119W        W10346  41.662   1.378   4.824
45120W        W10347  34.326   3.910  14.922
45121W        W10348  17.732   3.789   4.163
45122W        W10349  21.630   2.349  14.907
45123W        W10350  34.608  40.465   2.609
45124W        W10351   3.405  37.572   1.307
45125W        W10352  42.901   1.747  11.912
45126W        W10353   8.357  34.522   1.590
45127W        W10354  16.186   7.688  10.739
45128W        W10355  14.128  18.687  12.002
45129W        W10356  12.908  16.080  13.488
45130W        W10357  36.479  12.431   3.374
45131W        W10358  41.214   8.314   1.108
45132W        W10359  10.245  24.076  10.699
45133W        W10360  33.125  13.136   0.277
45134W        W10361  18.657   7.234  11.929
45135W        W10362  31.410  44.555  14.904
45136W        W10363   3.809  14.158   0.829
45137W        W10364   1.223   8.215  12.811
45138W        W10365  23.029  29.455  12.648
45139W        W10366  34.966  15.555  13.903
45140W        W10367  14.808  28.210  12.985
45141W        W10368  41.954  36.027   0.719
45142W        W10369  27.252   6.245   1.597
45143W        W10370  44.445   9.094   3.630
45144W        W10371  39.625  44.332  10.211
45145W        W10372  26.960  34.072   4.250
45146W        W10373  23.520   9.801  13.448
45147W        W10374  18.863  14.591  13.985
45148W        W10375  33.382  34.243  10.753
45149W        W10376  14.257   2.195   3.785
45150W        W10377  24.072  28.396  11.177
45151W        W10378  40.623  16.737   1.181
45152W        W10379  30.182  12.345  12.586
45153W        W10380  30.687   3.753   4.247
45154W        W10381  12.925  19.891   3.640
45155W        W10382   5.363  12.629  11.001
45156W        W10383  24.579  25.319  11.636
45157W        W10384  44.366  28.145  11.734
45158W        W10385  24.107  14.853   4.461
45159W        W10386  35.676  42.855  11.187
45160W        W10387   1.254  10.285  12.961
45161W        W10388   6.477  39.151  14.429
45162W        W10389  33.437  10.107  14.305
45163W        W10390  44.310  21.581   4.067
45164W        W10391  10.340   3.803   0.461
45165W        W10392   8.413  42.046   2.752
45166W        W10393  13.142  10.062  14.954
45167W        W10394  33.872   2.338  14.934
45168W        W10395   3.414  37.076  13.790
45169W        W10396  41.847  44.555  13.917
45170W        W10397  15.305  39.939   4.620
45171W        W10398  14.889  34.321   3.849
45172W        W10399   7.436  11.317  10.652
45173W        W10400  27.336  12.248   0.513
45174W        W10401   0.776  14.648  11.070
45175W        W10402  39.317  22.434  12.066
45176W        W10403  12.655   1.776  14.172
45177W        W10404  14.118   0.703  11.361
45178W        W10405  12.172  30.933   3.743
45179W        W10406   5.462  44.256   1.712
45180W        W10407  34.528   8.410   2.562
45181W        W10408   4.948  29.007   4.594
45182W        W10409  24.787  39.315  12.485
45183W        W10410  12.572  22.820  14.197
45184W        W10411   0.769  25.075   0.545
45185W        W10412  37.930  28.416   3.213
45186W        W10413  12.712   9.377  14.858
45187W        W10414  23.034  33.474  14.511
45188W        W10415  15.074  32.056   3.844
45189W        W10416  34.557  15.989   3.759
45190W        W10417  20.269  38.061   1.005
45191W        W10418  29.993   7.700  12.771
45192W        W10419  14.324  38.636   1.834
45193W        W10420  34.882   7.848   2.842
45194W        W10421  10.194  37.064   2.270
45195W        W10422  26.167  20.234   5.004
45196W        W10423  18.973   4.157   0.429
45197W        W10424  30.026  11.852   2.497
45198W        W10425  19.806  22.654  13.901
45199W        W10426  19.263  23.718   2.276
45200W        W10427  14.772  16.725   4.518
45201W        W10428  18.069  26.590   2.137
45202W        W10429   0.305  35.294  14.348
45203W        W10430  27.200   9.333  11.719
45204W        W10431   6.013  35.473   4.118
45205W        W10432  33.840   9.674  10.442
45206W        W10433  35.685  12.359   1.309
45207W        W10434  36.952  35.386  11.209
45208W        W10435  30.826  34.982   4.953
45209W        W10436  17.988  37.090  13.372
45210W        W10437   9.861   0.543   3.286
45211W        W10438  22.305  22.102   1.574
45212W        W10439  41.399  12.244  12.412
45213W        W10440  26.198  34.186  11.230
45214W        W10441  10.875  44.031   1.916
45215W        W10442  38.078  38.025   0.914
45216W        W10443  43.195   9.089  10.860
45217W        W10444  11.263  25.225   2.286
45218W        W10445  20.564  35.801  14.921
45219W        W10446  31.582   5.031  12.192
45220W        W10447  41.847   5.248   9.834
45221W        W10448   7.321   2.436  10.669
45222W        W10449   6.222  26.541   3.686
45223W        W10450   2.504  40.213   2.361
45224W        W10451  44.017  22.288   1.947
45225W        W10452  30.442  24.533  12.072
45226W        W10453  37.406  37.588  10.511
45227W        W10454  41.023  40.422   1.247
45228W        W10455   3.484   0.334  14.363
45229W        W10456  37.381  11.827   4.120
45230W        W10457  28.756  37.042  12.819
45231W        W10458  43.734  22.006  13.877
45232W        W10459  23.530  44.790  12.286
45233W        W10460  43.284   0.401  12.677
45234W        W10461   9.366  31.447  10.961
45235W        W10462  25.209  27.156   1.467
45236W        W10463  40.062  39.483  14.744
45237W        W10464   8.145   4.718  11.048
45238W        W10465  30.842  24.726   1.394
45239W        W10466  31.163  16.523   3.662
45240W        W10467   9.608  34.814  10.966
45241W        W10468  33.166  21.677  11.539
45242W        W10469  42.589  31.137   1.243
45243W        W10470  22.463  17.072   0.528
45244W        W10471  27.595  43.194   2.141
45245W        W10472  23.908  21.938  12.277
45246W        W10473  36.358  12.575  12.906
45247W        W10474  35.042  44.257  12.913
45248W        W10475  29.000  44.357   1.000
45249W        W10476  20.266  16.346  13.321
45250W        W10477  30.077  22.069   0.725
45251W        W10478  20.064  44.192   0.184
45252W        W10479   0.237  44.705  14.491
45253W        W10480  29.068  34.655  12.555
45254W        W10481   3.283  25.215  10.940
45255W        W10482  41.944  30.563  10.081
45256W        W10483  16.000  10.847  12.021
45257W        W10484  18.636  37.899   4.596
45258W        W10485  44.124  41.113  12.642
45259W        W10486   7.901  25.015   2.550
45260W        W10487  10.886   8.199  13.030
45261W        W10488  19.098  25.966  14.279
45262W        W10489   3.315  21.527  11.193
45263W        W10490  37.340  44.756   4.113
45264W        W10491  32.589   3.476   4.972
45265W        W10492  11.329  14.311   3.632
45266W        W10493  43.251  13.702   3.196
45267W        W10494  13.592  27.921  13.511
45268W        W10495   4.405  44.983   3.246
45269W        W10496   7.547  21.112  11.627
45270W        W10497  18.552   5.693   2.106
45271W        W10498  16.337   5.150  14.314
45272W        W10499   1.963  41.965   0.913
45273W        W10500  33.337   1.077   3.032
45274W        W10501  44.373  18.053   3.697
45275W        W10502  41.419  32.513   0.376
45276W        W10503   4.875  40.885   1.126
45277W        W10504  13.291  16.030   2.437
45278W        W10505  10.422  43.341  13.092
45279W        W10506  15.586  29.509  12.527
45280W        W10507   8.574  17.493  10.703
45281W        W10508  11.688  31.218  11.973
45282W        W10509  27.872  25.540   2.411
45283W        W10510  35.674  25.643  14.275
45284W        W10511  33.610  10.018  11.614
45285W        W10512  37.895   0.209  13.446
45286W        W10513   8.744  25.183   4.699
45287W        W10514   4.825   9.976   2.903
45288W        W10515  24.997  14.203   1.195
45289W        W10516   8.428  26.438   4.100
45290W        W10517  41.344  20.826  10.716
45291W        W10518  42.948   9.311   1.263
45292W        W10519  17.205  38.071  12.351
45293W        W10520  25.028   3.996   0.317
45294W        W10521  35.490  37.286   1.331
45295W        W10522  19.624  14.588   2.777
45296W        W10523  21.771  32.364   1.752
45297W        W10524   5.554  13.282   1.162
45298W        W10525   4.993  31.415   2.256
45299W        W10526  22.772   6.131  12.900
45300W        W10527  27.898  34.492  13.875
45301W        W10528  34.791  36.077   0.716
45302W        W10529   6.575  20.588   4.831
45303W        W10530  22.539   5.546   2.107
45304W        W10531  25.845  13.174   4.557
45305W        W10532  38.428   0.852   1.324
45306W        W10533  21.755  25.603  14.910
45307W        W10534  41.286  13.316  12.015
45308W        W10535  14.182  20.226  11.452
45309W        W10536  38.117  33.288   0.796
45310W        W10537  33.464   1.848   4.166
45311W        W10538  11.201  37.999   1.506
45312W        W10539   1.638  22.958  10.993
45313W        W10540  13.069  12.152  10.472
45314W        W10541  35.967  40.560   4.531
45315W        W10542   8.445  40.412  12.641
45316W        W10543  13.973  35.379  11.529
45317W        W10544  34.914  29.617   1.373
45318W        W10545  26.692  41.555   1.749
45319W        W10546  12.273  13.169   2.171
45320W        W10547  29.583  18.737  13.937
45321W        W10548  24.608   0.450   0.853
45322W        W10549   4.333   9.263   0.195
45323W        W10550  22.560  41.195   4.245
45324W        W10551  15.548  32.421   0.087
45325W        W10552  25.967   9.634   1.261
45326W        W10553  29.697  36.233  14.128
45327W        W10554  42.250  36.915   0.846
45328W        W10555   8.889  31.412  12.594
45329W        W10556  21.043  42.292  11.663
45330W        W10557  44.315  12.388  10.621
45331W        W10558   2.765  17.127  12.873
45332W        W10559  27.064   0.203  10.095
45333W        W10560  20.020   3.475   4.047
45334W        W10561  42.649  16.212   2.668
45335W        W10562  44.795  11.739  13.130
45336W        W10563   8.635  18.733   0.428
45337W        W10564   6.370   8.863   1.338
45338W        W10565  29.965  27.777   0.427
45339W        W10566  40.900  25.749  11.250
45340W        W10567  12.459  11.345   1.422
45341W        W10568  33.088   9.031   3.877
45342W        W10569  31.554  35.490   5.373
45343W        W10570  35.071  34.412   1.630
45344W        W10571  42.069  30.420   5.058
45345W        W10572  33.008  41.887   1.742
45346W        W10573  42.738  41.508  11.394
45347W        W10574  29.097  15.371   2.903
45348W        W10575  11.265  34.236   4.327
45349W        W10576  33.931  18.165  13.832
45350W        W10577   2.022  21.374  12.064
45351W        W10578  38.358  33.956  12.559
45352W        W10579  35.702  22.537   2.578
45353W        W10580  16.385   5.355  10.686
45354W        W10581  43.326  36.196  11.617
45355W        W10582  23.292  31.540  12.514
45356W        W10583  24.797  42.979   2.868
45357W        W10584   5.780  21.674  12.815
45358W        W10585  42.885   3.102  12.200
45359W        W10586  23.589   6.026  14.616
45360W        W10587  21.693  17.200  13.055
45361W        W10588  38.628  29.379   3.668
45362W        W10589   7.809  34.952   1.706
45363W        W10590  44.813   8.744  12.522
45364W        W10591  15.593   2.311   0.761
45365W        W10592  42.028  11.328   4.157
45366W        W10593  15.791  24.638  11.999
45367W        W10594  22.575   8.715   3.374
45368W        W10595  29.407  44.223  13.500
45369W        W10596  40.818  37.911   4.650
45370W        W10597  21.236  38.836   1.363
45371W        W10598  30.135  30.143   4.395
45372W        W10599  28.461  33.653   3.469
45373W        W10600  11.111  39.265  10.648
45374W        W10601   0.040  12.764   3.417
45375W        W10602  44.229   0.480  11.638
45376W        W10603  21.307  31.479  10.645
45377W        W10604  42.368  40.933  12.411
45378W        W10605  39.369  35.338   0.942
45379W        W10606  39.334  17.625   4.218
45380W        W10607  17.640  14.713   4.441
45381W        W10608  25.761   0.229   0.352
45382W        W10609   4.109  16.766   0.526
45383W        W10610  26.120  17.799  13.557
45384W        W10611  25.981  24.504   1.781
45385W        W10612  21.526  11.364  11.248
45386W        W10613  23.951  20.105  11.047
45387W        W10614   7.237  40.334  10.721
45388W        W10615  38.418  27.172  12.972
45389W        W10616   6.940  12.759  12.488
45390W        W10617  35.574  32.798   4.349
45391W        W10618  22.715  16.490  12.574
45392W        W10619  33.516  12.378   1.681
45393W        W10620  17.263  15.712   3.333
45394W        W10621   6.935  11.343  13.065
45395W        W10622  37.528  13.866   3.303
45396W        W10623   8.882   0.485  13.954
45397W        W10624  20.013  32.293  12.010
45398W        W10625  42.003  16.136  14.990
45399W        W10626  19.336  11.935  11.468
45400W        W10627   8.210  41.604  14.517
45401W        W10628   0.479   2.955  11.596
45402W        W10629  15.771  30.888   1.060
45403W        W10630  40.528   4.328   2.329
45404W        W10631   9.219   3.574  14.916
45405W        W10632  26.556   3.168   2.362
45406W        W10633  24.839  23.120   2.696
45407W        W10634  29.578  43.236   1.491
45408W        W10635   1.899  19.203   1.299
45409W        W10636   4.087  30.311  11.113
45410W        W10637  11.342   7.224   4.076
45411W        W10638  41.321   1.025   4.066
45412W        W10639  28.095  17.350  12.956
45413W        W10640  27.307  31.264  14.382
45414W        W10641  34.392  18.599   2.386
45415W        W10642  10.433  18.723  10.374
45416W        W10643  23.978  10.188   0.247
45417W        W10644   9.923  26.594  14.557
45418W        W10645  18.198  20.292  12.821
45419W        W10646  18.552  26.460   2.258
45420W        W10647  23.254  16.241   4.613
45421W        W10648   2.391  19.141   2.215
45422W        W10649  21.028  21.896   1.528
45423W        W10650  42.460  12.866   2.745
45424W        W10651  22.666  38.350  10.659
45425W        W10652  37.960  28.175  11.571
45426W        W10653  31.585  23.563  11.997
45427W        W10654  22.282  15.770  12.055
45428W        W10655  39.395  10.694   2.372
45429W        W10656  43.009   3.480  14.410
45430W        W10657  29.256   8.341  14.519
45431W        W10658  34.435  39.006  12.569
45432W        W10659  29.091  28.505   4.033
45433W        W10660   6.191  32.347  12.501
45434W        W10661   3.841  14.579   0.279
45435W        W10662  13.820  42.459  12.775
45436W        W10663  22.180  35.404  12.103
45437W        W10664  26.141  21.191  11.617
45438W        W10665  32.535   3.385   0.916
45439W        W10666  24.213  15.419  11.451
45440W        W10667  39.937  18.237   4.512
45441W        W10668  37.899  23.203   1.000
45442W        W10669   4.308   9.882   4.669
45443W        W10670  25.154  29.029  12.469
45444W        W10671  25.988  18.142   4.890
45445W        W10672  44.277  44.770  10.632
45446W        W10673  13.904  33.144  11.669
45447W        W10674   7.200  22.242  10.578
45448W        W10675   2.010   6.853   4.048
45449W        W10676  40.276  12.754   1.424
45450W        W10677  14.806  24.578   4.247
45451W        W10678  19.999   0.460   0.753
45452W        W10679  17.838   0.464  14.460
45453W        W10680   6.487   3.734   2.284
45454W        W10681  44.896  27.284   2.477
45455W        W10682  29.019  30.583  11.272
45456W        W10683  23.226  37.599  11.124
45457W        W10684  17.993  14.491  11.350
45458W        W10685   4.934  44.170  13.716
45459W        W10686  13.277   1.513   1.837
45460W        W10687   9.918   1.824  11.664
45461W        W10688  31.595  16.700  13.394
45462W        W10689  33.859  37.331   2.191
45463W        W10690   3.329  27.936  13.284
45464W        W10691  24.729  11.371   2.813
45465W        W10692  16.531  19.823  14.389
45466W        W10693  44.048   6.816  11.982
45467W        W10694  33.031   8.086  10.672
45468W        W10695  32.064   6.925  12.946
45469W        W10696  12.843  26.001  13.261
45470W        W10697  19.459   5.263  10.611
45471W        W10698  34.159  36.370  11.136
45472W        W10699  12.615  39.345   2.969
45473W        W10700   3.992  41.834  11.185
45474W        W10701  32.456  17.776   5.082
45475W        W10702  43.941  19.021  11.050
45476W        W10703  37.101  18.640  11.234
45477W        W10704  24.062   1.088  14.387
45478W        W10705  13.313  21.312   2.905
45479W        W10706   7.441  34.326   0.469
45480W        W10707  44.635   2.727   0.965
45481W        W10708  21.730  31.023  13.637
45482W        W10709  13.243  24.664   2.166
45483W        W10710  17.029  31.553   1.337
45484W        W10711   9.346   0.267  13.854
45485W        W10712  36.866  42.415  14.323
45486W        W10713  29.103  36.028   3.167
45487W        W10714   6.624  14.328   0.816
45488W        W10715  32.593  21.784  12.955
45489W        W10716  11.872  16.433   5.112
45490W        W10717  15.769  36.839   0.813
45491W        W10718  36.956  25.698  11.412
45492W        W10719  19.633   5.991  12.542
45493W        W10720   3.497  23.655  14.781
45494W        W10721  27.482  14.181  14.935
45495W        W10722   2.167  25.176   2.666
45496W        W10723   9.715   2.769   4.344
45497W        W10724  32.458  18.527  12.112
45498W        W10725  19.967  42.076  12.626
45499W        W10726  19.595   2.856  13.541
45500W        W10727   1.644  30.562  13.117
45501W        W10728  42.557  22.767   0.445
45502W        W10729  23.769   7.290   3.236
45503W        W10730  32.346  18.780   3.233
45504W        W10731   2.994  40.720   5.116
45505W        W10732  16.706  32.491   0.854
45506W        W10733  38.140   0.803   3.336
45507W        W10734  39.981   8.448  10.019
45508W        W10735  41.565   4.451  11.991
45509W        W10736  13.105  41.969   4.606
45510W        W10737   5.236  39.867   1.787
45511W        W10738  22.154  28.982  13.742
45512W        W10739  37.765   9.306   1.747
45513W        W10740  39.456  26.574  11.575
45514W        W10741  17.571  30.876   4.560
45515W        W10742  20.721  17.073   1.376
45516W        W10743  26.228   6.459   0.362
45517W        W10744  14.076  26.198   1.824
45518W        W10745   6.385  22.029  11.161
45519W        W10746  22.370   6.275   0.387
45520W        W10747  34.011  23.899   4.586
45521W        W10748  32.116  13.694   1.133
45522W        W10749  34.134  31.347  10.785
45523W        W10750  10.890  44.339  10.709
45524W        W10751  14.670   5.867  10.757
45525W        W10752   1.877   3.170  12.515
45526W        W10753  14.629  36.331   3.716
45527W        W10754  15.862  21.327  12.938
45528W        W10755   3.216  14.804   3.989
45529W        W10756   6.849  43.791   4.663
45530W        W10757  32.580   7.262   0.913
45531W        W10758  14.344   8.727   0.959
45532W        W10759  41.877  28.736   2.167
45533W        W10760  23.907   8.466   0.957
45534W        W10761  23.214  43.894   4.986
45535W        W10762  37.843  24.020  12.475
45536W        W10763   7.401  27.389   0.407
45537W        W10764  22.574  38.947   4.308
45538W        W10765   2.286  18.703   0.561
45539W        W10766  12.786  37.978   1.723
45540W        W10767  24.495  42.917  14.351
45541W        W10768   9.139   8.677   4.300
45542W        W10769  12.065  41.981   2.220
45543W        W10770  39.998   7.975   3.792
45544W        W10771  14.846  18.281  14.116
45545W        W10772  11.782  22.076  11.434
45546W        W10773  25.635  12.415  13.442
45547W        W10774  23.464  44.298  10.148
45548W        W10775  37.422  30.485   2.325
45549W        W10776  33.543  13.710  12.337
45550W        W10777  38.026  13.936  12.606
45551W        W10778   2.773  40.369   2.773
45552W        W10779   0.818  14.040   2.215
45553W        W10780  38.390  27.755   1.183
45554W        W10781  18.690  26.493   3.195
45555W        W10782   3.326  33.919  13.082
45556W        W10783  42.123  30.091   1.341
45557W        W10784  15.181  27.152  11.481
45558W        W10785  44.357  25.660  11.194
45559W        W10786  38.921   4.407  13.928
45560W        W10787  15.918  12.748  12.144
45561W        W10788  34.507   8.604   1.857
45562W        W10789  30.997  20.087   1.004
45563W        W10790  44.098  21.467   2.256
45564W        W10791   9.897  27.254  11.082
45565W        W10792   4.398  37.966  12.491
45566W        W10793  31.672  23.711  13.984
45567W        W10794   0.138   6.194  10.679
45568W        W10795  36.786   7.342  11.580
45569W        W10796  19.336  26.013   4.134
45570W        W10797  30.613  33.125   4.819
45571W        W10798  13.625  13.519  12.630
45572W        W10799  41.709  22.257  14.039
45573W        W10800  17.784  18.520   0.402
45574W        W10801  26.093   8.330  11.216
45575W        W10802   1.658  20.601  10.661
45576W        W10803  12.645  10.916  14.863
45577W        W10804  27.224   8.904  10.966
45578W        W10805  18.486   2.313  11.891
45579W        W10806  32.115  12.122   1.946
45580W        W10807  12.648  11.303   4.704
45581W        W10808  36.120   8.380  12.261
45582W        W10809  17.553  39.990   2.321
45583W        W10810   6.852   9.105  14.478
45584W        W10811  43.741  10.356  13.952
45585W        W10812  12.676  13.583   1.183
45586W        W10813   9.585  40.086  14.936
45587W        W10814  28.003  40.386  14.301
45588W        W10815  31.560  34.128   0.509
45589W        W10816  25.112  34.874   4.559
45590W        W10817  26.675  38.041   0.464
45591W        W10818  11.146  37.596   2.933
45592W        W10819  18.622  38.136  12.112
45593W        W10820  43.118  12.139  11.073
45594W        W10821  27.937  25.000  14.991
45595W        W10822  44.493  35.548   1.730
45596W        W10823  11.344  37.794  14.505
45597W        W10824  14.026  12.879  13.038
45598W        W10825  14.917  43.961   0.875
45599W        W10826  30.141   9.995  12.949
45600W        W10827  22.472  32.530   2.125
45601W        W10828  10.378  39.377   4.457
45602W        W10829  42.195  16.497   0.761
45603W        W10830  42.273  27.213  13.327
45604W        W10831  38.613  37.101  12.968
45605W        W10832   8.097  26.032  14.322
45606W        W10833   2.496  15.052   1.352
45607W        W10834  19.844  41.859  12.120
45608W        W10835  29.413  16.910   4.145
45609W        W10836  20.159  18.804   0.073
45610W        W10837  41.212  28.740  11.512
45611W        W10838  23.639  27.576   4.425
45612W        W10839  40.519  10.339   4.156
45613W        W10840  24.899  35.303   0.511
45614W        W10841  37.271  34.955  11.630
45615W        W10842  29.301   5.000  11.064
45616W        W10843   7.355   3.770  11.926
45617W        W10844  17.217   1.188  14.287
45618W        W10845  36.382   6.639   2.799
45619W        W10846  40.947  36.682   4.319
45620W        W10847  29.651   0.757   4.541
45621W        W10848  18.747  40.162  13.835
45622W        W10849  35.562  41.450  11.030
45623W        W10850  13.955  11.822   4.594
45624W        W10851   1.081   6.290  11.098
45625W        W10852   2.863  25.796   1.429
45626W        W10853  23.108  17.773  14.433
45627W        W10854  22.017  11.355  12.554
45628W        W10855  27.223  30.114   4.135
45629W        W10856  11.701  14.829  14.919
45630W        W10857   7.100  42.860   0.492
45631W        W10858  14.371   9.320  12.250
45632W        W10859  10.905  12.322  12.500
45633W        W10860  15.341  40.803   0.001
45634W        W10861   8.117  33.050   2.067
45635W        W10862  10.059  32.002   4.030
45636W        W10863  21.596  37.888  14.647
45637W        W10864  40.963   3.612   4.105
45638W        W10865  42.272   2.025   2.701
45639W        W10866  26.483  23.315   4.626
45640W        W10867  31.156  34.458   3.345
45641W        W10868  27.446  26.193   0.558
45642W        W10869  29.608  39.283   0.990
45643W        W10870  36.042  28.005   4.246
45644W        W10871  18.529  24.773   2.115
45645W        W10872  19.695   0.702   4.072
45646W        W10873  36.937  18.561  11.727
45647W        W10874  43.322   9.652   4.386
45648W        W10875  37.540   2.950   2.166
45649W        W10876  44.045  17.634   3.682
45650W        W10877  22.973  27.306   4.943
45651W        W10878  36.495  13.161   4.641
45652W        W10879   1.768  33.066  14.318
45653W        W10880  18.533  27.725   3.753
45654W        W10881  44.865  16.815  13.544
45655W        W10882  16.624  19.165   4.183
45656W        W10883   7.686  16.908   2.776
45657W        W10884  38.889  43.219  14.011
45658W        W10885  42.902  30.455   3.116
45659W        W10886  30.900  34.131   4.982
45660W        W10887   1.911  22.070  12.179
45661W        W10888  33.382   0.040   3.989
45662W        W10889  11.575  41.033  11.458
45663W        W10890  16.299  17.385  12.562
45664W        W10891  36.835  35.339   3.964
45665W        W10892  29.213  34.803  14.409
45666W        W10893  17.881   5.194  11.080
45667W        W10894   9.742   6.307   4.906
45668W        W10895   3.674  29.297  13.382
45669W        W10896  29.219  10.739   1.879
45670W        W10897  28.672  40.213   4.562
45671W        W10898  23.037  20.082   2.595
45672W        W10899   0.509  14.720  11.520
45673W        W10900   3.775  32.048  10.965
45674W        W10901  19.774  13.791   4.098
45675W        W10902  20.265  44.961  10.530
45676W        W10903  38.356  15.091   0.807
45677W        W10904   3.492  19.104   0.326
45678W        W10905   5.361  26.545   2.272
45679W        W10906  16.833  18.587  13.815
45680W        W10907  17.155  27.907  12.494
45681W        W10908   5.902   3.248   0.837
45682W        W10909  12.921  34.997   4.255
45683W        W10910  44.968  15.840  13.466
45684W        W10911  18.699  26.193   3.640
45685W        W10912  40.498   5.440   2.234
45686W        W10913   4.247  27.116   3.222
45687W        W10914  15.567  19.913   0.370
45688W        W10915   6.822  29.514  12.112
45689W        W10916   9.302  28.224   2.312
45690W        W10917  41.557  29.760   4.210
45691W        W10918  28.979   5.416   1.734
45692W        W10919  34.313  38.117  10.307
45693W        W10920  32.831  43.461  14.839
45694W        W10921  40.697  22.969  13.065
45695W        W10922   0.972  21.151   2.214
45696W        W10923  33.345   9.173   0.456
45697W        W10924  27.277  37.041   4.443
45698W        W10925  21.054  37.460   2.206
45699W        W10926  19.509  40.449  13.470
45700W        W10927  21.252   1.840  11.215
45701W        W10928  40.237   9.745   0.803
45702W        W10929  25.327   3.496   2.731
45703W        W10930   6.265   5.201  14.992
45704W        W10931  38.800  10.210  14.442
45705W        W10932  30.957   8.721   1.335
45706W        W10933  24.721  43.298   0.471
45707W        W10934  30.140  15.598   2.206
45708W        W10935   4.994  27.408   1.250
45709W        W10936  16.515  35.423   4.547
45710W        W10937  18.108   1.829  10.511
45711W        W10938  14.086   0.565   2.088
45712W        W10939  29.942  13.728  14.056
45713W        W10940  33.060  26.140   4.312
45714W        W10941   8.697  27.284  13.048
45715W        W10942  11.766  11.298   4.819
45716W        W10943  26.538   8.174   2.818
45717W        W10944  39.496   9.590  11.668
45718W        W10945  38.978  17.157  14.364
45719W        W10946  21.195   8.178   5.115
45720W        W10947   9.785  26.148  12.951
45721W        W10948  18.079  30.892   4.518
45722W        W10949   0.519  23.082  11.928
45723W        W10950  14.659  21.127   1.886
45724W        W10951  39.438  35.394   4.444
45725W        W10952  21.814   1.885   4.977
45726W        W10953  21.927  20.489  12.890
45727W        W10954  16.876  41.415  12.645
45728W        W10955  43.427   5.265  10.187
45729W        W10956  33.128  31.048  13.004
45730W        W10957  17.326   2.649   0.386
45731W        W10958   6.778  35.636   5.000
45732W        W10959   0.744  22.164  11.538
45733W        W10960  35.972   5.835   0.325
45734W        W10961  39.783   9.630  12.063
45735W        W10962  13.989  37.085  13.646
45736W        W10963   0.086  39.797  11.086
45737W        W10964  25.581  24.241  12.112
45738W        W10965  33.774  10.377  12.970
45739W        W10966   6.216   0.674  13.063
45740W        W10967  43.064  39.620  14.972
45741W        W10968  37.962   9.358  13.162
45742W        W10969  34.951  26.684  14.005
45743W        W10970   0.981   1.508  11.505
45744W        W10971  15.307   3.744  13.829
45745W        W10972  41.021   1.023  11.117
45746W        W10973   8.168  42.565   3.735
45747W        W10974   9.580   3.236  13.001
45748W        W10975  28.483  31.365   2.664
45749W        W10976   0.020  11.506  14.858
45750W        W10977  25.531  10.411  12.533
45751W        W10978  34.159  13.025   1.432
45752W        W10979   5.318  12.285  12.623
45753W        W10980  35.366   0.986   4.590
45754W        W10981  20.811  26.162  14.022
45755W        W10982  18.892  32.461  14.264
45756W        W10983  22.300  20.784  12.654
45757W        W10984   8.324  10.637   3.883
45758W        W10985  34.420  24.948   1.554
45759W        W10986  27.559  21.234  12.062
45760W        W10987  20.248  26.271   2.301
45761W        W10988  37.864  26.447   4.396
45762W        W10989  30.765   3.266   1.296
45763W        W10990   4.800   5.283  14.879
45764W        W10991  22.262  20.657  10.812
45765W        W10992  35.300  41.754  14.748
45766W        W10993  21.292  10.115   3.240
45767W        W10994  41.428  27.144  10.731
45768W        W10995  25.064  40.554  13.000
45769W        W10996  30.219   0.937  13.381
45770W        W10997   6.917  19.978  13.434
45771W        W10998  13.287  25.182   3.970
45772W        W10999  34.525  27.656   4.179
45773W        W11000  32.391  27.698  11.124
45774W        W11001  28.475  29.163   3.148
45775W        W11002  31.155  12.818  11.672
45776W        W11003  42.888  29.205  13.965
45777W        W11004  41.594  24.150   4.064
45778W        W11005  35.283  38.586   1.002
45779W        W11006  44.382  38.207  13.657
45780W        W11007  38.774  14.285   0.677
45781W        W11008  36.327   4.272   1.464
45782W        W11009  13.356  20.521  14.997
45783W        W11010   3.884  20.243  11.643
45784W        W11011  20.093   5.322   4.366
45785W        W11012   7.254  40.493   1.969
45786W        W11013  36.279  32.551  13.598
45787W        W11014  12.261   4.581  12.187
45788W        W11015   5.360  35.097  14.711
45789W        W11016  37.557  20.670  11.327
45790W        W11017  27.592  11.384   4.189
45791W        W11018  33.745  12.637   4.144
45792W        W11019  25.144  40.007   2.746
45793W        W11020  25.092  42.173  13.850
45794W        W11021  17.491  36.102   0.768
45795W        W11022   5.240  11.681   2.203
45796W        W11023  29.547  12.951   0.458
45797W        W11024  31.768  43.464  14.861
45798W        W11025  41.041  37.315  13.341
45799W        W11026  13.807  37.039   2.890
45800W        W11027  20.146  10.088  12.110
45801W        W11028   5.504   6.502   0.693
45802W        W11029  14.031  42.826   4.221
45803W        W11030   3.796  27.011   1.373
45804W        W11031  14.704   0.309  12.017
45805W        W11032   8.800  44.035   4.193
45806W        W11033  37.347  35.256  14.295
45807W        W11034  39.017  13.723  10.747
45808W        W11035  41.936  27.743   2.290
45809W        W11036  38.898  24.799   1.529
45810W        W11037  34.106  42.254   2.785
45811W        W11038   8.730  40.524   4.564
45812W        W11039  12.283  38.983   0.731
45813W        W11040  10.849  19.312   0.896
45814W        W11041   4.484  41.660   4.160
45815W        W11042  38.336  30.395  11.542
45816W        W11043  24.005  44.392   4.092
45817W        W11044  36.535  31.140  10.811
45818W        W11045   5.290  10.376  14.249
45819W        W11046  28.569  40.392   1.501
45820W        W11047  28.192   2.742  11.098
45821W        W11048  22.572  15.299   3.674
45822W        W11049  18.587  24.181   0.912
45823W        W11050   7.798  14.125   0.238
45824W        W11051  40.545  31.776  14.132
45825W        W11052  37.487   5.333   1.017
45826W        W11053   0.685  34.551  14.089
45827W        W11054  13.414  25.027  14.015
45828W        W11055  35.486   7.926   2.399
45829W        W11056   5.227   0.981   2.791
45830W        W11057   9.830  16.104   1.492
45831W        W11058  28.943  33.426   9.992
45832W        W11059  12.963   2.021  11.183
45833W        W11060  36.194  30.829   0.710
45834W        W11061  31.764  37.744   4.527
45835W        W11062   6.401   5.217  10.856
45836W        W11063  13.056  42.909   1.384
45837W        W11064  34.530  35.032  10.976
45838W        W11065  38.126  27.944   3.278
45839W        W11066  19.660  41.177   3.343
45840W        W11067   7.043  43.789   0.355
45841W        W11068  44.308  31.451   0.026
45842W        W11069   1.270  25.810  13.964
45843W        W11070   6.762   3.391   4.573
45844W        W11071  28.415   9.373   2.833
45845W        W11072  38.171  26.010   4.091
45846W        W11073  22.056  12.374   2.806
45847W        W11074  26.622   8.427   3.854
45848W        W11075  28.059   0.911   1.286
45849W        W11076  23.141  28.179  13.366
45850W        W11077  25.547  11.078  11.625
45851W        W11078  29.705  31.641  14.472
45852W        W11079  30.899   7.660   0.664
45853W        W11080  35.852   4.570  10.266
45854W        W11081   0.530  35.039  12.528
45855W        W11082  36.856   1.963   0.696
45856W        W11083   8.748  37.676  10.607
45857W        W11084  23.194  44.501   1.694
45858W        W11085  21.676  22.040   1.021
45859W        W11086   9.869   2.470   0.377
45860W        W11087  14.653  41.360   3.747
45861W        W11088  35.328  43.187  12.018
45862W        W11089  26.077   5.488  13.076
45863W        W11090  10.365   6.893   2.882
45864W        W11091  33.352  19.693  12.900
45865W        W11092   0.534  39.748   0.999
45866W        W11093   6.183   1.373  13.560
45867W        W11094  18.957  31.429  11.430
45868W        W11095  24.246   9.350  13.099
45869W        W11096  22.070   7.864   2.655
45870W        W11097  36.056  30.453  13.865
45871W        W11098  36.521  11.934  12.547
45872W        W11099  39.060  35.654  13.095
45873W        W11100  15.530  25.084   2.002
45874W        W11101   6.867  25.815  12.998
45875W        W11102  26.428  29.056   0.782
45876W        W11103  11.224  33.567  11.993
45877W        W11104  17.085  31.132   0.876
45878W        W11105  43.215  30.076   4.310
45879W        W11106  34.242   0.235   3.396
45880W        W11107  19.327  20.982   1.708
45881W        W11108   5.121  39.021  12.413
45882W        W11109  28.643  23.659  12.858
45883W        W11110  41.833  18.827   0.722
45884W        W11111  18.320  24.025   3.630
45885W        W11112   2.970  22.474   0.886
45886W        W11113  10.397  38.459  11.503
45887W        W11114  44.274  41.434   3.296
45888W        W11115  33.828  16.082  14.532
45889W        W11116  43.885  27.946  11.728
45890W        W11117  34.507  15.749  10.745
45891W        W11118   6.589  32.920  14.799
45892W        W11119  21.328  16.575  13.577
45893W        W11120   9.638  30.880   1.821
45894W        W11121  23.708   3.391   1.666
45895W        W11122   4.239  42.235  11.580
45896W        W11123  14.038  19.357  10.840
45897W        W11124   9.466   7.358  12.108
45898W        W11125  10.516  29.898   0.899
45899W        W11126   8.394   4.240  11.042
45900W        W11127  34.478   2.353   3.210
45901W        W11128  36.408  21.177  10.142
45902W        W11129  29.381   6.853  12.321
45903W        W11130  10.148   8.305   3.681
45904W        W11131  19.183   3.944  12.895
45905W        W11132   2.506  12.364  14.427
45906W        W11133  30.702  21.878   1.203
45907W        W11134  28.761  22.548   4.154
45908W        W11135   4.481   7.306  10.816
45909W        W11136  11.870  19.569   2.819
45910W        W11137  39.747  14.056  11.246
45911W        W11138  40.796  29.010  11.624
45912W        W11139  13.219  32.564  13.600
45913W        W11140   8.888  31.756  12.163
45914W        W11141  14.260  39.190  12.527
45915W        W11142   7.801  13.725   2.462
45916W        W11143  13.290  21.069   2.432
45917W        W11144  42.908  19.109   0.884
45918W        W11145  28.616   0.346   3.680
45919W        W11146  33.477  29.977  12.330
45920W        W11147   7.414   8.115  12.014
45921W        W11148  30.473  29.553   9.962
45922W        W11149  38.771   5.244  11.911
45923W        W11150   7.930  15.202   0.811
45924W        W11151  24.292   2.321   5.425
45925W        W11152   3.182  14.072   2.750
45926W        W11153  23.792  12.126  13.423
45927W        W11154  14.756  14.504  12.735
45928W        W11155  16.806  23.511  13.779
45929W        W11156  38.322  18.934  13.242
45930W        W11157  19.149  29.888  13.276
45931W        W11158  37.016   0.800  11.240
45932W        W11159   2.673  32.505  11.647
45933W        W11160  12.896  18.079   3.929
45934W        W11161  13.132  10.207   1.830
45935W        W11162  39.411  39.318   1.815
45936W        W11163  24.767  32.966  11.650
45937W        W11164  13.703   9.132   2.388
45938W        W11165   1.819  40.038  13.927
45939W        W11166  26.735  20.593  11.459
45940W        W11167  25.641   7.349  11.205
45941W        W11168  15.138  42.243   0.825
45942W        W11169  28.995  43.570   0.256
45943W        W11170  38.349   1.954   4.391
45944W        W11171   1.887  41.494  11.659
45945W        W11172  32.765  25.689   4.371
45946W        W11173  27.017  35.039  12.117
45947W        W11174  35.151  28.909  14.572
45948W        W11175  27.507  36.593   5.527
45949W        W11176  35.408  37.050  10.409
45950W        W11177  22.300  34.612  14.268
45951W        W11178   1.113   1.954  14.908
45952W        W11179   9.037  43.283   3.693
45953W        W11180  25.295  44.618   1.213
45954W        W11181  14.172   1.696   2.356
45955W        W11182  17.779  33.178   0.230
45956W        W11183  20.642  30.540  12.879
45957W        W11184  30.606  14.711   2.377
45958W        W11185  12.478   2.375  11.095
45959W        W11186  39.328   6.193  12.801
45960W        W11187  28.377  44.385   0.327
45961W        W11188  42.985  40.605  10.718
45962W        W11189  15.576  29.696   3.769
45963W        W11190   5.317  43.959   2.818
45964W        W11191  30.901   1.061  10.684
45965W        W11192  24.985  44.454   5.063
45966W        W11193  43.289  36.561  12.967
45967W        W11194  33.842  23.716  14.470
45968W        W11195  18.733  12.381   0.904
45969W        W11196  41.607  15.299  11.453
45970W        W11197  36.479  31.509   4.501
45971W        W11198  28.148  30.186  14.576
45972W        W11199  44.478   5.356   4.600
45973W        W11200  27.458  25.479   4.170
45974W        W11201  20.225   1.448  13.099
45975W        W11202  21.757   7.262   0.786
45976W        W11203  41.026   4.221   1.211
45977W        W11204  28.353  44.005   3.405
45978W        W11205  18.584  16.676   4.498
45979W        W11206  20.399   8.816   5.237
45980W        W11207  36.923  19.662  14.743
45981W        W11208  17.583  23.275  11.325
45982W        W11209  16.793  22.038   0.931
45983W        W11210  42.976  39.426  12.700
45984W        W11211   9.379  13.299   4.043
45985W        W11212   9.255  38.553  13.349
45986W        W11213  24.422  22.238  12.083
45987W        W11214  20.584  40.104  13.934
45988W        W11215   2.473  13.191   4.980
45989W        W11216   0.447  44.826   2.482
45990W        W11217  14.488  33.743  14.441
45991W        W11218  36.492  26.424   3.659
45992W        W11219  33.898   7.070   0.703
45993W        W11220  35.169  12.516   4.340
45994W        W11221  36.833  37.801   0.794
45995W        W11222   3.673   0.918   0.207
45996W        W11223  39.789  18.602   1.465
45997W        W11224  38.059   0.574  14.992
45998W        W11225  26.998   6.029   4.257
45999W        W11226  20.278   2.749  14.898
46000W        W11227  25.082  11.414  12.994
46001W        W11228  38.122  39.775  11.953
46002W        W11229  31.433  14.475   2.744
46003W        W11230  26.728  41.289  14.874
46004W        W11231  13.573   1.251  14.332
46005W        W11232  20.748  40.494  13.173
46006W        W11233   6.425  34.382  12.340
46007W        W11234  29.494  38.427  12.297
46008W        W11235  31.614  36.000   5.423
46009W        W11236   0.383  39.407  11.968
46010W        W11237  19.878   1.547   0.492
46011W        W11238  21.730  35.572  10.467
46012W        W11239  16.128  31.639  11.520
46013W        W11240  23.779  24.333  12.088
46014W        W11241   6.145   5.848  14.372
46015W        W11242   3.960  35.457   3.861
46016W        W11243  16.402  29.468  11.991
46017W        W11244  32.106  43.795  14.111
46018W        W11245  15.247  12.775   1.215
46019W        W11246   9.478  22.031  12.594
46020W        W11247  22.531  36.165   1.493
46021W        W11248  23.561  35.183   1.630
46022W        W11249  10.384  34.932   1.342
46023W        W11250   5.796  28.549  11.605
46024W        W11251  27.776  44.771   2.671
46025W        W11252  18.105   0.247   4.126
46026W        W11253  39.370   2.991   1.682
46027W        W11254  17.635  17.092  12.437
46028W        W11255   5.465  28.643   1.453
46029W        W11256  24.262  10.084  11.186
46030W        W11257  27.240   9.851  14.438
46031W        W11258  38.573   7.740   3.802
46032W        W11259  22.592  39.366  10.666
46033W        W11260  11.782  31.484  13.551
46034W        W11261  37.515  12.339  14.431
46035W        W11262  21.646  35.701  13.695
46036W        W11263   9.425  17.795   5.051
46037W        W11264  35.324  38.746   4.287
46038W        W11265  40.456  39.628  13.860
46039W        W11266  32.118   4.156  13.357
46040W        W11267  26.590  32.342   0.218
46041W        W11268  11.894  28.709  12.166
46042W        W11269  18.522  23.641  14.801
46043W        W11270  29.447   3.350   4.006
46044W        W11271  10.690  40.520  14.520
46045W        W11272  16.588  28.078   3.194
46046W        W11273  30.930  14.370   4.376
46047W        W11274  21.934  42.889   1.303
46048W        W11275  37.945  26.537   1.517
46049W        W11276  33.422  26.683  12.978
46050W        W11277  40.867   4.389  14.863
46051W        W11278   6.628  12.624  11.497
46052W        W11279  31.033  28.423  12.797
46053W        W11280  24.957  23.245   1.581
46054W        W11281  36.090  42.839   3.267
46055W        W11282  26.090  10.704   4.352
46056W        W11283  23.172  38.437   2.670
46057W        W11284  17.110   3.260   4.995
46058W        W11285  10.610  35.173   1.828
46059W        W11286  34.247  19.177  11.151
46060W        W11287  16.055  34.390  12.909
46061W        W11288  13.466  37.320  10.693
46062W        W11289   3.482  15.475   1.386
46063W        W11290  33.973   2.948  12.897
46064W        W11291  40.446  13.346   3.296
46065W        W11292  32.944   2.692   3.907
46066W        W11293  18.041  38.909  13.680
46067W        W11294  13.993  18.697   2.011
46068W        W11295   8.228  40.260  13.076
46069W        W11296  12.328  28.768   0.925
46070W        W11297  22.705  13.069   3.742
46071W        W11298  35.189  28.048   0.702
46072W        W11299  19.059  11.647   1.162
46073W        W11300   4.578  22.925  12.541
46074W        W11301  29.548  20.714   2.669
46075W        W11302  20.839  23.487  13.963
46076W        W11303  22.771  16.818  13.776
46077W        W11304  22.517  22.142   3.701
46078W        W11305  42.910  16.421   0.380
46079W        W11306  13.824  11.823  13.820
46080W        W11307  31.585  25.124  10.456
46081W        W11308  17.002  23.262  11.082
46082W        W11309  28.034  28.101  10.760
46083W        W11310  41.701  28.521  11.524
46084W        W11311  13.668  29.230   0.749
46085W        W11312  19.682  13.936  12.829
46086W        W11313  12.813  26.558   1.696
46087W        W11314  35.864  44.429   4.243
46088W        W11315  41.379  39.920  14.627
46089W        W11316  24.196  12.441  13.421
46090W        W11317   2.365   0.920  10.675
46091W        W11318   6.849  21.722  12.921
46092W        W11319   7.359  32.961  13.583
46093W        W11320  41.052  44.037  11.177
46094W        W11321   1.207  31.854   3.199
46095W        W11322   1.648   3.433   0.266
46096W        W11323  42.809   8.167   2.602
46097W        W11324   8.470   1.430   0.379
46098W        W11325  34.570  18.772   4.797
46099W        W11326  12.260  37.371  13.120
46100W        W11327  31.913  14.640  13.857
46101W        W11328  36.453   9.604  13.947
46102W        W11329   6.870  18.340   3.094
46103W        W11330  23.776  26.035  12.305
46104W        W11331  38.233  25.852  13.353
46105W        W11332   8.211   7.358   1.295
46106W        W11333  29.504  43.074   1.010
46107W        W11334  38.468   8.748   2.641
46108W        W11335  21.760  38.397  12.492
46109W        W11336   5.052  25.571   2.441
46110W        W11337  16.126  22.683  13.382
46111W        W11338  21.887   2.875  11.621
46112W        W11339  16.880  22.070   4.362
46113W        W11340  42.583  10.346  13.370
46114W        W11341  10.792   5.266  12.561
46115W        W11342  28.655  41.946   3.560
46116W        W11343   4.332  18.495   3.690
46117W        W11344  32.939   5.790  11.947
46118W        W11345   4.696  43.023   1.429
46119W        W11346  16.129  15.765  11.995
46120W        W11347  21.053   0.310   0.525
46121W        W11348  41.732  21.332  13.912
46122W        W11349  10.195  30.166  11.572
46123W        W11350  30.603  14.730   1.299
46124W        W11351   8.386  12.655   0.174
46125W        W11352  18.236  37.307   9.793
46126W        W11353   9.333  18.697   1.212
46127W        W11354  26.094   0.431  12.591
46128W        W11355  29.447  29.242   3.218
46129W        W11356  26.128  24.419  11.351
46130W        W11357   5.797  31.066   3.273
46131W        W11358  30.086   5.994   1.463
46132W        W11359  25.640   1.744  14.342
46133W        W11360  24.803  15.620  13.836
46134W        W11361   9.654  24.977  12.469
46135W        W11362  27.657   8.888  14.358
46136W        W11363  30.118  20.074  12.433
46137W        W11364  15.246  44.885  12.790
46138W        W11365   1.827   8.404   2.751
46139W        W11366   8.917  19.272  14.875
46140W        W11367  14.775   7.660   2.244
46141W        W11368   2.876   7.837  13.935
46142W        W11369  31.786   1.803   1.935
46143W        W11370  42.737  27.965  12.151
46144W        W11371   3.425  44.588   1.024
46145W        W11372   3.870  34.000   2.637
46146W        W11373  13.775  36.107  12.862
46147W        W11374  40.739  12.664   1.159
46148W        W11375  44.031   1.804  11.389
46149W        W11376  32.156  15.324  14.295
46150W        W11377  23.524  12.800   2.731
46151W        W11378  20.660   4.071   1.345
46152W        W11379  30.967  23.001  10.396
46153W        W11380   9.013  23.353   2.823
46154W        W11381  15.555  17.201  11.465
46155W        W11382  29.839  19.018   4.564
46156W        W11383  40.213  10.222   2.755
46157W        W11384  27.421  30.166  13.850
46158W        W11385  14.003  23.228   2.734
46159W        W11386  13.861  39.520  12.504
46160W        W11387   1.184   2.050   4.519
46161W        W11388  17.753   2.805   2.077
46162W        W11389  31.009  24.990   2.386
46163W        W11390  17.868  35.212  12.452
46164W        W11391   1.949   8.189  11.612
46165W        W11392  38.776   3.860  12.644
46166W        W11393  40.850  38.561   3.867
46167W        W11394  36.881   7.432   4.597
46168W        W11395   2.279   6.507  14.118
46169W        W11396   2.549  37.410  10.848
46170W        W11397  30.149  37.910   3.588
46171W        W11398  32.878   4.806  12.365
46172W        W11399  40.569  17.279  13.322
46173W        W11400  40.297  42.040  11.540
46174W        W11401  24.012  17.428  11.608
46175W        W11402  17.891  37.819   1.876
46176W        W11403  41.621  34.559   4.772
46177W        W11404  25.676   2.270  14.398
46178W        W11405  26.707  12.181  12.482
46179W        W11406  16.653  38.184   4.777
46180W        W11407  37.091  31.170   2.809
46181W        W11408  17.699  32.755   4.950
46182W        W11409  23.097  33.747   3.383
46183W        W11410  10.390  14.743  13.518
46184W        W11411   8.778  25.430  12.564
46185W        W11412  10.346  27.963   2.473
46186W        W11413  38.711  11.340   3.262
46187W        W11414   3.941  25.203   0.745
46188W        W11415  30.207   2.901   4.172
46189W        W11416  33.520  40.882   3.689
46190W        W11417  23.496  32.075   0.264
46191W        W11418  32.139   3.195   2.770
46192W        W11419  21.594   6.599  14.120
46193W        W11420   4.377  35.468   0.582
46194W        W11421  26.592  13.528  13.145
46195W        W11422  37.862   4.210   1.225
46196W        W11423  26.236  16.578  12.496
46197W        W11424  20.034  39.882   2.640
46198W        W11425  36.157  16.179  11.341
46199W        W11426  20.741  15.106  11.122
46200W        W11427  23.384  44.193   3.315
46201W        W11428  23.895  26.149  14.373
46202W        W11429  32.874  39.792   1.003
46203W        W11430  42.866  23.677   3.638
46204W        W11431   3.920  25.665  13.624
46205W        W11432  36.156  35.452   4.853
46206W        W11433  14.850  43.470  11.171
46207W        W11434   0.912  44.384   1.796
46208W        W11435  41.657  10.907   0.615
46209W        W11436  29.011  36.620   2.375
46210W        W11437  28.894  27.096   0.143
46211W        W11438  21.000   2.785   1.726
46212W        W11439  15.784  20.478  11.634
46213W        W11440   5.026  13.376   3.641
46214W        W11441  39.287  44.306   2.251
46215W        W11442  36.132  15.091  13.045
46216W        W11443  32.923  11.883   4.214
46217W        W11444  38.454   4.468  11.502
46218W        W11445   2.749  42.549   5.199
46219W        W11446  17.087  28.193  14.405
46220W        W11447  14.290  24.805  10.754
46221W        W11448  37.497  16.279   1.359
46222W        W11449  33.602   8.712   0.471
46223W        W11450  16.989  25.453  11.745
46224W        W11451  35.541  35.956   4.443
46225W        W11452  38.014  31.391  14.785
46226W        W11453  31.117  24.216  14.433
46227W        W11454  38.485  37.313   1.826
46228W        W11455  13.554   8.286   3.423
46229W        W11456  32.672  28.119   2.256
46230W        W11457  14.764  44.209   4.012
46231W        W11458  36.076  28.908  13.739
46232W        W11459   9.652  32.614   9.955
46233W        W11460  42.472  35.096  10.634
46234W        W11461  27.877  44.468  12.518
46235W        W11462  35.898  36.097   1.806
46236W        W11463  14.142  17.150  13.181
46237W        W11464  37.841  43.884   0.374
46238W        W11465   7.352  44.567  12.260
46239W        W11466   5.380  43.319  12.069
46240W        W11467  33.621  32.508   1.685
46241W        W11468  35.843  20.963  14.051
46242W        W11469  35.442  20.358   3.988
46243W        W11470   3.315  14.156   3.627
46244W        W11471  34.733  44.003  11.233
46245W        W11472  13.704   0.765  13.095
46246W        W11473  21.596  40.833   1.828
46247W        W11474  28.707  43.863  14.935
46248W        W11475  35.399  16.245   3.302
46249W        W11476  35.579  28.229   1.713
46250W        W11477  24.154  26.944   5.113
46251W        W11478   2.485  28.080  10.518
46252W        W11479  11.836  36.815  12.499
46253W        W11480  38.107  23.059  11.140
46254W        W11481  15.094  20.244   1.872
46255W        W11482  19.775  30.274   4.628
46256W        W11483  29.542  33.100  13.551
46257W        W11484  11.729   1.411  10.589
46258W        W11485  36.873  13.222  10.768
46259W        W11486   2.303  22.550  12.793
46260W        W11487  11.296  22.981  14.979
46261W        W11488   4.831  17.357  13.772
46262W        W11489   2.917  38.030   1.956
46263W        W11490  30.678   2.445  11.659
46264W        W11491  32.151  27.201  12.179
46265W        W11492  28.537  34.427  12.427
46266W        W11493  21.779  35.634   0.667
46267W        W11494  27.659  35.916  12.642
46268W        W11495  37.079  19.159   1.857
46269W        W11496  27.148  25.708  14.728
46270W        W11497   9.106   6.240   1.996
46271W        W11498  42.803  31.200  13.375
46272W        W11499  14.764  31.999   4.675
46273W        W11500  35.173  11.316  13.053
46274W        W11501  14.693   8.718   4.761
46275W        W11502  17.385  28.044   1.381
46276W        W11503  44.240  29.682  14.624
46277W        W11504   0.055  42.943  14.558
46278W        W11505  22.497  13.303  14.393
46279W        W11506   6.109  41.559  12.103
46280W        W11507  29.586  36.420   5.041
46281W        W11508  16.270   5.803   1.273
46282W        W11509  37.423   7.122   3.428
46283W        W11510   0.897   7.426   2.279
46284W        W11511  29.180   9.054  13.444
46285W        W11512   3.253  30.072   4.052
46286W        W11513  31.042  22.925  12.347
46287W        W11514  16.456   5.336   1.452
46288W        W11515  15.335  37.477   0.404
46289W        W11516  10.843   3.492   3.695
46290W        W11517  19.867  28.462  11.096
46291W        W11518  39.392   5.625   1.241
46292W        W11519  35.974   3.401   4.028
46293W        W11520  40.865  44.504   1.169
46294W        W11521  32.096   1.159  11.416
46295W        W11522  29.717   5.738   3.221
46296W        W11523  34.685  44.473   2.139
46297W        W11524  34.770  14.595   3.533
46298W        W11525  21.523   6.672  10.327
46299W        W11526  14.982   5.954  13.395
46300W        W11527  29.305   7.944  12.022
46301W        W11528  42.589  30.022  14.490
46302W        W11529  44.390  24.988  14.315
46303W        W11530  39.758  38.336  11.239
46304W        W11531  17.562  25.014   2.309
46305W        W11532  21.470  41.755  12.872
46306W        W11533  35.139  28.771   2.431
46307W        W11534   1.986   4.897   1.322
46308W        W11535  26.567   8.236   3.371
46309W        W11536  42.416  35.661   1.950
46310W        W11537   9.925  28.714  10.854
46311W        W11538  29.339  35.919   5.034
46312W        W11539  24.517  31.689   0.801
46313W        W11540  23.736  26.696  14.428
46314W        W11541  37.554  15.919  11.287
46315W        W11542  41.606  16.340   0.965
46316W        W11543  30.226  16.144  11.917
46317W        W11544  11.830  25.597   4.121
46318W        W11545   4.755  15.821   2.134
46319W        W11546  32.480  37.184  14.749
46320W        W11547  25.078   5.977   4.247
46321W        W11548  24.248  21.372  12.791
46322W        W11549  43.924   8.547   4.977
46323W        W11550  35.935  10.144   0.278
46324W        W11551  19.154  24.468   0.480
46325W        W11552  19.050   4.854   2.941
46326W        W11553   9.543  10.344   0.405
46327W        W11554  20.041  25.268  14.840
46328W        W11555  38.722  13.840   0.947
46329W        W11556  27.133   2.250   0.993
46330W        W11557  36.985  34.546   4.436
46331W        W11558   3.346  30.168   1.795
46332W        W11559  38.415  32.894  14.666
46333W        W11560  13.612  26.989   4.454
46334W        W11561  31.227  34.371  14.376
46335W        W11562   9.202  14.741   0.909
46336W        W11563  19.874  26.066   3.102
46337W        W11564  43.441  37.740   1.845
46338W        W11565  19.686   2.928   0.226
46339W        W11566  27.046  11.099   4.241
46340W        W11567  17.143  12.768  11.281
46341W        W11568  41.832  30.450   2.626
46342W        W11569  15.129  34.899   3.086
46343W        W11570  26.158   9.615  11.196
46344W        W11571  32.515  13.404   2.668
46345W        W11572   4.544  17.232  11.477
46346W        W11573  10.256   5.319   3.154
46347W        W11574   6.132  39.854   4.569
46348W        W11575   4.671  36.395   0.271
46349W        W11576  20.511  14.041   2.812
46350W        W11577  40.249  19.800   4.143
46351W        W11578  32.772   7.777   0.026
46352W        W11579  40.420  28.621   2.998
46353W        W11580  28.280  39.141  10.988
46354W        W11581   1.091  16.184   3.392
46355W        W11582  16.549  13.812  11.222
46356W        W11583  35.449   0.163   1.924
46357W        W11584  42.337  10.849  12.091
46358W        W11585  11.942  43.609  12.126
46359W        W11586  24.275  20.418   3.251
46360W        W11587  35.568  23.576  10.670
46361W        W11588  29.885   6.829  13.811
46362W        W11589  34.051  23.486  12.958
46363W        W11590  19.450  42.842   4.141
46364W        W11591  25.506   3.861  14.488
46365W        W11592  14.019  22.465  11.109
46366W        W11593  21.666  21.460   0.451
46367W        W11594  36.288  33.606   0.945
46368W        W11595  38.240  31.866  13.009
46369W        W11596  13.342  25.505  11.136
46370W        W11597   4.972  38.517   2.630
46371W        W11598  30.426  10.940  13.940
46372W        W11599  12.049  13.222   2.655
46373W        W11600  16.979  31.980  13.528
46374W        W11601  23.606  31.402  11.055
46375W        W11602  26.035  20.751  12.910
46376W        W11603  26.943  20.784   3.419
46377W        W11604  29.614   4.816  10.700
46378W        W11605  20.450  17.020   0.921
46379W        W11606  21.768   5.281  13.805
46380W        W11607  32.899  42.079   3.289
46381W        W11608   8.056   2.213   0.480
46382W        W11609  42.676  13.449   4.553
46383W        W11610  13.272   7.725   0.360
46384W        W11611  39.044   2.877  11.676
46385W        W11612  34.905  38.447  10.194
46386W        W11613  15.746  22.048   1.866
46387W        W11614  14.254  23.293  11.946
46388W        W11615  27.472  38.980  11.613
46389W        W11616  25.268  17.516  14.615
46390W        W11617  11.466  10.950   1.212
46391W        W11618  38.867  11.460  11.600
46392W        W11619  22.928  21.457   4.841
46393W        W11620  37.361   7.298   4.768
46394W        W11621  35.928  43.821   3.588
46395W        W11622  42.437   0.926   1.630
46396W        W11623  31.010   8.610  14.384
46397W        W11624  11.634  18.688   4.917
46398W        W11625  44.528   5.191   4.082
46399W        W11626   4.043  17.113  11.596
46400W        W11627  29.628  21.218   1.814
46401W        W11628  40.973  43.326   2.236
46402W        W11629  21.028  23.358  14.447
46403W        W11630  42.309  15.450   4.987
46404W        W11631  38.266  27.071  10.439
46405W        W11632  13.203   3.694  13.393
46406W        W11633  29.143  14.868  14.173
46407W        W11634  13.813  13.139  13.503
46408W        W11635   9.090  37.503   4.653
46409W        W11636  19.316   9.694   2.755
46410W        W11637  28.459  21.653  14.767
46411W        W11638   8.151  36.584   1.183
46412W        W11639  41.102  18.585  14.287
46413W        W11640  39.964  33.835   1.405
46414W        W11641   6.620   1.047   2.628
46415W        W11642  24.756  25.379  12.106
46416W        W11643  39.266  12.151   3.388
46417W        W11644  27.365  21.054  12.541
46418W        W11645   2.840  37.977   4.507
46419W        W11646  34.652   7.208   2.474
46420W        W11647  11.276   7.613   0.864
46421W        W11648  14.840   1.755   0.330
46422W        W11649  10.209  44.448   2.313
46423W        W11650   9.299  36.322   0.005
46424W        W11651  41.915  24.182  14.717
46425W        W11652  43.931  22.660  11.483
46426W        W11653  21.720   7.211  11.109
46427W        W11654   1.753  20.765   1.236
46428W        W11655   4.398   4.412   4.895
46429W        W11656  11.193   3.523  10.767
46430W        W11657  38.253  42.349  13.971
46431W        W11658  42.343  44.486  13.995
46432W        W11659  23.952  29.974  13.895
46433W        W11660  11.738  35.186   3.618
46434W        W11661  41.352  27.128   1.723
46435W        W11662  35.486  41.292  14.800
46436W        W11663   4.634  15.721  11.824
46437W        W11664   0.336  41.754  12.955
46438W        W11665  36.580   7.049   3.137
46439W        W11666  12.745  12.756  14.906
46440W        W11667  20.839  40.950  13.371
46441W        W11668  38.376   1.196  13.814
46442W        W11669  17.532  27.820  13.729
46443W        W11670  13.614  38.820   0.400
46444W        W11671  16.777  27.614   4.381
46445W        W11672  15.835  22.541   3.757
46446W        W11673  22.782  17.140   3.276
46447W        W11674  37.305  19.978  14.906
46448W        W11675  32.720  27.494  13.361
46449W        W11676  37.308  16.040   4.681
46450W        W11677  28.075  13.572  14.111
46451W        W11678  14.422   0.503   1.696
46452W        W11679  23.980   2.393   2.580
46453W        W11680   1.879  41.378   2.182
46454W        W11681  30.691  34.630  10.168
46455W        W11682  38.931   5.829  14.575
46456W        W11683   3.735  38.348  13.391
46457W        W11684  20.027  30.199  12.946
46458W        W11685   7.928  37.860   0.915
46459W        W11686   2.555  10.344   1.376
46460W        W11687  21.667  20.564   2.282
46461W        W11688  23.008  15.196  10.421
46462W        W11689  40.225  14.643   1.862
46463W        W11690  18.205  22.657  11.147
46464W        W11691  40.002  37.851  10.576
46465W        W11692  43.324  39.559  10.816
46466W        W11693  41.645   9.319  14.853
46467W        W11694  39.840  28.677  13.424
46468W        W11695   9.816  34.998  13.056
46469W        W11696  11.883   7.197   2.675
46470W        W11697   6.621  37.043   1.071
46471W        W11698  15.354   5.484   1.443
46472W        W11699  20.253  17.638  13.954
46473W        W11700   7.895  24.041  10.749
46474W        W11701  30.036   3.836  13.589
46475W        W11702   2.327  12.284   3.705
46476W        W11703  23.166  33.777   2.026
46477W        W11704  10.194  14.554  11.182
46478W        W11705  34.451  10.262  13.477
46479W        W11706  18.614  28.735   1.796
46480W        W11707  25.686  31.907   2.660
46481W        W11708  23.703  35.929  11.006
46482W        W11709  13.813  37.485   1.775
46483W        W11710  16.286   3.798   4.038
46484W        W11711  43.004  23.627  12.987
46485W        W11712  21.175   7.079  12.552
46486W        W11713   1.818  23.813   2.668
46487W        W11714  39.496  44.760  12.802
46488W        W11715  14.744   7.392   0.833
46489W        W11716  28.052  13.014   4.564
46490W        W11717  11.736  39.357  12.962
46491W        W11718  26.707   5.310   5.010
46492W        W11719  16.876  42.567  11.159
46493W        W11720  30.069  43.429   4.369
46494W        W11721  29.416  19.532   0.818
46495W        W11722   5.285  22.693  12.036
46496W        W11723  42.908  33.964   0.836
46497W        W11724  41.980  23.692  11.037
46498W        W11725  21.045   8.822  12.452
46499W        W11726  12.681  24.398   0.943
46500W        W11727   0.694  43.624   5.001
46501W        W11728  19.556  11.821  13.733
46502W        W11729  27.739  20.196   3.688
46503W        W11730   2.522  18.046  10.925
46504W        W11731  35.358  17.204   3.246
46505W        W11732  29.988  30.798  14.137
46506W        W11733   9.203  20.657   1.341
46507W        W11734   3.437  18.273  12.930
46508W        W11735   5.893  41.122   0.352
46509W        W11736  11.312  27.588   2.758
46510W        W11737  21.148  34.142   1.830
46511W        W11738   5.666   5.867  11.655
46512W        W11739  14.950  22.065   4.935
46513W        W11740  44.774   9.790  10.848
46514W        W11741  22.333  31.691  10.832
46515W        W11742  33.649  33.915   2.167
46516W        W11743  23.676  24.078  10.792
46517W        W11744  39.177  23.917   0.457
46518W        W11745  27.549  44.871  14.335
46519W        W11746  23.941  31.936  13.073
46520W        W11747  21.097  15.778  14.818
46521W        W11748  34.313  40.470   0.274
46522W        W11749  11.911  22.612  10.678
46523W        W11750  12.150  23.690   2.800
46524W        W11751  35.446  37.819   1.357
46525W        W11752  12.788  27.209   0.496
46526W        W11753  19.387  25.500   1.983
46527W        W11754   4.839  27.090  10.643
46528W        W11755   2.837  16.786   3.094
46529W        W11756  27.469   6.426   1.016
46530W        W11757   2.344   1.466   1.444
46531W        W11758  42.859  26.595  10.567
46532W        W11759  41.130  26.481   3.265
46533W        W11760  31.460  25.116   4.629
46534W        W11761   9.620  34.033  14.426
46535W        W11762   6.480  42.441  12.167
46536W        W11763   3.464  21.787  10.725
46537W        W11764   7.120   7.054  14.755
46538W        W11765   7.388   8.990  11.119
46539W        W11766  44.975  15.151  12.922
46540W        W11767   7.759  19.621   1.023
46541W        W11768  28.306  37.395  11.465
46542W        W11769   3.939   5.284  13.971
46543W        W11770  11.814   8.418  13.911
46544W        W11771   9.653   7.639   2.597
46545W        W11772  19.752   0.838   4.587
46546W        W11773  43.456  36.706  11.592
46547W        W11774  39.276   3.490  12.024
46548W        W11775  37.914   1.159  13.604
46549W        W11776  16.803  10.289   2.853
46550W        W11777   5.358  38.661  10.155
46551W        W11778  27.108  34.597  14.441
46552W        W11779  22.013  18.605  13.866
46553W        W11780  10.711   2.415  10.935
46554W        W11781   3.679  33.030   0.148
46555W        W11782   9.096  22.541   2.506
46556W        W11783  32.682  32.927  13.940
46557W        W11784   5.023   8.397   1.360
46558W        W11785  40.552   9.200  11.813
46559W        W11786  43.445  15.106   0.969
46560W        W11787  11.916  34.463  14.931
46561W        W11788  16.298  15.528   1.913
46562W        W11789   2.558  40.001   1.637
46563W        W11790  27.386  23.486   4.632
46564W        W11791   0.493  24.418  14.221
46565W        W11792  41.429   9.662   0.198
46566W        W11793  42.837  10.660   1.319
46567W        W11794  15.162  41.121   3.154
46568W        W11795  44.750  14.291   3.349
46569W        W11796  31.987  31.101  10.389
46570W        W11797   5.765  38.015   4.842
46571W        W11798   6.447  25.670  14.832
46572W        W11799  38.934  23.409   1.436
46573W        W11800  35.380  35.161   1.866
46574W        W11801   0.944  12.546  10.760
46575W        W11802  17.270  25.218  14.385
46576W        W11803  42.128  18.776  14.396
46577W        W11804  24.513  12.151   0.792
46578W        W11805  38.613  10.706  13.908
46579W        W11806  41.037   2.110   2.848
46580W        W11807  33.890  32.949   3.027
46581W        W11808  13.235  12.615  13.004
46582W        W11809   4.964  11.760   3.309
46583W        W11810  35.429  36.472  13.129
46584W        W11811   4.450  23.934  12.039
46585W        W11812  12.937  36.541   3.534
46586W        W11813  34.475  39.303  12.965
46587W        W11814   5.086   9.203  11.405
46588W        W11815  10.966   2.902  14.081
46589W        W11816  16.650  22.555  12.061
46590W        W11817   1.909  42.020  11.649
46591W        W11818  17.074  29.381   1.954
46592W        W11819  33.106   0.970   4.935
46593W        W11820  22.469  22.735  13.957
46594W        W11821  10.365   7.185   4.650
46595W        W11822  43.690  28.674  14.073
46596W        W11823  35.851  12.205   1.894
46597W        W11824  32.439  40.198   2.210
46598W        W11825  34.765  17.614  12.014
46599W        W11826   2.743   7.317   1.408
46600W        W11827  41.272   5.886   0.735
46601W        W11828   2.428   0.197   0.193
46602W        W11829  43.539  36.882   4.281
46603W        W11830   4.694   0.007  11.985
46604W        W11831   1.946  35.613   3.678
46605W        W11832   0.950   0.722   1.680
46606W        W11833  41.644   3.192   3.633
46607W        W11834  33.398  20.653   1.761
46608W        W11835  30.550   2.163   3.096
46609W        W11836  34.389   4.265  13.016
46610W        W11837  19.669  25.178   4.110
46611W        W11838  25.722   2.454   0.253
46612W        W11839  36.577  34.077  10.561
46613W        W11840  18.311  22.965  13.341
46614W        W11841   9.220   2.979  14.243
46615W        W11842   3.472  32.441  10.755
46616W        W11843  40.715  35.577  10.677
46617W        W11844  33.711   2.275  14.446
46618W        W11845   3.607  35.787  12.407
46619W        W11846  11.793   2.868  10.662
46620W        W11847  15.566  23.134   4.527
46621W        W11848  19.537  14.308   3.214
46622W        W11849  36.794  22.780  14.532
46623W        W11850  12.958  30.494  14.418
46624W        W11851   1.306   1.208   2.352
46625W        W11852  18.161   3.830  13.057
46626W        W11853  29.216  11.685   3.089
46627W        W11854   4.222  30.604  13.064
46628W        W11855  34.745  35.203  14.762
46629W        W11856  40.426  19.161   0.958
46630W        W11857  35.559  25.443   3.247
46631W        W11858  11.539  29.548  14.391
46632W        W11859  33.785  20.213   0.292
46633W        W11860  41.980   0.826   3.648
46634W        W11861   9.426  27.988  13.058
46635W        W11862  29.463  33.489   3.333
46636W        W11863   9.144  11.205  14.896
46637W        W11864  10.360  17.146   1.724
46638W        W11865  24.217  20.310  14.871
46639W        W11866  23.133   1.163  12.178
46640W        W11867  30.433  44.965  11.170
46641W        W11868  30.514  44.231   0.377
46642W        W11869  21.089  32.287   3.384
46643W        W11870  11.502  25.326   5.062
46644W        W11871   7.397   2.932   2.898
46645W        W11872  15.233  21.045   0.283
46646W        W11873   5.757  39.027   4.882
46647W        W11874  30.108   2.954   3.197
46648W        W11875  24.694   4.359  12.339
46649W        W11876   3.939  16.120   2.714
46650W        W11877  21.960  27.365  14.508
46651W        W11878  36.263  32.972   3.800
46652W        W11879  16.700  43.416  12.488
46653W        W11880  20.465  31.563   4.175
46654W        W11881  11.821   2.440  13.323
46655W        W11882  32.126  22.158  14.890
46656W        W11883   6.041   1.326   0.609
46657W        W11884  44.907   4.295  12.830
46658W        W11885  30.209  13.261  12.785
46659W        W11886   5.004  19.055   0.129
46660W        W11887  20.073   7.864  11.313
46661W        W11888   9.316  30.096   0.443
46662W        W11889  39.899  29.936   0.153
46663W        W11890   3.289  44.246   5.460
46664W        W11891  37.437   8.981  11.808
46665W        W11892  12.823  44.360   1.326
46666W        W11893   6.384  10.615   2.205
46667W        W11894  20.742   1.220  14.361
46668W        W11895   3.671   5.671   0.523
46669W        W11896  27.156  12.226  10.989
46670W        W11897  25.935  32.416   1.433
46671W        W11898  27.624  43.883  14.463
46672W        W11899  10.249  14.955   0.323
46673W        W11900  30.036  33.335   1.606
46674W        W11901   5.832  20.754   1.312
46675W        W11902   3.418  29.569   4.126
46676W        W11903  31.508  15.302  11.273
46677W        W11904  21.209   3.663   0.050
46678W        W11905   1.797  36.172  14.346
46679W        W11906  15.633  10.330   4.611
46680W        W11907  14.493  37.098   0.523
46681W        W11908  34.541   6.245   1.724
46682W        W11909  22.626  22.278  13.780
46683W        W11910   4.843  37.647  12.616
46684W        W11911  40.954  21.826  14.488
46685W        W11912  24.638  44.502   0.622
46686W        W11913  38.008  24.238  14.420
46687W        W11914  42.357  30.690  13.957
46688W        W11915  31.370  17.164  11.007
46689W        W11916  39.838  19.140   2.326
46690W        W11917  35.989  26.921   0.423
46691W        W11918  32.960   6.865  12.572
46692W        W11919  40.567  17.434  10.954
46693W        W11920  16.110  41.493   2.337
46694W        W11921   0.649   8.423  14.104
46695W        W11922  27.841  33.315   3.573
46696W        W11923  35.025   3.928   2.041
46697W        W11924  13.920  39.753   4.691
46698W        W11925   4.913  27.631  10.235
46699W        W11926  26.947  34.455   1.260
46700W        W11927  20.484  27.385  12.942
46701W        W11928  18.348  41.742  14.946
46702W        W11929  31.688   8.317  11.911
46703W        W11930  29.118  33.376   1.324
46704W        W11931  44.859  28.135   2.783
46705W        W11932   6.681  40.119  14.012
46706W        W11933   3.022  26.143   5.173
46707W        W11934   0.005  15.908   4.238
46708W        W11935  16.806  11.188   2.921
46709W        W11936  20.232  33.656   2.282
46710W        W11937  28.101  11.575  11.143
46711W        W11938   2.691  30.208  14.849
46712W        W11939   8.607  38.171  10.688
46713W        W11940  39.761  25.988   2.558
46714W        W11941  40.316  34.557   1.199
46715W        W11942  27.052  31.207   1.670
46716W        W11943  23.317  25.885   2.857
46717W        W11944  10.099  34.030  11.004
46718W        W11945  33.968  13.653  10.280
46719W        W11946  42.997  14.141   4.344
46720W        W11947  41.340  37.583  13.755
46721W        W11948  43.799   7.346   0.516
46722W        W11949   2.869   1.926  13.503
46723W        W11950  21.300  34.991   1.731
46724W        W11951   2.504  23.261   0.801
46725W        W11952  38.952  33.243   0.304
46726W        W11953  33.180   2.167  14.314
46727W        W11954  13.136  15.774   0.385
46728W        W11955  32.830   2.417  13.451
46729W        W11956   9.895  15.209  13.830
46730W        W11957  34.794  26.223   0.754
46731W        W11958  38.465   0.801   3.763
46732W        W11959   8.010  30.910   1.588
46733W        W11960  31.875  25.317   1.646
46734W        W11961  29.010  40.500   4.267
46735W        W11962  11.797   1.413  14.159
46736W        W11963   7.877   5.540   2.358
46737W        W11964  27.409  11.083   0.239
46738W        W11965  21.027  31.635  14.691
46739W        W11966   3.493  17.053  11.762
46740W        W11967  38.011  21.746   4.127
46741W        W11968  41.048  33.636  10.683
46742W        W11969  24.955   8.109   1.759
46743W        W11970  10.470  31.775   3.039
46744W        W11971  23.934  20.458  13.956
46745W        W11972  27.531   2.330   5.063
46746W        W11973  29.024  37.993  14.051
46747W        W11974  26.829  19.930  13.789
46748W        W11975   5.341   0.310  10.497
46749W        W11976   1.814  27.380  13.869
46750W        W11977  31.533  39.347  13.524
46751W        W11978  38.594  21.161  11.896
46752W        W11979  16.525   8.882   4.232
46753W        W11980   7.809  17.542  12.535
46754W        W11981   9.362  33.787  11.781
46755W        W11982  44.546  15.723  12.541
46756W        W11983  11.562  33.949  12.291
46757W        W11984  20.631  38.489   0.401
46758W        W11985  41.843  12.696   0.240
46759W        W11986  33.627  10.538   5.013
46760W        W11987   8.147  21.612  12.469
46761W        W11988  33.076   6.431  10.808
46762W        W11989  26.456  21.055   4.784
46763W        W11990   6.452  26.924   2.730
46764W        W11991  17.069  14.217  14.005
46765W        W11992  24.481   3.540  13.149
46766W        W11993  39.926   4.344  11.659
46767W        W11994  37.707  27.730  11.628
46768W        W11995  12.686  30.067  14.330
46769W        W11996   3.028  40.131  13.636
46770W        W11997  33.434  43.764   2.285
46771W        W11998  21.080   0.758   2.263
46772W        W11999  38.034   9.310   2.235
46773W        W12000  17.011  37.048   0.889
46774W        W12001  27.572   5.284   2.411
46775W        W12002   4.620  44.268  11.088
46776W        W12003  17.011  37.813   0.071
46777W        W12004  14.280  14.355  12.553
46778W        W12005  17.564  12.296   1.245
46779W        W12006  27.488  31.079  12.385
46780W        W12007  38.568  16.744  10.909
46781W        W12008  10.558   1.622  13.523
46782W        W12009   1.376  24.197  12.927
46783W        W12010  44.921  41.594  12.137
46784W        W12011  19.797   5.899  13.436
46785W        W12012  14.674  30.841  13.412
46786W        W12013  15.336  11.694   3.108
46787W        W12014  33.562  27.457  14.766
46788W        W12015  23.299   6.947  12.865
46789W        W12016  30.122  30.912   3.188
46790W        W12017  34.656   7.498  10.368
46791W        W12018  30.942  34.040  11.927
46792W        W12019  25.573  24.006   1.902
46793W        W12020  22.552  25.430  11.624
46794W        W12021   5.361   6.981  13.659
46795W        W12022  31.483  12.983   3.714
46796W        W12023  23.452   9.580  14.974
46797W        W12024  24.536   6.124   1.543
46798W        W12025  18.182  13.077   3.658
46799W        W12026  28.436   2.489   1.788
46800W        W12027  16.700  39.126   1.767
46801W        W12028  20.745   0.710  14.375
46802W        W12029  42.759  39.446   1.754
46803W        W12030  28.495  22.793  14.957
46804W        W12031  23.066  39.571  10.503
46805W        W12032  17.738  27.670   0.819
46806W        W12033   4.795  38.165  14.447
46807W        W12034  43.291   5.923  12.822
46808W        W12035   6.181  13.271   1.990
46809W        W12036  23.615  35.642   1.879
46810W        W12037  21.802  22.267   1.490
46811W        W12038   3.833  10.594   4.605
46812W        W12039  12.127  24.131  11.422
46813W        W12040   8.839  43.041   3.250
46814W        W12041  25.628  26.270   3.968
46815W        W12042  31.502  13.383  14.949
46816W        W12043  32.489  41.842  14.068
46817W        W12044  16.638  39.183   0.353
46818W        W12045   0.536  44.906   1.089
46819W        W12046   4.826  18.330  12.390
46820W        W12047  19.321  36.445  10.501
46821W        W12048  22.184  22.373  13.527
46822W        W12049   8.992  12.218   1.939
46823W        W12050   0.882  20.156   9.811
46824W        W12051  13.768  39.701  11.267
46825W        W12052  21.280  32.122   0.809
46826W        W12053   7.868   1.854   3.845
46827W        W12054  28.382  23.665  11.571
46828W        W12055  18.993   8.259  13.773
46829W        W12056   9.818  17.349   0.918
46830W        W12057  16.650  24.095   3.757
46831W        W12058  35.416  33.256  14.831
46832W        W12059  19.704  25.581  13.371
46833W        W12060   5.647  10.133   3.690
46834W        W12061   8.911  43.619   2.360
46835W        W12062  21.944  25.276   1.439
46836W        W12063  29.132  10.289  14.449
46837W        W12064   5.814  22.259  12.089
46838W        W12065  42.550  32.868  13.033
46839W        W12066  29.170  15.874   2.792
46840W        W12067   8.202   9.822  12.587
46841W        W12068  31.899  17.644  13.387
46842W        W12069  16.229   6.087  14.066
46843W        W12070  38.476  26.928   2.246
46844W        W12071  18.017  11.245   0.233
46845W        W12072  34.384   3.133   0.928
46846W        W12073  12.135   9.422   2.093
46847W        W12074  30.860  24.069  13.998
46848W        W12075   5.824  16.363   1.786
46849W        W12076  35.316   3.332   2.640
46850W        W12077  34.113   0.437   1.341
46851W        W12078  44.019  27.413  11.921
46852W        W12079  16.346  10.410  13.515
46853W        W12080   0.961  11.097   3.637
46854W        W12081  41.252  33.419   4.196
46855W        W12082   7.371  44.959   0.763
46856W        W12083   6.274  26.406  11.535
46857W        W12084   6.647  24.479   2.734
46858W        W12085  20.996   0.324   1.930
46859W        W12086  32.578  42.841   4.971
46860W        W12087  28.411  39.638  11.117
46861W        W12088  36.312  12.610   3.835
46862W        W12089  15.780   0.381   1.678
46863W        W12090   0.444  28.030  12.497
46864W        W12091  25.487  26.648   0.440
46865W        W12092   6.956  16.431  10.746
46866W        W12093  32.596  22.712  13.639
46867W        W12094  37.991  29.634   2.325
46868W        W12095  38.828  21.101   5.003
46869W        W12096   3.294  41.818  10.440
46870W        W12097  40.338  34.367  14.779
46871W        W12098   3.870  12.676  11.536
46872W        W12099  29.010   5.112   0.905
46873W        W12100  26.690   7.440   1.977
46874W        W12101  44.285  33.633   0.679
46875W        W12102  18.639  37.648   4.119
46876W        W12103  12.626  20.274   1.792
46877W        W12104  32.374  36.352  14.059
46878W        W12105  30.074   4.531   0.273
46879W        W12106  22.463   6.274   3.616
46880W        W12107  10.963   5.427   3.654
46881W        W12108  18.553   7.166   3.312
46882W        W12109   9.523  43.173   3.756
46883W        W12110  23.725  26.450   3.589
46884W        W12111  14.045  19.735   3.307
46885W        W12112  13.916  26.784  10.574
46886W        W12113  43.558  30.388   2.714
46887W        W12114  10.694   9.162   3.446
46888W        W12115  29.249  14.061  14.467
46889W        W12116  15.702  26.519   5.015
46890W        W12117   8.615  10.999   3.219
46891W        W12118  24.549  16.359  11.200
46892W        W12119   2.412  19.100  10.547
46893W        W12120  24.363  36.877  10.834
46894W        W12121  11.151  11.664   4.555
46895W        W12122  14.319  34.820   1.761
46896W        W12123  21.219  36.618  13.577
46897W        W12124  30.912  40.335  12.590
46898W        W12125  41.064  44.557  14.388
46899W        W12126  43.267   8.107  10.545
46900W        W12127  33.099   9.090  10.473
46901W        W12128  32.626  43.814   4.338
46902W        W12129  35.399  37.572  11.120
46903W        W12130  41.585  19.689   0.806
46904W        W12131  38.002  33.321  12.023
46905W        W12132  20.803  32.516  14.819
46906W        W12133  27.295  28.130  13.448
46907W        W12134  27.465  39.753  11.031
46908W        W12135  13.810  16.535  12.008
46909W        W12136  43.957  10.914   0.549
46910W        W12137  29.129  16.495  12.459
46911W        W12138  37.179   7.142   2.409
46912W        W12139  13.111   3.452  14.814
46913W        W12140  35.976   5.149  12.050
46914W        W12141  37.992  23.463   2.457
46915W        W12142  33.469  28.278  13.622
46916W        W12143  33.178  26.511  13.447
46917W        W12144   2.187  42.768   2.395
46918W        W12145  42.834   0.121   1.869
46919W        W12146  42.897  12.927  14.921
46920W        W12147  30.904  37.045  14.394
46921W        W12148  13.739  17.095  10.473
46922W        W12149  12.325  11.334   1.930
46923W        W12150  10.095   3.443  11.531
46924W        W12151  30.553  12.821   1.354
46925W        W12152  21.151  39.957   2.583
46926W        W12153  42.472   0.536  12.100
46927W        W12154   1.243  17.217   4.143
46928W        W12155  43.334  41.310  13.875
46929W        W12156  43.432   6.782   0.713
46930W        W12157  28.467  20.842  12.944
46931W        W12158  35.537  39.649   0.362
46932W        W12159  36.119  31.163   3.640
46933W        W12160  43.835  10.579  13.108
46934W        W12161  38.694  26.076   1.743
46935W        W12162  27.086  33.927  14.952
46936W        W12163  41.328  22.146  12.670
46937W        W12164  36.383  12.923   2.375
46938W        W12165  24.238  37.398  13.475
46939W        W12166   5.415  36.861  13.259
46940W        W12167   6.968  34.557  10.757
46941W        W12168  28.344  43.131   3.194
46942W        W12169  33.488  22.993  10.970
46943W        W12170  34.875  31.124   4.146
46944W        W12171  39.204  17.087  10.404
46945W        W12172  27.642  11.667   4.604
46946W        W12173  39.489  31.938   1.439
46947W        W12174   2.742   3.291  11.791
46948W        W12175  10.332  41.096  12.138
46949W        W12176  22.812  16.774   0.262
46950W        W12177  25.717  34.355  13.027
46951W        W12178  25.217  17.265   2.673
46952W        W12179  27.572  35.517  11.027
46953W        W12180   1.259   5.860  12.150
46954W        W12181  23.748  20.466   3.279
46955W        W12182   0.419  23.540   4.590
46956W        W12183   6.924   1.820  10.816
46957W        W12184  21.373   1.591   5.045
46958W        W12185  10.892   0.017  12.356
46959W        W12186  32.126  26.244  14.472
46960W        W12187  27.357  24.455  13.787
46961W        W12188  20.548  44.493  12.666
46962W        W12189  11.670  11.464   1.260
46963W        W12190  41.800   8.389  14.978
46964W        W12191   9.523   8.485  12.109
46965W        W12192  31.905  36.846  10.813
46966W        W12193   4.149  10.212  13.431
46967W        W12194  36.193   0.378  12.948
46968W        W12195  21.515  28.190   3.098
46969W        W12196  27.683  42.837  12.052
46970W        W12197  35.837  14.772  10.927
46971W        W12198  19.219  22.109  13.090
46972W        W12199  22.810   5.415  12.062
46973W        W12200  22.492  23.171  13.287
46974W        W12201  35.589  23.159   0.752
46975W        W12202  39.534  10.641  13.844
46976W        W12203   5.970  38.387   1.554
46977W        W12204  21.650  18.152   3.099
46978W        W12205  25.849   0.273   4.584
46979W        W12206  20.781   3.186   1.283
46980W        W12207  32.130  22.998   3.595
46981W        W12208  19.645  19.543   1.270
46982W        W12209  18.066  28.224   0.372
46983W        W12210  35.490  39.458   2.330
46984W        W12211   5.001   3.206   1.361
46985W        W12212  39.503  15.886   5.019
46986W        W12213   8.436  32.236  10.071
46987W        W12214   3.284   7.681   2.800
46988W        W12215  35.990  42.863   4.760
46989W        W12216   5.636  39.772   4.417
46990W        W12217  33.839  24.081   4.140
46991W        W12218   0.821  18.446   2.114
46992W        W12219  25.599  31.375  13.905
46993W        W12220  38.341  11.434   4.207
46994W        W12221  37.906   4.819  14.796
46995W        W12222  21.288  31.576  12.417
46996W        W12223  44.495  27.594  11.801
46997W        W12224  20.035  42.257   4.484
46998W        W12225  28.884  37.538  13.462
46999W        W12226  15.264  36.407  11.236
47000W        W12227   0.780  34.548   2.259
47001W        W12228  36.110  32.171  11.081
47002W        W12229  40.188   8.764   2.224
47003W        W12230  33.038  16.176   3.555
47004W        W12231  43.336  15.300  12.113
47005W        W12232  38.376  34.845   0.491
47006W        W12233   8.878   8.674  12.082
47007W        W12234  19.774  35.493  10.512
47008W        W12235   6.632  13.268   2.763
47009W        W12236   9.564  38.077  11.992
47010W        W12237  28.118   8.109  10.534
47011W        W12238  30.563  41.987  14.855
47012W        W12239  13.826  24.982  13.053
47013W        W12240   6.398  21.571   4.064
47014W        W12241  41.987  29.375  14.060
47015W        W12242  43.450  28.894  11.521
47016W        W12243  22.524  21.606   0.049
47017W        W12244   1.966  38.534   0.700
47018W        W12245  39.471  34.856   4.538
47019W        W12246  29.875  12.654  13.721
47020W        W12247  13.206  32.505   0.864
47021W        W12248   6.514  27.478  12.884
47022W        W12249   8.816   9.746  14.084
47023W        W12250  31.025  13.007   2.718
47024W        W12251  33.211  33.471  12.390
47025W        W12252  10.336  39.250  11.652
47026W        W12253  24.950   2.824   0.299
47027W        W12254  29.120  38.583  14.337
47028W        W12255   2.715  31.132  14.960
47029W        W12256  26.546  14.708  11.719
47030W        W12257  15.646  15.941  12.763
47031W        W12258  44.428  43.905  12.536
47032W        W12259  23.428   7.103  11.604
47033W        W12260  23.405  15.294   4.554
47034W        W12261  31.280  18.773   0.275
47035W        W12262  22.171   8.824  13.139
47036W        W12263  13.420  19.661  11.886
47037W        W12264  34.562  35.423  12.931
47038W        W12265  39.941  42.245   3.220
47039W        W12266  39.108  43.813  13.177
47040W        W12267   7.693  41.962   4.684
47041W        W12268  32.722  20.817  13.366
47042W        W12269   1.041  44.631   4.743
47043W        W12270  11.789  29.379  14.844
47044W        W12271  19.150  15.793  11.189
47045W        W12272  26.750  11.538  13.991
47046W        W12273  38.919  37.048   1.902
47047W        W12274  17.369  34.903  11.078
47048W        W12275   8.100  25.456   4.217
47049W        W12276  25.753  12.396   2.223
47050W        W12277  31.061  19.791  12.020
47051W        W12278  40.462   2.432  14.030
47052W        W12279  27.285  42.962  13.663
47053W        W12280   4.405   5.404   3.649
47054W        W12281  17.841   5.341   2.246
47055W        W12282  13.284  39.576  11.070
47056W        W12283  30.923  25.701   3.117
47057W        W12284  35.050   1.346   3.668
47058W        W12285  41.394  12.054  11.396
47059W        W12286  41.641   7.893  12.111
47060W        W12287  33.391  44.321  14.843
47061W        W12288  14.659  39.302  12.848
47062W        W12289  25.644  37.546  13.448
47063W        W12290  35.527  43.027  12.576
47064W        W12291  17.332  25.164   2.812
47065W        W12292  28.094   2.828   4.757
47066W        W12293  18.373  21.605   0.371
47067W        W12294  19.298  32.462  14.945
47068W        W12295  35.958   5.255  14.322
47069W        W12296  12.002  43.390   2.135
47070W        W12297  11.748  42.796  10.060
47071W        W12298  18.740  42.032   0.743
47072W        W12299  32.062  12.383   2.410
47073W        W12300  14.193  34.348   1.532
47074W        W12301   3.373  20.998  11.118
47075W        W12302  13.255  30.182  13.586
47076W        W12303  41.066  10.740  12.415
47077W        W12304  41.415  43.708  14.369
47078W        W12305   4.530  21.209  12.826
47079W        W12306  43.457  17.980   3.229
47080W        W12307  32.135   1.167   1.394
47081W        W12308  10.650  33.942  13.475
47082W        W12309  24.807  42.839   4.743
47083W        W12310  27.335  30.920  14.861
47084W        W12311  31.505  44.452  10.694
47085W        W12312  20.001  24.461   0.538
47086W        W12313  26.840  35.084  14.261
47087W        W12314  21.831   1.948   2.309
47088W        W12315   7.967  15.241  12.965
47089W        W12316  40.978  44.926   4.421
47090W        W12317  17.860  19.056   2.372
47091W        W12318  30.704  10.816  10.932
47092W        W12319   6.696  41.946  10.622
47093W        W12320  24.300  17.106  10.335
47094W        W12321  16.913  29.583  11.998
47095W        W12322  11.785   8.881   4.519
47096W        W12323  20.832  21.112  12.522
47097W        W12324  30.604  32.490   0.041
47098W        W12325  19.991  43.704  11.956
47099W        W12326  10.224  24.250   2.244
47100W        W12327  37.240   5.051   4.157
47101W        W12328  23.251  34.640  14.883
47102W        W12329  21.658  21.319  12.998
47103W        W12330  40.573  16.422  11.346
47104W        W12331  38.113  20.523   0.937
47105W        W12332  38.998  32.079  14.939
47106W        W12333  39.652  39.466   1.364
47107W        W12334  10.390   2.956   4.118
47108W        W12335   4.256  14.554  14.583
47109W        W12336  35.345   8.726  12.041
47110W        W12337  20.801  41.033   0.227
47111W        W12338  37.330  16.213  12.582
47112W        W12339  20.581  11.847  12.932
47113W        W12340  31.665  29.784  11.444
47114W        W12341  15.172  36.003  12.045
47115W        W12342   3.938  41.635  13.347
47116W        W12343  35.844  27.093   3.845
47117W        W12344  43.912   3.411  11.170
47118W        W12345  28.115  35.544   2.303
47119W        W12346   2.451  36.967   0.128
47120W        W12347  41.164  40.280  11.202
47121W        W12348  32.666  13.155   1.225
47122W        W12349  36.791  12.377   5.099
47123W        W12350  24.772  29.407  12.516
47124W        W12351  21.354  42.950  12.660
47125W        W12352  33.989   1.063   3.566
47126W        W12353  33.176  37.184   0.467
47127W        W12354  14.329   7.410   2.748
47128W        W12355  31.020  29.938  13.034
47129W        W12356  11.109  12.172   3.635
47130W        W12357  23.643  34.532  10.639
47131W        W12358  12.599   3.271  10.502
47132W        W12359   3.980   6.824   2.639
47133W        W12360  18.207  32.378   4.958
47134W        W12361  28.611   8.628  11.041
47135W        W12362   0.228  40.503  14.414
47136W        W12363  40.414  39.404   1.971
47137W        W12364  21.098  36.416  13.119
47138W        W12365   0.274  40.824   4.512
47139W        W12366  35.451  11.670  14.083
47140W        W12367  40.908  12.292  10.783
47141W        W12368  30.998  24.238   1.235
47142W        W12369  27.536  37.277   3.574
47143W        W12370  16.578  17.592  13.342
47144W        W12371  21.305  34.499   5.174
47145W        W12372  31.418  19.200   1.758
47146W        W12373  22.038  20.531   2.713
47147W        W12374  33.503  21.714   0.814
47148W        W12375  21.124  42.796   3.771
47149W        W12376  16.402  20.425   4.744
47150W        W12377   9.441  17.372   2.864
47151W        W12378  30.391  12.173  12.024
47152W        W12379  23.495  13.865   0.796
47153W        W12380   8.941  34.260  11.664
47154W        W12381   3.079  27.627   9.982
47155W        W12382  33.598  33.031   1.761
47156W        W12383  33.390  28.615  14.403
47157W        W12384  16.668  14.866   4.224
47158W        W12385  38.971  21.523  11.718
47159W        W12386   2.783  18.317   4.156
47160W        W12387   8.769   9.382   2.688
47161W        W12388  39.042   6.410   3.156
47162W        W12389  36.642  27.940   2.862
47163W        W12390   6.788  35.175   2.377
47164W        W12391  38.383   8.712  14.015
47165W        W12392  16.849   1.823   2.322
47166W        W12393  14.424  22.790  14.828
47167W        W12394  37.164  33.489  14.721
47168W        W12395  15.845  40.320   3.529
47169W        W12396  40.747  21.737  12.611
47170W        W12397   4.909  38.776   3.727
47171W        W12398   2.464   5.654   4.104
47172W        W12399  23.083  12.571  11.843
47173W        W12400  23.601  30.876   2.811
47174W        W12401   1.088  26.492   1.180
47175W        W12402  26.102  27.293   3.620
47176W        W12403  28.143  20.423   2.814
47177W        W12404  12.310  12.204  13.115
47178W        W12405  13.310  30.878   3.039
47179W        W12406  33.086   1.801  11.547
47180W        W12407  14.245  35.051  13.313
47181W        W12408  32.366   5.958   3.723
47182W        W12409   7.192  17.809   0.920
47183W        W12410  36.791  28.547   4.221
47184W        W12411  35.616  13.562  14.439
47185W        W12412  15.060  10.846   2.722
47186W        W12413   5.836  21.773   2.916
47187W        W12414   9.180  23.311   1.328
47188W        W12415  35.293  15.567   2.521
47189W        W12416   2.735  39.803   2.588
47190W        W12417  23.882  37.862  10.522
47191W        W12418  38.802  30.967   0.780
47192W        W12419   1.218  11.721   1.382
47193W        W12420   1.861  37.430  13.072
47194W        W12421   2.364  10.837   2.729
47195W        W12422  14.140  31.889   3.654
47196W        W12423   1.329  37.048   2.415
47197W        W12424  25.067  14.025  12.856
47198W        W12425  11.777  18.377  14.302
47199W        W12426   4.437  31.568  12.039
47200W        W12427  35.034  43.535   3.577
47201W        W12428  38.292  44.914   3.827
47202W        W12429  11.586  35.986   2.130
47203W        W12430  37.030  12.282  12.518
47204W        W12431  36.610   8.412   1.394
47205W        W12432  30.506   7.885  13.391
47206W        W12433  30.653  18.042   3.108
47207W        W12434  21.587  13.901  11.466
47208W        W12435   5.727   4.452   3.034
47209W        W12436   7.362  22.746  13.515
47210W        W12437  29.884  21.686  12.036
47211W        W12438  24.409  35.589   4.184
47212W        W12439  17.635  17.068  11.469
47213W        W12440  17.805  42.358  12.332
47214W        W12441  44.028  39.002   3.961
47215W        W12442   3.454   1.001   5.232
47216W        W12443  42.853  27.856  13.196
47217W        W12444  34.203  21.804   3.273
47218W        W12445   0.571  16.428  14.819
47219W        W12446  16.209  26.600   4.842
47220W        W12447  27.487  13.621   4.461
47221W        W12448  29.915  22.981   3.421
47222W        W12449  15.429  21.151   3.729
47223W        W12450  16.389  39.017   1.226
47224W        W12451   7.097  12.168   0.621
47225W        W12452   2.536  11.148  12.617
47226W        W12453  26.438  33.762   5.073
47227W        W12454  13.255   1.038  13.055
47228W        W12455  17.048  28.062   3.807
47229W        W12456  31.735  16.306   4.232
47230W        W12457  22.518  43.718   1.447
47231W        W12458  25.800  34.887  13.173
47232W        W12459  19.949  20.828   5.078
47233W        W12460  15.345   6.213   2.850
47234W        W12461  31.559  33.936   4.234
47235W        W12462   7.365   1.822   0.244
47236W        W12463   3.287   4.978  12.083
47237W        W12464   9.906  17.254  12.068
47238W        W12465  32.837   2.644  11.975
47239W        W12466  16.613   4.272   0.831
47240W        W12467  27.203  19.824  11.995
47241W        W12468  14.417  32.359  11.742
47242W        W12469   7.988  43.580   4.148
47243W        W12470   3.896  34.771  11.590
47244W        W12471  43.017   0.475  10.985
47245W        W12472   3.507   6.537   1.184
47246W        W12473  18.313  42.038  13.777
47247W        W12474  20.889  18.808   2.414
47248W        W12475  16.557  19.268   0.668
47249W        W12476  31.157  33.908   3.003
47250W        W12477  25.998  26.361  12.951
47251W        W12478  41.995  38.369  10.556
47252W        W12479  42.724  28.835  14.299
47253W        W12480   1.049  21.684   2.211
47254W        W12481   8.380  30.619   3.705
47255W        W12482  19.583  39.564  12.301
47256W        W12483  44.492   6.627   4.174
47257W        W12484  11.330  42.966  12.038
47258W        W12485  13.561   8.793  13.871
47259W        W12486  11.802  30.201  12.065
47260W        W12487   8.419  44.987   1.695
47261W        W12488  28.043  35.792   1.757
47262W        W12489   4.472   4.408  11.101
47263W        W12490  17.883  43.044   4.127
47264W        W12491  41.479  17.060  10.690
47265W        W12492  14.258  22.961   4.283
47266W        W12493  13.079  40.749  11.886
47267W        W12494   5.367  28.222  12.451
47268W        W12495  31.098  33.553   1.318
47269W        W12496   0.964  20.694  12.545
47270W        W12497  15.195  37.098   4.696
47271W        W12498  33.717  26.102  13.739
47272W        W12499  25.200  36.815  13.062
47273W        W12500  38.974  14.142  14.470
47274W        W12501  17.692  29.193  13.412
47275W        W12502   3.906  20.923  14.212
47276W        W12503  34.929  17.383  11.037
47277W        W12504  20.364  25.645  11.765
47278W        W12505  14.898  21.313   4.449
47279W        W12506  23.512  37.770   0.821
47280W        W12507  23.087   1.256  14.413
47281W        W12508  32.005  36.439  13.327
47282W        W12509  26.000   6.902  13.035
47283W        W12510  27.062  18.225  13.530
47284W        W12511  40.303  10.761  10.757
47285W        W12512  28.903  12.858   4.936
47286W        W12513  29.497  41.962   1.009
47287W        W12514   0.493  17.057   3.700
47288W        W12515  12.872   9.300  12.518
47289W        W12516  24.624   5.286  12.383
47290W        W12517  44.408  35.021  11.121
47291W        W12518  43.081   6.351   5.082
47292W        W12519  26.098  31.953  14.463
47293W        W12520  25.209  43.125   0.835
47294W        W12521  17.095  38.505   4.201
47295W        W12522   9.845   3.399  10.383
47296W        W12523  21.571  36.394  11.333
47297W        W12524  16.689   8.840   0.050
47298W        W12525  13.093  17.507   0.408
47299W        W12526  26.145   4.665   2.863
47300W        W12527  11.337  11.428  11.070
47301W        W12528  29.866  25.714   1.408
47302W        W12529   5.151   3.055   0.384
47303W        W12530  11.774  41.255   1.906
47304W        W12531  29.803  10.135   2.946
47305W        W12532  11.347   1.380   3.683
47306W        W12533  34.157  44.223  11.784
47307W        W12534  44.083  10.674   1.879
47308W        W12535   7.578  10.825  12.602
47309W        W12536  29.560  40.770  11.483
47310W        W12537   9.423  28.976   1.874
47311W        W12538  35.844  27.542   0.804
47312W        W12539  12.219   1.740   4.087
47313W        W12540  37.802  27.032   0.686
47314W        W12541  41.993  12.743  14.730
47315W        W12542  23.145  34.890  11.995
47316W        W12543  43.054  37.546  12.995
47317W        W12544  28.484  29.217  13.912
47318W        W12545  33.072  18.774  11.531
47319W        W12546  18.110  20.627  11.943
47320W        W12547   1.406  31.880  12.901
47321W        W12548  38.915  18.049  10.462
47322W        W12549  17.136   0.128  13.068
47323W        W12550  11.809   8.148  14.378
47324W        W12551  12.495  20.089  11.180
47325W        W12552   0.899  23.741   2.812
47326W        W12553  13.040  43.019  10.301
47327W        W12554  12.580  26.494   4.962
47328W        W12555  39.320  26.931  14.247
47329W        W12556  38.050  31.379  12.042
47330W        W12557  10.146   0.434   2.815
47331W        W12558  10.901  15.316   0.844
47332W        W12559   8.696   0.374  13.460
47333W        W12560  41.963  38.048   3.165
47334W        W12561  43.043  37.438   4.687
47335W        W12562   3.294  25.344  14.955
47336W        W12563  25.582  43.401   4.210
47337W        W12564  37.310  18.715   1.007
47338W        W12565   8.627  44.420   2.264
47339W        W12566  44.907   4.318   0.233
47340W        W12567  33.882  34.065   3.147
47341W        W12568  34.095  44.266   1.830
47342W        W12569  32.446  17.048   5.447
47343W        W12570   2.530   7.836  14.503
47344W        W12571  23.107  11.876  14.339
47345W        W12572  17.168  11.204  10.791
47346W        W12573   6.234  25.715   1.936
47347W        W12574  29.544  32.962   0.996
47348W        W12575  28.248   4.887   1.872
47349W        W12576   2.343  25.554  11.085
47350W        W12577   0.051  24.255  14.418
47351W        W12578  23.646  27.414  11.202
47352W        W12579  33.548   2.351   0.901
47353W        W12580  34.085  43.104   1.258
47354W        W12581   2.565   0.907   4.740
47355W        W12582  32.647   6.461  14.808
47356W        W12583   0.952  21.221   3.519
47357W        W12584  22.474  27.049   3.352
47358W        W12585  39.030  28.916   3.669
47359W        W12586  39.290  17.375   3.754
47360W        W12587  34.929  25.716  11.534
47361W        W12588  34.546  42.705   2.652
47362W        W12589  30.739  40.747  10.998
47363W        W12590  39.820  24.219   3.362
47364W        W12591  37.440   9.145  14.302
47365W        W12592  34.579   4.353   1.368
47366W        W12593   6.438   1.349   3.830
47367W        W12594  16.822  42.964   3.230
47368W        W12595  25.233  19.423   3.360
47369W        W12596  38.969  19.567  12.258
47370W        W12597  32.535  44.280   2.733
47371W        W12598  31.915  20.451   4.047
47372W        W12599  23.363  15.568  10.198
47373W        W12600  28.624  30.369  12.493
47374W        W12601  25.759  19.583  14.841
47375W        W12602  21.665   9.967  11.110
47376W        W12603   5.552  34.921   1.533
47377W        W12604   4.252   3.147  11.661
47378W        W12605  22.450   7.186   4.223
47379W        W12606  24.774  30.194   4.682
47380W        W12607  22.226  33.137  14.526
47381W        W12608   7.376   8.941  13.284
47382W        W12609  15.219  29.000  12.974
47383W        W12610  44.077  33.036   4.159
47384W        W12611  23.622  29.746   3.622
47385W        W12612  33.616  30.865  12.392
47386W        W12613  30.993  18.013   3.868
47387W        W12614  34.229   8.519  14.392
47388W        W12615   5.714  37.514  12.585
47389W        W12616  18.615   4.934   0.046
47390W        W12617  17.784  24.636   1.663
47391W        W12618  34.080   6.704  12.970
47392W        W12619   1.191  36.667   4.401
47393W        W12620  13.282  32.306  12.573
47394W        W12621  34.589  20.158   0.908
47395W        W12622  34.675  38.809  13.006
47396W        W12623  21.988  22.743  13.821
47397W        W12624  39.258   4.008  13.906
47398W        W12625  16.615  26.683   2.755
47399W        W12626  35.917  35.916   0.382
47400W        W12627   2.433  12.480   3.239
47401W        W12628  42.587  41.281  14.349
47402W        W12629  44.748  42.596   3.168
47403W        W12630   8.753  40.499  12.024
47404W        W12631   9.026   2.956  10.318
47405W        W12632  33.029  16.222   5.886
47406W        W12633  20.639  16.272  13.835
47407W        W12634  37.704  12.630   4.123
47408W        W12635  42.828  41.831   0.944
47409W        W12636   0.416  36.311   1.942
47410W        W12637  10.667  32.024  13.017
47411W        W12638   5.976  34.091   1.502
47412W        W12639  38.314  25.961  11.769
47413W        W12640  43.766   4.440   4.781
47414W        W12641  44.788  11.308   1.914
47415W        W12642  40.638   5.286  14.707
47416W        W12643   1.312  37.343   0.496
47417W        W12644   8.135  17.474   2.063
47418W        W12645  23.020  12.608  13.276
47419W        W12646   1.854   0.777   2.202
47420W        W12647  18.124  20.577   2.456
47421W        W12648  22.565  37.125   4.018
47422W        W12649  40.404  44.263   1.035
47423W        W12650  27.205  32.931   1.349
47424W        W12651  38.427   1.889   2.889
47425W        W12652   0.958   0.792  14.610
47426W        W12653  17.302  17.230   1.781
47427W        W12654  31.399   4.799   5.390
47428W        W12655  14.778  25.119  14.635
47429W        W12656  41.444  37.518  10.615
47430W        W12657   0.082  29.060   1.288
47431W        W12658  40.561  43.243   4.558
47432W        W12659  26.191  17.274   2.835
47433W        W12660  15.196   9.562   2.701
47434W        W12661  41.767   7.312   0.169
47435W        W12662   0.937  10.053   5.253
47436W        W12663  28.879   2.760  12.195
47437W        W12664  36.568  32.954  10.730
47438W        W12665   1.961   2.655  12.420
47439W        W12666   4.916  40.956  14.776
47440W        W12667  32.687  20.166  10.809
47441W        W12668  10.362   3.380   0.177
47442W        W12669   3.776  40.801   2.473
47443W        W12670  16.448  23.952   4.218
47444W        W12671  13.332   7.388   4.178
47445W        W12672   5.924  36.008  14.871
47446W        W12673  29.086  10.044   2.039
47447W        W12674  29.268  24.937   2.196
47448W        W12675   2.917  24.255   2.324
47449W        W12676  41.396  28.630  13.847
47450W        W12677  11.196  35.473  14.112
47451W        W12678  20.652  43.814   4.200
47452W        W12679  40.928  13.795   4.132
47453W        W12680  12.562  11.829  11.847
47454W        W12681  17.198  30.450  12.883
47455W        W12682  34.572  33.491   3.199
47456W        W12683   4.230  31.509  13.386
47457W        W12684  27.077  44.731   4.134
47458W        W12685  44.227  11.840   3.849
47459W        W12686  34.908  44.440   3.995
47460W        W12687  27.464  33.929  10.804
47461W        W12688  40.129  23.699  11.565
47462W        W12689   6.498  40.656   3.845
47463W        W12690  26.561  18.026   2.457
47464W        W12691  11.411  33.968   2.243
47465W        W12692   7.325  18.050  11.427
47466W        W12693  26.032   4.860   2.361
47467W        W12694  35.967  17.014   2.725
47468W        W12695  14.498  15.433  10.794
47469W        W12696  29.436  12.849  14.772
47470W        W12697  14.626  19.972  12.043
47471W        W12698  11.797  41.865  10.514
47472W        W12699  10.718  36.587  12.841
47473W        W12700  10.647  22.065  13.423
47474W        W12701   4.479  23.939  14.814
47475W        W12702  38.965  36.596   3.228
47476W        W12703   6.415  28.662   1.425
47477W        W12704  18.173  13.452  12.798
47478W        W12705  39.471  10.545   2.849
47479W        W12706   5.383  24.061   3.144
47480W        W12707  23.068   5.349  10.500
47481W        W12708  33.647  29.254  11.954
47482W        W12709   7.343  33.155   0.896
47483W        W12710  37.921  22.268   0.402
47484W        W12711  24.256  11.449   2.640
47485W        W12712  27.657  13.131   9.767
47486W        W12713  31.631  23.246   2.698
47487W        W12714  26.616  26.673   0.166
47488W        W12715  40.558  22.031   1.601
47489W        W12716  13.757  17.829  13.333
47490W        W12717  34.453  14.221   3.264
47491W        W12718  30.977  39.095  13.392
47492W        W12719  38.530  40.889  10.958
47493W        W12720  23.038  39.018   1.201
47494W        W12721  42.417   8.417  14.313
47495W        W12722  12.516   3.842  14.105
47496W        W12723  38.835  20.051  13.067
47497W        W12724  22.020  12.550   1.439
47498W        W12725  14.549  25.613  11.645
47499W        W12726  11.782  29.686  12.161
47500W        W12727  22.963  34.472   3.755
47501W        W12728  42.434  20.968   4.163
47502W        W12729  24.803  43.139   1.672
47503W        W12730  42.908   4.373   4.557
47504W        W12731  16.876   2.798   1.950
47505W        W12732  21.311  23.197   1.337
47506W        W12733  19.824  18.331   3.745
47507W        W12734  15.144   2.484   3.576
47508W        W12735  27.720   4.009   1.817
47509W        W12736  18.307  21.199   1.799
47510W        W12737  17.341  37.891  11.538
47511W        W12738  18.223  11.107  12.872
47512W        W12739  23.159  13.206  12.454
47513W        W12740  23.463  30.103  14.045
47514W        W12741   4.123   5.767  10.785
47515W        W12742  40.555  24.497   2.674
47516W        W12743  39.026   9.842  12.509
47517W        W12744  40.779  29.695   1.387
47518W        W12745  30.458  20.141   3.541
47519W        W12746   4.134   1.301   0.661
47520W        W12747  25.953  18.606   3.645
47521W        W12748  19.243  44.146  12.289
47522W        W12749  19.674  26.191   5.072
47523W        W12750  15.693   1.728  10.557
47524W        W12751  23.293   6.893  13.421
47525W        W12752  15.136  28.980  10.592
47526W        W12753   5.121  41.684   4.566
47527W        W12754  40.989  31.956   4.841
47528W        W12755  40.076   0.164  14.956
47529W        W12756   0.215   5.868  11.986
47530W        W12757  42.705  11.218  13.971
47531W        W12758  28.618  31.115  14.063
47532W        W12759   4.752  28.913   0.434
47533W        W12760  19.297  39.645  14.367
47534W        W12761  37.810  39.834   0.325
47535W        W12762  10.571   2.408  11.443
47536W        W12763  12.799   9.856  10.735
47537W        W12764   0.250  20.786  13.622
47538W        W12765  25.068  42.863  11.971
47539W        W12766  42.059   3.380   2.385
47540W        W12767  26.362  22.034  13.568
47541W        W12768  33.670   9.198  13.514
47542W        W12769  32.646   5.777  10.661
47543W        W12770  35.089   1.188   0.318
47544W        W12771   4.786  39.048  12.869
47545W        W12772  11.582  14.614   0.421
47546W        W12773  41.747  30.701  12.302
47547W        W12774  39.983  23.328   0.747
47548W        W12775  32.239   5.243   2.211
47549W        W12776  12.841  42.426   4.585
47550W        W12777  30.577  39.357  11.904
47551W        W12778  40.375  29.639  11.188
47552W        W12779  25.679  41.429  14.883
47553W        W12780  27.052  25.993   2.762
47554W        W12781  19.157  27.006  14.004
47555W        W12782  27.500   5.870  13.258
47556W        W12783  15.279   3.936   2.968
47557W        W12784  36.117  18.117   2.643
47558W        W12785  44.538  11.385  14.966
47559W        W12786   3.669  35.715  11.617
47560W        W12787   9.273  14.066   3.280
47561W        W12788  41.979   8.957   1.970
47562W        W12789  35.371  27.012  13.345
47563W        W12790   1.581  26.645  13.380
47564W        W12791   4.905  37.557   2.678
47565W        W12792  23.914  22.144   0.923
47566W        W12793   4.354  25.556   1.335
47567W        W12794  35.067   0.957   4.167
47568W        W12795  22.214  28.483  13.898
47569W        W12796  20.225  15.556  11.802
47570W        W12797   1.809  41.783   4.470
47571W        W12798  33.229  41.225  10.881
47572W        W12799   3.504   9.048  12.128
47573W        W12800  44.048  29.648   4.268
47574W        W12801   1.943  23.458   1.803
47575W        W12802  18.725  33.486  10.667
47576W        W12803  32.924  44.582   1.705
47577W        W12804   4.717  12.273  13.833
47578W        W12805  30.638   7.211  10.923
47579W        W12806  35.976   1.444  11.675
47580W        W12807  22.307  39.787   1.779
47581W        W12808  15.664  31.706   4.234
47582W        W12809  39.053  41.892  13.828
47583W        W12810  11.717  38.960   4.667
47584W        W12811   0.988  32.335   4.947
47585W        W12812  34.705   5.173  13.555
47586W        W12813  12.035  26.043   1.929
47587W        W12814  21.158  10.983   0.822
47588W        W12815  39.296  11.877  12.888
47589W        W12816  42.544  39.994  13.980
47590W        W12817  26.280  19.344   4.566
47591W        W12818   7.986   9.349   0.329
47592W        W12819  25.642  33.467   2.741
47593W        W12820  27.708  39.994  10.623
47594W        W12821  39.443  16.208   0.964
47595W        W12822  41.547  28.944   2.537
47596W        W12823  15.346  40.409  14.020
47597W        W12824  33.351  16.218   0.859
47598W        W12825  41.370   8.370  13.364
47599W        W12826  32.538   0.559   3.387
47600W        W12827  40.467  24.464  13.863
47601W        W12828   1.406  34.093  14.683
47602W        W12829  16.927  27.479   3.886
47603W        W12830  22.535  13.242   1.916
47604W        W12831  35.837   5.138  11.105
47605W        W12832  22.974   6.937   1.642
47606W        W12833  10.840  11.254   4.703
47607W        W12834   1.982  34.800  11.015
47608W        W12835  38.926  26.547   1.750
47609W        W12836  13.156  33.654  12.848
47610W        W12837  42.285  16.992   0.853
47611W        W12838  29.380  39.551   2.411
47612W        W12839  20.238  13.125  14.350
47613W        W12840  10.289  25.859  10.431
47614W        W12841   1.021  28.519  13.577
47615W        W12842   1.052  41.269   1.950
47616W        W12843  28.696   5.474  12.170
47617W        W12844  25.752   4.937   1.529
47618W        W12845   6.889   5.583   4.285
47619W        W12846  20.432  17.092   1.838
47620W        W12847  22.119   0.645  12.083
47621W        W12848  30.084  31.896  12.856
47622W        W12849  42.278   7.157  13.036
47623W        W12850  16.723  17.069  12.385
47624W        W12851  20.816  14.886   4.291
47625W        W12852   9.753  36.893  11.592
47626W        W12853  38.066  11.871  10.720
47627W        W12854  41.038  26.753  11.121
47628W        W12855   3.832  13.187  10.754
47629W        W12856   8.635  33.925  11.414
47630W        W12857   9.399  40.858   3.817
47631W        W12858  12.062  38.555   4.663
47632W        W12859  22.992  32.592  13.489
47633W        W12860  38.426   8.142  13.987
47634W        W12861  13.236   0.624  11.795
47635W        W12862  34.361  23.206  10.397
47636W        W12863  17.296   3.702   4.503
47637W        W12864  19.324  39.970  13.561
47638W        W12865  31.740  32.677  11.617
47639W        W12866  40.452   6.956   2.176
47640W        W12867  21.641   0.890  12.054
47641W        W12868  13.195  43.808   2.433
47642W        W12869  27.705  37.276   4.588
47643W        W12870  29.632  41.483   3.653
47644W        W12871   9.838  44.284  13.435
47645W        W12872  44.981  44.546  14.010
47646W        W12873  40.049  21.776   2.302
47647W        W12874  14.749   2.945  12.551
47648W        W12875   0.858   9.946  10.737
47649W        W12876  43.101  33.535   3.037
47650W        W12877   8.888  44.979  13.940
47651W        W12878  41.939  42.663   4.787
47652W        W12879  22.011   0.710   9.884
47653W        W12880  17.236  41.859   3.173
47654W        W12881   9.104   0.415   2.840
47655W        W12882  44.376   9.585  11.089
47656W        W12883  13.929  31.595   4.956
47657W        W12884  14.284  31.620   3.244
47658W        W12885  14.902  26.115   4.198
47659W        W12886  33.806  39.304   1.824
47660W        W12887  26.502  33.484  11.295
47661W        W12888   4.438  12.722   3.425
47662W        W12889  33.999  35.560   0.179
47663W        W12890  20.762  31.439   1.961
47664W        W12891  28.251  42.583   4.781
47665W        W12892  36.907  39.756  11.485
47666W        W12893  38.054  20.302  12.977
47667W        W12894  20.657  28.299   4.818
47668W        W12895  31.729   2.926   0.097
47669W        W12896  12.341  34.693  11.567
47670W        W12897  19.481  31.345  11.930
47671W        W12898  19.327  15.250   3.920
47672W        W12899  41.526   2.788   0.352
47673W        W12900  22.252  34.588  12.654
47674W        W12901  38.036  10.654  12.099
47675W        W12902   5.518   9.522  14.232
47676W        W12903  31.871  29.570  14.753
47677W        W12904   5.742  25.165   2.201
47678W        W12905  41.904  26.217   3.987
47679W        W12906  31.140   6.095   4.044
47680W        W12907   5.360  39.387  10.732
47681W        W12908   4.466  39.521  12.362
47682W        W12909  21.757  41.456   4.829
47683W        W12910  12.156  33.603   2.696
47684W        W12911  19.175  35.450  10.696
47685W        W12912  29.909  21.560  14.914
47686W        W12913  19.701  44.876  12.607
47687W        W12914  27.000   7.928  11.222
47688W        W12915  13.663  17.518  13.763
47689W        W12916  14.176  37.815  14.956
47690W        W12917  25.151   8.349   3.913
47691W        W12918   5.854  10.425  10.592
47692W        W12919  26.036  27.046  11.179
47693W        W12920  34.918  30.863   3.299
47694W        W12921  39.228  15.489   2.651
47695W        W12922  35.088  11.756   1.725
47696W        W12923  44.788  42.235  11.022
47697W        W12924  34.473  15.782  14.041
47698W        W12925  32.485   3.636  14.824
47699W        W12926  26.665  21.791   4.585
47700W        W12927  28.928   7.482  11.005
47701W        W12928   0.405  34.399  13.354
47702W        W12929  28.751  18.645   3.949
47703W        W12930  39.050  27.132  12.467
47704W        W12931  16.668  35.747  14.240
47705W        W12932  25.069  16.036   3.149
47706W        W12933  34.932  42.749   2.321
47707W        W12934  20.117  30.120  11.683
47708W        W12935   2.856  41.578  11.542
47709W        W12936  37.059   0.180   1.822
47710W        W12937  39.265   5.676  12.611
47711W        W12938  21.065  38.007   2.224
47712W        W12939  37.653  39.988  12.121
47713W        W12940   7.873  18.701   5.014
47714W        W12941  27.999  33.784   3.687
47715W        W12942   3.417   2.753   5.172
47716W        W12943  24.795  11.184  11.635
47717W        W12944  27.929  17.555   2.294
47718W        W12945  34.153  26.174  12.462
47719W        W12946  17.219  41.532   3.592
47720W        W12947  37.152  28.091   0.272
47721W        W12948  29.736  18.827   4.085
47722W        W12949   7.661  25.233  12.958
47723W        W12950   9.669  18.882  14.121
47724W        W12951  12.807  30.458   4.777
47725W        W12952  39.557  14.680  13.903
47726W        W12953   8.601  14.198  11.676
47727W        W12954  24.474  12.094  11.888
47728W        W12955  17.040  21.371  10.720
47729W        W12956  11.728  18.161   4.069
47730W        W12957  41.547  34.979  12.065
47731W        W12958  37.082   1.445  12.076
47732W        W12959  33.901  30.557  11.689
47733W        W12960   2.846  38.854   0.791
47734W        W12961  10.668  20.287  11.530
47735W        W12962  37.212  35.107   4.314
47736W        W12963  33.552   9.164   3.649
47737W        W12964   0.432   3.770  11.221
47738W        W12965  24.040  30.075   2.260
47739W        W12966  21.609  12.531  13.568
47740W        W12967  35.628  34.444  14.043
47741W        W12968  23.033  39.618  11.984
47742W        W12969   9.427  35.455  14.430
47743W        W12970  21.020  35.348   2.618
47744W        W12971   9.359  29.290   1.187
47745W        W12972  15.497   4.125  10.378
47746W        W12973  13.335  26.574   1.702
47747W        W12974  40.282  12.488   1.869
47748W        W12975  27.950  14.825  12.879
47749W        W12976  15.892  31.981   0.038
47750W        W12977  39.397  27.668   0.462
47751W        W12978   8.922  35.348  11.168
47752W        W12979  21.068  17.680  14.554
47753W        W12980  29.413  13.072   2.685
47754W        W12981   2.551  23.506   1.263
47755W        W12982  35.893  18.629  14.005
47756W        W12983  37.293  39.512   2.412
47757W        W12984   1.575  30.517   2.736
47758W        W12985  15.429  19.737   1.818
47759W        W12986   7.323  19.010   4.202
47760W        W12987  33.747  22.658  14.844
47761W        W12988   5.998  29.164   4.598
47762W        W12989  23.207  44.405  11.828
47763W        W12990  40.030  43.644   2.139
47764W        W12991  19.363   4.230  11.997
47765W        W12992  35.495   1.253   4.171
47766W        W12993  30.677  15.145  11.624
47767W        W12994  16.568  10.197  13.949
47768W        W12995   6.189   9.422  12.820
47769W        W12996  26.091   8.149  11.700
47770W        W12997  19.279  40.979  14.487
47771W        W12998   2.827   0.934  12.646
47772W        W12999   5.274  39.049  13.975
47773W        W13000  44.518   5.985  14.971
47774W        W13001  26.262  18.075   1.183
47775W        W13002  39.514   8.821  13.370
47776W        W13003  12.279  27.465  11.285
47777W        W13004  37.060  30.881   2.381
47778W        W13005  31.413  22.957   0.882
47779W        W13006  30.597  41.312   2.743
47780W        W13007  26.925  17.417   0.407
47781W        W13008  18.073   2.758   1.114
47782W        W13009   3.665  24.457  11.201
47783W        W13010  31.538  36.546   3.078
47784W        W13011  14.151   9.762  12.608
47785W        W13012  34.997  19.156   3.038
47786W        W13013  31.419  40.676  13.626
47787W        W13014   4.453  27.910   5.018
47788W        W13015  16.008  41.649  14.924
47789W        W13016  13.255   1.746   4.348
47790W        W13017  26.188  22.297  11.515
47791W        W13018  26.148  23.979   4.108
47792W        W13019  26.094  20.902  12.044
47793W        W13020   5.068  43.431  13.917
47794W        W13021  36.575  21.994   2.633
47795W        W13022  40.030   6.420  11.686
47796W        W13023  35.657  35.934  13.341
47797W        W13024  39.661  43.523  14.428
47798W        W13025  18.328   0.718   4.234
47799W        W13026   1.147  25.428  14.465
47800W        W13027   0.076  19.577   0.233
47801W        W13028  42.995  16.077   0.788
47802W        W13029   7.097  25.980  11.177
47803W        W13030   5.230  19.184   1.722
47804W        W13031  35.014  23.617   9.866
47805W        W13032  33.044   5.389   0.316
47806W        W13033  22.057  31.667  13.043
47807W        W13034  24.555  11.675   4.252
47808W        W13035  32.313  10.594   1.692
47809W        W13036   8.438  32.401  14.833
47810W        W13037  35.277  21.944  14.904
47811W        W13038  31.161  13.343   3.530
47812W        W13039  13.778   2.431   3.859
47813W        W13040  43.118  29.548  12.412
47814W        W13041  26.631  17.838   4.877
47815W        W13042  15.242  19.523   0.475
47816W        W13043  24.466  27.940  11.160
47817W        W13044  15.522  15.508  12.496
47818W        W13045  16.070   8.243   1.704
47819W        W13046   8.932  39.950   2.485
47820W        W13047  17.573  10.774  12.075
47821W        W13048  27.415  41.451   3.101
47822W        W13049   7.624   4.383   4.802
47823W        W13050  33.830  10.037   1.686
47824W        W13051  36.168  16.962   0.342
47825W        W13052  44.976  12.771  14.358
47826W        W13053   5.492   4.799  14.759
47827W        W13054  35.916  20.286   4.218
47828W        W13055   8.342  15.751  14.478
47829W        W13056   0.413  26.143  13.523
47830W        W13057  14.652  36.570   0.355
47831W        W13058   3.898  40.313  13.791
47832W        W13059  43.847   4.270  14.499
47833W        W13060  26.193  36.986  14.558
47834W        W13061  40.792  38.937  11.528
47835W        W13062  22.621   0.989  13.469
47836W        W13063   1.478   2.034   4.107
47837W        W13064   5.198  38.313   3.066
47838W        W13065  26.758   6.179  10.556
47839W        W13066  34.851  44.751  13.032
47840W        W13067  44.535  17.572   3.773
47841W        W13068  24.514  35.448   2.248
47842W        W13069  28.514  25.226  14.393
47843W        W13070  15.813   0.348   0.172
47844W        W13071  28.241   7.145  14.202
47845W        W13072  28.578  37.402   0.204
47846W        W13073  35.913   2.736  11.100
47847W        W13074  38.456   1.115   2.599
47848W        W13075  27.013  31.147   0.291
47849W        W13076  20.605  25.139   0.950
47850W        W13077  14.109  29.689  12.534
47851W        W13078  11.715  25.204  13.120
47852W        W13079  15.716  33.129  13.983
47853W        W13080  12.589  34.882  14.922
47854W        W13081  15.278  44.791  11.496
47855W        W13082   8.444   7.714   2.180
47856W        W13083  12.946  39.600  11.486
47857W        W13084  39.790   3.291   4.111
47858W        W13085  11.988  41.396   0.249
47859W        W13086  40.331   3.509  11.670
47860W        W13087   2.372   0.641  13.948
47861W        W13088  40.614   3.245  14.653
47862W        W13089   8.370   4.067  11.807
47863W        W13090   4.959  37.864   4.243
47864W        W13091  12.356  28.613  11.562
47865W        W13092  36.502  26.667   4.101
47866W        W13093  30.139  20.827   0.398
47867W        W13094   5.789  35.292   0.563
47868W        W13095  31.397  34.831   9.661
47869W        W13096   5.630  17.499   2.304
47870W        W13097  20.626   6.257   0.998
47871W        W13098  28.550  30.254   4.757
47872W        W13099  31.913  19.623   4.151
47873W        W13100  11.307  15.680  14.023
47874W        W13101   6.990  43.075  14.257
47875W        W13102   0.448  38.988   0.497
47876W        W13103  10.597  16.724  14.902
47877W        W13104  42.447   8.761  13.830
47878W        W13105  36.206  26.828  12.931
47879W        W13106   9.212  18.068  13.519
47880W        W13107   2.592  17.981   1.048
47881W        W13108   5.809  22.662   3.867
47882W        W13109  42.347  16.183  13.970
47883W        W13110  33.503   4.637   2.754
47884W        W13111   5.723  24.937  10.737
47885W        W13112  31.377  12.702   0.493
47886W        W13113  11.555   3.755  13.065
47887W        W13114  20.817   6.258   1.935
47888W        W13115   0.952  40.641  13.910
47889W        W13116  23.014   5.743   2.175
47890W        W13117  21.052   7.712  11.986
47891W        W13118  44.519  34.809   5.029
47892W        W13119  32.575  11.212  12.294
47893W        W13120  42.485  41.483   0.727
47894W        W13121  42.829  27.270   4.997
47895W        W13122  36.492   0.491   0.627
47896W        W13123   4.773   1.515   1.181
47897W        W13124  14.528   7.711  14.510
47898W        W13125   7.327  35.626   2.195
47899W        W13126  22.586  15.987   1.765
47900W        W13127   7.917   2.391  14.577
47901W        W13128  13.792   0.323  12.856
47902W        W13129  22.795   7.910  11.027
47903W        W13130  15.337  28.149   2.898
47904W        W13131  38.377  21.034   1.808
47905W        W13132   5.232  29.980   0.780
47906W        W13133  33.553  14.626  12.841
47907W        W13134  10.815  10.845   0.373
47908W        W13135  14.493  39.071   0.312
47909W        W13136  44.718  18.113   3.335
47910W        W13137   0.773  34.661  11.926
47911W        W13138  43.055   4.410   3.592
47912W        W13139   6.853   8.102  13.293
47913W        W13140   3.738  14.805   2.213
47914W        W13141  43.978   7.854   1.942
47915W        W13142  29.476  41.456   0.050
47916W        W13143  37.802   1.335   0.379
47917W        W13144  41.378  17.851  13.860
47918W        W13145  26.998   4.238   0.348
47919W        W13146  37.820   9.806   0.429
47920W        W13147  34.343  17.023   3.276
47921W        W13148  20.349   3.883  11.515
47922W        W13149   5.879  23.580   0.026
47923W        W13150  24.561  39.585   4.814
47924W        W13151  10.206  43.089  10.931
47925W        W13152  35.621  42.318   1.731
47926W        W13153  34.533  28.391  10.565
47927W        W13154  17.571  44.499  11.988
47928W        W13155  36.937  23.411   4.290
47929W        W13156   6.048  44.550   0.757
47930W        W13157   4.700  18.166   3.801
47931W        W13158  34.374  27.632  14.100
47932W        W13159  36.526  41.880   1.735
47933W        W13160  39.981  18.491   4.058
47934W        W13161   3.221  13.174  11.958
47935W        W13162  20.468   9.753   1.328
47936W        W13163  43.442  35.824  11.237
47937W        W13164  14.420  37.692   5.117
47938W        W13165  22.632  15.266  10.768
47939W        W13166  32.210  13.871  12.488
47940W        W13167  11.123  39.095   4.063
47941W        W13168   1.636  28.953  10.998
47942W        W13169  32.880  34.606  11.455
47943W        W13170  27.087   4.743  11.195
47944W        W13171   4.393  15.323   2.864
47945W        W13172  41.477   7.653   4.793
47946W        W13173  18.757  41.555  12.881
47947W        W13174  25.690  30.951   4.022
47948W        W13175   0.902  33.389   2.760
47949W        W13176  14.082  33.147   2.320
47950W        W13177   4.956  18.913  10.162
47951W        W13178  26.527  44.769  11.369
47952W        W13179  17.509  19.384   2.187
47953W        W13180  41.895  44.184  14.828
47954W        W13181  12.854  33.604  10.269
47955W        W13182  36.893  42.932   3.685
47956W        W13183  19.084  29.125   4.352
47957W        W13184  42.262  11.570   2.472
47958W        W13185  38.942   9.916  10.850
47959W        W13186  15.347   5.685  14.595
47960W        W13187   8.362  19.172  10.742
47961W        W13188  32.364  20.110   4.792
47962W        W13189  18.634  30.459   2.126
47963W        W13190  23.217  15.749  11.483
47964W        W13191  13.291  18.919   5.147
47965W        W13192  42.608  42.744   0.679
47966W        W13193  17.585   7.802   3.144
47967W        W13194  34.423  32.593  11.100
47968W        W13195   3.427  32.090   1.525
47969W        W13196  32.448   8.619   0.391
47970W        W13197  38.553  10.623  12.080
47971W        W13198  25.423  36.619  14.363
47972W        W13199  25.618  39.833  13.044
47973W        W13200  13.317  37.820  10.823
47974W        W13201  20.089  25.890   3.711
47975W        W13202   3.351  19.221  10.969
47976W        W13203  14.718  32.445   0.112
47977W        W13204  26.895  17.781  12.338
47978W        W13205  24.288  11.677   0.073
47979W        W13206  44.119   4.121   4.924
47980W        W13207  33.041   9.601  10.553
47981W        W13208  11.458  41.236   0.220
47982W        W13209  44.248   9.792  10.649
47983W        W13210   4.367  42.438  12.891
47984W        W13211   3.326  19.664  13.421
47985W        W13212  30.479  28.902   5.124
47986W        W13213   8.642  31.176  14.361
47987W        W13214  21.276  26.530  10.565
47988W        W13215  22.986  23.749   2.259
47989W        W13216   1.086  41.352  14.386
47990W        W13217   3.037   4.350  13.753
47991W        W13218  24.352   8.529   4.248
47992W        W13219   1.493  25.794   4.500
47993W        W13220  21.689  28.184  11.294
47994W        W13221  10.214   0.902   3.049
47995W        W13222  26.980  44.735   3.157
47996W        W13223   8.549  34.434   4.070
47997W        W13224   6.301  19.350  14.523
47998W        W13225  22.554  14.914   0.248
47999W        W13226  31.517  32.482  14.188
48000W        W13227  33.362  16.770   2.703
48001W        W13228  15.958  27.074  13.363
48002W        W13229  24.185   3.266  14.963
48003W        W13230  36.499  37.792   4.659
48004W        W13231  20.844  35.321  12.482
48005W        W13232  12.144  29.870  11.846
48006W        W13233  13.166  10.948  11.969
48007W        W13234  22.323  15.880  13.282
48008W        W13235  11.137   3.672  10.272
48009W        W13236  27.099  30.626   2.643
48010W        W13237  13.874  23.672   2.482
48011W        W13238  22.289  28.567   3.316
48012W        W13239   9.920   7.668   0.995
48013W        W13240   7.271  34.077   2.840
48014W        W13241  10.751   7.365   4.366
48015W        W13242  32.594  35.087   0.896
48016W        W13243  40.529  22.039  11.658
48017W        W13244   4.235  25.549  11.194
48018W        W13245  14.015  24.401  14.801
48019W        W13246  41.247  39.945  10.807
48020W        W13247  41.897  24.142   2.346
48021W        W13248  34.585  32.887   0.855
48022W        W13249  14.890   2.905   3.265
48023W        W13250  32.111  11.576  12.899
48024W        W13251  19.967  41.398   1.231
48025W        W13252  19.318  32.580   1.481
48026W        W13253  32.142  40.715  14.543
48027W        W13254  30.608  10.311  13.108
48028W        W13255  35.872  32.071   0.364
48029W        W13256  19.726  37.369  10.662
48030W        W13257  33.415  42.272  13.427
48031W        W13258  29.961  18.415  11.921
48032W        W13259  19.506   2.884   0.701
48033W        W13260   9.270   1.873  10.934
48034W        W13261  18.561   9.407   4.753
48035W        W13262  14.966   4.244  12.865
48036W        W13263   5.749  17.444  12.521
48037W        W13264  41.858  28.258   1.249
48038W        W13265  12.685   0.304   3.992
48039W        W13266  39.971  19.063  11.348
48040W        W13267  35.924  36.360   4.425
48041W        W13268  36.600   1.511   3.613
48042W        W13269  31.949  43.059   3.735
48043W        W13270  27.090  17.128   1.913
48044W        W13271  19.763  40.891  11.522
48045W        W13272  24.528  34.692   3.228
48046W        W13273  11.677  37.917   2.445
48047W        W13274  21.556  12.369   1.270
48048W        W13275  21.111  41.948   3.459
48049W        W13276   4.359  11.348   1.749
48050W        W13277  17.035  11.840  12.879
48051W        W13278   0.395  31.835  11.023
48052W        W13279  11.191  15.982  12.814
48053W        W13280  24.686   6.748   4.068
48054W        W13281  11.796  31.638   1.871
48055W        W13282  17.057  13.128   5.015
48056W        W13283  31.012  27.472  14.328
48057W        W13284  39.541   2.824  14.015
48058W        W13285   7.857  34.923   2.788
48059W        W13286  16.704  38.056  13.599
48060W        W13287  20.484  25.163   0.451
48061W        W13288  29.451   8.342  11.615
48062W        W13289  40.845  15.188   2.923
48063W        W13290  33.165  25.015   5.079
48064W        W13291   9.628  11.728  14.359
48065W        W13292  23.288  16.037  10.489
48066W        W13293   5.326  10.254   3.289
48067W        W13294  41.888  15.633  12.186
48068W        W13295  27.015  18.256  10.708
48069W        W13296  34.666  13.751  14.381
48070W        W13297  17.746  35.496   4.395
48071W        W13298  29.267  36.868  10.261
48072W        W13299  26.071  38.805  11.222
48073W        W13300  43.331  36.653  13.874
48074W        W13301  40.876  38.113   4.156
48075W        W13302  33.694  10.819  12.734
48076W        W13303  36.831  11.046  12.484
48077W        W13304   0.729  10.239   3.325
48078W        W13305   2.578   7.825   2.517
48079W        W13306  21.831  37.441  14.819
48080W        W13307  38.800  18.812  13.103
48081W        W13308  39.435  32.921  14.878
48082W        W13309  28.158   5.342  12.913
48083W        W13310   5.713  33.410   2.823
48084W        W13311  19.106  15.683   3.725
48085W        W13312   7.682  40.604  12.056
48086W        W13313  36.002  31.172  13.496
48087W        W13314  32.464  12.087   3.187
48088W        W13315   1.236  17.105  11.037
48089W        W13316   5.931  16.187   0.829
48090W        W13317  41.476   5.244  14.146
48091W        W13318  42.986   3.871   4.398
48092W        W13319  31.867  18.701   4.127
48093W        W13320  39.563   1.479  14.272
48094W        W13321  39.025  24.858   2.038
48095W        W13322  11.592  30.408  11.636
48096W        W13323  12.107  19.178   0.326
48097W        W13324  41.901   1.124   1.390
48098W        W13325  33.576  30.951   0.781
48099W        W13326  38.644   0.934   3.305
48100W        W13327   1.800   3.358   2.228
48101W        W13328  34.481   7.218   1.983
48102W        W13329  40.990  36.574   4.856
48103W        W13330  44.110  44.889  11.564
48104W        W13331  44.526  23.521   3.113
48105W        W13332   4.130  32.860   4.490
48106W        W13333  29.416  39.717  10.130
48107W        W13334  42.270  36.369   0.976
48108W        W13335   3.532  21.463  12.667
48109W        W13336  21.040  35.661  11.603
48110W        W13337  20.738  23.154  12.150
48111W        W13338  38.554  30.123  14.277
48112W        W13339  40.758   8.894  13.800
48113W        W13340  32.792   7.232   1.406
48114W        W13341  42.423  37.727   1.315
48115W        W13342  31.088  14.556  12.345
48116W        W13343   3.874  21.424  14.056
48117W        W13344   2.729  17.776  13.524
48118W        W13345  44.465  25.668   2.808
48119W        W13346  43.248  42.696  13.619
48120W        W13347   9.106  19.760   1.227
48121W        W13348  29.999  40.566  12.599
48122W        W13349   5.357  15.616   3.183
48123W        W13350   6.942   0.745  13.598
48124W        W13351   1.721  39.339   3.568
48125W        W13352  26.215  41.521  14.824
48126W        W13353  44.162  30.458  13.563
48127W        W13354  43.664   8.213   2.188
48128W        W13355  18.831  31.655   0.797
48129W        W13356  36.251  23.701  12.856
48130W        W13357  40.454   2.726  11.093
48131W        W13358  33.939  22.714  14.328
48132W        W13359  29.420  32.595  13.525
48133W        W13360  30.913  35.552   0.133
48134W        W13361  23.100   5.799  10.745
48135W        W13362  12.209  14.601   0.772
48136W        W13363  11.228  17.102  12.888
48137W        W13364  43.812  35.593  12.898
48138W        W13365   0.520  20.890   2.213
48139W        W13366   9.207  43.219  14.092
48140W        W13367  42.903  22.946  11.130
48141W        W13368   7.615  38.994   1.361
48142W        W13369  40.936  23.146  11.327
48143W        W13370  16.313   3.786  12.914
48144W        W13371  41.286  34.295   2.301
48145W        W13372  15.349  10.507   1.120
48146W        W13373   2.021   0.568   4.075
48147W        W13374  23.130  15.769   4.820
48148W        W13375   1.252  36.762   3.871
48149W        W13376  19.364  18.015   1.327
48150W        W13377  36.515   6.254   0.649
48151W        W13378  34.129   4.736  12.987
48152W        W13379  42.110  13.111  13.923
48153W        W13380   0.415   2.872   2.026
48154W        W13381  38.506  41.619  12.948
48155W        W13382  11.319  27.998  12.390
48156W        W13383  19.422  17.585   3.729
48157W        W13384  42.525  24.469  12.002
48158W        W13385   3.354  39.465   4.528
48159W        W13386  27.104  11.574   3.107
48160W        W13387   6.908   6.008  14.813
48161W        W13388   9.423   6.310   1.030
48162W        W13389   4.499  16.594   5.121
48163W        W13390  35.034  29.849   3.163
48164W        W13391  20.859  25.148   2.838
48165W        W13392   6.726  32.899   1.731
48166W        W13393  44.895   8.181  13.171
48167W        W13394  17.721  15.951   3.271
48168W        W13395   2.403  36.332  12.569
48169W        W13396  26.074  37.439   4.879
48170W        W13397  16.772  10.181   2.359
48171W        W13398   7.781  11.426   1.413
48172W        W13399  40.573  37.524   1.480
48173W        W13400   5.724   7.337  14.979
48174W        W13401  15.813  34.554   3.768
48175W        W13402  36.963  37.862  11.715
48176W        W13403   6.284  30.118   4.094
48177W        W13404  12.724  24.379   3.247
48178W        W13405  16.102  40.360  11.859
48179W        W13406  32.918  24.559   4.981
48180W        W13407  34.303  24.244   4.317
48181W        W13408  37.260  32.448  11.043
48182W        W13409   9.955   7.224   2.742
48183W        W13410   8.900  41.032   3.727
48184W        W13411  30.373  22.782  10.677
48185W        W13412  36.103   1.274   2.800
48186W        W13413  32.453  12.093  13.953
48187W        W13414  40.878   6.246   0.685
48188W        W13415  13.291  35.974  14.043
48189W        W13416  37.955  44.058  10.398
48190W        W13417  37.372  11.870  14.231
48191W        W13418  25.054   6.702  11.040
48192W        W13419  25.902  22.511  11.936
48193W        W13420  44.032  31.480   3.160
48194W        W13421   0.550  16.414   9.863
48195W        W13422   2.887  40.010   2.058
48196W        W13423   6.761  16.665   2.811
48197W        W13424  37.641  19.702   4.979
48198W        W13425  30.588  16.674   2.645
48199W        W13426  23.425  20.057  10.812
48200W        W13427  26.859  19.140  13.296
48201W        W13428  21.538  31.904  13.570
48202W        W13429  19.503  34.501  12.001
48203W        W13430   6.835   8.242  10.726
48204W        W13431  14.120  17.284   3.170
48205W        W13432  22.057  39.887   0.268
48206W        W13433  36.492   3.214  13.801
48207W        W13434  20.132  20.700  14.486
48208W        W13435  33.395  43.021  12.341
48209W        W13436  39.880  37.477   2.836
48210W        W13437  34.859  24.428   2.718
48211W        W13438  13.863   9.795  12.185
48212W        W13439   3.411  27.086  14.679
48213W        W13440  26.420  39.514  12.495
48214W        W13441  40.087  16.347  11.447
48215W        W13442   9.727  33.346  10.642
48216W        W13443   8.141  36.436  10.479
48217W        W13444  33.101  41.798  11.634
48218W        W13445   5.597   1.534   5.072
48219W        W13446  39.910   0.016   3.652
48220W        W13447  19.266  25.416   3.614
48221W        W13448  41.355   0.218  14.355
48222W        W13449   9.707  44.251  14.391
48223W        W13450   5.964  11.836  12.362
48224W        W13451  39.709  38.425  12.085
48225W        W13452  22.024  17.968   0.048
48226W        W13453  21.623  13.033  13.458
48227W        W13454  19.300  30.078  10.675
48228W        W13455  26.384  20.778  12.468
48229W        W13456   5.736  44.654  10.501
48230W        W13457  40.498  16.756   3.265
48231W        W13458  17.792   2.064  13.726
48232W        W13459  11.557  18.287  11.215
48233W        W13460   7.456   4.815   1.525
48234W        W13461  19.821   1.727  12.051
48235W        W13462  40.947  24.974  12.542
48236W        W13463  34.879  21.712  13.810
48237W        W13464   6.695   4.745   4.159
48238W        W13465  27.225  16.841   2.335
48239W        W13466  28.553  26.883   2.601
48240W        W13467  32.418  21.378  10.242
48241W        W13468  23.266  40.874  12.873
48242W        W13469  34.874  40.900  11.474
48243W        W13470   8.176  27.967  11.183
48244W        W13471   8.033  21.083   1.996
48245W        W13472  14.239   4.823  12.597
48246W        W13473  43.279  28.118  13.356
48247W        W13474   2.506  44.595   3.154
48248W        W13475  33.189   7.639  13.186
48249W        W13476   5.428  14.251  12.966
48250W        W13477  29.847   5.644   2.681
48251W        W13478  13.787  34.861   2.454
48252W        W13479   0.497   5.395  11.950
48253W        W13480  38.889  30.594   3.654
48254W        W13481  31.861  36.024  14.503
48255W        W13482  13.283   4.790  13.042
48256W        W13483  35.978   8.147   3.693
48257W        W13484  16.015  33.622   4.974
48258W        W13485  42.072   6.548   3.690
48259W        W13486   4.356  10.398   3.234
48260W        W13487  18.252  14.145  11.059
48261W        W13488  17.587  13.690   1.326
48262W        W13489   6.265  23.957   3.382
48263W        W13490   3.280  21.337  13.998
48264W        W13491  27.498  42.578  12.514
48265W        W13492  20.573  36.008   1.260
48266W        W13493  39.927  42.186   4.166
48267W        W13494   0.380  16.769   2.433
48268W        W13495  17.644  11.282  14.882
48269W        W13496  16.923  13.213  13.457
48270W        W13497   5.862   7.860  10.621
48271W        W13498  27.231  42.591  12.047
48272W        W13499  20.246  40.560  11.674
48273W        W13500  28.660   6.172   4.645
48274W        W13501  16.890  36.869   2.361
48275W        W13502  28.717  16.832  12.493
48276W        W13503  18.758  30.059   1.868
48277W        W13504  44.850  23.581   3.509
48278W        W13505  31.658  19.152   0.376
48279W        W13506  30.868  24.030  10.825
48280W        W13507   3.738  26.533  11.260
48281W        W13508  16.666  41.235   1.663
48282W        W13509  32.170  43.038   4.644
48283W        W13510  29.041  36.579   0.915
48284W        W13511  43.787  37.246   1.701
48285W        W13512  32.074  33.637   4.019
48286W        W13513  43.704  19.027   3.791
48287W        W13514  42.081   5.345  12.908
48288W        W13515   4.911  18.764   3.781
48289W        W13516  29.655  17.485  11.046
48290W        W13517  35.420  32.386  14.953
48291W        W13518  42.074  14.317  14.422
48292W        W13519  17.115  28.685  12.081
48293W        W13520   6.672  35.454  10.938
48294W        W13521  20.513  13.388  11.100
48295W        W13522  11.336   6.657  11.060
48296W        W13523  18.069  23.260  14.905
48297W        W13524  43.974  42.494  10.408
48298W        W13525  14.920  12.377  12.820
48299W        W13526   6.847   2.375   1.259
48300W        W13527  22.621  11.786  10.758
48301W        W13528  35.162   2.775   3.835
48302W        W13529  34.923  30.354   3.238
48303W        W13530  26.923  21.567  10.533
48304W        W13531  11.363   2.667  13.419
48305W        W13532   5.087  28.105   4.508
48306W        W13533  34.571   2.896   1.391
48307W        W13534  13.820  16.240  11.571
48308W        W13535  41.880  18.325  13.490
48309W        W13536  34.415  17.606   2.234
48310W        W13537  36.822  37.386  11.894
48311W        W13538   4.950  19.982   0.324
48312W        W13539   6.223  24.572   0.644
48313W        W13540  34.416  24.733   2.612
48314W        W13541   0.242   8.731   2.013
48315W        W13542  33.584  40.096  14.203
48316W        W13543  17.508  32.179  10.553
48317W        W13544  42.460  28.370   1.707
48318W        W13545   6.257  20.972   3.571
48319W        W13546  24.511  35.178  10.860
48320W        W13547   3.428  40.933  10.338
48321W        W13548  14.751  43.021  11.753
48322W        W13549   9.814  43.674  11.677
48323W        W13550  21.458  29.013  13.500
48324W        W13551  19.732  41.727  10.839
48325W        W13552  41.815  16.394  11.650
48326W        W13553  36.875  17.269   3.167
48327W        W13554  27.696   0.673   1.617
48328W        W13555  38.782  40.086  13.882
48329W        W13556  38.283  32.778   4.071
48330W        W13557  40.547  21.739  10.883
48331W        W13558  17.116  41.173  11.163
48332W        W13559  23.346  18.594   4.111
48333W        W13560  39.524   0.611  14.411
48334W        W13561  42.749  35.414  13.072
48335W        W13562  33.607  12.563  10.801
48336W        W13563  12.652  35.572   1.466
48337W        W13564  22.387  19.592   4.609
48338W        W13565  23.194  43.903   9.955
48339W        W13566  14.768  19.327  13.901
48340W        W13567  12.096  18.226   1.185
48341W        W13568  14.918  10.258   1.002
48342W        W13569   6.707  17.647   0.895
48343W        W13570  26.738   7.281  10.047
48344W        W13571  17.753  12.620  13.802
48345W        W13572  43.368  44.661  14.854
48346W        W13573   4.187  31.071   2.159
48347W        W13574  40.468   7.413   4.540
48348W        W13575  17.344  22.071   2.080
48349W        W13576  24.703   0.842  13.039
48350W        W13577  16.638  12.695  11.400
48351W        W13578  23.493  32.658  14.318
48352W        W13579  36.629  29.113   2.205
48353W        W13580  33.603  40.036   2.111
48354W        W13581  36.886  33.210   2.357
48355W        W13582  29.503   4.154   4.610
48356W        W13583  28.530   6.808  10.499
48357W        W13584  18.147  15.641   0.836
48358W        W13585  38.158  15.249  11.993
48359W        W13586  33.662  18.477  12.500
48360W        W13587  38.455  27.563   0.705
48361W        W13588   1.852  19.003   0.806
48362W        W13589  19.755   6.776   1.274
48363W        W13590  40.472  39.865   1.049
48364W        W13591   3.078   3.376  10.994
48365W        W13592  19.227   3.729   0.680
48366W        W13593  12.796   1.239  10.778
48367W        W13594  16.795  10.691   1.644
48368W        W13595   1.245  33.963   1.972
48369W        W13596  32.527  42.912   1.517
48370W        W13597  30.182  31.166  12.396
48371W        W13598  16.131  28.041   4.024
48372W        W13599  12.094  43.289  12.778
48373W        W13600  16.936  36.954   1.397
48374W        W13601  40.375  41.335  14.907
48375W        W13602   7.890   3.719   2.593
48376W        W13603  18.791  15.718   1.275
48377W        W13604  23.230  11.701   0.922
48378W        W13605  32.308  10.754  11.675
48379W        W13606  35.793   4.258   0.196
48380W        W13607   6.331  44.016   4.643
48381W        W13608   2.677  40.003  12.203
48382W        W13609  20.783  41.576   2.789
48383W        W13610  33.905   6.699  11.465
48384W        W13611   9.556  15.584  12.559
48385W        W13612   5.882   9.833   3.225
48386W        W13613  35.556  12.532  14.390
48387W        W13614  15.069  20.799   3.580
48388W        W13615  22.817  11.690   0.610
48389W        W13616  11.302  43.218  12.502
48390W        W13617  43.904  12.141  14.242
48391W        W13618  12.660  19.507   3.366
48392W        W13619  15.267  25.448   3.029
48393W        W13620   3.227  13.702  12.000
48394W        W13621  32.580   4.739  11.944
48395W        W13622  15.836  30.137  11.711
48396W        W13623  19.810  34.457  11.601
48397W        W13624  32.893  22.097  11.551
48398W        W13625  39.516  24.035   1.137
48399W        W13626  44.002  29.565   3.150
48400W        W13627  21.284  22.409   1.636
48401W        W13628  20.605  34.105  12.484
48402W        W13629  37.847   4.916  11.577
48403W        W13630   0.848  33.670   4.960
48404W        W13631  15.852  23.988   4.198
48405W        W13632  17.132  17.435  11.151
48406W        W13633  31.224   1.058  13.274
48407W        W13634  23.234   9.888  13.866
48408W        W13635  27.567  18.118   3.216
48409W        W13636  17.392  39.312   3.256
48410W        W13637  11.791  10.663  12.034
48411W        W13638  20.075  28.896  12.383
48412W        W13639  41.282  27.122  12.353
48413W        W13640  12.574  37.881   3.657
48414W        W13641  14.297   1.907   2.809
48415W        W13642  25.247   0.618  12.185
48416W        W13643  43.253  35.675   2.854
48417W        W13644  29.811  19.160  14.365
48418W        W13645  11.809  41.530   2.372
48419W        W13646  38.695  13.168   3.408
48420W        W13647   7.150  38.841   0.475
48421W        W13648  18.518  18.077   4.162
48422W        W13649  10.204   6.078   4.999
48423W        W13650  43.971  23.229  14.372
48424W        W13651  18.847  39.870  13.412
48425W        W13652   9.679  28.556  12.064
48426W        W13653   5.331  11.060   0.876
48427W        W13654  26.697  16.337  14.978
48428W        W13655  24.040  31.658   3.137
48429W        W13656  33.429  11.794  13.524
48430W        W13657  29.472  42.335  11.974
48431W        W13658  14.540  12.775  12.971
48432W        W13659  27.620  10.596   0.232
48433W        W13660   8.341   5.772   2.466
48434W        W13661  40.044  20.223  14.306
48435W        W13662  30.595   8.828   2.704
48436W        W13663  17.605   1.759   1.812
48437W        W13664  33.481   0.872  13.810
48438W        W13665   6.839  28.216  12.405
48439W        W13666  25.596  36.166   3.753
48440W        W13667  39.929   9.913  11.640
48441W        W13668  41.421  18.138  14.303
48442W        W13669  42.656   0.726   3.294
48443W        W13670  28.228  27.057  14.474
48444W        W13671  27.157  16.400  14.763
48445W        W13672  18.389  43.069   4.129
48446W        W13673  38.752  41.396   1.433
48447W        W13674   1.746  12.767   0.290
48448W        W13675   4.172  15.583   4.380
48449W        W13676   6.666  32.520  14.385
48450W        W13677   7.666   3.960   0.342
48451W        W13678  20.124  26.065  11.456
48452W        W13679  21.199  41.000   0.530
48453W        W13680  14.423  40.903   0.296
48454W        W13681  35.771  31.041   1.716
48455W        W13682  35.581  36.011   3.093
48456W        W13683   3.623   1.433   5.531
48457W        W13684  31.738  43.482  13.950
48458W        W13685   9.798  33.935  13.856
48459W        W13686   5.229  10.457   1.687
48460W        W13687  29.749  37.558   3.603
48461W        W13688  39.014  35.575   2.622
48462W        W13689  42.538   9.263   2.809
48463W        W13690  38.091   4.431  12.866
48464W        W13691  14.750  27.116  14.010
48465W        W13692   3.125  39.344   1.386
48466W        W13693  14.228  36.343  11.179
48467W        W13694   8.590  42.601  10.540
48468W        W13695  35.343   6.058   0.723
48469W        W13696  25.099  19.134   4.367
48470W        W13697  14.254   0.654  10.880
48471W        W13698  30.013   0.067   0.354
48472W        W13699  18.281  40.393  13.835
48473W        W13700  37.336  29.048   1.542
48474W        W13701  26.723   4.045  10.749
48475W        W13702  37.887   6.194   2.317
48476W        W13703  29.082  37.326  12.105
48477W        W13704  12.183  40.481  10.077
48478W        W13705  11.248   6.800  13.141
48479W        W13706  11.708  26.685   1.179
48480W        W13707  16.051  36.984   2.828
48481W        W13708  32.341   2.290  13.377
48482W        W13709  27.976  31.492   2.727
48483W        W13710   1.018  33.327   1.304
48484W        W13711  18.155  30.654  10.625
48485W        W13712  27.947  37.780  11.586
48486W        W13713  32.375  17.295   0.696
48487W        W13714  29.436  36.244   0.978
48488W        W13715  40.740  43.888   2.838
48489W        W13716  42.525  22.104   3.654
48490W        W13717  10.958   6.389  13.368
48491W        W13718  21.648  19.178   0.253
48492W        W13719  32.820  37.666   0.434
48493W        W13720  14.197  36.175  12.506
48494W        W13721  13.330   8.589   1.770
48495W        W13722  40.356  10.478   2.340
48496W        W13723  39.015  23.096  12.324
48497W        W13724  41.842  20.516  13.541
48498W        W13725  42.271  22.686   2.304
48499W        W13726  36.365  42.031  14.867
48500W        W13727   6.885  40.907  14.844
48501W        W13728  26.798  14.904  13.662
48502W        W13729  14.296  12.005  13.870
48503W        W13730  27.613  36.413   0.724
48504W        W13731  32.063  28.195   0.358
48505W        W13732   9.847  29.825  12.450
48506W        W13733  44.768  20.386   3.236
48507W        W13734  29.150  10.984  11.917
48508W        W13735   2.649  35.585  10.756
48509W        W13736  34.687  36.192  13.919
48510W        W13737   6.750  30.216  12.666
48511W        W13738   8.264  44.665   3.833
48512W        W13739   2.529  36.538  10.615
48513W        W13740  23.342  20.294   1.605
48514W        W13741   9.821  44.749  14.372
48515W        W13742   7.035  37.382   4.498
48516W        W13743   0.577  34.884  13.455
48517W        W13744   7.776  22.968  10.591
48518W        W13745  12.673  26.708  13.891
48519W        W13746   8.050  44.261  12.603
48520W        W13747  15.565  31.547  14.336
48521W        W13748   4.272  22.102   3.142
48522W        W13749  18.260  25.279  14.083
48523W        W13750  35.955  27.083   0.963
48524W        W13751  37.793  20.717  12.836
48525W        W13752   4.726  13.334  14.878
48526W        W13753  23.607  32.996   1.191
48527W        W13754  18.492   3.457   1.832
48528W        W13755  39.522  12.291  11.590
48529W        W13756   7.352  27.212   3.698
48530W        W13757   6.571  30.691   1.278
48531W        W13758  39.109  27.098   1.406
48532W        W13759  21.591  38.692   4.223
48533W        W13760  11.118  14.222  13.428
48534W        W13761   9.153  32.344  11.422
48535W        W13762  36.499  12.639   4.697
48536W        W13763   3.787  27.926  13.017
48537W        W13764  30.954  20.592  13.965
48538W        W13765   2.958  16.307  14.164
48539W        W13766  11.122   7.723  12.947
48540W        W13767  40.298  30.800   4.188
48541W        W13768  22.680   2.047   2.260
48542W        W13769  38.879   3.350   0.499
48543W        W13770  28.947  42.312  14.967
48544W        W13771  44.781  44.372   0.299
48545W        W13772   6.048  25.592   3.252
48546W        W13773  12.760  44.490  11.527
48547W        W13774  37.458  20.129   0.852
48548W        W13775  23.520  43.497   1.762
48549W        W13776  32.190  16.801   4.484
48550W        W13777  38.467   7.955   0.702
48551W        W13778  35.231  31.351  11.998
48552W        W13779  40.849  28.695  13.494
48553W        W13780  10.063  34.485   4.166
48554W        W13781   2.142  17.804  14.384
48555W        W13782  41.521  16.436  12.100
48556W        W13783  32.447  18.690  11.193
48557W        W13784  26.237  39.752  13.980
48558W        W13785  44.448   7.948   4.040
48559W        W13786  26.762  44.980   2.755
48560W        W13787   7.704  42.014  13.290
48561W        W13788  19.558   0.542   1.031
48562W        W13789  18.416  41.271   2.812
48563W        W13790  15.823  35.819   3.568
48564W        W13791  35.335   3.345   0.298
48565W        W13792  39.483  32.986  13.531
48566W        W13793  40.182  21.225   1.239
48567W        W13794  38.959   4.270  12.383
48568W        W13795  22.376  43.006   5.003
48569W        W13796  35.888  16.679  13.346
48570W        W13797  21.947  25.960  11.200
48571W        W13798  18.995  31.048   3.310
48572W        W13799  22.641  20.114   0.285
48573W        W13800  34.503  12.733   0.550
48574W        W13801  42.509  36.170   1.966
48575W        W13802   4.447  18.643  13.725
48576W        W13803  18.627  34.867  12.863
48577W        W13804   9.481  11.880   1.403
48578W        W13805   3.383  44.790   5.488
48579W        W13806  35.027   8.575   5.002
48580W        W13807   7.812  20.694  11.436
48581W        W13808  25.744   4.847  14.362
48582W        W13809  16.644  41.009  14.877
48583W        W13810  24.663  43.433  10.390
48584W        W13811  19.911  39.783   1.755
48585W        W13812  41.902  12.688   1.761
48586W        W13813  39.937  12.725  10.875
48587W        W13814  41.578  11.231  13.365
48588W        W13815   6.652  16.335   0.483
48589W        W13816   4.369   6.611   0.668
48590W        W13817  13.923  21.232  12.384
48591W        W13818  28.388   7.786   4.181
48592W        W13819  18.025  10.417  11.552
48593W        W13820  35.892  32.642  10.948
48594W        W13821  16.147  29.078   2.819
48595W        W13822  22.448  20.620  12.191
48596W        W13823   0.341  20.510   1.187
48597W        W13824  13.510   2.634   1.325
48598W        W13825  22.217   4.219   0.353
48599W        W13826   2.510   3.035  13.127
48600W        W13827  40.866  27.517   3.261
48601W        W13828  27.092  37.062   3.404
48602W        W13829  37.730  15.231  14.889
48603W        W13830  12.868  18.934  12.562
48604W        W13831  22.955  41.024   4.576
48605W        W13832  36.708   2.000  13.517
48606W        W13833   6.055  20.521  13.145
48607W        W13834   4.180  19.584   1.685
48608W        W13835  20.115  29.369   0.493
48609W        W13836  19.552   8.347   3.945
48610W        W13837  34.828  42.043   5.082
48611W        W13838  21.944   5.867   0.786
48612W        W13839  16.637  33.560  13.811
48613W        W13840  11.682  26.556  13.889
48614W        W13841  39.828  26.539  12.435
48615W        W13842  41.999  24.559  11.190
48616W        W13843  10.081  29.593   1.628
48617W        W13844  37.866   7.615  14.493
48618W        W13845  36.324   6.517  14.174
48619W        W13846  19.314  27.386  11.528
48620W        W13847  12.559   0.494   0.936
48621W        W13848  24.029  37.781  12.001
48622W        W13849  19.726  37.114   2.386
48623W        W13850  23.990  22.123   1.818
48624W        W13851  17.826   8.623   1.641
48625W        W13852  44.354  28.644  11.970
48626W        W13853  32.727   8.907  14.049
48627W        W13854  11.650  36.415  10.461
48628W        W13855  35.137  27.094  14.860
48629W        W13856   7.754  14.992  11.120
48630W        W13857  35.518  34.213   4.353
48631W        W13858  40.000  33.385   3.524
48632W        W13859  25.486   1.386   3.042
48633W        W13860  20.240  25.567  10.668
48634W        W13861  15.616  38.456  11.633
48635W        W13862  30.880  15.854   1.768
48636W        W13863  20.758  40.812  14.754
48637W        W13864  43.774  43.563  13.036
48638W        W13865  18.235  34.593   4.607
48639W        W13866  38.817   0.239   4.333
48640W        W13867  14.647  29.617  12.607
48641W        W13868  19.176  26.883   2.670
48642W        W13869  28.064  26.149  11.419
48643W        W13870  33.096   3.613   4.972
48644W        W13871  24.507   8.836   3.848
48645W        W13872  42.654  44.178  10.065
48646W        W13873  20.067  32.430   3.532
48647W        W13874   9.568  21.636  14.277
48648W        W13875   6.737  36.649  13.342
48649W        W13876  37.569   3.212  13.829
48650W        W13877  44.417  37.841   3.184
48651W        W13878   1.818  36.341  11.049
48652W        W13879  32.362   0.455   1.719
48653W        W13880  37.295   9.388  11.510
48654W        W13881  34.936  14.058  14.809
48655W        W13882  19.112   0.487  13.355
48656W        W13883   4.488  19.583   1.278
48657W        W13884   5.574   9.322  11.606
48658W        W13885   4.460  40.658   0.902
48659W        W13886  29.734  40.556  11.918
48660W        W13887  35.882  27.068  10.793
48661W        W13888  28.467  27.522  14.332
48662W        W13889  29.392   0.432  12.930
48663W        W13890  29.121  22.623   0.568
48664W        W13891   4.191  20.320   0.830
48665W        W13892  28.590  22.860  11.221
48666W        W13893  33.181  15.814   3.897
48667W        W13894   9.342   0.939   1.841
48668W        W13895  41.404  24.037  11.627
48669W        W13896  21.228  44.767  13.022
48670W        W13897  36.879  38.857  14.844
48671W        W13898  37.589  28.492  12.195
48672W        W13899  12.043   5.659   0.145
48673W        W13900   6.454   0.792   1.840
48674W        W13901  21.481   9.401  11.947
48675W        W13902   2.098  42.055   1.398
48676W        W13903  12.054   8.148  12.902
48677W        W13904  43.002  34.407   3.104
48678W        W13905  26.791  15.386  12.890
48679W        W13906  26.498  39.049   4.038
48680W        W13907  28.439  25.144   4.463
48681W        W13908  11.914  13.177  13.585
48682W        W13909  12.359  13.528  12.083
48683W        W13910  36.040  12.764  10.783
48684W        W13911  24.536   8.361   2.161
48685W        W13912  37.570  27.178   0.216
48686W        W13913   7.375  19.412  11.826
48687W        W13914  21.104  34.450  12.092
48688W        W13915  22.483  19.048   4.651
48689W        W13916   9.378  10.058  10.968
48690W        W13917  38.927  26.702  14.520
48691W        W13918  33.512  28.446  11.549
48692W        W13919  27.060  14.904   1.305
48693W        W13920   7.166  43.296  12.794
48694W        W13921  39.023  43.243   3.309
48695W        W13922  44.077  19.366  14.530
48696W        W13923  33.134  22.979  12.522
48697W        W13924   2.403   8.250   2.267
48698W        W13925  12.639   4.011  13.621
48699W        W13926  26.562  44.486   4.168
48700W        W13927  32.371  16.361   1.661
48701W        W13928   6.225  10.691   3.271
48702W        W13929  32.113   0.928   3.355
48703W        W13930  18.135  28.161  10.924
48704W        W13931   1.761  29.418  13.169
48705W        W13932  27.743   7.382   0.017
48706W        W13933  28.298  34.139   3.407
48707W        W13934   6.404   2.466  10.655
48708W        W13935  13.778  20.170   3.289
48709W        W13936  33.697  41.031   2.234
48710W        W13937  13.127   9.142  13.929
48711W        W13938  12.334  11.257   0.134
48712W        W13939  10.283   5.856  13.592
48713W        W13940  36.207  38.534   0.797
48714W        W13941  15.387  24.578   0.814
48715W        W13942   4.897  39.805   0.937
48716W        W13943   0.846  39.789  12.392
48717W        W13944   7.804  36.151  14.038
48718W        W13945  44.732   5.782  14.527
48719W        W13946   2.174  20.598  11.359
48720W        W13947   9.338  15.630   1.961
48721W        W13948   0.823  26.288   4.296
48722W        W13949  16.280  39.119  13.140
48723W        W13950  39.584   4.697   1.812
48724W        W13951  24.215  42.267   0.895
48725W        W13952  42.819   6.871   1.383
48726W        W13953   3.327   7.320   3.161
48727W        W13954  39.286  14.545  14.340
48728W        W13955   6.032   6.527  11.127
48729W        W13956  26.334  15.670   2.342
48730W        W13957  21.037  22.978  13.503
48731W        W13958  14.837  32.029   1.972
48732W        W13959  10.776   5.832   0.239
48733W        W13960  43.474  21.644   3.668
48734W        W13961   0.041   9.239   2.388
48735W        W13962  12.559  36.423  11.650
48736W        W13963  17.852  44.371   1.895
48737W        W13964  35.002   7.879   0.875
48738W        W13965  28.470  10.601   4.605
48739W        W13966   3.480   7.226  13.484
48740W        W13967   3.801  10.324   2.853
48741W        W13968  38.808   7.385   3.471
48742W        W13969  35.647   7.954   3.307
48743W        W13970  22.549  27.178   2.318
48744W        W13971  44.950  39.519  14.859
48745W        W13972   9.330  40.975   2.680
48746W        W13973  23.052  41.691  13.033
48747W        W13974   0.392   5.827   4.814
48748W        W13975   2.491  21.498  14.505
48749W        W13976  28.903   7.661   0.021
48750W        W13977   1.873  28.738  11.482
48751W        W13978  13.243  10.730   1.762
48752W        W13979  31.265  29.918  12.547
48753W        W13980  32.321   2.450   2.346
48754W        W13981   5.196  34.397   5.107
48755W        W13982  24.886  34.118   2.851
48756W        W13983  10.865  25.735  11.047
48757W        W13984  27.213  38.103  14.735
48758W        W13985  43.088  15.582   3.050
48759W        W13986  45.000  25.728   2.790
48760W        W13987   8.609  36.943  14.662
48761W        W13988   0.896  36.874   2.109
48762W        W13989  28.564  17.694   4.637
48763W        W13990  21.750  35.768  13.186
48764W        W13991  23.531  35.564  10.678
48765W        W13992  29.109  31.083  12.531
48766W        W13993  37.450  34.891  12.491
48767W        W13994  14.805  43.510  14.462
48768W        W13995   4.309  24.396  11.675
48769W        W13996  44.593  34.656  13.813
48770W        W13997  21.604   4.913   0.275
48771W        W13998  14.892  41.944   2.837
48772W        W13999   2.268  42.755  14.029
48773W        W14000  36.404  25.164   3.300
48774W        W14001   2.935  37.446  12.970
48775W        W14002   4.798   4.824   2.357
48776W        W14003   3.182   3.340   0.418
48777W        W14004  23.670   1.275   1.321
48778W        W14005  40.029  32.454   3.762
48779W        W14006   6.202   9.201   0.967
48780W        W14007  24.245   2.119   2.207
48781W        W14008  28.964  22.553  11.058
48782W        W14009   5.136  35.271  12.958
48783W        W14010  44.486  27.204  13.169
48784W        W14011  20.277  39.225  10.188
48785W        W14012  16.285   3.148   2.234
48786W        W14013   5.357  17.724   1.916
48787W        W14014  43.245  18.002   0.043
48788W        W14015  43.265  23.770   5.278
48789W        W14016  26.906  15.029   3.071
48790W        W14017  19.475  28.237   4.628
48791W        W14018  33.838  19.550  12.944
48792W        W14019  40.008  10.254   4.376
48793W        W14020  44.934  37.840   4.346
48794W        W14021  37.788  38.433   3.349
48795W        W14022  27.911  27.204  12.410
48796W        W14023  30.876  41.248   3.172
48797W        W14024  13.856  18.210   2.128
48798W        W14025  30.526  19.906  12.012
48799W        W14026  14.358  27.104   3.924
48800W        W14027  24.974  22.791   4.383
48801W        W14028  22.081  17.156  14.728
48802W        W14029   9.023  35.063   4.562
48803W        W14030   6.585   4.330  11.594
48804W        W14031  14.682  28.634  12.665
48805W        W14032  22.761   9.726   1.929
48806W        W14033  33.490  33.970  13.775
48807W        W14034  12.797  16.112  11.633
48808W        W14035  43.921  20.503   0.295
48809W        W14036  27.427  40.299   4.100
48810W        W14037  23.506  27.188  14.509
48811W        W14038  38.914  25.268  12.994
48812W        W14039  11.145  29.235  11.368
48813W        W14040   3.968  36.532   3.752
48814W        W14041  28.081  38.251   1.198
48815W        W14042  21.103  22.707  12.948
48816W        W14043  13.269  39.323  14.742
48817W        W14044   6.447  16.164  12.125
48818W        W14045   9.658  38.842   4.732
48819W        W14046  31.872  23.203   3.169
48820W        W14047   0.340  17.613   4.401
48821W        W14048   1.994   5.773   2.153
48822W        W14049  34.855  23.469   1.143
48823W        W14050  31.956  30.109   2.784
48824W        W14051  16.235  23.194   0.085
48825W        W14052   2.185   2.859   0.414
48826W        W14053  34.234   9.250  12.600
48827W        W14054  29.770  11.117  11.675
48828W        W14055  40.507  10.297   1.877
48829W        W14056   1.288   0.086   3.668
48830W        W14057   3.199   0.228  14.770
48831W        W14058   5.842   4.242  13.173
48832W        W14059  41.592  29.518  12.770
48833W        W14060  11.673  39.821  13.850
48834W        W14061   1.689  29.477   4.578
48835W        W14062  34.889  36.099   1.621
48836W        W14063   1.309  25.570  11.193
48837W        W14064  41.518   3.080  14.839
48838W        W14065  27.960   4.295   2.673
48839W        W14066  16.329   8.769   0.446
48840W        W14067  37.944  15.192   4.920
48841W        W14068  10.644  36.985  11.573
48842W        W14069  38.182  40.476   3.675
48843W        W14070  43.201  26.644   2.731
48844W        W14071   4.765  16.302   1.967
48845W        W14072   2.050  24.709   2.441
48846W        W14073  39.524   0.919   0.292
48847W        W14074   2.539  23.782  13.474
48848W        W14075   9.291   4.869   4.630
48849W        W14076   0.360  26.550   1.904
48850W        W14077  37.910  12.696   0.634
48851W        W14078  34.981  29.500  12.054
48852W        W14079  25.618  37.441  10.642
48853W        W14080  21.307  39.554  10.005
48854W        W14081  41.022  25.430   1.487
48855W        W14082   1.462  16.567   3.363
48856W        W14083  44.935  43.763   0.708
48857W        W14084  29.297  36.578  14.153
48858W        W14085   8.129  33.877  11.483
48859W        W14086  40.049   4.868   3.672
48860W        W14087  40.449   0.672  13.854
48861W        W14088  33.965  14.332   3.157
48862W        W14089  42.598  38.548   2.326
48863W        W14090  14.851  27.831  13.383
48864W        W14091  41.878  21.106   0.392
48865W        W14092   4.406  23.158  10.970
48866W        W14093   5.271  43.971   2.160
48867W        W14094  16.245  10.858  11.594
48868W        W14095   6.980  43.001  13.177
48869W        W14096  14.255  23.713  11.612
48870W        W14097  26.131  32.895   1.282
48871W        W14098  11.251  14.165   3.146
48872W        W14099  32.028  10.333  14.366
48873W        W14100  42.407  17.813  11.099
48874W        W14101  30.220  22.230  13.739
48875W        W14102  12.487  11.775  14.921
48876W        W14103   6.790  44.519   0.055
48877W        W14104  13.611   2.790  11.247
48878W        W14105  16.783  14.507  10.709
48879W        W14106  39.002  16.646  10.625
48880W        W14107  37.411  16.026   2.239
48881W        W14108  39.835   3.922  11.281
48882W        W14109  23.238  13.295  13.888
48883W        W14110  37.340   0.452  11.606
48884W        W14111  19.026  41.358   1.182
48885W        W14112  37.435  35.992   4.389
48886W        W14113  33.132  21.042  11.119
48887W        W14114  41.920  33.770  14.166
48888W        W14115  21.432  10.886   2.328
48889W        W14116  36.482  25.615   0.916
48890W        W14117  40.986  17.615  12.440
48891W        W14118  20.708  38.095  12.996
48892W        W14119  17.126  29.107   0.237
48893W        W14120  10.422  10.190  13.043
48894W        W14121   0.226   7.874   0.767
48895W        W14122  28.684   6.961  14.448
48896W        W14123  43.851  36.872  14.922
48897W        W14124  17.521  25.505   2.478
48898W        W14125  15.278  24.527  11.861
48899W        W14126  21.764   6.910   4.525
48900W        W14127  24.700   0.825   0.457
48901W        W14128   8.177  25.866  12.854
48902W        W14129  40.825  20.138   2.334
48903W        W14130  36.886  13.580  11.136
48904W        W14131  25.244   2.312   1.015
48905W        W14132  23.945  40.303   4.349
48906W        W14133  37.299   6.717  14.412
48907W        W14134  16.984  43.938   2.562
48908W        W14135  21.678  41.455  11.646
48909W        W14136  22.405   4.949  11.231
48910W        W14137  10.565   2.444  14.902
48911W        W14138  12.797   0.850  13.197
48912W        W14139  31.955   8.405   1.435
48913W        W14140  35.143  41.414  11.720
48914W        W14141  35.447  26.426  14.939
48915W        W14142  26.590  28.186  14.354
48916W        W14143   3.359  18.477  13.406
48917W        W14144  21.653  13.887  13.014
48918W        W14145  21.102  33.478  14.233
48919W        W14146  18.683  19.849  10.910
48920W        W14147  28.607  14.095   2.819
48921W        W14148  13.836   2.273   3.353
48922W        W14149  26.205  15.759  11.649
48923W        W14150  42.010  42.874   4.196
48924W        W14151  32.923  34.620  13.910
48925W        W14152  31.188  12.272  13.420
48926W        W14153  37.855  31.611  13.332
48927W        W14154   9.389  21.500   2.534
48928W        W14155  31.053  25.381  10.946
48929W        W14156  35.419  36.075   0.402
48930W        W14157  17.891  26.300   5.210
48931W        W14158  44.380  13.286  14.127
48932W        W14159  20.234  12.424   3.605
48933W        W14160  38.033  31.085  10.740
48934W        W14161  19.300   4.637   3.835
48935W        W14162   4.599  26.822  10.235
48936W        W14163  32.076  40.570   0.865
48937W        W14164  36.386  36.325  14.088
48938W        W14165  17.231   2.404   2.651
48939W        W14166  10.661  14.741  13.971
48940W        W14167  23.825  38.467  12.559
48941W        W14168  20.203  37.876  11.101
48942W        W14169  30.608  42.280   1.647
48943W        W14170  33.093  41.307   0.368
48944W        W14171  12.899   2.201  14.018
48945W        W14172   0.727  30.708   5.010
48946W        W14173   5.834  42.002   3.676
48947W        W14174  41.423  22.297   4.485
48948W        W14175  41.733  27.618  10.763
48949W        W14176  12.685  23.607   4.452
48950W        W14177   6.816  23.051   4.874
48951W        W14178  37.791  34.970  14.379
48952W        W14179  13.780  14.892  11.212
48953W        W14180  24.392   1.913   0.968
48954W        W14181  31.057  18.705   1.465
48955W        W14182  16.618  26.584  11.609
48956W        W14183  43.444  14.545  12.433
48957W        W14184  17.379  18.884   2.455
48958W        W14185  14.979  22.208  12.645
48959W        W14186  29.463  38.263  10.981
48960W        W14187  21.268  19.426  11.716
48961W        W14188  21.480  27.469  13.196
48962W        W14189  38.841  31.217   2.284
48963W        W14190  22.179  22.122   1.081
48964W        W14191  38.240  39.533  13.165
48965W        W14192   0.340   4.512  12.366
48966W        W14193  31.643   5.304  13.549
48967W        W14194  23.181  12.887  14.712
48968W        W14195  16.740  16.703   3.922
48969W        W14196  22.474  25.254   3.177
48970W        W14197   0.257  11.340   0.709
48971W        W14198  20.701  19.709   2.620
48972W        W14199  34.270  20.472   1.184
48973W        W14200   9.705  32.709   2.847
48974W        W14201  30.591   7.411  12.581
48975W        W14202   1.212  19.082  13.909
48976W        W14203  21.913  44.354   4.442
48977W        W14204  24.443   3.319  11.637
48978W        W14205  19.320  34.522   3.226
48979W        W14206  19.195  12.402   1.509
48980W        W14207  10.248  25.482  10.078
48981W        W14208  24.064   4.568   0.169
48982W        W14209  13.274   6.691   0.710
48983W        W14210  33.478  32.444  12.063
48984W        W14211   7.856  31.016  14.603
48985W        W14212  13.244  16.286   0.446
48986W        W14213   0.813  41.814  14.426
48987W        W14214  24.812   3.911   3.294
48988W        W14215  15.186  32.133   3.304
48989W        W14216  29.616  22.689   5.058
48990W        W14217  14.535  41.268  10.240
48991W        W14218  36.329  13.687  13.026
48992W        W14219  13.815  25.069  13.643
48993W        W14220  16.063  43.449  13.267
48994W        W14221  33.243  32.023  12.220
48995W        W14222  36.638  15.999  14.932
48996W        W14223  14.618  15.452   0.862
48997W        W14224  34.140  18.995   1.397
48998W        W14225  13.817  33.685   2.281
48999W        W14226  14.399  34.615   3.247
49000W        W14227  10.199   7.307   3.199
49001W        W14228   1.248  33.148  10.787
49002W        W14229  10.140   4.782   1.159
49003W        W14230   5.407   3.437  14.646
49004W        W14231  32.716   5.997  12.365
49005W        W14232   6.607  25.483   4.372
49006W        W14233  41.038  27.134  14.787
49007W        W14234  34.031  26.000   0.939
49008W        W14235   7.604  16.967  13.430
49009W        W14236  41.683  17.700   3.389
49010W        W14237   6.771  24.791  11.277
49011W        W14238  34.577  34.446  12.157
49012W        W14239  14.413  35.350  12.518
49013W        W14240  44.755   8.854   2.220
49014W        W14241  32.029  43.269  11.606
49015W        W14242  43.715  27.028   9.782
49016W        W14243   5.350   4.138  13.314
49017W        W14244  11.700  11.983   1.232
49018W        W14245   8.369  42.788  13.543
49019W        W14246   6.783  38.544   0.935
49020W        W14247  32.143  33.073  14.831
49021W        W14248  40.323  19.663   2.709
49022W        W14249   1.918   8.671  14.786
49023W        W14250   7.454   7.629   4.589
49024W        W14251  39.743  42.559  14.611
49025W        W14252  11.181   3.254  12.427
49026W        W14253  23.196  11.417   1.382
49027W        W14254  33.387   4.911   1.420
49028W        W14255  13.289  14.239  10.744
49029W        W14256  18.576  43.486   0.977
49030W        W14257  43.927   3.687   0.354
49031W        W14258   6.051  35.656   2.794
49032W        W14259  21.765  34.587  11.235
49033W        W14260   8.401  14.486   4.588
49034W        W14261  25.426  34.442  11.581
49035W        W14262   6.548   9.318   4.934
49036W        W14263  40.469  30.698  11.951
49037W        W14264   5.877  37.353   2.470
49038W        W14265  16.128  16.689  10.525
49039W        W14266   4.482  22.396  11.464
49040W        W14267   3.507  25.907   4.442
49041W        W14268  28.611  32.487  11.853
49042W        W14269   4.242   1.381   3.603
49043W        W14270  12.807  10.592  12.070
49044W        W14271   5.313  40.357   4.969
49045W        W14272  43.003  27.672   1.344
49046W        W14273  38.581   8.358  12.977
49047W        W14274  40.269  43.764   0.355
49048W        W14275  16.642  31.854   1.805
49049W        W14276  14.733  39.506   3.411
49050W        W14277   1.470  25.531  10.708
49051W        W14278  18.155   2.611  12.138
49052W        W14279  13.815   0.748   1.698
49053W        W14280  19.697  11.393  13.987
49054W        W14281  11.763  14.325  10.606
49055W        W14282  15.692   0.670  12.419
49056W        W14283  11.821   2.908  12.700
49057W        W14284   7.453   1.476   2.732
49058W        W14285   7.782  25.646   0.042
49059W        W14286  14.280   6.409  12.890
49060W        W14287   2.959  35.486   2.165
49061W        W14288  43.424  16.544   0.313
49062W        W14289  38.856   1.677   3.701
49063W        W14290   8.409   5.525  10.759
49064W        W14291  16.156  42.031   0.264
49065W        W14292   8.600  28.718   2.172
49066W        W14293  17.630   4.779  12.498
49067W        W14294  18.010  22.685   0.254
49068W        W14295  40.868  12.631   2.658
49069W        W14296  33.079  31.191  11.691
49070W        W14297  17.303  30.616   1.387
49071W        W14298   6.913  18.630   0.010
49072W        W14299  12.574  32.549   0.737
49073W        W14300  37.627  21.514   1.816
49074W        W14301  25.546  38.838  13.063
49075W        W14302  21.263  15.758   1.165
49076W        W14303  27.497  16.084   3.190
49077W        W14304  20.665  23.231  10.726
49078W        W14305  34.461  33.562  10.927
49079W        W14306  17.811  11.867  12.496
49080W        W14307   1.110   4.206   4.890
49081W        W14308   1.330  21.084   2.588
49082W        W14309   8.711  34.935   1.679
49083W        W14310  21.954  40.354  12.144
49084W        W14311   8.753  32.475   3.229
49085W        W14312  38.300  26.171   0.399
49086W        W14313  39.288   1.448   3.072
49087W        W14314   6.924  25.605  12.029
49088W        W14315  28.388  28.428  14.858
49089W        W14316  18.616  15.661  12.482
49090W        W14317  19.655  34.288  10.775
49091W        W14318  30.674  30.503  11.072
49092W        W14319  28.112  19.492   2.095
49093W        W14320   4.333  12.434  11.554
49094W        W14321  34.478  23.652  12.180
49095W        W14322  20.723  23.462  13.453
49096W        W14323  29.097  11.357   0.805
49097W        W14324  38.446  29.858   3.615
49098W        W14325   0.736  14.362   4.347
49099W        W14326  25.945  40.939  14.029
49100W        W14327  19.606   3.792  13.621
49101W        W14328   3.499  24.137  13.838
49102W        W14329   0.495  24.635  12.896
49103W        W14330  42.403   9.677   4.356
49104W        W14331   8.232  31.197   2.415
49105W        W14332  44.861  16.079   2.283
49106W        W14333   1.049  29.976  11.870
49107W        W14334  17.590  22.853  11.719
49108W        W14335  30.498   2.436  14.274
49109W        W14336   7.364  36.962   4.270
49110W        W14337   8.303  29.043   4.560
49111W        W14338  42.872  43.943  14.788
49112W        W14339  26.208   8.648   2.094
49113W        W14340  43.938  13.351  13.900
49114W        W14341  28.204  37.578  14.905
49115W        W14342  19.129   5.853   2.772
49116W        W14343  30.124  43.388  12.449
49117W        W14344  12.651  12.590   3.275
49118W        W14345   3.379  13.336  14.427
49119W        W14346  31.774   8.063  12.702
49120W        W14347  29.172  29.108  12.066
49121W        W14348  41.424  25.645   2.804
49122W        W14349   1.235  26.580   1.775
49123W        W14350  41.961   4.244   1.703
49124W        W14351  19.067   2.629  13.477
49125W        W14352   7.908  44.831   1.754
49126W        W14353   5.401  37.039   4.154
49127W        W14354  11.703  30.008   2.366
49128W        W14355  25.966  25.195  14.437
49129W        W14356   4.840  36.663   1.410
49130W        W14357  28.843  12.354  13.991
49131W        W14358  25.330  14.383   0.819
49132W        W14359  32.661  40.997  14.632
49133W        W14360  19.603  16.174  13.793
49134W        W14361   7.656  32.881  12.458
49135W        W14362  18.292  19.819   4.531
49136W        W14363  16.155  36.271  11.178
49137W        W14364  11.382  42.388   2.446
49138W        W14365  29.527   0.893  13.988
49139W        W14366  33.382   3.319  14.907
49140W        W14367  38.761  18.082  12.173
49141W        W14368  33.072  28.976  12.917
49142W        W14369   3.518  10.903  13.815
49143W        W14370  35.837  42.355   0.283
49144W        W14371  41.492  22.603  12.860
49145W        W14372   7.383  17.228  12.522
49146W        W14373  29.890  24.022   3.201
49147W        W14374  38.761   1.916  14.233
49148W        W14375  27.771  25.600  13.356
49149W        W14376  21.691  24.860   3.394
49150W        W14377   5.689  34.461   1.696
49151W        W14378   8.717  42.961  10.180
49152W        W14379  11.366  38.869   3.671
49153W        W14380   8.002  25.120   5.043
49154W        W14381  35.121  39.341  10.190
49155W        W14382  44.328  23.999   1.264
49156W        W14383  26.209  36.104   4.589
49157W        W14384   4.445   9.379   4.616
49158W        W14385   1.698  12.613  12.011
49159W        W14386  23.793  23.293  12.890
49160W        W14387  31.532  30.073  12.975
49161W        W14388  35.053   0.183  12.183
49162W        W14389   2.495   8.362  13.407
49163W        W14390  16.269  32.215  12.370
49164W        W14391  27.720  41.343  14.859
49165W        W14392  24.437  31.004  13.643
49166W        W14393  13.345   8.741   9.853
49167W        W14394  43.795  17.830  13.471
49168W        W14395  17.321  41.204  12.526
49169W        W14396  21.515  37.565  13.400
49170W        W14397  13.710  38.894  12.341
49171W        W14398   4.530  27.642   1.285
49172W        W14399  41.447  37.868  13.318
49173W        W14400  41.441  44.880   4.175
49174W        W14401  11.628  12.664  14.306
49175W        W14402  16.511  32.181  14.242
49176W        W14403  40.046  32.894  13.597
49177W        W14404  43.919  32.634  14.376
49178W        W14405  16.609   5.492   4.639
49179W        W14406  15.049  13.058   2.075
49180W        W14407   2.270  35.234  10.692
49181W        W14408  16.893  12.506  13.953
49182W        W14409   3.926  22.883  11.018
49183W        W14410  23.120   5.197  11.540
49184W        W14411   7.944  12.651   4.137
49185W        W14412  44.770  12.254  11.979
49186W        W14413  38.934  31.744  10.812
49187W        W14414  16.552   1.956   3.658
49188W        W14415  37.268   0.483   0.345
49189W        W14416  32.469   5.185   2.675
49190W        W14417  29.329  32.055  10.233
49191W        W14418   5.412  39.064   0.818
49192W        W14419  12.808   4.811   2.456
49193W        W14420  21.388  40.228   3.821
49194W        W14421   5.699   0.252   1.709
49195W        W14422  39.566  43.023  13.103
49196W        W14423  32.769  40.123   2.578
49197W        W14424  14.646   3.502  13.355
49198W        W14425  24.749   7.749  14.983
49199W        W14426   1.991  37.968  12.014
49200W        W14427  34.565  40.987  14.597
49201W        W14428  30.046   8.730   1.858
49202W        W14429  36.575  19.099  13.452
49203W        W14430  21.253   7.660  12.891
49204W        W14431  20.508  20.112   1.187
49205W        W14432  24.864  15.841  11.082
49206W        W14433  38.013  19.471   0.976
49207W        W14434  38.096  38.591  13.514
49208W        W14435  40.538  43.840  11.112
49209W        W14436  10.123  38.552  12.153
49210W        W14437  23.450  39.113   4.103
49211W        W14438  34.377  22.165  10.538
49212W        W14439  11.775  16.469   1.010
49213W        W14440   6.129  20.811   4.656
49214W        W14441   7.490  35.095   0.772
49215W        W14442  28.001  40.880   1.491
49216W        W14443  30.661  12.318  13.467
49217W        W14444  39.726  33.077   0.831
49218W        W14445  14.710  16.298   3.115
49219W        W14446  42.004  19.148  10.627
49220W        W14447  17.218   1.472   3.000
49221W        W14448  15.908  28.509   4.205
49222W        W14449  37.024  17.048   0.324
49223W        W14450   0.476  18.532  12.933
49224W        W14451   3.897  13.726  11.557
49225W        W14452  21.067  29.496   2.987
49226W        W14453   2.643  19.302  14.929
49227W        W14454  26.009  16.172  10.913
49228W        W14455  44.188   4.393   2.121
49229W        W14456  30.399  12.060  14.891
49230W        W14457  26.040  36.783   0.490
49231W        W14458  32.673  34.581   1.771
49232W        W14459  27.954   3.294  14.002
49233W        W14460  30.506  36.816   3.064
49234W        W14461  26.084   8.228   4.008
49235W        W14462  21.225   4.380   0.768
49236W        W14463  25.920  37.578   9.775
49237W        W14464  19.723  30.688   1.950
49238W        W14465  38.505   4.425  12.541
49239W        W14466  39.455  42.383   3.282
49240W        W14467  10.761   4.332   4.692
49241W        W14468  28.805  16.300   5.109
49242W        W14469  18.979  35.538  12.895
49243W        W14470  35.127  17.805   1.744
49244W        W14471   2.320  44.222  12.130
49245W        W14472  30.566  31.853  12.681
49246W        W14473   1.374  40.085   4.070
49247W        W14474   4.493  32.105  12.079
49248W        W14475  34.956  20.460  13.809
49249W        W14476  21.476  23.764   0.146
49250W        W14477   9.169  11.205  12.104
49251W        W14478  43.257  24.939  12.380
49252W        W14479  43.247  24.180   3.090
49253W        W14480  24.068  12.582   1.698
49254W        W14481  22.429   9.429   3.798
49255W        W14482  41.829   3.839  13.449
49256W        W14483  19.463  21.445  13.579
49257W        W14484  24.462  19.281   0.788
49258W        W14485  34.047  13.703  12.440
49259W        W14486  37.152   5.505  11.214
49260W        W14487  44.131  15.196   1.747
49261W        W14488  32.223  26.940  12.606
49262W        W14489  39.722   5.317  11.767
49263W        W14490  37.828  26.075   3.693
49264W        W14491  40.883   4.408   1.686
49265W        W14492   2.346  37.298   3.318
49266W        W14493  22.719  31.365   3.893
49267W        W14494   4.329  31.917   2.889
49268W        W14495  28.114  36.065   2.227
49269W        W14496  29.245  12.561   1.661
49270W        W14497  30.121  22.371   3.116
49271W        W14498  20.833  41.483  11.137
49272W        W14499  17.795  30.462   4.808
49273W        W14500  30.616  41.240   3.611
49274W        W14501  34.067   1.335   4.544
49275W        W14502   6.880   5.686  12.014
49276W        W14503   4.836   2.666  12.135
49277W        W14504  44.377  19.392   2.364
49278W        W14505  16.486  28.846  11.102
49279W        W14506   6.094  38.377  12.059
49280W        W14507  20.635  22.920   0.072
49281W        W14508   1.892  30.523   0.992
49282W        W14509  33.177  40.052   1.821
49283W        W14510  16.166  27.618  13.442
49284W        W14511  37.963  15.139  10.888
49285W        W14512   7.834   4.407   3.303
49286W        W14513   4.739   2.711   4.600
49287W        W14514  16.089  35.438  11.512
49288W        W14515   2.901  33.922  14.265
49289W        W14516   3.532  27.785   3.103
49290W        W14517  12.425  26.520  12.171
49291W        W14518  33.757   8.713  14.199
49292W        W14519   2.943  20.552  14.120
49293W        W14520   7.084  29.399  11.202
49294W        W14521  15.242  38.358  14.481
49295W        W14522  10.145  41.287  13.256
49296W        W14523  14.267   2.792  12.426
49297W        W14524   2.528  12.031  12.919
49298W        W14525  29.381  25.199   1.735
49299W        W14526   2.372  34.778  14.537
49300W        W14527   4.120   0.389   3.931
49301W        W14528   4.130   5.753   0.281
49302W        W14529   5.631  21.155  11.543
49303W        W14530  24.140  40.074   2.681
49304W        W14531  33.910   2.866  14.293
49305W        W14532  10.253  28.642   2.810
49306W        W14533  15.245  38.833  13.823
49307W        W14534  36.666  42.252  11.699
49308W        W14535  25.550  33.317  14.931
49309W        W14536  43.818  13.734   4.344
49310W        W14537  11.606  28.508   0.302
49311W        W14538  12.372  44.071  11.533
49312W        W14539  12.103  34.916  11.973
49313W        W14540  33.928  34.337  14.907
49314W        W14541  28.157   5.962   3.205
49315W        W14542  17.597  43.805  11.688
49316W        W14543   4.873  35.542  14.277
49317W        W14544  40.984   6.451  11.239
49318W        W14545   0.670  30.016  10.925
49319W        W14546  23.084  18.839   1.807
49320W        W14547  37.436  32.618   2.616
49321W        W14548  20.332  31.482   1.666
49322W        W14549   4.416   9.831  12.874
49323W        W14550  25.907  15.378   3.183
49324W        W14551   4.748   4.887  13.827
49325W        W14552   7.363   0.894   4.350
49326W        W14553  35.936  17.786   1.748
49327W        W14554   7.969  39.505  10.890
49328W        W14555  34.919  23.022   0.525
49329W        W14556  29.369  16.944   1.452
49330W        W14557  29.550  35.970  14.975
49331W        W14558  31.938  18.607  11.197
49332W        W14559  18.670  16.583  11.942
49333W        W14560  35.084   3.981   0.403
49334W        W14561  44.420   4.911  13.256
49335W        W14562  11.741  15.335  14.765
49336W        W14563   2.144  10.057   4.238
49337W        W14564  28.510   7.133   2.416
49338W        W14565  11.860  39.828  13.362
49339W        W14566   0.470  40.029   4.222
49340W        W14567  42.440  23.972  14.377
49341W        W14568  35.495   8.009  13.111
49342W        W14569  43.702  15.075  12.419
49343W        W14570  43.675  18.617   1.050
49344W        W14571  36.581   0.775   1.317
49345W        W14572  40.965  38.586  10.629
49346W        W14573   7.413  30.124  14.481
49347W        W14574  41.963  31.108  12.551
49348W        W14575  31.333   3.852  14.988
49349W        W14576   8.390  31.859  13.821
49350W        W14577  27.672  24.582   0.111
49351W        W14578  35.149  33.583   1.367
49352W        W14579  29.195  38.930   1.703
49353W        W14580  28.678  35.395  11.941
49354W        W14581  20.597   9.664   2.266
49355W        W14582  38.476  29.920  11.378
49356W        W14583  14.900  31.405  12.168
49357W        W14584   2.972  37.352  14.484
49358W        W14585  35.426  11.730  14.928
49359W        W14586   4.793  30.242   1.786
49360W        W14587  39.587  21.128   3.331
49361W        W14588   5.437   7.541  12.951
49362W        W14589  34.866  44.771  13.965
49363W        W14590  26.661  25.721  14.898
49364W        W14591  38.328  19.501  14.621
49365W        W14592  35.495  43.702  14.970
49366W        W14593  42.591  18.642   0.300
49367W        W14594  34.350  41.527  13.100
49368W        W14595   0.909   3.646  14.434
49369W        W14596  33.893  31.617   2.739
49370W        W14597  43.729  21.189   0.920
49371W        W14598  42.501  23.731  13.025
49372W        W14599  40.914  13.673   1.457
49373W        W14600  42.708  39.606  13.607
49374W        W14601  11.341  44.891   1.790
49375W        W14602  40.282  32.734   2.200
49376W        W14603  18.322   3.859   0.808
49377W        W14604  44.479  29.540   3.281
49378W        W14605  43.566  22.843   4.297
49379W        W14606  36.079   6.294   1.843
49380W        W14607  13.255  43.079   5.122
49381W        W14608  17.261  40.483  13.808
49382W        W14609  22.918  38.846   0.712
49383W        W14610  43.242  33.837  14.405
49384W        W14611  29.050   4.032   2.381
49385W        W14612  33.295  12.649   0.276
49386W        W14613  11.793   8.317   4.647
49387W        W14614   5.782  20.775  12.341
49388W        W14615   4.790  25.151  11.812
49389W        W14616  42.088  23.185  12.241
49390W        W14617   0.594  36.489   0.962
49391W        W14618  33.174  24.674  11.137
49392W        W14619  29.210  12.773   9.923
49393W        W14620  37.611  14.882  11.122
49394W        W14621  29.443  16.692   3.685
49395W        W14622  11.430  23.996   1.763
49396W        W14623  23.213   9.310   2.606
49397W        W14624  34.047  20.120  14.115
49398W        W14625  25.202  42.601   4.487
49399W        W14626  27.067  34.464  14.946
49400W        W14627   1.434  44.722   1.311
49401W        W14628  20.760  14.731  13.285
49402W        W14629  17.314  21.514   0.323
49403W        W14630  39.585  34.460   2.671
49404W        W14631  11.783   9.385   0.850
49405W        W14632   7.199   0.275   4.488
49406W        W14633  13.375  29.617  11.360
49407W        W14634  10.177  33.655   0.809
49408W        W14635   3.213  18.205   3.860
49409W        W14636  24.646   5.923  13.585
49410W        W14637  37.466  34.013  12.995
49411W        W14638  42.170   7.687  12.558
49412W        W14639   1.882  27.890  13.945
49413W        W14640  37.299  26.222  13.993
49414W        W14641  10.421  44.168   5.023
49415W        W14642   5.788  33.025   1.128
49416W        W14643  21.987  38.561  12.043
49417W        W14644  32.973   4.725   4.525
49418W        W14645  44.571  13.594  12.103
49419W        W14646  12.636  43.957   4.649
49420W        W14647  40.710  42.606   0.921
49421W        W14648  18.237  41.609  11.989
49422W        W14649  14.184  20.928   1.056
49423W        W14650  20.407   1.948   1.964
49424W        W14651  40.434  24.720  12.478
49425W        W14652   7.545  25.581   1.741
49426W        W14653   1.871   5.953  11.221
49427W        W14654   0.913  20.170  14.549
49428W        W14655   6.700  26.554  12.466
49429W        W14656   4.465  15.799   0.544
49430W        W14657  21.514   5.729   3.101
49431W        W14658  19.182   0.149  13.776
49432W        W14659  20.600  21.627   4.644
49433W        W14660   1.672  39.891   2.691
49434W        W14661  26.185  29.701  12.402
49435W        W14662  38.060  28.607  13.809
49436W        W14663  29.565  39.891   3.091
49437W        W14664  15.542   4.701   4.564
49438W        W14665   2.221  40.914  14.785
49439W        W14666  40.571  44.225  10.303
49440W        W14667   0.060  11.597   4.095
49441W        W14668   3.621   2.169  11.044
49442W        W14669  28.032  16.671   0.629
49443W        W14670  15.579  28.150  14.202
49444W        W14671  36.099  22.204  11.978
49445W        W14672  34.373   1.187  13.944
49446W        W14673  28.919  12.970  10.291
49447W        W14674  15.319  16.324  12.958
49448W        W14675  22.489  25.150  14.941
49449W        W14676  38.785   5.813   0.067
49450W        W14677  44.421  10.914  11.494
49451W        W14678   9.746  18.101  13.489
49452W        W14679  12.359  39.969   4.937
49453W        W14680  32.513  10.843  10.592
49454W        W14681  29.644  32.808  13.122
49455W        W14682  15.243   2.754   1.959
49456W        W14683  35.819  19.252  14.805
49457W        W14684  18.175  11.082   2.881
49458W        W14685  14.688  36.716   0.845
49459W        W14686  27.622  23.599  14.945
49460W        W14687  32.268  22.117   1.872
49461W        W14688   1.208  34.489  14.008
49462W        W14689  19.603  20.321  12.917
49463W        W14690  26.460  14.942   2.837
49464W        W14691  42.935  15.238   4.278
49465W        W14692  27.381  23.583   3.164
49466W        W14693   7.116  19.196   3.684
49467W        W14694  21.316  42.440   1.628
49468W        W14695  27.825  39.959   4.132
49469W        W14696   0.421   7.448   3.804
49470W        W14697  35.716  35.302  10.653
49471W        W14698   8.248  19.087   3.063
49472W        W14699  41.971   9.637   4.618
49473W        W14700  36.445  26.643  13.861
49474W        W14701  25.106  17.876  14.288
49475W        W14702  24.766  24.711  12.586
49476W        W14703  12.399   5.234   3.667
49477W        W14704  20.803  16.255  13.334
49478W        W14705  37.224  20.667  10.918
49479W        W14706  44.865  16.443   5.087
49480W        W14707   3.235  28.853  14.989
49481W        W14708  42.368  10.593  12.940
49482W        W14709  15.936  22.160   2.339
49483W        W14710   8.024  11.290   4.564
49484W        W14711  31.717  15.419   3.735
49485W        W14712  25.791   1.428  12.206
49486W        W14713  24.309  33.516  13.374
49487W        W14714   2.698  43.691   3.301
49488W        W14715  19.984  43.824  14.771
49489W        W14716   2.946   0.108   5.426
49490W        W14717  41.007  36.418  11.937
49491W        W14718  32.707  10.865   1.444
49492W        W14719  30.593  34.131  10.264
49493W        W14720  43.890  28.386  12.021
49494W        W14721  13.009  28.312  12.056
49495W        W14722  33.302  27.944   4.893
49496W        W14723  16.615  26.144  12.552
49497W        W14724  10.596   3.358  12.992
49498W        W14725  26.827  40.343   5.139
49499W        W14726   0.461  25.724   1.142
49500W        W14727  29.913  11.835   1.966
49501W        W14728   3.214   1.898   4.733
49502W        W14729  20.171  37.178   3.655
49503W        W14730  34.996  13.777   3.802
49504W        W14731  32.306  17.041  14.057
49505W        W14732  44.361  18.314   0.336
49506W        W14733   2.320  20.950   3.656
49507W        W14734  41.885  17.846   1.687
49508W        W14735  15.847  20.414   0.418
49509W        W14736  12.733   4.582  12.450
49510W        W14737  38.591  17.667   3.255
49511W        W14738  36.610  39.926  10.402
49512W        W14739  16.827  18.108  10.543
49513W        W14740  19.573   9.861  12.891
49514W        W14741   2.723  20.027   1.695
49515W        W14742  25.179  14.733  12.114
49516W        W14743  21.721   1.507   1.688
49517W        W14744   5.053   3.127  12.150
49518W        W14745  28.862  43.281   3.671
49519W        W14746  34.353  19.260   4.940
49520W        W14747  20.003  31.333  12.069
49521W        W14748   1.547  21.568   2.590
49522W        W14749   4.096   4.941  14.337
49523W        W14750  44.083  17.138   4.989
49524W        W14751  28.201   0.767  13.480
49525W        W14752  37.003  44.833  14.791
49526W        W14753  27.378  40.040  13.221
49527W        W14754  25.455  23.272   1.742
49528W        W14755  42.892  27.777   2.224
49529W        W14756  28.584  23.588  14.786
49530W        W14757  21.597  40.966  11.221
49531W        W14758  44.666  25.385  10.893
49532W        W14759  13.861  18.113   2.659
49533W        W14760  35.507  24.027   2.838
49534W        W14761  43.931  18.438   5.344
49535W        W14762   7.359  11.854  14.815
49536W        W14763  19.711   2.515  13.947
49537W        W14764  31.124  19.223   4.228
49538W        W14765  12.745  15.077  11.154
49539W        W14766  18.092  32.897  10.959
49540W        W14767  18.592   8.783  13.823
49541W        W14768  11.287   4.452   3.608
49542W        W14769   1.909  18.651  14.775
49543W        W14770   0.297  14.649   4.275
49544W        W14771  25.684  34.269   5.094
49545W        W14772   5.885  23.780   1.380
49546W        W14773  10.845  13.372   2.032
49547W        W14774  43.762  11.248  14.150
49548W        W14775  33.903  17.805   0.080
49549W        W14776  44.444   5.717  10.793
49550W        W14777  16.088  18.393  14.721
49551W        W14778  19.632  29.401  14.868
49552W        W14779  19.844  14.103  14.447
49553W        W14780  28.519  41.094   2.204
49554W        W14781   0.825  17.188   0.434
49555W        W14782  21.230   3.769  10.660
49556W        W14783   7.445   1.940  10.718
49557W        W14784  35.081   9.623  12.078
49558W        W14785  28.533  31.375   0.013
49559W        W14786   1.749  15.397  10.670
49560W        W14787  25.141  12.335   3.712
49561W        W14788  31.383   4.601   1.332
49562W        W14789  15.160  43.969   3.767
49563W        W14790  28.072  27.915   1.902
49564W        W14791  11.497  23.129   1.873
49565W        W14792  44.443  37.149  13.896
49566W        W14793   4.053  27.568   5.077
49567W        W14794  12.675  35.149   3.787
49568W        W14795  42.578  44.942  13.929
49569W        W14796   9.108  33.723  13.757
49570W        W14797   1.585  25.686   0.318
49571W        W14798   0.568  23.379  10.188
49572W        W14799  29.233  19.174   4.610
49573W        W14800  36.428  21.279   1.977
49574W        W14801  39.932  19.013   1.156
49575W        W14802  31.569  41.144   2.738
49576W        W14803   0.037  10.197  14.469
49577W        W14804  18.353  38.966  14.096
49578W        W14805  17.774  41.840   0.876
49579W        W14806  20.942  43.908   4.598
49580W        W14807   1.911  14.925   2.149
49581W        W14808  18.241  20.219   2.827
49582W        W14809  23.676  31.638  14.399
49583W        W14810  37.706  28.872   3.323
49584W        W14811  34.092  21.262   3.198
49585W        W14812   4.887  19.293  13.506
49586W        W14813  40.518   0.492   3.839
49587W        W14814  25.449   2.464  14.825
49588W        W14815  27.925  19.101  12.745
49589W        W14816  44.562  37.297   3.153
49590W        W14817  40.387  39.580  13.057
49591W        W14818  29.887  16.319   1.951
49592W        W14819  10.714   5.391   2.344
49593W        W14820  20.996   4.519   4.326
49594W        W14821  44.265  21.590   4.959
49595W        W14822   9.728  33.214  13.106
49596W        W14823  44.910  42.347   0.270
49597W        W14824  10.802  15.036   0.408
49598W        W14825   7.373  32.887  14.100
49599W        W14826   6.513  44.897  13.253
49600W        W14827  38.939  29.844   1.881
49601W        W14828  31.790  31.148   5.550
49602W        W14829   0.586  16.602  10.799
49603W        W14830  10.139  20.654   5.040
49604W        W14831  43.820  32.682  12.468
49605W        W14832  16.205   0.833   4.402
49606W        W14833   3.594  39.128   4.198
49607W        W14834   2.415  31.082  12.824
49608W        W14835   2.243  40.985   4.735
49609W        W14836  16.886  42.484   2.168
49610W        W14837  19.242  35.623  11.924
49611W        W14838   1.134  41.236  11.618
49612W        W14839  30.672  26.355   1.726
49613W        W14840  21.473  39.488   3.085
49614W        W14841  37.401  21.564  10.831
49615W        W14842  33.112   3.845  13.962
49616W        W14843  16.063  34.993   3.730
49617W        W14844  24.838  18.447  12.858
49618W        W14845  39.343  18.491  11.608
49619W        W14846  10.774  43.848  11.612
49620W        W14847   6.869   8.245   3.666
49621W        W14848  31.955  18.655  13.852
49622W        W14849   8.897  24.724  12.004
49623W        W14850  37.362   7.230   0.298
49624W        W14851  13.858   0.367   0.447
49625W        W14852   8.689  30.937   1.659
49626W        W14853  14.317  32.018   1.773
49627W        W14854   9.777   5.008   4.085
49628W        W14855  13.676   3.908  13.241
49629W        W14856  25.526  11.685   2.924
49630W        W14857  10.799  35.087  14.328
49631W        W14858  44.521  23.682  10.546
49632W        W14859  20.510  10.887  13.131
49633W        W14860  44.734  24.659  14.542
49634W        W14861  19.026   7.280  11.561
49635W        W14862   1.988  44.886   2.274
49636W        W14863   5.555  28.970  10.713
49637W        W14864  15.897  27.707  10.318
49638W        W14865   4.200  19.716   2.550
49639W        W14866  12.746   3.204  14.038
49640W        W14867   2.325  32.957   4.374
49641W        W14868  36.934  26.563  12.327
49642W        W14869  31.555  31.393   3.698
49643W        W14870  29.443  29.726  13.720
49644W        W14871  12.752  35.383   0.487
49645W        W14872   0.749  31.470   3.822
49646W        W14873   1.905  10.048   2.116
49647W        W14874  26.112  10.615   3.288
49648W        W14875  34.411   8.630   4.172
49649W        W14876  19.637  18.141  10.682
49650W        W14877   1.807  10.902  11.483
49651W        W14878  11.372  22.668   1.712
49652W        W14879  28.263   8.626   2.750
49653W        W14880  33.718  19.311  13.438
49654W        W14881  22.241  21.613  13.848
49655W        W14882  21.501  38.163  11.174
49656W        W14883   0.898   0.332   0.343
49657W        W14884   9.826  29.881   4.586
49658W        W14885   1.544  12.789  12.916
49659W        W14886  15.233  22.466  11.415
49660W        W14887  11.690  32.612   3.522
49661W        W14888  10.237  28.990   0.120
49662W        W14889  28.582  17.225  10.186
49663W        W14890  24.738  27.188  10.714
49664W        W14891  14.116   1.267   3.910
49665W        W14892   3.372  11.245   2.773
49666W        W14893  43.892  27.975  11.186
49667W        W14894  20.576  28.975   0.363
49668W        W14895  25.336  15.206  13.873
49669W        W14896   2.362  43.740   1.689
49670W        W14897  37.819   0.740  12.289
49671W        W14898  42.799  15.523  11.993
49672W        W14899  20.087  11.652  10.255
49673W        W14900  31.553   7.298   4.704
49674W        W14901  23.206  27.259   4.470
49675W        W14902  39.445  13.828  11.595
49676W        W14903  25.651  25.670  12.475
49677W        W14904  28.565  16.605  11.437
49678W        W14905   4.862  38.857   2.206
49679W        W14906  29.909  11.374   2.340
49680W        W14907  31.484  21.565   0.804
49681W        W14908   3.102  13.386  12.423
49682W        W14909  44.263  11.159  11.080
49683W        W14910  35.681  37.407  13.300
49684W        W14911  27.169  38.371   4.316
49685W        W14912  21.332  39.338  13.757
49686W        W14913  16.766  26.657   4.610
49687W        W14914  33.566  22.246   4.586
49688W        W14915  23.111  32.134  11.654
49689W        W14916  16.689   8.789  11.557
49690W        W14917   0.061  35.462   0.810
49691W        W14918  33.901  11.101   2.774
49692W        W14919  19.799  13.766  10.577
49693W        W14920   8.752  10.691   4.714
49694W        W14921  21.624   9.361   1.923
49695W        W14922   3.193   8.023   1.338
49696W        W14923  40.036  25.523   1.280
49697W        W14924  27.853  23.084   3.794
49698W        W14925   9.184  39.533  14.311
49699W        W14926  20.597  38.399   3.230
49700W        W14927   9.590  36.747  12.105
49701W        W14928  15.112   8.506   2.301
49702W        W14929  42.469  35.104  13.519
49703W        W14930  20.041  28.417   1.710
49704W        W14931   4.466  33.981  14.497
49705W        W14932  44.667  18.702   4.026
49706W        W14933  27.499  42.100   1.369
49707W        W14934  25.988  30.965   4.915
49708W        W14935   2.875  34.821  11.102
49709W        W14936  22.082   1.189   0.324
49710W        W14937   3.928  33.009   1.651
49711W        W14938  18.661  30.170  11.921
49712W        W14939   2.360  12.827   3.602
49713W        W14940  12.361  26.019  12.359
49714W        W14941  23.603  19.550  13.504
49715W        W14942  31.263  31.995  11.125
49716W        W14943  25.645  13.412   3.155
49717W        W14944   9.987  25.619   4.396
49718W        W14945  36.215  31.133  12.214
49719W        W14946  13.271  31.989   1.035
49720W        W14947   5.817  40.358  12.811
49721W        W14948  39.371  34.855   3.298
49722W        W14949  23.506  16.932   1.796
49723W        W14950   6.620  37.825  14.097
49724W        W14951  33.074  36.467  14.816
49725W        W14952  15.363   5.133   1.853
49726W        W14953  17.475  18.703  14.613
49727W        W14954  14.873  29.756   3.223
49728W        W14955  32.034  39.521   5.257
49729W        W14956   6.089  29.088  14.285
49730W        W14957  41.939  37.861  12.917
49731W        W14958  19.113  27.022  12.326
49732W        W14959   7.124  20.267   3.170
49733W        W14960  22.009  25.221   4.840
49734W        W14961  18.979  36.998   4.567
49735W        W14962  34.972  33.168   4.809
49736W        W14963   4.755  39.172  14.745
49737W        W14964  39.711   9.676  11.214
49738W        W14965  21.294  23.600  11.469
49739W        W14966  22.746   8.374   2.822
49740W        W14967  44.484  15.568  11.368
49741W        W14968  43.425  44.807  11.009
49742W        W14969  42.879  40.846   2.356
49743W        W14970  40.210  44.507   3.254
49744W        W14971  35.902  41.216   0.954
49745W        W14972  12.080  43.439   2.647
49746W        W14973  27.277  42.003   3.222
49747W        W14974  22.029   1.958   0.844
49748W        W14975  18.748  39.564  11.024
49749W        W14976  42.505  25.476   1.445
49750W        W14977  23.166  12.182   2.154
49751W        W14978  37.179  30.046   3.537
49752W        W14979   1.775  16.661  14.999
49753W        W14980  41.961   0.282  11.346
49754W        W14981  27.881  12.234  14.949
49755W        W14982  19.635  38.424   3.050
49756W        W14983  13.306  40.639  14.948
49757W        W14984  39.997  23.215   4.396
49758W        W14985   8.909   8.339   3.327
49759W        W14986  16.630  31.585  13.527
49760W        W14987  11.402  44.072   0.661
49761W        W14988  40.124  23.816   3.182
49762W        W14989   1.912  23.787  12.652
49763W        W14990  24.504  34.871   0.306
49764W        W14991  12.178  23.279   3.096
49765W        W14992  24.413   7.858  13.311
49766W        W14993  27.515  36.008   1.018
49767W        W14994  16.243  39.962   2.385
49768W        W14995  37.102  12.755  10.794
49769W        W14996  27.089  29.058   9.840
49770W        W14997  41.772  32.553   0.740
49771W        W14998  21.194   7.225  11.062
49772W        W14999  31.841  44.409   3.768
49773W        W15000  17.591  25.841   0.364
49774W        W15001  23.405  42.380   9.817
49775W        W15002  14.042   3.414  10.713
49776W        W15003   7.449  14.759   3.151
49777W        W15004  35.586  14.283   2.192
49778W        W15005  22.004  30.397   4.230
49779W        W15006  17.790  26.678  13.090
49780W        W15007   7.269  12.850  10.830
49781W        W15008   0.084  20.853   5.394
49782W        W15009  32.913  22.996  13.363
49783W        W15010  26.522  37.059   1.902
49784W        W15011  29.570  32.745   4.279
49785W        W15012  10.886   6.215  10.587
49786W        W15013  35.470  32.725  14.556
49787W        W15014  16.757   2.846  10.805
49788W        W15015  29.050  36.772  14.556
49789W        W15016  24.675  41.487   4.524
49790W        W15017  31.626  11.097  14.284
49791W        W15018  12.819  40.667  13.671
49792W        W15019  37.290   2.276  13.345
49793W        W15020  24.384  20.494   3.757
49794W        W15021   5.915  36.886   4.147
49795W        W15022   2.815  34.304  11.116
49796W        W15023  35.193   0.524   1.363
49797W        W15024  42.860   1.245  12.015
49798W        W15025  16.289  16.022  14.902
49799W        W15026  35.781  18.923   2.923
49800W        W15027  44.508  17.606  10.688
49801W        W15028  23.015  23.447  12.527
49802W        W15029  32.297  17.143  10.175
49803W        W15030  11.184  18.029  12.474
49804W        W15031   1.675  24.631  12.875
49805W        W15032  16.553   6.829  13.453
49806W        W15033  44.802  13.288  14.411
49807W        W15034  12.598  26.747  11.106
49808W        W15035  13.294  16.622  12.018
49809W        W15036  13.028  20.207  10.520
49810W        W15037  11.099  19.336   0.436
49811W        W15038  34.848   0.888   2.789
49812W        W15039  13.894   8.668   3.285
49813W        W15040  31.853  15.537   0.557
49814W        W15041  14.291  28.237  14.242
49815W        W15042  35.901  30.368   3.255
49816W        W15043  22.454   9.827  10.787
49817W        W15044  41.639  28.399   4.203
49818W        W15045  11.354  25.171  13.848
49819W        W15046  22.033  38.421   4.082
49820W        W15047  28.120   2.711   3.750
49821W        W15048  15.798  37.119   4.012
49822W        W15049   1.299   2.449  10.706
49823W        W15050   4.056  26.631   3.949
49824W        W15051  10.357  14.107  12.936
49825W        W15052  30.213   4.781  13.927
49826W        W15053  38.257  37.220  10.750
49827W        W15054  19.813  10.071   5.023
49828W        W15055  18.649  19.429  14.790
49829W        W15056  19.795  36.833  12.551
49830W        W15057   8.751  43.270  14.367
49831W        W15058  44.887  35.478  13.601
49832W        W15059  23.914  16.595   1.739
49833W        W15060   8.806   7.604  10.764
49834W        W15061  44.187  31.360  13.452
49835W        W15062  42.699  15.775   5.059
49836W        W15063  26.707   0.538  10.272
49837W        W15064  23.521  36.879   0.500
49838W        W15065  18.654   7.835   0.377
49839W        W15066  30.063  23.744   1.188
49840W        W15067  15.543   8.152   4.572
49841W        W15068  25.020  17.727   0.296
49842W        W15069  12.126  37.071   1.837
49843W        W15070   2.037   3.122  14.840
49844W        W15071  23.490   7.380   2.799
49845W        W15072  21.116  10.363  12.331
49846W        W15073  24.111  22.644   4.464
49847W        W15074  37.945  15.146   4.417
49848W        W15075   0.222  40.053  10.660
49849W        W15076   3.473  28.112   2.694
49850W        W15077  43.537  41.355   3.933
49851W        W15078  39.123  29.038  13.786
49852W        W15079  13.470  27.094   1.974
49853W        W15080  24.719  38.290   2.688
49854W        W15081  24.583   7.721   0.503
49855W        W15082   9.620   8.459   0.346
49856W        W15083  40.878  44.452  12.191
49857W        W15084  40.495   5.788  13.932
49858W        W15085  19.384  20.183   2.889
49859W        W15086   0.902  20.183  12.458
49860W        W15087   3.589  32.988  12.046
49861W        W15088  32.016  13.275   2.747
49862W        W15089  21.118   2.467   0.807
49863W        W15090  30.708  40.346  11.872
49864W        W15091  26.580  26.449   3.534
49865W        W15092  34.653  29.599   0.878
49866W        W15093  38.347  44.468   3.329
49867W        W15094  15.728   9.602   3.286
49868W        W15095  30.444  36.207  12.142
49869W        W15096   3.843   8.496   0.702
49870W        W15097  17.457  22.685   2.348
49871W        W15098  32.397  22.570  10.778
49872W        W15099  40.433  11.862   3.249
49873W        W15100  40.331   6.915   0.397
49874W        W15101  30.017  17.314   1.949
49875W        W15102  34.345   6.745   0.892
49876W        W15103  40.459  39.139  11.917
49877W        W15104   0.752  29.370   2.828
49878W        W15105  19.559  43.609   2.350
49879W        W15106  33.451  19.181   2.822
49880W        W15107  30.204   0.960   1.683
49881W        W15108  41.352   6.832  10.142
49882W        W15109  15.368  18.189  10.782
49883W        W15110  12.044  33.334   1.800
49884W        W15111  44.356   1.214  13.480
49885W        W15112  39.074  31.942   0.920
49886W        W15113  25.099  15.527  14.743
49887W        W15114  36.034   2.366   3.797
49888W        W15115  33.237  33.568   2.104
49889W        W15116  20.967  27.537  13.034
49890W        W15117  13.916  31.505   0.835
49891W        W15118   9.956   7.114   4.348
49892W        W15119  17.120  27.498   2.323
49893W        W15120  39.987  29.382   2.006
49894W        W15121  17.860   0.413  10.766
49895W        W15122  24.293  30.185  12.070
49896W        W15123  25.676  11.606  13.842
49897W        W15124  40.705   4.796  12.027
49898W        W15125  42.913   8.122   4.622
49899W        W15126   3.709  28.002   0.317
49900W        W15127  24.750  41.462   5.041
49901W        W15128  31.642  29.213   4.039
49902W        W15129   8.380  26.954  11.300
49903W        W15130   0.394  11.922  14.459
49904W        W15131  30.594   3.814   0.382
49905W        W15132  24.713  15.306   1.749
49906W        W15133  13.593  22.176  11.005
49907W        W15134  41.587  14.614  14.929
49908W        W15135  13.342   4.628  13.539
49909W        W15136  39.760  25.314   1.795
49910W        W15137  42.087  21.735  10.708
49911W        W15138  34.985  40.484  12.196
49912W        W15139  28.194  13.306   3.273
49913W        W15140   1.543  31.622   1.749
49914W        W15141  36.523  31.093  13.531
49915W        W15142  42.781  36.955   2.858
49916W        W15143   1.270  14.388  12.826
49917W        W15144  30.884  14.379  10.700
49918W        W15145  10.777   8.218  11.560
49919W        W15146  19.126   3.492   2.632
49920W        W15147   9.843  19.379   2.670
49921W        W15148  20.224  33.106   2.301
49922W        W15149  22.596  10.009   2.940
49923W        W15150  20.567  11.204  12.375
49924W        W15151   9.794  23.341  13.660
49925W        W15152  41.834  36.394  13.934
49926W        W15153   7.235   5.947   0.976
49927W        W15154  44.183   3.900   2.266
49928W        W15155   0.867  17.071  12.016
49929W        W15156  22.215  31.195  12.943
49930W        W15157   5.552  39.951   1.398
49931W        W15158  24.966  38.257  12.512
49932W        W15159  24.428  31.011   2.280
49933W        W15160  27.490  41.784   1.778
49934W        W15161  25.549  26.414   4.478
49935W        W15162  25.662  30.411  10.771
49936W        W15163   0.394  27.598   1.389
49937W        W15164  14.917  18.358   2.939
49938W        W15165  28.525   2.544   0.867
49939W        W15166   8.099  16.827  13.429
49940W        W15167  24.048  32.109  11.236
49941W        W15168  19.121   4.675   4.820
49942W        W15169  38.025   5.778  13.121
49943W        W15170  10.240  24.877   4.119
49944W        W15171   7.302   4.862  10.789
49945W        W15172  44.058  15.466   3.257
49946W        W15173  28.695  23.248   1.775
49947W        W15174  21.568  30.196   3.099
49948W        W15175   8.278  42.571  14.474
49949W        W15176   9.087  44.372  14.885
49950W        W15177   4.761  38.710  13.262
49951W        W15178  30.974  11.609   5.047
49952W        W15179   2.271   5.652  14.288
49953W        W15180  35.693  23.580   0.017
49954W        W15181  23.774   6.684   1.125
49955W        W15182  13.588  18.304  12.427
49956W        W15183   6.146  38.540  13.561
49957W        W15184  30.621   9.457  11.133
49958W        W15185  44.471  10.285  12.637
49959W        W15186  14.698   6.176   4.984
49960W        W15187  32.110  42.970  10.800
49961W        W15188  29.924  15.378   4.189
49962W        W15189  39.751   8.504  12.984
49963W        W15190  28.689  10.164  13.047
49964W        W15191  13.688  25.709  14.757
49965W        W15192  27.310  10.412  13.464
49966W        W15193  23.801  12.066  11.852
49967W        W15194   1.812  37.146   1.580
49968W        W15195  30.140   0.421   2.371
49969W        W15196  24.987  20.919   2.409
49970W        W15197  31.672  24.510  11.619
49971W        W15198   5.207  35.916   0.931
49972W        W15199  32.559   1.520   1.524
49973W        W15200  43.234  15.981  13.678
49974W        W15201  12.107  17.364   3.137
49975W        W15202  37.115  32.626   0.514
49976W        W15203  13.806  16.152  14.737
49977W        W15204  18.769  32.448  11.610
49978W        W15205  16.687   9.215   1.892
49979W        W15206  27.974  40.111   2.777
49980W        W15207   1.154   9.048  14.868
49981W        W15208  12.799  33.645  14.674
49982W        W15209  19.470   5.651   0.470
49983W        W15210  28.937  24.571  10.522
49984W        W15211  30.097  42.924   2.660
49985W        W15212  14.009  11.808  14.317
49986W        W15213   1.794  11.402   0.949
49987W        W15214  30.172  20.160   2.942
49988W        W15215  17.816   8.299   3.277
49989W        W15216  38.289   2.800  11.232
49990W        W15217  11.092  25.733  13.584
49991W        W15218   8.376   1.123   3.643
49992W        W15219   4.926  21.025  11.872
49993W        W15220   8.225  28.256  12.031
49994W        W15221  40.930  19.143  14.274
49995W        W15222   6.457   8.429   2.285
49996W        W15223  35.821  15.772   1.784
49997W        W15224  24.520  11.148   2.307
49998W        W15225  34.376   7.101  13.295
49999W        W15226  21.664  12.473  12.062
50000W        W15227  26.029  19.614   2.837
50001W        W15228   9.265   2.924  11.858
50002W        W15229  27.789  42.360  11.163
50003W        W15230  10.289  21.909  12.121
50004W        W15231  11.400   9.790   0.341
50005W        W15232  31.639   4.424  13.401
50006W        W15233  30.199  36.495   1.302
50007W        W15234  42.452   8.224  11.476
50008W        W15235  40.541  44.449  14.369
50009W        W15236  34.384  40.223  13.407
50010W        W15237  16.995  38.968   3.502
50011W        W15238  16.524  35.520   0.437
50012W        W15239  20.270  33.984   1.888
50013W        W15240   8.900   4.356   4.296
50014W        W15241  12.187  25.111   3.923
50015W        W15242   3.554  40.974  11.459
50016W        W15243  37.871  14.555  13.516
50017W        W15244  25.134  35.225  13.922
50018W        W15245  13.799  27.032   3.920
50019W        W15246  38.318  29.664  10.775
50020W        W15247  25.999   8.326  14.567
50021W        W15248  29.521  29.883  12.297
50022W        W15249  36.456  38.690   3.294
50023W        W15250   0.639   0.291   2.347
50024W        W15251  19.654  40.559   2.232
50025W        W15252  17.759   9.283  12.755
50026W        W15253  10.017  17.666  14.207
50027W        W15254  20.308   5.308  12.954
50028W        W15255   8.622  13.800   9.930
50029W        W15256   5.862   1.859  10.954
50030W        W15257  29.447  33.472   0.925
50031W        W15258  22.567  14.341   1.778
50032W        W15259  35.405   9.774   0.920
50033W        W15260   7.350  37.074  12.378
50034W        W15261  13.630  10.747   4.459
50035W        W15262  22.682  25.079   2.742
50036W        W15263  13.150  35.814   2.719
50037W        W15264  39.503  36.914  14.282
50038W        W15265   4.721  42.004  13.053
50039W        W15266  24.552  38.358   4.505
50040W        W15267  32.959   4.395  11.622
50041W        W15268  33.100  14.579   1.259
50042W        W15269  29.518   9.810  12.956
50043W        W15270  23.008   0.157  13.028
50044W        W15271  41.117   8.388   0.576
50045W        W15272  34.936   6.817   2.897
50046W        W15273   0.210  30.710   1.351
50047W        W15274   0.207  32.913   2.947
50048W        W15275   2.808  21.756  12.950
50049W        W15276  17.805  13.388   2.388
50050W        W15277  27.028   9.798  10.820
50051W        W15278  20.727  19.711   5.044
50052W        W15279  16.214   8.693   2.481
50053W        W15280  22.303  31.645   2.794
50054W        W15281  36.555  27.943   9.829
50055W        W15282  25.488  39.758   4.792
50056W        W15283  42.519  12.413   3.673
50057W        W15284  17.307  22.906   4.637
50058W        W15285  35.767  24.195   3.264
50059W        W15286   0.403  10.078   2.966
50060W        W15287  41.210   2.926   4.722
50061W        W15288  37.447  32.348   3.072
50062W        W15289  15.114  36.355   1.480
50063W        W15290  39.938  44.357  11.909
50064W        W15291  34.511   4.240   3.393
50065W        W15292  43.838  27.508  11.434
50066W        W15293  33.468  27.496   4.611
50067W        W15294  39.046   8.334   3.621
50068W        W15295  16.028  40.333   4.322
50069W        W15296  23.183  24.711  10.862
50070W        W15297  41.926  22.530   1.921
50071W        W15298  10.746  44.331   1.060
50072W        W15299  41.133  30.277  11.460
50073W        W15300  16.197   6.258  11.675
50074W        W15301  44.394   3.914   0.328
50075W        W15302   3.620  40.957  10.839
50076W        W15303  29.546   8.621   3.349
50077W        W15304   2.172  38.775   4.668
50078W        W15305  16.132   5.792   2.345
50079W        W15306   0.002  21.586  13.053
50080W        W15307   6.552  35.620   0.984
50081W        W15308  28.949  33.986  12.033
50082W        W15309  40.345  24.972  12.018
50083W        W15310   2.807  11.560   2.501
50084W        W15311   3.781  13.502   3.212
50085W        W15312   0.950  39.454   2.255
50086W        W15313  39.918   8.786  12.489
50087W        W15314  33.932  31.336   2.278
50088W        W15315  26.916  19.613  11.093
50089W        W15316  17.128  43.788  11.884
50090W        W15317  38.838  33.459   1.813
50091W        W15318  44.355   8.436  14.364
50092W        W15319   9.822  21.072   1.959
50093W        W15320   6.871  20.248   4.538
50094W        W15321  28.142  32.826   2.894
50095W        W15322  13.803  42.478   1.315
50096W        W15323  20.602  40.884   4.863
50097W        W15324  19.716   0.005  14.420
50098W        W15325  18.795  12.228  13.783
50099W        W15326   3.903  38.076   3.546
50100W        W15327   6.545  35.452   4.078
50101W        W15328  41.619   5.861  12.082
50102W        W15329  12.115  19.634   4.520
50103W        W15330  27.304  22.586   4.230
50104W        W15331  19.101  40.006  12.187
50105W        W15332  24.486   7.315   3.660
50106W        W15333  33.156   7.832  11.106
50107W        W15334  22.995  35.016   3.783
50108W        W15335   8.809  38.565   1.373
50109W        W15336  12.721  11.049   0.412
50110W        W15337  38.142  24.637   2.439
50111W        W15338  10.154   1.407  10.724
50112W        W15339  17.663  27.160  14.899
50113W        W15340  43.446  42.919   0.604
50114W        W15341  13.040  31.340  10.422
50115W        W15342  16.376  17.671   3.322
50116W        W15343  34.179   8.217   2.220
50117W        W15344  23.678  21.033  13.416
50118W        W15345  16.037  17.551  13.378
50119W        W15346  15.827  30.131  12.211
50120W        W15347   0.824  20.004   0.890
50121W        W15348  41.295  15.711  12.511
50122W        W15349  21.184  38.419  14.741
50123W        W15350  28.956  33.048  14.779
50124W        W15351   1.416   8.586  14.201
50125W        W15352   4.245   8.340  14.098
50126W        W15353  25.471  12.538   0.456
50127W        W15354   6.980  40.488   3.853
50128W        W15355  21.235  27.117   0.066
50129W        W15356   6.674  16.450   4.479
50130W        W15357  28.111  17.228   3.236
50131W        W15358  44.133  37.596  11.981
50132W        W15359  27.962  38.832   1.185
50133W        W15360  30.589  16.124   1.278
50134W        W15361  43.426  37.119  10.752
50135W        W15362  33.690   5.704   2.537
50136W        W15363  18.304  18.140   3.281
50137W        W15364  24.582  12.180   4.126
50138W        W15365  24.805  42.475  12.918
50139W        W15366   1.187  13.507   4.300
50140W        W15367  38.184  25.481   3.077
50141W        W15368  19.850   3.955   0.569
50142W        W15369  23.492  28.208   3.548
50143W        W15370  28.649  33.623  13.354
50144W        W15371  15.157  14.082   2.324
50145W        W15372  37.017  40.364   2.057
50146W        W15373   4.740   0.327  11.589
50147W        W15374  21.219  32.657  11.581
50148W        W15375   8.130  33.099  11.342
50149W        W15376  39.786  40.722  13.344
50150W        W15377  38.149  30.350  13.948
50151W        W15378   4.255  16.784  13.468
50152W        W15379  15.852  14.681  12.426
50153W        W15380   2.884  24.803   3.114
50154W        W15381  32.718   5.176   4.164
50155W        W15382   0.748   3.913   1.368
50156W        W15383  27.452  12.721   5.022
50157W        W15384  22.665  19.252  14.045
50158W        W15385  17.071  24.571  11.609
50159W        W15386  18.993   6.213   3.269
50160W        W15387  28.066  29.499   3.807
50161W        W15388   9.766  19.395  10.445
50162W        W15389  26.932   1.054  10.732
50163W        W15390  25.913  28.097   1.281
50164W        W15391  17.317   8.203   4.163
50165W        W15392  20.609  10.383  11.093
50166W        W15393  32.867  21.641  12.531
50167W        W15394  20.074  25.426  13.998
50168W        W15395   5.047  31.346   3.445
50169W        W15396  30.941  21.429   3.387
50170W        W15397   9.737  33.933   4.964
50171W        W15398  34.226  40.709  13.367
50172W        W15399   1.005   3.224  14.726
50173W        W15400   3.907   1.549   4.246
50174W        W15401  44.780   8.885   3.931
50175W        W15402  42.088  14.622   3.597
50176W        W15403   0.525  12.788  11.618
50177W        W15404  39.214  23.015   1.256
50178W        W15405  27.903  29.579   1.661
50179W        W15406  41.367  42.669  14.485
50180W        W15407   6.656   7.148   4.187
50181W        W15408   7.404  35.613   4.242
50182W        W15409  10.370  43.860  14.924
50183W        W15410  16.147  30.347  12.957
50184W        W15411  15.641  29.692  14.373
50185W        W15412   2.714  42.276   0.485
50186W        W15413  21.095  38.986  10.404
50187W        W15414  23.547  19.623  11.673
50188W        W15415  35.649  43.204  14.985
50189W        W15416  38.837  43.600   2.776
50190W        W15417  14.159   1.221  14.908
50191W        W15418  28.210  27.634  12.460
50192W        W15419  15.372   9.961   3.100
50193W        W15420  40.534  27.667  12.395
50194W        W15421  24.034  34.839  10.784
50195W        W15422  43.917  18.022  10.329
50196W        W15423  34.249  18.663   3.787
50197W        W15424   8.616  16.635   4.972
50198W        W15425  35.626  31.379  14.515
50199W        W15426  35.009  33.080  12.578
50200W        W15427   6.367  31.371  12.596
50201W        W15428  31.926   8.663   2.694
50202W        W15429   6.268  33.994  14.237
50203W        W15430   6.299  19.201   0.533
50204W        W15431   8.920   8.829  13.492
50205W        W15432  14.251  10.330   4.518
50206W        W15433  13.106  33.971   1.741
50207W        W15434  21.549  22.931  13.649
50208W        W15435   0.839  21.230   1.331
50209W        W15436  22.063  41.973  10.795
50210W        W15437  25.220  14.387   2.236
50211W        W15438  15.651  14.090  10.902
50212W        W15439  42.000  34.692  11.258
50213W        W15440  21.107  26.481   2.793
50214W        W15441  19.514  14.756   1.444
50215W        W15442  39.077  28.343   2.259
50216W        W15443   6.661   2.848   1.383
50217W        W15444  33.664  37.346   0.354
50218W        W15445  42.443   3.765  12.648
50219W        W15446  13.167  28.223  13.405
50220W        W15447  11.247  31.072   4.987
50221W        W15448   2.283  30.895   3.144
50222W        W15449   5.298  18.976   2.223
50223W        W15450  35.357  18.212   3.942
50224W        W15451  12.773  20.790  12.856
50225W        W15452   6.229  27.209  14.408
50226W        W15453  13.970  36.169   3.850
50227W        W15454  34.914  29.042  11.165
50228W        W15455  39.611   1.522   1.687
50229W        W15456   3.844  26.231   2.682
50230W        W15457   9.838  16.293  13.934
50231W        W15458  12.262  30.806   0.928
50232W        W15459   8.197  38.980   4.040
50233W        W15460   5.437   8.845   3.791
50234W        W15461  15.318  26.745   4.723
50235W        W15462  40.127  29.929   4.715
50236W        W15463  23.549  25.964   4.507
50237W        W15464  30.014  16.811  13.738
50238W        W15465  35.110   6.898   2.409
50239W        W15466   0.064   2.448   0.873
50240W        W15467   3.387  38.922  12.206
50241W        W15468   0.795  44.934  11.738
50242W        W15469  11.243  16.002  14.877
50243W        W15470   8.917  17.292   2.764
50244W        W15471  32.929  23.247   4.021
50245W        W15472  36.094  27.714   2.203
50246W        W15473   8.819  30.686  14.388
50247W        W15474  37.622  22.755  11.054
50248W        W15475  19.666  11.848   4.602
50249W        W15476  42.180   2.627   4.584
50250W        W15477  22.532  24.619  14.889
50251W        W15478  30.829  43.934   4.542
50252W        W15479   0.462  28.505   3.044
50253W        W15480  19.924  42.347  14.357
50254W        W15481  35.596  35.865   1.309
50255W        W15482  33.785   3.425  11.676
50256W        W15483  26.112  19.418   1.797
50257W        W15484  27.669  18.001   0.459
50258W        W15485  21.587  14.116   1.801
50259W        W15486  33.811  42.738   4.882
50260W        W15487  11.450  37.545  12.114
50261W        W15488   3.669  43.244   2.306
50262W        W15489   2.318  31.982   4.191
50263W        W15490  42.634  27.878   1.693
50264W        W15491  19.197  26.411  14.995
50265W        W15492   9.396  40.759  14.950
50266W        W15493  20.183   7.244  12.606
50267W        W15494  44.765  19.362  12.598
50268W        W15495  39.121  10.835   3.861
50269W        W15496  16.055  34.328   0.874
50270W        W15497  35.962  33.445  13.211
50271W        W15498  38.289  11.375   2.315
50272W        W15499  19.856  20.801  11.058
50273W        W15500   1.285  42.092  12.640
50274W        W15501  39.525  22.142   4.791
50275W        W15502  12.793  12.834   4.764
50276W        W15503  14.487  25.241  10.470
50277W        W15504  32.012  35.527   1.205
50278W        W15505  36.040  14.362   0.312
50279W        W15506   5.362  16.090  13.374
50280W        W15507  33.390   2.489  13.465
50281W        W15508  15.582  29.702  13.011
50282W        W15509  14.252  40.362  11.589
50283W        W15510  17.847  23.201   1.851
50284W        W15511  20.489  27.386  11.578
50285W        W15512  28.969  28.244  12.764
50286W        W15513   2.085  44.139  12.586
50287W        W15514  28.964  39.721  11.181
50288W        W15515  38.645  28.037   2.924
50289W        W15516  14.165  40.439   0.550
50290W        W15517   9.988   1.693  10.304
50291W        W15518  44.642   3.242   5.182
50292W        W15519  12.427  38.230   1.402
50293W        W15520  30.350  30.030  14.846
50294W        W15521  38.735  33.110  10.631
50295W        W15522  18.016  31.795   2.756
50296W        W15523  24.036   0.358   2.659
50297W        W15524  41.989  24.318   1.574
50298W        W15525  23.940  31.874  13.863
50299W        W15526  27.824  16.411   2.650
50300W        W15527  44.568  13.020   2.278
50301W        W15528  39.334  16.543  14.309
50302W        W15529  35.066  20.141  12.076
50303W        W15530  43.751  18.544  11.151
50304W        W15531   0.776   9.349   4.617
50305W        W15532  13.684   4.172  11.514
50306W        W15533  22.046  38.307  13.977
50307W        W15534  18.204  44.966  12.467
50308W        W15535  31.372  35.060   3.283
50309W        W15536   0.889  32.606  11.125
50310W        W15537  36.642  40.943  11.259
50311W        W15538  26.834   8.568   2.644
50312W        W15539  14.441  10.809  11.024
50313W        W15540  18.119  35.063   3.720
50314W        W15541  33.001   3.397   4.116
50315W        W15542  31.928  38.468   0.343
50316W        W15543  24.104  32.373   2.237
50317W        W15544   4.865  11.356   0.894
50318W        W15545  25.351  13.234   3.724
50319W        W15546  26.027   5.351   1.332
50320W        W15547  35.405   5.195   3.175
50321W        W15548  43.999  24.093   0.448
50322W        W15549  12.405  22.522  10.748
50323W        W15550   4.130   5.288  12.005
50324W        W15551  35.449  34.650   1.927
50325W        W15552  21.934   4.047  10.950
50326W        W15553   4.287   7.793  10.706
50327W        W15554  17.641  22.257  14.429
50328W        W15555  20.362  35.093  11.027
50329W        W15556  27.907  14.262   3.305
50330W        W15557   6.256  40.621   0.161
50331W        W15558  43.260  14.238  11.122
50332W        W15559   9.713  10.774  14.471
50333W        W15560   2.495  21.067  12.952
50334W        W15561  11.420  11.807   0.807
50335W        W15562  19.692  19.490   4.614
50336W        W15563  17.612  18.087   2.223
50337W        W15564   3.500  18.053  12.481
50338W        W15565  26.237  27.213   4.111
50339W        W15566  19.856  31.113  14.559
50340W        W15567  36.318  25.100   0.543
50341W        W15568  25.958  39.196  13.154
50342W        W15569  37.487  26.522  10.047
50343W        W15570  30.377   5.878  11.143
50344W        W15571  17.538  24.651  13.410
50345W        W15572  29.414  31.613  10.544
50346W        W15573  35.195  12.497   1.256
50347W        W15574  42.665  29.277  10.994
50348W        W15575  31.200   5.351  12.374
50349W        W15576  19.321   3.139   1.415
50350W        W15577  21.152  29.568  10.914
50351W        W15578  11.629  36.196   1.653
50352W        W15579  15.936   9.116   3.291
50353W        W15580  42.382  18.934   2.733
50354W        W15581  42.164  34.785  14.547
50355W        W15582  12.383   3.656  11.848
50356W        W15583  30.450  26.992   1.366
50357W        W15584  38.881  26.077  13.920
50358W        W15585  10.103  40.473   0.783
50359W        W15586  34.106  40.072   1.503
50360W        W15587  42.468  26.474   2.325
50361W        W15588  33.478  44.364   4.713
50362W        W15589  12.446   4.916  14.305
50363W        W15590  43.480   1.463   4.677
50364W        W15591  28.034  10.955  12.967
50365W        W15592  19.204  18.765   3.093
50366W        W15593  37.454  26.959   4.564
50367W        W15594  41.148  36.139  14.365
50368W        W15595  27.401  14.160   4.662
50369W        W15596  39.419   8.024  12.292
50370W        W15597  30.512  43.690  14.099
50371W        W15598  31.896  15.685   4.136
50372W        W15599   5.671  16.596   0.617
50373W        W15600   9.593  18.360   0.776
50374W        W15601  12.274  43.847   0.788
50375W        W15602  32.077  34.580  11.733
50376W        W15603  18.320  22.416   4.604
50377W        W15604   2.463   4.175  11.867
50378W        W15605  25.623   0.028   3.091
50379W        W15606  14.810  24.172   0.047
50380W        W15607  35.531  23.091  11.869
50381W        W15608   9.557  30.540   4.155
50382W        W15609   8.599  29.780   0.908
50383W        W15610  34.527  36.826  12.792
50384W        W15611   8.683  41.849  11.633
50385W        W15612  38.538  39.860  13.465
50386W        W15613  25.774  33.129  14.438
50387W        W15614  34.279   1.945  11.119
50388W        W15615  33.877  30.844   2.443
50389W        W15616  17.700  19.600   3.202
50390W        W15617  21.347   4.158   1.830
50391W        W15618   5.994  40.333   2.663
50392W        W15619  41.949  13.023   5.299
50393W        W15620   3.240  42.357   3.185
50394W        W15621   5.379  26.764   3.512
50395W        W15622  31.047  38.368   5.075
50396W        W15623  31.680  35.949  11.635
50397W        W15624  33.505  33.537  11.950
50398W        W15625   5.822  14.652   1.414
50399W        W15626  28.809  11.489  11.715
50400W        W15627   9.581  40.498   1.715
50401W        W15628  17.650  30.960  10.782
50402W        W15629  13.229  31.156  13.302
50403W        W15630   6.455   0.606   5.323
50404W        W15631   6.880  44.762  14.046
50405W        W15632  38.125  34.816  13.053
50406W        W15633  29.923  21.248  11.404
50407W        W15634   2.975   1.950  11.567
50408W        W15635  19.586  21.918  13.407
50409W        W15636  38.534   3.977  11.789
50410W        W15637   0.937   5.221  10.483
50411W        W15638  38.792  32.023  10.268
50412W        W15639  40.519  23.926   3.564
50413W        W15640   0.570  43.257  12.547
50414W        W15641   0.339   4.774   2.789
50415W        W15642  39.097  17.574   3.307
50416W        W15643  25.101  39.412  11.787
50417W        W15644  31.402  15.437   4.520
50418W        W15645  26.502  39.113   0.865
50419W        W15646  10.284  20.115   1.547
50420W        W15647  35.643   3.576  11.487
50421W        W15648  19.273  21.127  10.761
50422W        W15649   2.936  13.702  10.723
50423W        W15650   4.866  37.613  14.509
50424W        W15651  17.558  21.259  10.946
50425W        W15652  35.135  30.075  14.783
50426W        W15653   2.061  34.903   1.377
50427W        W15654  38.737  25.547   4.374
50428W        W15655  31.591  10.238  11.601
50429W        W15656  24.274   8.430  14.873
50430W        W15657  27.378  24.907  12.430
50431W        W15658   9.912  11.417  13.078
50432W        W15659  37.905  37.032  13.446
50433W        W15660  21.818   8.886  12.775
50434W        W15661  12.874  38.054  11.701
50435W        W15662  15.201   3.948   3.732
50436W        W15663  13.590  43.418   3.764
50437W        W15664  44.479  11.718   0.706
50438W        W15665   3.396  13.492  13.776
50439W        W15666   4.998  16.187  14.401
50440W        W15667  22.660  27.726  14.717
50441W        W15668  23.508  28.557  13.450
50442W        W15669  12.266  17.456   0.293
50443W        W15670  20.782  37.558  12.989
50444W        W15671   7.155  36.099   3.138
50445W        W15672  21.713  37.704  12.957
50446W        W15673  16.803   6.577   4.426
50447W        W15674  25.259  39.288  11.297
50448W        W15675  28.383  35.943  13.566
50449W        W15676   8.866  32.022  14.037
50450W        W15677  10.467  42.625  11.195
50451W        W15678  21.673  16.312  10.632
50452W        W15679   3.225  28.207   3.131
50453W        W15680  43.598  25.229  12.074
50454W        W15681  29.188  30.754  13.623
50455W        W15682  10.676  23.539   2.016
50456W        W15683   6.431  14.613   4.704
50457W        W15684  35.305  37.006  14.092
50458W        W15685  38.519  22.337  13.974
50459W        W15686   3.962  43.907   0.001
50460W        W15687  32.104  29.041   2.910
50461W        W15688   9.787  43.526   2.373
50462W        W15689  13.617  17.228   3.272
50463W        W15690  11.303  39.354   2.757
50464W        W15691  32.913  10.373  13.307
50465W        W15692   0.714  44.358   2.326
50466W        W15693  14.728  37.730   2.771
50467W        W15694  23.349  36.629  13.582
50468W        W15695  32.822  33.667   1.723
50469W        W15696  14.059  32.418  12.661
50470W        W15697  24.523  15.949   4.244
50471W        W15698  15.032   4.149   4.156
50472W        W15699  20.888   0.959  13.438
50473W        W15700   2.112  42.294  14.215
50474W        W15701  12.253  26.103  14.707
50475W        W15702  18.959  17.846  12.143
50476W        W15703  18.586  14.167  13.903
50477W        W15704  24.262  20.478   0.357
50478W        W15705  25.614  13.983  14.538
50479W        W15706  32.828   6.799  13.475
50480W        W15707  31.238  31.548  12.021
50481W        W15708  40.528   0.816  11.147
50482W        W15709  32.289  11.108   1.754
50483W        W15710  29.690  39.783  11.025
50484W        W15711  11.622  12.693  14.914
50485W        W15712  27.932  24.193  12.419
50486W        W15713  34.752   2.167  11.130
50487W        W15714  39.298  13.864  12.098
50488W        W15715  28.993  30.533   0.851
50489W        W15716  23.477  30.354   1.433
50490W        W15717  13.225  19.005  13.261
50491W        W15718   8.681  19.594  13.736
50492W        W15719  16.115   8.147  10.991
50493W        W15720  36.771  35.087  11.609
50494W        W15721  20.190  10.089   4.226
50495W        W15722  15.628  38.975   1.945
50496W        W15723   2.163  21.727   0.474
50497W        W15724   8.243  33.848  14.900
50498W        W15725   6.370  29.557  12.355
50499W        W15726   4.653  13.717   3.710
50500W        W15727  23.143   7.439  12.798
50501W        W15728  31.641   3.456   0.419
50502W        W15729   7.916  24.726  12.104
50503W        W15730  35.023  25.932  12.210
50504W        W15731  12.820  23.680  14.511
50505W        W15732   3.332  14.228  12.024
50506W        W15733  24.113   7.528   2.169
50507W        W15734  38.536   2.206  14.912
50508W        W15735  14.045  39.828  13.890
50509W        W15736  23.573  26.017  11.821
50510W        W15737  20.068  32.342   3.017
50511W        W15738  29.942   3.707   0.890
50512W        W15739  42.221  31.453   4.372
50513W        W15740  41.538  28.857   0.216
50514W        W15741  27.455  27.492  12.759
50515W        W15742  18.100  17.772   0.744
50516W        W15743  26.980   0.270  14.861
50517W        W15744  31.087  30.972  14.733
50518W        W15745  31.977  36.698  11.310
50519W        W15746  43.802  42.972   5.046
50520W        W15747  19.157   5.776   4.636
50521W        W15748   5.120  24.614  14.301
50522W        W15749  27.888  15.136  11.502
50523W        W15750  10.397   5.224  13.000
50524W        W15751  35.497  22.717   4.086
50525W        W15752   3.878  26.538   4.971
50526W        W15753  41.027  24.116   3.601
50527W        W15754  13.088  12.343   3.179
50528W        W15755  43.883  33.033  12.069
50529W        W15756   3.219  27.239  12.814
50530W        W15757   3.357  24.078  11.082
50531W        W15758   6.786  39.944  14.904
50532W        W15759  19.796  14.340  13.144
50533W        W15760  35.355  25.440  11.471
50534W        W15761  16.360  20.181   2.879
50535W        W15762   2.726  22.121  13.329
50536W        W15763  34.661  24.979   4.931
50537W        W15764  36.813  10.223  14.267
50538W        W15765  26.269  28.594  11.978
50539W        W15766   2.521   1.365  10.902
50540W        W15767  17.949  34.993  13.319
50541W        W15768  40.973  37.821   0.547
50542W        W15769  15.517  18.103   2.082
50543W        W15770  20.498  14.533   1.497
50544W        W15771  26.213  39.229   0.350
50545W        W15772  36.809  20.477   2.267
50546W        W15773  39.661  34.943   2.831
50547W        W15774  23.462  19.358  14.945
50548W        W15775  27.903  23.605  10.829
50549W        W15776  34.960  21.374  14.196
50550W        W15777  41.095   2.828   2.507
50551W        W15778   4.797   2.471  11.658
50552W        W15779  43.302  19.799   1.441
50553W        W15780  18.669  13.374  12.880
50554W        W15781  26.351   1.795  13.818
50555W        W15782  32.529  24.681  14.848
50556W        W15783  42.973  26.930   0.453
50557W        W15784  26.077   1.433  13.546
50558W        W15785   1.793  42.038  12.516
50559W        W15786  43.887  25.423  14.837
50560W        W15787  40.539   3.823   3.526
50561W        W15788  21.262  10.780   2.801
50562W        W15789  16.194   4.937  10.886
50563W        W15790  42.529  10.634  13.850
50564W        W15791  22.042  20.786   1.395
50565W        W15792  31.345  43.928   0.251
50566W        W15793  40.817  43.792   1.330
50567W        W15794  44.376  24.028   2.219
50568W        W15795  32.586   4.137  12.502
50569W        W15796  42.726  25.503   0.971
50570W        W15797  26.040  38.687  13.031
50571W        W15798  16.836  36.074  11.171
50572W        W15799  42.641  14.266  14.542
50573W        W15800   5.286  33.297  11.131
50574W        W15801  21.690   5.106   2.537
50575W        W15802  13.952  22.690  10.650
50576W        W15803  28.188  32.650   2.001
50577W        W15804  10.829   2.707   4.118
50578W        W15805  34.563  17.598  13.409
50579W        W15806  12.532  28.580   2.883
50580W        W15807  12.804  39.414  14.920
50581W        W15808  17.696  25.190  14.745
50582W        W15809  13.588  10.889   3.970
50583W        W15810  16.873  16.927   2.953
50584W        W15811  14.996  14.706  13.922
50585W        W15812  25.074   4.435  10.723
50586W        W15813  13.874  42.934  11.258
50587W        W15814  12.075   7.824  10.894
50588W        W15815  23.196  19.034   1.334
50589W        W15816  20.324  11.174  13.540
50590W        W15817  25.529  20.733  11.101
50591W        W15818  41.970  27.696  11.235
50592W        W15819  11.288  36.117   2.620
50593W        W15820  39.629  34.389   0.930
50594W        W15821  17.077  44.306  12.060
50595W        W15822   8.284  31.489  12.440
50596W        W15823  30.364  31.302  13.878
50597W        W15824  11.775  16.833   1.382
50598W        W15825  28.506   5.874  10.446
50599W        W15826  42.372   5.298   9.858
50600W        W15827  17.334  19.182  14.831
50601W        W15828  35.748  29.887  12.999
50602W        W15829  18.298  33.464   4.997
50603W        W15830  40.020  24.554   2.334
50604W        W15831  41.606   8.465  11.563
50605W        W15832  15.666  20.040  12.521
50606W        W15833  37.789  42.871  13.304
50607W        W15834  36.545  31.505  12.077
50608W        W15835  44.216  42.450   2.459
50609W        W15836  28.521  13.717  12.420
50610W        W15837  30.900  10.377  11.080
50611W        W15838   3.196  25.750  13.804
50612W        W15839  35.386   8.089   1.665
50613W        W15840  18.604   5.221  13.648
50614W        W15841  36.065  32.423   4.249
50615W        W15842   5.937  16.174  12.075
50616W        W15843   3.139  12.634  12.055
50617W        W15844  28.869  24.490  12.547
50618W        W15845  32.219  18.523  13.383
50619W        W15846  17.514  34.279   4.129
50620W        W15847  21.771  20.195   1.879
50621W        W15848   0.403  28.004   0.412
50622W        W15849   6.963  15.263  12.116
50623W        W15850   4.878  20.223  12.472
50624W        W15851  29.013   5.272   3.643
50625W        W15852  23.972  41.884  10.699
50626W        W15853  17.179  26.494   3.868
50627W        W15854   7.509  20.593  13.978
50628W        W15855  40.584  33.020  12.320
50629W        W15856  29.000  31.623   1.838
50630W        W15857  41.195  27.587   4.197
50631W        W15858  31.453  40.107  10.272
50632W        W15859  32.666   7.504  11.242
50633W        W15860  16.306   0.145  12.518
50634W        W15861  12.960  15.351  14.012
50635W        W15862   9.143  28.507  11.199
50636W        W15863   0.265  41.056   0.093
50637W        W15864  26.155  23.614  11.158
50638W        W15865   8.986  15.268   1.843
50639W        W15866   0.351  33.626  10.478
50640W        W15867  13.397   9.209   3.686
50641W        W15868  27.303   5.390  13.281
50642W        W15869  33.136   0.080   1.727
50643W        W15870  35.527  17.177   1.911
50644W        W15871  17.126  19.056   0.296
50645W        W15872  27.146  26.293   4.199
50646W        W15873  21.022  41.309  14.803
50647W        W15874   2.264  35.975   4.474
50648W        W15875  31.086  16.968  12.429
50649W        W15876  36.417  26.142  13.676
50650W        W15877  19.605  29.469  13.126
50651W        W15878  37.128   4.701   0.286
50652W        W15879  12.274  15.732  11.940
50653W        W15880  35.814  25.120  10.674
50654W        W15881  10.432  15.315   0.619
50655W        W15882  31.823  32.390   4.121
50656W        W15883  25.498  10.139  14.911
50657W        W15884  31.631  23.669  14.906
50658W        W15885  39.379  36.384  14.404
50659W        W15886  20.204   0.122  12.593
50660W        W15887  34.618  43.130   0.359
50661W        W15888  42.532  32.469   4.447
50662W        W15889  13.209   0.678   4.561
50663W        W15890  38.835  40.467   5.034
50664W        W15891  21.982  26.532   2.853
50665W        W15892  14.843  38.812  13.175
50666W        W15893  31.417  22.129   2.238
50667W        W15894  42.255  43.240  11.130
50668W        W15895  24.422   4.779   1.816
50669W        W15896   4.349  39.954  11.664
50670W        W15897   1.477  36.594  14.410
50671W        W15898  37.524  35.361   1.424
50672W        W15899   5.775  22.854   1.395
50673W        W15900  42.306  31.992   4.544
50674W        W15901  43.323  31.555  10.957
50675W        W15902  10.643  23.410  12.210
50676W        W15903  39.315  11.600  12.444
50677W        W15904  30.900  28.437   2.225
50678W        W15905   4.971  10.178   4.187
50679W        W15906  16.857  38.474  13.328
50680W        W15907  43.930  40.833  13.113
50681W        W15908  30.178  27.891  12.655
50682W        W15909  43.525  13.309  14.352
50683W        W15910  36.162   2.394   1.098
50684W        W15911   0.817  43.977  14.784
50685W        W15912  22.373   3.824  11.931
50686W        W15913  17.801  24.515   0.594
50687W        W15914  36.881  10.308   0.753
50688W        W15915  28.516   2.253   1.309
50689W        W15916   7.004  11.105   3.185
50690W        W15917  37.906  20.770   3.855
50691W        W15918  39.307  13.666  14.464
50692W        W15919  30.983   5.612   1.896
50693W        W15920   5.515  14.925   5.330
50694W        W15921  13.880  23.167  12.292
50695W        W15922  18.284  16.747   0.551
50696W        W15923  32.118   2.407  12.942
50697W        W15924  28.875   5.292  12.606
50698W        W15925  22.286  41.276   3.642
50699W        W15926  26.503  23.471  11.929
50700W        W15927  29.721   1.769  13.451
50701W        W15928  43.262  30.275   0.479
50702W        W15929   3.354  43.920  14.341
50703W        W15930  38.270  44.054  14.474
50704W        W15931  21.018  38.381   1.289
50705W        W15932  35.465  32.172   3.119
50706W        W15933   9.953  13.635   1.326
50707W        W15934   7.364  17.188   0.761
50708W        W15935  44.531   6.465  14.739
50709W        W15936  36.820   8.439   1.885
50710W        W15937  31.144  33.181  12.161
50711W        W15938  41.499   8.930  13.041
50712W        W15939   0.706  23.249   3.734
50713W        W15940  32.400  12.817  10.266
50714W        W15941  28.987   8.079  13.675
50715W        W15942  42.332  14.723   4.576
50716W        W15943  40.748  27.108   4.557
50717W        W15944   0.079  35.362  11.802
50718W        W15945  41.915  41.838  14.288
50719W        W15946  12.787   3.686   0.813
50720W        W15947  26.243  35.412   0.457
50721W        W15948  15.287  42.503  12.169
50722W        W15949  28.051   3.336   5.048
50723W        W15950   8.597  36.336   1.475
50724W        W15951  40.502   3.805  13.055
50725W        W15952   1.777  36.091  12.347
50726W        W15953  10.286   2.175   1.226
50727W        W15954   5.473  20.371   0.507
50728W        W15955   3.431  38.863  13.031
50729W        W15956  33.550  38.806   4.612
50730W        W15957  15.912  23.400  14.705
50731W        W15958  27.034   3.348   1.609
50732W        W15959  43.868  33.636  13.932
50733W        W15960  41.549   7.661  11.227
50734W        W15961  17.014  26.617  11.126
50735W        W15962   2.183  17.181   0.694
50736W        W15963  15.359  36.100   2.715
50737W        W15964  32.180  40.962   4.090
50738W        W15965  39.969  39.424  14.238
50739W        W15966  21.149  38.955  13.454
50740W        W15967   1.739  41.370   0.286
50741W        W15968  34.913  36.045  12.329
50742W        W15969  27.055   6.269  14.740
50743W        W15970  27.622  23.394   1.791
50744W        W15971  33.340  27.194   3.573
50745W        W15972  18.558   0.552   4.953
50746W        W15973   6.657  27.662  14.316
50747W        W15974  13.220   4.447  11.544
50748W        W15975  32.065  39.553   4.250
50749W        W15976  33.136  21.954   2.309
50750W        W15977  44.391  37.384  13.424
50751W        W15978  35.161   3.245  10.259
50752W        W15979  17.695   0.272   1.917
50753W        W15980   3.957   9.159   1.304
50754W        W15981  34.950  14.958  10.630
50755W        W15982  42.795  35.973   0.328
50756W        W15983   1.023   9.461  10.962
50757W        W15984  10.890  34.839  13.895
50758W        W15985  12.071  25.543   3.647
50759W        W15986   9.035   6.568  11.981
50760W        W15987   6.229  43.453  12.514
50761W        W15988  12.709  33.423  11.135
50762W        W15989  35.721  26.655  13.082
50763W        W15990  26.954  41.754  12.443
50764W        W15991  32.975  29.177  11.576
50765W        W15992  16.742  21.506   3.187
50766W        W15993   9.659  18.156   3.344
50767W        W15994  39.853  32.167   4.164
50768W        W15995  11.518  13.751   0.368
50769W        W15996  21.522  30.937   0.503
50770W        W15997   2.216  30.077   3.651
50771W        W15998  10.761  42.794  11.613
50772W        W15999  43.782  36.090   2.353
50773W        W16000   4.373  17.241   4.182
50774W        W16001   7.917  41.358  11.609
50775W        W16002  10.383   0.835  10.357
50776W        W16003  41.899  25.405   1.862
50777W        W16004  25.482  44.282  11.687
50778W        W16005  21.626  27.556  14.878
50779W        W16006   4.786  28.521   4.465
50780W        W16007  10.154  36.675  14.914
50781W        W16008   7.098  13.883  14.708
50782W        W16009  27.992  13.362   2.802
50783W        W16010  42.645  35.680   3.608
50784W        W16011   4.301  37.890   1.659
50785W        W16012  23.203  36.474  12.120
50786W        W16013  27.455  37.953  13.449
50787W        W16014  19.644  33.757   4.299
50788W        W16015  28.578  28.592   3.191
50789W        W16016   3.877  34.454   2.349
50790W        W16017  20.656  29.702  14.760
50791W        W16018  39.227  23.101  10.483
50792W        W16019  21.545  13.820  13.909
50793W        W16020  39.900   7.074   5.326
50794W        W16021   8.871  36.085   0.183
50795W        W16022   3.825  19.960  14.530
50796W        W16023  42.274  32.372   0.202
50797W        W16024  14.090  12.395   3.178
50798W        W16025  44.845  19.683  13.454
50799W        W16026   2.517  11.346  12.143
50800W        W16027  22.442   8.173  13.900
50801W        W16028  39.814  35.126  13.426
50802W        W16029  21.127  13.164  13.373
50803W        W16030  22.962   7.057   3.665
50804W        W16031  28.598  15.358  13.463
50805W        W16032   8.353  17.759   1.670
50806W        W16033  26.185   4.683  14.555
50807W        W16034   3.992   8.686  14.785
50808W        W16035  43.259  11.134  12.699
50809W        W16036  15.801  40.578  11.506
50810W        W16037   3.186  19.007  12.507
50811W        W16038  21.346   6.302   1.856
50812W        W16039  21.711   3.932   4.511
50813W        W16040   4.228  10.683   1.422
50814W        W16041   1.363   3.122   1.626
50815W        W16042  15.057  10.254   2.090
50816W        W16043  35.486  35.391   3.622
50817W        W16044  32.703  43.344  11.042
50818W        W16045  26.487   2.726  14.652
50819W        W16046  19.250  13.292  12.109
50820W        W16047  38.850  25.829   2.581
50821W        W16048  32.691   0.302   1.315
50822W        W16049  38.549  23.104  12.102
50823W        W16050  41.876  24.140  10.752
50824W        W16051  22.464  42.678  12.526
50825W        W16052   1.246  20.339   5.510
50826W        W16053  29.492  38.159   2.605
50827W        W16054  31.647  32.873   4.057
50828W        W16055   2.940   1.779  10.643
50829W        W16056  11.202  24.975   4.216
50830W        W16057  33.986  27.197   4.734
50831W        W16058  17.113   7.284   0.456
50832W        W16059  17.695  19.741  12.359
50833W        W16060  31.503   3.866   1.861
50834W        W16061  38.544  23.124  13.393
50835W        W16062  13.067  25.951  11.159
50836W        W16063   5.234   2.934   4.587
50837W        W16064  31.995  24.060   0.323
50838W        W16065  23.975  29.515  12.909
50839W        W16066   4.677   7.380  11.694
50840W        W16067  26.940  38.376   3.609
50841W        W16068  25.405  22.524   3.705
50842W        W16069  38.819   0.348   0.323
50843W        W16070  20.226  37.100  12.225
50844W        W16071   3.888  13.297  11.258
50845W        W16072  35.448  33.103   3.942
50846W        W16073  43.344  17.930   2.344
50847W        W16074  44.359  38.393  12.657
50848W        W16075  25.225  11.007   4.624
50849W        W16076  24.946   8.696  10.724
50850W        W16077   4.249  19.127   1.479
50851W        W16078  27.923  13.850  10.736
50852W        W16079  18.530  20.256   0.998
50853W        W16080   1.866  41.886  11.143
50854W        W16081  26.452  10.523  10.756
50855W        W16082   1.317  41.818   4.637
50856W        W16083   7.420  33.828   4.459
50857W        W16084  21.397  20.776   3.825
50858W        W16085  33.173  30.570  13.832
50859W        W16086  42.269  27.536  10.788
50860W        W16087  16.588  40.049  12.540
50861W        W16088   7.430  11.241  13.106
50862W        W16089  33.437  23.801  11.571
50863W        W16090  27.895  37.269  13.270
50864W        W16091   9.663   6.464  12.907
50865W        W16092   1.807   7.263   4.323
50866W        W16093  39.402  19.672   4.338
50867W        W16094  17.132  39.541   4.099
50868W        W16095  29.085  32.212  13.442
50869W        W16096  39.544  31.662   2.818
50870W        W16097  11.921  11.736   5.077
50871W        W16098  13.303  16.008   3.175
50872W        W16099  42.034   2.865   2.363
50873W        W16100  11.063  11.307   2.552
50874W        W16101  14.176  10.181   0.437
50875W        W16102   4.022  25.499  14.479
50876W        W16103  19.464  30.396   0.809
50877W        W16104  38.480  36.012  12.662
50878W        W16105  28.591  30.948  11.563
50879W        W16106   3.074  32.073   2.363
50880W        W16107   3.411  21.773   0.790
50881W        W16108  41.846  18.068   4.098
50882W        W16109  11.845  35.075   2.692
50883W        W16110  20.318  44.454  11.051
50884W        W16111  28.506  17.472   2.241
50885W        W16112   1.199   5.323   1.130
50886W        W16113  38.636  20.406  12.689
50887W        W16114  31.271  43.591  14.724
50888W        W16115  10.316  19.362  13.478
50889W        W16116  14.348   5.868  14.985
50890W        W16117   7.642  17.615   3.276
50891W        W16118  28.018  43.011   4.923
50892W        W16119  13.528  41.444  12.212
50893W        W16120  14.556  25.473   0.479
50894W        W16121  43.082  35.898   1.441
50895W        W16122  22.741  38.577   1.456
50896W        W16123   9.161  42.763   1.431
50897W        W16124  22.878  29.793   0.381
50898W        W16125  26.876  37.985  13.440
50899W        W16126  35.338  35.547   2.193
50900W        W16127   0.744  16.372   1.233
50901W        W16128  22.690   8.969   3.820
50902W        W16129   2.494  32.717   2.620
50903W        W16130  22.735   1.202   1.707
50904W        W16131  32.020  21.888   3.701
50905W        W16132  24.934  34.959  13.427
50906W        W16133   0.773   6.607  12.235
50907W        W16134  12.827  36.822   1.486
50908W        W16135  25.304  32.984  12.863
50909W        W16136  18.820  44.316   4.041
50910W        W16137   1.697  21.532   1.756
50911W        W16138   4.226  15.936   4.750
50912W        W16139  30.629  13.345  14.566
50913W        W16140   3.449  21.749   1.619
50914W        W16141  28.108  26.453   4.934
50915W        W16142   4.215   7.538   3.307
50916W        W16143   4.820   5.307  10.705
50917W        W16144   1.619  26.686   4.329
50918W        W16145  31.158  33.530   4.298
50919W        W16146   4.843   0.198  13.975
50920W        W16147  18.089  13.651  14.545
50921W        W16148   2.352  18.597   0.044
50922W        W16149  19.369   9.125  14.123
50923W        W16150   2.143  39.532   4.320
50924W        W16151  27.522   9.156  13.134
50925W        W16152  26.926  22.607  12.139
50926W        W16153  17.123  10.410   1.283
50927W        W16154  23.507  27.966   4.773
50928W        W16155   7.691  31.140   1.948
50929W        W16156   3.257  13.221   1.789
50930W        W16157  43.243  36.850  11.154
50931W        W16158  43.818  41.447   0.997
50932W        W16159  10.241  29.523  13.968
50933W        W16160  29.040   0.395  12.090
50934W        W16161   9.042  32.046   3.357
50935W        W16162  20.713  34.986   2.863
50936W        W16163  44.238  33.163  11.570
50937W        W16164  17.352  10.148  13.387
50938W        W16165  21.378   4.107  11.689
50939W        W16166  12.733  17.565  13.880
50940W        W16167   6.190  33.011   4.920
50941W        W16168  21.158  28.675  10.632
50942W        W16169   3.049   2.757  12.438
50943W        W16170  16.762  39.589  13.951
50944W        W16171  27.161   5.246  11.048
50945W        W16172  23.489  21.601  14.313
50946W        W16173  42.349   0.938   2.121
50947W        W16174  42.083  15.042   2.993
50948W        W16175  24.654   4.928   3.674
50949W        W16176   4.924  21.572   4.555
50950W        W16177   7.681   5.143   1.902
50951W        W16178  24.077  30.611   2.201
50952W        W16179  41.850  12.676   3.776
50953W        W16180   5.902   5.661  13.889
50954W        W16181  41.818  35.454  14.854
50955W        W16182   3.909  44.385   0.928
50956W        W16183  39.056  23.898   1.290
50957W        W16184   8.571  39.663   3.289
50958W        W16185   8.223  28.964  14.476
50959W        W16186  29.991  20.569   0.815
50960W        W16187  40.761  32.364   0.925
50961W        W16188   3.769  38.113  12.926
50962W        W16189   9.193  44.258   2.910
50963W        W16190  30.624  11.183  12.060
50964W        W16191   7.847  13.228  11.675
50965W        W16192  33.527  17.293  10.531
50966W        W16193  21.985  44.414   3.660
50967W        W16194  44.275  31.116   2.897
50968W        W16195  37.018  23.723   1.136
50969W        W16196  21.580  34.472   1.840
50970W        W16197  29.336   4.904  13.435
50971W        W16198  15.400  11.476   0.893
50972W        W16199  13.722  29.618  12.163
50973W        W16200  31.894  14.351  10.665
50974W        W16201  16.238  41.845   3.071
50975W        W16202   0.213  42.328   2.354
50976W        W16203  35.531  19.617   2.416
50977W        W16204  42.935   2.014  13.015
50978W        W16205  22.194  14.824   1.018
50979W        W16206   7.119   8.233  13.727
50980W        W16207  39.713   9.126  11.946
50981W        W16208   7.497  24.867   0.210
50982W        W16209  32.018  15.174   4.114
50983W        W16210  11.054  42.470   3.432
50984W        W16211  36.302  11.837   4.267
50985W        W16212  41.817  24.922  14.421
50986W        W16213  29.261   3.785  14.352
50987W        W16214  27.692  24.671   2.113
50988W        W16215   0.019   3.123   0.790
50989W        W16216  15.023  23.704  12.072
50990W        W16217  12.997  16.393  14.123
50991W        W16218  44.240  19.448  11.152
50992W        W16219  18.167  27.991  12.582
50993W        W16220  22.237  32.906   4.287
50994W        W16221  44.863  32.747   1.787
50995W        W16222  29.964  24.250   1.227
50996W        W16223  29.026  23.120  14.091
50997W        W16224  16.097  25.098   1.758
50998W        W16225   6.490  38.324  13.905
50999W        W16226  35.493  28.647   3.672
51000W        W16227   2.936  11.736   4.184
51001W        W16228  36.789   5.405  11.581
51002W        W16229  41.691  10.597  13.506
51003W        W16230  39.125   4.792   0.605
51004W        W16231  20.820  26.218   0.351
51005W        W16232  33.396  24.152  14.596
51006W        W16233  34.354   9.085  11.226
51007W        W16234  11.871   4.060   4.240
51008W        W16235  35.165  33.619  14.466
51009W        W16236   3.936  10.374  10.893
51010W        W16237   5.503  18.241   2.002
51011W        W16238  17.209  38.362   1.177
51012W        W16239  18.121  12.647   0.544
51013W        W16240  26.247  41.249   4.469
51014W        W16241  43.887   9.156   4.325
51015W        W16242  24.755  11.629  14.845
51016W        W16243   1.496  29.081   0.439
51017W        W16244  35.373  23.129  10.429
51018W        W16245  11.327  30.003   9.818
51019W        W16246  39.138  40.722  12.654
51020W        W16247   7.666  11.635   3.210
51021W        W16248  11.930  34.199  10.750
51022W        W16249  10.724  11.966   4.283
51023W        W16250   5.701  44.660   3.757
51024W        W16251  43.328  18.353  12.368
51025W        W16252   6.702  25.104  12.061
51026W        W16253  10.762   1.399   0.444
51027W        W16254  28.670  32.222  11.002
51028W        W16255  20.734  38.529   2.648
51029W        W16256  43.161  24.604   2.368
51030W        W16257  17.625  41.160  12.143
51031W        W16258  44.454   2.833   4.898
51032W        W16259  31.341  26.240   0.637
51033W        W16260  12.701   3.487  13.574
51034W        W16261  34.318   0.855   2.938
51035W        W16262  25.798  18.603   2.774
51036W        W16263  31.641  26.134  14.661
51037W        W16264  36.349   8.348  13.425
51038W        W16265  11.414  38.329  14.925
51039W        W16266   9.523  30.074  12.754
51040W        W16267  11.987  11.066   1.501
51041W        W16268  12.598  17.792  13.432
51042W        W16269  42.322  31.174  14.819
51043W        W16270  26.994  29.085   2.579
51044W        W16271  35.448   9.872   3.192
51045W        W16272  17.200  10.906  13.819
51046W        W16273  40.913  10.829   0.175
51047W        W16274  17.164   1.541  12.041
51048W        W16275  36.034   6.577  10.206
51049W        W16276  29.348  44.428   3.759
51050W        W16277   3.683  38.304  11.919
51051W        W16278   9.320   8.622   1.136
51052W        W16279  27.935  32.547  11.067
51053W        W16280  26.493   7.918  11.493
51054W        W16281  33.018   9.629  12.874
51055W        W16282   9.729  23.305   4.653
51056W        W16283  39.535  14.312  11.695
51057W        W16284  11.415  12.567  12.985
51058W        W16285   9.990  10.670   0.918
51059W        W16286  15.821  22.727  12.502
51060W        W16287  39.204   8.274   3.135
51061W        W16288  25.939  22.453  12.868
51062W        W16289  16.233  20.943  12.154
51063W        W16290   0.264  33.804  12.200
51064W        W16291  44.481  11.471   3.601
51065W        W16292  31.554   0.370  10.761
51066W        W16293  37.447   6.433   2.188
51067W        W16294  23.052  14.102   1.781
51068W        W16295  11.429  24.145   4.247
51069W        W16296  31.465  42.998  11.988
51070W        W16297  24.935  26.263   1.712
51071W        W16298  30.554  44.534   4.023
51072W        W16299  18.651  42.469   1.132
51073W        W16300   7.958  44.039  11.145
51074W        W16301   8.708   8.123   3.742
51075W        W16302  14.695  29.665  10.762
51076W        W16303  11.134  15.762   1.492
51077W        W16304   0.723  26.132   1.342
51078W        W16305  17.895  38.835   4.499
51079W        W16306  33.128  29.447   4.228
51080W        W16307  30.410  12.774  12.813
51081W        W16308  24.484  23.258  10.446
51082W        W16309  31.834   6.239  11.633
51083W        W16310   6.639  12.729  13.860
51084W        W16311  31.560  40.690  13.090
51085W        W16312  26.205  34.711  11.227
51086W        W16313  31.346  28.171   2.924
51087W        W16314  26.696  38.950  12.938
51088W        W16315  16.259  43.378   2.248
51089W        W16316  29.058   9.345   3.697
51090W        W16317  27.291  15.077  13.734
51091W        W16318  25.606  10.378   3.204
51092W        W16319   9.077  26.743  10.862
51093W        W16320   4.201  34.679  10.923
51094W        W16321  21.075  14.332   1.736
51095W        W16322  16.409  20.069   2.353
51096W        W16323  38.720  29.582  12.206
51097W        W16324   6.114  20.042   2.315
51098W        W16325  39.815  22.398   2.929
51099W        W16326  38.835  28.692  14.742
51100W        W16327  39.460   3.798  10.503
51101W        W16328  15.559  10.068  13.855
51102W        W16329  14.054  28.158   2.223
51103W        W16330  25.687   3.777  14.961
51104W        W16331  35.376   2.698  11.773
51105W        W16332  22.295  34.888   2.070
51106W        W16333  35.640  34.635  11.085
51107W        W16334  21.782  30.456   5.059
51108W        W16335  13.513  14.398  12.888
51109W        W16336  27.525  20.304  13.050
51110W        W16337  43.769  31.106  12.081
51111W        W16338  23.156  22.977  14.396
51112W        W16339  14.815  42.849   4.653
51113W        W16340  34.659  19.036   1.357
51114W        W16341   0.887  21.998   0.719
51115W        W16342  33.065  21.473   2.952
51116W        W16343  22.314  44.687  11.489
51117W        W16344  40.353  36.042  12.166
51118W        W16345  27.396  11.844   4.158
51119W        W16346  26.013  22.797  12.436
51120W        W16347  43.861  34.500   2.924
51121W        W16348   7.180  19.632  13.770
51122W        W16349  25.713   7.254   1.227
51123W        W16350  39.991  35.642   3.325
51124W        W16351  20.728  18.223   4.119
51125W        W16352  37.383  32.520   4.610
51126W        W16353  40.549   6.636   0.846
51127W        W16354  35.528  16.294  10.670
51128W        W16355   6.151  36.134   2.176
51129W        W16356  10.722  21.165   3.329
51130W        W16357  34.327  42.599  13.549
51131W        W16358  24.386   9.155  11.160
51132W        W16359  32.631  15.730  13.903
51133W        W16360   1.717   1.956  11.141
51134W        W16361  23.092   1.695  12.084
51135W        W16362  38.847  16.081  13.727
51136W        W16363  18.478  26.158  12.832
51137W        W16364   2.214  23.957   3.792
51138W        W16365  28.526  28.163   0.303
51139W        W16366   7.851  28.019   2.610
51140W        W16367  28.553  21.876  13.906
51141W        W16368  22.507  38.887   1.042
51142W        W16369  43.046  17.542  11.798
51143W        W16370  20.118   7.598   1.786
51144W        W16371  32.162   1.777  13.452
51145W        W16372  17.862  37.052  13.849
51146W        W16373  40.024  24.798  13.519
51147W        W16374  18.214   8.596   2.212
51148W        W16375  33.102  21.260   0.830
51149W        W16376   2.326  32.520  12.034
51150W        W16377  27.478  18.962   0.864
51151W        W16378  39.795   2.017  14.886
51152W        W16379  24.638  31.395   0.369
51153W        W16380  11.677  38.463   3.584
51154W        W16381  42.600  14.754   3.682
51155W        W16382  12.060  17.640  10.777
51156W        W16383  10.194  19.048   0.882
51157W        W16384  22.813  40.914   2.340
51158W        W16385  32.119  34.634  14.381
51159W        W16386  23.150  37.738  12.446
51160W        W16387  24.115  12.435  12.015
51161W        W16388  38.638  20.352   1.005
51162W        W16389   9.857   9.891  11.842
51163W        W16390  16.277  12.621   0.413
51164W        W16391  42.411  29.387  12.010
51165W        W16392   1.193  37.342  14.995
51166W        W16393  27.778   5.978  12.534
51167W        W16394  19.397  34.007   1.270
51168W        W16395  12.371  15.243   0.355
51169W        W16396  26.751  14.018  13.100
51170W        W16397   8.373  27.497   1.091
51171W        W16398  30.287   8.622  12.956
51172W        W16399  13.732  39.813   3.705
51173W        W16400  10.216  23.220  13.964
51174W        W16401  20.322  36.510   2.223
51175W        W16402  23.093  26.515  13.010
51176W        W16403   3.908  19.343   0.165
51177W        W16404  14.964  34.310   1.582
51178W        W16405  13.401  23.035  12.141
51179W        W16406   1.380  13.026   4.097
51180W        W16407  11.652   4.460   1.839
51181W        W16408   8.727  23.464  14.929
51182W        W16409  28.582  39.742   0.275
51183W        W16410  42.955  18.152  14.458
51184W        W16411  25.550   4.657   2.321
51185W        W16412  31.790  14.854   3.785
51186W        W16413  33.468  13.351  12.687
51187W        W16414  18.705  23.865   4.333
51188W        W16415  31.983  25.520   0.719
51189W        W16416  17.185  20.056   1.164
51190W        W16417   3.968  35.339  14.242
51191W        W16418  18.184  43.077   0.371
51192W        W16419  44.829  22.433  10.254
51193W        W16420   8.887  27.971  10.682
51194W        W16421  36.989  29.596  10.729
51195W        W16422  39.633  41.875   3.040
51196W        W16423  23.310  12.094  11.750
51197W        W16424  40.315  21.911  14.794
51198W        W16425  15.661  26.623  13.148
51199W        W16426  36.056   1.361   0.348
51200W        W16427  27.635  28.946   4.657
51201W        W16428  35.892   3.089  13.018
51202W        W16429  20.234  26.604  13.100
51203W        W16430  13.146   0.005   3.068
51204W        W16431   1.759  23.698  14.155
51205W        W16432   5.288  27.641  11.441
51206W        W16433  36.079  11.661   1.846
51207W        W16434  22.445  36.671   1.324
51208W        W16435  23.561  26.650  13.344
51209W        W16436   1.626   4.056   4.890
51210W        W16437  25.021  12.789   4.349
51211W        W16438  17.127   9.896  10.980
51212W        W16439  31.479  15.664  11.630
51213W        W16440  44.536  32.360   4.671
51214W        W16441   3.985  33.938   0.399
51215W        W16442  35.998  31.844  14.037
51216W        W16443   9.439  34.342  11.675
51217W        W16444  36.100  43.207  13.436
51218W        W16445   4.442  32.972  13.023
51219W        W16446  13.645  15.142   2.360
51220W        W16447  36.415  31.673   4.014
51221W        W16448  28.158  10.171   2.157
51222W        W16449   3.772  32.099  12.435
51223W        W16450  12.470   5.425  14.516
51224W        W16451  41.272  36.022   0.256
51225W        W16452   8.243  20.544   3.879
51226W        W16453   9.120  25.510  13.070
51227W        W16454  39.238  31.602   4.112
51228W        W16455  24.992  37.559  14.225
51229W        W16456  25.249  39.799  11.444
51230W        W16457  10.756  21.017  13.911
51231W        W16458  38.832  44.862  14.083
51232W        W16459  11.562  25.998   1.735
51233W        W16460  23.895  43.886  11.319
51234W        W16461  27.274  25.638  12.027
51235W        W16462   7.074  41.588  11.924
51236W        W16463  23.403  31.071  12.803
51237W        W16464  18.559  26.194  13.393
51238W        W16465   3.001   5.445   2.961
51239W        W16466  31.456  38.517   4.149
51240W        W16467  17.321  30.475  11.973
51241W        W16468   2.730  31.872  12.367
51242W        W16469  16.172  35.870  14.977
51243W        W16470  39.040  28.114   0.366
51244W        W16471   2.233   9.264   3.224
51245W        W16472  36.814  31.818  13.102
51246W        W16473  26.119  41.276   1.269
51247W        W16474  24.527   9.480   1.646
51248W        W16475  43.231  28.922  12.424
51249W        W16476  33.531  15.485   0.469
51250W        W16477  34.863  17.556  14.732
51251W        W16478  19.495  39.047  11.248
51252W        W16479  28.185  33.227   4.547
51253W        W16480  30.690  13.278   3.331
51254W        W16481  18.949  44.592   1.478
51255W        W16482   8.072  32.102  12.863
51256W        W16483  33.163  44.351   1.267
51257W        W16484  13.720  12.871   3.177
51258W        W16485  43.951  26.630  13.984
51259W        W16486   7.278  36.426  12.137
51260W        W16487  11.720  20.035   1.856
51261W        W16488  43.206  16.185  11.651
51262W        W16489  41.047  43.739  13.769
51263W        W16490   7.523  26.665  11.135
51264W        W16491  33.298  34.212   1.236
51265W        W16492   1.356   1.045   0.925
51266W        W16493  15.163  17.606   0.001
51267W        W16494   9.665   2.650  12.547
51268W        W16495  33.663  28.702  11.982
51269W        W16496  36.022  40.710   0.940
51270W        W16497  26.544  27.568   1.432
51271W        W16498   8.401   9.377   1.283
51272W        W16499  13.902  14.114   4.570
51273W        W16500  41.282   3.286   4.342
51274W        W16501  35.414  10.043   0.445
51275W        W16502  26.952  25.585   3.604
51276W        W16503  38.212  32.469  14.964
51277W        W16504   8.742  37.272   2.820
51278W        W16505   5.015  31.627  12.410
51279W        W16506   5.498  23.235   0.178
51280W        W16507  31.672   3.376   2.748
51281W        W16508  22.069  25.770   4.820
51282W        W16509  33.423  37.405  14.476
51283W        W16510  30.647   4.699  14.211
51284W        W16511  24.904   7.589  12.472
51285W        W16512  24.092  44.806  10.667
51286W        W16513  22.380  39.325  11.595
51287W        W16514  14.928  24.484  12.923
51288W        W16515  24.236  15.958   0.623
51289W        W16516   2.332  33.893   4.575
51290W        W16517  22.095  32.553   4.799
51291W        W16518  15.680  44.492   3.252
51292W        W16519  13.357  38.863   3.574
51293W        W16520   8.176  43.064   3.769
51294W        W16521  28.887  40.441  10.206
51295W        W16522  33.006  20.541   0.032
51296W        W16523  33.907  28.734  14.821
51297W        W16524  27.542  28.564  13.280
51298W        W16525  44.344  27.049  11.744
51299W        W16526   7.187  18.267   1.229
51300W        W16527  14.460  40.878   3.595
51301W        W16528  44.833  44.859  10.617
51302W        W16529  21.824  41.979  11.658
51303W        W16530  12.198   1.175  11.734
51304W        W16531   3.902   9.295  12.908
51305W        W16532  21.801  35.015  12.053
51306W        W16533  36.377   0.020  11.647
51307W        W16534  41.408  37.108  12.880
51308W        W16535  10.331   2.027  12.521
51309W        W16536  28.386  38.289   0.410
51310W        W16537  16.489  32.006   0.966
51311W        W16538  10.688  19.838   4.953
51312W        W16539  35.990  16.415  14.252
51313W        W16540  44.516  39.821  14.724
51314W        W16541  33.235  38.532   2.021
51315W        W16542   8.866  27.419   2.675
51316W        W16543   1.514   8.793   0.205
51317W        W16544  44.347  25.714   1.879
51318W        W16545  25.841  36.401   2.416
51319W        W16546  14.705   6.899  13.452
51320W        W16547  35.125  39.621   9.722
51321W        W16548  11.822  37.365  13.441
51322W        W16549  24.913  20.508   1.477
51323W        W16550  30.973  38.348  10.464
51324W        W16551  14.508  19.177   2.506
51325W        W16552   4.620   0.407   4.079
51326W        W16553  43.443  44.970  13.274
51327W        W16554   3.540   5.977   1.264
51328W        W16555   7.596   0.491   1.335
51329W        W16556   9.691  18.004  14.467
51330W        W16557  43.044  40.397   3.994
51331W        W16558   4.318  32.392   1.192
51332W        W16559  23.508  19.275  11.288
51333W        W16560   6.786   5.467   2.921
51334W        W16561  19.441  13.114  12.541
51335W        W16562   6.753   2.970  10.000
51336W        W16563  21.766  12.846  10.844
51337W        W16564  30.967  30.114  10.505
51338W        W16565  35.072   3.190  14.814
51339W        W16566  41.386  28.035  13.965
51340W        W16567  28.727  33.208  13.969
51341W        W16568  39.040  11.854   3.740
51342W        W16569  34.833   5.407   0.978
51343W        W16570  44.692   6.278  11.618
51344W        W16571  26.524   7.124  12.072
51345W        W16572  12.196  40.060  13.059
51346W        W16573   0.059   4.389   0.736
51347W        W16574   3.823  40.056  13.125
51348W        W16575  25.169  11.662  13.522
51349W        W16576  19.490  28.934  13.103
51350W        W16577  43.415  33.675  13.113
51351W        W16578  28.854  20.463  12.522
51352W        W16579  18.561   9.435  10.724
51353W        W16580   9.691   3.731   1.763
51354W        W16581  38.080  32.163   3.563
51355W        W16582   9.187  17.673   4.600
51356W        W16583  34.673  36.368  13.111
51357W        W16584  15.317  18.828  11.230
51358W        W16585   3.344  25.723   1.260
51359W        W16586  13.236  10.342   4.628
51360W        W16587  23.092   0.995  14.861
51361W        W16588  11.562  16.114  13.876
51362W        W16589  44.705  24.030   1.609
51363W        W16590   4.429  21.193  11.974
51364W        W16591  34.145  23.126  12.560
51365W        W16592  26.088  42.262   4.629
51366W        W16593  18.241   6.251   0.082
51367W        W16594  42.998  19.000  13.303
51368W        W16595   4.995   1.575  12.880
51369W        W16596   5.378  38.151   4.180
51370W        W16597  11.545   8.321   1.417
51371W        W16598  31.934  27.300   1.722
51372W        W16599   0.120  19.970  12.133
51373W        W16600  38.912  25.298   1.758
51374W        W16601  38.909  33.954   1.643
51375W        W16602  27.608  28.441   4.591
51376W        W16603  30.084  12.220  11.095
51377W        W16604  31.860  34.255  12.091
51378W        W16605   2.532  36.475   2.790
51379W        W16606  44.843  24.082  10.992
51380W        W16607  41.619  30.720  10.612
51381W        W16608   8.962  31.045   3.843
51382W        W16609  32.107  26.443   3.018
51383W        W16610  28.011   7.968   1.647
51384W        W16611  12.699  11.148   0.940
51385W        W16612  19.576  33.473   4.714
51386W        W16613   8.260  37.889  11.020
51387W        W16614  37.316  42.250  13.537
51388W        W16615  15.649  30.163   3.049
51389W        W16616  17.117  13.046  12.138
51390W        W16617  43.048  25.234   3.863
51391W        W16618   3.378  32.675   2.277
51392W        W16619  40.892  20.509  12.769
51393W        W16620  44.837   2.072   0.016
51394W        W16621  12.315   7.396   0.257
51395W        W16622  29.448  23.804   3.335
51396W        W16623  22.520   4.794  13.001
51397W        W16624   1.705  10.282   0.518
51398W        W16625   8.677  26.961  10.613
51399W        W16626  38.323   4.329  13.418
51400W        W16627  18.698  18.349  13.950
51401W        W16628  28.014  28.478  12.097
51402W        W16629  10.747  18.158   2.155
51403W        W16630  36.335  32.029  14.429
51404W        W16631  39.664  36.393   2.750
51405W        W16632  44.025   0.830   4.508
51406W        W16633  32.719  43.176  14.069
51407W        W16634  38.372  13.218   4.612
51408W        W16635  12.838  29.490  11.563
51409W        W16636   5.455  29.927  14.260
51410W        W16637  34.610  40.976   2.305
51411W        W16638   2.710  28.075   1.414
51412W        W16639  16.770  25.094   3.860
51413W        W16640  37.034  30.104   3.044
51414W        W16641  20.328   8.657  11.659
51415W        W16642  30.124  30.050   0.877
51416W        W16643  31.113  26.214   2.259
51417W        W16644   2.538   4.781   4.269
51418W        W16645   4.933  40.925   3.495
51419W        W16646  14.281  19.191   3.906
51420W        W16647  10.921  34.771  12.505
51421W        W16648  17.428   2.779  11.667
51422W        W16649  24.531  41.462   1.078
51423W        W16650  41.331  35.297  11.667
51424W        W16651  42.031   8.651   0.995
51425W        W16652  39.025  14.561  11.508
51426W        W16653  19.652  10.264   4.528
51427W        W16654  13.429  26.640   2.214
51428W        W16655  13.737   5.111  14.756
51429W        W16656  31.059  37.597   2.322
51430W        W16657  25.429  35.282   4.614
51431W        W16658  10.816  39.313  13.947
51432W        W16659  29.061  24.044   4.742
51433W        W16660   6.886   5.043   1.416
51434W        W16661  37.138  24.607   1.276
51435W        W16662  22.710  26.869   3.812
51436W        W16663  43.209   0.098   2.215
51437W        W16664  21.672  42.929  12.258
51438W        W16665  21.450  34.905  12.956
51439W        W16666  15.070  23.779  11.198
51440W        W16667   4.909  32.649  13.269
51441W        W16668  29.838  32.663   3.732
51442W        W16669  21.115   1.403  13.635
51443W        W16670  35.166  24.986  13.452
51444W        W16671   6.218  31.513  10.978
51445W        W16672  23.783   8.988   1.079
51446W        W16673  29.433  31.664  13.422
51447W        W16674  13.474  31.021   0.426
51448W        W16675  34.913   5.387   3.726
51449W        W16676  42.388   5.670  13.221
51450W        W16677  24.207  39.820   4.141
51451W        W16678  38.879   8.870   2.369
51452W        W16679  14.783  25.477   0.016
51453W        W16680  40.435   5.210   3.138
51454W        W16681  25.269  40.888  13.418
51455W        W16682  28.742   5.781   4.310
51456W        W16683  26.975  40.916   2.666
51457W        W16684  14.078  21.991   4.699
51458W        W16685   3.438  17.175  12.533
51459W        W16686   4.946   3.219  14.782
51460W        W16687  10.402  27.520   2.750
51461W        W16688  28.693  43.335  14.855
51462W        W16689   5.265  12.622  13.012
51463W        W16690  10.084  43.298  13.478
51464W        W16691  15.113   8.796  10.994
51465W        W16692  40.319  35.550   1.323
51466W        W16693  15.731  26.974  14.001
51467W        W16694  34.184  13.576  13.969
51468W        W16695  21.742  19.914   2.302
51469W        W16696  10.084  28.513   0.374
51470W        W16697  25.977  34.389   3.025
51471W        W16698  35.356   3.824   2.909
51472W        W16699   0.817  44.367   0.361
51473W        W16700  43.841   0.330  12.149
51474W        W16701  12.717  31.646  14.410
51475W        W16702  27.486   8.382   4.058
51476W        W16703  40.565   9.703  10.174
51477W        W16704  27.941  28.532   4.965
51478W        W16705  40.020   8.849  13.375
51479W        W16706  25.372  44.783  11.082
51480W        W16707  11.486  44.274   2.823
51481W        W16708   9.251   2.351  12.718
51482W        W16709  44.197   9.192   1.954
51483W        W16710  30.708  27.871   0.860
51484W        W16711   5.831  13.610  11.677
51485W        W16712   0.699  25.640  13.573
51486W        W16713  26.761   1.251  12.577
51487W        W16714  37.454  42.373  12.056
51488W        W16715  42.587   6.127  11.985
51489W        W16716  25.268  14.155  10.665
51490W        W16717  29.102  43.756   3.674
51491W        W16718   0.892   8.475  13.143
51492W        W16719  22.637  20.296   0.866
51493W        W16720   1.329  33.186  13.594
51494W        W16721  36.594  22.129  13.973
51495W        W16722  13.836   3.209  14.404
51496W        W16723  27.381  13.199  12.838
51497W        W16724  35.017  28.911  12.820
51498W        W16725   6.367   2.182   4.897
51499W        W16726  36.344  39.586  11.550
51500W        W16727  17.585  38.590  12.851
51501W        W16728  37.672  30.072  13.485
51502W        W16729  22.568  38.814  13.813
51503W        W16730  30.010  10.699   2.128
51504W        W16731   2.236  11.544   4.174
51505W        W16732  31.052   5.162  11.116
51506W        W16733  40.020   7.498  11.725
51507W        W16734   4.544  32.181  14.474
51508W        W16735   6.417  21.572  13.956
51509W        W16736  26.558  19.537   2.167
51510W        W16737  36.077  20.567  11.604
51511W        W16738  15.985  14.166  14.648
51512W        W16739   6.755  43.343   0.430
51513W        W16740  14.382  24.298   4.070
51514W        W16741  24.346   9.795  11.624
51515W        W16742  11.010  16.583  11.673
51516W        W16743  27.796  25.697  11.090
51517W        W16744  43.440   4.454   0.260
51518W        W16745  33.612  14.731   2.781
51519W        W16746  27.361  39.762   4.144
51520W        W16747  30.084  14.928   1.094
51521W        W16748  13.860  19.527  12.991
51522W        W16749  28.226  31.755  12.376
51523W        W16750  21.298  28.602   3.321
51524W        W16751  40.881  11.534   2.586
51525W        W16752  36.455   1.551  11.534
51526W        W16753  41.355  24.408   2.347
51527W        W16754  41.538  15.818  12.984
51528W        W16755   9.610   1.722  11.271
51529W        W16756   3.760  16.711  13.435
51530W        W16757  39.179  39.073   4.144
51531W        W16758  29.305  14.367   2.122
51532W        W16759  35.391  37.972   1.881
51533W        W16760  14.280  37.894   4.383
51534W        W16761   9.068  31.828   4.766
51535W        W16762  32.487  17.053  13.030
51536W        W16763  10.527  24.267  11.076
51537W        W16764  13.444   9.916   4.861
51538W        W16765   2.375   3.701   2.728
51539W        W16766  39.362   7.294  13.426
51540W        W16767   0.843   7.125  12.124
51541W        W16768  41.097  35.153   2.248
51542W        W16769   3.402  33.869   1.870
51543W        W16770  14.914  35.590  11.820
51544W        W16771  36.827  12.307  10.749
51545W        W16772  39.447   0.804  12.970
51546W        W16773  26.705   2.024  12.084
51547W        W16774  41.126   2.977  13.042
51548W        W16775   1.017  19.632   0.533
51549W        W16776   8.319  10.627   4.395
51550W        W16777   4.712  30.030  14.050
51551W        W16778  17.717  29.565  14.686
51552W        W16779  37.864  42.830   3.692
51553W        W16780  35.444  23.055  11.381
51554W        W16781  29.435   2.800   3.724
51555W        W16782   8.922   8.360   0.913
51556W        W16783   0.322   8.013  12.415
51557W        W16784   0.853  12.090   3.236
51558W        W16785  20.189  40.057  11.536
51559W        W16786   1.549   7.943   2.736
51560W        W16787  27.068   5.227   1.146
51561W        W16788  36.053   3.840  12.408
51562W        W16789  40.507  33.511  10.059
51563W        W16790  14.177   8.224   3.235
51564W        W16791  17.546   8.728   3.134
51565W        W16792  33.574  36.585  13.026
51566W        W16793  34.876  17.850  14.304
51567W        W16794  13.198   5.084  11.262
51568W        W16795  13.025   6.359   0.397
51569W        W16796  42.550  14.626   1.233
51570W        W16797  19.599   6.754   2.723
51571W        W16798  38.587   3.264  14.101
51572W        W16799  27.420  23.509   0.867
51573W        W16800  42.848  13.337   0.716
51574W        W16801   3.642  39.913   2.761
51575W        W16802  14.062   9.584   4.059
51576W        W16803  16.547  27.507  12.948
51577W        W16804  12.642  16.497  13.753
51578W        W16805  41.702  41.801  11.663
51579W        W16806  14.599   0.921  13.634
51580W        W16807   4.013  36.442   1.677
51581W        W16808  22.939  37.472  13.492
51582W        W16809  18.343  24.080  14.544
51583W        W16810  27.421  28.143   2.423
51584W        W16811  22.145  39.758  13.776
51585W        W16812  10.467  12.675  11.556
51586W        W16813   2.248  11.650  14.760
51587W        W16814  43.147  38.415  11.122
51588W        W16815  12.912   6.561   3.109
51589W        W16816  21.730  38.349   0.964
51590W        W16817  35.275  36.283   0.847
51591W        W16818   3.767  15.711  12.046
51592W        W16819  17.146  11.446   4.913
51593W        W16820  29.974  18.001  14.802
51594W        W16821  11.198  21.525  13.349
51595W        W16822  37.572  31.927   2.830
51596W        W16823  10.015  43.069   2.676
51597W        W16824  15.619   7.346   3.835
51598W        W16825  16.495  21.373  14.850
51599W        W16826  42.033  26.937   3.200
51600W        W16827  15.196  10.324  12.070
51601W        W16828  25.399  34.003   1.935
51602W        W16829  12.806  18.361  11.680
51603W        W16830  13.326  43.076  13.359
51604W        W16831   7.879  35.868   1.872
51605W        W16832  33.734  34.543  12.612
51606W        W16833  26.441  24.056  14.350
51607W        W16834  14.542  25.020   0.107
51608W        W16835  38.715  19.215  13.425
51609W        W16836  35.847   4.432   0.693
51610W        W16837  42.532  31.607   1.440
51611W        W16838  22.706  21.025  12.437
51612W        W16839  17.758   1.280  10.632
51613W        W16840   0.459   6.473   1.854
51614W        W16841  16.610  11.992  12.681
51615W        W16842  37.330  40.660  12.807
51616W        W16843  23.647  44.684   4.960
51617W        W16844   2.950  43.573  12.553
51618W        W16845  38.127  14.724   4.726
51619W        W16846  43.988   1.745  12.827
51620W        W16847  32.544  17.754  10.686
51621W        W16848  13.647  38.030  13.891
51622W        W16849  23.130  37.815   4.388
51623W        W16850   5.360  32.790  13.035
51624W        W16851   1.474  22.353  12.248
51625W        W16852  29.007  37.940   2.658
51626W        W16853   2.367  26.606   0.815
51627W        W16854   3.327   1.425  10.646
51628W        W16855   7.067  13.277  11.010
51629W        W16856  25.498  38.025  13.367
51630W        W16857   0.583  22.507   4.582
51631W        W16858  20.101  31.500  13.406
51632W        W16859  32.214  14.711  12.582
51633W        W16860   4.960  14.086   1.442
51634W        W16861  40.443  37.064  14.144
51635W        W16862   4.783  25.652  12.023
51636W        W16863  33.149  42.807  14.908
51637W        W16864  36.547   4.693   2.692
51638W        W16865  36.837  35.850   0.839
51639W        W16866  32.339  25.437  11.694
51640W        W16867  32.092   7.816   0.363
51641W        W16868  44.723   7.180  14.952
51642W        W16869  32.839  25.961  14.325
51643W        W16870  17.828   4.456   2.170
51644W        W16871  13.866  34.391   0.678
51645W        W16872   6.563  43.634  13.138
51646W        W16873  44.269  17.303   3.337
51647W        W16874  36.404  38.534  12.805
51648W        W16875  13.253  29.455   4.931
51649W        W16876  16.387  38.484  12.108
51650W        W16877  44.961   2.667  10.724
51651W        W16878  12.689   0.909   2.345
51652W        W16879   6.286   0.231  10.231
51653W        W16880  15.424  30.168  14.740
51654W        W16881  32.862  18.465   1.336
51655W        W16882  32.442  27.070  13.411
51656W        W16883  38.880  30.152   1.471
51657W        W16884  44.778  43.569  11.222
51658W        W16885   8.253   8.627   0.862
51659W        W16886  14.343   9.141   0.629
51660W        W16887  42.479   5.769  11.213
51661W        W16888  23.697  31.521   4.546
51662W        W16889  24.845  44.562   1.889
51663W        W16890  27.142  20.579  10.739
51664W        W16891  31.879  16.322   0.914
51665W        W16892  41.274  41.986  14.994
51666W        W16893  31.931  25.317  12.131
51667W        W16894  39.950  43.041  14.551
51668W        W16895  36.790  27.944   3.702
51669W        W16896  35.455  37.267  14.782
51670W        W16897  10.393  42.356  11.645
51671W        W16898  38.065  18.102   4.084
51672W        W16899  29.165  43.330   1.892
51673W        W16900  25.620  22.241  10.651
51674W        W16901   9.333   4.235   1.297
51675W        W16902   2.859   2.206   0.441
51676W        W16903  14.191   1.838  12.606
51677W        W16904  24.987  32.557  12.132
51678W        W16905   4.603  26.229  12.460
51679W        W16906  20.106   3.126  11.128
51680W        W16907  19.969  41.550  11.637
51681W        W16908  34.495  42.393  12.039
51682W        W16909  29.284  26.962   1.838
51683W        W16910  39.056  14.651   0.347
51684W        W16911  25.385  35.147   0.387
51685W        W16912  36.909   3.049   1.256
51686W        W16913  30.037  12.220  10.224
51687W        W16914  17.000   1.954  11.165
51688W        W16915  33.803  26.284   5.071
51689W        W16916   7.409  34.405  13.956
51690W        W16917  24.617   3.654   1.187
51691W        W16918  34.477  24.899  14.984
51692W        W16919  27.515  24.820   0.747
51693W        W16920  35.215  25.241   1.399
51694W        W16921  37.335   4.892  14.833
51695W        W16922  24.779   3.830  12.420
51696W        W16923  15.226  29.693   1.280
51697W        W16924   4.970   5.131   2.779
51698W        W16925  20.509  15.650   0.677
51699W        W16926  30.128  44.525  10.859
51700W        W16927  43.637  44.251  11.514
51701W        W16928  12.810  13.033  12.312
51702W        W16929  39.320  28.955   4.530
51703W        W16930   2.762  27.054   0.210
51704W        W16931  25.245  11.503  10.885
51705W        W16932  37.762  40.875  13.570
51706W        W16933   3.994  34.170   4.453
51707W        W16934  20.527  25.094  14.539
51708W        W16935  19.487  14.108  12.312
51709W        W16936   0.294   1.460  13.083
51710W        W16937  39.551  20.638  11.028
51711W        W16938  25.461  42.339   3.361
51712W        W16939  19.687  18.314   4.667
51713W        W16940  16.063   4.935   9.743
51714W        W16941  38.516   2.418   4.591
51715W        W16942   6.482  39.635   1.649
51716W        W16943  17.748   0.910   2.545
51717W        W16944  40.625  39.967  14.229
51718W        W16945   3.143  40.762  10.719
51719W        W16946   5.044  35.596   2.938
51720W        W16947   3.967  25.201  11.461
51721W        W16948  18.647  20.715  14.475
51722W        W16949  22.911  10.721  12.733
51723W        W16950  35.592  18.978  10.731
51724W        W16951   8.788  31.484  11.718
51725W        W16952  43.215  23.897  12.597
51726W        W16953   2.795  18.729   3.135
51727W        W16954   4.024  29.105   3.635
51728W        W16955  40.678  34.308   2.689
51729W        W16956   7.469  25.554  12.011
51730W        W16957  35.039  35.545   2.912
51731W        W16958  32.070  31.733   0.364
51732W        W16959  15.908  11.949   1.272
51733W        W16960  34.296  35.821   1.369
51734W        W16961  10.122  44.077   3.773
51735W        W16962  13.645  31.621  14.353
51736W        W16963   8.724  16.335   5.390
51737W        W16964   7.789  12.773  14.534
51738W        W16965  16.621  26.870   5.061
51739W        W16966  42.084  28.123   4.203
51740W        W16967  18.607  32.219  11.185
51741W        W16968  26.771   6.894   4.374
51742W        W16969  17.132   1.496  13.869
51743W        W16970  37.408   2.294  12.844
51744W        W16971  21.055  29.865  12.954
51745W        W16972  34.379  24.086   4.871
51746W        W16973  28.026   3.238   1.930
51747W        W16974  11.772  32.583  12.863
51748W        W16975  30.711  10.419   1.127
51749W        W16976  24.905  20.009  12.188
51750W        W16977  13.044  44.960   0.351
51751W        W16978  14.906  30.309  14.958
51752W        W16979   5.018  42.991   4.558
51753W        W16980   2.902  23.777   3.103
51754W        W16981  26.628  14.112  14.945
51755W        W16982  42.176  44.849   1.341
51756W        W16983  32.667  34.335  14.944
51757W        W16984   7.456  36.585  12.608
51758W        W16985   6.212  32.111  13.510
51759W        W16986  40.909  16.371  10.397
51760W        W16987  24.192  17.334   2.200
51761W        W16988  43.222  30.526  14.423
51762W        W16989  31.100  32.830   3.259
51763W        W16990   1.319  28.914  14.518
51764W        W16991   7.598   1.189   1.483
51765W        W16992  26.927  26.943   1.899
51766W        W16993  25.701  39.471   2.736
51767W        W16994   3.991  38.991   2.092
51768W        W16995  23.995  35.870   3.225
51769W        W16996   5.100  11.880  13.641
51770W        W16997  15.838   0.793   3.656
51771W        W16998  35.094  43.702  12.073
51772W        W16999  35.371  32.482  13.069
51773W        W17000  23.157  38.480  10.697
51774W        W17001   6.724  43.896   2.148
51775W        W17002  24.690   2.233  13.331
51776W        W17003  18.671  13.006  12.014
51777W        W17004  12.438  14.612   4.117
51778W        W17005  43.731  25.473   0.853
51779W        W17006  41.725  43.211  11.080
51780W        W17007   6.442  38.610  14.352
51781W        W17008  15.543  32.046  14.073
51782W        W17009  19.295  42.157  11.509
51783W        W17010  38.919  30.365   0.637
51784W        W17011   9.178  26.204   3.287
51785W        W17012  38.782  12.700   2.746
51786W        W17013  24.527  13.029  11.292
51787W        W17014  12.835  13.365  10.960
51788W        W17015  40.110   0.475   3.505
51789W        W17016  37.785  41.850  10.729
51790W        W17017   3.742  30.101   2.158
51791W        W17018   6.985  14.835   0.081
51792W        W17019   6.860  12.870   0.824
51793W        W17020  40.538  35.853   2.648
51794W        W17021  32.121   2.243   4.523
51795W        W17022   3.304   9.865   4.569
51796W        W17023  19.540  16.068  11.952
51797W        W17024  21.897  14.863   1.437
51798W        W17025   5.773  34.083  14.957
51799W        W17026   1.418  15.296   2.273
51800W        W17027  31.064  21.254  10.747
51801W        W17028  12.088   0.316   2.686
51802W        W17029   2.025  16.247  13.835
51803W        W17030   6.946  21.386   0.796
51804W        W17031  16.308  18.319   1.782
51805W        W17032   7.183  32.926   4.491
51806W        W17033  15.598  26.634   0.988
51807W        W17034  11.270  13.400  10.656
51808W        W17035  20.537   5.768   1.773
51809W        W17036  42.835  12.810   2.402
51810W        W17037   2.843   4.844   1.155
51811W        W17038  43.092  19.338   1.315
51812W        W17039  25.763  12.134   2.799
51813W        W17040  25.236  34.149   1.453
51814W        W17041  13.082  34.940   0.892
51815W        W17042  16.244  40.810   4.315
51816W        W17043   5.356  25.124  12.121
51817W        W17044  42.887   8.341  12.189
51818W        W17045  10.360  25.515  14.587
51819W        W17046  17.083  24.028   4.582
51820W        W17047  16.409  25.485  13.155
51821W        W17048   4.404  24.637   0.261
51822W        W17049   5.593  12.578  13.962
51823W        W17050   8.953   4.741  11.311
51824W        W17051  22.926   9.798  10.528
51825W        W17052  28.950   2.439  11.367
51826W        W17053  36.356  26.117  11.620
51827W        W17054  20.223   8.489  12.949
51828W        W17055  43.915  16.171  12.965
51829W        W17056  31.424  29.690  11.957
51830W        W17057  31.935   9.781  11.451
51831W        W17058  17.640   1.515   3.322
51832W        W17059  14.627   7.728   0.413
51833W        W17060   5.682  21.107   0.024
51834W        W17061  23.585   5.292   3.015
51835W        W17062  39.817  23.703   3.612
51836W        W17063   4.892  15.201  12.898
51837W        W17064  12.178  27.269   2.196
51838W        W17065  30.149  27.774  12.158
51839W        W17066  28.083   6.991  11.367
51840W        W17067   2.857  19.222  11.111
51841W        W17068  43.829  40.099  12.602
51842W        W17069  28.131  26.113  11.947
51843W        W17070  11.807   9.033  13.077
51844W        W17071  39.000  22.808  13.089
51845W        W17072  43.823  21.670  10.313
51846W        W17073  34.454  11.355   2.109
51847W        W17074  32.361   0.458  13.192
51848W        W17075  28.531   7.329  12.194
51849W        W17076  23.990  30.227   1.391
51850W        W17077   3.383  32.994  13.368
51851W        W17078  17.118  25.454   3.180
51852W        W17079  30.031  44.468   0.408
51853W        W17080  23.594  21.094   2.431
51854W        W17081   4.414  28.867   4.554
51855W        W17082  44.906   9.775   0.685
51856W        W17083  39.063  10.784  12.001
51857W        W17084   6.427  25.585   0.909
51858W        W17085   0.560  25.995  14.373
51859W        W17086  14.407  33.939  12.321
51860W        W17087   9.302  28.076  10.972
51861W        W17088  34.119  12.339  13.410
51862W        W17089   6.413  13.846  14.288
51863W        W17090  24.225  38.918   0.400
51864W        W17091  25.121  18.073   4.856
51865W        W17092  41.102   1.125  12.274
51866W        W17093  15.923  15.185  12.493
51867W        W17094  22.177  35.299   2.356
51868W        W17095  39.521  11.883   0.836
51869W        W17096  30.526  18.747  12.515
51870W        W17097  13.743  27.666  13.090
51871W        W17098  20.051  11.143  13.072
51872W        W17099  33.694  31.120   2.863
51873W        W17100  16.354  43.208   3.218
51874W        W17101  10.157  25.069  12.456
51875W        W17102  42.385   6.180   2.146
51876W        W17103  24.532  22.523   3.654
51877W        W17104  40.241  39.568  11.613
51878W        W17105  23.779  33.184   2.108
51879W        W17106  34.661  41.344   2.653
51880W        W17107  13.697  13.327  11.497
51881W        W17108  16.127  24.016   3.763
51882W        W17109  35.632  41.802   1.687
51883W        W17110  14.592  29.128  11.700
51884W        W17111  43.488   1.338   1.944
51885W        W17112  32.119  40.492  14.037
51886W        W17113  14.179  27.905  12.877
51887W        W17114   5.626  38.843   1.247
51888W        W17115  30.327  35.087   0.858
51889W        W17116   6.233  43.907  12.826
51890W        W17117   1.956  39.350   1.705
51891W        W17118   6.161  39.116   2.800
51892W        W17119  17.103   5.402  11.199
51893W        W17120   6.353  10.274  11.251
51894W        W17121  43.786   4.990  11.944
51895W        W17122   8.435  25.703  10.972
51896W        W17123  40.016   2.993  11.127
51897W        W17124  17.261   7.577   1.366
51898W        W17125  43.441  29.834  12.712
51899W        W17126   4.065  11.600  13.825
51900W        W17127  19.168   1.170  11.561
51901W        W17128  34.641  24.888  11.442
51902W        W17129  27.158  34.591  13.410
51903W        W17130  30.609  17.188   1.712
51904W        W17131  21.045  11.636  13.004
51905W        W17132   7.716  20.722   1.625
51906W        W17133  13.646  15.585  13.561
51907W        W17134  10.775  19.240   2.238
51908W        W17135  13.634  35.752   2.343
51909W        W17136  33.236  37.562  13.982
51910W        W17137  43.571  28.999   2.145
51911W        W17138  19.357  44.906   1.350
51912W        W17139  41.011  35.421  12.052
51913W        W17140  34.326  34.684   2.415
51914W        W17141  30.476  13.858  11.936
51915W        W17142  32.950   5.937   3.062
51916W        W17143  38.298  31.188   4.162
51917W        W17144   7.124   3.037  11.500
51918W        W17145  38.043  24.793   1.941
51919W        W17146  32.421  34.463   2.647
51920W        W17147   1.449   9.146  10.741
51921W        W17148  38.396  26.642   3.498
51922W        W17149  42.558  19.205  13.505
51923W        W17150  16.973  18.748  14.810
51924W        W17151  14.992  24.958  12.023
51925W        W17152   7.788  13.363   0.814
51926W        W17153  43.676  39.536  14.353
51927W        W17154  24.839  22.618  12.033
51928W        W17155  42.387  14.484  13.791
51929W        W17156  23.027  26.748  11.598
51930W        W17157   5.134  20.674  13.558
51931W        W17158  12.571  15.718  12.432
51932W        W17159  39.853  12.828   1.800
51933W        W17160  29.383  13.485   0.479
51934W        W17161  43.892  15.048  14.922
51935W        W17162  19.040  28.163  10.821
51936W        W17163  38.751  10.942  11.602
51937W        W17164  17.939  18.550  10.855
51938W        W17165  26.080  43.048  13.244
51939W        W17166  26.811  16.102   1.220
51940W        W17167   5.413  26.794   1.717
51941W        W17168  10.616  30.437  11.522
51942W        W17169  29.563  30.976  14.373
51943W        W17170  43.284  30.597  11.478
51944W        W17171  24.664  42.309  10.496
51945W        W17172  22.494   7.334  11.525
51946W        W17173  22.501   8.655   1.408
51947W        W17174   3.320  16.798   4.277
51948W        W17175  26.479  34.186  10.533
51949W        W17176  18.573   0.626  14.961
51950W        W17177  12.579  21.599   3.357
51951W        W17178  33.512  18.487  13.826
51952W        W17179  23.208  40.005   0.272
51953W        W17180  43.267  41.254  11.502
51954W        W17181  42.921  28.497  12.467
51955W        W17182  34.148  41.229   2.453
51956W        W17183  36.931   7.732  14.497
51957W        W17184  25.956  11.640  12.195
51958W        W17185   2.781  10.705  11.562
51959W        W17186  26.210   6.671  11.539
51960W        W17187   2.321  25.550   4.709
51961W        W17188   1.741  37.538   1.269
51962W        W17189  22.776   3.295  14.036
51963W        W17190  35.927   7.782  11.136
51964W        W17191  17.023   3.904   2.445
51965W        W17192  11.164  23.279   0.403
51966W        W17193  14.826  33.927   4.163
51967W        W17194   2.939  10.552  12.019
51968W        W17195   3.310   2.943  11.123
51969W        W17196  43.020   9.358  11.919
51970W        W17197   0.211  11.110   4.047
51971W        W17198  35.961  22.070  13.128
51972W        W17199  25.540  32.827  14.803
51973W        W17200  38.483  32.864  10.156
51974W        W17201  28.221  29.427   2.787
51975W        W17202  44.205  32.730   0.830
51976W        W17203  15.454  16.053   1.262
51977W        W17204  27.991  40.895  14.401
51978W        W17205   4.269  10.546  12.104
51979W        W17206  18.494   8.673   4.043
51980W        W17207  43.907  23.471  13.911
51981W        W17208  34.837  13.668  11.171
51982W        W17209  25.613  38.346  10.737
51983W        W17210   1.993  36.141   3.637
51984W        W17211  29.470  39.582   1.925
51985W        W17212  15.215  10.951  13.850
51986W        W17213  11.907   7.753  14.768
51987W        W17214  16.272  18.637   4.667
51988W        W17215  33.372  10.412   1.817
51989W        W17216  38.084  38.072  13.531
51990W        W17217  31.935  24.681  12.968
51991W        W17218  20.227  36.487   4.927
51992W        W17219  17.090  19.550  11.076
51993W        W17220  14.259  29.607   4.683
51994W        W17221   0.233  10.900  11.186
51995W        W17222  25.976  14.299  12.852
51996W        W17223  31.662  43.941  12.953
51997W        W17224  43.857  22.823   3.348
51998W        W17225  32.165  33.674   4.583
51999W        W17226  32.862  23.468   3.187
52000W        W17227   5.838   1.726  10.453
52001W        W17228  18.505   0.201   3.372
52002W        W17229  36.127   3.333   0.712
52003W        W17230  40.911  12.429   4.257
52004W        W17231   8.306  23.980  14.788
52005W        W17232   8.167  35.840   2.352
52006W        W17233  43.321  38.440  12.913
52007W        W17234   2.025   2.202  13.410
52008W        W17235  38.708  11.405  10.232
52009W        W17236  24.886  24.881  11.608
52010W        W17237  19.999   7.135  13.104
52011W        W17238   2.972  32.983   2.315
52012W        W17239   1.356   7.144   3.645
52013W        W17240  19.120  10.112   4.549
52014W        W17241  25.032  35.559  11.622
52015W        W17242  22.035   1.543  14.925
52016W        W17243   2.225  35.006   0.865
52017W        W17244  26.942  21.824   0.697
52018W        W17245   8.619  31.069  10.558
52019W        W17246  20.948  32.474  13.865
52020W        W17247  35.452  36.868   4.318
52021W        W17248  20.595  27.471   0.338
52022W        W17249   4.468  43.210   3.357
52023W        W17250  39.016  29.139  14.979
52024W        W17251  35.159  32.591   3.096
52025W        W17252   7.212  38.352   0.660
52026W        W17253  14.154  10.579  14.326
52027W        W17254  35.080  21.198   0.863
52028W        W17255  42.767  20.349  13.425
52029W        W17256  41.495  12.587  11.429
52030W        W17257  26.984   5.409   1.616
52031W        W17258  14.246  31.469   1.875
52032W        W17259  33.935   7.014  10.737
52033W        W17260   0.655  16.257   1.767
52034W        W17261  35.635  37.559  11.594
52035W        W17262  12.359  10.717   0.255
52036W        W17263  43.397  44.791   3.139
52037W        W17264   1.059  29.982  14.500
52038W        W17265   4.194  30.230  10.264
52039W        W17266  39.425  44.671   4.633
52040W        W17267  25.271   4.284   4.097
52041W        W17268  24.518  16.977  10.796
52042W        W17269  20.501   3.856  13.821
52043W        W17270   0.905  36.982  14.738
52044W        W17271  33.224   4.881   3.117
52045W        W17272  13.816  15.882   4.481
52046W        W17273  26.105  22.019   4.612
52047W        W17274  41.950   8.033   3.681
52048W        W17275  43.763  28.995   2.825
52049W        W17276  17.583  40.295  12.770
52050W        W17277  33.072  10.780  14.947
52051W        W17278  35.002  24.242   0.116
52052W        W17279  35.562  13.240  11.153
52053W        W17280  11.352   0.944   1.808
52054W        W17281   7.877  30.986  11.648
52055W        W17282  42.483  16.057   0.731
52056W        W17283  36.626  23.041   0.864
52057W        W17284  42.319   0.382   1.823
52058W        W17285  28.417  32.663  10.989
52059W        W17286   3.249  25.935   3.179
52060W        W17287   9.670  39.447  14.528
52061W        W17288  15.519  18.070   1.345
52062W        W17289  32.543  26.991  11.939
52063W        W17290  18.914   1.274  13.527
52064W        W17291  10.324  16.784   4.498
52065W        W17292  16.294  10.207   0.879
52066W        W17293  16.263  17.729   1.915
52067W        W17294  41.498  44.506   1.861
52068W        W17295  36.915  42.717   1.671
52069W        W17296  37.385  36.848  13.401
52070W        W17297  31.022   2.926   3.178
52071W        W17298  35.551  43.562  14.009
52072W        W17299  40.467  17.757  13.473
52073W        W17300  21.726  31.314   1.900
52074W        W17301  33.887  30.558   0.097
52075W        W17302  21.118   1.084  12.112
52076W        W17303   9.820   5.237  11.505
52077W        W17304  24.505  34.178   1.971
52078W        W17305   4.933  31.358  11.999
52079W        W17306   3.349  24.474  13.463
52080W        W17307  26.103  30.548   3.652
52081W        W17308  12.264  43.160  14.320
52082W        W17309  41.430  39.112   2.845
52083W        W17310  14.639  26.446   0.101
52084W        W17311   5.044  13.722   4.445
52085W        W17312  32.280  35.340   4.172
52086W        W17313  16.687  43.389   4.183
52087W        W17314  14.528  27.998  12.036
52088W        W17315  40.427  40.278  10.380
52089W        W17316  15.652  39.235  13.521
52090W        W17317   7.417  12.070   3.131
52091W        W17318  27.999  41.919   3.630
52092W        W17319  33.972  16.741  10.886
52093W        W17320  14.401  22.026  14.342
52094W        W17321   7.320  26.211  13.926
52095W        W17322  12.595  36.841  14.743
52096W        W17323  39.500   1.639   0.827
52097W        W17324  29.267   9.888   2.852
52098W        W17325  40.760  44.671   2.433
52099W        W17326  13.820  29.520   2.088
52100W        W17327   7.808  11.672   2.342
52101W        W17328  34.408  12.116   1.756
52102W        W17329  21.540  10.784  10.461
52103W        W17330  17.191  42.761   0.395
52104W        W17331  28.036  15.988   3.712
52105W        W17332  32.564  10.785   2.099
52106W        W17333   6.281   1.179  13.103
52107W        W17334  37.416  19.769   0.358
52108W        W17335  33.382  21.421   1.237
52109W        W17336  16.332  13.209  13.772
52110W        W17337  43.659   6.831  13.799
52111W        W17338  27.718   4.378   2.206
52112W        W17339  15.767  12.441  12.588
52113W        W17340   4.296   7.171   4.113
52114W        W17341  36.980  12.036  11.164
52115W        W17342  29.504  41.011   3.421
52116W        W17343  18.634   3.904  13.480
52117W        W17344  12.180  33.958  14.771
52118W        W17345  41.265  20.007   1.378
52119W        W17346   0.977  21.271  14.721
52120W        W17347  26.772  34.984  13.450
52121W        W17348   1.438   4.072   3.151
52122W        W17349  22.754  20.269  14.347
52123W        W17350  32.687  37.002   0.410
52124W        W17351  41.053   0.693  11.934
52125W        W17352  24.070   3.567   0.382
52126W        W17353  20.250  30.147   3.739
52127W        W17354  33.039  24.774   3.616
52128W        W17355  34.284   0.503  12.555
52129W        W17356  42.267  25.058   0.247
52130W        W17357  30.386  28.970   1.682
52131W        W17358  19.200  44.777  10.730
52132W        W17359  25.172  38.564   2.741
52133W        W17360  11.826  26.805   2.897
52134W        W17361  38.349  18.070  13.411
52135W        W17362  15.733  36.576  11.379
52136W        W17363  32.405  17.683  10.194
52137W        W17364  16.379  16.559  10.972
52138W        W17365  30.373   7.769   4.078
52139W        W17366  35.438  18.582  12.801
52140W        W17367  31.176  21.040  11.217
52141W        W17368  28.741  40.399  13.665
52142W        W17369  17.886  32.136   3.700
52143W        W17370  15.241  35.757  14.417
52144W        W17371  35.053   2.668  14.393
52145W        W17372  10.954   7.780   3.824
52146W        W17373  23.377  27.973  14.874
52147W        W17374  42.281  26.705   2.772
52148W        W17375   6.383  32.952   2.457
52149W        W17376  23.501  28.505   1.684
52150W        W17377  36.898  33.406  13.772
52151W        W17378  18.284  28.983  14.022
52152W        W17379  21.287   9.374  10.644
52153W        W17380   7.226   8.731  14.476
52154W        W17381   1.988   1.812   3.403
52155W        W17382   8.703  10.211   0.767
52156W        W17383   4.292  43.317  12.881
52157W        W17384  29.953  28.222   1.710
52158W        W17385  38.907  14.799  11.968
52159W        W17386  43.526  31.939   0.834
52160W        W17387   8.648  34.036   0.882
52161W        W17388  23.474   0.729   0.457
52162W        W17389  30.857  20.145  10.740
52163W        W17390   7.615  44.980   1.289
52164W        W17391  10.177  28.374  11.194
52165W        W17392  43.560  15.513  10.916
52166W        W17393  14.225  20.592  13.363
52167W        W17394   8.360  14.760  13.719
52168W        W17395  17.838  39.586   2.433
52169W        W17396  11.757  37.136  12.990
52170W        W17397   6.790  15.302   0.806
52171W        W17398  44.793  11.794   0.254
52172W        W17399  38.604  20.915   2.284
52173W        W17400  21.621   4.303   1.095
52174W        W17401   8.863   6.133   5.254
52175W        W17402  36.921   6.165  12.835
52176W        W17403   9.398   3.611  11.097
52177W        W17404  10.846   3.832   0.870
52178W        W17405   0.007  41.784   1.625
52179W        W17406  33.125  10.245  11.627
52180W        W17407  24.051  18.445  11.532
52181W        W17408  33.353  16.109   3.143
52182W        W17409  42.884  24.938   3.500
52183W        W17410  23.996  42.963   0.090
52184W        W17411  31.967  18.375   0.170
52185W        W17412  24.557  38.000  11.186
52186W        W17413  15.119   9.409   2.195
52187W        W17414  11.833  42.343  11.712
52188W        W17415  35.340  44.016  14.113
52189W        W17416  13.263  18.008  11.621
52190W        W17417   3.211  37.734   5.178
52191W        W17418  13.854   5.191   2.665
52192W        W17419  40.630   3.807  10.786
52193W        W17420  33.529  41.046  12.923
52194W        W17421   9.613  34.116   0.388
52195W        W17422  33.702  44.406   2.199
52196W        W17423   6.386  41.888  12.905
52197W        W17424   5.742  11.827   4.883
52198W        W17425  30.913  23.555   4.610
52199W        W17426   5.008  24.197  12.923
52200W        W17427  20.362  35.143   1.269
52201W        W17428  22.989  31.469   0.730
52202W        W17429  26.653  44.068   1.852
52203W        W17430  16.554  25.009  13.299
52204W        W17431   7.672  36.040   2.339
52205W        W17432   0.963  36.421  13.515
52206W        W17433  27.619  40.524  12.445
52207W        W17434  41.445  31.072  11.593
52208W        W17435  13.683  41.009  11.979
52209W        W17436  36.547  20.364   0.290
52210W        W17437  29.067   7.889   4.639
52211W        W17438   3.876   3.150  12.456
52212W        W17439  44.429  19.831  10.563
52213W        W17440  32.520   6.167   3.260
52214W        W17441   6.127  11.375   0.308
52215W        W17442  18.219  38.915   3.588
52216W        W17443  27.755   3.309  11.582
52217W        W17444  16.313  38.442   4.031
52218W        W17445  21.016  42.277  12.161
52219W        W17446  20.680  37.606  10.699
52220W        W17447  25.239  20.708   3.686
52221W        W17448  23.999  14.779  13.360
52222W        W17449  12.265   2.361   1.155
52223W        W17450  39.346   4.221   3.717
52224W        W17451  13.802   3.952  11.966
52225W        W17452   3.823  11.895   2.211
52226W        W17453   6.744   5.304  13.146
52227W        W17454  16.874   8.242  12.472
52228W        W17455  35.144  44.694  10.919
52229W        W17456   0.538  12.428   2.239
52230W        W17457  40.285  26.513  12.165
52231W        W17458  38.636   3.149  11.126
52232W        W17459  14.224  13.483  13.444
52233W        W17460  18.258   1.430  11.507
52234W        W17461   5.248  25.928   0.594
52235W        W17462   7.008  38.473  13.828
52236W        W17463  13.086  29.639  10.549
52237W        W17464  30.649   5.990  13.022
52238W        W17465   3.406  37.473  11.898
52239W        W17466  35.317  16.573  12.433
52240W        W17467  30.652   2.418   1.715
52241W        W17468  43.045  22.777   2.786
52242W        W17469  23.792  18.968   4.068
52243W        W17470  28.378  26.157  10.072
52244W        W17471  28.937   4.380   4.038
52245W        W17472   0.948  11.570   3.214
52246W        W17473  20.461  24.618   0.386
52247W        W17474  11.674  44.019  10.188
52248W        W17475   3.052  43.426  11.206
52249W        W17476   5.786  30.044  11.538
52250W        W17477  25.209   2.055  12.137
52251W        W17478  44.106  26.610  11.591
52252W        W17479  29.170   6.287  10.684
52253W        W17480  15.507  31.113  14.628
52254W        W17481  11.604  21.676   3.340
52255W        W17482  31.665  28.163  13.743
52256W        W17483  14.838  30.368  11.085
52257W        W17484  20.805  16.061  11.188
52258W        W17485  10.327  44.027   2.657
52259W        W17486  37.622   7.623   4.439
52260W        W17487  43.326  32.215  13.155
52261W        W17488  26.831  23.015  10.847
52262W        W17489  35.440  10.474  11.569
52263W        W17490  20.641  39.614  10.781
52264W        W17491  20.518  23.917   3.370
52265W        W17492  39.876   8.215   0.534
52266W        W17493  10.142  12.382   2.888
52267W        W17494  44.374  18.390   3.060
52268W        W17495  24.107  36.073  11.278
52269W        W17496  42.405  25.704  12.393
52270W        W17497  27.793  18.988  13.444
52271W        W17498  34.143  35.867  12.031
52272W        W17499  20.081   7.777   0.882
52273W        W17500  23.144  19.144   3.558
52274W        W17501  30.136   6.044   4.013
52275W        W17502   9.685   1.324   2.095
52276W        W17503  32.107  29.050   3.890
52277W        W17504  32.098  41.550   4.627
52278W        W17505  14.173  28.109  11.159
52279W        W17506  36.428  37.659  14.965
52280W        W17507  28.171   2.338  12.992
52281W        W17508  23.586  25.266  14.543
52282W        W17509  14.129  11.168   1.949
52283W        W17510   3.400  31.467  14.876
52284W        W17511  12.409  30.390  11.147
52285W        W17512   6.330  11.810   0.551
52286W        W17513  41.304  41.429  11.518
52287W        W17514   9.925  32.623   2.348
52288W        W17515   0.189   8.193   2.207
52289W        W17516   2.849  39.880  10.741
52290W        W17517   9.085  25.745   2.325
52291W        W17518  35.051   5.664  14.508
52292W        W17519  38.176  44.574   4.229
52293W        W17520  15.055  19.783  13.264
52294W        W17521  17.487  20.627  12.405
52295W        W17522  27.440  21.675   1.977
52296W        W17523  30.844  22.529  10.603
52297W        W17524  10.425  42.501   0.784
52298W        W17525  26.563  42.965   3.211
52299W        W17526  17.728  18.802   2.834
52300W        W17527  32.040  19.115  14.531
52301W        W17528   5.197  28.992   0.709
52302W        W17529   0.969  35.140  11.797
52303W        W17530  42.507  36.025  13.621
52304W        W17531  35.248  40.893  12.438
52305W        W17532  18.204  22.457  12.460
52306W        W17533  11.928  21.699  14.783
52307W        W17534  16.051  12.714   4.375
52308W        W17535  37.983   1.995   3.141
52309W        W17536  37.768  37.358   4.120
52310W        W17537   2.412  20.196   2.181
52311W        W17538  31.890   9.211  10.533
52312W        W17539  11.869  18.962  12.852
52313W        W17540  34.456  25.818   2.799
52314W        W17541  11.814  24.289   3.136
52315W        W17542  18.052   1.199   3.335
52316W        W17543  32.214  19.609  14.685
52317W        W17544  13.720  33.546  14.946
52318W        W17545  11.545   8.400   2.297
52319W        W17546  32.222  31.621  11.185
52320W        W17547  15.823   7.071   4.412
52321W        W17548  30.598  23.137   1.953
52322W        W17549  31.567  18.025   3.230
52323W        W17550  24.654  26.140  13.536
52324W        W17551  29.077   5.116   2.704
52325W        W17552  29.972  13.224  12.304
52326W        W17553  39.624  43.934  13.148
52327W        W17554  13.145   1.431  12.612
52328W        W17555  14.753  13.701  14.372
52329W        W17556  30.841  17.948  12.510
52330W        W17557  33.018  23.237   1.710
52331W        W17558   9.193   7.224   1.985
52332W        W17559  18.863  35.137  11.101
52333W        W17560  24.692  30.451  12.322
52334W        W17561  40.549   4.294  11.969
52335W        W17562   3.326  30.050   0.766
52336W        W17563  26.719  20.661  10.440
52337W        W17564  41.346  27.498  11.996
52338W        W17565  14.652  42.773  13.041
52339W        W17566  39.461  42.549  13.377
52340W        W17567  18.187   7.643   0.538
52341W        W17568   3.482  29.530  13.826
52342W        W17569  17.232  14.909  12.332
52343W        W17570  20.992  21.343   3.206
52344W        W17571  33.903  12.117  11.018
52345W        W17572  36.427   0.946  14.838
52346W        W17573   6.622  26.710   4.620
52347W        W17574   9.067  42.329  10.669
52348W        W17575  44.001  22.261   5.530
52349W        W17576  42.961  39.518   4.594
52350W        W17577  17.372  26.908   0.828
52351W        W17578  11.089  44.541  12.083
52352W        W17579   6.767   0.636   0.985
52353W        W17580  43.551  39.611   0.704
52354W        W17581  12.265  33.187   5.079
52355W        W17582  36.841  17.724   3.630
52356W        W17583  23.478  33.384  13.058
52357W        W17584  42.493   9.306   0.943
52358W        W17585   7.443  34.313  11.457
52359W        W17586  23.488  23.631  13.111
52360W        W17587  36.049   5.047   1.317
52361W        W17588  34.861  12.188   1.513
52362W        W17589  26.672  43.850  11.594
52363W        W17590  19.098  26.396   3.904
52364W        W17591  27.895  21.273   3.670
52365W        W17592  29.270  32.458  13.004
52366W        W17593   1.836  25.440   4.542
52367W        W17594  15.747   1.213  10.653
52368W        W17595  40.334   9.158   5.025
52369W        W17596  18.524   9.609   3.125
52370W        W17597  40.757  23.505  13.966
52371W        W17598  30.562  24.019  13.350
52372W        W17599  16.077  38.851   2.928
52373W        W17600  43.719  24.262   3.352
52374W        W17601  14.326  25.662   4.657
52375W        W17602  22.729  43.709  14.676
52376W        W17603   2.460  14.251  13.304
52377W        W17604  20.403  30.276  12.075
52378W        W17605  10.636  35.064   2.349
52379W        W17606  21.063  39.850  13.053
52380W        W17607  32.986  35.302  11.583
52381W        W17608  15.636  43.563  11.566
52382W        W17609   3.849  44.081  11.736
52383W        W17610   5.768   5.218  14.835
52384W        W17611  15.231   5.716  13.934
52385W        W17612  44.481   8.217  14.912
52386W        W17613  10.998   7.185  12.124
52387W        W17614   2.278  11.191   0.938
52388W        W17615  38.766   3.978  13.615
52389W        W17616   2.277  40.075  12.498
52390W        W17617   7.258  15.357   1.521
52391W        W17618  34.051  11.054   1.219
52392W        W17619   8.228  27.535   4.616
52393W        W17620   2.958  14.283  13.417
52394W        W17621   0.942   7.412   1.708
52395W        W17622  14.161  41.300   3.613
52396W        W17623   1.387   4.576   0.181
52397W        W17624  17.220   0.922   0.845
52398W        W17625  34.071  20.269   3.906
52399W        W17626  41.507  41.460  13.406
52400W        W17627  32.417   7.856   3.363
52401W        W17628  25.586   5.471  12.360
52402W        W17629  37.475  35.183  12.049
52403W        W17630  13.797  21.991  11.855
52404W        W17631  30.944  32.451   1.924
52405W        W17632  33.125  10.338   0.786
52406W        W17633   9.361  33.944  10.892
52407W        W17634  25.768  21.582   4.585
52408W        W17635   3.209  33.458   3.649
52409W        W17636  10.422  23.418  11.353
52410W        W17637  10.961  42.664  12.941
52411W        W17638  27.096   9.457  13.118
52412W        W17639   3.672  34.833   3.215
52413W        W17640  28.219  32.887   1.328
52414W        W17641  14.633  23.243   1.729
52415W        W17642  37.869   3.222  14.511
52416W        W17643  19.576   2.497  12.599
52417W        W17644  38.449   0.147  13.870
52418W        W17645   2.199  10.249   1.745
52419W        W17646  10.066  44.909   2.125
52420W        W17647  31.344  14.939   1.803
52421W        W17648  36.607  19.591  12.974
52422W        W17649  31.393  13.753   3.306
52423W        W17650  26.986   3.297   2.107
52424W        W17651  24.498  38.160  13.950
52425W        W17652  39.934  26.489  11.397
52426W        W17653  13.282  36.334  14.529
52427W        W17654   6.820  27.504   4.156
52428W        W17655   2.993   8.130   0.788
52429W        W17656  34.029  39.818  13.463
52430W        W17657  13.194  33.301   1.292
52431W        W17658  19.570  36.781  14.072
52432W        W17659  34.655   2.892   3.769
52433W        W17660  29.909   5.851  12.354
52434W        W17661  29.562  14.628   1.202
52435W        W17662  12.602  42.918   4.561
52436W        W17663  14.980  34.336  13.308
52437W        W17664  21.971  22.169   2.819
52438W        W17665   6.900  41.407   3.872
52439W        W17666  14.027   6.502   1.764
52440W        W17667  21.482  33.997   4.248
52441W        W17668  40.925  36.924  12.889
52442W        W17669  43.648   0.336   2.378
52443W        W17670  28.035  43.964   2.649
52444W        W17671  15.743  42.913   0.005
52445W        W17672  11.748  43.915   2.122
52446W        W17673  20.326   0.238  13.078
52447W        W17674  30.365  18.992   4.599
52448W        W17675  26.242  21.150   0.428
52449W        W17676  22.379  25.947  12.939
52450W        W17677  43.833   6.988  11.539
52451W        W17678   4.813  10.899  12.035
52452W        W17679  23.293  17.636   3.703
52453W        W17680  39.396  20.532  10.529
52454W        W17681   3.899   0.522  12.102
52455W        W17682  36.811  25.772   2.848
52456W        W17683  42.172  15.629   0.772
52457W        W17684  37.056   8.394  13.910
52458W        W17685   5.191   5.723  12.517
52459W        W17686  20.638  11.371   1.211
52460W        W17687  10.300  42.025   1.866
52461W        W17688  15.770  20.475  13.958
52462W        W17689   4.668  34.858   2.246
52463W        W17690  16.255  32.458  12.813
52464W        W17691  29.771  37.814  11.723
52465W        W17692  29.476  29.005  14.019
52466W        W17693  19.259  28.731   1.213
52467W        W17694  22.714   0.065   1.546
52468W        W17695  34.091  43.543   0.620
52469W        W17696  31.580   4.424   1.801
52470W        W17697  36.651   6.731   0.528
52471W        W17698  41.405  11.341  14.714
52472W        W17699  11.813  35.473   2.247
52473W        W17700  36.460  44.429   2.285
52474W        W17701   9.751  16.787  11.944
52475W        W17702   8.770  32.653   4.492
52476W        W17703  24.999  31.998  12.991
52477W        W17704  41.999  30.868  14.325
52478W        W17705  25.732   4.460  14.038
52479W        W17706   2.494  19.578   1.806
52480W        W17707  20.672  11.976   2.816
52481W        W17708  24.081  38.804   1.333
52482W        W17709  37.300  28.553   4.203
52483W        W17710   5.167  33.321   4.628
52484W        W17711  16.746  14.123   1.365
52485W        W17712  42.364  26.955  12.896
52486W        W17713  43.941   5.022   2.657
52487W        W17714   6.175  38.743  12.476
52488W        W17715   5.731  37.310  13.065
52489W        W17716  33.130  17.276  11.344
52490W        W17717  18.674   2.837   4.513
52491W        W17718   0.035  17.030  11.561
52492W        W17719  44.308  40.161   0.781
52493W        W17720  21.792  42.315   1.872
52494W        W17721   2.495   1.876   3.276
52495W        W17722   3.522  31.875  14.154
52496W        W17723  41.419   3.679   1.643
52497W        W17724  15.758  29.960  13.843
52498W        W17725  35.388   6.908   3.690
52499W        W17726  16.589  20.939   2.374
52500W        W17727  33.916   7.910   1.707
52501W        W17728  21.955  43.330  12.159
52502W        W17729  17.031  31.972   3.084
52503W        W17730  24.756   5.619  11.318
52504W        W17731   6.041  35.417   1.033
52505W        W17732  25.472  15.123  11.693
52506W        W17733  22.551  30.883  14.807
52507W        W17734  11.231  32.549   3.186
52508W        W17735  37.842  24.515  12.618
52509W        W17736  38.454   5.861   2.863
52510W        W17737  22.172  28.043   1.797
52511W        W17738  18.261  32.510  12.138
52512W        W17739  43.608  43.717   3.280
52513W        W17740  26.691  30.388   1.862
52514W        W17741   0.351   8.387   1.353
52515W        W17742  13.233  29.236  13.489
52516W        W17743   8.634   9.097  14.913
52517W        W17744   2.163  25.528   1.846
52518W        W17745  26.506  29.043   2.277
52519W        W17746  20.659  18.491  14.460
52520W        W17747  34.499  19.233  14.277
52521W        W17748  20.424  24.629   4.246
52522W        W17749  42.495  27.328  10.359
52523W        W17750   6.494   4.371  11.099
52524W        W17751  10.847   1.732   2.816
52525W        W17752  16.137   9.934  13.438
52526W        W17753   5.130  22.138   1.824
52527W        W17754  25.711   4.675  13.277
52528W        W17755  10.767  35.857  11.606
52529W        W17756  39.391  28.880  12.375
52530W        W17757  38.849  21.568  11.117
52531W        W17758  21.303  27.745   4.617
52532W        W17759  36.918  39.403   4.081
52533W        W17760  39.939   0.874   2.770
52534W        W17761  17.607  17.584  10.607
52535W        W17762  43.245  34.497  13.483
52536W        W17763  39.332  22.469  12.588
52537W        W17764  39.600  44.588  11.112
52538W        W17765  11.860   3.670  12.647
52539W        W17766  26.419  34.606   0.336
52540W        W17767  30.746  28.105  13.553
52541W        W17768  41.633  30.103   2.979
52542W        W17769  41.039  28.639   3.785
52543W        W17770  40.856  39.561   4.305
52544W        W17771   7.681  23.179   1.408
52545W        W17772  27.346   4.850  10.749
52546W        W17773  22.150  26.232   4.592
52547W        W17774  40.294  32.918  14.557
52548W        W17775   7.428  31.532  10.528
52549W        W17776  42.500  32.070   0.897
52550W        W17777   4.556  29.095  10.598
52551W        W17778  28.642   8.785   2.381
52552W        W17779  36.193  25.711  14.405
52553W        W17780   0.741   7.656  14.850
52554W        W17781  29.829   7.374   2.038
52555W        W17782   8.291  17.332  12.528
52556W        W17783  43.824   6.802  12.457
52557W        W17784  17.439  35.001  13.362
52558W        W17785  11.939   1.665  11.207
52559W        W17786  16.273  26.470  10.618
52560W        W17787  20.788  36.900   3.122
52561W        W17788  16.292   1.959  14.793
52562W        W17789  24.278  16.126  13.122
52563W        W17790  18.841  12.236   4.519
52564W        W17791  26.189  31.788   2.730
52565W        W17792  20.348   2.923   5.546
52566W        W17793  34.925  23.727   0.267
52567W        W17794  18.664  10.624   1.748
52568W        W17795  23.568  35.083   3.370
52569W        W17796   2.173   1.488  11.661
52570W        W17797   8.444  15.526   0.350
52571W        W17798  40.790  13.205  11.899
52572W        W17799  37.093  21.985  13.919
52573W        W17800   6.676  23.692   0.713
52574W        W17801  23.198  37.722   3.155
52575W        W17802  43.900  19.342  13.830
52576W        W17803  24.338  12.558  11.122
52577W        W17804   6.462   1.225  13.963
52578W        W17805  28.085  12.314   2.770
52579W        W17806  20.661   0.079  11.438
52580W        W17807  42.903  10.564   4.133
52581W        W17808  28.020  39.850  10.226
52582W        W17809   6.793  16.239   2.352
52583W        W17810  35.458  35.745   0.811
52584W        W17811  16.550  25.936  11.255
52585W        W17812   6.579  11.838  11.408
52586W        W17813  18.036  34.374   4.146
52587W        W17814  31.710  35.429  11.660
52588W        W17815  43.930  32.392  12.887
52589W        W17816   8.687   3.449   2.207
52590W        W17817   5.297  22.968   1.558
52591W        W17818  10.183  26.037   4.644
52592W        W17819  23.668   2.454  12.541
52593W        W17820  41.502   7.956   0.865
52594W        W17821  29.129  33.133   1.789
52595W        W17822  24.231  21.127   2.722
52596W        W17823  29.226   5.564   3.246
52597W        W17824  23.019  36.800  12.911
52598W        W17825  16.124   2.514  13.524
52599W        W17826   0.467  23.254   3.228
52600W        W17827  41.035  11.157   0.556
52601W        W17828  38.006   9.309   4.021
52602W        W17829  32.648  38.258   4.636
52603W        W17830  21.612  30.413  10.428
52604W        W17831  24.833  12.945  11.750
52605W        W17832  17.391  38.081   2.776
52606W        W17833  38.036  15.515   1.286
52607W        W17834   8.869  28.513   1.731
52608W        W17835  25.794   3.188  14.259
52609W        W17836  41.694  25.739   3.949
52610W        W17837  40.653   7.956   0.331
52611W        W17838  12.676   2.719  12.622
52612W        W17839  25.154  21.659   1.913
52613W        W17840  42.772  30.081  12.110
52614W        W17841  22.378  24.461  12.318
52615W        W17842  18.351  15.081   3.791
52616W        W17843  43.461  35.348  10.958
52617W        W17844  30.666  26.932  11.226
52618W        W17845  27.246  24.530   2.878
52619W        W17846   7.426  28.471  11.621
52620W        W17847  26.285   9.164   0.402
52621W        W17848   1.263  39.869   4.563
52622W        W17849  11.565  17.528  10.724
52623W        W17850  18.017   1.779  12.219
52624W        W17851  20.861  14.400   5.201
52625W        W17852   5.319  37.808   4.623
52626W        W17853  31.527  17.081   1.283
52627W        W17854  18.621   1.747  10.849
52628W        W17855   1.212  12.815  11.143
52629W        W17856  31.214  18.718  13.464
52630W        W17857  26.625  11.370   3.217
52631W        W17858  23.978  35.604  14.242
52632W        W17859  13.187   9.545  14.901
52633W        W17860   7.705   1.588  14.943
52634W        W17861   1.867  11.420   0.112
52635W        W17862  24.430  33.883  12.559
52636W        W17863  41.580  36.852  11.232
52637W        W17864  18.390   6.966   1.289
52638W        W17865  35.974  17.079  12.916
52639W        W17866  14.270   9.597   2.839
52640W        W17867  31.904  40.974  14.128
52641W        W17868  25.585   9.642  12.031
52642W        W17869  10.535   3.181   5.237
52643W        W17870   6.112   7.795  14.310
52644W        W17871  29.118  41.535  13.924
52645W        W17872  28.058   9.811   1.761
52646W        W17873   6.258  36.934   2.813
52647W        W17874   3.237   9.369   1.823
52648W        W17875  44.997  32.560  14.859
52649W        W17876   1.041   5.460  12.999
52650W        W17877  20.929  37.046  12.845
52651W        W17878  11.879  20.742  11.270
52652W        W17879  10.323  14.183   4.601
52653W        W17880  30.554  24.549  12.950
52654W        W17881  41.049  18.274  14.782
52655W        W17882  19.095  28.231   4.084
52656W        W17883  37.502  34.223   0.310
52657W        W17884  21.336  14.566   1.269
52658W        W17885  31.584   4.846  11.696
52659W        W17886   1.841   4.843  12.028
52660W        W17887  14.752  15.126   3.774
52661W        W17888  33.546  17.481   3.230
52662W        W17889  31.031  29.609  13.458
52663W        W17890  19.988  17.763  13.520
52664W        W17891  38.977  24.304   3.218
52665W        W17892  23.617  10.922  14.953
52666W        W17893  37.046   2.015   1.170
52667W        W17894  31.420   8.707  12.070
52668W        W17895  12.678  35.811  13.314
52669W        W17896  37.652  34.064  10.689
52670W        W17897  18.084   6.293   1.486
52671W        W17898  14.345  40.821   2.787
52672W        W17899  31.260  15.585  12.981
52673W        W17900  18.848  12.747   2.909
52674W        W17901   5.452  21.541  10.832
52675W        W17902   8.279  11.590  14.860
52676W        W17903  17.012  34.921  14.412
52677W        W17904  25.453  22.747   1.643
52678W        W17905  29.114  11.139  13.623
52679W        W17906   7.247   5.084   0.093
52680W        W17907  30.914   8.172  13.492
52681W        W17908   9.314   2.950   4.921
52682W        W17909   7.975  21.535  10.483
52683W        W17910  39.821   9.651   1.649
52684W        W17911  11.055   1.795   2.359
52685W        W17912   8.553  21.052   1.906
52686W        W17913  27.733  20.266   0.370
52687W        W17914  40.548  35.174  12.056
52688W        W17915  33.008  44.253   3.667
52689W        W17916  31.036   0.975   2.986
52690W        W17917  42.800  23.598  12.503
52691W        W17918  12.914   8.439   0.918
52692W        W17919  13.734  34.377  11.595
52693W        W17920  19.552  40.910  12.067
52694W        W17921  11.348  21.262  14.568
52695W        W17922   8.441  18.331  10.791
52696W        W17923   8.225  23.482  12.038
52697W        W17924  43.742  17.240   3.569
52698W        W17925   5.919  34.539   1.236
52699W        W17926   7.241  41.106   3.341
52700W        W17927   7.376  30.357  12.097
52701W        W17928  12.440  30.853  12.487
52702W        W17929  16.966  26.129  12.957
52703W        W17930  30.295  26.541   1.191
52704W        W17931  10.737   2.488   3.662
52705W        W17932  26.516  41.607   1.265
52706W        W17933  30.936   6.118  12.027
52707W        W17934  41.847  37.616   0.885
52708W        W17935  44.582   4.254   0.672
52709W        W17936  38.553  18.718   0.045
52710W        W17937  35.699  33.968   0.349
52711W        W17938  41.580  27.049  14.716
52712W        W17939  11.230  42.867   3.147
52713W        W17940  40.395   4.517  11.527
52714W        W17941  19.748   8.071   5.033
52715W        W17942   1.450  25.385  12.471
52716W        W17943  11.722  13.284   4.137
52717W        W17944  17.145  11.319   3.870
52718W        W17945  32.944  29.053   3.716
52719W        W17946  37.826   4.186  14.539
52720W        W17947  28.633  21.511  14.266
52721W        W17948   0.115   4.334  13.313
52722W        W17949   8.189  35.684  14.560
52723W        W17950  32.660   8.002   4.594
52724W        W17951  17.505  43.021  14.952
52725W        W17952  33.225  27.854  14.614
52726W        W17953  40.770  42.958  11.711
52727W        W17954  12.197  32.161   2.508
52728W        W17955   9.167   6.256  12.975
52729W        W17956  24.695  31.150  14.888
52730W        W17957  34.301  21.550  14.935
52731W        W17958   3.647  20.829   4.071
52732W        W17959  36.618  16.225  12.176
52733W        W17960  10.754  19.130  10.390
52734W        W17961  17.466  35.978   2.977
52735W        W17962  43.933  27.980  10.265
52736W        W17963  29.073   5.173  13.074
52737W        W17964  14.863  24.639   0.918
52738W        W17965  10.244   4.438  11.479
52739W        W17966  23.855  28.202   3.903
52740W        W17967  44.996   3.784   1.859
52741W        W17968  24.769  18.201   0.360
52742W        W17969   6.580   7.134  10.749
52743W        W17970  44.327  41.309   0.861
52744W        W17971  42.610  44.711  12.470
52745W        W17972   6.310   7.300   4.624
52746W        W17973  13.688  32.376   1.034
52747W        W17974  31.361  16.688   3.182
52748W        W17975  43.302  12.093   0.363
52749W        W17976  20.593  21.044  12.972
52750W        W17977  22.040   9.758   1.201
52751W        W17978  13.267  34.836  13.337
52752W        W17979  20.027  40.107   0.856
52753W        W17980  35.866  38.306   4.123
52754W        W17981  19.958  35.014  12.489
52755W        W17982  15.579  14.763  11.094
52756W        W17983  19.106  35.554   4.180
52757W        W17984  10.216  36.336  14.524
52758W        W17985  25.249  25.656   1.868
52759W        W17986  10.338   1.102   1.363
52760W        W17987  29.534  14.009   1.770
52761W        W17988  32.193  10.776   2.551
52762W        W17989  26.419   4.901  11.087
52763W        W17990   2.906  16.000   4.558
52764W        W17991  42.936  11.749   4.007
52765W        W17992  32.405  30.963   2.834
52766W        W17993  37.345   6.044  11.948
52767W        W17994  10.160  29.015  12.451
52768W        W17995  13.249  24.084   3.248
52769W        W17996   8.847  31.453   1.705
52770W        W17997  24.047   8.674  12.433
52771W        W17998  39.457  20.821   0.000
52772W        W17999  16.112  38.048  12.091
52773W        W18000   5.554  14.402   1.927
52774W        W18001   4.904  18.340  10.603
52775W        W18002   6.869  22.266   0.928
52776W        W18003   1.076  19.180  14.390
52777W        W18004  37.538  28.995   4.221
52778W        W18005  44.843  16.729   3.735
52779W        W18006  13.879  20.047  12.933
52780W        W18007  28.339   2.893   0.502
52781W        W18008  42.543   6.751  10.593
52782W        W18009  37.434   6.029   1.816
52783W        W18010  13.014  14.513   0.177
52784W        W18011  27.578   2.520   0.821
52785W        W18012  34.498  11.149  13.898
52786W        W18013  17.540  25.683   4.275
52787W        W18014   5.295  15.294   5.659
52788W        W18015  30.256  28.326   1.285
52789W        W18016  18.331  25.338  11.603
52790W        W18017   1.235  29.214  14.968
52791W        W18018  43.790  40.855  12.364
52792W        W18019  17.746  12.979  13.443
52793W        W18020   1.782  31.778  12.540
52794W        W18021  20.841  38.836   3.073
52795W        W18022  41.370   6.230  14.341
52796W        W18023  42.013  40.406   2.773
52797W        W18024   5.072   9.871   0.457
52798W        W18025   6.283  26.740   2.243
52799W        W18026  34.559  40.047  10.654
52800W        W18027  23.450  41.003   4.637
52801W        W18028   6.172  24.204  13.481
52802W        W18029   2.298  33.156   2.411
52803W        W18030   6.177   1.358   4.267
52804W        W18031  33.561  15.321  14.060
52805W        W18032  38.474  26.233   4.465
52806W        W18033  36.478   3.412   2.744
52807W        W18034  38.016  15.176  12.844
52808W        W18035   9.261  22.586  13.881
52809W        W18036   0.597  43.291   5.392
52810W        W18037  18.385  28.627   2.773
52811W        W18038  21.080   4.006  12.592
52812W        W18039  26.204   0.509  10.347
52813W        W18040  24.205  30.326   4.082
52814W        W18041  43.015  20.686   2.418
52815W        W18042  39.906  30.541   3.101
52816W        W18043  28.670  22.860   0.456
52817W        W18044  34.892  15.806   0.784
52818W        W18045   2.154  12.909  14.011
52819W        W18046   7.649  28.325  12.888
52820W        W18047  12.062  20.217  13.868
52821W        W18048   1.220   9.019  12.344
52822W        W18049  18.271  28.710   0.494
52823W        W18050  26.054  21.177  13.520
52824W        W18051  39.443   4.649  10.645
52825W        W18052   7.458  23.533   0.363
52826W        W18053  43.901  39.334   2.640
52827W        W18054   7.761  42.636  14.343
52828W        W18055  39.818   5.201   1.423
52829W        W18056  44.261  22.575  12.982
52830W        W18057   2.163  33.542  12.146
52831W        W18058  19.520  28.084  11.045
52832W        W18059  15.565  42.907  12.608
52833W        W18060  20.647   7.611  11.705
52834W        W18061  26.925  20.116  10.899
52835W        W18062  41.673  33.831   3.666
52836W        W18063  14.528  25.908  11.234
52837W        W18064  17.554  39.144  13.757
52838W        W18065  39.333   2.844   3.690
52839W        W18066   3.213  10.027  13.104
52840W        W18067  41.673  38.461   4.643
52841W        W18068  10.808  32.194   3.210
52842W        W18069   3.856  26.537  13.666
52843W        W18070   9.704  12.792  12.604
52844W        W18071  41.259   0.635   3.141
52845W        W18072  23.734  39.573   3.274
52846W        W18073  42.575   6.966   4.600
52847W        W18074   7.253  37.903   3.800
52848W        W18075  16.310  33.880   1.848
52849W        W18076  35.494  29.643   1.928
52850W        W18077  25.400  33.599   3.177
52851W        W18078   4.207  36.498  14.996
52852W        W18079  34.567  26.710   3.680
52853W        W18080   6.232  14.176  14.847
52854W        W18081   9.706  40.960   1.465
52855W        W18082   1.305   4.383   4.406
52856W        W18083   0.366  23.577   2.840
52857W        W18084  38.394  23.226   2.702
52858W        W18085  13.329  28.050  12.461
52859W        W18086  28.771   8.461   2.782
52860W        W18087  18.196  28.114  11.453
52861W        W18088   7.915  27.121   1.695
52862W        W18089  18.107  31.386   3.595
52863W        W18090  21.799  23.708   3.054
52864W        W18091   4.613  24.646  14.298
52865W        W18092  30.640  24.976   3.650
52866W        W18093  29.599  43.896   2.296
52867W        W18094  15.638   6.825  10.800
52868W        W18095  42.637  10.363   2.868
52869W        W18096  33.657  11.568  11.628
52870W        W18097  28.439  24.990  14.886
52871W        W18098  25.302  13.843  11.075
52872W        W18099  30.943  30.884  11.496
52873W        W18100  43.892   3.936   0.828
52874W        W18101  40.486  29.102   4.599
52875W        W18102  41.240  11.230   2.336
52876W        W18103  19.986  20.988   0.911
52877W        W18104  21.267  43.473   1.118
52878W        W18105  10.782  20.230  11.009
52879W        W18106  26.134  37.449   1.780
52880W        W18107  16.285   0.053   0.933
52881W        W18108  32.623   2.312   2.751
52882W        W18109  18.947  40.472   2.228
52883W        W18110  41.054   4.399  11.986
52884W        W18111  20.319  43.046   5.041
52885W        W18112   4.332   9.375  13.714
52886W        W18113  15.100  36.934   1.748
52887W        W18114  23.852  44.839  11.119
52888W        W18115  17.067  12.725   4.210
52889W        W18116   5.635  22.559   1.001
52890W        W18117  35.300   0.922   2.439
52891W        W18118   4.538  28.645   1.398
52892W        W18119  44.384  43.425  10.554
52893W        W18120  17.119  34.984  12.964
52894W        W18121   4.684   2.870  14.448
52895W        W18122  31.382  41.369   3.194
52896W        W18123  40.392   3.268   4.572
52897W        W18124   1.999  22.801  14.056
52898W        W18125  32.474   5.249  11.251
52899W        W18126  29.952  42.922   1.771
52900W        W18127  38.819   3.471   2.158
52901W        W18128  31.176   0.537   2.176
52902W        W18129   9.035  29.457   5.014
52903W        W18130  19.929  26.071  12.461
52904W        W18131  26.355  36.344   2.456
52905W        W18132  22.668  32.324   3.694
52906W        W18133   3.544  31.268   4.926
52907W        W18134   6.723   3.998  13.975
52908W        W18135  28.518  13.218  11.531
52909W        W18136  19.915  27.955   9.895
52910W        W18137  18.366  24.568  14.767
52911W        W18138   9.909  15.695  14.421
52912W        W18139  43.917   1.932  10.880
52913W        W18140  30.194   0.176   1.484
52914W        W18141  11.102  20.680   4.504
52915W        W18142  24.291  18.424  13.867
52916W        W18143  42.847  30.175  13.079
52917W        W18144  11.343  13.868  14.365
52918W        W18145  41.227  19.667  12.920
52919W        W18146   6.203  13.419   2.489
52920W        W18147  22.210  33.108  11.631
52921W        W18148  27.972  36.899  11.137
52922W        W18149  11.931  23.265  11.068
52923W        W18150  17.849  17.224  12.900
52924W        W18151   8.692   5.297  11.138
52925W        W18152  18.681  43.397   0.443
52926W        W18153  18.158  29.125  10.544
52927W        W18154   2.414   8.632  14.980
52928W        W18155   1.971  14.876   0.623
52929W        W18156   8.475  15.711   1.243
52930W        W18157  13.508   7.366   3.177
52931W        W18158  15.324  33.971   3.703
52932W        W18159  20.965  30.489   2.602
52933W        W18160  37.891  36.400   2.680
52934W        W18161  15.770  29.939   2.164
52935W        W18162  20.708  20.617   0.840
52936W        W18163   1.482   5.401  12.017
52937W        W18164  28.500  19.123   4.107
52938W        W18165  32.570   2.526   4.593
52939W        W18166  28.942  36.061   0.884
52940W        W18167  23.393  28.657   2.637
52941W        W18168  38.943  37.501   0.946
52942W        W18169  19.671  40.313  10.829
52943W        W18170   6.180  17.235   3.644
52944W        W18171  22.670  11.317   1.558
52945W        W18172  33.262   0.036  11.952
52946W        W18173  10.242  10.161  11.593
52947W        W18174  16.613   0.456   2.418
52948W        W18175  27.505  30.741   2.359
52949W        W18176  23.428  44.005   1.764
52950W        W18177  42.637  27.843   5.008
52951W        W18178   3.010  39.838  14.475
52952W        W18179  10.245  26.245   1.930
52953W        W18180  18.021  20.557  10.569
52954W        W18181   9.391   9.550  11.103
52955W        W18182  35.539   9.007   0.359
52956W        W18183  26.871  13.181  13.457
52957W        W18184  24.133  27.577   3.650
52958W        W18185  43.801  26.049   1.409
52959W        W18186  36.829  16.912   4.189
52960W        W18187  27.351  38.300  11.018
52961W        W18188  38.278  13.964  10.081
52962W        W18189  21.067  24.914  11.102
52963W        W18190  12.257  27.984  11.375
52964W        W18191   7.751   5.834   0.231
52965W        W18192  10.836  43.553  14.313
52966W        W18193  43.413   7.879  14.406
52967W        W18194  15.054  29.105   4.428
52968W        W18195  14.681   2.534   0.820
52969W        W18196  37.421  33.897  11.980
52970W        W18197  11.292  25.462  11.053
52971W        W18198  26.237  35.411   4.245
52972W        W18199  42.096  33.642  13.298
52973W        W18200  25.988  11.144  14.565
52974W        W18201  36.994  22.898   4.284
52975W        W18202   8.975  37.530  13.440
52976W        W18203  18.807  34.507   3.299
52977W        W18204   5.210  24.632   1.936
52978W        W18205  34.208  11.921   3.612
52979W        W18206  17.370   8.568  12.068
52980W        W18207   4.761  38.564   3.212
52981W        W18208  17.660   1.811   2.864
52982W        W18209   1.463  14.555   0.438
52983W        W18210  26.928  33.832   0.964
52984W        W18211  17.088  17.931  11.320
52985W        W18212  27.345  29.400   0.430
52986W        W18213  13.161   9.570  11.543
52987W        W18214  11.103  36.385   1.382
52988W        W18215  22.401  39.506   1.368
52989W        W18216  19.053  25.009  14.471
52990W        W18217  23.214  44.531   2.193
52991W        W18218  32.350   4.253   2.448
52992W        W18219  23.467   3.006  11.389
52993W        W18220  11.764  11.269   4.291
52994W        W18221  24.706   6.806   0.428
52995W        W18222  19.166  10.720   3.804
52996W        W18223  13.214  25.839   3.845
52997W        W18224  15.131   6.170  12.882
52998W        W18225   5.199  23.720  13.849
52999W        W18226  38.795  15.168   1.697
53000W        W18227  34.338  34.162  12.928
53001W        W18228   7.863  16.386  10.372
53002W        W18229  26.322  42.331  12.846
53003W        W18230  12.750   6.307  14.535
53004W        W18231  43.278  20.753  14.688
53005W        W18232  36.448  36.392   2.366
53006W        W18233  30.104  17.365   2.881
53007W        W18234  20.148  22.387   1.435
53008W        W18235  36.339  37.891  11.148
53009W        W18236  33.408  26.955   1.382
53010W        W18237  33.500  26.692  11.175
53011W        W18238  37.418  30.386   4.223
53012W        W18239   4.296   1.420  11.053
53013W        W18240  18.609  35.512   4.375
53014W        W18241  17.696  31.672  11.988
53015W        W18242  23.518  14.708  13.184
53016W        W18243   2.057  17.686   3.027
53017W        W18244  37.989  28.018  10.625
53018W        W18245  28.476  28.186  13.988
53019W        W18246  40.802  21.471  12.145
53020W        W18247  36.801  23.648  14.288
53021W        W18248   9.641  39.079  10.881
53022W        W18249   3.456  35.451   2.205
53023W        W18250  11.240   0.814   0.322
53024W        W18251  30.103  35.449  12.569
53025W        W18252  31.137  21.724  11.415
53026W        W18253  38.033   5.796   2.580
53027W        W18254  36.748  43.842   4.170
53028W        W18255  14.633   6.668   2.366
53029W        W18256  43.062  20.886   3.777
53030W        W18257  14.574  19.739   3.180
53031W        W18258  25.094   1.459   0.625
53032W        W18259  33.169   8.023   4.492
53033W        W18260  24.552  24.171   0.052
53034W        W18261  27.516  42.890   4.921
53035W        W18262  15.684   1.705   2.770
53036W        W18263   1.382  24.304  14.275
53037W        W18264  10.578  25.719  13.493
53038W        W18265  18.959  35.049  13.232
53039W        W18266  43.894  30.807   2.708
53040W        W18267  41.967   5.404  13.449
53041W        W18268  10.978   9.647  11.102
53042W        W18269  37.525  26.728  11.587
53043W        W18270  37.557  41.429  12.348
53044W        W18271  21.296  17.571   0.033
53045W        W18272  34.054   8.336  10.908
53046W        W18273  42.699  27.053  13.695
53047W        W18274   8.206  10.288  10.551
53048W        W18275  24.005  26.461  13.571
53049W        W18276   9.185   9.291  11.941
53050W        W18277  23.981  14.343   4.503
53051W        W18278  41.253  38.184   4.521
53052W        W18279  34.600   2.840  14.090
53053W        W18280  36.649   1.509  12.359
53054W        W18281  29.063   9.661   2.432
53055W        W18282   8.680  40.073  14.863
53056W        W18283   6.209   5.945  13.509
53057W        W18284   6.809  22.205   1.441
53058W        W18285  21.968  32.461  11.093
53059W        W18286  25.533  39.292   0.756
53060W        W18287  21.271  36.456  10.630
53061W        W18288  16.611  44.463  14.348
53062W        W18289   8.752  32.294   2.386
53063W        W18290  34.075  42.559  13.012
53064W        W18291   9.351  22.474   3.803
53065W        W18292  39.714   5.358   2.224
53066W        W18293  31.200  15.672   1.321
53067W        W18294  38.058  40.366   1.609
53068W        W18295  21.042  32.082  11.090
53069W        W18296  10.894   4.371   0.000
53070W        W18297  27.021   7.904  14.475
53071W        W18298  13.933   9.792   4.713
53072W        W18299  41.126  11.871   1.705
53073W        W18300   7.134  22.985   3.648
53074W        W18301  43.459  22.432   0.722
53075W        W18302  24.710  20.153   3.128
53076W        W18303   3.301  10.807  11.706
53077W        W18304   2.521  18.849   3.811
53078W        W18305   4.284  19.448   0.496
53079W        W18306  41.598   2.724   2.609
53080W        W18307  41.152   1.094  12.892
53081W        W18308  15.753  44.944   2.301
53082W        W18309  29.206   6.027   1.334
53083W        W18310  25.380  15.174   3.282
53084W        W18311  18.089  20.546   3.447
53085W        W18312   9.946  21.212  13.249
53086W        W18313  21.045  13.997   0.894
53087W        W18314  26.219  30.776   2.730
53088W        W18315   9.285   5.677   2.600
53089W        W18316  20.233  27.929  12.722
53090W        W18317  11.741  41.413  10.225
53091W        W18318   3.371  22.994  12.338
53092W        W18319  29.202   4.242  11.986
53093W        W18320   0.878  29.101   1.889
53094W        W18321   2.088  23.605  14.548
53095W        W18322   0.533  10.508  13.337
53096W        W18323  14.312   1.980  12.098
53097W        W18324  24.119  22.641   0.944
53098W        W18325  10.763   5.341   0.060
53099W        W18326   6.747  12.630   1.514
53100W        W18327  15.806  16.851   1.689
53101W        W18328  14.825  12.827  12.534
53102W        W18329  13.130   2.532   1.976
53103W        W18330   6.655  38.902  12.539
53104W        W18331  10.915  18.456   3.636
53105W        W18332  13.807  31.601  14.886
53106W        W18333  34.841  24.534  12.519
53107W        W18334  11.770  24.587   4.613
53108W        W18335   6.350   9.807   5.011
53109W        W18336   8.512   7.724  13.880
53110W        W18337  35.290  38.100  10.244
53111W        W18338  27.152  17.505  12.846
53112W        W18339  15.682   5.826   3.381
53113W        W18340  24.075   5.026  11.165
53114W        W18341  12.851  44.936   4.320
53115W        W18342  18.232  42.269  11.485
53116W        W18343   6.247  15.907   1.323
53117W        W18344   0.754  36.305  11.173
53118W        W18345   0.421   3.499   3.677
53119W        W18346  41.351  39.648   4.129
53120W        W18347  17.264   2.744   4.330
53121W        W18348   7.411  24.480  14.874
53122W        W18349   3.158   1.354   0.818
53123W        W18350  11.982  14.991  13.973
53124W        W18351   4.652   3.959  11.615
53125W        W18352  20.879  25.163   2.314
53126W        W18353  12.290  34.625   0.308
53127W        W18354   3.968  37.261  12.654
53128W        W18355  30.134  32.608  11.605
53129W        W18356  13.849   5.166  12.476
53130W        W18357  19.155   9.565  13.894
53131W        W18358  26.142  38.956   4.447
53132W        W18359   8.891   4.217  11.925
53133W        W18360   4.452  23.663   3.349
53134W        W18361   1.407   7.711   3.742
53135W        W18362  21.058  44.566   2.618
53136W        W18363  12.724  21.080   4.662
53137W        W18364  36.127  21.932  13.968
53138W        W18365  33.470  24.302  11.379
53139W        W18366  34.469  31.477  13.304
53140W        W18367  33.166   6.363   2.844
53141W        W18368  39.510  13.642   3.151
53142W        W18369   5.429  25.191   2.689
53143W        W18370  33.607   6.915  12.976
53144W        W18371  37.445   6.665  12.413
53145W        W18372  12.097  25.745   0.983
53146W        W18373  16.506  10.242  14.879
53147W        W18374  30.380  10.545   5.422
53148W        W18375   7.752  29.587   3.379
53149W        W18376   1.450  32.211  11.812
53150W        W18377   6.786  40.714   2.131
53151W        W18378  28.159  19.804  13.417
53152W        W18379  15.254  16.176   3.132
53153W        W18380  14.701  33.106  12.042
53154W        W18381  10.045  18.098   2.999
53155W        W18382  38.360  10.600  11.593
53156W        W18383   7.672  17.830   3.739
53157W        W18384  20.262  31.449  10.716
53158W        W18385  33.178  44.023  10.594
53159W        W18386   0.721  16.690   5.023
53160W        W18387  12.634   7.445   0.946
53161W        W18388   5.281  33.872  11.125
53162W        W18389  20.757  23.772   4.376
53163W        W18390  30.932  15.465   0.892
53164W        W18391  40.949  18.726  11.013
53165W        W18392   9.258  40.053  14.404
53166W        W18393  10.910  43.364   0.750
53167W        W18394  12.587   0.846  14.209
53168W        W18395  15.222  32.549  10.024
53169W        W18396  15.778  38.309  14.418
53170W        W18397  39.881  31.979   2.169
53171W        W18398  18.733  39.178   1.023
53172W        W18399  13.698  28.543   4.756
53173W        W18400  41.464  36.418   3.272
53174W        W18401  27.132  17.431   4.984
53175W        W18402  24.053   6.468  13.925
53176W        W18403  36.500   5.325   4.575
53177W        W18404  32.216   6.429   4.033
53178W        W18405  30.164  33.399   4.739
53179W        W18406  31.096  41.519  13.895
53180W        W18407   6.831  14.124   2.226
53181W        W18408  24.701  41.571   3.155
53182W        W18409  16.081  22.485   4.215
53183W        W18410  10.108  22.972  13.485
53184W        W18411  25.697  41.969   1.681
53185W        W18412  35.367  16.692   1.810
53186W        W18413  18.902  28.174   2.394
53187W        W18414  22.699   0.358  14.449
53188W        W18415   5.723  26.035   2.621
53189W        W18416  36.330   6.113  11.944
53190W        W18417   1.261  28.556   3.562
53191W        W18418  19.252  21.695  11.220
53192W        W18419  42.443  44.801   1.798
53193W        W18420  25.963  27.367   2.785
53194W        W18421  14.030  25.340  12.331
53195W        W18422  35.837  31.370   3.240
53196W        W18423  44.079  25.681  11.612
53197W        W18424   4.928  15.703  14.813
53198W        W18425  32.000  22.117  10.435
53199W        W18426  43.084  12.741   3.817
53200W        W18427   0.071  33.487  11.561
53201W        W18428  39.790  24.802   1.848
53202W        W18429  23.195  18.172   2.356
53203W        W18430  21.990  41.278  14.803
53204W        W18431   7.408   4.831   2.281
53205W        W18432  35.942  10.375  13.902
53206W        W18433  14.661  44.355  14.304
53207W        W18434  14.851   0.267   2.513
53208W        W18435  27.046  19.326  12.838
53209W        W18436  35.820   0.349  11.606
53210W        W18437   7.460  15.797   1.354
53211W        W18438  35.861  38.826  10.041
53212W        W18439  24.167  37.343  10.745
53213W        W18440  11.387  44.329  14.107
53214W        W18441  43.886  34.419  11.601
53215W        W18442  18.509   4.439  11.613
53216W        W18443  11.164  27.971   1.826
53217W        W18444   1.045  28.855   0.289
53218W        W18445  34.487  30.703  10.780
53219W        W18446  32.256   1.944  13.955
53220W        W18447  32.594  20.067   2.710
53221W        W18448  41.723  32.087   2.140
53222W        W18449  31.289  21.875   1.796
53223W        W18450   2.824  20.727   2.697
53224W        W18451  29.411  13.544   2.541
53225W        W18452  37.021   0.467   0.822
53226W        W18453  13.586  11.703   3.624
53227W        W18454   8.452  10.912  13.521
53228W        W18455   3.258  29.833   0.245
53229W        W18456   4.138  26.033   1.241
53230W        W18457   5.794  43.430  10.163
53231W        W18458   4.467  19.468   2.933
53232W        W18459   4.306  28.959   0.717
53233W        W18460  23.724  20.751   2.860
53234W        W18461  15.068  29.824  14.875
53235W        W18462  21.627  19.646   2.738
53236W        W18463  18.561  17.859  13.948
53237W        W18464   6.804   0.963   0.006
53238W        W18465  39.976  39.987  14.910
53239W        W18466  22.140  41.998   2.407
53240W        W18467  26.679  14.092  10.325
53241W        W18468  40.923  23.939   0.142
53242W        W18469  38.976  43.995  12.724
53243W        W18470  36.935  43.037   2.701
53244W        W18471  23.932  14.829  10.651
53245W        W18472  15.085  14.036   3.208
53246W        W18473  17.792  29.661  12.647
53247W        W18474  17.212  14.743  14.301
53248W        W18475  17.099  13.925  12.638
53249W        W18476  19.091  16.579  12.547
53250W        W18477  10.654  18.605   1.652
53251W        W18478  36.132  31.659   0.528
53252W        W18479  42.447   6.837   2.285
53253W        W18480   1.826  23.329   5.267
53254W        W18481  31.500  42.908   2.997
53255W        W18482  26.516  43.743   4.590
53256W        W18483  23.187  42.494   4.088
53257W        W18484  28.714  33.965   3.138
53258W        W18485  15.534  10.586   3.357
53259W        W18486  40.379  38.345   2.588
53260W        W18487  15.735   1.293   1.767
53261W        W18488   4.300  12.951  11.518
53262W        W18489  44.109  25.042   2.278
53263W        W18490  16.294  42.877   2.389
53264W        W18491  21.729  15.672   3.297
53265W        W18492  38.843  38.250  11.954
53266W        W18493  27.000  22.633   4.624
53267W        W18494   7.102  26.208  11.632
53268W        W18495  38.231  19.679   1.912
53269W        W18496   6.102  21.279   4.394
53270W        W18497  38.832   6.733  14.474
53271W        W18498  41.861  42.197  11.956
53272W        W18499   0.383  38.444  13.457
53273W        W18500  37.554  26.118  12.893
53274W        W18501  38.815  29.250   4.600
53275W        W18502  43.824   1.851   4.544
53276W        W18503  44.669  21.684  13.432
53277W        W18504  28.267  14.284  14.412
53278W        W18505   2.667   5.384   0.435
53279W        W18506  11.522  12.034  14.893
53280W        W18507  26.014  44.790  13.431
53281W        W18508  16.348  30.703  11.584
53282W        W18509   6.850  39.295   1.494
53283W        W18510  40.982   4.145   2.127
53284W        W18511  24.203  37.797   3.354
53285W        W18512  16.108  18.493   2.633
53286W        W18513  15.341  22.633   0.766
53287W        W18514  13.366   6.699   0.192
53288W        W18515   0.281  20.629   0.262
53289W        W18516  36.425  38.107   4.142
53290W        W18517  40.343  19.237   2.371
53291W        W18518  11.797   9.190   2.955
53292W        W18519  23.055  35.533   4.714
53293W        W18520  10.674   4.981  11.014
53294W        W18521   6.384  17.646  11.349
53295W        W18522  40.700   1.277   3.059
53296W        W18523   7.370  12.465  12.576
53297W        W18524  30.831   1.409   1.087
53298W        W18525  35.671  22.767   0.251
53299W        W18526   8.653  37.377   3.705
53300W        W18527  36.136   5.175  14.820
53301W        W18528  21.781  44.298  13.576
53302W        W18529  13.797  13.816   4.138
53303W        W18530  22.820  25.651   3.192
53304W        W18531  16.174  40.425   1.441
53305W        W18532  10.372  20.130   4.662
53306W        W18533  34.540  34.671  10.160
53307W        W18534  40.795   8.419  14.567
53308W        W18535  10.164  28.476  12.986
53309W        W18536  18.106  27.884  10.497
53310W        W18537  39.917  15.140   1.406
53311W        W18538   0.224  28.750   0.886
53312W        W18539  31.043  42.116   1.126
53313W        W18540  30.903  10.681  14.888
53314W        W18541  15.934  44.078  10.451
53315W        W18542   2.843   9.332  14.976
53316W        W18543  43.082  27.731  14.706
53317W        W18544  40.142   6.844   1.335
53318W        W18545   6.631   3.335   0.547
53319W        W18546  16.172  40.937  11.615
53320W        W18547   2.263   7.117   1.328
53321W        W18548  21.692   9.002  14.273
53322W        W18549  30.703  41.838   1.389
53323W        W18550  41.725  18.271  11.232
53324W        W18551  12.329  40.412   2.251
53325W        W18552   3.723  10.844  14.964
53326W        W18553   4.712  33.983  12.854
53327W        W18554  10.111  30.447   1.656
53328W        W18555  17.461  35.060   3.724
53329W        W18556  25.253  30.107  12.945
53330W        W18557   0.966   4.329  12.973
53331W        W18558  29.567  42.536   3.283
53332W        W18559   9.114  39.081  13.362
53333W        W18560   9.191  19.425  14.412
53334W        W18561   6.522   3.387  12.047
53335W        W18562  18.150  13.369   2.817
53336W        W18563  27.486  10.387  14.767
53337W        W18564  26.399  14.888   0.501
53338W        W18565  20.120   2.595  11.943
53339W        W18566  40.424   8.444  10.772
53340W        W18567  43.939  25.562   2.549
53341W        W18568  27.987  42.242   0.950
53342W        W18569  24.292  42.743   4.869
53343W        W18570  28.393   9.764   1.294
53344W        W18571  37.358   0.608  12.097
53345W        W18572  33.132  38.785  14.464
53346W        W18573  33.583   4.950  11.715
53347W        W18574  42.003  40.554   4.711
53348W        W18575  14.807  28.557  11.688
53349W        W18576  35.667  37.417   4.123
53350W        W18577   5.744   7.352   0.913
53351W        W18578  41.566  35.917  13.611
53352W        W18579  27.164  36.244   0.433
53353W        W18580   4.452  12.878  14.942
53354W        W18581   0.526   3.961  14.526
53355W        W18582  13.818  29.139  10.748
53356W        W18583   8.630  37.399   1.927
53357W        W18584  27.937   3.925  14.666
53358W        W18585  14.863  32.021   9.708
53359W        W18586  26.212   5.048   3.253
53360W        W18587  23.209  13.718   4.801
53361W        W18588  10.852   9.101   1.207
53362W        W18589  10.227  10.289   2.215
53363W        W18590  29.038  44.674  14.589
53364W        W18591  39.344  15.822   1.334
53365W        W18592  25.566  39.564   1.849
53366W        W18593  32.633  18.463  13.064
53367W        W18594  30.359   0.477   1.909
53368W        W18595  21.921   6.662   3.286
53369W        W18596   8.328   0.999  13.569
53370W        W18597  36.997   3.317  12.586
53371W        W18598   7.963  35.386   0.975
53372W        W18599  23.896  37.363  13.033
53373W        W18600  23.315  44.509   2.699
53374W        W18601  38.425  25.546   3.893
53375W        W18602  12.630  15.910   1.835
53376W        W18603   4.225  39.900  11.176
53377W        W18604  27.714  36.650   4.748
53378W        W18605  23.055  33.326   4.306
53379W        W18606  25.007  19.577   4.631
53380W        W18607  38.469  37.858  14.410
53381W        W18608  28.194  42.859   1.234
53382W        W18609  39.365  15.854   3.691
53383W        W18610  18.319  32.158  11.619
53384W        W18611   9.017   7.861   0.861
53385W        W18612  21.799  20.130  14.342
53386W        W18613   6.211  19.768   1.811
53387W        W18614  11.888  42.063  13.597
53388W        W18615  35.810   5.904  12.516
53389W        W18616   8.290  12.640  14.674
53390W        W18617  24.410  35.435  13.318
53391W        W18618  10.287  31.641  12.575
53392W        W18619   0.252  25.531  14.857
53393W        W18620  15.214  23.156  10.625
53394W        W18621   9.341   7.240   4.766
53395W        W18622  34.043  24.602   2.200
53396W        W18623  29.495  35.353  13.699
53397W        W18624  21.633  34.620   0.289
53398W        W18625  24.695  28.435  11.968
53399W        W18626   6.179   3.018   1.269
53400W        W18627  26.449  39.775  12.029
53401W        W18628   7.845   8.627   1.218
53402W        W18629   3.153  35.068  13.998
53403W        W18630   9.027  40.556  10.298
53404W        W18631  14.706  11.896  11.705
53405W        W18632  30.588  26.087  11.628
53406W        W18633  19.154  15.597   0.935
53407W        W18634  14.564  15.838  14.934
53408W        W18635  30.383  39.402   2.013
53409W        W18636  20.596  43.463  12.784
53410W        W18637  28.864  12.378  11.525
53411W        W18638  10.048  13.383   0.435
53412W        W18639  37.759  26.722   2.944
53413W        W18640  35.505  27.975  13.527
53414W        W18641  41.582   8.145   2.883
53415W        W18642  34.584  19.572   4.529
53416W        W18643  24.047   9.584  11.205
53417W        W18644  25.463   8.628  10.681
53418W        W18645  42.929   2.260  11.535
53419W        W18646  29.431  14.379  10.164
53420W        W18647   5.060   5.064  11.178
53421W        W18648  31.761  36.283  10.624
53422W        W18649   6.875   9.686   4.732
53423W        W18650  19.026  21.584  10.778
53424W        W18651   4.016  37.064  14.110
53425W        W18652  16.208  24.642   4.583
53426W        W18653  19.568  12.484  10.520
53427W        W18654   6.643   2.989   3.307
53428W        W18655  42.794  10.784   3.179
53429W        W18656  33.976  17.144  12.484
53430W        W18657  24.842   1.439  12.522
53431W        W18658  35.819  30.254  11.637
53432W        W18659  20.814  21.557  12.810
53433W        W18660  24.386   2.495  12.415
53434W        W18661   4.955  10.794  10.731
53435W        W18662  41.786  18.110   0.432
53436W        W18663  39.575  33.459  11.603
53437W        W18664  38.311  14.779  10.699
53438W        W18665   7.852  10.776   4.560
53439W        W18666  22.656  28.828   3.559
53440W        W18667  25.555  28.762  14.287
53441W        W18668  14.624   1.708   1.652
53442W        W18669  15.892  30.303   1.818
53443W        W18670  28.444   6.301  11.251
53444W        W18671   8.086  39.230   0.653
53445W        W18672  42.891  19.912   2.131
53446W        W18673  34.313  42.760   1.738
53447W        W18674  21.162   8.136  13.083
53448W        W18675  23.357  25.063   2.904
53449W        W18676  14.748  23.631  12.595
53450W        W18677  18.227   4.472  13.324
53451W        W18678  17.965  12.391  14.299
53452W        W18679  24.626  37.332  10.512
53453W        W18680  28.540  39.430  11.572
53454W        W18681  33.388  27.713  12.897
53455W        W18682  32.481  32.929   1.319
53456W        W18683  18.389  14.175   1.161
53457W        W18684  14.819   1.558  10.613
53458W        W18685   4.393  25.319  12.150
53459W        W18686  42.871  26.751  14.960
53460W        W18687  10.550  35.106  11.231
53461W        W18688  32.541  31.492   0.340
53462W        W18689  29.002  16.077   4.087
53463W        W18690  24.143   6.479   2.341
53464W        W18691  11.286  31.342   0.241
53465W        W18692   3.227  17.151  14.898
53466W        W18693  15.623  29.815  11.267
53467W        W18694  20.560   0.271   0.714
53468W        W18695   6.171  14.595   0.762
53469W        W18696  33.411  19.778   4.169
53470W        W18697  22.000  43.245  14.415
53471W        W18698   5.674  19.940  11.648
53472W        W18699  10.938  10.658   3.717
53473W        W18700  13.278  29.620   0.706
53474W        W18701  16.047  13.818  11.099
53475W        W18702  27.709  21.964  13.847
53476W        W18703  38.152  22.416   9.976
53477W        W18704  33.421  24.375   4.118
53478W        W18705  15.567   8.790  12.451
53479W        W18706  22.681   8.930  12.496
53480W        W18707   2.403  43.499  13.008
53481W        W18708  11.667  14.342   1.896
53482W        W18709  11.242  30.962  14.302
53483W        W18710  25.169  22.066   1.104
53484W        W18711  23.410  32.535   1.402
53485W        W18712   6.950  11.778   1.891
53486W        W18713  14.655  32.476   9.857
53487W        W18714  34.951  30.711  12.715
53488W        W18715  18.809  29.614  13.830
53489W        W18716  36.893  27.069  12.400
53490W        W18717   9.188  22.299  12.062
53491W        W18718  30.545  20.715  11.803
53492W        W18719  34.884   5.215   4.573
53493W        W18720  22.677  26.769  14.443
53494W        W18721  21.761   0.132   2.458
53495W        W18722   0.422   5.516  12.454
53496W        W18723  39.515   5.872  13.584
53497W        W18724  31.300   4.135   4.538
53498W        W18725  25.044  29.987  13.407
53499W        W18726  35.876  27.619  14.225
53500W        W18727   7.830  37.662  10.293
53501W        W18728   7.634   4.749   2.839
53502W        W18729  31.543  30.751  13.112
53503W        W18730  32.226  32.742   4.094
53504W        W18731  42.430  37.493   1.789
53505W        W18732   7.531   8.524   4.223
53506W        W18733  36.123  21.773  10.837
53507W        W18734  16.913  27.997   2.255
53508W        W18735  43.890  17.522  12.595
53509W        W18736  36.028  27.201  13.946
53510W        W18737  31.588  36.598  12.991
53511W        W18738  14.678   3.815  12.949
53512W        W18739  14.560  19.187  12.572
53513W        W18740   0.029  33.573   1.208
53514W        W18741  13.812  15.286   3.888
53515W        W18742  31.889  24.115  14.811
53516W        W18743  37.097  26.088  11.050
53517W        W18744  38.844  27.995   1.380
53518W        W18745  44.805  26.932   1.020
53519W        W18746  35.929  40.882  11.566
53520W        W18747  34.495   0.846  12.155
53521W        W18748  31.523  14.214   0.389
53522W        W18749  17.377  31.851   4.792
53523W        W18750  22.221  26.737   3.717
53524W        W18751  39.165  31.199   0.415
53525W        W18752  19.046  34.840   2.427
53526W        W18753  36.234   5.917   9.804
53527W        W18754   6.695  14.267  13.483
53528W        W18755  23.035  32.051  13.487
53529W        W18756   7.273  30.555  13.351
53530W        W18757  21.972  42.727  12.654
53531W        W18758  29.420  39.859  14.753
53532W        W18759  41.029  40.604   3.980
53533W        W18760  41.499  36.780   1.261
53534W        W18761   1.677  39.349   0.279
53535W        W18762  43.353   2.501  11.264
53536W        W18763  34.755   6.642  11.143
53537W        W18764   8.647  35.908  11.113
53538W        W18765  33.080  39.340   1.201
53539W        W18766  32.684  12.390  10.418
53540W        W18767   6.978  28.493   3.067
53541W        W18768  39.881  19.956  12.063
53542W        W18769  27.160  22.638  12.963
53543W        W18770  10.712  34.810  11.654
53544W        W18771   4.357  42.881   0.418
53545W        W18772  21.915   0.225   4.184
53546W        W18773   3.663  11.222  14.573
53547W        W18774  19.567  29.062  12.213
53548W        W18775  44.095   4.216   3.496
53549W        W18776  36.895  44.190   0.330
53550W        W18777  34.015  39.771  14.286
53551W        W18778  26.965  10.204   0.747
53552W        W18779  12.562  41.983   2.373
53553W        W18780  34.353  34.010  12.027
53554W        W18781  43.172   5.680   3.296
53555W        W18782   4.718  41.375  13.901
53556W        W18783  32.896  42.326   0.415
53557W        W18784  28.921  43.934  12.669
53558W        W18785   4.462  33.321   2.291
53559W        W18786  12.131  28.104   4.008
53560W        W18787  30.175  25.897   3.461
53561W        W18788  11.267   8.761  10.411
53562W        W18789   8.263   6.112   1.656
53563W        W18790   4.152  25.312  13.921
53564W        W18791  11.117  26.634   3.270
53565W        W18792  12.455  18.608   1.315
53566W        W18793  33.909  18.355   3.239
53567W        W18794  41.492  19.535  11.255
53568W        W18795  34.595  28.238   4.110
53569W        W18796  16.568  29.418   3.675
53570W        W18797  38.405  18.743   3.280
53571W        W18798   0.849  21.554   0.962
53572W        W18799  40.131  25.564  10.435
53573W        W18800   0.339  20.071   1.446
53574W        W18801  41.493   0.963   1.754
53575W        W18802  41.541  13.268   2.433
53576W        W18803  40.567  35.312   2.665
53577W        W18804  30.916   4.335   1.331
53578W        W18805  33.052  17.236   2.672
53579W        W18806  30.170  35.648  12.107
53580W        W18807  20.607   2.441   3.868
53581W        W18808  29.963  32.416   2.011
53582W        W18809  24.985  34.499   3.179
53583W        W18810  22.150  18.337   0.893
53584W        W18811  26.715   4.364   0.839
53585W        W18812  31.514  25.937  11.595
53586W        W18813  22.968  29.421   1.663
53587W        W18814   5.291  20.133   5.059
53588W        W18815  31.185   1.446   2.481
53589W        W18816  24.502  11.763   3.292
53590W        W18817  35.292  11.672   4.340
53591W        W18818  16.303  15.760   4.126
53592W        W18819  41.834   0.255  14.635
53593W        W18820   7.887  39.279   3.687
53594W        W18821   0.687  37.967  12.588
53595W        W18822  27.543  17.544   4.387
53596W        W18823  41.710  18.852  13.645
53597W        W18824   0.921  14.830   4.475
53598W        W18825  11.112  38.436   1.765
53599W        W18826  26.728  19.755   0.390
53600W        W18827  34.832  44.494  11.275
53601W        W18828  25.652  33.566   0.442
53602W        W18829  25.171   6.861   0.664
53603W        W18830  34.873  38.353  14.073
53604W        W18831  29.644   1.261   2.351
53605W        W18832   0.767  39.309   3.988
53606W        W18833  29.988  19.243  13.404
53607W        W18834  13.285  34.525   4.551
53608W        W18835  30.404   1.065   1.195
53609W        W18836   1.415   8.358   0.622
53610W        W18837  26.005  24.240  13.788
53611W        W18838   2.960   9.548  10.790
53612W        W18839  15.048  28.118  10.686
53613W        W18840  10.646  10.975   4.082
53614W        W18841  32.548  12.342  11.964
53615W        W18842  18.170  36.815   1.768
53616W        W18843   0.303  18.106   0.538
53617W        W18844  34.582   9.727  12.611
53618W        W18845   3.902  12.126  11.529
53619W        W18846  16.735  19.743  14.853
53620W        W18847   6.839  43.895  13.484
53621W        W18848   6.130  22.046   1.808
53622W        W18849  22.419   5.166   1.799
53623W        W18850   7.363  27.487  11.879
53624W        W18851   0.683  15.167  13.551
53625W        W18852   3.351   8.382  11.628
53626W        W18853  14.016   3.475   1.100
53627W        W18854  34.822   9.401   4.514
53628W        W18855  21.166   6.721  11.150
53629W        W18856  28.406  22.383  13.037
53630W        W18857  14.155  39.293  14.527
53631W        W18858  10.667  15.867   1.303
53632W        W18859  13.565  34.014  11.941
53633W        W18860  40.072  26.184   3.399
53634W        W18861  42.336  20.275  12.135
53635W        W18862  44.472  14.679   3.057
53636W        W18863  13.562  28.850  14.755
53637W        W18864   9.866  36.259  10.749
53638W        W18865   1.824  23.053   4.398
53639W        W18866  44.405  35.288  12.946
53640W        W18867   7.304  21.794   0.819
53641W        W18868  17.510  34.140   2.685
53642W        W18869  40.463   2.817  10.109
53643W        W18870  32.534  38.910   2.699
53644W        W18871  21.644  15.362   0.469
53645W        W18872  27.125  30.412  12.088
53646W        W18873  13.539  22.966   2.671
53647W        W18874  16.584  17.800   2.868
53648W        W18875  14.607  14.861   1.871
53649W        W18876   3.616  40.840  12.347
53650W        W18877  16.590   1.162   4.252
53651W        W18878   8.667  27.004   0.994
53652W        W18879  26.219  40.295  11.453
53653W        W18880  42.107  27.124  11.953
53654W        W18881  15.159  34.628   4.743
53655W        W18882   1.307  42.974   2.150
53656W        W18883  41.687  36.914   5.002
53657W        W18884  17.236   6.715   2.386
53658W        W18885   6.433  25.018  14.390
53659W        W18886  29.200  41.950   1.418
53660W        W18887  11.038  23.936  13.504
53661W        W18888   8.913  13.062  14.554
53662W        W18889  37.532  19.540  14.015
53663W        W18890  41.618  44.940  10.661
53664W        W18891  41.806  35.887   4.689
53665W        W18892  41.016  41.084   1.799
53666W        W18893  43.421  42.274   3.419
53667W        W18894  36.853  28.550   3.253
53668W        W18895  26.063   2.990   1.791
53669W        W18896  16.274   9.823   4.014
53670W        W18897   9.847  19.380   1.735
53671W        W18898   7.164  17.471   3.137
53672W        W18899  29.726  24.247  12.552
53673W        W18900  38.852   7.627   0.853
53674W        W18901  25.164  29.843   4.763
53675W        W18902   1.697   7.676  12.515
53676W        W18903  34.465   4.119  14.464
53677W        W18904  31.596  10.537  13.525
53678W        W18905  11.051  16.140  13.853
53679W        W18906  24.561  44.176   4.953
53680W        W18907  26.676  39.014   0.382
53681W        W18908  41.205  42.468   0.794
53682W        W18909   3.704  42.741  14.853
53683W        W18910  31.720   9.878   4.431
53684W        W18911  44.547   2.769  11.949
53685W        W18912  22.620  22.094   0.756
53686W        W18913   4.749  33.076  14.471
53687W        W18914   7.349  36.048  14.836
53688W        W18915  37.232   9.558  12.862
53689W        W18916   5.926   4.208   2.633
53690W        W18917  30.180  18.638   2.670
53691W        W18918  44.790  40.083  11.502
53692W        W18919  27.735  39.437   4.320
53693W        W18920  27.376  42.413  13.458
53694W        W18921  42.588  40.745  11.028
53695W        W18922  28.589  41.738  12.892
53696W        W18923  12.053  22.933  14.390
53697W        W18924   4.360   5.253   0.281
53698W        W18925  37.428  38.471   3.736
53699W        W18926  22.046  44.692   0.271
53700W        W18927  16.309  13.706   1.928
53701W        W18928  22.145  18.592   1.987
53702W        W18929   9.347  39.795  12.974
53703W        W18930   9.460  35.876  14.745
53704W        W18931  36.808   9.568   0.327
53705W        W18932  19.172  43.025   1.882
53706W        W18933  26.130  43.230   1.364
53707W        W18934  18.026   3.296  12.397
53708W        W18935   8.111   7.386   3.291
53709W        W18936  11.618   3.802   3.762
53710W        W18937  16.564  27.549   3.509
53711W        W18938  17.283  21.220   4.001
53712W        W18939  24.523  13.779   0.019
53713W        W18940  10.885  28.171  12.661
53714W        W18941  30.213   3.463   0.467
53715W        W18942  36.512  14.356   0.922
53716W        W18943  27.897  10.052   3.089
53717W        W18944  42.628   5.904   4.268
53718W        W18945  18.457  30.446   3.665
53719W        W18946   2.321   4.156  10.955
53720W        W18947  24.582  21.182   2.209
53721W        W18948   3.942   2.577  10.709
53722W        W18949  16.554   8.509  11.110
53723W        W18950  10.879  43.978   4.901
53724W        W18951   7.226   9.871   0.350
53725W        W18952   2.962   6.496  13.545
53726W        W18953  25.277  14.320  12.439
53727W        W18954  41.338  16.621  11.654
53728W        W18955   5.692  36.254  11.618
53729W        W18956  33.298  32.696   3.220
53730W        W18957  21.738  42.248  12.979
53731W        W18958  39.331  23.541   3.499
53732W        W18959  23.792  10.677  13.609
53733W        W18960   1.459  15.425  14.394
53734W        W18961  12.023  39.031  10.334
53735W        W18962  18.801   1.243   1.274
53736W        W18963   3.067  10.495   3.706
53737W        W18964  24.576  17.994  12.953
53738W        W18965   3.969  13.696  14.990
53739W        W18966  17.187  27.577   2.837
53740W        W18967   9.663  44.324   3.174
53741W        W18968   0.761  22.659  12.090
53742W        W18969  26.133  32.078  11.107
53743W        W18970   7.218  23.538  12.442
53744W        W18971  16.773  43.492   2.283
53745W        W18972  37.642  14.715   4.587
53746W        W18973  21.873  26.339  12.445
53747W        W18974  23.225   0.256   0.307
53748W        W18975  39.478  33.911  10.967
53749W        W18976  13.177  27.657  11.525
53750W        W18977  19.447  39.541   2.209
53751W        W18978  44.538  33.203   4.418
53752W        W18979   1.426  43.946  13.872
53753W        W18980  23.535  25.069   0.034
53754W        W18981  24.961  40.093   0.812
53755W        W18982  13.268   3.889  11.522
53756W        W18983  34.782  22.206   3.669
53757W        W18984  40.456   0.759  10.318
53758W        W18985  28.442  18.585  11.513
53759W        W18986   9.585  24.209   1.284
53760W        W18987  31.609  15.232   4.960
53761W        W18988  13.333  23.218   4.485
53762W        W18989  14.813  24.491   3.729
53763W        W18990  11.601  23.030  11.603
53764W        W18991   8.201  38.249   2.224
53765W        W18992  22.219  30.059   1.853
53766W        W18993  40.900   4.872   1.907
53767W        W18994  10.924  13.243  11.220
53768W        W18995  35.227   2.491  13.723
53769W        W18996  30.138   9.035   0.974
53770W        W18997  12.959  42.425  14.090
53771W        W18998  14.778  39.018   3.249
53772W        W18999  22.531  16.148   2.364
53773W        W19000  16.684  40.860   2.021
53774W        W19001   3.731   3.669   0.055
53775W        W19002  12.268  14.779   1.518
53776W        W19003  10.232  38.597   4.168
53777W        W19004  24.142  12.820  10.731
53778W        W19005  30.572   8.914   0.220
53779W        W19006  29.113  18.755   4.927
53780W        W19007  22.255  23.954  13.138
53781W        W19008  11.599  39.867   1.196
53782W        W19009  10.461   5.509   1.827
53783W        W19010  38.510  32.056  14.768
53784W        W19011  13.914  37.285  10.413
53785W        W19012  31.547  35.373  12.168
53786W        W19013  23.576   3.320   4.461
53787W        W19014  41.424  31.331  13.529
53788W        W19015  23.446  15.375   3.598
53789W        W19016   8.525   7.650   0.987
53790W        W19017  39.289  24.942   4.774
53791W        W19018  39.618  42.388   3.796
53792W        W19019  27.359   8.672   1.660
53793W        W19020  19.144  12.151  10.634
53794W        W19021   3.651  26.998  12.901
53795W        W19022  11.689  44.002  13.816
53796W        W19023  36.442  33.046  12.704
53797W        W19024   3.336   1.165   2.079
53798W        W19025  19.294  32.425  13.326
53799W        W19026   0.152  41.465  10.710
53800W        W19027  28.627  30.581  12.006
53801W        W19028   7.210  27.522   2.209
53802W        W19029  11.358  34.944  12.712
53803W        W19030  32.137  42.165  12.600
53804W        W19031  30.906  27.488  12.116
53805W        W19032  26.547  34.986   3.636
53806W        W19033  12.343   5.673  11.139
53807W        W19034  10.211  21.164  14.534
53808W        W19035   5.826   6.369  11.622
53809W        W19036   5.196   0.357  13.332
53810W        W19037   2.851  19.216   3.746
53811W        W19038   7.116  29.261   2.957
53812W        W19039  18.628  29.688  12.085
53813W        W19040  24.039  30.809  14.482
53814W        W19041  19.718  17.562  13.918
53815W        W19042  23.822  14.842   2.125
53816W        W19043   7.773  15.625  13.251
53817W        W19044   3.671  37.969  11.177
53818W        W19045   7.744  43.308   3.786
53819W        W19046  44.267  38.560  10.246
53820W        W19047  38.425   7.966   2.128
53821W        W19048  32.929  37.842  14.827
53822W        W19049  43.504  38.403  13.966
53823W        W19050  18.789  36.923   3.853
53824W        W19051  35.452  21.134  13.417
53825W        W19052   8.917  38.311  14.499
53826W        W19053  33.739  43.470   1.625
53827W        W19054  39.519  36.830  12.826
53828W        W19055  10.687  23.981   3.339
53829W        W19056  11.262   0.534   3.191
53830W        W19057  33.348  41.453   2.174
53831W        W19058  43.412  36.483   0.125
53832W        W19059  25.941   9.241   4.533
53833W        W19060  32.812  15.703   0.074
53834W        W19061   5.322  24.262   2.280
53835W        W19062   9.408  37.420   2.402
53836W        W19063  42.784  44.547   1.003
53837W        W19064   2.507  27.648   3.119
53838W        W19065  44.747  29.565   2.836
53839W        W19066  16.149  27.136  11.070
53840W        W19067  14.602  11.192  13.602
53841W        W19068  15.503  22.520   1.822
53842W        W19069  27.067   8.586  13.620
53843W        W19070  27.187  18.144   2.495
53844W        W19071   5.289  29.039   1.742
53845W        W19072  22.108  37.748   0.954
53846W        W19073   7.484  37.228  11.549
53847W        W19074  11.222  28.647  14.421
53848W        W19075  14.098   0.336   2.864
53849W        W19076  41.273  40.160   4.142
53850W        W19077  16.047   2.013  13.505
53851W        W19078  40.361  20.118   3.257
53852W        W19079  20.393  44.065  10.730
53853W        W19080  43.578  44.832  13.748
53854W        W19081  12.426   2.934   3.709
53855W        W19082  17.358  22.484   1.778
53856W        W19083  25.361  17.268   1.360
53857W        W19084   5.416  27.700   1.452
53858W        W19085  10.888  33.183   2.231
53859W        W19086  11.460   6.279   0.749
53860W        W19087  12.439  28.993  10.762
53861W        W19088  43.419  14.437  10.660
53862W        W19089  32.444   2.320   0.969
53863W        W19090  22.701  27.821   3.696
53864W        W19091   1.851  38.901  14.339
53865W        W19092  25.286  37.862  14.966
53866W        W19093   5.382  20.139  13.641
53867W        W19094  11.946  23.786  11.082
53868W        W19095   3.892  12.396  11.971
53869W        W19096  28.707  11.814   3.105
53870W        W19097  41.523  19.018   9.768
53871W        W19098  38.972  18.963   4.137
53872W        W19099   2.689  32.549  12.970
53873W        W19100  35.827  39.274  13.089
53874W        W19101  19.467  39.106  14.442
53875W        W19102  22.491  26.307   9.817
53876W        W19103   3.940  13.301   3.723
53877W        W19104  10.253  12.599  14.393
53878W        W19105  22.648   6.259   1.292
53879W        W19106  20.814  14.786   2.464
53880W        W19107  23.257  15.786   0.810
53881W        W19108   8.648   7.294   1.829
53882W        W19109   7.812  12.721  13.995
53883W        W19110  32.466   0.062   3.275
53884W        W19111  39.276  10.654  13.392
53885W        W19112  30.940  27.887   9.814
53886W        W19113  10.802   5.921   0.772
53887W        W19114  44.154  30.494   0.322
53888W        W19115  36.923  24.267  11.569
53889W        W19116  44.862  18.584  11.426
53890W        W19117  29.195  14.299  12.727
53891W        W19118   4.725  12.653  12.226
53892W        W19119  13.096  40.706   0.995
53893W        W19120  31.449  30.647   2.756
53894W        W19121  39.075  19.536  14.927
53895W        W19122  18.026  39.335   4.451
53896W        W19123  12.059  17.064   9.786
53897W        W19124  40.308   6.397   3.475
53898W        W19125  25.127   5.382   1.178
53899W        W19126  22.800  12.682   4.091
53900W        W19127  44.159  11.713  11.704
53901W        W19128  40.390  32.164   3.552
53902W        W19129   5.684  40.621   4.117
53903W        W19130  33.329   0.702   2.674
53904W        W19131  44.339  23.960  11.071
53905W        W19132  19.582  13.526   2.780
53906W        W19133  33.148   2.387  13.026
53907W        W19134  18.844  26.480  13.086
53908W        W19135  40.309  35.801  11.367
53909W        W19136  14.572  22.076   2.825
53910W        W19137   6.318   6.252   4.623
53911W        W19138  10.365  38.345   1.476
53912W        W19139  23.718  29.065   0.391
53913W        W19140  20.530  26.662   2.047
53914W        W19141  44.138  11.689  14.067
53915W        W19142   2.718   2.383  11.734
53916W        W19143  29.357   2.360   1.215
53917W        W19144  28.316  22.921  10.429
53918W        W19145   9.784   5.157  12.412
53919W        W19146   1.873  34.856  11.915
53920W        W19147  10.375  26.124   2.427
53921W        W19148  43.572  22.802   4.884
53922W        W19149  32.248  40.147  10.658
53923W        W19150  17.831  13.223   1.396
53924W        W19151  39.724  38.813  13.694
53925W        W19152  39.542  21.080  12.371
53926W        W19153  27.220  36.857   0.827
53927W        W19154   5.870   5.517  11.976
53928W        W19155   0.805   6.742  14.976
53929W        W19156  37.072   3.424   3.584
53930W        W19157  27.037  21.473  11.014
53931W        W19158  44.278  14.542  12.094
53932W        W19159  10.598  31.465   4.334
53933W        W19160  14.109  23.430  11.084
53934W        W19161   3.134  35.854  14.423
53935W        W19162  34.362  42.627  12.526
53936W        W19163   1.838  40.253   1.333
53937W        W19164   8.333   9.564  13.910
53938W        W19165   9.406  21.723  11.554
53939W        W19166  16.046  39.322  10.615
53940W        W19167  27.151   0.489   2.110
53941W        W19168  13.785  37.107   2.202
53942W        W19169  26.311  30.882   1.050
53943W        W19170   2.306  37.893  13.517
53944W        W19171  14.328  14.793   3.287
53945W        W19172  20.067   5.435   1.919
53946W        W19173  13.878  18.360   3.990
53947W        W19174  11.689  25.105   4.085
53948W        W19175  21.197   8.157  14.407
53949W        W19176  42.768  15.242  13.357
53950W        W19177  20.681   7.001  10.432
53951W        W19178  40.062  40.815   2.129
53952W        W19179   9.325   0.943   4.122
53953W        W19180  44.733  44.847   4.080
53954W        W19181  32.621   0.261   2.352
53955W        W19182   2.486   5.932   3.253
53956W        W19183  22.202  19.330   1.319
53957W        W19184  18.633  21.159  11.566
53958W        W19185  15.343   8.160  14.949
53959W        W19186  37.479   4.673   3.893
53960W        W19187  11.306   7.887   2.882
53961W        W19188  35.989  35.584  12.011
53962W        W19189  13.414  34.264   1.448
53963W        W19190  30.552  44.455  12.061
53964W        W19191  23.887  28.588   2.657
53965W        W19192  41.938  13.338  13.478
53966W        W19193   9.630  28.506  13.969
53967W        W19194  32.075  22.911  12.391
53968W        W19195   0.918  26.492   0.243
53969W        W19196  21.446   1.860   1.950
53970W        W19197  41.115  24.340  14.251
53971W        W19198  38.592  29.628  14.771
53972W        W19199   4.201  36.265   0.468
53973W        W19200  20.078  41.347  14.199
53974W        W19201  14.329  25.067  11.624
53975W        W19202   7.895  19.871   2.040
53976W        W19203  22.006  20.836  14.341
53977W        W19204  24.787   0.239  13.466
53978W        W19205  18.428  40.006   0.133
53979W        W19206  20.170  29.409   1.902
53980W        W19207  10.701  38.618  12.459
53981W        W19208  31.482  33.087   4.500
53982W        W19209  12.698   9.324  11.640
53983W        W19210  26.557  26.662  10.728
53984W        W19211   4.450  20.150  12.184
53985W        W19212   1.800  16.780   4.114
53986W        W19213  22.781  36.707   0.938
53987W        W19214   9.242  19.693   4.496
53988W        W19215  32.389   6.831  12.540
53989W        W19216  26.122  18.774  13.874
53990W        W19217   4.124  25.000  10.409
53991W        W19218   2.755   0.568  11.271
53992W        W19219   5.751   4.759  13.419
53993W        W19220  43.568  40.326   3.520
53994W        W19221  25.753  37.891   0.906
53995W        W19222   5.206  11.202  10.490
53996W        W19223  13.616   3.664   1.371
53997W        W19224  37.948  44.276   4.588
53998W        W19225   2.851   0.189   1.841
53999W        W19226  41.247  25.654   4.175
54000W        W19227  29.785  14.086  14.439
54001W        W19228   9.213   7.246  14.993
54002W        W19229   6.948  32.818  11.025
54003W        W19230  26.906  25.536   2.063
54004W        W19231  26.086   8.395   2.521
54005W        W19232  35.868  21.711  13.520
54006W        W19233  18.187  39.089  14.934
54007W        W19234  37.043   5.364  12.425
54008W        W19235  14.661  15.920  10.637
54009W        W19236   5.719   9.638   1.839
54010W        W19237   9.222  33.787   0.509
54011W        W19238   9.330  29.385  14.880
54012W        W19239  14.715  41.568  11.698
54013W        W19240  43.110  38.610   2.261
54014W        W19241  16.806  16.981   4.363
54015W        W19242  23.091   2.799  14.943
54016W        W19243  32.711  27.821  10.688
54017W        W19244   4.016  37.913  13.394
54018W        W19245  44.863  30.844  11.638
54019W        W19246  18.560   7.424  13.574
54020W        W19247   9.353  14.543   1.954
54021W        W19248  33.369  39.568  14.866
54022W        W19249  28.603  24.301   4.308
54023W        W19250  24.285  33.230   0.194
54024W        W19251  10.047  10.377   0.446
54025W        W19252  16.382  30.505  11.108
54026W        W19253  11.542  43.455   1.917
54027W        W19254  10.838  38.461  10.675
54028W        W19255  43.990  15.212   2.720
54029W        W19256   0.290  42.478  12.353
54030W        W19257  10.140  21.680   3.752
54031W        W19258  40.158  30.301  14.890
54032W        W19259   5.915  38.147  11.604
54033W        W19260  34.093   7.651  12.052
54034W        W19261   1.661  40.207   4.531
54035W        W19262  13.089  25.652  10.715
54036W        W19263  20.482   1.851  11.046
54037W        W19264  31.529  13.559  14.458
54038W        W19265   3.066  27.635  12.372
54039W        W19266  23.749   3.311   5.490
54040W        W19267  43.498   6.750   0.210
54041W        W19268  18.812   4.290  12.659
54042W        W19269  16.045  33.030  11.551
54043W        W19270  41.819   5.800   0.766
54044W        W19271  43.089  31.117  11.118
54045W        W19272   8.888  29.456  12.533
54046W        W19273  42.869  21.784   2.807
54047W        W19274   1.523  15.254   3.831
54048W        W19275  34.664  17.086   1.286
54049W        W19276  14.063   2.781   0.133
54050W        W19277  13.353  29.098   2.701
54051W        W19278   0.294  40.225  13.010
54052W        W19279  27.104   1.772  11.860
54053W        W19280  40.239  42.816   4.526
54054W        W19281   5.386  31.676  11.967
54055W        W19282  39.885  16.163  13.767
54056W        W19283  20.194   0.867   2.741
54057W        W19284  41.182  44.269   0.370
54058W        W19285   8.941  19.631   3.601
54059W        W19286  11.205  14.893   0.749
54060W        W19287   9.955  29.581  12.002
54061W        W19288  33.704   0.802  10.856
54062W        W19289   5.164  27.029   4.470
54063W        W19290  28.526  27.653   0.252
54064W        W19291  39.991  32.522  13.951
54065W        W19292  32.242   8.796  10.748
54066W        W19293  24.757   5.784  14.902
54067W        W19294  24.026  33.426   4.317
54068W        W19295  28.007  36.699   0.430
54069W        W19296  32.023  31.722   1.655
54070W        W19297  20.155  29.988   2.791
54071W        W19298  28.492  23.444  12.416
54072W        W19299  23.420  19.721   3.764
54073W        W19300  27.514  23.597  12.156
54074W        W19301  42.287  36.833   2.564
54075W        W19302  29.953   0.302  14.866
54076W        W19303  29.861  40.931  10.450
54077W        W19304  39.408  35.264  11.300
54078W        W19305  44.497  13.168   4.180
54079W        W19306  23.667  26.227   2.090
54080W        W19307  31.108  21.113  13.985
54081W        W19308  40.902  12.566   3.189
54082W        W19309  38.880   3.010   3.864
54083W        W19310  16.663  37.887   0.474
54084W        W19311  23.131   3.712   4.001
54085W        W19312  26.476  25.625   3.401
54086W        W19313  43.961  25.629   3.578
54087W        W19314  35.264  29.804   2.407
54088W        W19315  22.740  39.017  11.956
54089W        W19316   6.975   7.885   4.464
54090W        W19317  34.699  38.602   0.785
54091W        W19318  20.523  21.972   3.771
54092W        W19319   3.357  26.751   0.530
54093W        W19320  19.056  24.614   3.482
54094W        W19321  34.622  13.344   9.736
54095W        W19322  37.883  37.873   4.086
54096W        W19323  23.943  27.566  12.513
54097W        W19324   7.888  22.057  13.571
54098W        W19325  31.472  33.016   0.926
54099W        W19326  28.285  39.922   4.978
54100W        W19327  33.405  24.083   2.161
54101W        W19328  24.141  17.127   1.259
54102W        W19329  13.508  24.923  14.526
54103W        W19330  27.434  40.417  10.160
54104W        W19331  26.959   4.848   0.813
54105W        W19332  19.445   1.160  12.846
54106W        W19333   5.231  43.301   2.713
54107W        W19334   3.657  43.015  13.483
54108W        W19335  44.507   9.326  10.646
54109W        W19336   0.970  27.425   3.128
54110W        W19337   3.229  24.547  12.119
54111W        W19338  43.109  41.950   3.166
54112W        W19339  24.211  29.616  10.893
54113W        W19340  29.341  22.769  12.481
54114W        W19341  18.770  18.334  12.119
54115W        W19342  13.717   0.177  12.379
54116W        W19343  29.972  22.722   4.674
54117W        W19344  28.087  13.380   1.180
54118W        W19345  22.535  13.883  12.116
54119W        W19346  37.390  35.763  14.282
54120W        W19347   7.071  30.630   2.664
54121W        W19348  24.127  14.778  11.961
54122W        W19349   6.552  41.472   0.897
54123W        W19350  19.128  24.304  11.450
54124W        W19351  38.865  12.188   0.693
54125W        W19352  44.333  36.266   4.483
54126W        W19353  14.376  14.797   1.398
54127W        W19354   1.485  28.995  11.753
54128W        W19355  34.828  18.126   4.512
54129W        W19356   1.383   1.972   2.801
54130W        W19357  15.080  26.097   1.655
54131W        W19358  26.366   1.386  12.908
54132W        W19359  24.586   2.958  14.831
54133W        W19360  32.311  26.349   3.969
54134W        W19361   8.791  22.459   1.734
54135W        W19362  26.606  10.764  13.961
54136W        W19363   7.640  44.256   3.679
54137W        W19364   9.239   8.748  10.894
54138W        W19365   9.173  37.401   3.758
54139W        W19366  26.586   2.306   4.692
54140W        W19367  13.581  25.122  12.184
54141W        W19368  12.923  24.007  12.785
54142W        W19369  40.485   1.026   4.587
54143W        W19370  20.064  38.918  13.371
54144W        W19371  20.693   7.503  14.110
54145W        W19372   9.848  34.616  14.570
54146W        W19373  20.095  16.950   4.530
54147W        W19374  11.239  13.528  12.084
54148W        W19375  18.787  14.304  12.929
54149W        W19376  20.166  22.677  11.713
54150W        W19377  22.514  38.025   0.205
54151W        W19378   2.863   9.618  14.519
54152W        W19379  25.427   1.839   0.822
54153W        W19380   6.969  17.889   2.306
54154W        W19381  36.115   2.903   3.916
54155W        W19382  15.093   2.805  11.143
54156W        W19383  42.498  41.803   4.494
54157W        W19384  27.551  18.490   3.998
54158W        W19385  26.684  10.246  12.805
54159W        W19386  40.520   6.316  12.864
54160W        W19387  30.445  25.989  10.446
54161W        W19388  16.050  40.323  12.376
54162W        W19389  14.743  17.905   2.678
54163W        W19390  29.168  14.565   3.300
54164W        W19391  39.534  39.624  14.041
54165W        W19392  24.932   8.041  11.667
54166W        W19393   4.384  15.254   4.717
54167W        W19394  28.070  23.665  14.703
54168W        W19395  19.231  30.556  10.889
54169W        W19396   6.453  16.558   3.205
54170W        W19397   2.450  31.850  12.800
54171W        W19398   9.798  11.787  11.924
54172W        W19399  36.069   7.134   3.615
54173W        W19400  35.759   5.509   0.719
54174W        W19401   5.358   0.342  11.012
54175W        W19402  22.463  20.244  13.906
54176W        W19403   4.035  36.071  11.587
54177W        W19404  22.797  14.116  12.481
54178W        W19405  12.376  12.639   0.766
54179W        W19406   3.200  16.253  12.147
54180W        W19407  40.574  23.242   2.248
54181W        W19408  23.996  42.082   4.119
54182W        W19409   9.628  13.632  13.880
54183W        W19410  40.010  15.655  13.945
54184W        W19411  18.935  36.538   2.854
54185W        W19412  13.348  29.886   1.577
54186W        W19413  14.140  16.109   2.445
54187W        W19414  36.645  23.261  13.371
54188W        W19415  25.119  24.264   1.756
54189W        W19416  38.971  40.674   3.310
54190W        W19417  13.368  11.229  14.034
54191W        W19418  32.687  35.964  13.365
54192W        W19419   4.552  15.996   1.017
54193W        W19420   4.664   2.186  13.637
54194W        W19421  13.082   6.386  12.044
54195W        W19422  13.127  22.380   4.718
54196W        W19423   0.916  26.167   3.720
54197W        W19424  11.778  21.774  13.934
54198W        W19425  22.900  37.206   1.217
54199W        W19426  32.879  20.154   4.859
54200W        W19427  18.955  43.945  11.905
54201W        W19428   8.644  33.418   2.654
54202W        W19429  21.644  32.758  10.824
54203W        W19430   3.877  10.020   0.407
54204W        W19431  34.307  19.809  10.428
54205W        W19432  13.638  19.683   2.352
54206W        W19433  32.059  34.957  10.478
54207W        W19434  39.268  40.966   4.583
54208W        W19435   5.215  31.005  10.766
54209W        W19436  32.560   2.019   3.806
54210W        W19437  18.806  36.040  11.201
54211W        W19438  41.603   9.608   1.343
54212W        W19439  37.254  41.543  11.965
54213W        W19440  43.370  38.633   1.743
54214W        W19441   6.174  11.512   4.830
54215W        W19442  34.948  37.042  13.708
54216W        W19443  31.054   8.782   1.860
54217W        W19444  24.624  24.286  14.046
54218W        W19445  42.298   0.801   4.161
54219W        W19446  43.052   3.417   0.736
54220W        W19447  40.160   7.431   2.787
54221W        W19448  35.228  44.146   1.393
54222W        W19449  21.194  15.196   1.829
54223W        W19450  40.670  26.103   1.281
54224W        W19451  37.558   6.698  13.939
54225W        W19452  20.933  29.915   1.409
54226W        W19453  43.579   6.803  12.923
54227W        W19454   7.915  20.762  10.452
54228W        W19455  41.968  37.782  12.065
54229W        W19456  26.146  10.744  14.866
54230W        W19457   5.993  42.211   4.112
54231W        W19458  17.276   0.083   2.182
54232W        W19459  12.265  43.106  13.803
54233W        W19460  37.396  21.485   3.365
54234W        W19461  22.650  42.798   0.890
54235W        W19462   9.946  19.625  14.247
54236W        W19463  41.675  18.627   1.170
54237W        W19464  35.519  35.541   0.311
54238W        W19465  39.458   3.174  12.397
54239W        W19466   2.446  25.748  14.357
54240W        W19467  44.906   1.202   9.887
54241W        W19468  15.263  12.737   0.315
54242W        W19469   3.983  37.612  14.531
54243W        W19470  40.397  29.123   3.209
54244W        W19471  14.301  41.040  13.891
54245W        W19472  20.037  37.971   4.625
54246W        W19473  11.415   4.843   2.362
54247W        W19474  27.091  36.359   3.630
54248W        W19475  41.570  23.585   0.241
54249W        W19476  43.244  27.162   2.739
54250W        W19477   1.232  41.464   0.357
54251W        W19478   8.261  41.905  13.867
54252W        W19479  24.309  28.178   0.294
54253W        W19480  44.229   8.064   3.589
54254W        W19481   9.770  23.797   4.527
54255W        W19482   6.239   9.945   3.611
54256W        W19483  39.808  32.719   3.348
54257W        W19484  17.032  16.164   1.327
54258W        W19485  41.118  14.275   4.123
54259W        W19486  37.579  39.857   3.156
54260W        W19487  16.516  36.520   2.218
54261W        W19488  44.817  22.699   3.292
54262W        W19489  22.664   4.351  14.744
54263W        W19490   8.056  17.692  12.120
54264W        W19491   3.767  22.783  13.593
54265W        W19492  30.159  35.452  11.517
54266W        W19493  24.642  18.312   4.966
54267W        W19494  13.267  23.267   1.720
54268W        W19495  11.323   3.222  13.308
54269W        W19496  30.628   6.621  14.892
54270W        W19497   1.904  11.298  13.847
54271W        W19498  16.978  13.935   3.705
54272W        W19499  29.590   1.154   3.270
54273W        W19500  31.307  34.113   4.649
54274W        W19501  33.209  36.156   4.885
54275W        W19502  16.149  27.979   0.597
54276W        W19503   2.313  37.843  10.743
54277W        W19504  34.914   9.918   1.845
54278W        W19505  10.221  13.798   3.233
54279W        W19506  28.235  43.459  13.089
54280W        W19507  42.448  14.255   3.723
54281W        W19508  12.695  38.534   1.718
54282W        W19509  26.692  39.530   0.413
54283W        W19510  32.602   2.013   2.308
54284W        W19511  35.434  43.100   1.383
54285W        W19512  37.264  21.534  14.396
54286W        W19513  22.521   9.246  13.853
54287W        W19514  31.394  10.453  14.897
54288W        W19515  11.706  26.972   4.856
54289W        W19516  18.158  18.053  11.009
54290W        W19517  36.008  18.662   4.517
54291W        W19518  19.773  20.548   0.632
54292W        W19519  22.766  42.893   2.706
54293W        W19520  26.387  22.569  12.153
54294W        W19521  13.058  30.623   1.379
54295W        W19522  44.039   3.216  12.983
54296W        W19523  44.015  40.990  14.102
54297W        W19524   9.764   0.167   0.632
54298W        W19525  23.804  34.633  14.968
54299W        W19526  27.394  10.361   1.799
54300W        W19527  11.218  13.948   4.072
54301W        W19528   1.998  26.997   2.691
54302W        W19529   7.071  19.860  11.618
54303W        W19530  14.633  23.506  13.132
54304W        W19531  20.994  24.894   1.615
54305W        W19532  37.421   0.965  12.480
54306W        W19533  14.855  34.912  11.677
54307W        W19534   2.871  38.572  11.856
54308W        W19535  40.322  27.350   3.860
54309W        W19536  31.591  37.060   2.092
54310W        W19537  26.002  10.830  11.635
54311W        W19538  38.047  16.309   0.809
54312W        W19539  19.668  26.147  10.134
54313W        W19540  29.261  20.906  12.010
54314W        W19541  37.809  26.165  10.335
54315W        W19542  39.572  27.051   1.664
54316W        W19543   0.502  25.303   9.982
54317W        W19544  11.859  27.729  11.154
54318W        W19545  21.710  31.216   0.092
54319W        W19546   8.735  25.943   1.025
54320W        W19547  39.747  37.060   4.523
54321W        W19548  16.111  38.326   3.100
54322W        W19549   0.433  33.811  11.728
54323W        W19550  12.695  43.873  10.375
54324W        W19551  26.586  31.453  13.387
54325W        W19552   5.776  17.563   0.339
54326W        W19553  44.264   9.874  11.572
54327W        W19554  17.283  24.295  14.697
54328W        W19555   3.488  10.140   3.729
54329W        W19556  24.642  12.875   3.371
54330W        W19557  42.897  36.481   0.232
54331W        W19558   0.769  15.193  10.603
54332W        W19559   0.303  11.983  11.985
54333W        W19560  15.533  37.598   4.079
54334W        W19561  23.444  13.246  12.019
54335W        W19562  29.706   9.679   2.697
54336W        W19563   9.664  27.865   2.538
54337W        W19564  34.980  22.993  14.134
54338W        W19565   8.518   6.708   1.087
54339W        W19566   7.844  11.966  14.949
54340W        W19567  27.183  15.257   4.990
54341W        W19568  34.139  22.718  13.854
54342W        W19569   2.030   4.745   4.268
54343W        W19570   9.938  25.026   0.818
54344W        W19571  13.596  32.653   2.024
54345W        W19572  41.848  25.162   2.328
54346W        W19573  19.481   1.280  14.310
54347W        W19574   1.814  38.039   1.304
54348W        W19575   2.453  30.384  14.416
54349W        W19576  11.422  27.950  11.019
54350W        W19577  18.227  36.100  13.574
54351W        W19578  39.049   2.968  14.029
54352W        W19579  26.062   8.297  13.043
54353W        W19580  37.442  31.594  11.411
54354W        W19581  21.075  35.139  11.522
54355W        W19582   9.858  23.770   3.541
54356W        W19583   4.824  31.774   0.344
54357W        W19584   4.719   2.292   2.407
54358W        W19585   4.990   3.204   2.888
54359W        W19586   4.545  10.279  11.084
54360W        W19587  14.819  17.143  10.366
54361W        W19588  13.100  25.402   3.551
54362W        W19589  32.824   6.896   3.832
54363W        W19590   4.278  30.812  10.957
54364W        W19591  29.497  27.692  14.591
54365W        W19592  44.026  35.130   2.221
54366W        W19593  34.747  36.998  11.059
54367W        W19594  11.700  40.060   0.703
54368W        W19595  17.814  33.597   0.536
54369W        W19596   5.941  33.579  14.886
54370W        W19597  39.349  25.042   1.670
54371W        W19598  31.323   4.810  12.592
54372W        W19599  21.415  44.564   4.484
54373W        W19600   3.913  23.091   1.434
54374W        W19601  20.109  10.577   4.269
54375W        W19602  37.001  18.632   2.377
54376W        W19603  22.117  37.375   4.120
54377W        W19604   8.792  15.908   3.051
54378W        W19605  11.221  23.268  13.913
54379W        W19606  37.943  23.483  14.939
54380W        W19607  11.080  43.592   1.681
54381W        W19608   2.481  10.273  14.885
54382W        W19609   5.813  33.033   3.183
54383W        W19610  38.422  34.035   2.953
54384W        W19611  27.428  31.106   4.829
54385W        W19612  32.375  21.549  12.458
54386W        W19613  15.653  25.527   2.236
54387W        W19614  14.150  42.946  13.003
54388W        W19615  34.828  41.393  12.151
54389W        W19616  38.160  39.447  13.718
54390W        W19617  11.611  40.996   4.661
54391W        W19618  40.879   6.621   2.082
54392W        W19619  14.520   5.271   3.280
54393W        W19620  38.761  40.312  12.592
54394W        W19621  23.124   8.401  12.913
54395W        W19622  43.978  13.996  14.746
54396W        W19623   3.707  39.905   4.507
54397W        W19624  39.509  12.661   4.334
54398W        W19625   2.856  30.176   3.272
54399W        W19626   2.917  33.823   1.307
54400W        W19627   8.689   1.981   3.375
54401W        W19628  24.644  13.690   1.399
54402W        W19629  36.889   0.560  10.787
54403W        W19630  37.083  21.637  14.980
54404W        W19631  38.416  44.025   3.625
54405W        W19632  12.308  35.491   2.437
54406W        W19633  26.244   9.670   2.244
54407W        W19634  12.972  43.589  14.088
54408W        W19635  27.166  28.033   3.605
54409W        W19636  31.646  31.031   1.317
54410W        W19637   0.757  37.916  14.853
54411W        W19638  30.221   2.279   0.672
54412W        W19639   5.989  21.046   1.738
54413W        W19640  38.977  44.441   0.276
54414W        W19641  28.239  17.250   0.397
54415W        W19642  35.347  42.612  13.936
54416W        W19643   1.447  17.316   2.818
54417W        W19644  25.609   7.861  14.341
54418W        W19645  37.158  29.539   3.650
54419W        W19646  20.120  30.350  11.226
54420W        W19647   4.128  18.316  13.988
54421W        W19648  20.779   2.409   3.382
54422W        W19649  34.626   4.397  10.788
54423W        W19650  18.325  11.191  13.772
54424W        W19651  17.908   1.213  14.948
54425W        W19652  43.986  36.450   3.234
54426W        W19653   9.825  22.160  12.223
54427W        W19654   9.678  14.110   0.581
54428W        W19655   0.504  42.517   5.029
54429W        W19656   2.427  38.976  10.027
54430W        W19657   4.283  42.047   0.215
54431W        W19658   8.928  37.485   0.600
54432W        W19659  22.988  32.643  11.595
54433W        W19660  25.053   9.407   2.861
54434W        W19661   7.591  27.096   0.003
54435W        W19662   6.710  31.240  12.055
54436W        W19663  29.521  17.037  10.630
54437W        W19664  36.445  19.331   0.348
54438W        W19665  11.979   5.895   2.651
54439W        W19666  29.170  15.305  11.722
54440W        W19667   9.776   9.646   4.569
54441W        W19668  22.240  24.255  11.854
54442W        W19669  22.540   6.932   1.918
54443W        W19670  10.181  31.584   0.355
54444W        W19671  25.055  42.068   3.820
54445W        W19672  16.466   8.274   0.277
54446W        W19673  33.588  43.071  14.007
54447W        W19674  39.973  29.103  10.472
54448W        W19675   5.457  24.853  12.544
54449W        W19676   4.387   8.731   2.880
54450W        W19677  35.093   4.374   4.120
54451W        W19678   8.893  30.627   1.298
54452W        W19679  29.165  29.591   1.137
54453W        W19680  23.520  38.642  11.966
54454W        W19681  10.775  22.443  13.796
54455W        W19682  38.603  14.159   3.793
54456W        W19683  30.304  20.998  12.775
54457W        W19684  22.961   2.748   2.891
54458W        W19685  12.828   3.152   0.130
54459W        W19686  34.998  40.270   3.988
54460W        W19687   8.240  44.399  14.504
54461W        W19688  20.672   5.875   3.762
54462W        W19689  24.670  41.923  13.965
54463W        W19690  36.832   8.856   0.912
54464W        W19691  12.416  28.079   2.982
54465W        W19692  44.481  28.179  14.875
54466W        W19693  34.597  11.102  12.402
54467W        W19694  24.681  19.608  10.849
54468W        W19695  28.153  15.544  14.089
54469W        W19696  22.274   7.664   4.092
54470W        W19697  44.485  19.269   2.863
54471W        W19698  38.859  18.375   4.479
54472W        W19699   2.275  11.780  13.817
54473W        W19700  18.917  11.973   4.080
54474W        W19701  44.241  35.846  11.540
54475W        W19702  22.955  15.391   3.338
54476W        W19703  17.549  32.127  12.304
54477W        W19704  32.705  38.569   5.061
54478W        W19705  20.332  15.088  13.196
54479W        W19706   4.499  44.002   3.592
54480W        W19707  34.073  14.080   4.910
54481W        W19708  39.551  19.291  14.917
54482W        W19709  32.419   5.303   0.867
54483W        W19710  41.560  13.647   0.095
54484W        W19711  42.176  33.923   3.546
54485W        W19712  27.957   7.838  14.909
54486W        W19713   8.638   8.920   1.772
54487W        W19714  15.312  42.711  11.442
54488W        W19715   1.977  36.996  14.897
54489W        W19716   4.098  14.528   9.961
54490W        W19717  17.725  15.667  12.547
54491W        W19718   6.226  35.976   3.191
54492W        W19719  43.239   6.224   2.442
54493W        W19720  43.537  27.578  11.864
54494W        W19721  24.648  37.508  10.990
54495W        W19722   1.236  43.939  12.877
54496W        W19723  11.848  36.991   1.391
54497W        W19724  30.855  38.930  14.897
54498W        W19725  31.028   3.680  12.147
54499W        W19726  20.084  15.121   3.291
54500W        W19727  30.078   7.093   1.657
54501W        W19728  29.015  36.366   3.862
54502W        W19729  41.329  12.578   3.808
54503W        W19730   4.399  10.507   2.293
54504W        W19731   7.642  15.314   1.212
54505W        W19732  12.162   0.771  12.032
54506W        W19733  26.746  16.667   2.364
54507W        W19734   2.937  28.705  12.038
54508W        W19735  25.001  22.657   2.392
54509W        W19736  40.750  33.387   1.234
54510W        W19737   4.686   9.876   0.808
54511W        W19738   3.340  33.432  12.585
54512W        W19739  32.881  40.968  11.158
54513W        W19740  39.243  36.237   3.021
54514W        W19741  15.399  17.374   3.703
54515W        W19742  25.161   5.872   4.781
54516W        W19743  40.790  15.896   0.874
54517W        W19744  34.300   1.288   0.813
54518W        W19745   4.356   9.471   2.204
54519W        W19746  33.181  30.816   1.823
54520W        W19747  41.237  31.674   3.205
54521W        W19748  14.745  10.183   4.516
54522W        W19749  27.618   2.246   1.260
54523W        W19750  25.086  12.280   4.247
54524W        W19751  18.162  38.488  13.957
54525W        W19752  13.833  43.195   1.813
54526W        W19753  42.535   0.269   0.424
54527W        W19754  28.125  25.094   3.706
54528W        W19755  15.522  25.120  10.247
54529W        W19756  26.715  20.286   1.862
54530W        W19757  42.820  40.907  12.618
54531W        W19758  43.413   8.049   9.634
54532W        W19759  32.337   8.172   4.206
54533W        W19760  14.341  25.421   1.364
54534W        W19761  42.940  17.686   4.527
54535W        W19762  42.440   2.975   1.164
54536W        W19763   2.200  39.445  13.569
54537W        W19764   3.031  36.588   1.243
54538W        W19765  42.424  12.443  11.945
54539W        W19766  28.206  35.132  12.658
54540W        W19767  24.212  14.084  12.347
54541W        W19768   1.682  24.217   2.965
54542W        W19769  18.529  38.970  13.509
54543W        W19770  21.128  36.317   4.085
54544W        W19771   1.314  10.415   0.843
54545W        W19772  21.571  29.952  10.728
54546W        W19773  30.072  15.856   4.359
54547W        W19774  43.660  27.099  12.170
54548W        W19775  37.708  44.501  10.245
54549W        W19776  20.268  24.024  12.874
54550W        W19777   2.646  31.704  14.507
54551W        W19778  43.192  39.932  12.088
54552W        W19779   5.187  20.246   0.922
54553W        W19780   2.449  14.743   2.846
54554W        W19781  43.222  39.576  13.525
54555W        W19782   0.142  24.051   9.730
54556W        W19783  42.056   3.081  12.684
54557W        W19784  26.425   8.914  14.938
54558W        W19785  10.741  29.867   4.825
54559W        W19786  11.253  40.345  14.447
54560W        W19787  30.336  13.692   3.340
54561W        W19788  38.420  24.520   1.644
54562W        W19789  18.592  19.578   4.882
54563W        W19790  13.928  17.362   0.923
54564W        W19791  27.439   1.796  10.719
54565W        W19792  29.628   3.738   1.771
54566W        W19793  25.479  22.471   1.205
54567W        W19794   7.032  19.092   2.815
54568W        W19795  10.806  10.924  13.365
54569W        W19796  44.084  39.046  10.201
54570W        W19797   2.921   7.605   0.730
54571W        W19798  20.637  26.555  14.971
54572W        W19799  31.716  28.908  14.731
54573W        W19800  27.607   5.291  10.772
54574W        W19801  32.558  41.476  13.720
54575W        W19802  15.882   5.428  14.304
54576W        W19803  14.895  25.515  10.623
54577W        W19804  38.373  23.755   2.661
54578W        W19805   2.815  32.148  14.734
54579W        W19806  27.990  13.825  11.230
54580W        W19807  34.581  11.638   1.687
54581W        W19808  39.645  11.840   1.699
54582W        W19809  39.565   2.911  12.861
54583W        W19810  18.143  31.698   0.218
54584W        W19811   7.112  13.782   4.639
54585W        W19812   3.566  13.650   1.893
54586W        W19813  27.943  39.744  13.469
54587W        W19814  23.238  13.684   2.159
54588W        W19815  44.011  31.659  11.161
54589W        W19816  30.062  38.339   1.813
54590W        W19817  23.265   3.374   3.592
54591W        W19818  31.111  24.703   5.558
54592W        W19819  12.630  13.537   4.071
54593W        W19820   5.266  27.102   3.135
54594W        W19821  15.309  25.895   2.110
54595W        W19822  41.317  34.788  11.633
54596W        W19823  12.266  13.584   2.942
54597W        W19824  26.820   7.794   3.025
54598W        W19825   9.590   6.310   1.894
54599W        W19826  39.047  22.752  14.760
54600W        W19827  27.002  29.119  10.855
54601W        W19828  17.248  25.366   2.031
54602W        W19829  37.015   9.358  10.575
54603W        W19830  35.087  20.140   1.242
54604W        W19831  17.221  19.728   2.440
54605W        W19832   5.486  12.096  14.884
54606W        W19833  27.638   3.300  10.282
54607W        W19834   7.922  22.925   1.884
54608W        W19835  24.694   6.982   1.815
54609W        W19836  18.227   5.775   4.952
54610W        W19837   7.854  41.198  12.924
54611W        W19838  22.851  29.542  12.182
54612W        W19839  25.973  30.557   3.147
54613W        W19840   3.909  43.804   1.839
54614W        W19841  41.450  25.860   0.781
54615W        W19842  41.998   3.735  13.992
54616W        W19843   5.148  11.676  14.987
54617W        W19844  16.595   1.601   0.020
54618W        W19845  23.784  10.762  14.481
54619W        W19846   8.906  22.079   4.610
54620W        W19847  14.825  32.520  13.115
54621W        W19848  16.552   7.199   1.684
54622W        W19849   0.482  10.848  14.032
54623W        W19850  15.675   7.839   2.273
54624W        W19851  37.042   3.577  12.159
54625W        W19852  20.064   6.647  11.213
54626W        W19853  32.617   6.901  13.976
54627W        W19854  14.396  32.871  14.076
54628W        W19855  20.147  16.674  12.338
54629W        W19856  44.475  28.984   0.342
54630W        W19857  38.896  11.261  12.850
54631W        W19858   0.338  35.621   3.472
54632W        W19859  25.235  16.715  12.503
54633W        W19860  11.593  18.827   3.291
54634W        W19861  38.472  42.497   3.230
54635W        W19862  25.338   2.904   4.264
54636W        W19863  36.046  29.302  11.647
54637W        W19864  31.356  38.053   1.629
54638W        W19865  10.636  32.036  12.517
54639W        W19866  36.610   6.934   2.241
54640W        W19867   1.825  26.411   0.117
54641W        W19868   1.477  18.769  10.725
54642W        W19869  23.622  12.616  13.398
54643W        W19870  26.000  13.121  14.455
54644W        W19871  25.669   7.350   1.762
54645W        W19872  20.645   2.264   1.578
54646W        W19873  13.096  28.399   0.611
54647W        W19874  26.946  26.185  14.848
54648W        W19875  43.453  42.098  11.139
54649W        W19876  41.070  22.189   0.947
54650W        W19877  40.417  32.489  14.218
54651W        W19878  35.268  32.651  14.084
54652W        W19879  17.231  39.065  12.121
54653W        W19880  30.925  28.423  12.293
54654W        W19881  39.811  13.973  11.948
54655W        W19882  26.654   5.969   3.100
54656W        W19883  19.793  27.332  11.647
54657W        W19884   0.131  34.341   1.219
54658W        W19885   6.517   2.047  14.273
54659W        W19886  30.276  10.231   9.836
54660W        W19887  28.770  36.936   1.933
54661W        W19888   2.296  30.314  10.161
54662W        W19889  42.559  25.269  14.837
54663W        W19890  16.002  16.053  14.456
54664W        W19891  44.433  12.555  11.100
54665W        W19892   2.333  42.240  10.090
54666W        W19893  31.891  22.629  10.657
54667W        W19894   6.541  20.298   2.226
54668W        W19895   5.463  39.751  14.519
54669W        W19896  21.041  18.290   1.946
54670W        W19897  19.980  15.242   2.056
54671W        W19898  29.902  32.660  12.468
54672W        W19899  22.332  12.341  11.525
54673W        W19900  13.064  26.175   1.958
54674W        W19901  16.886  26.729  12.025
54675W        W19902  41.059  44.886  13.919
54676W        W19903  14.853  34.450  14.826
54677W        W19904   5.121  20.514   4.763
54678W        W19905  31.175  10.840  13.541
54679W        W19906  28.135  44.934  11.979
54680W        W19907  10.656  22.642  14.480
54681W        W19908  25.172   3.432   2.237
54682W        W19909  18.883   3.044  11.392
54683W        W19910  26.103  26.356   5.046
54684W        W19911  35.164  44.374  13.782
54685W        W19912   4.147  35.200  10.790
54686W        W19913  17.614  24.508  10.765
54687W        W19914  13.587  28.360  14.876
54688W        W19915  34.436  20.150  14.462
54689W        W19916   7.859   4.936   3.283
54690W        W19917  11.279  10.612  12.484
54691W        W19918  29.203   7.275  13.777
54692W        W19919  11.211  21.887  11.104
54693W        W19920   7.105  33.085  14.908
54694W        W19921  44.443  16.230  12.574
54695W        W19922  24.125  22.691  11.504
54696W        W19923  14.533  34.205  13.536
54697W        W19924  43.388  20.802   2.819
54698W        W19925  25.527  44.459  14.049
54699W        W19926  27.043  39.036   1.218
54700W        W19927  34.586  33.376  12.526
54701W        W19928  40.314  14.249  10.450
54702W        W19929  26.493  17.761  13.965
54703W        W19930  17.765   1.392   0.415
54704W        W19931  33.676  21.702  10.006
54705W        W19932  19.615   9.166  12.499
54706W        W19933   9.131  18.846  10.205
54707W        W19934  38.266   1.561  12.875
54708W        W19935  37.588  30.119   1.052
54709W        W19936  18.268  12.706  10.771
54710W        W19937  22.019  25.960   0.945
54711W        W19938  19.614   0.997   5.066
54712W        W19939  30.432  18.112  13.551
54713W        W19940  38.010  43.319  13.451
54714W        W19941  15.861  10.329  10.769
54715W        W19942  39.245  32.603  10.920
54716W        W19943  21.517  32.799   1.868
54717W        W19944   3.901  11.332   0.865
54718W        W19945  33.186  21.252  12.555
54719W        W19946  26.931  34.216  10.270
54720W        W19947  12.134   9.156   1.654
54721W        W19948  37.815   0.241  11.568
54722W        W19949  21.584  41.230   3.214
54723W        W19950   9.456  11.070  12.488
54724W        W19951  44.881  17.866   2.928
54725W        W19952   4.372  23.657  12.870
54726W        W19953  10.449  35.473   4.073
54727W        W19954  38.953  26.492  10.728
54728W        W19955  35.610   3.309   3.071
54729W        W19956   0.102  20.167  14.755
54730W        W19957  39.840   8.027  13.143
54731W        W19958   8.824  25.725  12.134
54732W        W19959  29.234  39.780  10.724
54733W        W19960  21.761   3.791   3.533
54734W        W19961  37.443  10.943   1.186
54735W        W19962  19.830   6.753   3.215
54736W        W19963   1.729  26.069   3.157
54737W        W19964  21.988   7.789   1.734
54738W        W19965  25.202  22.060   0.077
54739W        W19966  29.399  10.902   2.644
54740W        W19967  26.634  22.421  11.184
54741W        W19968  16.581  24.053   0.746
54742W        W19969  35.453  18.926   1.135
54743W        W19970  30.841  19.657   1.269
54744W        W19971  40.088   2.335   3.043
54745W        W19972  28.721  38.955   3.581
54746W        W19973  44.692  32.261  14.524
54747W        W19974  40.246   3.013  11.643
54748W        W19975   8.901  39.505   3.659
54749W        W19976   7.776  23.814   2.815
54750W        W19977   4.218  20.078   1.860
54751W        W19978  18.279  31.617   3.170
54752W        W19979  25.475  16.118   2.310
54753W        W19980  44.835  43.890   5.041
54754W        W19981  36.470  42.781  12.921
54755W        W19982   8.775  11.453   2.959
54756W        W19983   2.223   2.412  11.574
54757W        W19984  28.140  26.399   2.224
54758W        W19985  24.967  27.065   1.019
54759W        W19986   9.219  36.575   4.391
54760W        W19987  30.590  11.588   2.847
54761W        W19988  19.115  44.401   4.438
54762W        W19989   9.116  42.052  13.357
54763W        W19990  35.031  27.983  11.994
54764W        W19991  22.055  25.963  14.707
54765W        W19992  17.783  36.543   0.688
54766W        W19993  42.757  36.525  12.200
54767W        W19994  25.519   7.753   1.371
54768W        W19995  32.095   9.931   1.317
54769W        W19996  10.547  20.355   4.232
54770W        W19997  14.838  42.421  12.398
54771W        W19998  42.117  30.103   3.182
54772W        W19999   1.741  39.108  14.820
54773W        W20000  39.948  16.702   2.898
54774W        W20001  17.375  16.356  11.122
54775W        W20002   8.206  33.564   1.892
54776W        W20003  37.329  25.225   2.396
54777W        W20004  14.535  38.166  12.109
54778W        W20005   3.425  40.388   0.094
54779W        W20006  29.006   6.935   0.537
54780W        W20007  33.683  14.716   0.217
54781W        W20008  22.791  14.711  13.928
54782W        W20009  26.517  27.871   2.783
54783W        W20010   0.783  19.938   2.739
54784W        W20011  11.816   4.204  11.455
54785W        W20012  30.397  15.642   1.748
54786W        W20013   2.864  10.853  10.619
54787W        W20014  24.993  34.491  10.694
54788W        W20015  34.416   2.396  12.475
54789W        W20016  34.041  27.138  10.603
54790W        W20017  43.088   1.411  12.427
54791W        W20018  37.285   4.724  12.731
54792W        W20019  44.740   4.642   1.977
54793W        W20020   1.656   9.382  14.179
54794W        W20021  32.151  39.334  10.986
54795W        W20022  25.617  32.873   1.334
54796W        W20023  26.480  18.517   2.299
54797W        W20024  44.420   1.135  13.999
54798W        W20025  32.262  44.276   5.008
54799W        W20026  29.452  23.375  14.219
54800W        W20027  21.966  16.725  14.995
54801W        W20028  24.800  43.488  12.363
54802W        W20029  16.374   0.884  11.627
54803W        W20030  10.656  38.397   4.373
54804W        W20031  27.481  11.196  14.403
54805W        W20032  19.861   3.130   1.335
54806W        W20033  27.865  25.658   2.896
54807W        W20034  40.119  43.836   4.792
54808W        W20035  43.484  21.168  13.977
54809W        W20036  27.930  21.689   3.353
54810W        W20037  13.750  38.081  11.782
54811W        W20038  30.809   5.299   0.969
54812W        W20039  13.593  21.060   3.698
54813W        W20040  42.323   0.350  13.013
54814W        W20041  40.953  44.897   3.388
54815W        W20042   8.397  37.946  14.879
54816W        W20043   7.970  39.991   4.080
54817W        W20044  41.131  22.142  14.010
54818W        W20045  35.856  43.315  14.349
54819W        W20046   7.950  40.449  14.427
54820W        W20047  11.234  29.979  13.872
54821W        W20048   8.138  37.381  11.924
54822W        W20049  23.298  40.448   1.714
54823W        W20050   8.453  23.018   3.220
54824W        W20051   4.394  37.362  11.376
54825W        W20052  39.929  41.823  14.335
54826W        W20053  41.747   4.428   0.144
54827W        W20054  41.956   9.790   2.566
54828W        W20055  15.584   8.872  10.744
54829W        W20056  11.333  29.943  12.044
54830W        W20057  32.333  38.892  12.641
54831W        W20058  30.351  31.346  11.946
54832W        W20059  16.059   8.320  13.817
54833W        W20060  39.560  10.198   5.117
54834W        W20061  43.833  26.622  12.035
54835W        W20062  42.296   0.069   2.230
54836W        W20063  12.813  31.607   1.727
54837W        W20064  24.542  29.294  11.121
54838W        W20065  33.757  31.430   4.989
54839W        W20066  11.804  36.041  10.776
54840W        W20067   7.887  35.284  11.537
54841W        W20068  35.390  22.611  11.123
54842W        W20069   2.302   0.107   4.058
54843W        W20070  33.100  30.731   0.942
54844W        W20071  39.496  39.058  10.980
54845W        W20072  10.270  29.527  12.420
54846W        W20073   7.307  26.226  14.946
54847W        W20074  34.515  20.433   3.343
54848W        W20075  33.050  34.938   0.684
54849W        W20076   8.398  24.207  11.575
54850W        W20077  17.818  26.518  10.760
54851W        W20078  19.602  22.070   0.334
54852W        W20079   7.791  16.836   3.577
54853W        W20080   7.963  43.902   2.729
54854W        W20081  11.282  12.055   2.777
54855W        W20082  25.228  11.507  11.494
54856W        W20083  33.587  13.171  12.230
54857W        W20084  35.267  14.426   4.305
54858W        W20085  40.746   9.329   1.208
54859W        W20086  13.067  36.008  10.794
54860W        W20087  37.069   4.255   2.443
54861W        W20088   5.263  16.263   2.081
54862W        W20089  44.345  15.889   3.191
54863W        W20090   4.333  40.124   0.879
54864W        W20091  40.381  40.371  14.473
54865W        W20092  22.708  32.962   4.539
54866W        W20093   4.208  33.844  13.560
54867W        W20094  13.114   3.721   4.282
54868W        W20095  37.321  34.905   5.115
54869W        W20096   1.093  28.249   1.712
54870W        W20097   3.219   6.789  10.835
54871W        W20098   1.863  44.776  13.494
54872W        W20099  44.948   4.751  12.577
54873W        W20100  35.487  15.093   2.514
54874W        W20101  35.954   2.661   2.931
54875W        W20102  41.755   6.422  14.011
54876W        W20103   4.575  20.321  12.912
54877W        W20104  36.887  41.314  14.520
54878W        W20105  11.297  39.285   0.073
54879W        W20106  26.549   3.956   4.687
54880W        W20107  44.048  11.499  14.897
54881W        W20108  30.476  37.276  12.129
54882W        W20109  23.201  10.804   3.161
54883W        W20110  41.799  23.021   4.713
54884W        W20111  28.444   2.323  11.215
54885W        W20112  17.767  38.794  14.936
54886W        W20113  33.887  32.162  11.628
54887W        W20114   4.639  16.745   0.458
54888W        W20115  24.127   9.784   3.296
54889W        W20116  20.477  22.705   1.138
54890W        W20117  42.922   9.106   5.040
54891W        W20118   4.395  19.555   4.590
54892W        W20119  40.858   7.326  12.071
54893W        W20120  43.102  29.686   4.697
54894W        W20121  34.326  13.181   3.705
54895W        W20122   5.833   2.560   1.358
54896W        W20123  11.865   2.758   1.924
54897W        W20124  34.340  21.006  11.369
54898W        W20125  30.711  36.997   1.712
54899W        W20126   1.752  34.665   3.732
54900W        W20127  10.844  20.102  14.333
54901W        W20128  31.983  18.403   1.495
54902W        W20129  42.385  11.865   2.879
54903W        W20130  40.950  18.078   4.019
54904W        W20131  28.071  44.008  12.431
54905W        W20132  38.864  17.121   3.545
54906W        W20133  27.022   0.856  11.704
54907W        W20134  35.879  35.148   4.456
54908W        W20135  43.485  19.573   0.217
54909W        W20136  34.568  22.434   1.829
54910W        W20137  18.130  35.804   4.191
54911W        W20138  18.820  26.109  13.861
54912W        W20139  15.305  23.993   0.354
54913W        W20140  25.209   4.154  11.166
54914W        W20141  16.689  13.164  14.959
54915W        W20142  33.681  17.217   4.978
54916W        W20143  27.450  32.941   3.540
54917W        W20144   9.155  35.627  13.036
54918W        W20145   1.659  25.794  12.174
54919W        W20146  33.632  32.832  12.389
54920W        W20147  33.909  34.609   3.188
54921W        W20148  28.484  29.902   0.858
54922W        W20149  44.960  30.158   3.622
54923W        W20150  41.471  17.417  14.401
54924W        W20151  21.044   5.938   0.954
54925W        W20152   8.848   1.267  14.550
54926W        W20153  27.478  37.363   0.116
54927W        W20154  34.873  12.457   2.423
54928W        W20155  36.022   7.203  13.032
54929W        W20156  12.772  29.594  12.580
54930W        W20157  25.158  34.954  10.526
54931W        W20158  30.332  43.307   3.909
54932W        W20159  12.631  25.169   0.484
54933W        W20160   1.681  13.021   2.762
54934W        W20161   5.372   9.808  12.908
54935W        W20162  43.913  44.563  11.167
54936W        W20163  17.585  42.288   1.062
54937W        W20164  30.891   9.126   3.762
54938W        W20165  20.204  36.578   3.633
54939W        W20166  27.486  36.017   0.042
54940W        W20167  37.172  16.699  13.295
54941W        W20168  24.064  13.125  12.684
54942W        W20169  13.865  20.083   2.585
54943W        W20170  15.183  10.450  13.846
54944W        W20171  36.938  17.421   4.922
54945W        W20172  27.960  16.163  14.471
54946W        W20173  16.673  25.755   4.478
54947W        W20174  18.437  43.909  13.289
54948W        W20175   8.360   8.350   3.302
54949W        W20176  26.545   2.654   2.496
54950W        W20177  35.020  15.109  14.804
54951W        W20178  20.068  18.356  10.872
54952W        W20179  24.012  30.050  12.938
54953W        W20180  15.571  14.992   4.896
54954W        W20181  18.798  43.431  12.805
54955W        W20182  32.549  21.707  13.470
54956W        W20183  26.932  35.295   0.855
54957W        W20184  41.446  12.115   1.287
54958W        W20185   7.153   3.218  13.181
54959W        W20186  44.782  29.012  11.193
54960W        W20187  39.115  24.274  12.194
54961W        W20188  14.613  44.545  14.798
54962W        W20189   3.607   5.695  10.875
54963W        W20190   5.888  34.907   2.382
54964W        W20191  12.692  44.937  12.329
54965W        W20192  34.957   2.531   4.289
54966W        W20193  27.231  24.399   0.943
54967W        W20194  41.601   6.798   3.623
54968W        W20195  17.358  35.826   5.079
54969W        W20196   8.048  20.981  14.741
54970W        W20197  19.670  16.018   1.604
54971W        W20198   4.178  10.321   4.894
54972W        W20199  44.556  26.604  12.508
54973W        W20200  30.749  27.470   3.558
54974W        W20201  15.972   9.838   2.313
54975W        W20202  27.721  25.838   3.347
54976W        W20203  25.538   8.235   1.755
54977W        W20204  36.807  13.636  11.936
54978W        W20205  41.690  14.333   4.175
54979W        W20206  44.619  14.896   1.171
54980W        W20207  23.149  30.974   1.430
54981W        W20208  33.434  44.802   1.383
54982W        W20209  10.676  37.041   2.464
54983W        W20210  37.799  30.567  14.380
54984W        W20211  39.338  39.054   1.342
54985W        W20212  12.558   8.652  12.128
54986W        W20213   5.850  42.861  12.868
54987W        W20214  41.057  41.522  14.938
54988W        W20215  15.851  20.556  11.133
54989W        W20216   7.256  21.781  12.125
54990W        W20217  17.616  21.155   4.944
54991W        W20218   6.338  20.711   2.457
54992W        W20219   1.518  39.367  11.092
54993W        W20220  11.429  19.809  12.978
54994W        W20221   2.175  39.860   2.582
54995W        W20222  10.220   0.017  10.705
54996W        W20223  29.056  32.823  10.459
54997W        W20224  15.158  41.278   0.010
54998W        W20225  21.531  42.675   4.673
54999W        W20226   0.067  16.161   3.222
55000W        W20227  10.717   9.264   1.698
55001W        W20228  41.371  16.391   1.465
55002W        W20229  21.023  20.258  14.003
55003W        W20230  10.975   4.816   2.877
55004W        W20231  37.307  23.466  12.853
55005W        W20232  31.128   2.771   2.206
55006W        W20233   5.398  21.879   0.134
55007W        W20234  32.648  29.136  14.629
55008W        W20235  36.284  39.525   0.965
55009W        W20236   5.427  26.379   0.375
55010W        W20237   6.818   4.523   1.468
55011W        W20238  18.316  30.881   1.279
55012W        W20239  31.994  36.076  12.054
55013W        W20240  27.529  15.135   1.388
55014W        W20241  43.542  15.904  10.332
55015W        W20242   5.891  13.322  10.822
55016W        W20243   6.441   0.729  10.230
55017W        W20244   9.988  26.987   2.110
55018W        W20245  40.999  17.784  10.900
55019W        W20246  40.097  31.428   4.491
55020W        W20247   5.122  21.894  11.069
55021W        W20248  40.572  42.441  11.193
55022W        W20249   5.211  28.983  12.935
55023W        W20250   1.049   2.505   0.979
55024W        W20251   1.199  22.794   1.758
55025W        W20252  32.803  31.349   2.921
55026W        W20253  25.744  44.372  13.564
55027W        W20254  30.167  26.084  11.298
55028W        W20255  40.408  41.858   0.492
55029W        W20256  16.102  28.997   4.636
55030W        W20257  33.601  39.949  13.729
55031W        W20258  38.538   2.908  11.678
55032W        W20259  25.004   6.368  12.582
55033W        W20260   5.735   8.146  11.037
55034W        W20261   7.219   0.480  11.044
55035W        W20262   5.008  30.152   3.687
55036W        W20263  13.765  24.483  12.870
55037W        W20264   1.903  20.602   4.564
55038W        W20265  29.465   7.419   2.424
55039W        W20266  34.042  44.809   2.808
55040W        W20267  16.286   1.832   3.199
55041W        W20268  13.911  25.297   3.281
55042W        W20269  34.568  12.318  12.457
55043W        W20270  30.186   4.355  13.516
55044W        W20271  31.454  18.775  13.924
55045W        W20272   2.199  34.408   1.401
55046W        W20273  13.720  41.843  10.593
55047W        W20274  38.168  20.551  10.646
55048W        W20275   0.734   6.347   1.303
55049W        W20276  30.666  32.994  14.844
55050W        W20277  30.684  29.675   5.001
55051W        W20278  15.158  28.447   3.299
55052W        W20279  42.776  43.073   0.331
55053W        W20280  41.994  10.445  14.616
55054W        W20281  10.088  41.958  12.028
55055W        W20282  14.676  18.263   1.011
55056W        W20283  41.801   9.401  11.220
55057W        W20284   3.275  16.583   3.262
55058W        W20285  37.959  12.269   0.967
55059W        W20286  42.937  15.312   4.883
55060W        W20287  15.337  35.510  12.104
55061W        W20288  33.808  18.191   1.644
55062W        W20289  28.825  16.145   0.078
55063W        W20290  11.091  24.503   1.851
55064W        W20291  31.832  15.190  13.909
55065W        W20292  22.663  11.585  14.271
55066W        W20293   3.415  19.453   4.647
55067W        W20294  29.084  12.890   4.453
55068W        W20295  29.448   7.748  12.853
55069W        W20296   2.681  21.083  11.534
55070W        W20297  32.532  31.739   2.650
55071W        W20298   1.762   6.725   0.850
55072W        W20299  25.501  28.038  12.002
55073W        W20300  25.942  26.074   1.842
55074W        W20301  25.203   3.129  11.158
55075W        W20302  36.954  28.257  11.176
55076W        W20303  28.627  31.767  12.962
55077W        W20304  25.048  14.122   3.251
55078W        W20305  15.207  38.087   4.775
55079W        W20306  22.490  25.441   1.768
55080W        W20307  17.617  44.317   1.436
55081W        W20308  27.579  21.168   2.388
55082W        W20309   4.821  11.943   3.787
55083W        W20310  26.042  42.315  14.462
55084W        W20311  15.664   0.046  13.042
55085W        W20312   6.727  31.128  11.558
55086W        W20313   5.834   6.759  13.873
55087W        W20314   6.614   9.203  14.018
55088W        W20315   6.569  10.670  12.512
55089W        W20316  38.561  29.448  11.161
55090W        W20317  19.090   8.472   1.992
55091W        W20318  23.608  17.116  11.682
55092W        W20319  37.818  37.559   0.772
55093W        W20320  26.915  35.439   3.606
55094W        W20321  32.617  36.627  12.577
55095W        W20322   7.644  23.055   2.304
55096W        W20323  23.253  27.796   2.540
55097W        W20324  32.581  38.829  12.189
55098W        W20325  42.616  22.164  13.600
55099W        W20326   3.146  36.059  11.125
55100W        W20327   8.294  31.888  14.718
55101W        W20328  33.458  33.137   2.822
55102W        W20329  20.246   6.142   3.852
55103W        W20330  38.365  23.313  10.730
55104W        W20331  20.512  43.423   1.700
55105W        W20332  33.026  41.067   2.417
55106W        W20333  30.613  15.011  14.914
55107W        W20334  30.404  41.776  12.327
55108W        W20335  23.134  14.157   3.968
55109W        W20336  20.942  12.303   1.268
55110W        W20337  39.285  34.146  12.079
55111W        W20338  25.503  28.006   4.625
55112W        W20339   3.780  33.772   4.165
55113W        W20340  30.644  23.755   4.189
55114W        W20341  41.554   8.224   3.960
55115W        W20342   1.846  21.488  12.975
55116W        W20343   5.780   6.125  14.682
55117W        W20344  11.525  20.471   4.824
55118W        W20345  17.168  14.261   3.374
55119W        W20346  38.750  17.494   1.759
55120W        W20347  24.239  34.425  13.561
55121W        W20348  11.495  11.700  12.589
55122W        W20349  26.581  35.671  10.786
55123W        W20350  25.823   1.729   4.654
55124W        W20351  12.209  22.559   2.957
55125W        W20352  29.179  35.036   3.595
55126W        W20353  19.804  15.329  11.583
55127W        W20354  19.164  24.208  14.057
55128W        W20355  24.523  21.966   4.581
55129W        W20356  34.170  36.669   3.901
55130W        W20357   5.630   6.266   1.416
55131W        W20358  43.036   0.339   0.490
55132W        W20359   4.324   7.122  12.143
55133W        W20360  30.887  15.120   2.322
55134W        W20361  13.567  15.594  12.611
55135W        W20362  43.468  18.106  14.561
55136W        W20363  35.076   5.350  10.713
55137W        W20364   0.474  21.411  14.621
55138W        W20365  43.049  26.631  12.505
55139W        W20366  32.997  32.369   4.514
55140W        W20367  17.042  13.272   1.815
55141W        W20368  34.587  20.235  12.884
55142W        W20369   1.795   1.173   0.666
55143W        W20370  37.945  34.444  14.454
55144W        W20371   2.032  16.608  12.435
55145W        W20372   3.340   0.289  12.961
55146W        W20373  17.502   6.987   2.745
55147W        W20374   9.054  34.998  12.611
55148W        W20375  10.899  21.771  14.914
55149W        W20376  35.919  11.767  13.053
55150W        W20377  27.858  43.313  13.415
55151W        W20378  29.878  41.278  10.904
55152W        W20379  43.126  16.187   1.738
55153W        W20380  18.710  11.886   2.419
55154W        W20381  35.088   1.182   1.713
55155W        W20382  20.143   6.717  13.900
55156W        W20383   9.024  21.689   2.841
55157W        W20384  15.371  43.850  14.943
55158W        W20385  16.683  19.048   2.161
55159W        W20386  37.395  41.346   0.778
55160W        W20387  21.577  24.085  14.354
55161W        W20388   8.682   4.134  12.987
55162W        W20389  35.589  12.436  11.624
55163W        W20390   4.622  33.514  11.535
55164W        W20391  37.078  14.225   2.437
55165W        W20392  34.244   7.314   1.144
55166W        W20393  18.821  29.136   3.098
55167W        W20394  32.565  38.391  14.941
55168W        W20395   4.830  21.547  13.086
55169W        W20396  28.593  22.098  12.181
55170W        W20397  27.939  12.098   4.541
55171W        W20398  30.381  17.093  14.197
55172W        W20399  41.944  32.750  13.528
55173W        W20400  20.094  34.694   3.456
55174W        W20401  33.041   2.836   2.381
55175W        W20402  27.535  26.045   2.883
55176W        W20403  41.344   1.826  10.923
55177W        W20404  24.015  43.983   2.691
55178W        W20405  19.759  12.337  14.165
55179W        W20406  33.643  33.537   4.815
55180W        W20407  43.164   5.531   5.114
55181W        W20408  15.988  13.280   1.842
55182W        W20409  14.332  13.697   1.954
55183W        W20410  35.384  14.648   3.643
55184W        W20411  26.418  14.361   2.730
55185W        W20412  27.948   6.833  12.996
55186W        W20413  29.139   9.493   1.952
55187W        W20414   6.722  16.549   1.912
55188W        W20415   4.663  23.609  11.659
55189W        W20416   1.561  23.274  12.178
55190W        W20417  32.571  41.591  11.466
55191W        W20418   5.019  43.508   9.479
55192W        W20419   1.289   9.282  11.557
55193W        W20420  23.478  24.117  13.374
55194W        W20421  19.041   1.462  11.109
55195W        W20422  44.441  14.307  10.744
55196W        W20423  36.524  10.548  12.147
55197W        W20424  20.676  31.262   3.062
55198W        W20425  28.461  44.773  11.298
55199W        W20426  12.308  27.399   0.501
55200W        W20427  41.953  20.600   4.086
55201W        W20428  17.188  34.032   9.805
55202W        W20429  18.572  27.919  10.731
55203W        W20430  23.694  26.767   2.141
55204W        W20431  18.416   1.003  12.517
55205W        W20432   3.379  10.639   0.322
55206W        W20433  23.774  10.663   0.401
55207W        W20434  44.534  24.435   0.394
55208W        W20435  12.583   9.188   3.314
55209W        W20436  12.130  31.017  12.876
55210W        W20437  44.184  12.152   0.639
55211W        W20438  42.994  41.468  10.423
55212W        W20439  36.957  40.852  14.933
55213W        W20440   5.738  34.556   0.752
55214W        W20441  20.163  40.448   3.207
55215W        W20442  25.654   1.516  11.711
55216W        W20443  33.370  24.461   1.330
55217W        W20444  33.878  16.310  12.673
55218W        W20445  21.809  12.624   0.871
55219W        W20446  27.012  34.572  11.211
55220W        W20447  38.375  37.691  13.863
55221W        W20448  31.751  43.292   1.135
55222W        W20449  40.650  23.810  10.199
55223W        W20450  18.021  36.806  11.643
55224W        W20451  31.333   6.201   1.050
55225W        W20452   1.372  22.187   1.390
55226W        W20453  15.928  26.175   4.175
55227W        W20454  15.480   5.865  11.604
55228W        W20455  18.880  38.345  13.488
55229W        W20456  17.623   0.388  14.969
55230W        W20457  35.691  16.336   4.156
55231W        W20458   3.708   5.394  13.011
55232W        W20459   3.761   1.587   1.305
55233W        W20460  10.919  37.895  12.017
55234W        W20461  39.854  21.459   1.930
55235W        W20462  35.062  27.717   1.423
55236W        W20463   2.910  21.198  14.828
55237W        W20464   6.966  17.854  13.857
55238W        W20465  25.700   4.442   2.762
55239W        W20466   9.680  35.411   1.488
55240W        W20467  39.905  22.210  11.138
55241W        W20468   4.720  27.276  14.958
55242W        W20469  28.571  19.519   2.347
55243W        W20470  43.191   1.287   4.302
55244W        W20471  29.664  19.500  10.410
55245W        W20472  11.325   0.289   1.460
55246W        W20473  33.492  11.187  10.693
55247W        W20474  23.163  19.635   0.718
55248W        W20475  12.443  20.539  11.877
55249W        W20476  34.231  36.907  11.095
55250W        W20477  34.014   5.974  14.786
55251W        W20478   0.320  28.645   3.528
55252W        W20479  29.403  10.280  13.972
55253W        W20480   3.304   4.990   1.290
55254W        W20481  32.518   9.565  11.181
55255W        W20482  32.430  38.583   0.410
55256W        W20483   2.680  15.208  13.288
55257W        W20484  33.389  35.428   3.903
55258W        W20485  27.637  36.520  11.059
55259W        W20486  10.738  11.618   1.747
55260W        W20487  44.581  41.907   1.362
55261W        W20488  30.148  12.150   3.679
55262W        W20489  42.292  22.994  13.381
55263W        W20490  18.154  25.741  12.916
55264W        W20491  35.338  17.694  12.920
55265W        W20492   2.348  30.609  12.628
55266W        W20493   8.620  17.322  11.587
55267W        W20494  38.118  17.855   3.107
55268W        W20495  29.131   3.890   3.209
55269W        W20496  14.212  39.435  13.593
55270W        W20497  13.279  19.105  13.756
55271W        W20498  22.060  18.951   0.045
55272W        W20499  40.008  11.470   4.622
55273W        W20500  17.111   8.443   2.784
55274W        W20501  44.316  27.552  13.879
55275W        W20502   7.322  39.712   3.183
55276W        W20503  30.453   3.762   4.713
55277W        W20504  28.011  29.143   1.397
55278W        W20505  15.012   6.520   4.739
55279W        W20506  30.624  34.922   1.333
55280W        W20507  28.999  28.842   1.543
55281W        W20508  19.487  36.470  11.261
55282W        W20509   6.167  30.006  14.002
55283W        W20510  28.582  34.544  13.378
55284W        W20511  30.765   3.284   3.591
55285W        W20512   8.668  13.337   3.417
55286W        W20513  38.811  37.876   2.257
55287W        W20514  40.957  17.751   2.608
55288W        W20515   5.501  38.343  10.822
55289W        W20516   1.929   0.396   1.870
55290W        W20517  36.295  33.606   1.913
55291W        W20518  40.373  34.334   4.857
55292W        W20519  22.474   2.392  11.970
55293W        W20520  41.329  14.438   1.797
55294W        W20521  27.192  27.545   0.013
55295W        W20522  14.040  44.780  11.468
55296W        W20523  40.431   9.058   4.197
55297W        W20524  40.924   5.143   2.363
55298W        W20525  19.703  16.169   4.502
55299W        W20526   9.140  31.835  11.645
55300W        W20527   6.796  28.033  13.831
55301W        W20528  20.003  33.967   2.924
55302W        W20529  32.921  42.159   4.898
55303W        W20530  15.762  18.215   3.563
55304W        W20531  18.355  40.876   1.396
55305W        W20532  24.996  36.512  13.429
55306W        W20533  17.574  31.613  12.469
55307W        W20534  19.224  44.259   0.778
55308W        W20535  17.118  36.991   3.581
55309W        W20536  38.465  28.943   4.404
55310W        W20537  34.911   0.018  11.720
55311W        W20538  20.740  33.496   2.903
55312W        W20539  18.541  32.990  14.571
55313W        W20540  44.684   6.169   4.396
55314W        W20541  28.700  19.817  14.669
55315W        W20542  35.896  39.034  13.528
55316W        W20543   5.865  22.067  14.951
55317W        W20544  38.572  37.037   2.313
55318W        W20545  24.481  16.000   2.383
55319W        W20546  11.377  29.573   2.219
55320W        W20547  32.960   4.800  14.831
55321W        W20548   8.384  40.502   2.955
55322W        W20549  21.459  28.861   1.877
55323W        W20550   2.778  30.673   5.052
55324W        W20551  26.462  33.594  12.235
55325W        W20552  34.031  33.935   4.777
55326W        W20553  42.058  32.077  11.116
55327W        W20554  31.644  40.874  10.654
55328W        W20555  31.644  21.324  10.745
55329W        W20556   6.978  32.452  11.423
55330W        W20557   8.657  21.315   2.821
55331W        W20558  41.147  21.355  11.599
55332W        W20559  39.452  42.981   2.647
55333W        W20560   6.745  40.933   2.605
55334W        W20561  43.765   2.189  13.033
55335W        W20562  13.496  18.566   1.916
55336W        W20563  20.279  25.076  13.692
55337W        W20564   3.234  27.068   1.244
55338W        W20565  22.659  43.066  11.592
55339W        W20566  35.428  35.781   2.663
55340W        W20567  17.850  15.224  13.172
55341W        W20568  23.261  42.595  10.299
55342W        W20569  11.637  39.187   2.408
55343W        W20570  21.427   1.678  13.341
55344W        W20571  39.134  42.323   3.659
55345W        W20572  39.798  29.459  14.358
55346W        W20573  43.466  33.588  11.774
55347W        W20574  30.616  35.525  12.887
55348W        W20575  30.357  41.572  11.342
55349W        W20576   2.785   7.784  10.688
55350W        W20577  41.273   9.368  10.692
55351W        W20578  39.274  31.893   4.898
55352W        W20579  31.480   3.062  12.767
55353W        W20580   4.884  18.551  12.863
55354W        W20581  27.965  14.929   1.148
55355W        W20582  41.308  38.601  12.830
55356W        W20583   9.183  28.046   2.778
55357W        W20584  33.087  41.416  11.317
55358W        W20585  12.592   9.145  12.110
55359W        W20586  19.590   7.260  13.394
55360W        W20587  14.621  39.234  13.360
55361W        W20588  12.194  28.708   1.911
55362W        W20589   0.407  24.045   4.492
55363W        W20590  22.762   0.265   0.563
55364W        W20591   9.283  32.652   5.041
55365W        W20592  25.190  14.007   2.602
55366W        W20593  35.454  15.080   1.454
55367W        W20594  23.909   4.807   1.800
55368W        W20595   2.533  15.570   2.848
55369W        W20596   1.974   9.764   2.873
55370W        W20597  40.560   5.218   0.975
55371W        W20598   5.122   6.148  13.410
55372W        W20599   5.367  42.671  12.901
55373W        W20600  36.426  34.170   4.402
55374W        W20601  32.693  18.683   1.907
55375W        W20602  26.523  16.154   2.299
55376W        W20603   7.493   7.933   0.848
55377W        W20604  28.517  28.246   1.236
55378W        W20605   9.207  34.989   1.001
55379W        W20606   1.328  17.216  14.505
55380W        W20607  23.090  17.608   2.281
55381W        W20608  14.744  20.486  11.176
55382W        W20609  30.492   0.719  11.665
55383W        W20610  35.775  30.461  10.768
55384W        W20611  33.604   1.463   2.774
55385W        W20612  24.131  11.815   3.968
55386W        W20613   9.104  18.200  10.777
55387W        W20614   3.829  34.651  12.133
55388W        W20615   9.233   4.078   2.753
55389W        W20616  17.605  28.114   3.557
55390W        W20617   7.757   8.389   1.728
55391W        W20618  35.012  17.160  11.988
55392W        W20619  29.865  43.528   0.816
55393W        W20620   5.316   5.159  13.328
55394W        W20621  24.582  18.772   0.773
55395W        W20622  28.309  44.744  12.599
55396W        W20623  15.115  19.003   0.438
55397W        W20624  32.663  16.990   9.774
55398W        W20625  10.802   6.493  14.409
55399W        W20626  26.005  43.016  12.326
55400W        W20627  40.006  20.749   1.230
55401W        W20628  28.938  16.877   3.641
55402W        W20629  19.761   5.192   2.263
55403W        W20630  21.210  18.771  13.228
55404W        W20631  14.315   1.530  10.761
55405W        W20632  28.974  36.317   0.432
55406W        W20633  36.381  43.293  14.346
55407W        W20634  22.669  20.220   3.705
55408W        W20635  43.476  40.123   0.682
55409W        W20636  10.506  25.410   2.915
55410W        W20637  28.788  43.911  10.657
55411W        W20638   7.858   0.283  12.701
55412W        W20639   4.230  12.480   4.186
55413W        W20640   2.370  40.483   4.651
55414W        W20641   7.637  36.006  11.238
55415W        W20642  22.539  20.561   2.174
55416W        W20643  40.635  13.187  14.426
55417W        W20644  19.032  10.327   1.506
55418W        W20645  24.608  44.913  10.628
55419W        W20646  27.752   0.781   5.023
55420W        W20647  20.485  34.276   4.157
55421W        W20648  16.197  22.656   0.038
55422W        W20649  39.372  12.360  12.753
55423W        W20650   2.854  26.506   0.345
55424W        W20651   3.644  24.954   2.638
55425W        W20652  11.719  20.954   4.814
55426W        W20653  24.030  28.413  13.371
55427W        W20654  30.064  23.474   2.609
55428W        W20655  22.020  35.821   3.214
55429W        W20656  16.333  19.484   0.113
55430W        W20657  42.865  29.721   0.302
55431W        W20658   9.414  12.133  11.827
55432W        W20659  43.591  25.050   4.627
55433W        W20660   4.839  32.616  11.506
55434W        W20661   6.195  44.348   1.221
55435W        W20662  10.351  44.482  12.548
55436W        W20663  14.729  29.251   3.229
55437W        W20664  13.661  17.579   3.666
55438W        W20665  23.686  32.594   0.201
55439W        W20666  38.897   9.945   3.333
55440W        W20667  19.774  44.555  11.523
55441W        W20668  18.486   0.837   1.359
55442W        W20669  29.207  30.542   3.364
55443W        W20670  21.113  11.821   2.019
55444W        W20671  38.525  24.975  14.305
55445W        W20672  42.955   9.869   0.839
55446W        W20673   4.037  33.594  14.438
55447W        W20674  12.167  21.501  13.746
55448W        W20675  19.690  32.636   2.801
55449W        W20676  30.123   2.458   2.986
55450W        W20677   1.294  11.816  13.275
55451W        W20678  10.404  34.426  14.806
55452W        W20679   0.072  43.286  13.505
55453W        W20680   0.188   1.903   4.501
55454W        W20681  41.037   1.842  12.948
55455W        W20682   1.466  11.647   3.131
55456W        W20683  24.375  13.966   5.178
55457W        W20684   6.438  12.669   1.112
55458W        W20685   9.424   3.354  12.081
55459W        W20686  33.862  44.953   2.347
55460W        W20687   9.606  21.798   0.822
55461W        W20688  44.304  40.180  13.123
55462W        W20689  37.823  38.682   2.491
55463W        W20690   0.983  17.758   1.271
55464W        W20691  27.740  19.260   2.876
55465W        W20692  19.199  24.143   1.934
55466W        W20693  20.933   1.823   4.985
55467W        W20694  24.046  30.149  11.623
55468W        W20695   3.470   4.909  12.929
55469W        W20696  10.258  43.320   2.248
55470W        W20697  19.326  34.769   1.435
55471W        W20698  38.360  28.426   1.961
55472W        W20699  16.614  31.568   0.394
55473W        W20700   1.507   9.881  13.561
55474W        W20701  12.214  40.582   3.149
55475W        W20702  39.712   0.967   1.914
55476W        W20703  36.844  23.708   1.658
55477W        W20704  31.921  18.238  14.663
55478W        W20705  12.249  10.597   4.634
55479W        W20706  15.063  43.910   4.290
55480W        W20707  13.181  24.329  13.447
55481W        W20708  40.912  19.637   3.537
55482W        W20709  35.569  10.320  14.939
55483W        W20710  40.554  29.677  13.851
55484W        W20711  39.366  14.488  13.450
55485W        W20712  43.430  43.734  10.729
55486W        W20713  39.651  25.222  14.930
55487W        W20714  10.065  22.483   2.716
55488W        W20715  43.249  36.333   3.669
55489W        W20716  38.284  14.351  13.874
55490W        W20717   2.246  17.687   0.786
55491W        W20718  14.350  37.953  14.477
55492W        W20719  40.422  35.309  11.490
55493W        W20720  15.167   7.997   2.178
55494W        W20721   7.784  13.659  11.403
55495W        W20722   4.390  11.585   1.069
55496W        W20723  15.238  32.625  11.515
55497W        W20724  43.171  30.026   1.426
55498W        W20725  14.255   0.987   1.819
55499W        W20726  31.836   8.890   3.603
55500W        W20727  30.135   6.769  12.027
55501W        W20728  19.824  37.694  12.726
55502W        W20729  38.105  43.291   3.226
55503W        W20730  30.715   2.176  12.986
55504W        W20731   6.641  32.234   4.338
55505W        W20732  10.935  32.862   3.544
55506W        W20733  19.739  30.207   3.306
55507W        W20734  18.460   9.018  11.750
55508W        W20735  41.161  13.813   0.990
55509W        W20736   0.017  17.573  12.854
55510W        W20737  31.128   4.898   1.013
55511W        W20738  14.728  31.928  11.163
55512W        W20739  40.816   6.805  12.213
55513W        W20740  11.899  29.739  12.948
55514W        W20741  22.780  24.126   4.191
55515W        W20742   9.711  29.670  11.104
55516W        W20743  44.771  23.698  12.155
55517W        W20744  24.755  38.285  13.535
55518W        W20745  12.749  43.283   0.001
55519W        W20746   1.648  33.293  13.003
55520W        W20747  14.775  10.093   3.771
55521W        W20748  12.322  26.082  10.547
55522W        W20749   9.255  17.801   5.546
55523W        W20750   3.263  11.868   4.605
55524W        W20751  22.554  20.777  13.893
55525W        W20752  31.571  36.054   0.483
55526W        W20753  40.333   3.171   9.743
55527W        W20754  35.842  25.713   4.173
55528W        W20755  22.214   4.352  13.007
55529W        W20756   9.410   9.646   4.195
55530W        W20757  28.047   4.335  11.671
55531W        W20758  12.641  30.539   2.729
55532W        W20759  42.228   4.488   0.912
55533W        W20760  16.842   1.865  10.681
55534W        W20761  16.575  17.775  14.220
55535W        W20762   9.437  18.259   5.321
55536W        W20763  16.814  31.590   0.871
55537W        W20764   1.768  22.060   1.760
55538W        W20765  11.678  17.308   1.209
55539W        W20766   4.483   3.299   2.770
55540W        W20767  43.269  26.811  10.325
55541W        W20768  31.624  39.799  14.460
55542W        W20769  26.784  21.785  12.734
55543W        W20770  30.654  13.143  12.523
55544W        W20771  29.894  13.710   0.051
55545W        W20772  16.167   1.344  14.799
55546W        W20773  17.244  21.736  14.273
55547W        W20774  27.423   3.357  13.894
55548W        W20775   7.650  22.530   4.324
55549W        W20776   0.831   9.459  14.901
55550W        W20777  41.619  37.787   4.592
55551W        W20778   6.429  21.295  13.498
55552W        W20779   8.423   8.847  11.937
55553W        W20780   4.393  44.106   3.071
55554W        W20781  21.272   0.826   3.553
55555W        W20782  41.990   1.261   2.908
55556W        W20783  42.756   0.374  14.969
55557W        W20784  14.167  35.582   2.852
55558W        W20785  30.195  31.622   0.401
55559W        W20786   6.039  33.193  12.262
55560W        W20787   6.325  24.080   0.449
55561W        W20788  18.170  17.019   3.739
55562W        W20789  24.737   7.374   4.769
55563W        W20790   0.531  41.005  12.434
55564W        W20791  31.553   8.519  12.798
55565W        W20792  18.032   6.936   2.728
55566W        W20793   7.861   2.392  12.190
55567W        W20794   9.886  14.571  12.468
55568W        W20795   4.664  23.072   0.360
55569W        W20796  44.398  16.715   2.874
55570W        W20797  31.601  28.068   1.983
55571W        W20798  40.722  40.724   4.783
55572W        W20799  39.068  43.098   1.438
55573W        W20800   5.344  30.040   4.131
55574W        W20801  16.829  13.156   2.296
55575W        W20802   2.758  11.248   4.202
55576W        W20803  43.315  14.794  12.011
55577W        W20804  14.305  11.659   1.890
55578W        W20805   0.393  15.577   4.552
55579W        W20806  44.136   9.409   3.350
55580W        W20807  37.133  30.375   1.209
55581W        W20808  21.073   3.908   2.777
55582W        W20809   3.731  40.730   2.980
55583W        W20810  14.525  26.517  11.090
55584W        W20811  40.419  32.823   0.039
55585W        W20812  18.700  44.743   4.334
55586W        W20813  16.094   1.036   1.091
55587W        W20814  12.496  35.564  11.579
55588W        W20815  40.554  16.095   1.855
55589W        W20816  32.910  39.471   0.216
55590W        W20817  10.311  32.587   0.713
55591W        W20818  40.936  14.600  13.874
55592W        W20819  24.448  18.132  11.640
55593W        W20820   1.031  34.845  11.398
55594W        W20821  25.146  25.310   3.697
55595W        W20822  29.309   6.264  11.587
55596W        W20823   9.844  36.977   1.473
55597W        W20824  42.741  36.058   3.237
55598W        W20825  42.393   9.580   2.412
55599W        W20826  27.843  43.414   4.661
55600W        W20827  18.776  27.208   2.644
55601W        W20828   9.745  36.465  11.219
55602W        W20829  35.501  33.288  12.452
55603W        W20830  35.506   7.200   0.523
55604W        W20831  17.704  43.736   0.694
55605W        W20832  17.321  21.224   2.907
55606W        W20833  20.104  34.001  13.278
55607W        W20834  27.025  28.092  10.196
55608W        W20835   5.412  24.756  14.710
55609W        W20836  35.562   9.954  11.452
55610W        W20837  12.539  17.119  12.478
55611W        W20838  28.566  10.846   2.366
55612W        W20839  19.814  18.581   4.197
55613W        W20840  34.355  44.852  11.229
55614W        W20841  17.480  32.338  13.148
55615W        W20842  10.136  14.498  10.356
55616W        W20843  36.052  23.261   3.005
55617W        W20844  27.644  21.820   0.191
55618W        W20845  21.994  42.961  13.931
55619W        W20846  10.686  24.990  10.655
55620W        W20847  15.529  25.867   0.362
55621W        W20848  21.416  16.691  11.477
55622W        W20849  34.546   5.813   4.361
55623W        W20850  11.177   2.155  14.137
55624W        W20851  35.768  16.493   2.767
55625W        W20852   3.943  25.961  11.118
55626W        W20853  39.876   2.877  14.959
55627W        W20854  43.363  24.621  13.046
55628W        W20855  17.886   4.169   1.165
55629W        W20856  24.122  29.020   0.693
55630W        W20857  38.849  27.045   1.879
55631W        W20858  39.597  34.771  11.337
55632W        W20859  27.661  27.995   0.853
55633W        W20860  19.793   0.920  12.551
55634W        W20861  37.760   9.902   3.308
55635W        W20862  13.502  23.238  11.343
55636W        W20863  35.065  33.414   2.959
55637W        W20864  22.234   9.215   5.073
55638W        W20865  26.404  27.522  14.615
55639W        W20866  12.360  29.086   4.860
55640W        W20867  37.860  12.129   4.190
55641W        W20868   8.466  30.900   2.766
55642W        W20869  34.380  41.841  14.906
55643W        W20870   2.032  14.007  13.461
55644W        W20871  13.171  29.103  14.989
55645W        W20872  38.363   6.584   1.206
55646W        W20873  36.599  33.582  12.657
55647W        W20874  35.989  22.815   4.208
55648W        W20875  10.306   0.771   4.089
55649W        W20876  31.427  11.469   0.068
55650W        W20877  40.802  35.644  13.788
55651W        W20878  17.642  12.752  12.854
55652W        W20879  19.209  26.275   4.873
55653W        W20880  19.346   0.240  12.945
55654W        W20881  13.779  44.400  11.727
55655W        W20882  41.409   5.383   3.130
55656W        W20883  17.879  36.494  12.532
55657W        W20884  31.905  41.527  14.839
55658W        W20885   3.367  31.927  10.623
55659W        W20886  24.245  38.606  14.361
55660W        W20887   3.061  40.004   1.568
55661W        W20888   4.572  22.424  12.673
55662W        W20889  40.322  41.387  14.023
55663W        W20890   1.326  35.110   0.624
55664W        W20891  12.269  22.963  13.640
55665W        W20892  30.577  21.205  12.055
55666W        W20893   5.305  27.549   1.930
55667W        W20894  12.792  30.736   0.946
55668W        W20895  20.226  19.203   3.448
55669W        W20896   1.522  39.505  10.600
55670W        W20897  32.238  10.587   4.541
55671W        W20898  14.378  26.249   2.249
55672W        W20899  41.011  14.043   4.597
55673W        W20900  13.570  23.927  14.304
55674W        W20901  41.817   4.356   1.202
55675W        W20902  23.755  23.999   3.677
55676W        W20903  15.083   1.025  11.826
55677W        W20904   0.876  18.795   1.231
55678W        W20905  25.238  40.433   2.468
55679W        W20906  11.203  22.508  12.847
55680W        W20907   8.882  35.249  11.675
55681W        W20908  26.091  29.674  10.614
55682W        W20909  13.833  32.549   0.016
55683W        W20910  41.639  34.461   2.723
55684W        W20911  25.056  25.597   2.892
55685W        W20912   5.013  27.581   3.274
55686W        W20913  21.627  43.885   3.289
55687W        W20914  32.855  23.209  11.187
55688W        W20915  18.473  44.954  11.144
55689W        W20916  31.573  34.647  12.807
55690W        W20917  21.628  35.529   0.177
55691W        W20918   9.786  41.649   3.637
55692W        W20919  34.072  31.886   0.114
55693W        W20920  44.878  31.501   4.566
55694W        W20921  13.702   1.809  12.748
55695W        W20922  42.554  40.789  11.939
55696W        W20923  41.153  41.388  12.518
55697W        W20924  10.146   3.540  12.446
55698W        W20925  11.423  33.862  12.786
55699W        W20926  33.467  36.258   4.021
55700W        W20927   8.409  35.466   3.215
55701W        W20928  39.965  39.282   4.972
55702W        W20929  12.613  19.568  12.072
55703W        W20930  35.720  16.087  11.648
55704W        W20931   2.344  22.456   4.842
55705W        W20932  23.905  25.775  13.118
55706W        W20933   7.633  10.283   0.242
55707W        W20934  23.209   9.663  12.385
55708W        W20935  38.054  16.152   2.890
55709W        W20936  25.935   4.681   1.078
55710W        W20937  37.456  20.445   4.662
55711W        W20938   3.459   5.560  10.387
55712W        W20939  13.490  12.820   1.748
55713W        W20940  41.863  27.435  14.502
55714W        W20941  44.386  12.410  14.724
55715W        W20942  23.094   8.228  10.743
55716W        W20943   8.361  38.300  13.912
55717W        W20944  17.046  23.630  12.902
55718W        W20945  44.391  17.829  10.254
55719W        W20946  14.229   5.700   0.479
55720W        W20947  40.181  43.517  14.487
55721W        W20948   7.844   5.259  13.329
55722W        W20949  42.852  22.968  13.469
55723W        W20950   0.173  36.396  13.999
55724W        W20951  15.551  25.898   3.729
55725W        W20952   9.925  15.661  11.721
55726W        W20953  30.420  25.593   3.143
55727W        W20954   7.408  33.925  13.748
55728W        W20955  16.226  22.684   3.402
55729W        W20956  16.187  21.676   2.558
55730W        W20957  26.983  16.007   3.120
55731W        W20958  21.641  19.133  12.952
55732W        W20959  16.853  27.532   4.881
55733W        W20960  16.824   0.369  11.652
55734W        W20961  10.880  31.754  13.971
55735W        W20962  28.012  42.750  12.436
55736W        W20963  20.358  12.881  11.553
55737W        W20964  11.209  13.638   3.116
55738W        W20965   8.122  13.665   4.764
55739W        W20966   4.199   3.951   4.838
55740W        W20967  31.438   5.973   3.633
55741W        W20968  43.477   9.193  12.946
55742W        W20969  42.885  32.695   2.634
55743W        W20970  23.204  39.113   0.330
55744W        W20971  10.648  24.226   1.452
55745W        W20972  44.521  33.959  14.927
55746W        W20973  25.168   5.683  12.712
55747W        W20974  14.972  34.309  11.010
55748W        W20975  28.486  25.280   1.107
55749W        W20976  14.684  36.451  13.977
55750W        W20977  25.441  39.442   3.258
55751W        W20978  44.294  41.985  14.495
55752W        W20979  18.065  44.875   1.914
55753W        W20980  20.892  17.231   5.080
55754W        W20981  10.918  24.123   4.306
55755W        W20982  30.254  14.357  13.504
55756W        W20983  17.735   7.679  11.622
55757W        W20984  30.690  16.897  12.762
55758W        W20985  31.176  44.710   0.807
55759W        W20986   4.426  43.469   1.793
55760W        W20987  17.834  36.566   3.550
55761W        W20988  11.227  11.161  13.181
55762W        W20989   4.356  18.073  12.989
55763W        W20990  22.062  34.361   0.171
55764W        W20991  14.496  22.458   0.360
55765W        W20992  38.141  16.336   1.679
55766W        W20993  35.982  32.613  14.483
55767W        W20994  22.582  17.653   0.240
55768W        W20995  19.013  25.347   4.728
55769W        W20996  40.471  38.942  14.434
55770W        W20997   7.330  29.629  10.810
55771W        W20998  14.852   0.203   0.411
55772W        W20999  27.263   0.291   1.232
55773W        W21000   0.623  24.153  14.684
55774W        W21001  11.498  44.212   3.812
55775W        W21002  23.084  32.882  11.139
55776W        W21003  29.418  40.040   2.220
55777W        W21004  43.177   0.761  13.027
55778W        W21005  19.296  28.600   0.723
55779W        W21006  33.447   2.833  12.900
55780W        W21007  26.605  19.909  10.224
55781W        W21008  43.160  10.785  14.530
55782W        W21009   8.498   9.716   4.651
55783W        W21010  30.166  43.801   3.496
55784W        W21011  43.489  25.188   4.139
55785W        W21012  22.948  27.789  11.580
55786W        W21013  19.681  33.560  13.422
55787W        W21014  24.338  30.056   0.576
55788W        W21015  16.347  10.231  10.515
55789W        W21016  37.052  37.270   0.251
55790W        W21017  39.858  37.619   2.314
55791W        W21018  26.427  37.941  11.705
55792W        W21019  39.147   7.183  12.656
55793W        W21020   1.003   4.477   3.227
55794W        W21021  41.308  38.008   2.287
55795W        W21022  43.288  29.794  10.175
55796W        W21023  15.477   3.487  12.593
55797W        W21024   5.717  29.795  13.813
55798W        W21025   5.919  29.653   0.671
55799W        W21026  20.009  14.629  11.100
55800W        W21027  14.185  20.221  10.942
55801W        W21028  23.940   5.751   1.779
55802W        W21029  33.730  37.400   0.874
55803W        W21030   5.182   9.299   3.091
55804W        W21031   7.758  19.222  11.479
55805W        W21032  36.437  28.575  12.440
55806W        W21033  30.769  28.571   4.151
55807W        W21034  15.642  11.731   2.691
55808W        W21035  18.769  39.833  11.463
55809W        W21036  36.980  30.102  10.958
55810W        W21037  16.001  37.384   1.717
55811W        W21038   2.672   0.797  13.526
55812W        W21039  34.396  34.978  14.409
55813W        W21040   0.856  39.890  14.417
55814W        W21041   2.183  35.618  13.546
55815W        W21042  36.831  28.125   2.374
55816W        W21043  12.740  21.352   4.210
55817W        W21044  18.315   4.473   1.234
55818W        W21045  39.922  22.595  14.040
55819W        W21046  14.618  29.049   2.229
55820W        W21047   3.688  18.479   4.964
55821W        W21048  11.633  38.337   1.720
55822W        W21049  37.198  22.401  11.214
55823W        W21050  24.029   7.663   4.519
55824W        W21051  39.612  44.480  14.308
55825W        W21052   4.130   4.620  14.734
55826W        W21053  27.392  39.237  11.137
55827W        W21054  27.385  17.714  12.445
55828W        W21055  42.292  28.538  14.286
55829W        W21056   0.637   5.309   0.315
55830W        W21057  23.568  44.956  10.670
55831W        W21058  16.016  42.017   2.137
55832W        W21059  36.518  36.882   0.215
55833W        W21060  25.441   7.945  11.695
55834W        W21061  16.235  10.874  12.968
55835W        W21062  20.208  39.545   4.491
55836W        W21063  36.499  32.021   4.379
55837W        W21064   5.593  37.820  10.680
55838W        W21065  21.896  34.749  13.903
55839W        W21066  32.217  43.854  10.492
55840W        W21067  31.894  23.882   5.013
55841W        W21068  41.966  40.529  10.704
55842W        W21069  22.666  14.681   2.733
55843W        W21070  18.528  40.580   4.232
55844W        W21071  24.595  14.342  10.663
55845W        W21072  38.911   8.925   1.429
55846W        W21073  40.050  38.596   2.285
55847W        W21074  28.424  33.606  13.811
55848W        W21075  23.879  16.246  11.191
55849W        W21076  37.013   2.990  11.192
55850W        W21077  37.227  18.962  14.704
55851W        W21078  26.112  36.090  14.674
55852W        W21079  34.381  40.960  11.634
55853W        W21080  22.988  15.072   4.754
55854W        W21081  25.764   7.876  11.321
55855W        W21082   2.359  42.861   1.166
55856W        W21083   0.916   8.224   0.495
55857W        W21084  14.951  30.987   4.709
55858W        W21085  10.958  16.178   3.645
55859W        W21086  34.986  32.385   2.633
55860W        W21087  17.376  43.192   1.421
55861W        W21088  15.396  36.908  12.445
55862W        W21089   6.931  25.045  12.561
55863W        W21090  36.778  18.685  14.072
55864W        W21091   5.151  23.572   0.888
55865W        W21092  13.470  27.571  12.650
55866W        W21093  33.512  41.980  12.973
55867W        W21094  17.266  40.361   3.031
55868W        W21095  34.751  16.794   4.035
55869W        W21096  18.829  42.105   2.576
55870W        W21097   9.333  33.377  11.444
55871W        W21098  10.458  33.690   4.594
55872W        W21099  17.061  12.161  14.777
55873W        W21100   3.242   9.439   2.836
55874W        W21101  29.868  16.696   4.200
55875W        W21102  34.852  12.662  10.249
55876W        W21103  41.354  27.175   2.783
55877W        W21104  23.202  28.047   1.556
55878W        W21105  17.196  40.844   4.779
55879W        W21106  35.131  41.382   2.898
55880W        W21107   4.191  17.753   1.647
55881W        W21108   7.765  35.494  14.176
55882W        W21109  28.718   8.879  14.262
55883W        W21110  17.715  28.850   1.688
55884W        W21111  11.811   6.722   0.922
55885W        W21112  25.427   6.947  14.815
55886W        W21113  41.100  21.780   4.173
55887W        W21114  22.967  44.935   1.977
55888W        W21115  11.917  15.114  11.423
55889W        W21116  33.909   0.652   3.230
55890W        W21117  27.028  19.269   3.251
55891W        W21118  30.500  18.753  13.046
55892W        W21119  30.892  17.737   1.259
55893W        W21120  20.709  17.589   2.781
55894W        W21121   1.700  26.198   4.099
55895W        W21122  30.890  11.729   2.172
55896W        W21123  37.529  25.642   3.632
55897W        W21124  41.510   4.721  12.428
55898W        W21125  14.366   5.838  12.542
55899W        W21126  38.878   1.864  10.663
55900W        W21127   8.270  36.548  14.762
55901W        W21128  21.850  37.376   1.243
55902W        W21129  34.179   3.087  11.634
55903W        W21130  14.746  30.567  12.432
55904W        W21131  34.122   0.330   2.879
55905W        W21132  40.237  41.723   2.435
55906W        W21133  42.336  30.372  13.520
55907W        W21134   5.138  25.201  14.805
55908W        W21135  20.642  26.487   0.961
55909W        W21136   0.826  17.142  14.325
55910W        W21137  33.907   6.533   0.650
55911W        W21138  30.977  26.408   3.608
55912W        W21139  13.702  27.525   3.747
55913W        W21140   5.329  33.021   3.393
55914W        W21141  38.196  39.092   3.754
55915W        W21142   0.689   4.626  14.299
55916W        W21143  16.033  34.332  13.441
55917W        W21144  26.283  42.208  12.015
55918W        W21145  30.246  25.719   0.213
55919W        W21146  40.272  24.577   0.158
55920W        W21147  25.289   0.068   3.925
55921W        W21148  15.024  27.405  14.351
55922W        W21149  40.304   9.826   1.759
55923W        W21150  20.600  36.897  11.547
55924W        W21151  33.696  25.616   2.591
55925W        W21152  40.882  19.709  10.571
55926W        W21153  25.489  18.606   2.349
55927W        W21154  25.140  30.449   0.785
55928W        W21155  39.954  38.982  14.518
55929W        W21156  19.824  37.546  11.126
55930W        W21157  40.798  35.318  11.126
55931W        W21158  37.768  35.298   4.066
55932W        W21159  15.545  31.345   3.303
55933W        W21160  23.801   3.528   3.003
55934W        W21161  24.709  19.955  14.475
55935W        W21162  23.206  43.006   5.320
55936W        W21163  24.965  40.289  11.500
55937W        W21164  17.790  17.823   1.181
55938W        W21165  16.028   4.221  12.934
55939W        W21166  24.762  26.662   2.006
55940W        W21167  33.318  41.995   4.603
55941W        W21168  18.575  31.597  12.659
55942W        W21169   4.346   2.210  12.880
55943W        W21170  43.214   4.039   1.322
55944W        W21171  16.038  27.619   3.710
55945W        W21172  44.682  35.618  11.637
55946W        W21173  10.320  19.118   4.570
55947W        W21174  44.340  13.653   4.392
55948W        W21175  36.410  24.132   0.385
55949W        W21176  38.738   1.929   1.602
55950W        W21177  32.912  44.652  13.093
55951W        W21178   0.763  23.547  11.873
55952W        W21179  36.225  27.316  13.136
55953W        W21180  29.373   4.350   3.187
55954W        W21181  30.419  44.712  11.634
55955W        W21182   8.857  38.138  14.022
55956W        W21183  26.532  16.243  14.075
55957W        W21184  16.284  43.457  11.007
55958W        W21185  42.252  34.365  12.970
55959W        W21186  14.209  29.450   5.199
55960W        W21187  35.908  43.414  12.589
55961W        W21188  37.903  36.308  10.683
55962W        W21189  14.884   2.923  10.675
55963W        W21190  42.039  27.440   1.843
55964W        W21191  39.023  40.062   1.576
55965W        W21192   5.064  43.940  14.927
55966W        W21193  36.360   6.720   0.945
55967W        W21194  35.265   6.508  11.196
55968W        W21195  41.455  30.588   3.772
55969W        W21196  36.929  28.444  14.737
55970W        W21197  43.716  33.388   4.206
55971W        W21198  14.034  25.408  13.995
55972W        W21199  44.208   1.598   4.275
55973W        W21200  36.789  27.564  12.468
55974W        W21201  43.676   3.362  14.982
55975W        W21202  16.239  23.460   5.118
55976W        W21203  28.031  12.428  10.783
55977W        W21204  43.058  32.003  14.008
55978W        W21205  28.748  34.709   1.158
55979W        W21206  15.647  44.538  12.883
55980W        W21207   8.147  17.515  10.375
55981W        W21208   1.557   1.492  13.781
55982W        W21209  39.077   2.871  12.700
55983W        W21210  35.694  40.499   1.283
55984W        W21211  24.162  23.719   1.710
55985W        W21212  44.652   3.927  13.139
55986W        W21213  30.064  25.934   2.926
55987W        W21214   3.759  15.155  14.532
55988W        W21215  28.672  35.564  13.774
55989W        W21216  21.240  21.476   2.741
55990W        W21217   7.591  35.365   2.911
55991W        W21218   5.939  39.724  12.079
55992W        W21219  36.427  40.469  11.068
55993W        W21220  44.681   7.496   2.173
55994W        W21221  40.841  34.069   1.855
55995W        W21222   4.403  42.355  13.387
55996W        W21223  41.437  43.574   2.272
55997W        W21224  29.414  38.875   1.233
55998W        W21225  25.140  28.641   0.234
55999W        W21226  22.740  40.294  11.585
56000W        W21227   8.230  39.017  13.510
56001W        W21228  18.794  13.210  11.576
56002W        W21229  20.905  11.876   3.302
56003W        W21230  19.273  34.388   4.843
56004W        W21231  15.659  24.492  11.080
56005W        W21232  11.896   6.208   4.384
56006W        W21233  44.798  40.322   3.492
56007W        W21234  13.216  14.830  12.568
56008W        W21235  18.758   1.674  13.146
56009W        W21236   5.863   6.170  13.825
56010W        W21237   4.781  13.664   3.204
56011W        W21238  18.999   4.311  11.529
56012W        W21239  23.057  13.611  12.074
56013W        W21240   2.825  16.320   2.678
56014W        W21241  31.006  24.277   0.307
56015W        W21242  44.021  22.713   4.571
56016W        W21243   5.649   1.338   0.969
56017W        W21244   2.494   6.367  10.890
56018W        W21245   8.184  27.235  13.068
56019W        W21246  44.398  44.380   2.698
56020W        W21247  24.207   1.730   3.171
56021W        W21248  25.199  17.618   1.010
56022W        W21249   9.359   5.896   1.653
56023W        W21250  13.504  40.311  13.051
56024W        W21251  17.528   4.802   1.765
56025W        W21252  30.103  22.961   1.859
56026W        W21253   5.921   2.431   4.095
56027W        W21254  23.496  18.277   3.618
56028W        W21255   2.903  15.818   4.068
56029W        W21256  21.757  18.933   2.045
56030W        W21257  37.732  34.511   2.941
56031W        W21258  25.688  22.165  11.588
56032W        W21259   5.273  37.512  12.854
56033W        W21260  18.274  25.990  10.603
56034W        W21261  12.275  18.216   3.198
56035W        W21262  23.339  43.397   5.002
56036W        W21263  41.105   5.677  12.945
56037W        W21264   1.260  34.598   3.884
56038W        W21265  10.419  33.426   2.642
56039W        W21266   1.919  27.643   4.027
56040W        W21267  31.855  38.944   0.740
56041W        W21268  15.224  20.048   1.429
56042W        W21269  34.235   2.362  14.563
56043W        W21270  24.176  11.846  11.543
56044W        W21271  39.170  39.017  13.862
56045W        W21272  37.317  26.890  12.595
56046W        W21273  38.816   0.870  14.784
56047W        W21274  41.305  34.922  14.304
56048W        W21275  34.773  26.453   1.228
56049W        W21276  25.150  33.838  14.371
56050W        W21277  44.540   4.496  14.920
56051W        W21278   8.197  29.086  10.479
56052W        W21279   7.181  10.283   0.994
56053W        W21280   1.424  41.374  14.869
56054W        W21281   5.821   7.714   1.275
56055W        W21282   4.210   0.294   4.423
56056W        W21283   7.463  29.505   3.825
56057W        W21284  14.320  21.527  14.320
56058W        W21285  26.968  33.617  11.100
56059W        W21286  18.715  10.653   3.464
56060W        W21287  18.100  24.534  14.312
56061W        W21288  17.376  23.688  11.091
56062W        W21289   5.877   2.110  14.792
56063W        W21290  42.486  22.602  14.961
56064W        W21291  12.093   6.363   2.900
56065W        W21292  13.611  36.345  14.969
56066W        W21293  23.482  35.599   2.371
56067W        W21294   9.156  26.701   2.257
56068W        W21295  37.319  44.427   3.224
56069W        W21296  21.538  41.739   1.200
56070W        W21297   3.400  42.287   2.263
56071W        W21298  33.917   3.429  14.243
56072W        W21299   8.777  36.238   2.833
56073W        W21300  20.219  20.863  13.840
56074W        W21301  32.829  10.060  12.312
56075W        W21302   1.488  14.771   2.394
56076W        W21303  21.540  39.498   1.602
56077W        W21304  14.250  18.804   3.256
56078W        W21305   5.079   9.960  13.542
56079W        W21306  43.346  28.685   4.279
56080W        W21307  36.920  31.954   4.063
56081W        W21308  44.621   5.750  12.856
56082W        W21309   6.704  38.525  12.885
56083W        W21310   0.828   0.558  13.399
56084W        W21311   2.924  19.174  10.606
56085W        W21312  26.840  23.195  12.978
56086W        W21313  30.142   8.796  10.596
56087W        W21314  12.519   4.728   1.203
56088W        W21315  18.780  40.645   0.647
56089W        W21316  23.201   2.838   3.344
56090W        W21317  15.021  11.613  11.226
56091W        W21318  12.887  37.268   4.452
56092W        W21319   9.512  43.841  10.450
56093W        W21320   6.865  16.632  14.330
56094W        W21321  10.827  33.692   0.397
56095W        W21322  20.189   5.939  14.983
56096W        W21323  35.480   0.394  11.237
56097W        W21324  10.600   3.496  11.606
56098W        W21325   9.005  37.627   5.141
56099W        W21326   4.787  33.460   4.992
56100W        W21327  35.405  43.416  14.562
56101W        W21328  44.313  15.731   0.757
56102W        W21329  17.100  33.056  11.648
56103W        W21330  15.427  44.997  10.231
56104W        W21331  13.096  22.749   4.371
56105W        W21332  31.364  44.214   0.754
56106W        W21333  29.851  36.907   0.079
56107W        W21334  36.500  23.042  14.954
56108W        W21335   6.496  15.086   1.709
56109W        W21336  24.300   4.311   4.088
56110W        W21337  20.062  10.434  13.961
56111W        W21338  13.218   5.535  13.239
56112W        W21339  11.366  22.525  11.543
56113W        W21340   0.326  39.801  13.309
56114W        W21341  39.619   1.095   4.132
56115W        W21342  28.009  37.733   1.344
56116W        W21343  25.174  39.453   2.677
56117W        W21344  31.107  39.469  11.784
56118W        W21345  16.056  18.215  11.500
56119W        W21346   2.842  21.673   4.749
56120W        W21347   4.032  40.627  10.678
56121W        W21348  13.735   8.816   3.771
56122W        W21349   1.692  38.251   0.345
56123W        W21350  36.012  28.732  14.226
56124W        W21351  31.851  30.613  13.922
56125W        W21352  28.439  35.281   3.250
56126W        W21353  36.017  41.773   3.246
56127W        W21354  15.591   7.155  13.642
56128W        W21355  32.632   5.935  12.886
56129W        W21356  36.356  29.498  12.543
56130W        W21357  14.821   6.466   4.175
56131W        W21358  26.759  41.467  13.538
56132W        W21359  40.082  37.803   3.173
56133W        W21360   9.215   1.879  13.986
56134W        W21361  34.913   4.677  11.153
56135W        W21362  13.911  40.792   4.441
56136W        W21363  40.293  22.118  12.524
56137W        W21364  35.897  40.304   4.094
56138W        W21365  31.372  27.439   0.299
56139W        W21366  29.731   1.000   0.881
56140W        W21367  15.238  23.351   1.263
56141W        W21368  39.765  11.134   3.330
56142W        W21369  11.577  25.108   0.360
56143W        W21370  15.403   0.827  11.501
56144W        W21371  39.245  19.714   1.872
56145W        W21372  12.807   5.876   1.748
56146W        W21373   0.393  32.968   4.469
56147W        W21374  12.527   6.775   4.091
56148W        W21375  21.148  37.671   3.612
56149W        W21376  31.701   3.386  11.568
56150W        W21377  16.136  15.287   1.058
56151W        W21378  24.003  41.916  14.899
56152W        W21379  42.029  34.825  12.972
56153W        W21380  33.554  26.176  11.053
56154W        W21381   5.525  19.335  11.211
56155W        W21382  25.942  28.966   3.130
56156W        W21383  11.249  13.643  11.197
56157W        W21384  23.676   6.375   2.587
56158W        W21385  26.804  32.475   4.891
56159W        W21386  23.435  35.553   0.657
56160W        W21387  31.018  18.766  12.985
56161W        W21388  40.416  34.123   0.264
56162W        W21389  40.395  24.002   2.765
56163W        W21390  11.376  28.148  14.328
56164W        W21391   9.093  16.665   1.801
56165W        W21392   7.424  36.482  14.565
56166W        W21393  29.973  43.937  12.572
56167W        W21394  22.230  23.003   1.072
56168W        W21395  35.482  15.854   4.238
56169W        W21396  33.317  43.141  11.846
56170W        W21397  39.828   6.484   2.801
56171W        W21398  42.227  32.021   1.334
56172W        W21399  21.244  25.947   1.365
56173W        W21400  14.738  20.738  14.031
56174W        W21401  21.163  44.261   3.984
56175W        W21402   5.547  26.371  13.634
56176W        W21403  37.385  25.336  10.284
56177W        W21404  16.045  12.755  13.052
56178W        W21405  10.832  16.639  14.003
56179W        W21406  26.177  32.155   0.495
56180W        W21407  22.490  31.323  11.163
56181W        W21408  28.981  39.497   3.686
56182W        W21409  21.759  37.262   0.294
56183W        W21410  29.347   3.866  11.032
56184W        W21411  18.747   5.257   2.333
56185W        W21412   7.498  14.263  10.331
56186W        W21413  12.464  37.486   1.588
56187W        W21414  17.354  24.953  13.900
56188W        W21415  28.754  34.389  12.904
56189W        W21416  17.216   6.713   1.454
56190W        W21417  35.165  22.691  11.611
56191W        W21418  23.714  36.406  12.135
56192W        W21419  11.174  22.616   0.320
56193W        W21420  36.241  26.359  11.166
56194W        W21421   6.420  19.505  12.090
56195W        W21422  32.951  19.776   0.429
56196W        W21423  22.269  42.972   4.079
56197W        W21424  16.504  29.454   2.792
56198W        W21425  20.702  38.369   4.623
56199W        W21426  43.479  25.112   3.615
56200W        W21427  30.063   1.980  11.995
56201W        W21428  38.846  34.902  13.460
56202W        W21429  35.030  23.936   2.618
56203W        W21430  23.442  29.735  12.430
56204W        W21431  43.049  44.314   1.419
56205W        W21432  28.363   0.701   3.372
56206W        W21433  33.654  25.368  10.625
56207W        W21434  11.219  37.785   0.534
56208W        W21435  18.695   4.417   0.049
56209W        W21436  19.397  42.486  14.353
56210W        W21437  38.889  24.630   0.041
56211W        W21438  30.661  43.916  11.141
56212W        W21439  11.195   8.652   4.292
56213W        W21440  26.915   5.153   0.313
56214W        W21441  10.869  22.182   2.335
56215W        W21442  38.087   2.028  13.030
56216W        W21443   4.998  36.343  12.230
56217W        W21444   9.650  32.535  11.348
56218W        W21445  19.524  13.272   3.273
56219W        W21446  23.211   7.151   2.404
56220W        W21447  36.370  18.541   1.766
56221W        W21448  35.024  40.910  12.929
56222W        W21449   3.305  18.789   3.024
56223W        W21450  17.269  12.208   0.782
56224W        W21451  35.058  28.134   4.734
56225W        W21452  24.213  29.351  13.333
56226W        W21453  19.102  28.256  11.306
56227W        W21454   7.471   9.932  11.690
56228W        W21455  18.684  33.673  13.802
56229W        W21456   6.759  20.725  12.534
56230W        W21457   3.892  18.820   1.240
56231W        W21458  30.392  12.156  10.664
56232W        W21459   2.332  16.017   3.023
56233W        W21460  12.858  42.422   2.353
56234W        W21461  38.484   9.815  10.322
56235W        W21462  27.433  21.688   2.628
56236W        W21463  28.563  28.872  13.501
56237W        W21464  40.767   6.714  14.823
56238W        W21465  22.141  13.549   4.594
56239W        W21466  37.147  15.328   1.350
56240W        W21467  44.761  36.579   0.343
56241W        W21468  37.355  25.554   4.111
56242W        W21469  13.425  32.942   2.850
56243W        W21470   1.348  41.863  11.137
56244W        W21471  42.289  38.297   3.641
56245W        W21472   8.149  43.361   0.002
56246W        W21473   8.459  38.551  14.355
56247W        W21474  24.145  42.618  14.126
56248W        W21475  16.007  32.647   0.311
56249W        W21476  15.158  34.586  12.411
56250W        W21477   8.984  33.327   1.313
56251W        W21478   3.953  25.501   3.895
56252W        W21479   3.249   8.172   5.174
56253W        W21480  40.795  33.372  11.047
56254W        W21481   1.959  29.497   4.110
56255W        W21482   2.830  43.310  14.791
56256W        W21483  37.077  17.444  12.061
56257W        W21484  16.827   5.221   2.446
56258W        W21485  15.129  44.454  13.071
56259W        W21486   1.519  32.258   0.857
56260W        W21487   8.210  29.637  13.869
56261W        W21488  22.098  14.639  13.017
56262W        W21489  34.243   4.320   0.270
56263W        W21490   2.454  42.254   4.046
56264W        W21491  30.534  22.088   3.295
56265W        W21492   1.161  41.372   1.426
56266W        W21493   3.956   8.446  10.792
56267W        W21494  28.894  41.522   3.341
56268W        W21495  37.919  11.410   1.410
56269W        W21496  38.504   3.052   0.683
56270W        W21497  12.264  39.381  10.696
56271W        W21498   3.360  12.244  13.074
56272W        W21499  44.980   1.258   3.660
56273W        W21500  23.591  40.001   4.037
56274W        W21501  41.905  30.243   0.820
56275W        W21502   7.280  12.567   3.097
56276W        W21503  29.860  11.770  11.149
56277W        W21504   2.818  10.424   0.449
56278W        W21505  21.105  33.614   4.271
56279W        W21506  18.802  25.275  11.809
56280W        W21507   0.841  34.452  13.627
56281W        W21508   9.021   1.975   2.518
56282W        W21509  44.470  31.334   1.942
56283W        W21510  15.566  38.016  12.068
56284W        W21511  35.692   2.254  12.876
56285W        W21512   0.212  11.115   3.252
56286W        W21513  16.288  27.490   4.498
56287W        W21514   9.809  32.547  13.011
56288W        W21515   1.993  34.826   2.693
56289W        W21516   5.989  32.823   3.779
56290W        W21517  15.903  32.887   4.516
56291W        W21518  24.715  15.122   0.313
56292W        W21519  26.339  17.215   1.226
56293W        W21520  43.982   8.342   1.743
56294W        W21521   6.407  14.302   0.336
56295W        W21522  23.950  39.097  12.667
56296W        W21523   5.480  11.845  14.025
56297W        W21524  37.441  20.722  11.847
56298W        W21525  29.005  17.205  11.991
56299W        W21526  15.804  10.773   2.338
56300W        W21527  36.078  21.028   2.328
56301W        W21528   6.498   7.129   1.765
56302W        W21529   4.851  44.814  12.788
56303W        W21530   0.379  10.127  10.879
56304W        W21531  34.089  15.865   1.686
56305W        W21532  14.863  12.195   1.835
56306W        W21533  38.376  42.306   0.591
56307W        W21534  35.083  13.357   0.229
56308W        W21535   2.343  18.310   2.398
56309W        W21536  36.973  11.428   4.971
56310W        W21537   9.429  19.548  13.466
56311W        W21538   5.777  42.056   2.066
56312W        W21539  23.970  31.274  14.761
56313W        W21540  10.225  21.612  14.269
56314W        W21541  12.575   9.425   4.522
56315W        W21542  14.321  31.425   3.752
56316W        W21543  41.725  33.469  10.114
56317W        W21544  12.070  13.649  10.834
56318W        W21545  11.903  11.263  14.362
56319W        W21546  36.363  15.072  12.588
56320W        W21547  10.610  41.498   2.192
56321W        W21548  43.533  37.808   4.688
56322W        W21549  27.097  12.788  14.989
56323W        W21550  15.061  19.942  14.456
56324W        W21551  32.545  40.842   0.964
56325W        W21552  40.076   8.709   1.550
56326W        W21553  11.939   6.191   0.918
56327W        W21554  40.248  27.432   1.433
56328W        W21555  23.544  15.616   0.379
56329W        W21556   8.136  38.039  10.495
56330W        W21557  32.673  23.457   2.231
56331W        W21558  43.967  20.323   4.095
56332W        W21559  30.932  44.797  11.121
56333W        W21560  32.959  33.442  12.838
56334W        W21561   2.844  11.708  12.506
56335W        W21562   6.671  12.830  12.969
56336W        W21563  26.502  37.440  11.917
56337W        W21564   4.725  30.772  14.300
56338W        W21565  39.352  24.539   1.824
56339W        W21566  21.614  38.901  12.456
56340W        W21567  30.100  15.250   0.673
56341W        W21568  29.001  41.782   0.901
56342W        W21569  32.534  34.017   4.336
56343W        W21570  17.727  20.725  11.446
56344W        W21571  32.123  43.520   2.664
56345W        W21572  31.676  39.074  10.208
56346W        W21573  20.524  41.453  14.456
56347W        W21574   2.014  19.885   3.995
56348W        W21575  34.083  11.679  13.992
56349W        W21576   8.668  43.999  12.842
56350W        W21577  35.299  32.349  10.665
56351W        W21578  26.458   5.170   2.239
56352W        W21579  32.414  37.854  12.127
56353W        W21580   2.472   4.129   2.373
56354W        W21581  37.443   4.664   2.383
56355W        W21582  18.166  41.234   4.076
56356W        W21583  38.807   3.214   1.286
56357W        W21584   3.528  34.159   0.408
56358W        W21585   0.539   9.917   4.776
56359W        W21586  36.827  17.994  12.427
56360W        W21587   5.772  32.412   1.943
56361W        W21588  30.710  26.658  13.471
56362W        W21589  17.796  20.224  12.461
56363W        W21590  40.926  37.922  13.394
56364W        W21591  23.174   5.331   0.813
56365W        W21592  43.877  10.658   4.893
56366W        W21593  10.902  31.865   1.903
56367W        W21594  14.854   6.034   0.766
56368W        W21595   9.715  43.751   4.588
56369W        W21596  19.277  15.309   2.750
56370W        W21597  36.168  24.167  14.462
56371W        W21598  17.839   2.355   3.756
56372W        W21599   1.292   2.655  11.194
56373W        W21600  32.631  26.521  11.180
56374W        W21601  21.079  13.893  11.667
56375W        W21602  13.383  34.910  12.437
56376W        W21603  21.697   2.935   1.347
56377W        W21604  23.120  11.678   2.248
56378W        W21605  36.048   3.913  11.566
56379W        W21606   7.322  42.681  12.929
56380W        W21607  30.662  25.448  13.898
56381W        W21608   4.422   9.834  10.876
56382W        W21609   8.480   4.874  11.387
56383W        W21610  15.847   1.213   0.681
56384W        W21611  23.136  29.165  11.886
56385W        W21612  13.186  13.033   3.859
56386W        W21613  40.099   4.888   4.475
56387W        W21614  32.170  28.271  14.334
56388W        W21615  14.279  21.816  13.058
56389W        W21616  20.503  21.552   2.372
56390W        W21617  20.660  20.602  13.917
56391W        W21618  41.578   1.052  10.251
56392W        W21619  33.882  11.197  13.949
56393W        W21620  14.393  31.472  12.071
56394W        W21621  33.996  41.583   1.169
56395W        W21622  11.014  30.024  12.860
56396W        W21623   9.321  25.611   1.308
56397W        W21624  43.786   0.497  14.038
56398W        W21625  16.195  10.634  14.424
56399W        W21626  36.437  21.928   4.203
56400W        W21627  32.992  25.278   3.689
56401W        W21628  20.724  12.921   4.105
56402W        W21629  11.827  37.435   2.187
56403W        W21630  21.382  43.654   4.617
56404W        W21631  13.112  28.665   2.873
56405W        W21632   9.785  35.532  11.162
56406W        W21633  22.889  10.399  11.993
56407W        W21634   7.672   5.518  14.260
56408W        W21635  11.721  33.099   0.130
56409W        W21636  16.100  17.208   2.291
56410W        W21637  12.015  32.334   3.854
56411W        W21638  11.900  44.918   4.852
56412W        W21639  24.165  28.446  11.967
56413W        W21640  37.777  39.978   9.850
56414W        W21641  16.380   0.085   2.709
56415W        W21642  23.820  28.985  13.569
56416W        W21643  22.739  15.348  13.089
56417W        W21644  34.163  11.774  10.730
56418W        W21645   2.208  31.582  11.516
56419W        W21646  10.630  39.728   1.457
56420W        W21647   4.725  26.714  14.044
56421W        W21648  17.329  35.933  13.527
56422W        W21649  40.500  18.745  10.773
56423W        W21650   0.743   9.959   0.062
56424W        W21651  44.285   1.685  11.894
56425W        W21652   7.920   3.092   4.987
56426W        W21653  19.567   2.699  14.434
56427W        W21654  27.472  42.275  14.344
56428W        W21655  21.566  18.454  11.468
56429W        W21656  44.224  38.974  13.890
56430W        W21657  15.081  20.805   0.740
56431W        W21658  41.897  21.035   0.905
56432W        W21659  14.410   5.188   4.050
56433W        W21660  21.303  23.527  12.525
56434W        W21661  18.260  37.527  10.503
56435W        W21662   9.847  21.148   1.154
56436W        W21663  24.941  36.287  11.284
56437W        W21664  16.012  30.115  11.139
56438W        W21665  29.061  23.710   1.786
56439W        W21666  29.628   8.354  10.629
56440W        W21667   0.421  32.853  11.101
56441W        W21668  36.819  23.024  14.061
56442W        W21669   2.429  30.075   1.885
56443W        W21670  28.232  26.844  13.984
56444W        W21671  21.724  21.700  11.196
56445W        W21672  29.038  24.503   1.269
56446W        W21673   5.734  42.950  11.895
56447W        W21674   4.393   0.455   3.513
56448W        W21675  18.823  26.599  14.013
56449W        W21676   4.984  11.508   5.116
56450W        W21677   4.883  38.374   4.067
56451W        W21678  43.571  28.968  12.813
56452W        W21679  12.296  40.561  11.336
56453W        W21680  39.775  40.928   3.707
56454W        W21681  21.004   3.175   3.898
56455W        W21682  22.812  12.634   1.052
56456W        W21683  29.852  19.811  13.118
56457W        W21684  18.749  27.380  14.356
56458W        W21685  25.179  39.883   3.236
56459W        W21686  25.630  33.616  14.496
56460W        W21687  20.779  10.549   2.737
56461W        W21688  15.081  40.012   1.404
56462W        W21689  17.154  12.212   3.739
56463W        W21690  44.942  42.921   0.459
56464W        W21691  41.949  34.375   0.815
56465W        W21692  13.130  35.381  12.447
56466W        W21693  42.166  42.847   3.059
56467W        W21694   6.258  38.292   3.733
56468W        W21695  44.312   6.397   2.757
56469W        W21696  24.209  39.584   1.785
56470W        W21697  22.174  33.817   3.050
56471W        W21698  31.660  18.785  10.785
56472W        W21699  15.579  15.587   4.621
56473W        W21700  42.656   0.726  13.165
56474W        W21701  23.266  42.370  14.858
56475W        W21702  42.755  15.836   1.661
56476W        W21703  16.695  23.071   2.869
56477W        W21704  11.350  36.875   1.309
56478W        W21705  11.380  42.083  14.827
56479W        W21706  11.282   1.989  14.645
56480W        W21707  24.190  26.364  10.390
56481W        W21708  18.189  30.388   1.372
56482W        W21709  41.107  38.456   1.398
56483W        W21710   2.246  30.639  10.553
56484W        W21711  20.270  25.703  12.290
56485W        W21712  21.501   8.278   0.665
56486W        W21713  28.461  14.721  14.617
56487W        W21714  29.948  43.499   0.282
56488W        W21715  36.841  11.714   4.147
56489W        W21716  20.789  18.801  10.711
56490W        W21717   1.461   1.889  14.545
56491W        W21718  27.149  18.962   3.694
56492W        W21719  26.154  24.010  10.813
56493W        W21720  33.486  29.715   4.001
56494W        W21721   8.413  29.159  14.042
56495W        W21722   4.843  16.044   0.289
56496W        W21723  11.826   4.413  14.523
56497W        W21724  33.193   8.427  11.019
56498W        W21725  10.618  29.687   0.426
56499W        W21726  41.131  24.646  11.709
56500W        W21727  15.787  24.906   3.708
56501W        W21728  17.559  14.310  14.931
56502W        W21729  25.073  20.686  12.938
56503W        W21730  32.824  25.431  11.441
56504W        W21731  28.720  23.841  11.010
56505W        W21732  41.965  33.616  14.773
56506W        W21733   5.756  25.909  13.809
56507W        W21734  17.040  12.119  14.265
56508W        W21735   1.846  14.084  11.186
56509W        W21736   9.433  40.850   4.346
56510W        W21737   1.891  31.699   4.170
56511W        W21738  34.182  31.275   3.671
56512W        W21739  34.901  35.049   2.820
56513W        W21740  23.689  12.852  14.817
56514W        W21741  38.377   1.614   2.459
56515W        W21742  43.621   0.887   3.532
56516W        W21743  13.377  29.013   1.682
56517W        W21744  42.432  37.955  12.149
56518W        W21745   9.556   7.725  13.959
56519W        W21746  44.323  18.231  13.099
56520W        W21747  25.268  25.282   4.746
56521W        W21748  25.364   2.350  12.596
56522W        W21749  44.732  13.131   3.186
56523W        W21750   0.358  32.232  13.942
56524W        W21751  17.198   9.383  10.795
56525W        W21752  31.078  24.525  13.891
56526W        W21753  28.181  20.528   0.314
56527W        W21754  18.230  30.720   1.837
56528W        W21755  41.815  14.241   0.247
56529W        W21756  29.654   7.795  12.386
56530W        W21757  16.741  39.964   2.505
56531W        W21758   0.597  11.584  12.152
56532W        W21759   9.156  41.437  12.161
56533W        W21760  11.613  37.219   5.031
56534W        W21761  10.107  27.406   0.368
56535W        W21762  42.602   7.295  11.602
56536W        W21763  21.115  35.864  13.996
56537W        W21764   5.900  11.881  10.502
56538W        W21765  17.077  34.971  10.650
56539W        W21766  25.100   9.462  14.960
56540W        W21767  37.062  15.759   0.139
56541W        W21768  20.245  29.848   0.424
56542W        W21769  35.873  10.722  11.675
56543W        W21770   5.510  41.134  10.754
56544W        W21771  40.347  41.849  14.947
56545W        W21772  28.870  29.575  12.115
56546W        W21773  28.409  12.251  13.639
56547W        W21774  43.939  22.167  10.208
56548W        W21775   0.824  22.662  14.908
56549W        W21776  43.585  34.455  12.025
56550W        W21777  15.708  38.579   3.251
56551W        W21778  32.826  27.282   0.770
56552W        W21779  22.046  34.938  13.020
56553W        W21780  28.597  27.883   2.622
56554W        W21781  40.554  26.626  11.236
56555W        W21782  27.431  33.447  12.459
56556W        W21783   8.120   6.700  14.856
56557W        W21784  43.475  13.888   2.730
56558W        W21785  26.485  21.639  12.324
56559W        W21786   6.893  23.083   1.858
56560W        W21787  28.806  21.521   2.379
56561W        W21788  31.995  22.144  13.944
56562W        W21789   8.995   3.518   5.047
56563W        W21790  25.501   2.320   2.628
56564W        W21791  34.556  32.835   1.779
56565W        W21792   4.299  30.786  10.416
56566W        W21793  42.524   8.058  12.415
56567W        W21794  16.661  36.594  13.295
56568W        W21795  32.982  12.648   1.062
56569W        W21796  28.021  37.435   3.689
56570W        W21797   4.800  35.607  12.415
56571W        W21798  23.003  25.815   4.531
56572W        W21799  40.064  20.957   0.755
56573W        W21800  31.990  34.489  13.543
56574W        W21801  39.732  41.490   1.400
56575W        W21802  15.630  14.242   0.032
56576W        W21803   8.121   1.929  12.170
56577W        W21804   4.379   8.548  13.253
56578W        W21805  20.724  13.345  14.359
56579W        W21806   9.699  16.131  13.446
56580W        W21807  35.060   0.755   3.282
56581W        W21808  44.873  25.175   4.334
56582W        W21809  11.675   4.925   1.625
56583W        W21810  15.313   9.561  13.667
56584W        W21811  34.619   5.247   4.133
56585W        W21812   4.844   9.099  12.602
56586W        W21813  33.611  33.540   1.615
56587W        W21814  24.602  26.854   4.854
56588W        W21815  36.723  16.354   1.525
56589W        W21816  36.372  38.070   0.958
56590W        W21817   1.455  11.192  12.638
56591W        W21818  32.943  24.541  12.647
56592W        W21819  38.542   3.122   0.159
56593W        W21820  25.692  34.529  13.511
56594W        W21821   9.607  44.356  11.110
56595W        W21822   9.125   5.238  13.030
56596W        W21823  40.972  36.887  14.972
56597W        W21824  22.164  34.526   2.753
56598W        W21825  44.885  34.525  13.420
56599W        W21826  11.567  34.874  14.859
56600W        W21827  25.510  16.592   3.631
56601W        W21828  12.310  33.470  14.595
56602W        W21829   2.397  37.536  13.095
56603W        W21830  43.274  32.997  13.468
56604W        W21831   9.730  24.964  11.570
56605W        W21832  39.836   9.444   1.157
56606W        W21833  27.508  28.698  12.792
56607W        W21834  32.847   0.521   1.859
56608W        W21835   4.710  11.293  10.574
56609W        W21836   0.581  16.481  11.470
56610W        W21837   4.387  28.180  14.086
56611W        W21838  36.543   9.144  11.004
56612W        W21839   1.339  22.135  12.708
56613W        W21840  32.453  21.858   2.382
56614W        W21841  27.744  41.971  14.018
56615W        W21842  21.931  37.855  10.751
56616W        W21843  33.709  26.792   0.343
56617W        W21844  28.991   2.658   2.859
56618W        W21845  28.477  13.826   0.083
56619W        W21846  35.900  18.249   3.235
56620W        W21847   6.961  24.916  10.814
56621W        W21848   0.090  35.347   4.175
56622W        W21849  33.853   3.024   4.148
56623W        W21850  40.453   0.336  14.257
56624W        W21851  36.056  12.655   1.074
56625W        W21852  10.359  44.822  14.580
56626W        W21853  21.046  23.908  13.336
56627W        W21854  40.063  44.488  14.593
56628W        W21855   6.826   9.793   3.577
56629W        W21856   3.359  28.663   2.124
56630W        W21857  25.197  37.243  12.460
56631W        W21858  30.984  44.302   4.213
56632W        W21859  32.399   6.544   2.368
56633W        W21860   7.181   2.975   1.185
56634W        W21861   0.863  42.541  11.580
56635W        W21862  38.656  14.481   4.884
56636W        W21863  38.920  17.220   0.475
56637W        W21864  42.319  44.747   3.183
56638W        W21865  21.403  23.695  10.065
56639W        W21866  26.161  11.142   3.266
56640W        W21867  39.788  19.641   0.486
56641W        W21868  23.698   0.679   1.373
56642W        W21869  26.685  36.294   3.288
56643W        W21870  36.678  39.142   0.951
56644W        W21871  16.759  13.177   1.355
56645W        W21872  31.698  17.775  13.848
56646W        W21873  44.732  17.831   1.561
56647W        W21874  29.004  19.858  14.237
56648W        W21875   9.950  20.629   2.173
56649W        W21876  32.602  21.558  10.729
56650W        W21877  43.308  27.422   4.290
56651W        W21878  37.883  39.485   4.338
56652W        W21879   8.403  26.122   3.686
56653W        W21880   6.561  11.664   4.163
56654W        W21881  20.694  15.672  12.914
56655W        W21882  21.716  28.636  13.782
56656W        W21883  44.803  17.307  14.264
56657W        W21884  33.478   5.657  10.390
56658W        W21885  35.921   7.835   4.083
56659W        W21886  38.012  27.055   1.309
56660W        W21887  15.626   0.449   2.187
56661W        W21888  29.099   4.225  14.609
56662W        W21889  21.145   8.618  11.153
56663W        W21890  22.006   6.301  11.943
56664W        W21891   9.062  20.090  10.618
56665W        W21892  25.970  12.059   1.193
56666W        W21893  24.772  11.430  12.563
56667W        W21894   9.255  23.651  10.724
56668W        W21895  16.208  13.189  14.267
56669W        W21896  29.920  32.102   1.571
56670W        W21897  36.600  26.385  11.982
56671W        W21898   4.663   9.454  11.184
56672W        W21899  21.563  30.644  12.559
56673W        W21900  27.661  19.575  12.125
56674W        W21901  31.533  32.130   1.030
56675W        W21902   6.544  18.479  11.264
56676W        W21903  38.545  20.762  10.917
56677W        W21904  33.987   8.960   4.062
56678W        W21905  31.933  38.612   1.711
56679W        W21906  26.417  11.768   2.378
56680W        W21907  12.849  16.167   0.133
56681W        W21908  23.451  19.120  12.975
56682W        W21909  29.049   9.723  11.583
56683W        W21910  13.329  38.791  12.698
56684W        W21911  10.192   7.984  12.341
56685W        W21912  23.337  23.016  11.771
56686W        W21913  20.126   9.579  12.926
56687W        W21914  23.531  34.668   1.720
56688W        W21915   6.407  28.700  14.436
56689W        W21916  24.097  10.545   2.777
56690W        W21917  18.420  33.515   2.660
56691W        W21918  28.156  30.536   0.393
56692W        W21919   4.744   2.512   5.080
56693W        W21920  11.675  29.892   1.466
56694W        W21921  26.808   4.794  12.479
56695W        W21922  42.796  42.585  10.495
56696W        W21923  43.117  42.898  10.795
56697W        W21924  13.369  38.602   2.266
56698W        W21925  17.231  38.919  11.648
56699W        W21926   0.711  16.679   2.041
56700W        W21927  11.118   3.726  13.360
56701W        W21928  20.689  20.166   3.531
56702W        W21929  41.840   2.816  13.529
56703W        W21930  25.012  21.036   1.422
56704W        W21931  39.139  27.472   2.038
56705W        W21932  41.760   7.912  12.979
56706W        W21933  36.514  33.422   2.867
56707W        W21934  15.205  32.521  10.615
56708W        W21935  41.733   0.335   2.525
56709W        W21936  33.075  39.110  14.874
56710W        W21937   5.049   1.228  11.914
56711W        W21938  39.603  42.834  13.923
56712W        W21939  35.304   3.610   0.747
56713W        W21940  37.475  33.535  13.207
56714W        W21941   6.742  19.914  12.049
56715W        W21942  34.494  25.668  11.217
56716W        W21943  25.187  39.474  14.095
56717W        W21944  26.431  36.488  14.419
56718W        W21945  27.131  31.718   1.664
56719W        W21946  31.292   5.860  11.149
56720W        W21947  12.120  25.573  12.535
56721W        W21948  40.262  20.134   3.758
56722W        W21949  28.578  16.756  10.413
56723W        W21950  26.075  11.336  11.556
56724W        W21951  40.038   9.921   1.264
56725W        W21952  26.010  34.106  13.361
56726W        W21953  15.676  11.448   1.322
56727W        W21954   4.943  23.614   1.872
56728W        W21955  18.273  34.448  11.651
56729W        W21956  20.020  13.656   1.320
56730W        W21957  23.093  30.029   1.363
56731W        W21958  32.123  31.620  10.042
56732W        W21959  12.901  22.536  12.370
56733W        W21960  23.159  16.244  11.346
56734W        W21961  31.660  22.192  12.993
56735W        W21962   9.176   4.383   4.791
56736W        W21963  12.533  16.546  11.476
56737W        W21964  19.692  33.520  10.616
56738W        W21965  37.071  33.018  14.054
56739W        W21966  30.739  21.500   2.452
56740W        W21967  37.651  32.377   1.727
56741W        W21968   3.599   0.403   0.788
56742W        W21969  26.229   4.087   3.157
56743W        W21970   0.246  27.792  14.333
56744W        W21971  10.306  27.532  13.194
56745W        W21972  36.270  21.535   3.887
56746W        W21973  28.946  35.833  12.036
56747W        W21974  27.790  14.162  13.525
56748W        W21975  35.594  20.019  12.828
56749W        W21976  32.315   3.007  11.084
56750W        W21977   9.774  28.994   1.418
56751W        W21978  26.533  32.861   4.631
56752W        W21979  40.052  17.580  11.988
56753W        W21980  38.494  16.812  11.418
56754W        W21981  37.879  21.666  14.495
56755W        W21982   1.744  25.807  10.193
56756W        W21983   2.773  30.657  10.648
56757W        W21984  20.251  10.862   4.689
56758W        W21985  42.357  23.687  14.820
56759W        W21986  44.126  27.503  11.008
56760W        W21987  41.253  38.116  13.756
56761W        W21988  30.835  17.430  12.566
56762W        W21989  20.066  32.727  13.771
56763W        W21990  20.687   8.668   2.244
56764W        W21991  36.291  35.693  12.427
56765W        W21992  26.725  36.640  12.981
56766W        W21993  34.913  29.094   0.028
56767W        W21994   6.431  17.192  11.086
56768W        W21995   8.279  28.939  12.662
56769W        W21996   4.939  33.107   1.762
56770W        W21997  24.457  24.004   3.161
56771W        W21998  16.763  11.237  12.041
56772W        W21999  17.224   2.788  13.407
56773W        W22000  30.434  38.864   0.176
56774W        W22001  21.581  34.796   2.992
56775W        W22002  31.756  36.800   1.639
56776W        W22003  21.503  25.309   4.894
56777W        W22004  35.638  19.058   3.679
56778W        W22005  38.917  44.793  13.574
56779W        W22006  35.952  17.183   0.775
56780W        W22007  20.098  16.237   1.874
56781W        W22008  43.648  18.765  10.710
56782W        W22009  19.128  22.910  12.539
56783W        W22010  42.757  11.839   2.515
56784W        W22011  21.969   8.599   1.349
56785W        W22012  35.593  32.183  11.071
56786W        W22013  44.531   1.458  14.380
56787W        W22014  34.433  17.036  12.140
56788W        W22015  23.506  21.294  13.871
56789W        W22016   6.383  36.176  10.850
56790W        W22017  29.384  25.860   5.071
56791W        W22018  20.609   2.393   4.385
56792W        W22019  30.387  40.533   3.162
56793W        W22020  20.467  24.200   4.568
56794W        W22021  10.901  34.371  13.333
56795W        W22022  21.310  30.890   1.313
56796W        W22023  37.044  38.290  12.469
56797W        W22024   1.464   4.294   1.018
56798W        W22025  12.348   1.919   1.970
56799W        W22026   5.303   4.331   3.841
56800W        W22027   9.215  12.896   1.307
56801W        W22028  38.469  44.820  11.535
56802W        W22029  17.594   7.649  14.849
56803W        W22030   9.371   5.339  10.684
56804W        W22031   7.906  38.805   0.928
56805W        W22032  13.937  43.842  12.354
56806W        W22033   0.318  28.587   1.362
56807W        W22034  44.259  18.661  11.239
56808W        W22035  16.673  27.503  14.681
56809W        W22036  36.611   6.898  13.855
56810W        W22037  17.642  14.728  12.014
56811W        W22038  41.356   0.531  13.926
56812W        W22039   8.683  41.712  12.671
56813W        W22040   3.810  40.342  14.744
56814W        W22041  39.378  25.672   0.800
56815W        W22042  23.997  25.480   0.948
56816W        W22043  25.607   6.614   0.807
56817W        W22044  15.140   0.600   2.251
56818W        W22045  38.628  35.518   1.816
56819W        W22046   4.785   6.236   1.949
56820W        W22047  16.301  41.867  13.732
56821W        W22048  30.711  12.734  10.311
56822W        W22049  28.330   8.177  12.761
56823W        W22050  29.002  18.408   2.900
56824W        W22051  22.994  33.792   0.364
56825W        W22052  38.266  44.805   0.850
56826W        W22053  42.539  31.003   0.258
56827W        W22054  16.285  10.411   3.360
56828W        W22055  20.151   4.635  12.206
56829W        W22056  42.624  38.262   4.347
56830W        W22057  15.687  23.275  10.799
56831W        W22058  40.930  28.035   3.175
56832W        W22059  27.679  44.691  12.064
56833W        W22060  15.751  30.439   2.339
56834W        W22061  34.503  33.612  10.408
56835W        W22062  40.457   5.137   2.643
56836W        W22063  19.798  38.734  11.529
56837W        W22064  30.880  16.769   3.319
56838W        W22065  18.449  23.707   0.723
56839W        W22066   0.196  25.537  13.515
56840W        W22067  27.061  26.654   1.269
56841W        W22068   4.412  44.297   0.324
56842W        W22069  37.846  20.000  13.976
56843W        W22070  40.943   5.236   3.288
56844W        W22071   7.529  26.988   2.735
56845W        W22072  38.773  44.049   1.218
56846W        W22073  20.225   0.011  13.910
56847W        W22074  27.075  11.710   1.376
56848W        W22075  37.861  12.668  14.238
56849W        W22076  30.121  21.617   3.738
56850W        W22077   1.671   4.155   2.682
56851W        W22078   1.219   6.228   1.378
56852W        W22079  29.963  13.107  13.231
56853W        W22080  38.395  37.980   2.614
56854W        W22081  42.034  11.640   3.713
56855W        W22082   6.117  11.680  12.817
56856W        W22083  18.579  12.398   4.103
56857W        W22084   1.985  32.394  14.836
56858W        W22085   4.676  21.686   4.092
56859W        W22086  32.626  15.175   0.610
56860W        W22087  32.833  17.034  13.973
56861W        W22088  18.480  39.111  11.007
56862W        W22089  34.408   5.793  10.411
56863W        W22090  25.596  18.522   3.234
56864W        W22091  17.726   4.219  14.355
56865W        W22092  34.196  19.671   2.781
56866W        W22093  22.633  36.132  13.161
56867W        W22094  10.341  39.914  12.507
56868W        W22095  32.631  33.881  12.985
56869W        W22096  31.870  10.015  10.148
56870W        W22097  36.934  14.387   4.194
56871W        W22098   8.383  16.033  13.048
56872W        W22099  21.204   1.973   2.785
56873W        W22100  41.820  40.437   3.330
56874W        W22101  35.917  21.779   2.770
56875W        W22102  15.738  11.232   4.957
56876W        W22103  15.978   5.197  13.039
56877W        W22104  33.038  28.035   0.075
56878W        W22105   7.753  30.287   4.919
56879W        W22106  10.647   4.267   3.267
56880W        W22107  30.650  17.218   0.705
56881W        W22108  39.798  20.271   1.335
56882W        W22109   7.223  23.950  12.115
56883W        W22110  18.984  31.492  11.922
56884W        W22111   7.340  14.209   0.026
56885W        W22112  35.448  16.887  11.790
56886W        W22113  37.901   7.358   0.477
56887W        W22114  37.892  17.781  13.095
56888W        W22115  41.736   6.947  11.143
56889W        W22116  17.623  39.882  10.403
56890W        W22117   2.615  20.909   9.771
56891W        W22118  12.563   0.554   2.715
56892W        W22119  41.053  11.282  13.509
56893W        W22120  15.484   7.859  12.480
56894W        W22121  10.134  31.792  14.898
56895W        W22122  34.053  33.290  14.088
56896W        W22123  36.539  37.610  11.530
56897W        W22124  26.225  44.470   1.678
56898W        W22125  17.725  28.232  14.932
56899W        W22126   5.596   9.045  13.884
56900W        W22127  31.364   8.322  13.748
56901W        W22128   7.297  25.428   4.662
56902W        W22129   7.809  32.679   2.247
56903W        W22130  41.898  42.020   3.958
56904W        W22131   0.876  24.433   0.450
56905W        W22132  39.447  38.360  13.569
56906W        W22133   4.812  19.973  11.436
56907W        W22134   6.990   5.744   3.807
56908W        W22135   0.019  38.348  12.085
56909W        W22136  22.931   9.208   2.176
56910W        W22137  28.574  12.448  12.006
56911W        W22138  24.623  26.180   2.594
56912W        W22139  15.315  10.751   1.919
56913W        W22140  22.374  10.293  12.995
56914W        W22141  34.552  35.898   3.903
56915W        W22142  22.523  24.951  12.413
56916W        W22143  27.330  31.080  13.128
56917W        W22144   8.852  10.209  12.561
56918W        W22145  19.082  22.208   4.083
56919W        W22146  36.386  36.372   1.342
56920W        W22147  43.934  27.957   0.905
56921W        W22148   2.523   1.240   2.456
56922W        W22149  23.185  10.341   4.127
56923W        W22150  29.420  28.526   1.668
56924W        W22151   9.954  15.611   2.657
56925W        W22152  13.441  40.391   0.778
56926W        W22153  26.514  43.607   4.016
56927W        W22154  29.643  12.351  14.622
56928W        W22155  30.584   5.615  14.823
56929W        W22156  14.164  23.936  11.047
56930W        W22157   6.781  25.409  11.563
56931W        W22158  10.415  27.810  14.863
56932W        W22159   1.718   4.817  14.259
56933W        W22160   6.471  26.192  13.663
56934W        W22161  31.050  15.787  14.931
56935W        W22162   1.455  29.613   0.919
56936W        W22163   3.721   2.476  11.967
56937W        W22164  21.674  37.124   4.139
56938W        W22165  10.297  35.895   1.357
56939W        W22166  24.752  27.539   4.856
56940W        W22167  16.346  38.316   3.546
56941W        W22168  18.483  30.207  14.577
56942W        W22169  20.772   6.723  11.498
56943W        W22170  44.750  44.364   4.304
56944W        W22171  27.673   8.796   3.169
56945W        W22172  34.345  44.937   1.398
56946W        W22173  29.056  33.803   2.755
56947W        W22174  11.047  10.398   4.154
56948W        W22175   5.929  14.220  12.964
56949W        W22176  40.370  24.805   3.073
56950W        W22177  43.111  28.444   2.485
56951W        W22178  16.244  26.122   4.604
56952W        W22179  23.611  24.027  14.325
56953W        W22180  19.207  12.798  14.164
56954W        W22181   0.066  16.717  10.722
56955W        W22182  34.855  27.675  12.820
56956W        W22183   0.055  43.881  14.338
56957W        W22184  37.337  16.133   0.383
56958W        W22185  41.051  43.970   4.758
56959W        W22186   3.719   4.645  12.498
56960W        W22187  18.657   2.554   4.069
56961W        W22188   2.418   7.711   0.004
56962W        W22189  43.302   9.561  13.523
56963W        W22190  25.633  14.753   3.380
56964W        W22191  13.327   0.896   4.119
56965W        W22192   2.796   0.937  14.050
56966W        W22193  11.975  35.315   3.142
56967W        W22194  27.754  37.456   2.346
56968W        W22195   3.279  30.498   5.461
56969W        W22196  11.907  26.329   3.724
56970W        W22197  26.183  37.813  12.146
56971W        W22198  31.469  40.376   2.127
56972W        W22199  11.319  31.600   3.689
56973W        W22200  20.641  13.549   2.792
56974W        W22201  17.487  23.891  14.412
56975W        W22202  44.991   8.903  13.933
56976W        W22203  36.368  39.929   0.661
56977W        W22204  37.401   0.295   2.801
56978W        W22205  39.037  31.097   3.651
56979W        W22206  41.279  12.580  10.548
56980W        W22207  19.543  24.595   2.265
56981W        W22208  26.576  19.095  12.811
56982W        W22209  30.273  39.072   3.393
56983W        W22210   5.659  14.168  12.500
56984W        W22211   3.682  34.973  14.451
56985W        W22212  19.481   7.826   4.654
56986W        W22213   3.429   5.788  14.546
56987W        W22214  41.477  17.167   4.114
56988W        W22215  16.169  41.168  14.997
56989W        W22216  34.058   0.912   0.514
56990W        W22217  26.999  25.019  13.543
56991W        W22218  44.944  44.774  11.733
56992W        W22219  26.853   9.722  11.678
56993W        W22220   0.749   6.217  11.477
56994W        W22221  18.661  35.683   1.100
56995W        W22222  11.308   0.002   3.182
56996W        W22223  33.347  14.177   5.389
56997W        W22224  34.001  39.843   2.426
56998W        W22225  19.325   7.733  13.469
56999W        W22226  44.373  20.572   1.255
57000W        W22227   8.734   7.727  14.370
57001W        W22228  39.573  40.512   3.492
57002W        W22229  17.619  43.822   1.206
57003W        W22230  35.144  31.279  11.050
57004W        W22231  10.453  21.178   3.839
57005W        W22232  16.788  21.652  11.110
57006W        W22233  36.414  30.899  11.260
57007W        W22234  13.894  28.767   0.957
57008W        W22235  41.853  23.132   3.305
57009W        W22236  43.701  31.077  13.386
57010W        W22237  27.023  17.380   1.406
57011W        W22238  15.076   2.034  14.930
57012W        W22239   2.510  42.904   1.653
57013W        W22240  43.588   6.890  14.306
57014W        W22241  22.244  14.664   2.314
57015W        W22242  15.304  34.387  14.565
57016W        W22243   4.426  21.891  11.526
57017W        W22244  33.149  16.278   2.617
57018W        W22245  43.251  36.033  10.817
57019W        W22246  43.379  21.228  12.560
57020W        W22247  42.478  38.360  13.981
57021W        W22248  26.592  16.346   3.216
57022W        W22249  31.662  17.218   4.233
57023W        W22250  41.162  18.647   3.921
57024W        W22251  23.494   4.192  13.455
57025W        W22252   3.974   5.880   4.243
57026W        W22253  13.259  26.218  10.784
57027W        W22254  38.883   7.193   1.862
57028W        W22255  40.374  18.717   1.278
57029W        W22256   4.297   3.159   4.191
57030W        W22257  41.892  33.570   3.268
57031W        W22258  15.719   6.499   3.619
57032W        W22259  22.981  16.828  12.884
57033W        W22260  27.773   2.360  10.056
57034W        W22261   7.888  41.732  11.989
57035W        W22262   6.627  10.112  12.045
57036W        W22263  24.895   0.375  11.853
57037W        W22264  26.152  27.342  12.936
57038W        W22265  37.577   4.300  14.031
57039W        W22266  44.533  14.248  13.732
57040W        W22267  23.627  13.408   4.813
57041W        W22268  26.917  42.824   1.676
57042W        W22269   0.332  24.154  10.745
57043W        W22270  38.799  38.452  10.982
57044W        W22271  22.588   0.274   3.606
57045W        W22272   7.323   4.108  12.811
57046W        W22273  23.695  16.786   4.100
57047W        W22274   6.598  23.215   1.440
57048W        W22275  18.415   1.134  14.916
57049W        W22276  10.608  40.580   4.015
57050W        W22277   4.736  14.791   2.197
57051W        W22278   3.222  44.915   3.643
57052W        W22279  10.008   2.812  10.558
57053W        W22280   2.769  20.775   1.274
57054W        W22281  30.404  12.362   3.243
57055W        W22282   1.644  37.987   3.630
57056W        W22283  32.411   5.062   1.763
57057W        W22284   1.729   3.005   1.246
57058W        W22285  39.255   3.768   3.262
57059W        W22286  11.608  40.680  14.805
57060W        W22287  38.175  17.736  11.598
57061W        W22288  39.184  25.879  13.517
57062W        W22289  14.685   1.128   0.017
57063W        W22290  31.955  15.113   1.469
57064W        W22291  23.555  36.250   4.104
57065W        W22292  33.194  22.737  10.543
57066W        W22293  26.925  32.467   2.318
57067W        W22294  30.367  40.782   3.628
57068W        W22295  44.345   5.899   4.687
57069W        W22296  42.054  40.604  13.763
57070W        W22297  25.070  43.342   2.557
57071W        W22298  44.903   5.617   1.760
57072W        W22299  29.987  36.991  14.598
57073W        W22300  26.193  15.362   1.248
57074W        W22301  38.923  12.654  13.397
57075W        W22302  37.417  24.219   4.578
57076W        W22303  40.959  28.022  12.713
57077W        W22304  26.557  19.110  14.702
57078W        W22305  24.207  37.569  12.475
57079W        W22306  38.583  37.500   0.203
57080W        W22307  11.063  31.379   4.114
57081W        W22308  13.213  41.971  12.830
57082W        W22309   5.700  29.773   1.580
57083W        W22310  43.098  43.181  13.496
57084W        W22311  18.822   8.977   0.889
57085W        W22312   5.224   5.201  12.487
57086W        W22313  20.950  40.130   1.780
57087W        W22314   2.919   6.324  11.160
57088W        W22315  37.583  17.881  10.724
57089W        W22316  19.339  37.403  11.031
57090W        W22317  23.819  25.904   3.704
57091W        W22318  15.540  32.130  10.651
57092W        W22319  23.117  20.119  12.946
57093W        W22320  37.644   2.739   0.345
57094W        W22321  34.505  39.544  10.674
57095W        W22322  36.737  15.572  10.857
57096W        W22323  28.651  34.087  13.655
57097W        W22324  13.850  28.098  11.596
57098W        W22325  40.048  28.067  14.397
57099W        W22326  11.576  21.625   2.279
57100W        W22327  43.032  15.142   2.788
57101W        W22328  16.324  37.757  13.932
57102W        W22329  21.338  16.006   4.298
57103W        W22330  26.759   1.845   3.718
57104W        W22331  26.635  38.527   0.204
57105W        W22332  23.690  12.685   4.140
57106W        W22333   4.026   4.608   2.800
57107W        W22334  32.183  23.896  12.407
57108W        W22335  33.534  12.185   0.260
57109W        W22336  15.647  24.655   3.277
57110W        W22337  35.013  44.096  13.390
57111W        W22338  19.521  15.870   0.500
57112W        W22339  33.186   7.651  11.935
57113W        W22340  35.649   8.804  14.433
57114W        W22341  42.243   0.455  13.514
57115W        W22342  37.509  44.838  11.562
57116W        W22343  35.112  37.952  13.800
57117W        W22344  31.909  19.183  10.558
57118W        W22345  20.052  36.006  10.592
57119W        W22346  39.633  22.011  12.013
57120W        W22347   1.795   5.618  14.502
57121W        W22348  13.691   7.717  10.618
57122W        W22349  33.525  18.136  11.992
57123W        W22350   3.806  20.294   3.784
57124W        W22351  34.058  42.392  10.736
57125W        W22352  29.040   9.392   4.593
57126W        W22353  22.262  12.196  13.907
57127W        W22354  44.699   4.699   0.956
57128W        W22355   8.685  44.945   2.196
57129W        W22356  23.357  44.707   5.379
57130W        W22357   3.869  42.799  11.885
57131W        W22358  33.366  23.753  13.329
57132W        W22359  22.118  19.587   1.768
57133W        W22360  22.232   6.438   2.636
57134W        W22361  25.292  42.350  12.804
57135W        W22362  40.519   4.698   0.944
57136W        W22363  38.945  40.237   4.600
57137W        W22364  29.536  15.828  11.900
57138W        W22365  13.783  35.578  11.067
57139W        W22366   2.205  13.202   0.703
57140W        W22367   6.280  31.996   4.041
57141W        W22368  22.089  32.105   3.946
57142W        W22369  28.243  12.491   1.439
57143W        W22370  28.583   8.379  11.477
57144W        W22371  44.417  24.396  13.496
57145W        W22372  44.815  29.915  13.904
57146W        W22373  41.412  13.586   4.695
57147W        W22374  18.318  34.804   4.120
57148W        W22375  31.644   9.373   3.589
57149W        W22376  10.767  14.627  11.143
57150W        W22377  43.901  40.980   0.721
57151W        W22378  15.766  26.341  10.749
57152W        W22379  25.127  17.768   1.981
57153W        W22380  14.735  37.306  11.213
57154W        W22381  36.937   5.821   1.613
57155W        W22382  10.180  29.383   3.320
57156W        W22383  10.812  24.681  14.893
57157W        W22384  40.123   1.706   4.039
57158W        W22385  11.551  39.538  10.649
57159W        W22386  43.557  34.650   1.347
57160W        W22387   5.914  43.884  14.638
57161W        W22388  27.472  44.534   2.305
57162W        W22389  22.439  14.152   2.233
57163W        W22390  23.270  12.418   4.047
57164W        W22391  21.228  21.253  10.478
57165W        W22392   1.225   5.033   1.553
57166W        W22393  27.391  26.260   1.477
57167W        W22394  36.091   7.153   1.516
57168W        W22395  11.696  22.316  12.805
57169W        W22396  43.015  23.652  14.328
57170W        W22397  11.878  30.910   0.518
57171W        W22398   3.783   4.750   0.560
57172W        W22399   4.805   5.407  12.674
57173W        W22400  34.124  16.685  11.891
57174W        W22401  41.274  21.168   4.617
57175W        W22402  28.360  41.208  10.251
57176W        W22403  36.784  39.650   0.882
57177W        W22404  32.670  33.577  12.370
57178W        W22405  24.733  29.466   3.755
57179W        W22406  21.672  35.886  11.574
57180W        W22407  11.204   5.298   2.234
57181W        W22408  15.263  35.272  11.633
57182W        W22409   6.394  38.968  13.398
57183W        W22410   3.413  43.828  11.100
57184W        W22411  13.399  22.212  11.538
57185W        W22412  35.602  11.452  12.750
57186W        W22413  15.716  35.678   1.773
57187W        W22414  29.306  20.015   1.369
57188W        W22415   1.519  26.039  11.320
57189W        W22416  43.318  44.165  14.933
57190W        W22417  32.924   0.674  11.089
57191W        W22418   8.269  34.949   1.943
57192W        W22419   8.638   1.905   1.670
57193W        W22420  21.359  13.329  13.823
57194W        W22421  24.300  30.473  10.866
57195W        W22422   6.644  43.729  10.486
57196W        W22423  31.376  14.722  11.496
57197W        W22424  36.071   3.380  10.684
57198W        W22425   7.923  43.916  13.321
57199W        W22426   3.758  37.084   4.523
57200W        W22427  16.703  15.638   1.609
57201W        W22428  18.139   2.549   4.140
57202W        W22429  32.919   6.272  11.799
57203W        W22430  31.838  20.926   1.273
57204W        W22431  11.548  38.459   4.532
57205W        W22432  32.961  14.838  14.485
57206W        W22433  23.669  26.174  12.839
57207W        W22434   4.031  19.889   4.102
57208W        W22435  10.374  20.315  14.283
57209W        W22436  44.808  44.149   3.079
57210W        W22437  32.101  42.750  14.243
57211W        W22438  32.639  35.457   1.266
57212W        W22439  16.824  13.072  11.041
57213W        W22440  12.750  20.268   0.389
57214W        W22441  16.135  27.916  10.775
57215W        W22442  15.705  16.600  14.006
57216W        W22443  39.853  40.223   4.559
57217W        W22444   0.982  31.526   0.938
57218W        W22445  33.878  33.382  11.034
57219W        W22446  12.204   9.112   0.713
57220W        W22447  16.714  15.651   2.624
57221W        W22448  40.758   5.964  13.476
57222W        W22449  24.938  17.306  11.242
57223W        W22450  10.111  17.209  14.433
57224W        W22451  44.813  31.915   4.882
57225W        W22452  29.159  12.341  14.873
57226W        W22453  20.091  38.308   4.242
57227W        W22454   0.374  30.837  11.003
57228W        W22455  30.228  40.894  14.077
57229W        W22456  42.128  15.928   5.089
57230W        W22457   5.107  36.556   0.520
57231W        W22458  28.483  18.829  13.558
57232W        W22459  29.562  37.258  13.007
57233W        W22460  32.414  41.373   3.057
57234W        W22461  35.302  22.205  11.471
57235W        W22462  17.404  15.599   0.842
57236W        W22463  26.807   0.079   1.367
57237W        W22464  30.134  44.712   3.743
57238W        W22465  37.297   3.699   4.366
57239W        W22466  33.870  10.735  11.772
57240W        W22467  29.061  36.991   4.977
57241W        W22468   4.233  27.646   3.656
57242W        W22469   5.195  31.060   2.650
57243W        W22470  44.649  22.545   3.811
57244W        W22471  42.759  29.123   1.819
57245W        W22472  37.834  26.811  11.164
57246W        W22473  30.998  11.585  10.561
57247W        W22474   4.022   2.472   1.145
57248W        W22475   2.005  21.012  12.865
57249W        W22476  37.021  37.929   1.732
57250W        W22477  25.903  33.635   2.298
57251W        W22478   0.497  14.703  14.103
57252W        W22479  17.805  30.564  13.732
57253W        W22480  35.875  20.759   2.728
57254W        W22481   0.719  28.878   3.789
57255W        W22482  25.374   6.887   3.651
57256W        W22483  40.749   7.768  12.333
57257W        W22484  17.124  44.697  14.377
57258W        W22485  29.580  43.409  14.546
57259W        W22486  33.538  30.720   3.177
57260W        W22487  35.158   1.675  14.223
57261W        W22488  31.810   9.651   3.974
57262W        W22489   1.111  10.808   1.480
57263W        W22490  19.463  14.091   4.578
57264W        W22491   3.888  15.056   4.088
57265W        W22492   1.060  23.166  12.051
57266W        W22493  29.636  33.526  12.029
57267W        W22494   2.325   2.340   0.387
57268W        W22495  13.337  42.373   2.172
57269W        W22496  18.566  36.365   2.532
57270W        W22497   4.758  27.140   3.171
57271W        W22498  37.956   0.885   1.941
57272W        W22499  16.078  15.773  10.602
57273W        W22500  13.162  37.472  14.419
57274W        W22501  22.107   6.248   2.159
57275W        W22502  20.854  13.206  13.842
57276W        W22503  32.566  27.439   0.230
57277W        W22504  28.929  16.429  10.235
57278W        W22505  26.711   1.641   4.184
57279W        W22506  10.236  16.497   2.487
57280W        W22507  36.164   0.436   2.185
57281W        W22508  33.001  35.663   0.281
57282W        W22509  28.969  13.582  14.335
57283W        W22510  24.271  20.313  10.689
57284W        W22511   6.757   8.167   3.168
57285W        W22512   8.616  23.248   2.441
57286W        W22513  13.728   7.899   3.743
57287W        W22514  16.194  11.231  13.673
57288W        W22515  15.589  10.595  11.964
57289W        W22516   4.463  12.147   0.198
57290W        W22517  19.807  27.633  13.388
57291W        W22518  42.083  38.288  11.974
57292W        W22519   2.554   6.743   0.289
57293W        W22520  10.109  31.178  12.367
57294W        W22521  12.336  19.121  14.495
57295W        W22522  16.791  42.047  11.129
57296W        W22523  18.262  27.416   0.756
57297W        W22524   0.407  26.833  14.149
57298W        W22525   1.443  19.487   3.351
57299W        W22526  16.734  15.532  14.841
57300W        W22527  23.510  27.617   0.317
57301W        W22528  36.604  37.669  13.504
57302W        W22529  34.354   6.315  11.120
57303W        W22530  22.156  38.521  12.984
57304W        W22531  10.952  16.338   2.561
57305W        W22532  18.718   5.580   4.956
57306W        W22533  10.235   0.845  13.740
57307W        W22534  40.964  31.154  12.307
57308W        W22535  17.444  25.164  13.417
57309W        W22536  31.572  10.230   3.998
57310W        W22537   9.943   6.861  11.213
57311W        W22538   9.060  36.532   3.382
57312W        W22539  30.248  25.364   3.584
57313W        W22540  31.959  20.726   1.746
57314W        W22541  41.237  18.262  11.025
57315W        W22542  44.942   7.029   2.202
57316W        W22543  34.098  10.407  12.090
57317W        W22544  39.757  15.875   0.416
57318W        W22545  25.672  10.159  12.971
57319W        W22546  35.041  18.765  13.508
57320W        W22547  36.951   8.828   3.029
57321W        W22548  32.857  25.386   1.211
57322W        W22549  12.363  31.329   4.582
57323W        W22550  11.339   9.326   0.563
57324W        W22551  13.983   5.016  14.322
57325W        W22552  15.458   5.729  13.471
57326W        W22553  17.768  18.066  13.278
57327W        W22554  11.200  34.192  12.006
57328W        W22555  11.881   4.926  14.336
57329W        W22556  44.068  34.202  13.058
57330W        W22557  38.782  43.996  14.458
57331W        W22558  18.796  25.942  10.599
57332W        W22559   9.358  17.201   4.679
57333W        W22560  41.237  19.461   9.809
57334W        W22561   4.269  10.775   3.680
57335W        W22562  30.202  12.259   1.904
57336W        W22563  10.682  42.360   3.786
57337W        W22564  25.214   0.839   2.922
57338W        W22565   3.952  30.330   2.613
57339W        W22566  22.797  36.824   3.623
57340W        W22567   8.252  19.896  11.213
57341W        W22568  43.009   4.685   2.659
57342W        W22569  34.675  17.173  13.675
57343W        W22570  37.915  23.000  10.675
57344W        W22571  18.785  18.061  13.523
57345W        W22572   9.378  42.491   2.735
57346W        W22573  43.558  32.451   1.317
57347W        W22574   7.387  38.329   2.664
57348W        W22575   7.771  35.729   4.612
57349W        W22576   3.480  24.936   0.696
57350W        W22577  22.203  18.563   4.594
57351W        W22578  24.555  23.435  12.476
57352W        W22579  21.412  41.561   0.732
57353W        W22580  15.636   2.678   1.609
57354W        W22581  16.814  35.066  12.544
57355W        W22582  42.475  25.641   4.487
57356W        W22583  44.081  33.406  14.652
57357W        W22584  10.787  20.918  12.568
57358W        W22585  38.914  16.365  13.282
57359W        W22586  42.046  29.017   2.626
57360W        W22587  13.377  38.940  10.378
57361W        W22588   5.400  14.594  10.345
57362W        W22589  22.816  15.875   3.083
57363W        W22590   9.016   3.110   3.651
57364W        W22591   8.642   0.988  11.190
57365W        W22592  21.240  28.172  10.675
57366W        W22593   2.260  37.964  14.899
57367W        W22594  26.914  44.330  11.542
57368W        W22595  42.036  15.786  13.135
57369W        W22596  28.371   3.262   2.342
57370W        W22597  35.561  35.373  14.749
57371W        W22598  12.208  22.486  12.886
57372W        W22599  32.463  27.971   5.351
57373W        W22600  35.358   4.447   0.387
57374W        W22601  32.400  41.500  10.567
57375W        W22602   6.016  14.791   5.040
57376W        W22603  28.119  36.516   4.044
57377W        W22604  32.462  40.022  10.199
57378W        W22605  22.642  23.130   2.410
57379W        W22606  12.627   4.888  13.821
57380W        W22607  33.632  39.920   1.593
57381W        W22608  30.808   5.063  13.325
57382W        W22609  16.274  42.881  14.070
57383W        W22610  25.063  10.338   4.080
57384W        W22611  20.970  17.595   3.340
57385W        W22612   5.924  21.578   4.783
57386W        W22613   1.286   3.388  13.443
57387W        W22614  42.436  26.710  13.378
57388W        W22615  39.760  39.712   4.719
57389W        W22616  28.706  31.169  12.880
57390W        W22617   5.144  36.346  14.166
57391W        W22618  29.821  40.058   3.853
57392W        W22619  13.376  41.650  10.941
57393W        W22620  12.460   7.031   0.567
57394W        W22621  33.778  24.143  12.730
57395W        W22622  16.361  36.612  10.817
57396W        W22623   6.372  34.431   0.017
57397W        W22624  33.440  12.863  10.374
57398W        W22625  42.304  21.307   3.242
57399W        W22626   1.390   1.943  10.716
57400W        W22627  30.886   4.229  12.032
57401W        W22628   8.782   4.721  11.802
57402W        W22629  28.001  25.216  11.153
57403W        W22630  31.041  22.587  11.080
57404W        W22631  10.541  14.535   0.317
57405W        W22632  27.713  10.091   0.322
57406W        W22633  32.092  41.736   2.622
57407W        W22634  41.783  21.555   0.826
57408W        W22635  20.090  41.587  12.492
57409W        W22636  32.882  22.434   2.356
57410W        W22637   3.449  31.577   4.150
57411W        W22638   2.918  34.600  12.819
57412W        W22639  14.180  19.248   2.907
57413W        W22640  10.711   0.392  10.616
57414W        W22641  35.554  14.650  13.763
57415W        W22642  37.987  19.699   2.367
57416W        W22643  28.298  35.309  13.535
57417W        W22644   1.117   4.925   4.669
57418W        W22645  38.536  13.866  12.500
57419W        W22646   1.481   9.799   3.074
57420W        W22647  11.327  33.457  14.281
57421W        W22648   7.343   0.745  13.262
57422W        W22649  23.374  21.616  13.010
57423W        W22650   1.017  24.197   3.682
57424W        W22651  32.868  12.889  13.957
57425W        W22652  42.538   5.729   1.833
57426W        W22653  37.364  30.879  14.471
57427W        W22654  33.328  35.971   3.154
57428W        W22655   7.772  14.316  14.735
57429W        W22656  21.736  42.574   0.906
57430W        W22657  18.482  18.120   2.786
57431W        W22658   7.348  44.776   4.209
57432W        W22659  22.675   9.031  14.293
57433W        W22660   5.611  40.870  12.433
57434W        W22661  22.088  40.293   4.131
57435W        W22662  20.075  22.552   3.296
57436W        W22663  44.900  30.915  14.110
57437W        W22664  26.948  41.845   0.309
57438W        W22665  22.274  20.669   0.908
57439W        W22666   9.576  21.144   4.163
57440W        W22667  30.992  10.136  12.795
57441W        W22668   8.704  35.849   4.609
57442W        W22669   2.511   4.315  13.792
57443W        W22670   8.584   9.889  14.529
57444W        W22671   7.859  42.996  12.343
57445W        W22672  27.269   0.884   2.717
57446W        W22673   7.176  43.946   0.819
57447W        W22674  26.647  37.546  14.983
57448W        W22675  33.122  34.930   4.184
57449W        W22676  19.606   3.407  11.425
57450W        W22677   2.867   8.515   5.058
57451W        W22678  34.838  34.053  12.954
57452W        W22679  33.326  10.096   4.294
57453W        W22680  34.022  31.414   0.339
57454W        W22681  18.795  30.582   3.112
57455W        W22682  28.668  38.691   0.606
57456W        W22683  26.682   3.340   2.835
57457W        W22684  22.745   4.908   3.627
57458W        W22685  19.029  30.703   2.344
57459W        W22686  20.045   4.918  14.034
57460W        W22687  42.870  10.345   2.321
57461W        W22688  24.638  10.125   0.941
57462W        W22689  10.591  42.002  13.478
57463W        W22690   8.368   5.015  10.689
57464W        W22691  20.742  10.876   1.334
57465W        W22692   1.523  27.454  11.520
57466W        W22693  17.230  17.662  13.931
57467W        W22694   0.961  29.142  11.838
57468W        W22695  16.662  36.335   3.594
57469W        W22696  15.666  36.556   5.108
57470W        W22697  22.985  44.282  10.311
57471W        W22698  13.925  39.210  11.219
57472W        W22699  14.640   4.682   3.338
57473W        W22700  31.065  41.978   3.684
57474W        W22701   9.389  10.331  14.372
57475W        W22702  43.160  13.804   0.027
57476W        W22703  41.332  44.535   3.803
57477W        W22704   6.264   8.633   0.295
57478W        W22705  35.290  34.058  13.871
57479W        W22706   0.950   9.234   3.595
57480W        W22707  38.133   1.384   4.283
57481W        W22708   0.842  18.673   5.457
57482W        W22709  33.503  32.521   4.666
57483W        W22710   7.012  32.114  12.981
57484W        W22711  28.440  39.409   3.601
57485W        W22712  24.556  31.565   3.112
57486W        W22713  31.141  35.131   1.279
57487W        W22714  17.199   2.197  12.902
57488W        W22715  29.060   0.856  10.984
57489W        W22716  38.007  17.022  12.477
57490W        W22717   9.107  21.087   2.730
57491W        W22718  40.632  11.773  12.042
57492W        W22719  29.080  39.904   4.677
57493W        W22720  37.522  26.545   3.676
57494W        W22721  15.099  23.041  13.004
57495W        W22722  38.888   2.274  10.979
57496W        W22723  12.199  32.647  13.403
57497W        W22724  21.717   4.812  12.604
57498W        W22725   9.511  29.067  11.864
57499W        W22726   3.109  13.212  12.916
57500W        W22727  26.221  42.105  13.999
57501W        W22728   7.194  31.907  12.534
57502W        W22729  10.575  39.803  14.892
57503W        W22730  38.478  33.361   0.434
57504W        W22731  23.223  21.178  14.492
57505W        W22732  20.611  26.243  10.662
57506W        W22733  24.098  18.165  13.040
57507W        W22734   3.812  43.105  13.995
57508W        W22735  18.129  15.125   0.762
57509W        W22736  40.808  35.567   2.295
57510W        W22737  26.047  11.699   1.626
57511W        W22738  32.488  36.130  12.539
57512W        W22739  35.958  31.633  12.964
57513W        W22740   8.189  40.300   0.798
57514W        W22741  43.103   0.206   3.238
57515W        W22742   9.253  26.003   4.958
57516W        W22743  41.481   1.872   3.796
57517W        W22744  25.533  20.569  13.167
57518W        W22745   6.729  12.562  12.052
57519W        W22746   0.837  19.242   1.517
57520W        W22747  35.369  36.403   2.206
57521W        W22748  37.924  11.364   1.932
57522W        W22749  43.304  36.007   5.024
57523W        W22750  36.385  36.831  11.071
57524W        W22751   9.464   7.602   0.741
57525W        W22752  37.405  33.939  13.989
57526W        W22753  15.743  43.578   0.953
57527W        W22754  28.040  24.643   0.472
57528W        W22755  22.915  12.198  10.613
57529W        W22756  34.628  26.248   3.046
57530W        W22757  12.276  21.712   0.192
57531W        W22758  44.219  36.584  11.956
57532W        W22759  24.648  10.124  10.785
57533W        W22760  29.910   8.971  12.899
57534W        W22761  25.969   0.943   3.631
57535W        W22762  30.394  16.708   1.784
57536W        W22763  41.898   1.983  14.435
57537W        W22764  17.267  33.932  14.248
57538W        W22765   9.880   0.823   1.330
57539W        W22766  41.256  43.903   2.883
57540W        W22767  40.791  43.847  11.572
57541W        W22768  24.224  18.191   4.287
57542W        W22769  19.769  20.365   3.683
57543W        W22770   0.207   7.076   3.504
57544W        W22771  15.200  38.771  11.587
57545W        W22772  12.409  43.780  11.988
57546W        W22773   1.197   6.649   3.679
57547W        W22774  22.669  11.735   3.100
57548W        W22775  43.486  42.475  14.038
57549W        W22776   3.514  40.783   4.208
57550W        W22777  31.062  32.632  14.776
57551W        W22778  19.923  19.083  10.787
57552W        W22779   5.758   6.934  11.968
57553W        W22780  42.841  12.673  11.729
57554W        W22781   6.929   7.029  11.136
57555W        W22782  37.884  37.867  13.962
57556W        W22783  19.504  16.269  12.788
57557W        W22784  36.137   3.333  12.177
57558W        W22785  14.309  37.447   2.637
57559W        W22786   4.465  14.223  10.190
57560W        W22787  19.874  18.192   1.223
57561W        W22788  26.959  33.231   4.550
57562W        W22789  44.347   6.726   0.669
57563W        W22790  43.748  13.803   3.845
57564W        W22791  44.827  22.942  10.239
57565W        W22792  34.968  10.728  14.388
57566W        W22793  15.034  22.494   1.590
57567W        W22794   8.115  18.041  14.481
57568W        W22795  20.615  35.961  11.701
57569W        W22796  10.449  15.759   2.714
57570W        W22797  14.636   5.456  11.572
57571W        W22798  34.152   3.986   2.621
57572W        W22799  26.571  41.955   0.907
57573W        W22800  25.457   5.799  13.311
57574W        W22801  14.329  27.777   3.250
57575W        W22802  29.331  13.600  11.516
57576W        W22803  41.269  42.268   2.227
57577W        W22804  18.416  15.482   2.008
57578W        W22805  24.990  27.723   1.687
57579W        W22806  35.296  24.267  13.334
57580W        W22807   9.758   3.422  13.827
57581W        W22808  37.809  40.834   1.851
57582W        W22809   4.681  25.691  12.957
57583W        W22810  19.625   6.365   4.128
57584W        W22811  16.627  33.446   4.352
57585W        W22812  37.642  24.156  12.946
57586W        W22813  41.494  44.654   0.526
57587W        W22814  33.367  39.601   3.264
57588W        W22815  41.308  30.404   2.707
57589W        W22816   1.995  18.295  13.076
57590W        W22817  19.559  42.352   3.622
57591W        W22818  12.536  17.986   1.764
57592W        W22819   5.898  25.365  13.723
57593W        W22820  15.310  38.499  12.029
57594W        W22821  31.439  23.606   3.628
57595W        W22822   9.319  34.651   4.474
57596W        W22823  20.854  26.548  12.365
57597W        W22824   4.202  17.408   4.631
57598W        W22825  36.692  40.511   1.342
57599W        W22826  40.245  37.974   2.257
57600W        W22827  34.156  22.523  11.562
57601W        W22828  42.560   7.864  14.923
57602W        W22829   8.842  34.432   1.790
57603W        W22830  26.002  26.513   4.235
57604W        W22831  18.995  40.384  13.422
57605W        W22832  33.475  13.832  13.584
57606W        W22833   1.183  23.589  14.859
57607W        W22834  14.861  17.738  12.039
57608W        W22835  13.781  36.105  11.091
57609W        W22836   7.520  30.649  10.812
57610W        W22837  31.961   9.874   0.431
57611W        W22838  28.030   5.727  11.184
57612W        W22839  10.896  11.722   3.791
57613W        W22840  32.388   1.794   2.786
57614W        W22841  32.916  16.385  13.359
57615W        W22842  13.102   9.352  12.027
57616W        W22843  16.104   8.711  14.423
57617W        W22844  35.836   2.323   4.699
57618W        W22845   8.494  11.087  10.513
57619W        W22846  42.366   2.900  14.157
57620W        W22847  26.463  26.558   4.019
57621W        W22848  44.738   1.379   3.184
57622W        W22849  36.839  31.157  11.248
57623W        W22850  30.785  42.216   2.892
57624W        W22851   7.368  18.712   3.784
57625W        W22852  13.046  18.167   1.821
57626W        W22853  30.220  24.026   4.850
57627W        W22854   3.711   3.863  11.640
57628W        W22855  29.452  41.441  14.525
57629W        W22856  16.510  36.964  11.615
57630W        W22857  20.859  39.921  12.582
57631W        W22858  10.799  39.899  13.389
57632W        W22859   4.253  17.187  14.828
57633W        W22860  17.409   1.440   3.870
57634W        W22861  16.082  20.127   4.123
57635W        W22862   8.835  34.389  12.812
57636W        W22863  27.458  34.592   1.264
57637W        W22864  21.245  14.155  12.086
57638W        W22865  43.274   7.022  11.039
57639W        W22866   1.185   8.500  12.374
57640W        W22867  42.353  35.455   1.431
57641W        W22868   5.956  43.857   4.324
57642W        W22869  42.775  30.636   3.766
57643W        W22870  11.793   1.473  13.105
57644W        W22871  32.104  36.679  12.881
57645W        W22872   2.383  32.396  14.040
57646W        W22873  25.524  20.980  12.856
57647W        W22874  24.816  42.521   3.955
57648W        W22875  15.823   0.708  10.741
57649W        W22876  14.797  41.216   4.683
57650W        W22877  24.451  18.616   0.293
57651W        W22878   3.414  42.752  13.857
57652W        W22879   4.739  36.515   5.021
57653W        W22880  32.828  33.287  11.453
57654W        W22881  20.832  42.663  14.749
57655W        W22882  43.020  34.531  11.151
57656W        W22883   7.913  12.461   1.314
57657W        W22884  36.132  20.231  14.513
57658W        W22885  20.680   0.124   0.215
57659W        W22886  39.642   2.350  10.568
57660W        W22887   0.853  26.507  11.969
57661W        W22888   4.891  20.121  11.950
57662W        W22889   0.246  16.267  13.387
57663W        W22890   0.299  32.461   0.910
57664W        W22891  24.062   6.364  11.173
57665W        W22892   6.960  28.081   2.128
57666W        W22893  34.049  21.319  10.020
57667W        W22894   2.434  41.977   3.604
57668W        W22895   3.844   0.637   4.515
57669W        W22896  32.964   7.315  11.611
57670W        W22897  15.339   1.448   2.332
57671W        W22898  10.190   6.750  13.036
57672W        W22899  26.429  42.416   2.293
57673W        W22900  30.386   9.283  10.699
57674W        W22901  23.284  23.033  11.251
57675W        W22902   6.727  31.004  12.512
57676W        W22903  43.791   7.262   4.082
57677W        W22904   2.185   5.812  12.631
57678W        W22905  19.081  33.501  14.349
57679W        W22906   0.288  24.531   4.650
57680W        W22907  34.159   4.487  10.612
57681W        W22908  32.983   0.809  11.571
57682W        W22909  34.146  43.729   0.047
57683W        W22910  34.871  13.268   3.671
57684W        W22911  30.616  34.953  12.124
57685W        W22912  38.067   9.540   3.560
57686W        W22913   1.382  39.349  14.006
57687W        W22914  42.384  18.225  13.530
57688W        W22915  25.048  39.046   0.709
57689W        W22916  29.096  18.506  10.361
57690W        W22917  26.981  29.123   2.080
57691W        W22918  36.867   3.040   2.833
57692W        W22919  31.367  34.417   2.839
57693W        W22920  18.591  28.581  13.937
57694W        W22921   1.757  31.491   1.302
57695W        W22922  24.603  42.147   1.802
57696W        W22923  20.232  37.024   2.247
57697W        W22924  11.826  12.235   1.859
57698W        W22925  44.259   5.618   3.816
57699W        W22926   8.730  32.960   9.805
57700W        W22927  43.370  33.988  13.507
57701W        W22928  16.572   8.261  13.840
57702W        W22929   3.920  25.668  10.658
57703W        W22930  23.725  34.954   4.241
57704W        W22931  38.346  37.569   3.256
57705W        W22932  14.554  18.337   3.314
57706W        W22933   5.197  42.738   1.294
57707W        W22934  19.748  36.523   3.004
57708W        W22935   6.264  37.780   3.629
57709W        W22936  21.446  16.989   0.714
57710W        W22937  44.120   3.593  14.880
57711W        W22938  15.112  38.402   4.369
57712W        W22939  29.653  19.765  12.387
57713W        W22940  40.809  21.536   2.732
57714W        W22941  31.741  23.299  12.407
57715W        W22942  36.525  24.515  12.558
57716W        W22943  28.382   7.609   1.693
57717W        W22944   9.756   3.179  12.515
57718W        W22945  41.307  18.347   4.326
57719W        W22946  26.375  43.245   4.524
57720W        W22947   9.101   3.215  11.169
57721W        W22948  39.523  14.252   4.576
57722W        W22949  33.665  24.271   3.663
57723W        W22950  42.744  13.573  12.999
57724W        W22951  41.219  30.466   4.208
57725W        W22952  16.083  24.093   2.822
57726W        W22953  31.521  13.893  14.935
57727W        W22954  43.560   0.820   2.191
57728W        W22955   1.380  18.536  12.058
57729W        W22956  44.492   3.794  11.987
57730W        W22957  21.347  15.559   4.960
57731W        W22958   0.775  18.403  14.790
57732W        W22959  23.969  35.912   4.171
57733W        W22960  21.058  10.642  11.125
57734W        W22961   0.220  28.930   1.764
57735W        W22962  27.561  40.112   2.166
57736W        W22963  12.035   2.040  10.873
57737W        W22964   2.211  37.986   2.764
57738W        W22965  16.799  32.040   1.361
57739W        W22966  22.184  41.300  10.618
57740W        W22967  20.889  39.455  13.499
57741W        W22968  18.520  26.930   4.088
57742W        W22969  34.914  29.099   1.438
57743W        W22970  21.027   5.864  11.744
57744W        W22971   6.386  19.012   4.886
57745W        W22972  42.709  30.849  14.745
57746W        W22973  34.071  37.056   3.531
57747W        W22974  13.096  40.026   4.850
57748W        W22975  16.639   4.396   3.524
57749W        W22976  34.761  35.000   0.922
57750W        W22977  32.230  33.754  11.536
57751W        W22978   9.861  13.134  10.897
57752W        W22979  25.457  18.049  11.543
57753W        W22980  41.485  12.730  14.877
57754W        W22981  25.713  30.095   3.409
57755W        W22982  19.871  38.283  11.856
57756W        W22983  21.511  18.793  14.453
57757W        W22984   7.440   1.350  11.025
57758W        W22985   8.386  25.632   1.245
57759W        W22986   3.229  34.431   4.799
57760W        W22987  15.383   8.764  11.953
57761W        W22988  35.234  36.825  14.589
57762W        W22989  29.993  31.147   3.913
57763W        W22990  23.638  40.424  13.466
57764W        W22991  39.255  11.381  11.980
57765W        W22992  37.154   9.426   4.997
57766W        W22993  44.048  27.136  14.019
57767W        W22994  18.683   9.816  13.816
57768W        W22995  31.494  29.652   4.330
57769W        W22996  33.930   6.369  12.571
57770W        W22997  38.904  27.167   4.734
57771W        W22998  35.521  34.658  11.928
57772W        W22999   8.615  23.549  13.925
57773W        W23000  12.878  10.946  13.957
57774W        W23001  35.000   0.148  14.292
57775W        W23002  22.081   0.083   3.271
57776W        W23003  32.667   3.936   4.711
57777W        W23004   0.844  11.601   4.656
57778W        W23005  26.595  17.958  10.783
57779W        W23006  39.088  29.446  11.874
57780W        W23007  18.709   7.012   0.804
57781W        W23008   2.184   3.380  11.471
57782W        W23009   5.876  33.624  14.028
57783W        W23010  36.992  39.489   0.251
57784W        W23011  29.108  23.550  13.806
57785W        W23012  13.793  11.664   1.307
57786W        W23013  30.433   1.401  13.318
57787W        W23014  19.795  23.638   2.212
57788W        W23015  21.114  35.844   1.407
57789W        W23016  35.829   0.371  12.582
57790W        W23017  15.308  11.161  13.397
57791W        W23018  25.141  29.182  14.720
57792W        W23019  37.086   5.380  13.898
57793W        W23020  36.410  14.862   0.983
57794W        W23021  43.941  13.247   1.422
57795W        W23022  39.922  42.964   0.866
57796W        W23023  41.251  39.107  12.804
57797W        W23024  23.791  11.887  12.887
57798W        W23025  19.255  29.701   1.481
57799W        W23026  41.443  32.650   4.636
57800W        W23027  32.915  40.481  14.851
57801W        W23028  21.026  38.837   0.449
57802W        W23029  28.503  29.466  10.610
57803W        W23030  24.035  34.618   1.435
57804W        W23031  42.712  25.373  10.687
57805W        W23032   5.924   1.443   2.363
57806W        W23033  10.554  42.381  13.887
57807W        W23034  13.801  20.681   3.382
57808W        W23035  26.252  30.548  12.095
57809W        W23036  13.741   6.484   3.257
57810W        W23037  37.884  30.688   2.162
57811W        W23038  18.802  10.648   0.310
57812W        W23039   8.957  37.806   1.851
57813W        W23040  21.795  23.112  14.108
57814W        W23041  17.636  39.347   0.676
57815W        W23042   4.253  36.326  14.508
57816W        W23043   2.411  35.274   1.299
57817W        W23044  35.408   7.653   4.213
57818W        W23045  38.362   1.304   3.077
57819W        W23046   7.855   2.374   1.438
57820W        W23047  10.845  32.689  13.735
57821W        W23048  13.857  32.914   1.681
57822W        W23049  34.907  24.915   3.678
57823W        W23050  31.967  43.040  12.066
57824W        W23051  24.319  34.657  14.847
57825W        W23052  30.405  17.589   3.212
57826W        W23053  44.487  31.607   2.909
57827W        W23054   4.779   2.371  14.615
57828W        W23055  30.226  42.402  12.972
57829W        W23056   2.913   3.476   4.219
57830W        W23057  17.468  37.523   1.897
57831W        W23058   9.652  11.132   4.067
57832W        W23059  14.591  35.925  14.006
57833W        W23060  12.356  16.669   5.227
57834W        W23061  26.368  37.768   3.289
57835W        W23062  12.729  29.532  13.599
57836W        W23063  44.341  16.664  10.662
57837W        W23064  27.764  44.046  14.946
57838W        W23065  30.512  24.108   0.438
57839W        W23066  11.880   5.658   1.774
57840W        W23067  27.160  37.968   1.233
57841W        W23068  37.142  33.654   2.185
57842W        W23069  22.020   8.755  12.217
57843W        W23070  25.679  35.857   0.918
57844W        W23071   7.344  39.354   2.125
57845W        W23072  26.246  18.460  11.411
57846W        W23073  16.228  18.646  13.012
57847W        W23074  24.100   6.339  14.930
57848W        W23075  41.457  34.594   0.819
57849W        W23076  28.051  18.488   0.328
57850W        W23077   4.975  16.394  13.554
57851W        W23078  32.028   2.755   4.646
57852W        W23079  21.779  17.309   3.378
57853W        W23080  31.195  12.342   0.916
57854W        W23081  15.924  31.131  14.298
57855W        W23082  37.101  11.811   2.843
57856W        W23083  20.274  43.724   0.206
57857W        W23084   7.294  13.802  10.255
57858W        W23085  14.181   2.483   0.943
57859W        W23086  14.281  35.984  14.845
57860W        W23087  43.549  39.790  13.877
57861W        W23088  12.113  30.099   4.732
57862W        W23089  29.609  29.661   3.451
57863W        W23090   0.714  36.912   0.698
57864W        W23091  17.012  44.589  13.108
57865W        W23092  30.175  17.723   0.502
57866W        W23093  30.559  17.265   3.603
57867W        W23094   8.181  26.416   3.176
57868W        W23095  10.907  24.731   1.439
57869W        W23096  28.517  23.268  14.180
57870W        W23097  10.228  12.867   3.062
57871W        W23098  16.671  21.501   4.613
57872W        W23099   0.820   6.321   0.263
57873W        W23100  20.303  37.386   1.444
57874W        W23101  42.466   3.871  12.164
57875W        W23102   9.668  35.493   4.762
57876W        W23103  16.280  17.745  11.598
57877W        W23104  11.256  13.080   1.776
57878W        W23105   8.285  39.366   2.316
57879W        W23106  28.367   5.658  13.410
57880W        W23107  36.505   4.757  12.839
57881W        W23108   3.322   5.991  11.175
57882W        W23109  12.329  15.899   1.424
57883W        W23110  19.688  36.403  12.279
57884W        W23111  15.592   8.473   1.612
57885W        W23112  18.704  41.040  12.934
57886W        W23113  27.598  40.926   2.843
57887W        W23114   7.772  27.806   3.933
57888W        W23115   1.708  32.592   0.521
57889W        W23116  32.427  41.416   3.917
57890W        W23117  35.789  15.513   2.370
57891W        W23118   8.702   3.694  14.997
57892W        W23119  18.203  44.507  11.622
57893W        W23120  20.642   8.383  13.297
57894W        W23121  16.391  29.945   2.812
57895W        W23122  13.650  19.715   4.741
57896W        W23123  16.157  25.814   2.928
57897W        W23124  43.269  39.870   1.094
57898W        W23125  31.633   5.669   3.266
57899W        W23126  15.955  40.034   3.930
57900W        W23127  37.377  11.516   3.200
57901W        W23128  32.483  31.272   2.444
57902W        W23129  35.103  30.581   1.227
57903W        W23130  40.010  28.586  12.936
57904W        W23131   9.881  17.095   0.445
57905W        W23132  12.076  22.551  11.963
57906W        W23133  31.433  19.708   0.438
57907W        W23134  31.781  15.453  13.007
57908W        W23135   6.615  14.292   2.804
57909W        W23136  26.753   0.321   4.437
57910W        W23137  14.487   8.622  10.304
57911W        W23138  27.587  10.892   4.174
57912W        W23139  14.863  28.920  12.072
57913W        W23140  21.545  12.978   0.579
57914W        W23141   1.096  16.325   2.091
57915W        W23142  43.008  42.839   2.266
57916W        W23143  14.429  37.581  11.600
57917W        W23144  35.230  16.037  11.208
57918W        W23145  43.884  20.793  11.093
57919W        W23146  12.649  32.894   2.375
57920W        W23147  23.222  31.932   1.845
57921W        W23148  12.337   5.482   2.771
57922W        W23149   6.351  28.124   1.374
57923W        W23150  41.460  12.341  10.980
57924W        W23151  24.239  21.169  14.420
57925W        W23152  33.112  20.967   1.309
57926W        W23153  21.671  11.138   1.301
57927W        W23154   1.957  38.685  11.502
57928W        W23155  38.289   7.887  14.429
57929W        W23156  24.733   9.256   4.713
57930W        W23157   4.312  36.348   2.224
57931W        W23158  28.510   9.431  12.385
57932W        W23159   5.296  36.571  11.880
57933W        W23160  44.227  31.380   0.588
57934W        W23161   7.314  43.472  10.722
57935W        W23162  28.517  10.109   4.416
57936W        W23163   9.648  39.367  12.859
57937W        W23164  14.254  32.167   4.650
57938W        W23165  11.901  28.222   4.463
57939W        W23166  23.941  26.696  11.598
57940W        W23167  21.727  41.359  10.888
57941W        W23168  14.037  15.811  12.496
57942W        W23169  32.035  30.714   0.360
57943W        W23170  40.136  32.481  10.511
57944W        W23171  38.751  43.954  13.555
57945W        W23172   8.369  19.318   0.774
57946W        W23173  19.507   6.259   3.268
57947W        W23174  37.812  22.702   1.335
57948W        W23175  12.290   7.441   2.851
57949W        W23176  43.342  21.991   2.193
57950W        W23177  24.426  33.316  11.988
57951W        W23178  31.159  17.647   4.818
57952W        W23179  29.360  23.579   4.629
57953W        W23180   0.573  18.647   4.459
57954W        W23181  21.443  16.226  12.842
57955W        W23182  10.449   6.342  13.465
57956W        W23183  23.292   7.871  11.129
57957W        W23184  41.972  35.821  10.676
57958W        W23185  12.649   8.822  12.610
57959W        W23186   6.430  28.498  14.924
57960W        W23187   0.122  16.236   1.817
57961W        W23188  24.245  10.734  13.363
57962W        W23189   9.809  43.991  12.089
57963W        W23190  11.576   6.191   1.782
57964W        W23191  31.409  44.247  12.642
57965W        W23192  24.290  24.057   4.207
57966W        W23193  41.273  14.601  13.476
57967W        W23194  29.904   0.524   1.720
57968W        W23195  23.916   8.325  14.001
57969W        W23196   9.710   5.281   4.775
57970W        W23197  36.173   2.161  12.740
57971W        W23198   0.136  25.433   1.464
57972W        W23199  28.005  40.760   4.736
57973W        W23200   1.886   2.452  13.840
57974W        W23201   0.989  34.081   2.414
57975W        W23202   4.579  19.732   4.108
57976W        W23203  14.216   2.573   3.125
57977W        W23204  33.279  30.140  10.549
57978W        W23205  11.631   7.901  10.581
57979W        W23206  28.566  32.670   4.277
57980W        W23207  28.468  23.966   1.045
57981W        W23208  27.505  41.717  14.509
57982W        W23209  43.913  23.188  11.269
57983W        W23210  34.106  38.127   1.273
57984W        W23211  34.150   8.869   4.549
57985W        W23212   6.301  22.608  10.328
57986W        W23213  25.929  37.807  11.637
57987W        W23214  19.024  19.022  11.302
57988W        W23215  11.316  25.955  11.230
57989W        W23216   6.588  34.554  13.108
57990W        W23217   6.268   6.913   3.952
57991W        W23218   5.344  32.064   3.721
57992W        W23219   4.114  25.109   1.241
57993W        W23220  35.942  38.568   1.701
57994W        W23221  37.124  11.875  10.680
57995W        W23222  20.208  20.528   0.994
57996W        W23223  39.856  21.788   0.932
57997W        W23224  16.094  40.134  13.725
57998W        W23225  23.692   7.165   1.389
57999W        W23226  13.122  35.597   0.134
58000W        W23227   5.268  15.581  13.291
58001W        W23228  36.866  10.227   4.504
58002W        W23229  13.588  38.294  13.416
58003W        W23230  23.736   2.975  11.830
58004W        W23231  29.506  17.985  13.446
58005W        W23232  30.053  38.772  13.913
58006W        W23233  43.050   2.624   4.221
58007W        W23234  23.817  33.325   0.750
58008W        W23235  21.122  37.898  12.103
58009W        W23236  28.728  39.961   2.782
58010W        W23237  42.898   8.650   2.749
58011W        W23238  17.254   5.702  11.618
58012W        W23239  11.651  35.615  14.388
58013W        W23240  29.708  12.827   1.920
58014W        W23241  10.231  11.689  10.682
58015W        W23242  14.921   9.879  14.418
58016W        W23243  43.445  32.820  14.472
58017W        W23244   6.852  43.259  10.419
58018W        W23245  17.680  40.430   4.244
58019W        W23246   1.990  28.563   0.361
58020W        W23247   6.188  40.530  13.439
58021W        W23248  27.894  14.256   2.314
58022W        W23249   8.858  35.418   0.854
58023W        W23250   9.168  38.020  13.566
58024W        W23251   1.671  41.340   1.295
58025W        W23252  44.539  38.569   4.686
58026W        W23253  18.969  26.034  12.848
58027W        W23254  32.531  26.864   1.386
58028W        W23255  22.104  33.099  13.609
58029W        W23256  31.679  19.541   3.681
58030W        W23257  29.136  37.138  11.611
58031W        W23258  28.657   9.325   1.354
58032W        W23259  34.939  36.376  10.571
58033W        W23260   6.364  44.359  11.137
58034W        W23261  24.036  33.985  13.398
58035W        W23262  31.584  24.209   2.424
58036W        W23263  28.111  32.556   0.703
58037W        W23264   0.871  34.622   1.754
58038W        W23265  12.597   9.084   1.381
58039W        W23266  43.727  43.554  14.353
58040W        W23267   3.912  34.281  11.763
58041W        W23268  17.813   6.016   2.658
58042W        W23269  42.953   2.821   1.916
58043W        W23270  41.801  13.198   1.413
58044W        W23271  33.386  38.341   3.708
58045W        W23272  17.636   7.405   0.308
58046W        W23273   4.031  40.976   0.914
58047W        W23274   6.801  18.689  14.489
58048W        W23275  20.607  35.661  14.024
58049W        W23276  33.470  21.818  13.713
58050W        W23277  34.140  18.812   4.512
58051W        W23278   9.944   4.777   3.062
58052W        W23279  39.738   9.165   2.642
58053W        W23280  27.434   3.803  12.981
58054W        W23281  28.304   8.916   1.959
58055W        W23282  19.026   1.474  12.724
58056W        W23283  17.964  35.521  11.747
58057W        W23284  42.992  16.135  14.877
58058W        W23285   2.661  37.830  11.158
58059W        W23286   7.746  21.705  14.417
58060W        W23287  17.217  28.254   4.258
58061W        W23288  11.426  23.810  11.158
58062W        W23289  41.515  29.618   0.850
58063W        W23290  26.191  30.662   1.745
58064W        W23291   5.350  15.354  10.722
58065W        W23292  28.917  21.245  12.197
58066W        W23293  11.616  10.467  11.596
58067W        W23294  44.372  21.234   0.503
58068W        W23295  26.322   1.450   4.982
58069W        W23296   6.249   4.994   4.021
58070W        W23297  38.867  11.838   3.234
58071W        W23298  30.590  33.958   2.799
58072W        W23299   2.451  12.460  10.144
58073W        W23300  33.640   9.681  14.566
58074W        W23301   1.859  15.873   3.110
58075W        W23302  23.752   3.557  14.986
58076W        W23303  22.758  40.981   3.821
58077W        W23304  40.015   9.435  12.893
58078W        W23305  35.553  34.418   1.452
58079W        W23306   9.293  42.767   3.178
58080W        W23307  15.616  38.747  14.618
58081W        W23308  15.567   3.815   4.670
58082W        W23309  30.627   5.884   0.274
58083W        W23310  19.679  35.610   3.061
58084W        W23311   4.707  44.035   1.224
58085W        W23312  36.550   5.619   3.687
58086W        W23313  38.556  21.233   2.685
58087W        W23314   4.996   2.617  13.073
58088W        W23315   4.883  16.487  10.258
58089W        W23316   5.985   4.305   0.806
58090W        W23317  10.623  34.163   4.396
58091W        W23318  30.901  41.509   4.573
58092W        W23319  30.258  30.423  10.146
58093W        W23320  31.083  29.669  14.391
58094W        W23321   1.380  41.938   0.492
58095W        W23322   3.738   2.491  14.363
58096W        W23323  30.797  15.721  12.127
58097W        W23324  15.619  35.360  14.382
58098W        W23325  20.344  18.735  11.056
58099W        W23326   5.383  28.460  14.955
58100W        W23327  33.782  14.675  14.301
58101W        W23328  33.066   6.446   3.864
58102W        W23329  23.909  32.261   0.506
58103W        W23330  19.370  43.895   2.724
58104W        W23331  13.523  17.183   4.597
58105W        W23332  11.152  41.140   3.844
58106W        W23333  42.692  33.540   1.695
58107W        W23334  26.021   4.345  12.093
58108W        W23335  43.550  14.233   0.036
58109W        W23336  39.398  10.691  10.588
58110W        W23337  19.916  26.071   1.508
58111W        W23338  38.666  35.413   3.617
58112W        W23339  13.577  44.961   0.309
58113W        W23340  41.942   3.682  10.764
58114W        W23341   8.833   8.948   0.394
58115W        W23342  21.154  20.455  13.520
58116W        W23343   4.389  44.525   2.132
58117W        W23344  24.534  42.889   1.302
58118W        W23345  32.457  31.872   1.316
58119W        W23346  19.493   0.172  12.069
58120W        W23347  31.067  25.290  11.668
58121W        W23348  30.105  24.223  13.043
58122W        W23349  35.227  22.600   2.779
58123W        W23350  25.791  32.028  13.555
58124W        W23351   4.001   9.273   3.627
58125W        W23352  38.246  10.233   0.601
58126W        W23353  19.781  34.336   2.622
58127W        W23354   8.859  38.328   4.962
58128W        W23355  18.074   4.460   2.664
58129W        W23356  14.278  19.674  11.649
58130W        W23357  41.758  27.326  13.276
58131W        W23358  36.598  15.574  11.615
58132W        W23359  18.608  42.605   4.075
58133W        W23360  24.596  15.593   0.471
58134W        W23361  11.685  23.762   0.180
58135W        W23362  23.150  29.821   4.137
58136W        W23363  20.551  42.724   2.228
58137W        W23364  20.852   8.201  11.122
58138W        W23365  24.098  27.887   1.939
58139W        W23366  27.409   1.880   3.229
58140W        W23367   0.287  20.831   0.779
58141W        W23368  14.640  37.004   3.232
58142W        W23369  38.942  29.922   3.776
58143W        W23370  14.876  41.026   1.964
58144W        W23371  15.797  16.217  14.910
58145W        W23372  12.331   8.961   2.223
58146W        W23373  23.491  22.340  13.231
58147W        W23374  40.323  38.517  11.289
58148W        W23375  10.247  18.022   2.033
58149W        W23376  14.251  29.892  14.512
58150W        W23377  31.546  18.552  14.863
58151W        W23378   6.728  29.125   1.785
58152W        W23379  22.748  38.899   0.209
58153W        W23380  27.792  32.177   4.195
58154W        W23381  27.407   9.452  13.600
58155W        W23382  16.691  15.710  11.516
58156W        W23383   6.952  19.289   4.576
58157W        W23384  25.074   5.525  12.234
58158W        W23385  30.916  23.094   1.115
58159W        W23386  35.399  11.990   0.383
58160W        W23387   2.042  23.410   4.702
58161W        W23388   2.515   3.395  12.756
58162W        W23389   4.391  31.894   1.279
58163W        W23390  37.795  11.396   2.882
58164W        W23391  25.261  37.434   0.267
58165W        W23392  17.178  16.234  13.906
58166W        W23393   9.706  38.216  13.093
58167W        W23394  39.241  43.294   3.783
58168W        W23395  22.719   4.063   3.236
58169W        W23396  38.131  15.328   2.331
58170W        W23397  33.519  10.197   0.450
58171W        W23398  43.422  29.669  11.901
58172W        W23399  35.520  20.310  12.399
58173W        W23400  18.877  44.372  11.251
58174W        W23401  42.369   6.231  11.514
58175W        W23402   8.805   6.885   0.697
58176W        W23403  29.672  42.885   3.647
58177W        W23404  17.080   0.027   4.032
58178W        W23405  32.938  11.793   1.349
58179W        W23406  29.521   1.468   0.020
58180W        W23407  37.433  32.866  12.572
58181W        W23408  21.003  16.162  14.340
58182W        W23409  32.147  27.513  14.841
58183W        W23410  42.928  13.834   4.770
58184W        W23411  25.009  14.834  13.515
58185W        W23412   8.461  13.260   4.562
58186W        W23413  36.920  34.106   0.010
58187W        W23414  40.025  15.811  12.946
58188W        W23415  20.302  18.345  14.805
58189W        W23416  26.108  24.696  14.494
58190W        W23417  17.585  24.779   3.648
58191W        W23418  37.352  37.759  14.532
58192W        W23419   3.964  26.764  11.663
58193W        W23420   6.738  35.433  12.464
58194W        W23421  42.916  16.156  13.291
58195W        W23422   1.091  32.500  11.585
58196W        W23423  39.993  15.853   4.214
58197W        W23424  15.389  41.841   2.737
58198W        W23425  22.100   2.440  10.720
58199W        W23426   9.342   2.624   1.432
58200W        W23427  40.775  20.103   3.701
58201W        W23428  40.457  28.026  11.231
58202W        W23429  16.333  14.647   2.345
58203W        W23430  41.523  42.417  14.941
58204W        W23431   0.893  17.857  13.416
58205W        W23432  22.680  10.149  11.569
58206W        W23433  39.272  20.157  13.311
58207W        W23434  34.622  43.813  14.845
58208W        W23435  12.865  13.104   1.227
58209W        W23436  41.804  13.554  13.923
58210W        W23437  40.083  16.648   1.065
58211W        W23438  24.522  43.551   0.021
58212W        W23439  39.422  11.438  14.374
58213W        W23440  28.074  43.770   4.326
58214W        W23441  42.888  10.246  11.641
58215W        W23442  13.704  23.417  13.041
58216W        W23443  14.732  10.739  13.863
58217W        W23444  37.649  24.759  12.035
58218W        W23445  29.127   1.828  14.441
58219W        W23446  37.643   8.995  13.450
58220W        W23447  41.688  22.895  11.137
58221W        W23448  12.207  19.515   1.774
58222W        W23449  37.878   8.853   3.822
58223W        W23450   6.898  43.290  12.362
58224W        W23451   4.696  36.476  13.901
58225W        W23452  22.784  33.982  12.186
58226W        W23453  27.632  13.849  13.963
58227W        W23454  13.129  44.250  11.067
58228W        W23455  19.585  14.317  10.834
58229W        W23456  18.280  15.648   1.348
58230W        W23457  33.580  28.980  12.870
58231W        W23458  32.430  34.602  12.674
58232W        W23459  41.882  43.782   2.445
58233W        W23460  43.490   5.170  11.567
58234W        W23461  25.396  19.707   1.966
58235W        W23462  13.664   6.747  10.976
58236W        W23463  29.945  38.410   2.711
58237W        W23464  15.861  31.929  12.354
58238W        W23465  16.097  21.185  11.711
58239W        W23466  22.904  15.493   4.460
58240W        W23467  29.247  30.006   0.385
58241W        W23468  23.558  31.145  13.295
58242W        W23469  30.686  24.937   5.408
58243W        W23470  41.112  19.387  13.848
58244W        W23471  12.567   1.649   1.426
58245W        W23472   6.457  42.017  11.066
58246W        W23473  37.004  16.547   0.225
58247W        W23474  14.614  19.246  11.670
58248W        W23475  28.580  34.982  14.981
58249W        W23476  27.688  42.334  12.075
58250W        W23477   3.498  17.274  11.270
58251W        W23478  16.638  35.625  13.381
58252W        W23479  24.071   5.234  10.323
58253W        W23480   8.944  35.327   3.060
58254W        W23481  24.163  32.130  14.291
58255W        W23482  42.912   1.354   3.771
58256W        W23483  12.702   2.692  14.805
58257W        W23484  33.342   2.701  11.945
58258W        W23485   8.984   0.005  11.988
58259W        W23486  42.077   5.403  10.282
58260W        W23487   5.379  28.476  11.030
58261W        W23488   1.909  13.480  14.803
58262W        W23489  29.133   1.406   2.274
58263W        W23490  13.531  10.392  13.586
58264W        W23491  39.040   1.771   9.881
58265W        W23492  33.430  26.115   4.745
58266W        W23493  26.054   0.650   0.461
58267W        W23494  27.728  30.234  12.817
58268W        W23495   9.365  29.249   2.758
58269W        W23496   6.431  43.898  14.717
58270W        W23497  38.968   7.977  13.039
58271W        W23498  36.287  40.427  14.347
58272W        W23499  37.936  12.113  11.241
58273W        W23500   6.216  26.918  11.550
58274W        W23501  42.346   3.825   1.696
58275W        W23502  41.453  28.669   1.777
58276W        W23503  12.819  28.018   1.458
58277W        W23504  27.924   2.866  10.124
58278W        W23505   9.584   5.530   0.290
58279W        W23506  32.963   6.804  11.680
58280W        W23507  32.880  32.036  11.854
58281W        W23508   8.471   1.908  10.291
58282W        W23509  34.253   6.512   1.352
58283W        W23510  42.240  38.048  13.655
58284W        W23511   0.531  20.398  10.120
58285W        W23512  30.989   2.795  10.209
58286W        W23513  42.981  39.811  13.126
58287W        W23514  12.822  41.465  11.579
58288W        W23515  32.373   9.663  11.676
58289W        W23516  39.113  22.262   3.521
58290W        W23517  34.739   0.351   3.269
58291W        W23518  10.722  38.859   1.246
58292W        W23519  27.676  36.401  12.802
58293W        W23520  29.537  41.403  13.606
58294W        W23521  34.022  15.657   2.165
58295W        W23522  12.669  21.135  14.882
58296W        W23523   9.261   0.379  11.750
58297W        W23524  17.582   4.270   4.229
58298W        W23525  27.175  44.312  13.038
58299W        W23526  20.275  40.016   4.704
58300W        W23527  41.365   5.727  14.254
58301W        W23528  29.479  41.237  10.243
58302W        W23529  20.614  27.594   1.647
58303W        W23530  41.524   1.946   1.542
58304W        W23531  15.751  38.726  12.634
58305W        W23532  31.646   0.387   2.334
58306W        W23533  33.973  39.246  14.273
58307W        W23534  30.946  15.289  10.720
58308W        W23535   4.319  38.039   3.829
58309W        W23536   2.809  18.230  11.665
58310W        W23537   8.655  11.451   1.838
58311W        W23538  22.485  34.570  11.605
58312W        W23539  32.011  19.323  12.031
58313W        W23540   9.265  10.187   3.121
58314W        W23541  29.831  23.710  14.344
58315W        W23542   4.387  33.623  12.011
58316W        W23543  31.198  24.530   2.244
58317W        W23544   4.727  17.731  13.364
58318W        W23545   7.324  41.432   4.161
58319W        W23546  19.998  13.103   1.392
58320W        W23547  22.238   9.114   1.357
58321W        W23548   3.071   8.317  13.513
58322W        W23549   6.490  32.006  14.487
58323W        W23550  17.582  30.112  13.000
58324W        W23551   0.782  32.403  10.660
58325W        W23552   6.336  16.250   1.730
58326W        W23553   2.650  37.660  12.587
58327W        W23554  44.424  35.500   3.590
58328W        W23555   9.676   5.755  11.548
58329W        W23556   8.297  34.372   3.410
58330W        W23557  32.744  36.924   2.932
58331W        W23558  35.644  20.132   0.230
58332W        W23559   6.705  41.938  14.723
58333W        W23560  26.954  27.909  13.818
58334W        W23561  27.696  40.838   1.903
58335W        W23562  36.226   0.360  14.804
58336W        W23563  17.639  10.375   1.931
58337W        W23564  13.274  29.457   1.899
58338W        W23565   5.115  33.490   1.455
58339W        W23566  44.336  12.801   2.683
58340W        W23567  21.209  22.245   1.131
58341W        W23568  36.730  25.110  10.897
58342W        W23569   3.924  23.832  12.124
58343W        W23570  14.075   6.874  12.936
58344W        W23571  10.692  10.491   3.077
58345W        W23572  27.345  15.325   5.495
58346W        W23573   1.555  39.846  13.192
58347W        W23574  20.581  31.165  11.103
58348W        W23575  17.184  14.062  10.089
58349W        W23576  17.286   0.013  13.547
58350W        W23577  18.978  38.854  12.674
58351W        W23578  18.313  37.585   1.429
58352W        W23579  44.114  11.676   3.327
58353W        W23580  27.667   1.350  12.394
58354W        W23581   6.392  41.343   4.655
58355W        W23582  28.440  34.887  12.235
58356W        W23583  20.102  26.009   1.021
58357W        W23584  44.523  22.196  13.735
58358W        W23585  20.999  20.599   3.541
58359W        W23586   7.171  10.124  13.952
58360W        W23587  14.285  21.608  11.687
58361W        W23588   3.724  27.558   3.561
58362W        W23589  41.413  20.329  13.960
58363W        W23590  12.647  26.209  10.966
58364W        W23591   0.393   0.075   1.603
58365W        W23592  16.050  40.533  14.496
58366W        W23593   4.254  23.167   1.805
58367W        W23594   7.780  21.327   2.798
58368W        W23595  26.601  39.278   4.480
58369W        W23596  17.089  32.549   9.909
58370W        W23597  38.202  11.113   1.087
58371W        W23598  29.353   4.746   1.087
58372W        W23599  32.963  16.659  10.706
58373W        W23600  31.447  25.634  14.797
58374W        W23601  12.157  37.771   4.600
58375W        W23602  26.434  35.437  13.385
58376W        W23603   7.221   5.979   1.486
58377W        W23604   9.598   3.749   0.862
58378W        W23605  29.723  13.239   2.229
58379W        W23606  43.843  22.118  11.599
58380W        W23607  19.332  41.007  12.916
58381W        W23608  41.002  43.829   2.386
58382W        W23609  42.817  26.581  12.054
58383W        W23610  38.876  13.848   4.099
58384W        W23611  12.344  40.864  13.607
58385W        W23612  30.487   1.892   4.514
58386W        W23613  28.497  15.611  11.021
58387W        W23614  41.535  39.910  11.227
58388W        W23615  33.278   2.964  13.836
58389W        W23616   1.361  21.281  14.375
58390W        W23617  41.499   2.610   5.071
58391W        W23618  14.170   4.714  10.987
58392W        W23619  38.853   2.946   1.742
58393W        W23620  37.454  24.823  12.524
58394W        W23621  40.725   6.419   2.684
58395W        W23622   0.822  32.918  13.378
58396W        W23623   5.811  37.680   2.874
58397W        W23624  35.430  12.252   3.110
58398W        W23625  44.660  29.083   3.064
58399W        W23626  18.340  17.081  12.077
58400W        W23627  23.522  35.487  13.069
58401W        W23628  35.009   8.351  10.527
58402W        W23629  19.051  33.432   4.863
58403W        W23630  33.734  19.246  11.105
58404W        W23631  40.902  41.384   4.068
58405W        W23632  15.096  29.909  10.529
58406W        W23633  24.994  25.768   3.899
58407W        W23634  33.201  22.616   0.475
58408W        W23635  31.585  13.270  12.559
58409W        W23636  14.794  42.678  14.960
58410W        W23637   3.042   9.899  11.172
58411W        W23638   0.822  31.588  14.994
58412W        W23639  15.642  22.144   0.130
58413W        W23640   7.580  12.088  10.377
58414W        W23641  19.787   4.340   3.077
58415W        W23642  43.345  24.626   2.852
58416W        W23643  13.371  15.356   9.826
58417W        W23644  35.789  17.478   3.647
58418W        W23645   8.798  26.028  11.713
58419W        W23646  27.153  11.625  14.487
58420W        W23647  36.492   5.866   0.312
58421W        W23648  33.142  25.807  11.290
58422W        W23649  37.995  20.831   4.767
58423W        W23650  25.049  18.945   3.279
58424W        W23651  27.316  20.738  12.122
58425W        W23652  36.912  44.567   2.689
58426W        W23653  44.235   1.791   1.815
58427W        W23654  35.277   5.607   3.449
58428W        W23655  19.669   4.759  12.093
58429W        W23656   0.861   1.208  14.324
58430W        W23657  16.793  37.698   4.527
58431W        W23658  11.077   2.335  14.970
58432W        W23659   2.498  43.465   3.707
58433W        W23660  44.322  13.037  11.255
58434W        W23661  13.863  17.113   0.424
58435W        W23662  32.873  14.782   1.711
58436W        W23663   1.324  10.916  13.084
58437W        W23664  21.644  11.367  13.037
58438W        W23665  10.756  23.148   0.791
58439W        W23666  39.390  41.442   3.166
58440W        W23667  43.700   7.159   2.273
58441W        W23668  35.509  18.484   1.379
58442W        W23669  43.358  43.788   2.035
58443W        W23670   0.046   8.860  14.778
58444W        W23671   8.092   4.409  14.920
58445W        W23672  18.005  30.384  11.890
58446W        W23673   3.869  25.147   4.757
58447W        W23674   4.914  43.980  14.411
58448W        W23675   7.545  33.508   5.082
58449W        W23676  14.090  25.717   3.610
58450W        W23677  42.478  11.587   4.176
58451W        W23678  15.780  32.919  11.986
58452W        W23679  25.149  23.982   1.295
58453W        W23680  28.979  19.750   2.550
58454W        W23681  36.583  30.615  13.834
58455W        W23682  33.697  11.718   1.662
58456W        W23683   9.446  12.169  12.320
58457W        W23684  44.211  24.530  14.435
58458W        W23685  30.252   9.531  14.910
58459W        W23686  19.021  16.514   3.060
58460W        W23687   6.238  23.729   0.992
58461W        W23688   2.879  36.546  12.433
58462W        W23689  12.619  17.192   3.146
58463W        W23690   5.754  35.106   3.847
58464W        W23691  23.371  41.824  12.641
58465W        W23692  23.535   6.810  12.348
58466W        W23693   8.893   8.097   2.873
58467W        W23694  15.281  10.227  14.300
58468W        W23695  12.289  11.650  10.535
58469W        W23696  24.230  12.111  14.779
58470W        W23697   5.487  31.772   0.686
58471W        W23698  31.676   0.498  13.351
58472W        W23699  39.921  23.724  12.431
58473W        W23700  43.460  12.647   1.832
58474W        W23701  13.905  26.666  14.504
58475W        W23702  29.185   3.924   3.979
58476W        W23703  22.644   1.436  12.234
58477W        W23704   6.615  19.041  13.353
58478W        W23705  40.975   0.219  13.068
58479W        W23706   4.919  30.620  11.566
58480W        W23707   0.004  41.434   4.267
58481W        W23708   5.168  41.533  10.760
58482W        W23709  34.142  39.679   4.637
58483W        W23710   0.515  11.372   2.179
58484W        W23711  27.130  44.734  10.338
58485W        W23712  38.403   2.799   2.620
58486W        W23713  19.757  26.570   4.716
58487W        W23714   3.499  16.505  10.243
58488W        W23715  31.599  29.031  13.912
58489W        W23716  18.727  11.321  12.934
58490W        W23717   2.018  31.132  10.408
58491W        W23718  17.830  28.642   0.742
58492W        W23719  12.544  30.892   4.744
58493W        W23720  28.384  20.816   1.913
58494W        W23721   1.270  28.908  10.472
58495W        W23722  24.466  44.465  12.560
58496W        W23723  40.269  34.096   3.991
58497W        W23724  23.988  38.755  12.170
58498W        W23725  20.755   5.373   2.808
58499W        W23726   9.304  23.592   4.566
58500W        W23727  42.572   5.308  11.926
58501W        W23728  42.716  31.556  11.912
58502W        W23729  44.837  22.260  10.739
58503W        W23730  29.469  21.995  12.014
58504W        W23731  33.190   5.889   0.402
58505W        W23732  28.845  24.091  14.048
58506W        W23733  27.094  37.519  12.362
58507W        W23734  42.809   8.471   0.939
58508W        W23735   1.427   1.485   1.905
58509W        W23736   6.052  29.146  11.676
58510W        W23737  15.794   1.293   3.618
58511W        W23738  25.209  25.542  14.031
58512W        W23739   9.384   6.217  14.942
58513W        W23740  35.188  26.257   2.168
58514W        W23741   6.455  35.858   1.872
58515W        W23742   2.431  39.776   2.100
58516W        W23743   0.555  13.341   3.628
58517W        W23744  38.463   0.725   0.309
58518W        W23745   8.253   5.422  12.059
58519W        W23746  13.660  18.034  11.984
58520W        W23747  14.251  38.897  14.833
58521W        W23748   5.363  30.488   0.809
58522W        W23749  13.990   5.994  12.220
58523W        W23750   1.240  32.466   4.173
58524W        W23751  16.718  43.532   0.916
58525W        W23752  41.615  11.166  11.502
58526W        W23753  36.317   4.701  14.901
58527W        W23754  34.170  18.641   0.029
58528W        W23755  44.977   3.058   2.255
58529W        W23756  30.077  36.150  10.124
58530W        W23757  27.671  15.135   2.444
58531W        W23758  32.379   6.254  10.917
58532W        W23759  31.567  14.240   3.224
58533W        W23760  42.865  34.914   1.811
58534W        W23761  17.210  38.859   2.485
58535W        W23762  32.995   8.067   0.791
58536W        W23763   0.523   5.405  12.970
58537W        W23764  17.884  24.056  10.707
58538W        W23765  18.840  41.234   3.715
58539W        W23766   8.257  15.911  12.397
58540W        W23767  14.378  19.636   1.063
58541W        W23768  14.035   7.574  14.362
58542W        W23769  14.862  33.514  14.996
58543W        W23770  24.280  17.280  13.418
58544W        W23771  24.968  25.255  14.401
58545W        W23772   0.492   6.307  11.933
58546W        W23773  28.476  20.051  10.774
58547W        W23774  10.528   8.421   1.362
58548W        W23775  32.307  33.662  13.359
58549W        W23776  35.964   9.289   3.162
58550W        W23777  10.745  12.292   4.706
58551W        W23778  18.507   8.523  14.894
58552W        W23779  12.481  40.686  14.094
58553W        W23780  21.145  30.506  14.802
58554W        W23781  38.438  27.243  12.114
58555W        W23782  27.058  22.122   4.649
58556W        W23783   5.804   6.749   4.088
58557W        W23784   3.716  13.587   4.158
58558W        W23785  33.678  19.124   1.206
58559W        W23786  11.697  40.009  11.809
58560W        W23787   2.950   1.330   2.741
58561W        W23788  20.210  15.248   0.478
58562W        W23789  21.223   7.852  14.844
58563W        W23790   6.988   7.444   2.689
58564W        W23791  42.910   0.776  12.263
58565W        W23792  11.149  26.523  12.530
58566W        W23793  44.495  27.106  12.638
58567W        W23794  23.226  28.686  11.015
58568W        W23795   1.886  36.293   0.469
58569W        W23796  35.549   5.431  12.073
58570W        W23797   4.639  19.200  13.939
58571W        W23798  29.138   2.772  12.655
58572W        W23799  21.108   8.672  14.462
58573W        W23800  31.815   8.905  13.021
58574W        W23801   1.429  18.252   3.666
58575W        W23802   1.592  26.470   1.429
58576W        W23803  19.172  21.466  12.064
58577W        W23804  18.710  27.431  12.142
58578W        W23805   2.207  33.019  12.168
58579W        W23806  29.177   9.949  11.135
58580W        W23807   7.618  12.844   1.494
58581W        W23808  21.623  34.957  11.577
58582W        W23809  13.603  30.706  11.569
58583W        W23810   2.446  10.394   4.582
58584W        W23811  28.367  16.814  13.272
58585W        W23812  25.096  32.201  12.497
58586W        W23813  39.487  12.826   4.825
58587W        W23814  21.963   9.710  11.657
58588W        W23815  39.024  33.382   3.842
58589W        W23816  22.057  13.644  12.171
58590W        W23817  14.684  17.477  11.609
58591W        W23818  19.519  32.837  12.036
58592W        W23819  19.689  44.502  14.461
58593W        W23820   7.650  33.177   0.458
58594W        W23821  36.232  42.434  12.593
58595W        W23822   9.193  37.607  11.519
58596W        W23823  27.012  29.149  10.349
58597W        W23824  40.743   7.852   4.441
58598W        W23825  32.363  18.105  12.418
58599W        W23826  17.935  35.452   1.825
58600W        W23827  39.709  24.504  12.655
58601W        W23828  40.724  39.207   2.865
58602W        W23829  38.917  13.208   2.914
58603W        W23830  43.500  41.079  12.984
58604W        W23831  40.306  19.540  13.088
58605W        W23832  42.930  26.082  11.407
58606W        W23833   8.813   2.946   0.418
58607W        W23834  41.528  13.695  11.525
58608W        W23835  19.672  19.590   0.762
58609W        W23836   5.734  10.772  13.702
58610W        W23837  27.580   1.816  12.648
58611W        W23838  32.628  27.224  12.424
58612W        W23839  31.505  38.445   1.954
58613W        W23840  37.776  42.669  11.100
58614W        W23841  25.689  30.095   4.314
58615W        W23842   8.813  35.134  10.629
58616W        W23843  21.216  11.996   0.329
58617W        W23844   8.919  20.712  14.906
58618W        W23845   9.193  37.843   0.360
58619W        W23846  18.395  19.729   4.040
58620W        W23847  18.765  23.719   0.286
58621W        W23848  37.621  35.518   3.631
58622W        W23849  43.317  36.173  10.332
58623W        W23850  13.203  31.888  14.478
58624W        W23851  44.422  17.057   3.791
58625W        W23852   2.378   4.722   1.002
58626W        W23853   5.394  39.424  12.627
58627W        W23854  30.640  21.291  13.080
58628W        W23855   1.617  20.178   4.486
58629W        W23856  20.060  22.234   4.503
58630W        W23857  12.317  31.479   1.751
58631W        W23858  31.002  14.205  13.947
58632W        W23859  10.964   6.418   0.773
58633W        W23860  16.074  37.413  13.473
58634W        W23861  14.714   3.407   2.478
58635W        W23862  31.260  42.858   2.545
58636W        W23863  38.606   6.141  13.868
58637W        W23864  33.009  11.615  11.081
58638W        W23865   2.995  39.494   3.178
58639W        W23866  33.352  26.558   4.067
58640W        W23867  43.383  20.057   1.003
58641W        W23868  22.520   2.341  13.352
58642W        W23869  15.806  41.633  12.256
58643W        W23870  26.709  32.561  14.406
58644W        W23871  33.606  17.584   0.451
58645W        W23872  33.112  20.652   2.231
58646W        W23873   9.028  33.960  12.554
58647W        W23874  16.212  35.724   1.912
58648W        W23875  22.146  30.887  13.353
58649W        W23876  35.059  22.992   4.205
58650W        W23877   4.931  36.615   2.822
58651W        W23878  10.861  19.781   2.338
58652W        W23879  17.080  37.561   0.912
58653W        W23880  20.729   8.619   4.188
58654W        W23881  40.795   3.709  14.419
58655W        W23882  41.261   4.695  13.195
58656W        W23883  21.000  20.218  11.260
58657W        W23884  21.230  11.464  14.022
58658W        W23885  44.869  43.424  10.742
58659W        W23886  27.108   6.802  13.419
58660W        W23887  21.118  20.375  12.055
58661W        W23888  32.769   2.067  14.015
58662W        W23889  36.983  32.863   4.276
58663W        W23890  10.197   1.580   4.744
58664W        W23891   0.116  17.040  13.929
58665W        W23892   5.095  32.050   4.571
58666W        W23893  17.376  14.181  11.182
58667W        W23894  37.603  14.196   2.404
58668W        W23895  42.853  12.140  11.782
58669W        W23896  26.638  21.766  13.221
58670W        W23897   4.229   3.452   4.767
58671W        W23898  28.000   9.918  10.730
58672W        W23899   1.924  34.204   4.345
58673W        W23900   7.486   6.350  13.467
58674W        W23901  19.203   3.920   2.250
58675W        W23902  37.009  27.932  14.539
58676W        W23903   9.204  15.624   0.719
58677W        W23904  44.707  43.025  10.464
58678W        W23905  44.373  29.703   0.978
58679W        W23906  24.982  26.706  11.557
58680W        W23907   9.012  15.220   0.971
58681W        W23908   6.666  37.570   4.868
58682W        W23909   1.652  25.621   1.783
58683W        W23910   6.169   6.836  13.081
58684W        W23911   0.339  41.234  12.968
58685W        W23912  41.572   3.480   2.180
58686W        W23913  21.199   1.330   0.513
58687W        W23914  36.223  10.711   1.892
58688W        W23915  33.936  18.565  12.942
58689W        W23916  25.775   6.418  10.631
58690W        W23917  17.537  34.433  10.401
58691W        W23918   0.450  36.402  12.503
58692W        W23919  14.867   4.291   0.360
58693W        W23920   3.589  24.321  13.004
58694W        W23921  33.968  15.265  11.988
58695W        W23922  17.127   7.914  12.835
58696W        W23923   9.681   6.271   4.390
58697W        W23924  15.820  26.067  14.955
58698W        W23925  29.594  30.029   3.798
58699W        W23926  43.471  31.578  10.454
58700W        W23927  26.055   9.889   4.047
58701W        W23928   1.270  32.638   2.754
58702W        W23929  40.522  15.972  11.542
58703W        W23930  16.833  17.289  14.940
58704W        W23931  38.075  23.632   1.263
58705W        W23932  28.128   2.190  10.420
58706W        W23933  30.668  33.968  11.033
58707W        W23934  36.880  24.323  13.739
58708W        W23935  26.533  25.220   1.757
58709W        W23936  42.506  28.897  11.916
58710W        W23937   9.636  16.701  11.436
58711W        W23938  41.307   7.152   0.334
58712W        W23939  40.757  39.657   4.800
58713W        W23940   4.478  43.085  14.627
58714W        W23941  28.636  25.016   3.750
58715W        W23942  31.061   9.503  11.640
58716W        W23943  38.999   2.473   3.776
58717W        W23944   5.935  27.651  13.758
58718W        W23945  36.645  34.422  12.054
58719W        W23946  41.025   8.230  11.209
58720W        W23947  38.584  44.429  13.407
58721W        W23948  40.301   3.349   4.065
58722W        W23949  39.753   3.635   3.194
58723W        W23950   7.219  29.848  12.041
58724W        W23951  12.832   7.449  13.993
58725W        W23952  31.640  41.267   3.637
58726W        W23953   0.269  14.909  14.981
58727W        W23954   9.297  23.064   4.450
58728W        W23955   9.628   6.722   4.117
58729W        W23956  15.224  11.965  13.768
58730W        W23957  22.674   4.215   1.992
58731W        W23958  39.527  14.411   0.248
58732W        W23959  34.367   8.843  13.369
58733W        W23960  31.026  28.744   3.710
58734W        W23961  39.410   1.861  10.698
58735W        W23962  30.474  18.241   1.696
58736W        W23963  39.819  33.337  13.741
58737W        W23964  30.955  13.851   4.225
58738W        W23965  10.100   8.802   2.769
58739W        W23966  19.666  44.918   4.727
58740W        W23967  15.861  40.599   3.105
58741W        W23968  20.039  42.578  13.521
58742W        W23969  33.347   0.385  11.571
58743W        W23970   3.845   7.462   0.818
58744W        W23971  14.637  25.146   2.277
58745W        W23972  31.868  42.951  14.681
58746W        W23973  11.820  18.087  13.845
58747W        W23974  11.782  38.698  14.513
58748W        W23975   2.743  25.593  13.582
58749W        W23976  13.312   9.380  13.498
58750W        W23977  39.879  42.849  13.475
58751W        W23978   3.352  27.716  14.332
58752W        W23979  38.336  17.416   3.631
58753W        W23980   1.730  24.089   0.088
58754W        W23981   8.835  26.075   4.214
58755W        W23982  42.463   6.232   3.603
58756W        W23983  27.241   1.408  12.709
58757W        W23984   5.783  25.578  11.508
58758W        W23985   8.622  20.052  14.499
58759W        W23986  39.362  11.934  14.439
58760W        W23987  24.107  38.532   2.675
58761W        W23988  15.695  12.618  13.566
58762W        W23989   3.329  32.528  12.165
58763W        W23990  16.418  29.980  14.852
58764W        W23991  13.046  31.187  11.973
58765W        W23992  25.848  41.928  14.811
58766W        W23993  23.665   3.087   3.317
58767W        W23994  37.276   7.966  11.627
58768W        W23995   6.993   5.432  11.589
58769W        W23996  12.952   2.545  11.200
58770W        W23997  38.995  17.264   2.183
58771W        W23998  37.090   8.423  11.465
58772W        W23999  43.952  28.936  14.903
58773W        W24000  13.168   5.738   3.356
58774W        W24001   8.951  13.176   0.096
58775W        W24002  24.573  44.253  12.057
58776W        W24003  30.118  17.634   2.334
58777W        W24004  35.114   9.355   2.756
58778W        W24005   8.718  22.039  10.729
58779W        W24006  42.184   6.767  13.858
58780W        W24007   4.246  30.430   0.052
58781W        W24008  43.475  27.567   1.558
58782W        W24009  23.016  16.755   1.649
58783W        W24010  24.695   8.264   3.123
58784W        W24011  25.539  22.697  13.850
58785W        W24012  18.026  16.540   4.603
58786W        W24013  28.087  10.766   4.279
58787W        W24014   0.979   3.047  11.611
58788W        W24015  43.060  22.485   1.835
58789W        W24016  35.953  12.282  11.266
58790W        W24017   4.813  26.526   2.734
58791W        W24018   4.287  38.090  12.990
58792W        W24019  29.682  23.038   2.778
58793W        W24020   0.014  37.446  11.709
58794W        W24021   0.148   4.403   1.233
58795W        W24022  32.192  41.809  12.995
58796W        W24023  15.330  35.591   3.607
58797W        W24024  20.589  10.894  11.977
58798W        W24025   4.318   1.383   3.092
58799W        W24026  17.108  24.156   0.715
58800W        W24027  15.104  19.858  11.211
58801W        W24028  36.665  16.237   2.787
58802W        W24029  43.343  30.381   1.873
58803W        W24030  41.891  30.759   0.726
58804W        W24031  24.263  29.855   3.239
58805W        W24032  24.266  43.796  11.687
58806W        W24033   2.101   1.291   2.726
58807W        W24034  44.292  32.172   1.561
58808W        W24035   1.915   4.515   0.965
58809W        W24036  42.352  37.651   0.401
58810W        W24037  20.282  34.736  11.834
58811W        W24038  26.142  10.389   2.773
58812W        W24039   2.013  39.924  13.445
58813W        W24040   6.899  12.073   2.346
58814W        W24041  15.119  27.461  12.895
58815W        W24042  26.517  18.130  12.444
58816W        W24043  14.222  35.744  14.395
58817W        W24044  29.919  22.127  11.252
58818W        W24045   8.432  24.405   3.237
58819W        W24046  33.875   5.796   3.044
58820W        W24047  26.244  38.012   0.780
58821W        W24048  40.994  30.596   2.320
58822W        W24049   6.233  23.529  12.357
58823W        W24050  12.260   6.309  14.357
58824W        W24051  16.115  29.724   1.816
58825W        W24052   6.830  17.988  14.824
58826W        W24053  17.747  44.201   3.298
58827W        W24054   0.021   3.661  10.562
58828W        W24055  42.314   9.353  13.496
58829W        W24056  33.182  11.296  13.379
58830W        W24057  11.234  24.059   0.903
58831W        W24058  44.091  16.634  14.846
58832W        W24059   9.093  22.088   4.106
58833W        W24060  40.052  27.204   1.851
58834W        W24061  38.400   7.171   1.682
58835W        W24062   3.182  39.966   4.537
58836W        W24063  44.927   3.279   4.725
58837W        W24064  36.484  39.085   4.244
58838W        W24065  25.306  43.257   1.677
58839W        W24066  43.939  23.565   4.312
58840W        W24067   5.500  32.251  13.048
58841W        W24068  20.673  44.558  11.400
58842W        W24069  25.732  35.875  13.894
58843W        W24070  32.911  43.767  11.494
58844W        W24071   8.731  27.911   3.559
58845W        W24072  39.445  40.001   3.428
58846W        W24073  21.935   9.790  10.718
58847W        W24074   2.874   5.890  11.430
58848W        W24075  16.128  39.340   3.216
58849W        W24076  11.627   9.244  10.392
58850W        W24077  10.826  27.039   2.171
58851W        W24078  15.409   6.927   1.290
58852W        W24079  35.545  12.257  14.920
58853W        W24080  22.178  19.715  13.436
58854W        W24081  14.049  25.953  13.942
58855W        W24082  39.831  41.254   3.314
58856W        W24083  19.728   4.329  14.879
58857W        W24084   9.617  39.772  14.119
58858W        W24085  36.133  42.800   4.216
58859W        W24086  10.759  16.070  12.496
58860W        W24087  43.902  35.532  13.524
58861W        W24088  10.202  23.965  13.389
58862W        W24089  29.392  41.532   3.193
58863W        W24090  10.584   4.439  10.716
58864W        W24091  35.006  22.666   1.962
58865W        W24092  30.630  11.602  14.862
58866W        W24093  14.172   6.711  11.128
58867W        W24094  10.815   3.281  14.446
58868W        W24095  33.179   8.859   4.887
58869W        W24096  15.465  23.552   0.844
58870W        W24097  20.951   1.865  13.382
58871W        W24098  40.342   4.459   0.321
58872W        W24099  41.479  41.926   3.639
58873W        W24100  37.744  21.413  10.461
58874W        W24101   0.433   7.144   4.623
58875W        W24102  10.063  30.445   4.156
58876W        W24103  16.156  35.077   1.230
58877W        W24104   0.769  11.140  13.355
58878W        W24105  30.161   5.881   0.448
58879W        W24106  37.480   8.737  12.248
58880W        W24107  23.814   6.931  13.382
58881W        W24108  28.736  13.161   9.833
58882W        W24109   2.424  35.122  14.920
58883W        W24110  10.296  32.752   1.770
58884W        W24111  25.214  19.271   3.873
58885W        W24112  11.644  43.273   3.702
58886W        W24113   1.902  27.345   3.539
58887W        W24114  10.072  25.684   3.830
58888W        W24115   6.905  20.630   4.197
58889W        W24116  24.772  35.911   2.399
58890W        W24117  28.028  31.679   1.741
58891W        W24118  14.668  35.977   3.315
58892W        W24119  37.525  25.019   1.932
58893W        W24120  11.180   7.190   1.190
58894W        W24121  33.552  12.631  12.135
58895W        W24122  32.048  40.344  12.160
58896W        W24123  42.742  22.784   4.052
58897W        W24124   3.533  38.389   3.748
58898W        W24125   5.480  25.474  13.985
58899W        W24126   2.872  41.893   1.840
58900W        W24127   7.859   4.648   3.763
58901W        W24128   6.666  11.083  14.408
58902W        W24129  39.441  16.227   2.847
58903W        W24130   3.298  10.924  12.727
58904W        W24131  39.833  41.236  13.139
58905W        W24132   1.299  44.230   0.528
58906W        W24133   8.057  32.575   2.717
58907W        W24134   0.331  20.702  12.575
58908W        W24135  23.521   2.551  12.046
58909W        W24136   8.262   8.394  14.389
58910W        W24137  25.031  36.785  11.298
58911W        W24138  27.533   5.877   3.608
58912W        W24139  40.320  29.106  14.428
58913W        W24140  14.419  34.934   0.177
58914W        W24141  31.905  33.984  13.393
58915W        W24142  22.068  33.721   1.706
58916W        W24143  33.827   7.888   2.725
58917W        W24144  38.937  21.765   2.275
58918W        W24145  32.292  25.052  13.039
58919W        W24146  33.649   6.190   2.720
58920W        W24147  13.341   3.246   0.236
58921W        W24148  38.345   3.814  13.323
58922W        W24149  23.183  13.406  11.594
58923W        W24150  10.662  23.929  11.458
58924W        W24151  19.089  34.186  11.999
58925W        W24152  42.474  23.975  13.516
58926W        W24153  43.011  32.745  14.745
58927W        W24154  24.092  26.769   2.815
58928W        W24155  31.207  44.278  13.974
58929W        W24156  11.269  15.517  12.066
58930W        W24157  17.041  34.761   0.760
58931W        W24158  34.056  42.532  14.387
58932W        W24159  36.779  31.104  13.963
58933W        W24160  38.889  18.812   1.949
58934W        W24161  25.805  24.791  14.076
58935W        W24162  39.242  29.560  10.579
58936W        W24163  10.873  33.062  14.495
58937W        W24164  35.535  27.015   1.834
58938W        W24165  27.103   5.716   3.860
58939W        W24166  43.292  13.697   4.419
58940W        W24167   5.159  12.797   1.135
58941W        W24168   6.126   3.107   3.439
58942W        W24169  42.110   0.412   3.349
58943W        W24170   1.413  28.120   0.716
58944W        W24171   1.497   7.873   0.407
58945W        W24172  14.222  19.696   4.138
58946W        W24173  21.072  35.332  14.037
58947W        W24174  22.367  21.086  10.545
58948W        W24175  26.564  29.333  10.639
58949W        W24176  42.827  26.081   3.390
58950W        W24177  18.595  15.639   4.615
58951W        W24178  40.011  18.786   0.274
58952W        W24179   0.181  26.444   5.418
58953W        W24180  28.875  19.695   1.514
58954W        W24181  35.102  24.039  11.731
58955W        W24182  13.267  41.872  12.330
58956W        W24183  26.992  25.269   4.029
58957W        W24184   2.317  41.050   2.880
58958W        W24185  13.854  39.036  12.809
58959W        W24186  36.046   0.134   3.699
58960W        W24187   0.245  14.262   0.994
58961W        W24188  26.596  12.029  14.022
58962W        W24189  34.859  24.665   3.226
58963W        W24190  30.899  32.573   3.666
58964W        W24191   8.848   7.501   4.646
58965W        W24192  12.848  11.600   1.201
58966W        W24193  40.512  18.079   3.750
58967W        W24194  39.320  23.796   2.670
58968W        W24195  18.640   4.782  13.395
58969W        W24196  16.295  32.915  12.015
58970W        W24197  31.354  38.997  14.808
58971W        W24198   0.446   0.519   2.817
58972W        W24199  24.583   0.727   1.305
58973W        W24200   3.158  22.636   4.279
58974W        W24201  43.546  17.719   3.658
58975W        W24202  39.106  14.690   3.235
58976W        W24203  26.630  40.343  14.994
58977W        W24204  32.612  22.256  14.767
58978W        W24205  22.195  28.631  14.932
58979W        W24206  42.722  20.802  10.294
58980W        W24207  25.421  35.301   1.746
58981W        W24208  42.497  18.547  12.615
58982W        W24209  38.351  41.240   1.723
58983W        W24210   2.756  12.755  13.401
58984W        W24211  29.629   5.268   3.424
58985W        W24212  34.250  30.256   3.616
58986W        W24213  37.150  43.221  13.349
58987W        W24214  34.834  16.025  11.547
58988W        W24215   7.376  37.708  11.108
58989W        W24216  20.203  10.793  14.438
58990W        W24217   4.943  40.437  10.710
58991W        W24218  14.159  29.684  13.424
58992W        W24219  11.428   9.789   0.846
58993W        W24220  11.702  33.357   2.742
58994W        W24221  39.382  20.899   0.841
58995W        W24222  14.475  33.445  11.072
58996W        W24223  39.261  37.349  14.446
58997W        W24224  35.988  31.921   4.147
58998W        W24225   9.800  14.634   2.216
58999W        W24226  40.071  30.452   2.076
59000W        W24227  35.575   9.660  11.893
59001W        W24228   4.244  35.694  10.681
59002W        W24229  33.123  18.162  13.808
59003W        W24230   6.658  15.789   2.719
59004W        W24231  12.219  28.096   1.587
59005W        W24232  25.229  17.181  13.149
59006W        W24233  15.842  43.906  13.056
59007W        W24234  41.846  36.419   4.637
59008W        W24235  10.127  34.565  12.870
59009W        W24236  44.480  11.528   2.968
59010W        W24237  10.686  11.657   3.324
59011W        W24238   7.698  14.104  11.669
59012W        W24239   1.782  27.128   3.989
59013W        W24240  19.319  38.506   0.489
59014W        W24241  35.319   3.786   3.431
59015W        W24242  42.766  40.510  13.267
59016W        W24243   4.968  12.413   1.884
59017W        W24244  44.923   0.556   2.866
59018W        W24245  28.712  34.448   3.348
59019W        W24246  35.640   1.981   2.199
59020W        W24247  13.045  31.463  11.541
59021W        W24248  13.303  38.568   1.454
59022W        W24249   1.534  42.337   3.770
59023W        W24250  28.455   0.358   4.264
59024W        W24251   0.843  44.521  11.406
59025W        W24252   2.894  32.970  11.488
59026W        W24253  18.526  28.015  12.981
59027W        W24254  22.881   8.135   4.196
59028W        W24255   0.204  12.368   4.527
59029W        W24256   8.472  41.011   2.828
59030W        W24257   4.478  20.404   4.119
59031W        W24258  19.159  16.862  12.081
59032W        W24259  40.695  10.652  14.388
59033W        W24260  13.676  13.623   3.647
59034W        W24261  20.438   8.802   3.207
59035W        W24262  41.325  32.840   3.554
59036W        W24263  23.386  23.532  11.122
59037W        W24264  33.926  12.587  13.881
59038W        W24265   3.055  41.423  14.962
59039W        W24266  17.846  21.588   0.286
59040W        W24267   8.268   0.264  13.081
59041W        W24268  25.222   4.943  10.656
59042W        W24269  19.551  37.679   5.302
59043W        W24270   3.161  28.219   2.304
59044W        W24271  28.495  30.692  12.912
59045W        W24272   4.179  14.140  13.881
59046W        W24273  13.271  37.840   1.971
59047W        W24274  44.738  37.764   3.858
59048W        W24275  25.102  37.358   1.761
59049W        W24276   8.370  19.561  11.580
59050W        W24277  19.732  17.520   2.791
59051W        W24278  27.055  27.463  14.068
59052W        W24279  26.170  22.134   0.467
59053W        W24280  38.887  39.099   0.709
59054W        W24281  44.520  17.328   1.554
59055W        W24282  17.486  13.845   0.394
59056W        W24283  31.960   3.493  12.794
59057W        W24284  29.007  18.599  10.868
59058W        W24285  16.243   4.833  11.379
59059W        W24286  17.834  35.837  13.357
59060W        W24287  36.605  22.300  14.458
59061W        W24288  18.361  33.103   0.947
59062W        W24289  42.343  37.531  10.391
59063W        W24290  37.556  43.210   4.023
59064W        W24291   6.956  25.039  14.336
59065W        W24292   3.746  36.845  10.994
59066W        W24293   7.800   7.732  13.472
59067W        W24294  38.107  10.212  11.833
59068W        W24295  26.024  24.564  12.919
59069W        W24296  29.621  17.330   3.248
59070W        W24297  20.470   7.803   4.741
59071W        W24298  23.476  37.304   4.089
59072W        W24299  18.256  37.506  12.086
59073W        W24300  34.126  39.833  10.847
59074W        W24301  23.209   9.358   4.484
59075W        W24302  23.763  23.721  13.533
59076W        W24303   8.137   3.489  13.104
59077W        W24304  43.202  12.445  11.462
59078W        W24305  29.463   5.816  10.659
59079W        W24306  22.218   2.411  12.646
59080W        W24307   5.459  27.474  12.893
59081W        W24308  11.609  42.357  10.358
59082W        W24309  36.554  38.271   2.341
59083W        W24310  19.237   7.745   3.343
59084W        W24311  10.137  28.005   0.225
59085W        W24312  10.152  34.402   3.665
59086W        W24313   7.678   2.990  12.527
59087W        W24314   0.430  22.459  13.704
59088W        W24315  41.372  20.553   1.405
59089W        W24316  33.417  39.801  11.394
59090W        W24317  14.684  36.195  13.525
59091W        W24318  30.396  20.780  14.602
59092W        W24319  30.895  19.239   2.011
59093W        W24320  13.899  42.829   0.097
59094W        W24321  10.137  22.046   0.805
59095W        W24322  14.881   1.267   0.512
59096W        W24323   0.796  17.443   0.892
59097W        W24324   7.734  17.840  10.848
59098W        W24325  43.832  17.204  13.511
59099W        W24326  17.346  24.163  13.414
59100W        W24327   2.922  35.960  11.571
59101W        W24328   7.272  36.070   4.412
59102W        W24329  37.976  36.038   3.599
59103W        W24330  41.817  28.189  13.051
59104W        W24331  25.295  27.011   3.270
59105W        W24332  17.762  27.325   3.716
59106W        W24333  10.023  25.017  13.485
59107W        W24334  33.990  37.864   0.772
59108W        W24335   1.808   3.426  14.405
59109W        W24336  37.464  18.622   4.805
59110W        W24337  39.046  41.001   1.289
59111W        W24338  39.636  12.022  12.465
59112W        W24339  13.755  36.642   3.820
59113W        W24340  34.618  32.125  11.234
59114W        W24341  40.291  21.983   0.725
59115W        W24342  42.055   4.648   3.461
59116W        W24343   8.333  38.589  12.471
59117W        W24344  19.075  19.217   1.311
59118W        W24345   1.798  25.442  14.851
59119W        W24346  13.946  44.458  13.155
59120W        W24347  10.208  42.572   3.716
59121W        W24348  42.810  33.654  12.605
59122W        W24349   6.842   3.081  14.158
59123W        W24350  35.402  30.456  12.605
59124W        W24351  40.286  31.821   3.187
59125W        W24352  30.510  39.956  12.129
59126W        W24353  25.621   7.105  12.158
59127W        W24354  31.036   7.353   1.287
59128W        W24355  28.253  33.275  10.348
59129W        W24356  43.484  31.528  12.014
59130W        W24357  25.574  43.417   2.746
59131W        W24358  12.315  24.207  13.932
59132W        W24359  20.032   5.326   4.870
59133W        W24360  19.117  30.235  12.191
59134W        W24361  40.905  39.101  12.419
59135W        W24362   6.108  28.046   2.836
59136W        W24363   2.177  10.279   0.777
59137W        W24364  32.920  22.918   4.427
59138W        W24365  26.217  38.571   4.790
59139W        W24366  35.509   8.965   3.072
59140W        W24367  44.857  18.226   0.209
59141W        W24368  25.708   5.265  13.384
59142W        W24369   8.780   5.032   0.325
59143W        W24370  34.923  42.232   2.277
59144W        W24371  23.755  28.669   0.847
59145W        W24372   6.355   8.945  14.832
59146W        W24373  27.923  14.216  12.033
59147W        W24374  28.446  14.268  13.031
59148W        W24375   9.756  11.421  11.574
59149W        W24376   1.531  14.492  14.260
59150W        W24377  24.820  40.654  13.451
59151W        W24378   9.758  30.446   3.145
59152W        W24379   1.495  15.732  12.497
59153W        W24380   4.468  26.809   5.008
59154W        W24381  13.563  27.384  11.306
59155W        W24382  12.698   5.499  13.385
59156W        W24383  41.780  23.899   0.618
59157W        W24384  28.981  43.150  12.004
59158W        W24385  29.497  30.128   3.246
59159W        W24386  30.745  41.967   2.430
59160W        W24387  28.500  20.578   0.963
59161W        W24388  27.888   7.511  12.205
59162W        W24389   8.311  28.987  13.169
59163W        W24390  11.662  44.915  13.803
59164W        W24391  37.869  11.624   4.101
59165W        W24392  14.241  11.679  11.622
59166W        W24393   6.662  33.650   0.442
59167W        W24394  41.756  17.160  11.362
59168W        W24395  20.225  22.701  12.634
59169W        W24396   1.931  34.912  10.493
59170W        W24397  16.269  29.201   2.330
59171W        W24398   6.126   6.642  14.918
59172W        W24399  22.541  14.347  12.895
59173W        W24400  40.469  29.601   3.797
59174W        W24401  28.072  41.221   1.918
59175W        W24402  13.725  13.752  11.202
59176W        W24403  31.992  15.599  10.112
59177W        W24404  28.932  14.285  11.746
59178W        W24405  44.462   9.839   3.298
59179W        W24406  22.163  10.785   1.846
59180W        W24407  33.709  22.544   4.176
59181W        W24408  20.533  23.987   2.293
59182W        W24409  41.411  42.826   4.815
59183W        W24410  17.182   5.430  14.015
59184W        W24411  13.849  28.047  14.426
59185W        W24412  21.101   8.917   1.283
59186W        W24413   2.793  36.409  11.362
59187W        W24414   7.212  40.051  13.870
59188W        W24415   3.658  11.564   0.427
59189W        W24416  43.401  23.302   2.233
59190W        W24417   6.377  18.748   2.710
59191W        W24418  30.949  40.315   1.551
59192W        W24419   5.430   6.464  13.736
59193W        W24420  22.556  14.390   0.317
59194W        W24421  41.266  30.055   3.897
59195W        W24422  13.818  22.726  13.669
59196W        W24423  30.935  10.997  14.023
59197W        W24424  41.917  33.423   4.619
59198W        W24425  35.449  38.757   2.730
59199W        W24426  11.712  19.923  13.465
59200W        W24427  31.879   9.118   4.844
59201W        W24428  22.614  19.874   5.058
59202W        W24429  23.416  29.511   3.214
59203W        W24430  18.001  15.849   2.855
59204W        W24431   1.133  31.396  12.965
59205W        W24432  10.375  18.705  14.459
59206W        W24433  13.951  35.259   1.020
59207W        W24434   9.344  37.849   3.390
59208W        W24435  28.632  21.707  13.076
59209W        W24436  39.580  22.822  11.755
59210W        W24437  24.480  41.907  10.774
59211W        W24438   3.797  19.226   2.352
59212W        W24439  36.311  10.117  13.037
59213W        W24440  26.520  41.107   0.341
59214W        W24441  37.310  37.245   4.312
59215W        W24442   4.465  17.539   3.780
59216W        W24443  22.999  17.803   0.531
59217W        W24444  17.495   1.462   4.724
59218W        W24445  10.204  14.611   0.716
59219W        W24446  28.416  34.529  13.882
59220W        W24447  37.230  36.525  12.336
59221W        W24448  17.781  32.810  13.087
59222W        W24449  25.934  33.564   3.215
59223W        W24450  14.966  15.098  14.294
59224W        W24451   3.852  29.014   4.501
59225W        W24452  26.079  27.630  10.728
59226W        W24453   0.835  32.359   3.853
59227W        W24454  41.089   4.422  14.362
59228W        W24455  29.052  37.113   2.333
59229W        W24456  31.552  39.845   0.394
59230W        W24457  26.676  35.491  14.791
59231W        W24458  25.107   9.192   3.334
59232W        W24459  13.221  27.751  14.367
59233W        W24460  14.750  11.982  12.527
59234W        W24461  43.924  15.746   3.668
59235W        W24462  25.255   5.992  12.306
59236W        W24463  22.580  15.037  13.480
59237W        W24464  19.796  12.257   3.857
59238W        W24465  10.391   1.198  12.071
59239W        W24466  34.572  11.419   3.021
59240W        W24467   1.778  41.050  13.958
59241W        W24468  29.135   1.959  12.163
59242W        W24469   0.897  41.522   2.385
59243W        W24470   5.438  32.282   0.765
59244W        W24471  25.615  13.418   2.257
59245W        W24472   3.060  20.986   4.120
59246W        W24473   6.835  34.500   0.245
59247W        W24474  11.198  36.345   2.160
59248W        W24475  35.407  39.066  10.857
59249W        W24476  27.428   2.215  12.365
59250W        W24477   8.192  23.477   3.437
59251W        W24478   1.547  19.290  10.761
59252W        W24479  40.544  39.480   2.467
59253W        W24480  38.401   3.684   2.788
59254W        W24481  39.798  21.906   2.767
59255W        W24482  16.067  44.480   3.572
59256W        W24483  42.628  43.351   1.409
59257W        W24484   3.366  10.511  13.033
59258W        W24485   7.260  44.157  11.343
59259W        W24486  37.967  28.961  13.431
59260W        W24487  26.865   4.490   1.761
59261W        W24488  19.524  41.824  12.535
59262W        W24489  23.291   6.388  10.004
59263W        W24490  23.929  14.704  14.329
59264W        W24491  33.025  10.433   2.236
59265W        W24492  18.720   6.308   3.691
59266W        W24493  38.601  19.516   4.962
59267W        W24494  19.957  18.731   1.323
59268W        W24495  35.257  19.543  10.465
59269W        W24496   0.489  28.547  13.531
59270W        W24497  20.270   2.706   4.622
59271W        W24498  44.770   8.845   0.222
59272W        W24499  17.507  22.386  11.997
59273W        W24500  38.263  13.275  10.563
59274W        W24501  37.442  18.670   3.160
59275W        W24502  36.046  32.079   4.635
59276W        W24503  35.892  25.322  11.155
59277W        W24504   4.450  22.159  14.404
59278W        W24505   6.745  21.843  14.276
59279W        W24506  34.392  32.159   2.295
59280W        W24507  40.905   3.388   4.680
59281W        W24508  21.321   9.833   3.656
59282W        W24509  43.526  34.050   4.282
59283W        W24510  21.753   5.447  12.052
59284W        W24511  41.082  11.833  13.822
59285W        W24512  20.831   3.257  13.151
59286W        W24513  44.805   0.025  12.944
59287W        W24514  15.473  36.382   4.305
59288W        W24515  13.152  39.509   4.708
59289W        W24516  23.004  35.701  13.859
59290W        W24517  29.022  11.729   3.565
59291W        W24518  14.207   5.453   3.651
59292W        W24519   2.902  26.567  10.311
59293W        W24520  30.198  30.640   3.636
59294W        W24521  36.262  19.225   2.394
59295W        W24522  20.624  31.592   0.477
59296W        W24523  17.281  37.427  10.746
59297W        W24524   5.422  25.496   1.436
59298W        W24525  21.718   7.696  14.858
59299W        W24526  21.525   8.770  14.777
59300W        W24527  19.153  41.015   4.428
59301W        W24528  41.417  42.699   0.358
59302W        W24529   4.971   2.400   4.236
59303W        W24530   6.285  25.438  14.048
59304W        W24531  22.246  33.057   3.697
59305W        W24532  14.163   7.737  11.836
59306W        W24533   7.388  26.483  10.532
59307W        W24534   8.353  34.223   0.311
59308W        W24535  31.065   8.781   0.315
59309W        W24536   2.689  29.648  11.601
59310W        W24537  16.138  40.470   2.415
59311W        W24538  42.031  26.333  13.437
59312W        W24539  41.420   4.931   2.297
59313W        W24540  26.768  33.310   9.942
59314W        W24541  11.253  35.573  14.953
59315W        W24542  14.283  39.332  12.020
59316W        W24543  42.076  42.506  12.314
59317W        W24544  30.653  25.184   4.962
59318W        W24545  37.971  37.587  10.998
59319W        W24546  13.260   6.408  10.859
59320W        W24547  44.121  18.030   2.254
59321W        W24548  11.869   9.340   0.345
59322W        W24549  29.225  20.393  12.126
59323W        W24550  39.493  12.422  14.545
59324W        W24551  16.275  32.605  10.701
59325W        W24552  25.355  34.494  10.332
59326W        W24553  33.550  35.073  11.108
59327W        W24554   7.291  28.117   3.287
59328W        W24555   4.390  43.702  12.498
59329W        W24556  12.673  44.654   0.635
59330W        W24557  28.394  22.440  12.505
59331W        W24558  29.522  27.064   3.415
59332W        W24559  38.574  19.228   3.951
59333W        W24560   8.642  22.559   4.009
59334W        W24561   7.575  25.403   4.205
59335W        W24562   5.279  38.781   4.950
59336W        W24563   9.784   5.842   4.105
59337W        W24564   0.754  11.811   3.660
59338W        W24565  18.698  40.896   2.425
59339W        W24566  31.198   3.232  12.352
59340W        W24567   2.707  28.995  12.383
59341W        W24568   2.517  20.101  13.003
59342W        W24569  15.692  10.573  13.831
59343W        W24570  24.985  34.797   0.447
59344W        W24571  28.760  42.164   1.187
59345W        W24572  39.804  40.246  11.142
59346W        W24573  14.405  34.215   4.002
59347W        W24574  19.175  13.643   1.044
59348W        W24575  15.260  34.472   1.987
59349W        W24576   3.365  29.426   3.271
59350W        W24577  21.579  17.176  11.506
59351W        W24578  41.271  41.709  11.950
59352W        W24579  33.114  11.020   3.532
59353W        W24580  13.521  27.361  13.436
59354W        W24581   3.293   1.661   1.662
59355W        W24582  28.897  19.601  12.822
59356W        W24583  32.929  16.588  14.844
59357W        W24584  25.611  33.359   4.566
59358W        W24585  41.224  34.513  10.780
59359W        W24586  16.486   1.154   2.397
59360W        W24587  16.293  15.085  13.911
59361W        W24588  19.767   4.675   2.212
59362W        W24589  12.703  40.811   0.520
59363W        W24590  40.075  14.523   3.753
59364W        W24591  14.078  12.960   5.017
59365W        W24592  15.194  27.272   3.541
59366W        W24593  31.609  39.103  12.173
59367W        W24594  25.273  11.203   1.938
59368W        W24595  37.006  14.977   3.983
59369W        W24596  23.459  35.557   0.140
59370W        W24597  16.306  10.248   0.355
59371W        W24598  43.991  40.593   3.374
59372W        W24599  27.837   6.828   1.149
59373W        W24600  37.868  21.293   4.465
59374W        W24601  24.708  40.743  11.600
59375W        W24602   4.324   6.037  10.403
59376W        W24603  14.001  18.326  14.785
59377W        W24604   3.935   6.468   0.890
59378W        W24605  39.401  19.734  11.989
59379W        W24606   7.092   8.286   4.133
59380W        W24607  21.169   0.707   9.828
59381W        W24608  25.124  38.996   1.960
59382W        W24609   4.931  16.142  11.765
59383W        W24610  26.746   0.049   0.386
59384W        W24611  36.555  23.809  11.526
59385W        W24612  32.016  13.218  13.800
59386W        W24613  27.532  38.773  11.019
59387W        W24614  43.326  37.316   0.529
59388W        W24615   2.697  32.905   3.291
59389W        W24616  35.162  17.735   4.084
59390W        W24617  29.494   5.765  14.323
59391W        W24618  16.267  42.518  14.780
59392W        W24619  21.987  11.079  12.117
59393W        W24620  18.135  27.685  11.162
59394W        W24621  36.677   6.631  11.149
59395W        W24622  25.039  41.563   3.750
59396W        W24623   5.999  36.344   4.143
59397W        W24624   3.470   6.850   3.371
59398W        W24625  38.897  23.300  13.030
59399W        W24626  13.336   9.318  11.125
59400W        W24627  36.321   5.922  13.802
59401W        W24628  13.646  19.180   0.223
59402W        W24629  11.855  36.788  11.199
59403W        W24630  17.697  25.813  12.684
59404W        W24631  21.207  41.065  11.547
59405W        W24632  18.180   9.113  13.806
59406W        W24633  34.198  22.703   4.207
59407W        W24634  18.786  37.282   0.265
59408W        W24635  31.353  21.345  11.673
59409W        W24636  25.874  36.805   3.059
59410W        W24637  39.028  27.452  10.731
59411W        W24638   9.547  19.787  14.533
59412W        W24639  24.416  14.280  11.936
59413W        W24640  29.937  32.821  13.757
59414W        W24641  23.855  23.589   4.481
59415W        W24642   2.472  22.527  10.139
59416W        W24643  16.675   4.705   2.552
59417W        W24644   5.606  23.552  11.672
59418W        W24645  34.923  43.926   4.142
59419W        W24646  11.087  18.761   0.786
59420W        W24647  40.471   7.823  14.415
59421W        W24648   9.397   2.752   1.936
59422W        W24649  11.157  10.026  13.318
59423W        W24650  12.803  14.315  10.447
59424W        W24651  40.090  11.132  13.379
59425W        W24652  43.656  38.847  12.938
59426W        W24653  43.928  14.718  11.505
59427W        W24654  13.704  20.983   2.743
59428W        W24655  17.222  34.437  11.263
59429W        W24656   5.860  32.938   2.681
59430W        W24657  14.126  34.967  13.856
59431W        W24658  38.486   9.812   1.152
59432W        W24659  26.375  16.857  14.874
59433W        W24660  26.613   5.937  14.788
59434W        W24661   8.611  28.668  11.185
59435W        W24662  22.238  37.631   1.457
59436W        W24663  34.928  31.497  13.980
59437W        W24664  35.361  34.918  14.025
59438W        W24665  17.186  37.793  13.776
59439W        W24666  22.055   3.200   2.335
59440W        W24667  22.335  26.603  10.807
59441W        W24668  30.605   9.226  11.944
59442W        W24669   7.408  19.827   4.513
59443W        W24670   5.175  18.998   1.239
59444W        W24671  35.049   6.682  12.880
59445W        W24672  29.575  13.257   1.288
59446W        W24673  38.591  42.132  12.913
59447W        W24674   2.854  41.519  10.548
59448W        W24675  34.166  35.580   3.130
59449W        W24676  42.375  41.087   2.504
59450W        W24677  14.202  13.652   3.792
59451W        W24678  23.798   6.142   3.625
59452W        W24679  41.036  22.264   2.774
59453W        W24680  29.834  34.734   2.712
59454W        W24681  36.220  30.974  13.927
59455W        W24682  33.483  35.876   3.655
59456W        W24683  32.217  43.737   2.114
59457W        W24684  38.886   9.203  13.404
59458W        W24685  18.806  13.002  14.433
59459W        W24686   8.739  28.953  10.515
59460W        W24687  20.326  41.651   3.716
59461W        W24688  10.076  25.152   5.278
59462W        W24689   5.298  13.780  10.750
59463W        W24690  15.715  10.836   4.641
59464W        W24691  23.378  28.436   4.547
59465W        W24692  44.331  37.547  14.303
59466W        W24693  36.010  23.613   4.653
59467W        W24694   4.894  11.317  13.695
59468W        W24695   9.958  31.862   3.194
59469W        W24696  25.084  37.428  14.756
59470W        W24697   7.200  32.948  11.713
59471W        W24698  17.238  17.173  13.722
59472W        W24699  27.937   0.211   1.786
59473W        W24700  18.348  11.888   3.402
59474W        W24701   5.454  18.965  14.856
59475W        W24702   3.844  24.696   3.392
59476W        W24703  40.799  42.882   2.919
59477W        W24704  22.250  26.216   0.346
59478W        W24705  10.349  40.277   0.371
59479W        W24706  19.182  23.954   0.541
59480W        W24707   3.566  26.409   4.571
59481W        W24708  34.837   0.006  11.217
59482W        W24709  39.521  10.174  11.116
59483W        W24710  18.860  28.662  11.117
59484W        W24711  14.798  28.232   0.336
59485W        W24712  32.721  22.773   0.545
59486W        W24713  11.683  35.358  12.493
59487W        W24714  25.123  21.463   2.379
59488W        W24715  16.983   5.112   4.684
59489W        W24716  33.564  35.646   1.478
59490W        W24717  39.829  23.586  11.174
59491W        W24718   3.782  23.557  11.607
59492W        W24719  14.479   5.173   1.491
59493W        W24720  29.390  21.505  12.107
59494W        W24721  34.326   1.357  13.427
59495W        W24722  32.685  14.349   1.945
59496W        W24723  32.377  34.178   0.823
59497W        W24724  19.262  20.573   1.370
59498W        W24725  19.081   9.647  12.925
59499W        W24726  44.411  30.843  11.056
59500W        W24727   4.636  38.563  11.034
59501W        W24728   8.913  11.140   4.500
59502W        W24729  24.686  36.691  13.013
59503W        W24730  17.668  32.531   3.408
59504W        W24731  40.859  40.551  14.879
59505W        W24732  15.245   0.082   2.213
59506W        W24733  10.447   8.694   0.054
59507W        W24734  19.751  32.657  13.337
59508W        W24735  31.133  17.190  12.914
59509W        W24736   0.975   2.935  12.422
59510W        W24737  28.938  12.864  14.915
59511W        W24738   2.915  22.113  14.377
59512W        W24739  22.626   8.678  11.666
59513W        W24740  33.747  35.859  11.121
59514W        W24741  17.310   7.206  14.956
59515W        W24742  24.198  28.850   4.381
59516W        W24743   4.330  11.798   2.050
59517W        W24744  26.583  36.056   2.848
59518W        W24745  18.836  10.203  12.099
59519W        W24746   7.123  24.385  11.674
59520W        W24747  11.312  23.988  14.869
59521W        W24748  39.062  19.643   1.390
59522W        W24749  36.111  44.246   3.830
59523W        W24750   5.923  21.736   4.258
59524W        W24751  38.507  42.249   1.092
59525W        W24752  32.231  18.755   5.213
59526W        W24753  28.538  18.177   4.127
59527W        W24754  38.326  22.500  14.465
59528W        W24755  42.786  33.621  14.406
59529W        W24756  36.330   5.195   0.395
59530W        W24757  34.298  35.925  12.952
59531W        W24758  36.841  27.646   4.124
59532W        W24759  10.085  19.498   4.201
59533W        W24760  14.093  10.962   2.423
59534W        W24761   3.492  24.937  11.543
59535W        W24762  30.199  19.101   0.465
59536W        W24763  31.333  20.741   3.450
59537W        W24764  33.630   5.812  11.422
59538W        W24765   4.350  12.604  13.997
59539W        W24766  15.243  35.547   2.277
59540W        W24767  30.116  34.765  13.035
59541W        W24768  22.657  20.048   4.572
59542W        W24769  19.337  38.522  10.642
59543W        W24770  29.579  34.033   0.145
59544W        W24771  28.006   1.163   1.734
59545W        W24772  11.995   3.362  11.989
59546W        W24773  20.066  38.761   0.507
59547W        W24774   5.390  10.736   0.037
59548W        W24775  35.594   4.752   3.397
59549W        W24776  11.652  23.409   3.392
59550W        W24777  22.443  13.170   3.299
59551W        W24778  29.719  35.829   0.816
59552W        W24779  41.060  16.755  10.753
59553W        W24780  17.270   3.428  14.015
59554W        W24781  43.283  26.461  14.436
59555W        W24782  39.252   3.718  12.502
59556W        W24783   2.946  29.511  11.183
59557W        W24784  37.624  14.557   2.762
59558W        W24785   7.367  33.177   2.731
59559W        W24786   5.412  30.545   1.683
59560W        W24787  21.643   4.689  14.286
59561W        W24788  15.050   0.428   4.016
59562W        W24789  15.354  33.438   1.423
59563W        W24790   0.020   1.184  14.836
59564W        W24791  12.163  24.665   3.692
59565W        W24792  24.678   2.701  13.520
59566W        W24793   7.663  27.460   0.854
59567W        W24794   7.838  19.746  11.498
59568W        W24795   7.784  33.421   3.735
59569W        W24796  20.168   3.406  11.544
59570W        W24797   8.418  40.575  13.438
59571W        W24798  17.283  33.307  14.026
59572W        W24799   6.778  11.777  12.814
59573W        W24800  24.837  38.349   4.082
59574W        W24801   2.814   0.950   1.264
59575W        W24802  18.084  36.462   2.666
59576W        W24803  27.560  29.669   0.830
59577W        W24804  40.879  41.645   4.855
59578W        W24805  26.246   4.367  13.967
59579W        W24806  14.729  22.958  10.759
59580W        W24807   7.952  22.390   1.906
59581W        W24808  27.681  44.788  11.541
59582W        W24809  26.540  43.850  13.352
59583W        W24810  43.929  30.870  10.782
59584W        W24811  28.601   9.852   2.235
59585W        W24812  35.621  31.390   3.709
59586W        W24813  15.830  22.274  10.684
59587W        W24814   2.744  35.891  12.135
59588W        W24815  42.474  32.103   4.069
59589W        W24816  17.889   8.152  11.711
59590W        W24817  22.248  16.658   3.585
59591W        W24818  22.510  16.916   9.793
59592W        W24819   4.977  15.827   0.745
59593W        W24820   9.433   7.164   2.893
59594W        W24821  26.970   1.117   3.423
59595W        W24822   9.173  28.543   0.197
59596W        W24823  18.173  35.306   4.197
59597W        W24824   6.302  35.207   0.458
59598W        W24825  16.676   6.322  13.897
59599W        W24826  20.092  31.053   1.872
59600W        W24827  43.329   3.737  13.196
59601W        W24828  19.079  40.827   1.829
59602W        W24829  34.044  30.173   2.830
59603W        W24830  11.576   1.692  14.993
59604W        W24831   5.995  15.246   9.886
59605W        W24832  20.458  39.325  12.023
59606W        W24833  17.279  14.171  10.645
59607W        W24834  31.143   8.412   2.382
59608W        W24835  31.307  36.908  14.790
59609W        W24836   2.353  33.009   0.511
59610W        W24837  34.079  23.295  12.060
59611W        W24838  23.199   7.344   1.399
59612W        W24839  43.446   3.265   3.898
59613W        W24840   2.978  11.131  12.350
59614W        W24841  15.300  20.572  12.985
59615W        W24842  43.337   9.542  12.582
59616W        W24843  23.809  21.161   3.861
59617W        W24844   7.366  25.735  14.742
59618W        W24845   7.738  15.520   1.685
59619W        W24846  27.264  41.446  12.742
59620W        W24847  25.591  15.043  11.180
59621W        W24848  32.628  37.071  14.270
59622W        W24849  14.447  23.058   0.815
59623W        W24850  28.609   5.816   2.976
59624W        W24851  25.175   0.121  12.196
59625W        W24852  29.755  33.208   4.150
59626W        W24853  17.195  13.159  11.612
59627W        W24854  39.229  30.179  11.118
59628W        W24855  18.696  25.065   2.904
59629W        W24856  25.448   5.215   4.045
59630W        W24857   5.194   1.849  14.905
59631W        W24858  19.198   6.591   0.533
59632W        W24859  33.503  36.632  13.979
59633W        W24860  26.905  22.474  10.743
59634W        W24861  17.665  17.057  14.410
59635W        W24862  30.288   7.579   2.604
59636W        W24863   1.464  25.319   0.753
59637W        W24864  44.744  33.066   2.745
59638W        W24865  36.010   8.004   4.619
59639W        W24866  44.663  33.600   1.685
59640W        W24867  24.245  27.600  13.981
59641W        W24868  12.811  20.294  11.549
59642W        W24869  19.590   6.191  14.918
59643W        W24870  21.139   3.882  12.081
59644W        W24871  33.512   9.624  13.790
59645W        W24872  28.718  35.416   4.130
59646W        W24873  27.938  37.401  11.093
59647W        W24874  40.213  25.560   4.066
59648W        W24875   4.666   9.230  11.706
59649W        W24876   9.848  11.100   4.543
59650W        W24877  11.004  26.322  13.017
59651W        W24878  34.523  32.814  11.545
59652W        W24879  38.941  12.818  13.917
59653W        W24880   7.264  33.991  13.272
59654W        W24881   6.232  35.473  12.621
59655W        W24882  28.685  12.962  11.958
59656W        W24883  16.693  20.895  11.354
59657W        W24884  16.124   3.924  10.506
59658W        W24885  41.748  26.635  14.417
59659W        W24886   4.984  14.210  14.327
59660W        W24887  36.639  35.837  11.175
59661W        W24888  43.696  37.775  11.631
59662W        W24889  38.666  15.419  11.132
59663W        W24890  12.334  11.363  14.637
59664W        W24891  44.679  23.766  11.649
59665W        W24892   3.825  24.652  14.545
59666W        W24893  18.234  26.886   0.777
59667W        W24894  39.623   3.268   2.515
59668W        W24895  42.973  32.316   0.024
59669W        W24896  12.225  11.604   2.602
59670W        W24897  34.894   6.303  14.894
59671W        W24898   9.421  21.506  12.465
59672W        W24899  17.114  13.591   2.223
59673W        W24900  31.561  15.196  14.396
59674W        W24901  30.701  30.870  13.947
59675W        W24902  23.069  22.121   0.433
59676W        W24903  32.290  43.385  14.875
59677W        W24904  36.610  21.932   1.192
59678W        W24905  33.915  21.627  12.447
59679W        W24906   0.259  17.159   4.174
59680W        W24907  30.362   3.267   2.218
59681W        W24908  15.149  10.911  12.954
59682W        W24909  38.042  40.861   1.396
59683W        W24910  36.981   8.890   4.191
59684W        W24911  38.125  20.716  13.259
59685W        W24912  37.535  32.590  11.479
59686W        W24913  19.802   2.806   3.772
59687W        W24914   7.130   6.898   3.312
59688W        W24915   5.093   9.601   2.679
59689W        W24916  22.631  40.036  13.445
59690W        W24917  43.532  11.412  10.656
59691W        W24918   6.118  12.819   0.252
59692W        W24919  43.791  17.720  11.236
59693W        W24920  10.661   3.484  10.726
59694W        W24921   9.813  21.836   4.580
59695W        W24922  40.106  35.668   4.411
59696W        W24923   7.766  40.697   5.106
59697W        W24924  23.982  14.192   4.008
59698W        W24925  13.247  11.810  11.510
59699W        W24926  29.876  14.698  10.145
59700W        W24927   6.773  34.538   1.751
59701W        W24928  24.175   5.165   3.614
59702W        W24929  26.520   4.969   4.485
59703W        W24930   0.830  36.304   1.386
59704W        W24931  39.371  10.934  14.266
59705W        W24932   9.415  24.159  14.842
59706W        W24933   6.720  35.656   0.494
59707W        W24934  18.019   8.255  10.842
59708W        W24935  33.978  12.596  11.188
59709W        W24936  14.222  17.785  13.045
59710W        W24937  28.069  12.535  11.969
59711W        W24938   7.553  26.989   3.267
59712W        W24939  17.689   4.818   2.786
59713W        W24940   0.974  22.800   2.323
59714W        W24941   9.058  35.492  10.326
59715W        W24942   6.070   9.446   4.767
59716W        W24943   1.354  34.497  12.938
59717W        W24944   1.283  24.084   4.121
59718W        W24945  20.066  41.531   2.123
59719W        W24946  10.125  26.549   4.718
59720W        W24947   9.163  18.609  14.811
59721W        W24948  14.100  16.815  10.764
59722W        W24949  24.119  19.584  11.077
59723W        W24950  14.594  14.405  14.983
59724W        W24951  38.458  44.979   4.643
59725W        W24952  33.913  28.293  10.205
59726W        W24953   4.227  18.379  11.115
59727W        W24954  44.588  20.968   2.257
59728W        W24955  31.007  19.661  12.509
59729W        W24956  32.589  42.128  12.901
59730W        W24957   4.649  13.338  12.621
59731W        W24958  40.288  23.717   1.351
59732W        W24959  31.634  34.907   2.870
59733W        W24960  26.422  10.476  13.467
59734W        W24961  19.866  12.218  13.634
59735W        W24962  20.979   8.736  14.960
59736W        W24963   7.422   6.065  13.014
59737W        W24964   0.357  29.142  14.743
59738W        W24965   9.556  36.565   3.253
59739W        W24966   5.484  15.780   4.979
59740W        W24967   1.367  32.595  12.563
59741W        W24968  42.215  29.656   5.062
59742W        W24969  14.143  24.329   1.827
59743W        W24970   2.813  26.497  14.316
59744W        W24971  20.721  12.158   4.616
59745W        W24972  30.980  12.810  14.098
59746W        W24973  10.884  42.329   1.605
59747W        W24974  39.015  40.308  13.025
59748W        W24975  26.711  25.489   0.382
59749W        W24976   5.917   8.650   3.815
59750W        W24977  19.674  11.283   2.418
59751W        W24978  19.206  18.258  11.866
59752W        W24979  12.290  16.084  11.517
59753W        W24980  30.485   3.319   4.025
59754W        W24981   5.742  44.288  14.254
59755W        W24982  12.331  15.320   3.795
59756W        W24983  31.282   6.214  10.750
59757W        W24984  41.736  41.098   0.297
59758W        W24985  25.964   7.362   4.057
59759W        W24986  15.881  36.452   3.072
59760W        W24987  31.139  31.196  10.601
59761W        W24988   5.324  25.638  12.157
59762W        W24989  37.353  23.795  12.424
59763W        W24990  27.099  17.594  14.964
59764W        W24991  42.492  14.672   2.269
59765W        W24992   5.635  15.073   3.877
59766W        W24993  32.868  43.028  14.541
59767W        W24994  19.226  43.645  11.557
59768W        W24995  31.548  22.711  14.971
59769W        W24996  17.009  22.444   2.244
59770W        W24997  14.140  43.370  11.188
59771W        W24998  44.361  23.441   4.046
59772W        W24999  21.263  39.385  13.181
59773W        W25000   8.647   4.297   1.736
59774W        W25001   5.175  16.864  10.829
59775W        W25002  20.720  34.311  10.640
59776W        W25003  12.246  15.483   2.314
59777W        W25004  15.571   5.725   1.024
59778W        W25005  21.646  22.419  13.620
59779W        W25006  31.249  20.246  12.726
59780W        W25007  13.313   5.404  14.708
59781W        W25008   8.433  41.527   2.796
59782W        W25009  21.190  43.151  12.215
59783W        W25010  11.250  12.780   3.103
59784W        W25011   4.508  36.038   1.784
59785W        W25012  34.546  16.602   3.024
59786W        W25013  11.230  39.740  11.032
59787W        W25014  30.961   2.785  12.177
59788W        W25015  20.525  43.098   1.274
59789W        W25016  25.322  15.735  13.789
59790W        W25017  36.903  28.096  11.676
59791W        W25018  20.530   6.482  11.120
59792W        W25019  29.848  16.027   0.002
59793W        W25020  38.704  44.672   1.179
59794W        W25021  14.033  35.422  13.573
59795W        W25022  42.403   4.463   4.622
59796W        W25023  33.132  44.431   0.299
59797W        W25024  34.823  32.560  10.760
59798W        W25025   6.532   4.141   3.334
59799W        W25026   6.924  41.814  11.074
59800W        W25027  40.339   5.901   0.446
59801W        W25028  22.114  20.597   4.491
59802W        W25029  33.640  18.957   4.553
59803W        W25030  22.493   7.833   1.895
59804W        W25031   6.818   9.370  13.537
59805W        W25032  33.253  29.977   1.444
59806W        W25033  16.629  11.880  14.497
59807W        W25034  28.955  23.233  12.911
59808W        W25035  21.511   6.476   3.685
59809W        W25036  34.432  20.269   4.755
59810W        W25037  38.463   5.265  14.146
59811W        W25038   4.821  17.036  14.175
59812W        W25039   3.875  33.858   1.639
59813W        W25040  15.042  25.548  13.358
59814W        W25041  33.966  13.356   1.802
59815W        W25042  27.457  27.436  11.230
59816W        W25043  19.662  25.927  14.994
59817W        W25044  40.341  10.326   0.392
59818W        W25045  26.893  25.489   2.588
59819W        W25046  44.565  36.891  13.464
59820W        W25047   3.695  10.771  11.261
59821W        W25048  28.540  13.354   3.702
59822W        W25049   5.313  28.418   2.429
59823W        W25050  43.117   1.926   2.405
59824W        W25051  40.395  33.638   3.740
59825W        W25052  39.578  20.082   4.086
59826W        W25053  36.152  15.613   1.399
59827W        W25054  28.948  12.905  11.527
59828W        W25055  38.656   3.966   0.368
59829W        W25056  26.591   7.872  13.902
59830W        W25057  44.693  26.715   1.668
59831W        W25058  37.845  22.889  13.947
59832W        W25059  34.559  18.549   4.260
59833W        W25060  37.935  16.537   0.341
59834W        W25061  24.553  44.827  12.949
59835W        W25062  33.022   4.275  14.952
59836W        W25063  43.868  36.470   1.584
59837W        W25064   0.041  43.348  14.922
59838W        W25065  38.848  36.218  13.871
59839W        W25066  27.422  17.021  14.077
59840W        W25067   2.745  30.149   5.041
59841W        W25068   7.567   2.793  10.378
59842W        W25069   7.234  14.351  11.657
59843W        W25070  14.028  39.265   4.552
59844W        W25071  29.879   8.013  14.040
59845W        W25072  39.814   2.400   2.111
59846W        W25073  11.820  41.382  11.774
59847W        W25074  42.978  38.998   3.096
59848W        W25075  16.937  19.760   4.409
59849W        W25076  20.525  35.429   0.855
59850W        W25077   4.886  34.149  14.241
59851W        W25078  17.789  14.643   1.892
59852W        W25079  17.975  25.371   2.246
59853W        W25080   1.565  14.184  12.463
59854W        W25081   9.804  32.438  12.518
59855W        W25082  42.840  39.157  14.961
59856W        W25083  22.720   8.174   3.330
59857W        W25084   2.236  23.373  12.748
59858W        W25085  23.101  16.361   2.413
59859W        W25086  15.692  41.292   3.672
59860W        W25087  34.325  38.043   4.453
59861W        W25088  26.929   9.261  11.271
59862W        W25089  15.082  37.867   4.120
59863W        W25090  41.673  42.538  13.059
59864W        W25091  13.729  20.720   4.409
59865W        W25092  13.475  37.677   3.599
59866W        W25093   5.370   5.990  12.108
59867W        W25094  41.784  39.951  11.713
59868W        W25095   3.277  17.253   0.954
59869W        W25096  41.134  21.968  12.244
59870W        W25097  37.807  44.941   4.291
59871W        W25098   4.338  36.029  11.989
59872W        W25099  24.669  35.640  14.814
59873W        W25100   4.338   9.066  11.129
59874W        W25101  41.049   4.945   2.825
59875W        W25102  18.703  28.658  14.852
59876W        W25103  21.117  29.047   2.673
59877W        W25104  33.454  12.428   2.771
59878W        W25105  13.087  10.818   0.734
59879W        W25106  42.824  10.399  14.372
59880W        W25107  16.498  26.928  14.246
59881W        W25108  36.311   4.816   0.822
59882W        W25109  41.029  25.130   3.592
59883W        W25110   6.681  32.580   1.303
59884W        W25111   2.859  11.206   2.895
59885W        W25112  31.208  36.577   2.183
59886W        W25113  16.154   2.880   0.736
59887W        W25114   1.900   7.711  10.403
59888W        W25115  20.326   5.952  14.452
59889W        W25116  37.292  15.730  14.679
59890W        W25117   4.362   3.034   5.024
59891W        W25118   2.746   7.739  11.193
59892W        W25119  40.022   9.413  11.636
59893W        W25120  44.438  18.692  11.720
59894W        W25121  31.468   9.612  14.380
59895W        W25122  30.841  35.031   0.863
59896W        W25123  31.855  29.442  11.777
59897W        W25124   6.355  36.670   2.052
59898W        W25125  26.632   4.680  13.782
59899W        W25126   7.266  32.075   0.565
59900W        W25127  23.443  20.748   0.258
59901W        W25128  26.937   0.948  12.200
59902W        W25129  30.895   1.963  11.602
59903W        W25130  42.743  15.049   1.458
59904W        W25131  11.215   2.155   0.438
59905W        W25132   2.408  41.758  14.405
59906W        W25133   7.003  36.504  11.667
59907W        W25134  34.912  20.170  11.176
59908W        W25135  30.308  37.062   2.663
59909W        W25136   4.024   8.032   3.349
59910W        W25137  27.699  33.120  14.296
59911W        W25138  38.763  29.760  13.374
59912W        W25139  29.504   1.060  11.108
59913W        W25140  39.806  44.955  14.516
59914W        W25141  15.785  40.945   1.780
59915W        W25142  33.432  29.497   1.642
59916W        W25143  28.971   2.666  10.674
59917W        W25144  30.898  21.199   2.081
59918W        W25145  44.696  21.660  12.117
59919W        W25146  28.116  13.813   2.588
59920W        W25147   6.542  11.094   3.428
59921W        W25148  19.588  39.662   3.232
59922W        W25149  33.384  21.668  14.933
59923W        W25150   7.661  19.612   2.448
59924W        W25151  20.621   1.535   1.712
59925W        W25152  14.784  33.336   5.009
59926W        W25153  12.539   1.257  13.430
59927W        W25154  34.245  24.921  11.762
59928W        W25155  42.314   6.264   4.991
59929W        W25156  24.863  44.786  11.074
59930W        W25157   6.393  25.070  11.503
59931W        W25158   7.298  26.618   0.931
59932W        W25159  34.575   6.845  10.701
59933W        W25160  29.901   0.240   4.244
59934W        W25161  19.526   9.212  10.718
59935W        W25162  43.620   4.393   1.258
59936W        W25163  40.065  38.920   4.142
59937W        W25164  38.940  31.981   2.600
59938W        W25165  15.188  31.068   1.438
59939W        W25166  44.334  39.012  12.039
59940W        W25167  35.739  31.080   0.766
59941W        W25168  10.300  23.306  12.572
59942W        W25169  13.597  34.525   2.141
59943W        W25170   0.433   2.740  14.921
59944W        W25171   8.145  18.562   3.240
59945W        W25172  25.193  20.112  13.703
59946W        W25173  24.182  41.636  12.281
59947W        W25174   1.020  21.241  11.112
59948W        W25175  27.404  26.769   1.888
59949W        W25176  39.586  21.047   2.838
59950W        W25177  31.908  39.264   1.164
59951W        W25178  42.972   1.687   0.280
59952W        W25179  15.557   9.308  11.652
59953W        W25180  17.086  28.933   0.727
59954W        W25181   4.445  21.228   3.152
59955W        W25182  40.622  33.577  11.516
59956W        W25183  21.311  38.355  13.335
59957W        W25184   3.942  37.527  11.186
59958W        W25185   6.594  44.040   0.197
59959W        W25186  21.151  11.377   4.691
59960W        W25187   4.336  21.033   3.605
59961W        W25188   3.229   3.868   0.332
59962W        W25189  31.809  20.894   3.644
59963W        W25190  32.103  29.554   3.543
59964W        W25191  43.117   4.457  12.740
59965W        W25192   7.572  22.123   0.421
59966W        W25193  23.600  15.745   4.401
59967W        W25194  13.053  19.294  11.963
59968W        W25195  32.121  20.137   0.886
59969W        W25196   3.788   0.321  11.624
59970W        W25197  43.399  24.705  14.855
59971W        W25198  23.254  28.595   0.867
59972W        W25199  37.599  25.138  11.159
59973W        W25200  12.567  25.179  14.535
59974W        W25201  32.674  21.116  12.483
59975W        W25202   2.350  13.847  14.474
59976W        W25203   9.724  12.387   3.665
59977W        W25204   1.993  36.071  12.840
59978W        W25205  37.617  20.243  11.620
59979W        W25206  38.928  41.206  11.260
59980W        W25207  43.255  38.581   3.691
59981W        W25208  13.112  18.269  14.073
59982W        W25209  38.457  27.320   2.598
59983W        W25210  36.481  22.631  14.082
59984W        W25211  44.146  28.548  11.525
59985W        W25212  19.644  13.872   0.942
59986W        W25213  11.136  18.969   3.109
59987W        W25214  24.848  25.032   4.008
59988W        W25215  10.422  39.576  12.125
59989W        W25216  31.580   6.271  12.104
59990W        W25217  38.535   9.656   1.618
59991W        W25218  12.119  26.272  13.737
59992W        W25219   0.353  32.041   4.522
59993W        W25220  44.482  26.639   2.839
59994W        W25221  18.098  36.599  13.423
59995W        W25222  42.773   7.943   0.841
59996W        W25223  19.680  40.057   1.342
59997W        W25224  13.396  39.614   4.057
59998W        W25225  22.702  32.825   3.593
59999W        W25226  29.448  38.293   0.724
60000W        W25227  44.838  23.268  14.264
60001W        W25228  14.042  25.931  11.554
60002W        W25229  21.869  43.637  13.095
60003W        W25230  20.954   3.692  11.081
60004W        W25231  39.492  10.178   4.235
60005W        W25232  24.030  19.643  13.833
60006W        W25233  33.798  40.988  12.457
60007W        W25234  23.737  12.804  12.940
60008W        W25235   2.872  43.875   1.769
60009W        W25236  33.399  40.291  11.287
60010W        W25237  15.763  25.486   4.675
60011W        W25238  18.284  34.030  13.772
60012W        W25239  35.701  38.530  11.210
60013W        W25240  30.453  17.975   4.654
60014W        W25241   7.215  31.972  10.345
60015W        W25242  34.312  23.031  13.478
60016W        W25243  10.676  30.708  12.816
60017W        W25244  20.354  18.378   1.312
60018W        W25245   8.881   4.504   1.290
60019W        W25246  13.052   4.363   0.451
60020W        W25247  29.495  31.528  13.974
60021W        W25248  36.846  10.091   0.282
60022W        W25249  13.794  19.873  11.607
60023W        W25250   4.604  39.005  12.380
60024W        W25251  19.107  28.870   1.705
60025W        W25252   4.924  33.154  13.962
60026W        W25253  21.631  27.978  13.351
60027W        W25254  13.338  44.252   4.252
60028W        W25255  36.084  12.678   2.007
60029W        W25256  38.799  27.889  11.732
60030W        W25257  36.577   5.511  14.006
60031W        W25258  42.893  35.864  10.422
60032W        W25259  41.754  21.252  14.882
60033W        W25260  20.762  18.369   3.218
60034W        W25261   7.287  23.525  11.397
60035W        W25262  39.001  22.436   0.671
60036W        W25263  39.082   1.987  12.886
60037W        W25264  14.124   4.502  13.000
60038W        W25265  14.788  23.353  10.356
60039W        W25266  40.570  15.438   0.594
60040W        W25267  36.590   8.389  11.566
60041W        W25268  41.893  17.688  10.937
60042W        W25269  44.809  11.303   0.406
60043W        W25270  37.995   8.403  11.658
60044W        W25271  17.322  40.896   1.429
60045W        W25272  31.846   7.695  13.413
60046W        W25273  33.588  27.651   2.273
60047W        W25274  16.840  24.670  11.159
60048W        W25275  37.054  11.425  13.596
60049W        W25276  44.466  27.989  12.569
60050W        W25277   9.837   0.283   0.114
60051W        W25278  14.088  24.946  14.850
60052W        W25279  26.936  23.607   2.939
60053W        W25280  43.493  35.773   0.667
60054W        W25281  23.749   4.795   3.661
60055W        W25282  34.447  30.601  14.454
60056W        W25283  11.372  39.874  14.270
60057W        W25284   2.503   1.350  13.490
60058W        W25285  19.090  31.066  13.593
60059W        W25286  42.604   3.682  11.093
60060W        W25287  27.261  28.846   3.785
60061W        W25288  11.628  26.449   3.293
60062W        W25289   8.400   9.358   2.231
60063W        W25290   6.494  44.310   1.936
60064W        W25291  13.040  23.004  12.545
60065W        W25292   3.266  41.894  11.969
60066W        W25293  26.298  14.304  13.252
60067W        W25294  25.659   1.508   3.530
60068W        W25295  39.676  31.317   0.409
60069W        W25296   8.689  24.654   1.376
60070W        W25297   7.429  12.234   0.201
60071W        W25298  36.860  13.587   1.268
60072W        W25299  26.937  25.917  11.102
60073W        W25300  22.285  43.495  14.917
60074W        W25301  37.831  29.900  11.100
60075W        W25302  25.148  31.418   1.397
60076W        W25303  37.520   6.205   3.091
60077W        W25304  43.417   2.896   2.637
60078W        W25305  28.167  24.146  11.616
60079W        W25306   4.852  43.275  11.974
60080W        W25307  31.011  31.998   1.649
60081W        W25308  14.328  27.958  10.309
60082W        W25309   2.908   8.504  13.066
60083W        W25310  43.046  19.378  14.997
60084W        W25311  20.496   1.974   4.100
60085W        W25312  15.319  13.859   1.897
60086W        W25313   1.056  22.672   5.149
60087W        W25314  23.501  35.589   3.443
60088W        W25315  36.232   0.706  14.404
60089W        W25316  28.713   9.814   2.839
60090W        W25317  38.477   6.049  12.922
60091W        W25318  38.664  20.349  10.635
60092W        W25319   7.270   3.613   0.468
60093W        W25320  22.691  36.909  14.783
60094W        W25321  13.578  11.794  12.105
60095W        W25322  36.560   4.482  12.380
60096W        W25323  20.624  40.706  10.571
60097W        W25324   2.359  32.645   3.596
60098W        W25325  15.163  18.555  11.649
60099W        W25326  20.644  29.561   2.198
60100W        W25327  33.602  28.990  10.633
60101W        W25328  31.903  34.953  11.387
60102W        W25329  43.294  26.429  11.166
60103W        W25330  21.983  33.057  10.581
60104W        W25331  41.052  14.819  14.344
60105W        W25332  23.745   0.815   3.159
60106W        W25333  42.937  33.219   2.637
60107W        W25334   5.903  27.152  12.512
60108W        W25335  36.913  15.366   1.823
60109W        W25336  10.652   5.304  12.014
60110W        W25337  22.145  30.111  11.581
60111W        W25338  26.562   7.867   4.574
60112W        W25339  25.955   3.352  14.835
60113W        W25340  43.554  26.489   4.716
60114W        W25341  22.537  23.116   4.775
60115W        W25342   2.648  33.124  12.988
60116W        W25343   5.703  40.389  10.977
60117W        W25344   8.887  11.122  12.530
60118W        W25345  21.122   1.728   2.353
60119W        W25346  34.084  13.129  11.547
60120W        W25347  10.257  11.718   5.073
60121W        W25348  10.475  41.370   4.450
60122W        W25349  16.544   5.076   2.881
60123W        W25350   7.747   7.652   0.443
60124W        W25351   9.175   4.244   2.224
60125W        W25352  25.149  39.652   3.691
60126W        W25353  24.503  44.452   4.103
60127W        W25354  21.718  19.115  11.051
60128W        W25355   9.197  36.113   1.337
60129W        W25356  32.468  17.270   4.604
60130W        W25357  38.009   7.878  12.149
60131W        W25358  34.823  27.519  11.982
60132W        W25359  13.540  14.682   0.966
60133W        W25360  26.371   5.265   4.096
60134W        W25361  22.538  17.227   2.826
60135W        W25362  17.646  35.965   4.204
60136W        W25363   9.283  36.998  12.511
60137W        W25364  29.526  11.477   1.997
60138W        W25365  19.731  37.320  12.393
60139W        W25366  41.271  29.862  13.524
60140W        W25367  40.857  34.154  13.444
60141W        W25368  16.269  38.489  14.426
60142W        W25369  32.096  21.745  10.025
60143W        W25370  17.850  30.996   0.403
60144W        W25371  12.853   2.698  13.883
60145W        W25372  30.034   2.949  11.685
60146W        W25373  44.472  38.480  12.139
60147W        W25374   3.739  13.573   4.682
60148W        W25375  10.460  19.840   4.202
60149W        W25376   7.387   6.086   4.709
60150W        W25377  34.682  42.824  14.946
60151W        W25378   2.453  13.588   2.905
60152W        W25379  34.446  28.061  13.821
60153W        W25380  32.436  38.370  12.547
60154W        W25381  31.793  10.021   2.196
60155W        W25382  17.236   0.220   1.663
60156W        W25383  30.979  19.217   3.361
60157W        W25384   5.494  21.204   0.861
60158W        W25385  41.405  23.296   3.549
60159W        W25386  32.464  29.185   0.947
60160W        W25387  13.833  30.850   3.186
60161W        W25388  36.514  33.151   4.229
60162W        W25389  22.117  33.351   2.812
60163W        W25390  37.866  40.729  12.085
60164W        W25391  37.657  35.951  12.422
60165W        W25392   2.123  26.327   1.429
60166W        W25393  44.412  18.083  14.861
60167W        W25394  23.275  39.614   4.164
60168W        W25395  37.891  11.439   3.382
60169W        W25396  28.042  25.327   1.972
60170W        W25397  29.099  18.727  12.373
60171W        W25398  35.820   3.789   3.172
60172W        W25399  35.214  12.797  13.715
60173W        W25400   5.673  25.918   1.167
60174W        W25401  38.046   9.955   1.449
60175W        W25402  19.654  31.461   4.501
60176W        W25403  11.627  40.300  13.635
60177W        W25404  19.060  11.812  13.877
60178W        W25405  42.980  24.497   4.488
60179W        W25406  30.618  22.629   4.147
60180W        W25407  29.732   5.745   4.188
60181W        W25408   7.090   2.105  13.703
60182W        W25409   6.215  18.746  11.601
60183W        W25410  19.061  29.200  14.406
60184W        W25411  22.571  18.100  13.252
60185W        W25412  35.406  16.822   0.386
60186W        W25413  41.890  43.091  13.842
60187W        W25414  26.203  31.243   1.879
60188W        W25415  11.687  21.061  11.652
60189W        W25416  20.157  23.435  13.424
60190W        W25417  28.923   4.606   3.238
60191W        W25418  34.393  42.041  11.673
60192W        W25419  44.575   0.964   0.756
60193W        W25420  42.511  34.665  11.208
60194W        W25421  14.900  11.273   2.427
60195W        W25422  38.437  41.516  12.097
60196W        W25423   5.744  26.763   0.480
60197W        W25424  18.271  33.082   0.417
60198W        W25425  17.906  36.046   3.738
60199W        W25426   6.572   2.216   0.208
60200W        W25427  18.376  44.304  14.922
60201W        W25428   9.595  32.003   4.560
60202W        W25429   8.954  11.618   4.669
60203W        W25430   1.031  22.237  11.992
60204W        W25431  30.977  38.095  12.000
60205W        W25432  15.377  20.634   1.658
60206W        W25433  22.563  29.203  12.595
60207W        W25434  18.735  34.509   4.736
60208W        W25435   3.192   4.430  11.175
60209W        W25436   3.802  32.760   4.055
60210W        W25437  14.179  16.036   4.825
60211W        W25438  42.120  42.490   3.828
60212W        W25439  43.274  44.958   3.648
60213W        W25440  21.719  28.791   1.416
60214W        W25441  21.492   2.788  13.599
60215W        W25442  18.800   3.159   1.450
60216W        W25443  13.797   4.402   4.122
60217W        W25444  15.782  15.704   3.135
60218W        W25445  34.131  24.060   3.727
60219W        W25446   5.104  26.554   3.148
60220W        W25447  34.214  34.877  10.591
60221W        W25448  44.971  28.075  13.843
60222W        W25449   6.201  35.045   4.633
60223W        W25450  32.054  16.730  13.038
60224W        W25451  15.663  10.399  14.858
60225W        W25452  26.012  10.248  12.545
60226W        W25453   5.870  37.061  14.017
60227W        W25454  35.891  12.206   0.861
60228W        W25455  33.907  17.484   1.148
60229W        W25456  25.229   8.194  11.289
60230W        W25457   3.265  41.907  13.903
60231W        W25458  23.438  26.911  11.915
60232W        W25459  20.787  27.722   3.466
60233W        W25460   7.479  40.533   3.798
60234W        W25461  11.811   6.578  12.374
60235W        W25462  15.963   8.407   0.310
60236W        W25463   5.945   2.622  13.098
60237W        W25464  33.824  24.280   1.808
60238W        W25465  38.611  31.317  13.789
60239W        W25466  21.730  38.636  11.167
60240W        W25467  36.879  14.444   1.499
60241W        W25468   9.708  16.804   3.261
60242W        W25469   4.371   6.102   0.605
60243W        W25470  39.100   2.845  12.180
60244W        W25471  35.089  18.546   4.256
60245W        W25472  38.829  12.839  12.065
60246W        W25473  23.612  42.949  11.929
60247W        W25474  37.904  17.081   0.330
60248W        W25475  25.145  36.815  12.162
60249W        W25476  34.415  39.042   3.352
60250W        W25477   3.776  29.794   1.735
60251W        W25478  35.233  35.073   4.361
60252W        W25479   0.232  40.428   2.724
60253W        W25480  31.616   8.050   0.331
60254W        W25481  31.593   3.392  14.462
60255W        W25482  11.962  37.312  12.552
60256W        W25483   3.932  29.459   4.121
60257W        W25484  11.644  23.762   3.017
60258W        W25485   7.114  17.898  13.076
60259W        W25486  37.807  44.377  11.600
60260W        W25487  37.113  38.487   4.184
60261W        W25488  31.131   0.005  14.864
60262W        W25489   6.420  12.246  11.781
60263W        W25490  23.061  11.112   3.576
60264W        W25491  44.123  18.094  11.167
60265W        W25492  40.519  32.994  13.333
60266W        W25493  14.275  39.842  11.564
60267W        W25494  20.774   8.384  12.348
60268W        W25495  44.419  15.030   4.879
60269W        W25496   9.134  17.008   0.335
60270W        W25497  42.516  23.049  14.686
60271W        W25498  27.276  20.544  12.610
60272W        W25499   2.216  32.117   0.988
60273W        W25500  14.313  23.518   2.258
60274W        W25501  42.557   8.029  11.005
60275W        W25502  20.063  30.100  14.392
60276W        W25503  41.555  44.904  11.978
60277W        W25504   8.177  37.534   3.603
60278W        W25505  38.019  38.353   2.842
60279W        W25506   9.187  38.851   3.375
60280W        W25507  33.455  43.898  13.527
60281W        W25508   0.629  40.858  11.923
60282W        W25509   0.010  16.520   9.921
60283W        W25510  17.832   8.828   4.480
60284W        W25511  21.386   3.984  11.122
60285W        W25512  31.561  27.644   1.656
60286W        W25513   9.022   0.677   0.965
60287W        W25514  29.885  20.233  10.786
60288W        W25515  37.744  21.609  11.828
60289W        W25516  31.760  37.134   4.473
60290W        W25517  27.448  26.219   4.640
60291W        W25518  12.185  43.990  13.992
60292W        W25519  20.660  22.428  11.729
60293W        W25520   4.995  15.622  11.477
60294W        W25521  42.525  31.590   4.779
60295W        W25522   4.042  19.112   4.582
60296W        W25523  12.361   7.805   2.283
60297W        W25524   4.893  28.454  14.245
60298W        W25525  38.574  27.700  10.589
60299W        W25526  16.072  27.301  11.559
60300W        W25527  16.332  21.127  13.045
60301W        W25528  43.976  20.996  13.745
60302W        W25529  10.895  10.147  10.320
60303W        W25530  21.831  21.063   3.774
60304W        W25531  38.860  23.781   1.796
60305W        W25532   2.722   4.598   3.651
60306W        W25533  22.215   3.522   3.784
60307W        W25534  20.963   3.707   3.253
60308W        W25535   5.827  27.234  13.365
60309W        W25536  28.208  44.032   3.897
60310W        W25537  27.022  34.070   4.902
60311W        W25538  41.841   2.679  12.441
60312W        W25539   7.862  26.013   3.580
60313W        W25540  35.044   4.091   1.134
60314W        W25541  17.961  27.980   3.169
60315W        W25542  15.695  16.192  11.228
60316W        W25543  28.445   2.454   2.680
60317W        W25544  25.578  15.837   0.858
60318W        W25545  17.834  39.756   3.337
60319W        W25546  16.093  37.975  10.935
60320W        W25547  34.416  34.083  11.212
60321W        W25548  11.225   5.918  14.976
60322W        W25549   5.942   5.467   2.442
60323W        W25550  39.867  27.065  13.411
60324W        W25551  37.956  15.645  13.096
60325W        W25552  41.322  37.089   0.374
60326W        W25553   3.771   5.006   1.895
60327W        W25554   2.047  13.973  14.883
60328W        W25555  32.428  19.851  13.376
60329W        W25556  22.529  39.156  12.428
60330W        W25557   4.747  22.041  11.922
60331W        W25558  29.722  20.205  13.884
60332W        W25559  26.971   5.477  12.895
60333W        W25560   3.785  37.062   1.226
60334W        W25561  27.735  27.657   1.220
60335W        W25562  27.074  32.685   0.434
60336W        W25563  15.336  12.353   0.869
60337W        W25564  23.817  38.389   1.489
60338W        W25565  42.540  29.329  13.560
60339W        W25566  25.427  24.163  11.537
60340W        W25567  10.895   2.686   0.806
60341W        W25568  10.970  17.889   4.223
60342W        W25569   7.172  38.989  11.662
60343W        W25570  21.917  24.543  10.506
60344W        W25571   9.769   0.691  12.492
60345W        W25572  24.199  36.323   2.379
60346W        W25573  21.656   9.670   0.830
60347W        W25574  15.574  12.798  14.331
60348W        W25575  34.038  25.186   1.239
60349W        W25576  29.514  31.119   2.463
60350W        W25577  22.110  36.889  10.756
60351W        W25578  30.014  42.273  10.918
60352W        W25579  26.411  33.420   1.328
60353W        W25580  31.358  17.363  13.942
60354W        W25581   8.589  14.170   3.610
60355W        W25582  11.083   4.873   1.406
60356W        W25583  32.112   3.391   1.294
60357W        W25584  25.578  22.538  12.371
60358W        W25585  33.159  28.634  13.822
60359W        W25586  25.710  10.710   2.769
60360W        W25587   0.650   8.227  11.617
60361W        W25588  18.953  30.599  12.913
60362W        W25589  29.606  32.383   5.298
60363W        W25590  20.504   5.030  12.032
60364W        W25591   0.347   3.300   3.204
60365W        W25592  25.201  36.111   0.115
60366W        W25593  17.807  11.832  11.578
60367W        W25594  13.149  38.336   1.881
60368W        W25595  14.596   9.401   2.064
60369W        W25596   7.629  17.155  14.439
60370W        W25597   8.650  38.522   2.282
60371W        W25598  34.651   7.565   0.346
60372W        W25599   2.332  10.486  11.409
60373W        W25600  11.158   7.820  10.843
60374W        W25601   7.992  27.853   0.879
60375W        W25602   1.887  39.768  12.365
60376W        W25603  36.295  20.617   3.083
60377W        W25604   7.119  22.694  11.977
60378W        W25605   7.696  23.049  13.270
60379W        W25606   3.042   9.258  13.565
60380W        W25607  25.829  16.329   1.346
60381W        W25608  18.066   0.387   0.744
60382W        W25609   0.106  40.325   4.490
60383W        W25610   0.964  10.172  13.390
60384W        W25611   7.353  41.807  14.432
60385W        W25612  26.905  15.115  11.178
60386W        W25613  42.021  25.024   3.504
60387W        W25614  11.438  29.627  10.315
60388W        W25615  37.433  33.111   0.430
60389W        W25616  22.126  19.760   0.846
60390W        W25617  13.812  32.046   4.021
60391W        W25618  43.707  26.607  10.073
60392W        W25619  44.903  39.557  13.165
60393W        W25620   7.689   0.016   0.340
60394W        W25621  42.989   2.381   1.666
60395W        W25622  18.342  26.339  11.459
60396W        W25623  42.174   4.248  13.434
60397W        W25624  39.822  34.995   4.171
60398W        W25625   1.146  10.305  14.879
60399W        W25626  14.871  26.151   2.136
60400W        W25627  23.542  26.895   1.262
60401W        W25628  28.871   6.699  10.872
60402W        W25629  17.398   5.242  10.806
60403W        W25630  11.972  20.928   2.986
60404W        W25631  20.741  44.962   2.513
60405W        W25632   6.970  25.030   0.288
60406W        W25633  13.827  39.891   2.809
60407W        W25634  37.411   0.405  13.429
60408W        W25635  39.606  12.869   0.857
60409W        W25636  16.309  11.136  11.175
60410W        W25637   5.865  26.380  10.793
60411W        W25638  39.870   0.342   2.555
60412W        W25639  11.650  35.947  12.520
60413W        W25640  14.074   8.851  10.562
60414W        W25641   0.155  21.290   4.151
60415W        W25642  24.102  25.452   3.876
60416W        W25643  12.373  29.798   0.787
60417W        W25644  19.160  24.154  12.004
60418W        W25645  31.845  34.820  14.804
60419W        W25646   3.404   6.213  11.646
60420W        W25647  35.977  26.489  11.616
60421W        W25648   9.218  11.691  11.564
60422W        W25649   9.165  35.837   0.762
60423W        W25650  25.525   9.141   4.845
60424W        W25651  26.107  42.607   5.001
60425W        W25652  23.512  15.812   3.890
60426W        W25653  12.672  36.816   3.205
60427W        W25654  34.544  29.118   1.815
60428W        W25655  33.768  10.121   4.589
60429W        W25656  39.809  35.581  10.818
60430W        W25657  39.844  38.345  13.894
60431W        W25658  38.147  36.471  14.966
60432W        W25659  22.203  32.308   0.143
60433W        W25660  29.084   8.655  12.498
60434W        W25661  43.418  22.808  13.506
60435W        W25662  36.768  28.664   1.820
60436W        W25663  26.624  39.823   3.650
60437W        W25664   4.518  38.405  14.826
60438W        W25665  33.886  39.827   2.917
60439W        W25666  32.364  10.602   0.609
60440W        W25667   6.175   7.780   2.816
60441W        W25668  15.617   1.964  11.374
60442W        W25669   6.312  44.018  13.353
60443W        W25670  29.118  14.007  10.399
60444W        W25671  42.777  37.305   4.246
60445W        W25672  33.350   8.872  13.237
60446W        W25673  17.510  25.994   1.223
60447W        W25674  11.878   5.095  11.630
60448W        W25675  12.874  35.485  12.918
60449W        W25676  37.837  30.353   4.966
60450W        W25677  27.025  24.188  14.084
60451W        W25678  21.701   6.160  14.799
60452W        W25679   9.891  43.221   1.026
60453W        W25680   5.600  42.821   2.166
60454W        W25681  27.243  44.797   1.414
60455W        W25682  26.052  17.815   2.886
60456W        W25683   2.278   9.941   1.170
60457W        W25684  13.194  38.818   2.693
60458W        W25685  27.972  35.974   0.751
60459W        W25686  13.293   5.823   1.634
60460W        W25687  44.990   0.040   2.631
60461W        W25688  28.048  38.996  10.136
60462W        W25689   5.437  43.013   5.024
60463W        W25690   8.605  19.687  14.949
60464W        W25691  25.150  43.880  11.651
60465W        W25692  24.253  44.109  13.699
60466W        W25693   2.927  33.879   3.575
60467W        W25694  36.634  20.286  14.369
60468W        W25695  31.574   0.008  12.123
60469W        W25696  24.656   0.850  14.061
60470W        W25697  36.877  20.672  11.986
60471W        W25698  17.309  25.689  13.522
60472W        W25699   4.224  26.780  13.946
60473W        W25700  41.775  22.929  13.531
60474W        W25701  11.374  32.674  13.788
60475W        W25702   3.283   5.034   3.151
60476W        W25703  11.672  29.194   4.484
60477W        W25704  28.033  10.537   3.250
60478W        W25705  10.146  22.807  14.368
60479W        W25706  25.050  37.794   2.888
60480W        W25707  26.106   3.343  11.491
60481W        W25708  15.120  23.099  14.019
60482W        W25709  24.946  12.444   1.904
60483W        W25710   9.662  21.511  12.922
60484W        W25711  17.763  40.427  13.836
60485W        W25712  42.697   0.001  12.873
60486W        W25713  19.232   7.670   0.984
60487W        W25714   0.403  35.476  12.792
60488W        W25715  28.130   3.217   3.769
60489W        W25716  12.127  22.604  14.939
60490W        W25717   0.998   7.714   0.333
60491W        W25718  44.784  32.218   1.784
60492W        W25719  31.543  37.325  13.445
60493W        W25720   7.363  41.958   2.756
60494W        W25721   1.565  39.499  14.518
60495W        W25722   5.617  25.953   4.131
60496W        W25723  33.369  17.042  13.437
60497W        W25724  14.564  41.521   2.721
60498W        W25725  26.370  19.893   1.788
60499W        W25726   6.861  34.397  14.741
60500W        W25727  34.097  33.062   0.853
60501W        W25728  16.240  39.732  13.986
60502W        W25729  24.975  37.464   4.214
60503W        W25730   3.723  27.103   3.282
60504W        W25731  33.912  41.665  11.082
60505W        W25732  24.977  39.100  14.936
60506W        W25733  43.556  33.342   1.475
60507W        W25734  40.588  25.670  14.351
60508W        W25735  44.022   5.798   2.262
60509W        W25736   8.902  37.614   4.161
60510W        W25737  31.741  14.579   4.212
60511W        W25738   2.942  15.195  12.017
60512W        W25739   2.088  40.443  10.530
60513W        W25740   5.417  36.344   2.783
60514W        W25741  34.387  40.049  14.481
60515W        W25742  29.878  30.253  14.961
60516W        W25743   2.841   1.023   2.138
60517W        W25744  35.124   8.194  12.798
60518W        W25745  22.160  28.201  11.569
60519W        W25746  18.521  15.311   3.337
60520W        W25747  16.817  17.065   0.872
60521W        W25748   6.288   2.731   0.276
60522W        W25749  33.487  12.475   5.461
60523W        W25750   1.851  38.764   4.262
60524W        W25751   5.765  31.850   0.284
60525W        W25752  26.458  10.602  11.653
60526W        W25753  19.508  25.209   4.658
60527W        W25754  32.079  34.905   3.137
60528W        W25755  21.794  22.398  12.411
60529W        W25756  10.596  42.089  11.243
60530W        W25757  10.774  11.210   0.763
60531W        W25758  25.196  38.467  11.575
60532W        W25759  42.780  17.234   3.561
60533W        W25760  41.805  29.508  14.532
60534W        W25761  40.761   6.701  13.936
60535W        W25762   2.194   2.157  11.122
60536W        W25763  36.138   0.770  12.492
60537W        W25764  26.432  43.785  11.128
60538W        W25765  23.545  39.053  13.622
60539W        W25766  10.260  40.051   3.691
60540W        W25767  36.395  42.254  14.399
60541W        W25768  40.557  19.091  12.996
60542W        W25769  27.030   5.094   3.128
60543W        W25770   1.690  15.827   3.968
60544W        W25771  14.298  38.830   1.344
60545W        W25772  26.161  30.595  14.078
60546W        W25773   3.313  32.916  10.546
60547W        W25774  18.165  22.955  12.470
60548W        W25775  26.270   8.164  12.536
60549W        W25776  12.670  44.090   1.759
60550W        W25777  12.104  44.105   1.203
60551W        W25778  37.986  42.860  14.267
60552W        W25779  32.669  20.003   1.648
60553W        W25780   2.843  18.103   2.274
60554W        W25781  29.872  40.059  11.915
60555W        W25782  21.476   3.499  12.108
60556W        W25783  18.147   1.225  13.947
60557W        W25784  18.810  14.565   0.316
60558W        W25785  41.156  42.325   3.592
60559W        W25786  18.618   6.992  12.378
60560W        W25787  31.127  27.179  11.297
60561W        W25788  29.188  18.979  11.155
60562W        W25789  15.606  35.221   1.994
60563W        W25790  32.637  40.896  10.283
60564W        W25791  15.529   2.875   2.369
60565W        W25792  38.817  13.245   4.900
60566W        W25793   6.879  25.967  14.860
60567W        W25794  40.852   0.328  12.540
60568W        W25795  42.760  41.384   3.251
60569W        W25796  42.611  10.223   1.047
60570W        W25797  34.247  12.822  13.472
60571W        W25798   9.866   5.894   1.783
60572W        W25799  24.545  36.315  11.688
60573W        W25800  26.996  32.675   3.554
60574W        W25801  11.544   9.248  11.647
60575W        W25802  28.187  20.189  13.817
60576W        W25803  10.818  18.738   2.111
60577W        W25804  32.451  40.812   3.668
60578W        W25805  29.572  23.580   1.752
60579W        W25806   9.238  43.506   4.627
60580W        W25807   2.247   4.022   4.590
60581W        W25808  28.127  31.694   3.588
60582W        W25809  23.645  22.622  11.672
60583W        W25810  15.347  27.078  14.840
60584W        W25811  22.660  32.436   4.655
60585W        W25812  21.012  18.897   2.909
60586W        W25813  10.696  29.423  11.517
60587W        W25814  42.064  43.894   1.957
60588W        W25815  36.467  27.514   1.442
60589W        W25816  33.306  36.466   0.757
60590W        W25817  15.128  26.237   3.736
60591W        W25818  24.209   6.213   4.519
60592W        W25819  10.207  43.069  14.006
60593W        W25820  38.192  38.934  12.394
60594W        W25821  33.039  16.612   3.280
60595W        W25822  22.964  14.258  11.470
60596W        W25823  20.147  18.887   4.467
60597W        W25824  41.457  24.419   0.738
60598W        W25825  30.075  31.188  10.662
60599W        W25826  13.796   1.758   4.250
60600W        W25827   3.328  37.773   4.377
60601W        W25828   7.296  41.489   0.215
60602W        W25829  28.447  41.948  14.312
60603W        W25830  13.602  39.069  11.882
60604W        W25831  33.873  42.807  12.582
60605W        W25832  35.308  25.524   0.176
60606W        W25833  15.189  37.496   2.623
60607W        W25834  38.594  40.933  10.455
60608W        W25835   7.941   0.759  12.442
60609W        W25836  16.118   4.968  10.381
60610W        W25837  38.916  17.771  10.920
60611W        W25838  29.105  27.418   1.471
60612W        W25839  15.404  22.309  10.965
60613W        W25840   7.122  39.493  11.463
60614W        W25841  34.399   0.770   1.952
60615W        W25842  10.216  19.396   3.268
60616W        W25843  21.624  31.664  14.020
60617W        W25844  43.867  11.816   1.949
60618W        W25845  40.967  26.262  12.035
60619W        W25846  40.849   0.804   2.855
60620W        W25847   9.183  38.039  12.367
60621W        W25848  13.108  22.744   2.923
60622W        W25849  11.982  26.273  12.091
60623W        W25850   6.747  32.030   0.509
60624W        W25851   5.100  18.115  10.152
60625W        W25852  42.725   8.030  14.465
60626W        W25853  14.176  16.539   3.947
60627W        W25854  23.249  12.716   2.239
60628W        W25855   2.714  37.282  13.414
60629W        W25856  19.372  33.915  13.195
60630W        W25857  10.604  18.916   1.207
60631W        W25858   8.315  27.728  12.000
60632W        W25859  17.852  15.377   1.165
60633W        W25860  20.775  35.587   0.370
60634W        W25861  20.166  22.772   0.267
60635W        W25862  39.090  27.947   1.832
60636W        W25863  24.833   5.493   5.878
60637W        W25864  27.443  27.290   5.084
60638W        W25865  42.310   3.948  11.682
60639W        W25866   3.159  31.459   4.599
60640W        W25867  20.203   3.198   9.633
60641W        W25868   7.586  27.513   1.737
60642W        W25869  31.210  32.339  11.535
60643W        W25870  26.346  28.458  11.162
60644W        W25871  35.952  12.288  11.998
60645W        W25872  24.305  23.931   2.151
60646W        W25873  31.479   7.499  11.103
60647W        W25874  13.666  20.664   4.935
60648W        W25875   0.500  32.508   4.792
60649W        W25876  36.519  16.402   3.274
60650W        W25877  36.327  23.562   1.721
60651W        W25878  13.840  23.949  12.963
60652W        W25879  29.668  31.909   3.759
60653W        W25880  17.206  44.661   1.399
60654W        W25881  42.521   6.411   4.100
60655W        W25882   1.726  42.372   1.201
60656W        W25883   4.929   8.309  14.476
60657W        W25884  13.375  35.400  14.170
60658W        W25885  41.333  43.776   1.321
60659W        W25886  42.427  43.622  13.827
60660W        W25887  11.713  28.568  14.302
60661W        W25888  19.302   6.266  12.968
60662W        W25889  11.428   5.748   2.013
60663W        W25890  16.227  12.732  14.913
60664W        W25891  36.996   0.691  12.589
60665W        W25892  41.077  35.883   0.782
60666W        W25893   3.305  44.440   1.493
60667W        W25894  28.550   7.666   2.647
60668W        W25895  32.692  21.470   3.317
60669W        W25896   1.282  33.876   0.509
60670W        W25897  21.515  35.560  11.933
60671W        W25898  16.322  14.430   2.827
60672W        W25899  32.549  39.998   1.341
60673W        W25900  22.394  29.791  13.157
60674W        W25901  15.649  22.171  11.635
60675W        W25902  11.765   1.835  11.669
60676W        W25903  18.094   5.843   3.436
60677W        W25904  30.076  36.283  10.620
60678W        W25905  15.816   7.330   2.339
60679W        W25906  39.544  13.758   4.707
60680W        W25907   4.169  41.429  11.960
60681W        W25908  44.188  11.718   5.067
60682W        W25909  18.553  22.581   0.430
60683W        W25910   0.385  19.047  13.656
60684W        W25911  16.240  19.294  10.784
60685W        W25912   7.676  29.508   0.627
60686W        W25913  23.429   7.671   3.296
60687W        W25914  18.333  44.997   2.467
60688W        W25915  35.395   9.657   1.857
60689W        W25916  14.226  38.666   4.538
60690W        W25917   0.778   3.630   2.926
60691W        W25918  12.570   7.672  14.378
60692W        W25919  15.763  40.740   4.543
60693W        W25920  12.179   5.495   1.402
60694W        W25921  36.787  13.903   4.225
60695W        W25922   3.956  39.264  11.575
60696W        W25923  19.587  28.487  13.876
60697W        W25924  19.745   5.671   1.334
60698W        W25925   4.995  11.283   2.432
60699W        W25926  27.147  40.567  11.138
60700W        W25927  17.241   1.272  11.610
60701W        W25928   8.274   6.698  11.527
60702W        W25929   8.449  26.157  11.214
60703W        W25930  12.041  30.545  12.390
60704W        W25931   9.878  28.105  14.253
60705W        W25932  28.179  18.702  10.999
60706W        W25933   6.130  44.807  11.381
60707W        W25934   6.187  29.689  14.452
60708W        W25935  17.812  22.686   1.963
60709W        W25936  33.456  15.853   2.692
60710W        W25937  40.883  16.194  11.886
60711W        W25938  44.360  35.269   3.112
60712W        W25939  22.791  18.638  11.978
60713W        W25940  19.218   5.751   0.014
60714W        W25941  35.057  26.569  13.490
60715W        W25942  21.428  17.017  11.045
60716W        W25943  29.989  43.066  13.131
60717W        W25944  17.752   6.222  14.268
60718W        W25945  16.339  34.839  13.876
60719W        W25946  32.972  40.630   2.806
60720W        W25947  16.204  43.523   1.734
60721W        W25948   1.702  26.485  12.924
60722W        W25949  17.293  28.573   1.521
60723W        W25950  23.272  42.623   4.981
60724W        W25951  34.926   3.232   0.659
60725W        W25952  30.842   7.887  11.847
60726W        W25953  20.151  22.787   3.762
60727W        W25954   3.471  28.583  12.391
60728W        W25955  29.157   6.360   3.750
60729W        W25956  38.603  30.048  10.503
60730W        W25957  36.936   4.405  11.513
60731W        W25958   0.018  12.735   1.027
60732W        W25959  43.081   6.713  14.300
60733W        W25960  36.491  18.153  10.225
60734W        W25961  42.027   8.737   1.506
60735W        W25962   1.890  21.757  11.752
60736W        W25963  14.994  19.154   2.286
60737W        W25964  33.859   3.688  14.938
60738W        W25965  24.189  32.729   0.391
60739W        W25966  14.391   0.723   5.133
60740W        W25967   2.221  32.512   4.106
60741W        W25968   5.156  41.281   3.796
60742W        W25969  22.252  17.620   4.684
60743W        W25970   3.191  26.729  12.870
60744W        W25971   0.913  13.801   0.860
60745W        W25972  24.756  26.263  14.125
60746W        W25973  18.245  29.649   0.451
60747W        W25974  33.184  36.838  13.260
60748W        W25975  13.796   4.207   1.691
60749W        W25976  15.257  10.144  11.134
60750W        W25977   0.591  23.688   2.389
60751W        W25978  37.285  40.807   1.801
60752W        W25979  42.809  37.747  13.426
60753W        W25980   8.888  21.600  13.733
60754W        W25981  12.729   6.129   1.313
60755W        W25982  42.504   4.865   3.357
60756W        W25983  15.667  43.729   1.439
60757W        W25984   8.510   6.393  14.315
60758W        W25985  11.231  18.319   4.104
60759W        W25986  12.077   9.268   3.380
60760W        W25987  10.789  13.578   2.500
60761W        W25988  18.437  23.479  12.910
60762W        W25989  41.533  10.189  14.579
60763W        W25990  44.278  44.148   1.695
60764W        W25991   5.915  10.932   1.494
60765W        W25992  26.666   6.438   3.587
60766W        W25993  36.898  29.350  14.354
60767W        W25994  35.089  37.917   0.135
60768W        W25995  19.808  35.409   4.102
60769W        W25996   3.533   1.559  12.973
60770W        W25997  19.183   5.375  13.081
60771W        W25998  18.834  26.624  11.088
60772W        W25999  32.464  14.246  12.847
60773W        W26000   6.552   9.569  11.971
60774W        W26001  33.918   5.114   0.115
60775W        W26002  17.007  12.296  11.467
60776W        W26003  35.071  10.320   3.808
60777W        W26004  22.687  17.928  11.801
60778W        W26005  28.411  43.427  14.063
60779W        W26006  15.510  14.146   1.482
60780W        W26007   0.260   2.142   0.436
60781W        W26008   2.663  18.482   0.881
60782W        W26009   6.897  10.550   2.270
60783W        W26010  22.286  11.398  10.776
60784W        W26011  43.738  31.243  13.866
60785W        W26012  20.496  35.535  11.277
60786W        W26013   2.712  21.451   4.104
60787W        W26014  15.142  26.699  12.173
60788W        W26015  16.014  17.308  11.605
60789W        W26016  38.389  33.841   0.568
60790W        W26017   3.695  24.032   0.195
60791W        W26018  41.249   9.434  12.584
60792W        W26019  18.047  38.775   2.738
60793W        W26020  29.228  40.487   0.932
60794W        W26021  43.569   9.118  13.483
60795W        W26022  11.188   7.169   4.575
60796W        W26023  36.640  21.651   1.667
60797W        W26024  18.677  20.327   4.519
60798W        W26025  26.037  43.491   0.917
60799W        W26026  16.526  19.259   3.267
60800W        W26027   3.490  31.172   3.814
60801W        W26028  38.148  16.162  11.941
60802W        W26029  20.480  38.182   1.737
60803W        W26030  31.289  31.449   1.327
60804W        W26031  30.369  32.638   3.668
60805W        W26032  26.527  18.825  12.000
60806W        W26033  14.229  13.596  12.082
60807W        W26034  32.191   2.666   0.212
60808W        W26035   4.037  23.669   0.008
60809W        W26036  13.827   5.201   1.844
60810W        W26037   2.909  40.961   0.963
60811W        W26038  27.260  19.274  14.495
60812W        W26039  25.107  17.618  13.388
60813W        W26040  40.062  10.551   1.733
60814W        W26041  38.941  19.506  13.896
60815W        W26042   2.638  17.668  14.496
60816W        W26043  40.565   4.634   2.781
60817W        W26044   0.568  10.172   1.245
60818W        W26045   2.141  26.032  10.477
60819W        W26046  39.261  24.549  10.915
60820W        W26047  38.129  20.525  12.495
60821W        W26048  20.953   4.342   9.987
60822W        W26049  26.133  25.392   2.099
60823W        W26050  30.166   4.454  14.360
60824W        W26051  20.707  18.532   3.698
60825W        W26052  15.767  44.054  11.546
60826W        W26053  40.784  34.005   3.880
60827W        W26054  44.755  22.031   2.735
60828W        W26055  23.741  39.461  13.890
60829W        W26056  24.493  32.601   4.347
60830W        W26057   3.767  42.702   2.269
60831W        W26058  40.955  39.113  10.588
60832W        W26059  32.481  23.951   1.999
60833W        W26060   5.049  22.995   2.900
60834W        W26061   7.279  16.594   2.779
60835W        W26062   2.678  24.632  14.046
60836W        W26063   6.818  36.019   4.649
60837W        W26064  38.396  17.124  14.888
60838W        W26065  19.780  14.965   0.497
60839W        W26066  32.085  28.668   4.661
60840W        W26067  10.383  25.079  11.996
60841W        W26068  44.958   0.927   2.280
60842W        W26069  39.970  15.652  12.071
60843W        W26070  42.469  18.603   3.672
60844W        W26071  42.853  36.052  11.843
60845W        W26072   2.517  18.645   5.464
60846W        W26073   3.032   4.927   2.679
60847W        W26074  32.244  32.621   2.566
60848W        W26075   9.830   8.088   2.405
60849W        W26076  13.577  39.445  12.938
60850W        W26077  11.618   6.974   1.363
60851W        W26078   0.307   0.909   4.524
60852W        W26079   7.888  28.176   2.101
60853W        W26080  25.514  37.186  12.865
60854W        W26081  27.211   8.238  10.639
60855W        W26082  44.983  17.562  10.527
60856W        W26083  30.393  28.520  14.835
60857W        W26084  29.108  43.785   2.178
60858W        W26085  20.777  21.014   3.732
60859W        W26086  16.819  11.601  10.701
60860W        W26087  26.676  15.196   1.077
60861W        W26088   3.577  13.305  12.679
60862W        W26089  33.879  43.017  14.432
60863W        W26090   7.442  22.468   1.862
60864W        W26091  44.817   9.702   2.205
60865W        W26092  40.501  15.528  13.831
60866W        W26093  40.089   8.310   2.473
60867W        W26094  11.233  36.915   4.496
60868W        W26095  12.964  35.419   1.872
60869W        W26096  24.453  29.902   5.026
60870W        W26097  12.120  35.375   4.585
60871W        W26098  20.944  29.102  13.509
60872W        W26099  39.618   6.051   0.296
60873W        W26100  10.819  41.877  14.846
60874W        W26101  39.351  42.809   3.619
60875W        W26102  36.274  27.663  12.474
60876W        W26103  44.941  37.123  13.788
60877W        W26104  17.380  17.178  13.232
60878W        W26105  14.585  32.477   1.865
60879W        W26106  16.087  33.014   2.448
60880W        W26107  15.231  28.872  14.484
60881W        W26108  42.839  21.996   2.301
60882W        W26109   3.420  34.962  12.233
60883W        W26110  13.708  18.743  14.938
60884W        W26111  35.573  41.488   2.132
60885W        W26112  29.137  38.499  11.748
60886W        W26113  18.076  10.698  12.000
60887W        W26114   9.863  39.486   4.316
60888W        W26115  18.500  42.488   0.628
60889W        W26116  23.661  42.385   1.678
60890W        W26117   2.007  43.745  11.707
60891W        W26118  41.974  20.169  11.751
60892W        W26119  27.606  38.956   0.292
60893W        W26120  40.965  29.301   4.678
60894W        W26121   4.267  12.255  14.360
60895W        W26122  21.331  36.883  13.117
60896W        W26123  24.279  21.716   1.898
60897W        W26124  42.867  30.850   4.813
60898W        W26125  26.156  36.708   2.144
60899W        W26126  26.646  27.113  14.398
60900W        W26127  22.173   4.130   1.886
60901W        W26128  37.885  35.163   3.207
60902W        W26129  33.499   1.750   0.287
60903W        W26130  29.414   2.332  12.389
60904W        W26131  39.975  41.718  12.032
60905W        W26132  22.531   5.424   3.599
60906W        W26133  12.774  24.975   4.816
60907W        W26134  18.687  28.937  11.817
60908W        W26135  43.896  24.283   1.801
60909W        W26136  18.218  27.694   1.495
60910W        W26137   4.217   0.529   1.957
60911W        W26138   2.737  10.398   2.757
60912W        W26139   1.413  39.386   3.158
60913W        W26140  21.750  17.637   0.865
60914W        W26141  40.239   9.420  12.132
60915W        W26142  20.080  37.494   3.215
60916W        W26143   0.386  36.873  13.856
60917W        W26144  39.885   0.450   3.051
60918W        W26145  44.747  19.894  12.960
60919W        W26146  19.842  11.194   4.869
60920W        W26147  30.016  21.591   2.841
60921W        W26148  32.552  16.894   4.966
60922W        W26149  18.158  19.842  12.573
60923W        W26150  18.272  36.407  10.409
60924W        W26151  10.063  23.335   0.436
60925W        W26152   0.754   9.744   3.852
60926W        W26153   5.201  34.289  13.854
60927W        W26154  11.932  34.426  13.434
60928W        W26155  14.816   5.343  10.723
60929W        W26156   0.273  11.793   2.782
60930W        W26157  26.027  39.490   2.235
60931W        W26158  41.099   7.452   3.157
60932W        W26159  35.524  29.369  10.857
60933W        W26160   2.344   3.213   1.891
60934W        W26161  37.337  19.409  14.959
60935W        W26162   0.990  43.637   2.688
60936W        W26163  19.212   9.187  13.160
60937W        W26164   4.647  40.482   1.411
60938W        W26165   3.671  30.252   3.098
60939W        W26166   1.821   1.708  13.342
60940W        W26167  38.290  15.477   3.777
60941W        W26168  27.699   5.139  12.142
60942W        W26169   8.403  16.601  11.183
60943W        W26170  32.930  25.403  13.839
60944W        W26171  27.585  40.569   1.328
60945W        W26172  12.731  24.757  12.540
60946W        W26173  34.601  11.913   3.254
60947W        W26174  13.810  28.997  14.328
60948W        W26175  29.227   0.234   0.908
60949W        W26176  30.817  31.052   2.588
60950W        W26177   7.407  15.143  12.324
60951W        W26178  30.594  10.839   0.340
60952W        W26179   6.721  12.034   0.291
60953W        W26180   4.406  26.570  10.656
60954W        W26181  20.037  44.499   4.679
60955W        W26182  31.970  19.993   3.777
60956W        W26183  10.228  30.929  11.162
60957W        W26184   8.376  43.326   3.203
60958W        W26185  29.432   3.254   1.814
60959W        W26186  44.914  31.384   3.147
60960W        W26187  40.308  14.118  13.846
60961W        W26188   5.684  41.360   1.357
60962W        W26189  33.916  36.925  14.801
60963W        W26190  24.076   9.393   4.331
60964W        W26191  27.173  43.857  11.552
60965W        W26192  11.777  22.763  13.755
60966W        W26193  38.503  40.982   3.237
60967W        W26194   3.825  33.900  11.422
60968W        W26195  39.892  17.120   1.271
60969W        W26196   2.886  10.753   1.415
60970W        W26197  28.775  30.478  13.497
60971W        W26198  38.796   1.976   4.659
60972W        W26199   0.692  18.719   0.373
60973W        W26200  11.979  23.304   1.755
60974W        W26201  29.985  22.973  12.860
60975W        W26202  18.193  35.869   1.953
60976W        W26203   9.422  39.791   0.319
60977W        W26204   8.392  38.929  12.032
60978W        W26205   1.919   0.870   1.672
60979W        W26206  10.460  29.353   4.087
60980W        W26207  32.985  29.613   3.761
60981W        W26208  41.326  20.597  12.072
60982W        W26209  21.110  16.740  12.202
60983W        W26210  22.741  38.633   3.298
60984W        W26211  22.082   0.128  11.624
60985W        W26212  36.463  25.052  14.034
60986W        W26213  16.313   0.582   3.621
60987W        W26214  42.167  13.171   1.794
60988W        W26215  20.651  33.573   0.438
60989W        W26216  35.446  40.441   2.082
60990W        W26217  14.858  30.556  11.910
60991W        W26218  18.983  20.641   4.203
60992W        W26219  40.447  16.579   2.753
60993W        W26220  15.069   5.928   2.128
60994W        W26221  38.773  44.317   2.155
60995W        W26222  24.224  10.723  12.574
60996W        W26223  17.916  38.146   4.494
60997W        W26224  10.760  28.861  14.370
60998W        W26225  19.859  21.926   0.792
60999W        W26226  16.307   8.265  14.288
61000W        W26227  36.877  35.316   3.081
61001W        W26228  15.885   3.304   4.466
61002W        W26229  19.289  22.586  12.903
61003W        W26230  40.880  25.766  12.082
61004W        W26231   8.729   4.926  13.377
61005W        W26232  27.485  37.596   2.833
61006W        W26233  44.775  28.526  10.453
61007W        W26234  33.303   8.747   2.761
61008W        W26235  38.965  16.968   1.783
61009W        W26236   0.853  38.772   1.662
61010W        W26237  42.106  43.369   1.455
61011W        W26238  32.588  24.927   1.471
61012W        W26239   7.326  26.551   1.450
61013W        W26240  19.150   5.613   4.130
61014W        W26241  38.286  17.323  10.290
61015W        W26242   4.234  42.863  13.162
61016W        W26243  35.491  34.920   2.967
61017W        W26244  10.009  36.476  12.323
61018W        W26245  33.440  44.451  10.799
61019W        W26246   4.948  29.696   4.160
61020W        W26247   0.424  16.247  13.915
61021W        W26248  27.399  19.743  13.790
61022W        W26249  11.582  31.400   4.110
61023W        W26250  13.091  24.080   1.041
61024W        W26251   4.246  38.172  11.017
61025W        W26252  31.939  17.902  11.674
61026W        W26253  17.283  22.817  12.387
61027W        W26254  34.643  32.089   3.713
61028W        W26255  30.909  10.657   0.719
61029W        W26256  22.971  33.311  13.027
61030W        W26257  19.175  18.247  10.873
61031W        W26258  25.879  20.090  12.309
61032W        W26259   4.169   1.451   1.628
61033W        W26260  41.740  31.928   3.546
61034W        W26261  23.376  31.931  13.054
61035W        W26262   5.148  19.655   4.024
61036W        W26263  31.968  25.034   0.266
61037W        W26264   2.322  43.694  12.115
61038W        W26265  23.756   0.361  14.428
61039W        W26266   6.807  26.279  14.029
61040W        W26267  29.610  33.614  13.540
61041W        W26268   6.245  30.999   1.893
61042W        W26269  23.104   1.788   2.369
61043W        W26270  39.822  20.775  11.529
61044W        W26271  17.114   2.337   1.762
61045W        W26272  33.163  24.881  14.050
61046W        W26273  11.258   6.978  11.464
61047W        W26274  15.331  21.784  11.142
61048W        W26275   9.622  32.939   5.398
61049W        W26276  11.345  12.232   2.130
61050W        W26277  21.155  34.832   2.661
61051W        W26278  41.876   3.759   1.880
61052W        W26279  21.679  36.625   4.141
61053W        W26280   4.501  15.693  11.303
61054W        W26281  43.925   1.344  11.188
61055W        W26282  31.882   7.141   3.585
61056W        W26283  34.355  25.802  13.114
61057W        W26284  18.803  10.610  13.364
61058W        W26285   5.323  32.430  13.514
61059W        W26286  19.281  20.704   2.815
61060W        W26287  34.840  31.447  14.976
61061W        W26288  44.911   0.389   3.735
61062W        W26289  21.061  24.699  10.629
61063W        W26290   0.340   6.310  12.867
61064W        W26291  11.747  11.235   3.768
61065W        W26292   6.755  31.078   0.336
61066W        W26293   4.052  26.445  10.292
61067W        W26294  34.910  32.709  13.252
61068W        W26295  35.391  33.158   2.174
61069W        W26296  25.220   6.206   2.793
61070W        W26297  17.870  38.814   0.815
61071W        W26298  12.517  26.536  10.390
61072W        W26299  25.207  33.114   4.361
61073W        W26300  28.464  27.584  12.899
61074W        W26301  38.921  38.911  13.022
61075W        W26302  16.068   7.861  13.573
61076W        W26303  20.511  20.414  13.081
61077W        W26304  31.508  26.635  12.387
61078W        W26305  28.661  11.225   4.134
61079W        W26306  17.360  25.277  12.078
61080W        W26307  26.704  28.097   0.876
61081W        W26308  18.080  41.116  11.951
61082W        W26309  15.755  42.461  14.738
61083W        W26310  35.802  32.711   3.867
61084W        W26311   5.303  28.732  12.490
61085W        W26312  11.751  28.224  12.117
61086W        W26313  35.600  22.199   4.163
61087W        W26314  32.075  22.828  11.098
61088W        W26315  29.820  41.159   1.332
61089W        W26316   9.842  18.590   1.273
61090W        W26317  15.281   3.814  12.980
61091W        W26318  18.789   8.417   4.965
61092W        W26319  14.812  34.447  11.481
61093W        W26320  19.725  31.907   3.082
61094W        W26321  22.731  27.662   4.179
61095W        W26322   0.188  17.207  10.847
61096W        W26323  33.141  16.920  11.696
61097W        W26324  24.487  41.547  14.256
61098W        W26325   9.799  35.535   0.433
61099W        W26326  20.569  19.113   4.248
61100W        W26327  36.504  26.909   2.807
61101W        W26328  12.477   7.524   1.464
61102W        W26329  34.945  26.174  13.093
61103W        W26330  32.540   2.797  10.669
61104W        W26331  11.937   5.424  14.460
61105W        W26332  19.751   7.008  11.054
61106W        W26333  29.064  31.686   0.587
61107W        W26334  35.436  33.071  13.789
61108W        W26335  24.152  27.223   0.676
61109W        W26336  15.224  14.738   4.588
61110W        W26337  22.069  29.790   4.902
61111W        W26338  20.147  26.087  11.980
61112W        W26339  11.299  19.148   4.574
61113W        W26340   1.037  41.895   1.310
61114W        W26341  23.307   9.906  12.835
61115W        W26342  22.275  16.043  11.616
61116W        W26343  18.023  16.695  13.507
61117W        W26344  20.609   7.201   4.391
61118W        W26345  26.755  27.473  11.342
61119W        W26346   0.212  33.769   0.547
61120W        W26347  28.009   7.216  11.818
61121W        W26348  32.476  26.256   2.286
61122W        W26349  30.636  30.164   1.198
61123W        W26350  24.708  14.283  11.515
61124W        W26351  24.729  28.717  13.614
61125W        W26352  10.905  28.163   3.234
61126W        W26353   9.871  44.049   2.379
61127W        W26354  27.346  32.095   2.441
61128W        W26355  44.428  28.121  10.322
61129W        W26356  22.600  21.716   4.481
61130W        W26357  44.455   0.950   3.244
61131W        W26358  16.679   8.846   2.361
61132W        W26359  41.284  37.852  11.011
61133W        W26360   0.429   9.803   3.415
61134W        W26361  31.522  17.755  10.671
61135W        W26362   4.254   0.210  14.836
61136W        W26363  34.344  11.536   9.916
61137W        W26364  37.198  33.971   2.892
61138W        W26365  38.396  30.611  14.339
61139W        W26366  23.550  31.813   3.107
61140W        W26367  22.826  41.727  12.566
61141W        W26368  37.012  28.196   1.845
61142W        W26369  30.642  20.838   0.563
61143W        W26370   9.169  43.521  14.553
61144W        W26371   4.693  24.388   1.893
61145W        W26372  31.591  25.375  14.364
61146W        W26373  19.645  39.436  14.806
61147W        W26374   8.277   4.286   2.165
61148W        W26375   5.170  39.580   3.587
61149W        W26376   0.400   2.627   0.485
61150W        W26377  27.514  26.745  14.341
61151W        W26378  12.342  15.421  11.065
61152W        W26379  17.634  10.209  14.805
61153W        W26380  21.309  14.694   2.601
61154W        W26381   4.425  22.016  10.650
61155W        W26382  20.130  16.394   1.395
61156W        W26383  40.462   1.953   2.297
61157W        W26384  22.537  43.674   0.896
61158W        W26385   6.182  35.672   0.615
61159W        W26386  30.638  30.701   4.550
61160W        W26387  14.025  31.920  13.905
61161W        W26388   4.664  15.748  14.330
61162W        W26389   1.533  32.030   4.046
61163W        W26390  44.447  38.412  10.741
61164W        W26391  22.020  11.112   0.903
61165W        W26392   8.923  19.087   1.951
61166W        W26393  44.897  20.197  13.416
61167W        W26394  28.645  12.455  14.997
61168W        W26395  41.182  33.134  12.570
61169W        W26396  43.343  34.598   2.264
61170W        W26397  29.187  42.445   1.312
61171W        W26398  23.669  27.565  14.817
61172W        W26399  44.750  10.165   1.888
61173W        W26400   1.246  17.672  14.790
61174W        W26401  40.495   3.221  11.244
61175W        W26402  17.132  37.728  11.979
61176W        W26403  26.509  41.609   0.240
61177W        W26404  38.952  42.708   3.309
61178W        W26405   0.023  34.808   0.478
61179W        W26406  34.052   5.548   2.199
61180W        W26407  20.416  12.657  10.689
61181W        W26408  18.902   2.299   0.280
61182W        W26409  10.677  24.851   4.705
61183W        W26410  18.532  25.872   0.302
61184W        W26411   9.300  11.701  14.957
61185W        W26412  17.630   9.643   4.150
61186W        W26413  26.729  10.614   1.014
61187W        W26414  24.373  44.329   9.710
61188W        W26415   6.834   0.379   3.242
61189W        W26416  16.568  12.905  14.525
61190W        W26417  16.261   3.237  12.992
61191W        W26418  12.582  19.556   1.415
61192W        W26419   3.936  17.216  12.602
61193W        W26420   1.442  22.059   3.663
61194W        W26421  27.846   9.924  11.589
61195W        W26422   6.974  16.184   2.831
61196W        W26423  40.336   2.763   4.504
61197W        W26424  20.562  15.325   3.299
61198W        W26425  17.252  37.222  12.102
61199W        W26426  23.599  14.301   3.209
61200W        W26427  29.602  18.249  11.596
61201W        W26428  21.032  19.714   4.620
61202W        W26429  17.449   8.714   4.132
61203W        W26430   3.804  11.630   1.736
61204W        W26431   5.488  11.201   2.333
61205W        W26432  37.128  18.296   0.726
61206W        W26433  23.681  36.423  13.940
61207W        W26434  28.987   1.016   1.181
61208W        W26435   5.246  23.192  12.595
61209W        W26436  31.960  43.816  13.578
61210W        W26437  28.589  23.693  13.821
61211W        W26438  25.978  12.066  14.507
61212W        W26439  39.405  38.076   1.330
61213W        W26440   1.774   2.482  12.849
61214W        W26441   0.988   2.364   1.746
61215W        W26442  18.884  10.695   2.947
61216W        W26443   0.908  38.873   3.114
61217W        W26444  34.369  10.473   2.170
61218W        W26445  38.657  13.828   0.426
61219W        W26446  40.953  31.670  12.401
61220W        W26447  20.755  25.276  11.690
61221W        W26448  41.425   6.879   4.117
61222W        W26449  34.892   6.420  13.309
61223W        W26450  39.920  43.910  10.907
61224W        W26451   1.906  33.702  13.192
61225W        W26452   4.672  40.292  11.464
61226W        W26453   6.756  15.685  13.391
61227W        W26454  42.421  29.763   4.157
61228W        W26455   5.266  16.327   0.418
61229W        W26456  19.494  25.383  14.813
61230W        W26457  38.581  20.074  14.491
61231W        W26458  25.415  20.122  12.071
61232W        W26459  18.117   0.265  12.056
61233W        W26460  16.899  31.997   4.134
61234W        W26461  43.585  28.595   0.033
61235W        W26462   7.811  36.159   9.873
61236W        W26463   1.120  19.574  13.795
61237W        W26464  29.955  27.742  13.095
61238W        W26465  43.975   3.896   3.084
61239W        W26466   2.867  29.026   0.745
61240W        W26467  10.809  27.873   1.308
61241W        W26468   5.986  37.397   4.344
61242W        W26469  19.714   4.348   0.901
61243W        W26470  17.635  37.389   0.063
61244W        W26471  16.531  14.637  11.189
61245W        W26472  17.041  28.978   3.672
61246W        W26473   7.746   7.887   2.608
61247W        W26474  32.395  16.312   0.845
61248W        W26475  21.430  26.902  14.190
61249W        W26476   8.913  41.765   1.874
61250W        W26477  42.872  15.032  12.038
61251W        W26478  31.952  40.758   2.816
61252W        W26479   1.246   9.557  13.918
61253W        W26480  20.708   7.934   3.290
61254W        W26481  11.154   2.262   1.842
61255W        W26482  39.033   9.391  11.631
61256W        W26483  15.461  13.662   3.236
61257W        W26484  20.754  28.588   3.212
61258W        W26485  12.257  10.204   2.710
61259W        W26486   0.416  44.542   1.654
61260W        W26487  39.039  38.434   4.772
61261W        W26488  25.222  28.441   4.663
61262W        W26489  13.393  34.562   3.302
61263W        W26490   2.966  40.037  11.793
61264W        W26491  29.441  26.281  12.013
61265W        W26492  27.529  27.738   0.400
61266W        W26493  17.543  17.635  13.061
61267W        W26494  13.685   4.198   4.688
61268W        W26495  29.716  11.825   1.120
61269W        W26496  12.898   2.134   3.619
61270W        W26497  39.462  16.362  12.593
61271W        W26498  17.675  31.818  11.021
61272W        W26499   6.922  38.416   2.411
61273W        W26500  20.768  12.692   4.595
61274W        W26501  42.573  12.093  14.002
61275W        W26502  38.303   6.458  14.766
61276W        W26503   6.156  22.703  11.184
61277W        W26504  22.048  37.852  12.570
61278W        W26505  24.822  41.050   0.947
61279W        W26506  32.159  40.736   2.302
61280W        W26507  27.440  42.289   1.878
61281W        W26508  43.251  27.126  11.805
61282W        W26509   9.329  41.956  10.919
61283W        W26510  33.526   3.876  11.656
61284W        W26511  32.165  30.306  14.232
61285W        W26512   3.205  32.465   4.232
61286W        W26513   0.318  14.086   4.628
61287W        W26514  18.877  39.930   1.829
61288W        W26515  39.631  29.116  13.718
61289W        W26516   1.283  38.552   0.404
61290W        W26517  44.303  18.768  13.864
61291W        W26518  11.615  30.415   1.395
61292W        W26519   9.892  23.342  14.944
61293W        W26520  23.130  15.823  13.801
61294W        W26521   4.152  26.119  10.679
61295W        W26522   0.950  14.400   1.442
61296W        W26523  16.148  18.595   3.144
61297W        W26524  17.726   6.257  13.755
61298W        W26525  25.020  18.430  12.368
61299W        W26526  35.053  28.362  10.660
61300W        W26527  43.953  31.188  12.569
61301W        W26528  16.172  19.115   4.410
61302W        W26529   7.924  14.075  12.132
61303W        W26530  16.176   2.855  12.019
61304W        W26531   0.276   3.883  14.019
61305W        W26532  20.426   4.794  12.968
61306W        W26533  17.271  16.757   3.255
61307W        W26534  21.220  15.601   4.018
61308W        W26535  24.651  15.132   2.221
61309W        W26536   9.362  17.874   9.684
61310W        W26537  32.121  18.594   3.663
61311W        W26538  28.204  12.966  11.136
61312W        W26539  38.372  17.267  11.655
61313W        W26540   4.890  24.323   3.085
61314W        W26541   0.183  41.835   3.195
61315W        W26542  32.194  40.369   3.671
61316W        W26543  34.532   4.136   0.901
61317W        W26544   5.927  26.988   2.779
61318W        W26545  18.019  34.124   2.816
61319W        W26546   9.658  26.332   4.613
61320W        W26547  21.659   2.299  10.473
61321W        W26548   3.874  16.816   3.784
61322W        W26549  12.416   2.734   4.733
61323W        W26550  24.667  22.579  13.447
61324W        W26551   9.893  33.680   5.411
61325W        W26552  21.522   4.614  11.732
61326W        W26553   5.210  32.988  12.514
61327W        W26554  43.927  32.910  10.667
61328W        W26555   3.230   3.664   4.687
61329W        W26556  21.403  16.365  11.913
61330W        W26557   0.673   1.953   1.685
61331W        W26558   3.281  29.521   2.769
61332W        W26559  36.834  37.040   2.704
61333W        W26560  32.228  20.643   2.221
61334W        W26561  16.994  10.427  11.638
61335W        W26562  12.110  32.817  12.426
61336W        W26563  39.605   1.608   4.061
61337W        W26564  28.234  26.718   5.372
61338W        W26565  18.015   9.781  12.048
61339W        W26566   5.374   7.178  11.428
61340W        W26567   8.659   6.342   4.131
61341W        W26568  16.817  33.377  14.800
61342W        W26569  33.423  16.029   2.212
61343W        W26570   8.893  17.211  14.871
61344W        W26571  19.067  38.216   2.204
61345W        W26572  21.052  35.363  12.019
61346W        W26573   9.976  13.650  12.519
61347W        W26574  31.492  16.171  10.695
61348W        W26575  10.096  36.438   1.355
61349W        W26576  23.411   3.349  10.385
61350W        W26577  43.459  20.153  14.052
61351W        W26578   4.962   8.199  12.604
61352W        W26579  23.268   2.246   1.216
61353W        W26580  21.057  29.649  10.382
61354W        W26581  40.662  42.373  13.013
61355W        W26582   8.222   6.006  10.880
61356W        W26583  37.492  15.167  10.685
61357W        W26584  44.210  44.263   2.211
61358W        W26585  17.828  33.548   3.597
61359W        W26586  28.093  27.838  14.020
61360W        W26587   3.716  15.073   1.738
61361W        W26588   4.894   6.671   3.729
61362W        W26589  40.996  26.264  14.725
61363W        W26590  24.961  20.005   1.269
61364W        W26591  19.066   2.671   3.768
61365W        W26592  38.733  23.182  10.366
61366W        W26593  20.746  30.505   2.127
61367W        W26594  24.458  43.331  11.931
61368W        W26595  35.454  37.118  11.407
61369W        W26596  10.109   1.742  11.194
61370W        W26597  29.453   5.523  11.091
61371W        W26598   4.892  20.414  11.178
61372W        W26599  37.856  38.151   1.810
61373W        W26600  22.696  43.985  14.241
61374W        W26601  29.397   8.204   4.928
61375W        W26602  26.247  43.274   0.478
61376W        W26603  39.330  20.159  10.936
61377W        W26604  35.038  42.810   0.403
61378W        W26605  26.762  27.181   3.190
61379W        W26606  40.539  26.943   4.092
61380W        W26607   0.612  36.163  14.365
61381W        W26608  36.565  19.297   3.778
61382W        W26609  40.603  25.001   2.636
61383W        W26610   8.210  14.135   4.973
61384W        W26611   1.359  24.456  13.761
61385W        W26612  18.545  11.177   1.170
61386W        W26613  25.836  20.821   1.710
61387W        W26614   1.848  42.696   0.376
61388W        W26615  42.750  18.364  11.917
61389W        W26616  14.340  28.073   1.212
61390W        W26617  28.201  41.082  14.849
61391W        W26618  12.792  36.297  11.174
61392W        W26619   4.467   0.130   2.190
61393W        W26620  39.722  29.430   0.251
61394W        W26621  21.279   2.830   0.442
61395W        W26622  26.962  37.214  11.094
61396W        W26623  38.424  20.185   4.365
61397W        W26624  21.534  36.966  11.503
61398W        W26625  22.596   3.154  13.103
61399W        W26626  40.693  40.647   0.926
61400W        W26627   5.015  35.143   0.093
61401W        W26628  20.611  17.599  11.158
61402W        W26629   9.796   2.154  10.477
61403W        W26630  16.823  30.368  14.007
61404W        W26631  28.043  24.863  10.322
61405W        W26632  33.960   2.569   3.392
61406W        W26633  30.343  26.231  13.490
61407W        W26634  30.679  40.844  12.049
61408W        W26635  15.056  14.611  11.924
61409W        W26636  18.759   8.978  13.362
61410W        W26637  17.654  28.135  12.754
61411W        W26638   8.386  29.155   1.328
61412W        W26639  11.825  11.352   2.838
61413W        W26640  35.878  28.381   3.387
61414W        W26641  17.003  26.168  14.313
61415W        W26642  41.807  27.339  11.573
61416W        W26643  18.842  16.401  14.941
61417W        W26644  17.563  23.924  13.011
61418W        W26645  14.644  42.790   2.461
61419W        W26646  28.744   7.463  13.526
61420W        W26647   5.363   0.024   4.628
61421W        W26648   1.925  31.001  13.035
61422W        W26649   8.251  13.642   3.286
61423W        W26650  16.194  12.120   0.314
61424W        W26651  18.253  12.913   1.475
61425W        W26652  13.921  21.289  11.449
61426W        W26653   1.472  40.903   1.906
61427W        W26654  10.067  39.132  13.007
61428W        W26655   6.438  24.977   0.377
61429W        W26656  12.662  28.500   1.224
61430W        W26657  26.920   3.464  11.428
61431W        W26658  44.287  19.669   1.298
61432W        W26659  14.526  40.034  13.944
61433W        W26660  11.911  27.200  12.916
61434W        W26661  34.525  14.315   5.019
61435W        W26662  18.826   4.678   1.327
61436W        W26663  18.495   0.642   1.866
61437W        W26664  35.710  40.894   4.157
61438W        W26665  36.794   8.826   3.507
61439W        W26666  21.853  20.164  11.434
61440W        W26667  26.682  13.589  14.990
61441W        W26668  42.346  44.186   4.092
61442W        W26669  37.366  42.265   2.790
61443W        W26670   7.037  26.270   3.836
61444W        W26671  18.589  10.679  12.011
61445W        W26672  26.843   9.756   1.499
61446W        W26673  14.699  40.243  13.488
61447W        W26674  19.121   7.343  13.181
61448W        W26675   8.137  15.049   5.103
61449W        W26676  25.968  14.901   1.311
61450W        W26677   1.566  18.045  11.083
61451W        W26678  15.492  19.786  12.076
61452W        W26679  30.429  27.326  12.196
61453W        W26680  18.368  25.349   0.842
61454W        W26681  20.064   8.724  10.087
61455W        W26682  36.012  16.505   3.222
61456W        W26683  13.699  17.044   3.752
61457W        W26684   6.130  18.305   2.705
61458W        W26685   5.010  41.738   2.337
61459W        W26686  41.918  42.873   1.222
61460W        W26687  10.078   5.908   3.650
61461W        W26688   3.267  16.180   3.615
61462W        W26689  14.087  22.012  10.843
61463W        W26690   1.410  15.831  11.550
61464W        W26691  19.666  24.054   3.339
61465W        W26692  17.640   6.518   4.585
61466W        W26693  37.667  18.509   2.219
61467W        W26694  13.045  25.401  12.049
61468W        W26695   7.031  21.230   3.542
61469W        W26696  14.126  22.969  14.432
61470W        W26697  23.068  25.458   4.160
61471W        W26698  37.457  20.832   1.281
61472W        W26699  27.901  40.778   0.983
61473W        W26700  24.585   3.202   0.292
61474W        W26701  41.380   4.988   5.009
61475W        W26702  25.628  19.256  11.518
61476W        W26703  34.020   6.168  13.057
61477W        W26704  44.790  39.593   4.651
61478W        W26705  33.838  20.437   1.488
61479W        W26706  43.368  10.086  10.934
61480W        W26707  29.738   3.330  13.078
61481W        W26708  24.568  13.829  12.650
61482W        W26709  43.893  28.911  11.816
61483W        W26710  20.027   9.309  10.634
61484W        W26711   0.936  19.607   2.353
61485W        W26712   0.519   0.505  12.512
61486W        W26713   5.690  14.678  13.083
61487W        W26714  39.933  29.489   2.509
61488W        W26715  25.973  38.464   2.275
61489W        W26716  40.134   5.912   3.583
61490W        W26717  42.712   2.975  13.147
61491W        W26718  39.352  21.478  12.655
61492W        W26719  44.262  41.994   4.174
61493W        W26720  11.271  22.318   3.509
61494W        W26721  24.663  10.127  12.980
61495W        W26722   2.023  21.707   2.369
61496W        W26723  40.991  44.369   4.147
61497W        W26724  34.361  39.626   0.974
61498W        W26725  35.464  29.349  14.401
61499W        W26726  33.084  30.938   0.038
61500W        W26727  44.534  33.509  12.477
61501W        W26728  15.661  31.460   4.691
61502W        W26729  44.869  31.025   5.485
61503W        W26730  27.081  31.664   0.331
61504W        W26731  19.999   2.904   1.826
61505W        W26732  15.649  16.814   0.450
61506W        W26733  28.141  20.968  11.592
61507W        W26734  21.240  37.368   0.321
61508W        W26735  18.745  27.213  11.255
61509W        W26736  20.556  21.560   1.527
61510W        W26737   1.829  32.147   1.309
61511W        W26738  26.401  43.067  14.781
61512W        W26739  17.154  29.742   0.945
61513W        W26740  15.714  14.892  12.918
61514W        W26741   6.273  42.567   5.061
61515W        W26742  15.291  23.445   2.949
61516W        W26743  42.755  34.405  12.993
61517W        W26744  17.033  43.532  14.810
61518W        W26745  42.766  27.893   3.722
61519W        W26746  30.131   3.538  14.023
61520W        W26747  39.403  44.443   1.731
61521W        W26748  44.251  25.826   1.380
61522W        W26749   7.194  42.959  10.681
61523W        W26750  14.993  15.218   1.691
61524W        W26751  10.372   2.860   2.857
61525W        W26752  10.926  42.612  14.331
61526W        W26753  36.264  22.797  14.513
61527W        W26754   2.252   3.697  11.872
61528W        W26755  33.384  38.596   3.103
61529W        W26756   3.259   3.223   4.950
61530W        W26757   7.320  23.426   1.120
61531W        W26758  29.840  39.542   3.708
61532W        W26759  10.830  17.183   0.176
61533W        W26760   9.310  29.011  13.938
61534W        W26761  43.815  29.571  14.340
61535W        W26762  31.830   3.860  12.467
61536W        W26763  31.979   0.029   2.545
61537W        W26764  35.161  30.991   3.745
61538W        W26765   1.321   7.238  11.927
61539W        W26766  28.984   1.112   4.042
61540W        W26767  31.507  42.256   3.735
61541W        W26768  23.706  21.384  11.045
61542W        W26769  22.520  13.621  11.227
61543W        W26770  34.639  35.882   3.017
61544W        W26771  15.101  17.492  12.925
61545W        W26772  26.685  10.183  11.812
61546W        W26773  39.936  18.565  12.622
61547W        W26774  18.524  11.916   2.912
61548W        W26775  41.750  26.009  11.648
61549W        W26776  39.821  16.095  11.079
61550W        W26777  43.829   2.544   2.315
61551W        W26778  16.458  22.172   2.274
61552W        W26779  34.897  28.627  10.252
61553W        W26780   0.499   3.711  10.719
61554W        W26781  20.256   0.839  14.356
61555W        W26782  39.103  39.312  11.206
61556W        W26783  32.603  31.403  11.538
61557W        W26784   0.989   1.840   4.054
61558W        W26785   0.541   4.419  13.818
61559W        W26786  37.211  38.521   1.224
61560W        W26787  30.654  23.752   3.296
61561W        W26788   0.043  38.708   4.833
61562W        W26789   2.374   7.829  12.144
61563W        W26790  36.177  38.589  11.035
61564W        W26791  37.492  39.393   0.374
61565W        W26792  39.565  38.592  10.734
61566W        W26793  31.200  25.757   0.579
61567W        W26794  19.166  19.803   1.985
61568W        W26795  43.238  20.548   1.947
61569W        W26796  29.319  36.088  13.295
61570W        W26797  24.741   9.291  13.321
61571W        W26798  22.939   6.947   0.337
61572W        W26799  29.578   2.075  11.044
61573W        W26800  22.941   0.260   3.119
61574W        W26801  12.720  44.507   4.609
61575W        W26802  10.354   7.632   1.347
61576W        W26803  40.437  23.478   1.798
61577W        W26804   3.523  21.548   2.441
61578W        W26805  24.250  16.767   3.419
61579W        W26806  25.049  20.985   0.539
61580W        W26807  13.285  11.154   2.772
61581W        W26808  33.524   8.509  10.121
61582W        W26809  19.325  16.281  14.801
61583W        W26810  41.423  10.244  12.428
61584W        W26811   5.740  43.792  12.986
61585W        W26812   1.514  15.239  11.097
61586W        W26813  22.461  13.299   4.189
61587W        W26814   0.848  24.924   1.440
61588W        W26815  42.475   1.914   1.831
61589W        W26816  19.427  41.843  10.430
61590W        W26817  10.733  41.057   4.120
61591W        W26818  11.545   7.495   1.367
61592W        W26819   5.199  14.887   3.628
61593W        W26820   5.036  17.476  11.432
61594W        W26821  34.924  43.280   2.287
61595W        W26822  30.442  39.392   3.012
61596W        W26823  13.859   7.896   1.625
61597W        W26824  14.751  26.945   3.608
61598W        W26825  19.302  32.268   2.882
61599W        W26826  16.239  21.956  14.525
61600W        W26827  21.534  38.075   1.963
61601W        W26828   6.257  20.068  12.018
61602W        W26829   2.839   0.434  13.847
61603W        W26830  21.977  37.599   3.678
61604W        W26831   4.267  22.913   2.292
61605W        W26832  17.182  31.540  13.701
61606W        W26833   9.439  15.593   2.517
61607W        W26834  14.700   4.054  14.926
61608W        W26835  21.270  11.717   0.770
61609W        W26836  16.868  28.674   0.291
61610W        W26837  39.721  23.043   2.775
61611W        W26838  29.873  19.100   1.893
61612W        W26839  24.498  36.788  14.365
61613W        W26840  31.665   1.950   4.382
61614W        W26841  31.240  27.919  13.514
61615W        W26842  24.266  19.475  12.946
61616W        W26843  43.966  37.774   1.769
61617W        W26844  14.920  16.754  12.021
61618W        W26845  20.600  26.160  11.186
61619W        W26846  35.267   6.576   1.984
61620W        W26847  35.320  10.110   4.217
61621W        W26848  35.526   0.246   0.925
61622W        W26849  44.711  30.091  12.420
61623W        W26850  30.188   4.567  12.518
61624W        W26851  12.629  36.132  12.891
61625W        W26852  25.373  22.201  11.109
61626W        W26853  22.627   8.889   0.585
61627W        W26854  29.811   2.225   2.009
61628W        W26855  21.211  10.965  14.462
61629W        W26856  43.387   6.528   5.476
61630W        W26857  27.473   8.312   3.174
61631W        W26858  18.559   1.362   4.556
61632W        W26859  28.576   4.018  10.626
61633W        W26860  35.240   0.798  11.439
61634W        W26861  10.580   4.722   1.439
61635W        W26862  18.592   2.928   1.883
61636W        W26863  43.949  35.161  13.178
61637W        W26864  29.878  36.841   3.574
61638W        W26865  20.232   3.616   0.518
61639W        W26866  23.452  36.446   1.309
61640W        W26867  26.536   9.267  13.238
61641W        W26868  27.154   3.719  12.059
61642W        W26869  24.229   2.016  13.167
61643W        W26870  36.404  18.198  12.634
61644W        W26871  11.336  43.048  13.009
61645W        W26872  29.279   4.432   4.970
61646W        W26873  36.958  22.148  11.665
61647W        W26874  24.495  42.818   2.472
61648W        W26875  30.967  30.348  11.513
61649W        W26876   1.429  21.919  10.661
61650W        W26877  20.025  34.920  14.744
61651W        W26878  23.675   5.276   3.513
61652W        W26879  18.542  29.965   0.854
61653W        W26880  29.905  31.691  10.702
61654W        W26881  10.934  15.601  13.339
61655W        W26882  35.407  44.899  11.911
61656W        W26883   5.170  26.962  12.018
61657W        W26884  32.375   4.701  12.457
61658W        W26885  40.165  24.405   0.654
61659W        W26886  24.649  27.602   2.317
61660W        W26887   0.155  22.874  12.971
61661W        W26888   4.384  19.266  11.671
61662W        W26889  34.386  30.345  11.621
61663W        W26890  23.973  24.965   0.961
61664W        W26891   8.434   9.092  11.420
61665W        W26892  22.945  43.943  11.611
61666W        W26893  26.353  23.510   1.891
61667W        W26894  37.053  21.526   4.543
61668W        W26895  18.577   6.336  14.198
61669W        W26896  22.960  15.675   1.928
61670W        W26897  27.569   2.740  11.651
61671W        W26898  18.550  20.421  14.891
61672W        W26899  40.583  20.237  11.602
61673W        W26900  28.903  22.764   1.915
61674W        W26901  35.416   2.637  11.242
61675W        W26902  17.158  32.243   0.035
61676W        W26903  39.703  28.611   3.662
61677W        W26904  20.949  15.723  12.448
61678W        W26905  22.411  29.952  13.772
61679W        W26906   8.490   1.694   4.570
61680W        W26907  35.006  34.889  11.110
61681W        W26908  17.430  32.060  11.809
61682W        W26909  38.273  40.803   0.931
61683W        W26910   0.848  16.045  11.567
61684W        W26911  40.715  30.205   0.083
61685W        W26912  27.689   5.803  10.798
61686W        W26913  27.560  36.102   2.853
61687W        W26914  36.409  25.080   4.566
61688W        W26915  18.056  22.760  14.745
61689W        W26916  11.194  31.971   0.958
61690W        W26917  41.349   2.051  14.885
61691W        W26918  31.357   4.224  11.248
61692W        W26919  13.311  14.875  11.470
61693W        W26920  19.257  15.987   1.263
61694W        W26921   0.635  17.084  13.849
61695W        W26922  15.664   7.291   0.932
61696W        W26923   0.788   1.252   2.359
61697W        W26924  43.336  33.197   4.551
61698W        W26925  28.440  18.642   4.357
61699W        W26926  31.811  29.062  10.673
61700W        W26927  20.773  19.484  14.463
61701W        W26928   5.808   0.069   1.190
61702W        W26929  36.839  18.321   1.603
61703W        W26930  17.023  16.965  10.270
61704W        W26931   7.319   3.459   0.990
61705W        W26932  22.734  25.171  12.014
61706W        W26933   0.143  39.805  12.754
61707W        W26934   2.817  21.254  13.765
61708W        W26935   5.810  37.511   1.022
61709W        W26936   5.456   0.940   3.261
61710W        W26937  10.824   4.040   0.394
61711W        W26938  14.970   2.781   2.406
61712W        W26939  33.857  11.605  12.592
61713W        W26940  34.661  34.891   3.271
61714W        W26941  37.340  23.661  14.382
61715W        W26942  40.883  16.503   3.053
61716W        W26943  37.144  33.335   0.821
61717W        W26944  40.892  17.653   4.617
61718W        W26945   5.479  22.542  10.628
61719W        W26946  42.111  16.259   3.684
61720W        W26947  43.826  29.763  13.873
61721W        W26948  19.659   2.689   4.268
61722W        W26949   5.224  32.485   4.068
61723W        W26950  26.878  16.130   0.431
61724W        W26951   8.614  41.510  11.020
61725W        W26952   3.982  18.778  12.237
61726W        W26953  31.131  38.221  14.277
61727W        W26954  30.592  20.097   2.239
61728W        W26955  27.138  32.238  14.408
61729W        W26956  33.641   7.409  12.047
61730W        W26957  33.496  23.433   0.321
61731W        W26958  29.123  32.872   1.296
61732W        W26959   2.253  29.564   3.634
61733W        W26960   4.507  35.547  11.993
61734W        W26961  29.654  38.518  11.818
61735W        W26962  35.511   0.782  11.923
61736W        W26963   0.109  31.978   4.018
61737W        W26964  37.021  19.689   1.220
61738W        W26965  34.827  13.261  13.289
61739W        W26966  17.563  21.659   4.148
61740W        W26967  27.216  16.427   1.265
61741W        W26968  10.672  26.584   4.661
61742W        W26969  11.386   8.098  12.168
61743W        W26970   0.233   0.240  14.688
61744W        W26971  23.268  35.876   2.745
61745W        W26972  10.573  25.973   0.734
61746W        W26973  20.482   3.066  10.763
61747W        W26974  14.179  20.358   0.637
61748W        W26975  42.720  13.402  11.207
61749W        W26976   3.233   2.731  14.309
61750W        W26977  20.786   1.664   2.769
61751W        W26978   5.620  26.385   1.383
61752W        W26979  38.034  35.163  14.798
61753W        W26980  10.586  22.186   1.892
61754W        W26981  12.631  44.293   5.066
61755W        W26982  44.369   4.224   3.055
61756W        W26983  22.100  39.080   1.344
61757W        W26984  28.791  25.028  11.536
61758W        W26985  19.817  34.969  13.810
61759W        W26986   5.648  15.159   0.040
61760W        W26987  43.005  28.894  11.797
61761W        W26988   2.266  40.591  14.391
61762W        W26989  18.311  41.020  13.717
61763W        W26990  10.286  26.912   0.372
61764W        W26991  17.184  18.728   2.922
61765W        W26992  19.480  29.945   1.083
61766W        W26993   3.070  43.306   2.126
61767W        W26994   4.191  14.394   5.032
61768W        W26995  27.531  32.514  12.585
61769W        W26996   5.196  24.269  14.735
61770W        W26997   4.501  19.293  12.178
61771W        W26998   0.345   3.528  12.514
61772W        W26999  21.002   9.845   4.509
61773W        W27000   1.476  15.230  12.188
61774W        W27001   9.741  13.698  12.073
61775W        W27002  13.751  42.393  14.781
61776W        W27003   0.646  31.913   2.920
61777W        W27004  37.355  29.206   1.030
61778W        W27005  29.559  34.560  10.630
61779W        W27006  26.409  10.781   5.166
61780W        W27007  42.199  33.621   1.583
61781W        W27008  18.564  14.674  12.116
61782W        W27009  24.669  36.303   0.345
61783W        W27010  36.583  25.544   0.401
61784W        W27011  10.956  29.929   3.325
61785W        W27012  31.402  17.002  12.017
61786W        W27013  40.124  21.981  12.031
61787W        W27014   1.260   0.958   2.828
61788W        W27015   0.777  18.783  13.910
61789W        W27016   4.325  41.831   3.701
61790W        W27017  33.538   3.648  14.531
61791W        W27018  17.070   4.334   2.755
61792W        W27019  15.039  11.617  14.352
61793W        W27020   3.412  16.866   1.899
61794W        W27021  42.174  10.872   0.668
61795W        W27022  29.531  37.318   2.282
61796W        W27023  42.096  17.891  11.896
61797W        W27024   3.512  11.446   3.645
61798W        W27025   1.394   7.455  11.066
61799W        W27026  39.307  15.731   0.660
61800W        W27027  23.649   3.683  14.512
61801W        W27028  34.401  19.403  11.612
61802W        W27029   8.309  34.375  10.372
61803W        W27030  20.094   6.718   4.577
61804W        W27031  30.947  18.118   4.690
61805W        W27032  43.071  26.558  11.611
61806W        W27033  16.769  34.653   0.319
61807W        W27034  23.096  23.072   2.699
61808W        W27035  24.585  36.187  12.992
61809W        W27036  25.156   4.659  11.204
61810W        W27037  25.431  12.366  14.321
61811W        W27038  20.062   6.529   1.632
61812W        W27039  14.843  15.341   4.235
61813W        W27040   3.184  18.486  12.530
61814W        W27041  15.213  38.509  12.916
61815W        W27042  29.546  35.871  13.743
61816W        W27043  33.632  16.617  11.730
61817W        W27044  10.604   6.697  13.936
61818W        W27045  33.118   4.365   1.828
61819W        W27046  41.470  31.417  14.551
61820W        W27047   7.631  21.987   1.712
61821W        W27048  22.727  37.894  13.745
61822W        W27049   8.408   2.904   1.884
61823W        W27050  21.879   0.415  10.297
61824W        W27051  35.142  38.968   4.727
61825W        W27052  31.642  19.538  11.192
61826W        W27053  13.373  26.554   4.301
61827W        W27054  31.467   0.527  14.855
61828W        W27055  15.329   9.158   3.715
61829W        W27056   9.735   9.143   4.515
61830W        W27057  14.665  26.328  10.304
61831W        W27058  12.533  40.400   2.721
61832W        W27059  10.941  27.996  11.167
61833W        W27060  36.369  36.859   2.655
61834W        W27061  32.154  12.435  13.189
61835W        W27062  42.985  33.492  11.670
61836W        W27063  38.937  19.372  10.569
61837W        W27064   1.344  11.099   1.835
61838W        W27065   4.344  10.886  14.262
61839W        W27066  38.476   7.440   2.127
61840W        W27067  17.460  11.788  14.042
61841W        W27068  22.333  29.132  10.740
61842W        W27069  30.673  42.376   0.641
61843W        W27070  21.231  32.950   2.276
61844W        W27071  32.064  20.221  13.369
61845W        W27072  44.271  32.621  11.565
61846W        W27073  30.796  29.681  12.628
61847W        W27074  25.799  12.335   3.664
61848W        W27075  24.476   3.460  12.642
61849W        W27076  28.191  24.640  13.539
61850W        W27077  27.916  28.485   3.100
61851W        W27078   9.676  24.076  11.990
61852W        W27079  22.189  43.022  13.442
61853W        W27080  24.525  42.484  14.641
61854W        W27081  39.164   3.769   5.149
61855W        W27082  20.417   6.268  13.983
61856W        W27083  16.107  41.717  13.258
61857W        W27084  32.127  11.924  13.274
61858W        W27085  30.667  24.018   4.622
61859W        W27086  24.753  24.265   0.517
61860W        W27087   3.061  33.465  14.531
61861W        W27088   1.399  19.798   2.286
61862W        W27089  18.984  20.691  14.894
61863W        W27090  23.396  35.389   2.895
61864W        W27091  44.361  10.954   4.331
61865W        W27092  36.059  24.961   2.151
61866W        W27093  23.869  22.040  13.435
61867W        W27094  35.471  39.244   4.148
61868W        W27095  32.106  23.010  13.357
61869W        W27096  26.535  19.014   2.212
61870W        W27097   4.301  25.079   3.385
61871W        W27098  34.419   9.311  10.764
61872W        W27099  19.827  15.721  13.901
61873W        W27100  30.772  29.227  12.393
61874W        W27101   4.938  23.244  10.861
61875W        W27102  26.442  33.618   3.110
61876W        W27103  15.719   0.786   0.413
61877W        W27104   9.360  30.252   3.721
61878W        W27105   6.966  40.995  13.037
61879W        W27106  24.425   4.379  14.844
61880W        W27107   9.568  18.101   1.240
61881W        W27108  40.367  33.451  12.022
61882W        W27109  33.010   4.479  10.694
61883W        W27110  22.186   1.926  12.839
61884W        W27111  43.360  30.188   3.155
61885W        W27112   0.575  13.158   5.016
61886W        W27113  37.686  36.311   4.088
61887W        W27114  12.366  32.458  12.105
61888W        W27115   4.465  15.616   5.049
61889W        W27116  31.000  28.897  13.166
61890W        W27117   5.276  34.911   3.383
61891W        W27118  40.867  18.777   0.283
61892W        W27119   6.226   7.420  13.942
61893W        W27120   2.898  35.774  14.911
61894W        W27121  12.414  16.141   0.387
61895W        W27122  10.832  21.177   4.568
61896W        W27123  28.293  39.679   2.741
61897W        W27124  18.902  33.298   2.682
61898W        W27125  19.667  20.096  13.913
61899W        W27126   4.717  25.950   3.634
61900W        W27127   9.369  24.954   4.269
61901W        W27128  33.103  44.866  14.042
61902W        W27129  37.551   5.338  10.683
61903W        W27130  26.958  41.825   2.842
61904W        W27131  41.792  10.682   4.419
61905W        W27132  23.033  20.490   1.207
61906W        W27133  17.643  15.866   2.475
61907W        W27134  30.155  27.407  14.688
61908W        W27135   8.337  18.538   1.246
61909W        W27136  22.486  30.980   2.246
61910W        W27137  32.153  12.780  14.507
61911W        W27138  24.950   7.329  13.950
61912W        W27139  14.593   6.874  12.940
61913W        W27140  14.422  16.604   2.738
61914W        W27141  26.500  23.030  12.414
61915W        W27142  31.363  38.011   4.818
61916W        W27143  24.374  19.521  10.175
61917W        W27144  33.601  14.056  11.554
61918W        W27145  13.607  42.881  13.815
61919W        W27146   5.636  19.772   4.188
61920W        W27147  20.236  22.285  14.033
61921W        W27148  11.238   8.414   0.564
61922W        W27149  32.982  18.165  14.299
61923W        W27150  22.880  21.984  14.943
61924W        W27151  34.813  15.606   2.666
61925W        W27152  18.363  44.302   1.771
61926W        W27153  28.626   3.464  11.873
61927W        W27154  10.355  34.416   1.933
61928W        W27155  28.893   1.283   1.839
61929W        W27156  39.088  16.666  10.108
61930W        W27157  11.701   6.737   1.808
61931W        W27158  33.584   4.629  12.137
61932W        W27159  38.087   4.808  13.413
61933W        W27160  35.398   8.553  14.007
61934W        W27161  39.926  15.571   2.325
61935W        W27162  17.732  18.813   1.386
61936W        W27163  36.965   1.237   4.836
61937W        W27164  25.124  18.729  11.015
61938W        W27165  43.989   9.904  13.937
61939W        W27166   7.380  38.119  12.489
61940W        W27167  35.793   4.943   1.750
61941W        W27168   6.196  24.933  13.941
61942W        W27169  37.489  16.645  14.903
61943W        W27170  10.676  41.841   4.611
61944W        W27171  21.209  43.788  11.700
61945W        W27172  37.983  13.845  11.626
61946W        W27173  18.033  18.541  13.357
61947W        W27174  43.980  37.808   0.909
61948W        W27175  23.596  35.126   2.170
61949W        W27176   9.786  31.384   4.728
61950W        W27177   9.141  30.882  12.152
61951W        W27178  38.242  24.049   4.237
61952W        W27179  34.755  15.014  13.914
61953W        W27180  32.998   0.280   0.023
61954W        W27181   0.472  10.200   3.778
61955W        W27182  25.522  39.316  10.600
61956W        W27183   0.089  10.149   1.465
61957W        W27184  35.828  32.583  13.319
61958W        W27185   1.775  36.884  11.917
61959W        W27186  36.903  21.067  10.916
61960W        W27187  10.820  11.438  13.368
61961W        W27188   1.811  35.364  11.875
61962W        W27189  39.406  26.097  13.961
61963W        W27190  16.267  44.849   2.235
61964W        W27191  21.952  32.854   2.773
61965W        W27192  44.269  13.766  13.942
61966W        W27193  40.010   7.027   4.815
61967W        W27194   8.803  35.060  13.057
61968W        W27195   9.944  11.672  11.101
61969W        W27196   7.700  37.340   2.712
61970W        W27197  43.500  33.999  13.997
61971W        W27198  16.178   5.373  11.186
61972W        W27199  25.002   2.337   3.439
61973W        W27200  30.460  28.577  12.120
61974W        W27201  20.290  19.748   0.382
61975W        W27202  23.552  40.699  14.333
61976W        W27203  42.076  28.636  14.981
61977W        W27204  14.867  30.407   2.594
61978W        W27205  10.126  44.916   3.990
61979W        W27206  18.054   3.873   2.448
61980W        W27207  17.865  32.696   2.367
61981W        W27208  15.837   5.746  12.104
61982W        W27209  25.659  33.093  11.643
61983W        W27210  36.659  28.888  14.792
61984W        W27211  30.910  25.463   2.223
61985W        W27212  24.728  28.947   3.605
61986W        W27213   9.672  30.627  13.476
61987W        W27214  27.560  32.165  12.062
61988W        W27215   7.405  16.696  14.484
61989W        W27216   5.455  33.175   2.423
61990W        W27217  36.952  12.231   2.588
61991W        W27218  31.899  11.112  12.968
61992W        W27219  31.670   6.825   2.823
61993W        W27220  20.447  28.244  14.867
61994W        W27221  34.045  20.674  13.965
61995W        W27222  11.880  15.163   3.620
61996W        W27223  15.543  25.631  11.670
61997W        W27224  37.573  38.007   0.847
61998W        W27225  18.124   2.407   2.121
61999W        W27226  25.491  20.036  13.173
62000W        W27227  15.005  27.023   1.760
62001W        W27228  28.437  44.324  10.685
62002W        W27229   0.528  28.711   4.235
62003W        W27230  24.290   4.299   2.600
62004W        W27231  12.248  17.791   2.872
62005W        W27232   8.217  39.993   4.562
62006W        W27233  33.044  34.952   2.161
62007W        W27234   9.719  22.172  11.265
62008W        W27235  22.454   3.879  12.929
62009W        W27236   4.483   3.822  12.072
62010W        W27237   6.350  42.987  11.092
62011W        W27238  42.208   2.071  12.035
62012W        W27239  32.231  30.316   4.078
62013W        W27240  10.715  33.958  12.039
62014W        W27241   8.393  34.866   4.625
62015W        W27242  35.004   2.456  11.479
62016W        W27243   2.014  13.307   4.667
62017W        W27244  10.416  19.793  14.428
62018W        W27245   5.188  28.601   5.568
62019W        W27246  16.067  24.589  11.582
62020W        W27247  28.469  20.605  14.010
62021W        W27248  11.335   3.587   1.737
62022W        W27249  43.044  30.512  11.941
62023W        W27250  15.147  32.930   2.772
62024W        W27251  29.066  28.054   3.223
62025W        W27252  10.762  37.791  10.777
62026W        W27253   7.288  44.183  13.022
62027W        W27254  18.103  42.928   4.576
62028W        W27255  18.656  31.377  13.119
62029W        W27256   4.467  12.618   1.069
62030W        W27257  30.900  30.416   4.194
62031W        W27258   3.995  20.388   4.242
62032W        W27259  42.345  16.984   2.213
62033W        W27260  32.826  24.942   0.466
62034W        W27261  22.787  20.590  10.679
62035W        W27262  44.791  39.653   2.829
62036W        W27263  39.060  37.105  13.993
62037W        W27264  34.659   1.493  14.264
62038W        W27265  16.653  18.998  10.731
62039W        W27266  33.527  20.228   2.132
62040W        W27267  38.326  42.931  13.326
62041W        W27268  43.428  34.365   0.536
62042W        W27269   8.717  31.634   2.976
62043W        W27270  32.626   3.288  13.519
62044W        W27271   6.068  22.206   2.699
62045W        W27272  37.015  44.217  14.359
62046W        W27273  39.588  26.943   0.220
62047W        W27274  44.702  36.357   1.249
62048W        W27275  29.573  40.311  12.361
62049W        W27276  11.467  13.236   0.429
62050W        W27277  26.664  31.493   1.858
62051W        W27278   6.254  14.381   1.272
62052W        W27279  23.675  33.839   1.447
62053W        W27280  41.420  15.674   4.026
62054W        W27281   0.688  41.127   2.663
62055W        W27282  34.186  38.794  12.188
62056W        W27283  29.500  16.733   0.988
62057W        W27284  25.988  40.994  10.885
62058W        W27285  31.914  21.084  13.576
62059W        W27286  38.203  25.301  11.912
62060W        W27287  26.859  28.379   2.879
62061W        W27288  33.615  42.481   2.872
62062W        W27289  35.702  17.332  12.013
62063W        W27290   2.839  39.355   4.503
62064W        W27291  33.180  36.222  14.006
62065W        W27292  43.987  10.143   0.738
62066W        W27293  18.148  31.421  12.043
62067W        W27294   3.790  23.221   5.114
62068W        W27295  21.905   4.502   3.640
62069W        W27296  25.038  20.275  13.233
62070W        W27297  42.818  24.297  14.057
62071W        W27298  28.794  35.096  14.433
62072W        W27299  31.250  43.271  13.924
62073W        W27300  32.753  15.533   3.753
62074W        W27301  30.385  44.273   3.620
62075W        W27302   4.325   5.866   2.775
62076W        W27303  24.763   9.442   0.345
62077W        W27304   3.210  30.115  14.812
62078W        W27305  31.955   0.830  14.035
62079W        W27306   0.687   9.708  12.863
62080W        W27307  10.845  24.933   0.848
62081W        W27308  35.739  32.428   2.241
62082W        W27309  35.575   7.486  13.100
62083W        W27310  26.609  18.692   4.490
62084W        W27311  38.241  31.706  11.163
62085W        W27312   4.628  25.060   1.310
62086W        W27313  37.540  32.805  10.756
62087W        W27314  16.092  13.202  11.858
62088W        W27315  26.032  41.091   2.197
62089W        W27316  39.132  39.368  14.248
62090W        W27317  11.071  41.839   0.335
62091W        W27318  37.560  18.807  13.489
62092W        W27319  34.844  22.002   4.151
62093W        W27320   0.881  41.859   0.330
62094W        W27321  12.704   9.166   4.103
62095W        W27322  28.815  24.576  13.395
62096W        W27323  23.124  44.938   9.736
62097W        W27324  42.331  18.796  14.869
62098W        W27325  24.473  22.671   1.323
62099W        W27326   1.706  24.666   2.029
62100W        W27327  42.973  27.958  14.219
62101W        W27328  42.267   7.712  13.082
62102W        W27329  25.598  29.888   2.003
62103W        W27330   4.610   7.197   3.223
62104W        W27331  27.744  34.713   4.488
62105W        W27332   2.415  10.064   0.360
62106W        W27333  18.734  22.488   1.316
62107W        W27334  23.603  44.256  12.168
62108W        W27335  20.769  33.416  11.981
62109W        W27336   1.404  32.712   4.604
62110W        W27337  12.554   8.894   4.548
62111W        W27338  40.076  23.482  10.750
62112W        W27339  23.547  38.774   3.732
62113W        W27340  18.191  35.144  14.325
62114W        W27341   7.444   3.726   2.872
62115W        W27342   4.668  19.861   1.680
62116W        W27343  38.648  24.691   2.328
62117W        W27344  43.915  19.394  12.521
62118W        W27345  33.381  29.234   2.467
62119W        W27346  18.070  31.714  11.626
62120W        W27347   9.347   0.251   2.426
62121W        W27348  27.582  12.726   0.556
62122W        W27349  36.586   8.586  14.068
62123W        W27350  35.389  24.693   4.145
62124W        W27351  19.328  17.744  12.905
62125W        W27352  40.856  40.002  10.466
62126W        W27353  34.581  28.851  12.013
62127W        W27354  10.555   5.134   2.757
62128W        W27355   5.734  18.711   4.112
62129W        W27356  28.029  13.956   1.603
62130W        W27357  17.995  25.036   1.045
62131W        W27358  22.632  13.381  10.755
62132W        W27359  29.914  28.433   3.180
62133W        W27360  42.929  22.275   2.725
62134W        W27361  24.954  13.405   0.731
62135W        W27362   0.267  40.301   1.843
62136W        W27363   6.279  34.819   3.619
62137W        W27364  37.405  12.279   4.396
62138W        W27365  42.374   4.482  10.685
62139W        W27366  12.927  11.712   4.859
62140W        W27367  27.623  29.884   0.326
62141W        W27368  10.531  25.123  14.187
62142W        W27369  22.157   8.716   0.435
62143W        W27370  35.074  12.556   5.260
62144W        W27371   5.935  22.741  10.721
62145W        W27372  14.929  27.644  11.956
62146W        W27373  30.112  31.798  14.064
62147W        W27374  40.063  41.757   3.313
62148W        W27375  20.921  29.288  13.025
62149W        W27376  31.402  12.091  12.105
62150W        W27377  40.949  42.293   3.122
62151W        W27378  36.107  31.405  10.607
62152W        W27379  29.735  16.727  14.800
62153W        W27380  18.179  31.917  11.172
62154W        W27381  35.504  29.504   4.781
62155W        W27382  36.063  10.235  10.983
62156W        W27383  20.489  39.835   0.883
62157W        W27384  20.277   5.890  13.666
62158W        W27385  37.016  41.797   2.104
62159W        W27386  28.575  14.297   9.863
62160W        W27387  36.399  29.177  13.403
62161W        W27388  32.040  25.805  11.475
62162W        W27389   8.604  44.321   4.580
62163W        W27390  17.173  22.551   3.781
62164W        W27391  36.965  30.845  13.522
62165W        W27392   2.043  11.135  11.952
62166W        W27393  15.556   3.251   4.060
62167W        W27394   8.455  12.168  14.470
62168W        W27395  10.589   4.690   1.956
62169W        W27396  34.304  42.429   3.231
62170W        W27397  12.730  38.905  12.028
62171W        W27398  40.966  40.288  14.434
62172W        W27399  10.663  29.232  14.020
62173W        W27400  30.336  29.989  12.637
62174W        W27401  24.291  11.646  14.577
62175W        W27402  42.962  35.473  12.112
62176W        W27403  11.430  14.520  11.870
62177W        W27404  36.430  19.849  11.520
62178W        W27405  34.981  33.095   1.604
62179W        W27406   3.922   0.804   5.022
62180W        W27407  27.445   6.583  11.216
62181W        W27408   8.912   5.079  10.740
62182W        W27409  19.532   9.400  13.537
62183W        W27410  17.608  10.211  12.461
62184W        W27411  31.849  31.450   0.717
62185W        W27412  22.566   6.021   2.269
62186W        W27413  28.676  18.140   1.144
62187W        W27414  18.511  17.684  12.428
62188W        W27415  39.324   7.597   1.272
62189W        W27416  34.048  16.128   3.672
62190W        W27417  26.104  20.788   4.025
62191W        W27418   0.684  13.328   0.703
62192W        W27419  22.190  16.852  11.092
62193W        W27420  15.258  14.767   1.815
62194W        W27421   0.960  15.238  12.126
62195W        W27422  26.666  35.698  12.994
62196W        W27423  22.783   2.538   1.202
62197W        W27424  31.968  15.826   0.977
62198W        W27425  25.693  10.806  11.201
62199W        W27426  14.647   6.667  10.943
62200W        W27427  13.596   7.381   0.798
62201W        W27428   0.297   8.205  13.790
62202W        W27429  16.154   5.717   4.521
62203W        W27430  24.606   8.653  11.112
62204W        W27431  16.997  29.401  11.531
62205W        W27432  25.188  25.635  13.465
62206W        W27433  16.801   0.876  14.322
62207W        W27434  30.931  35.649  13.312
62208W        W27435  43.505   5.766  11.109
62209W        W27436  43.202  43.328   2.221
62210W        W27437  12.129   7.387   0.763
62211W        W27438  30.403  43.047   4.360
62212W        W27439  37.071   8.776   2.537
62213W        W27440  27.742   8.767   2.625
62214W        W27441  21.827  11.538   3.009
62215W        W27442  33.378  24.895  12.470
62216W        W27443   6.297  22.308   2.235
62217W        W27444   6.156   0.791   2.709
62218W        W27445  19.152  23.424  10.438
62219W        W27446  13.595  10.070   3.193
62220W        W27447  20.590  34.046  13.464
62221W        W27448  33.891   4.925  13.420
62222W        W27449   7.010  34.697   2.220
62223W        W27450  20.578  25.722   3.640
62224W        W27451  44.892  38.510  12.550
62225W        W27452  12.773  44.010  12.344
62226W        W27453  17.297  20.554  11.099
62227W        W27454  44.055  13.053   2.279
62228W        W27455   8.334  27.142   3.672
62229W        W27456  36.341  33.803   4.782
62230W        W27457  23.065  43.591   4.593
62231W        W27458   4.350  14.055  12.143
62232W        W27459   4.381   9.215  14.686
62233W        W27460   5.727  12.396   0.308
62234W        W27461  24.810  39.560  11.156
62235W        W27462  17.766   2.947   1.478
62236W        W27463  12.287  33.959   3.706
62237W        W27464   2.231   6.682  13.615
62238W        W27465  17.521  43.012  10.707
62239W        W27466  18.530  26.382   0.345
62240W        W27467  28.718  15.512  12.961
62241W        W27468  38.550  10.202  10.652
62242W        W27469  25.185   9.799  14.290
62243W        W27470   0.247  41.440   1.256
62244W        W27471  40.394  19.547  10.484
62245W        W27472  37.421   2.008  14.750
62246W        W27473   8.089  31.846   3.076
62247W        W27474  35.680  34.203   1.009
62248W        W27475  13.673  37.508   4.062
62249W        W27476   3.199   9.618   0.205
62250W        W27477   8.378  12.244   0.478
62251W        W27478  26.491  18.632   0.393
62252W        W27479   2.952  33.016   3.721
62253W        W27480  31.518   2.901  14.647
62254W        W27481   6.410  30.064  12.266
62255W        W27482  39.426  40.458  14.788
62256W        W27483  13.299   5.397   2.845
62257W        W27484  43.957  18.404  12.381
62258W        W27485   7.851  43.271  11.516
62259W        W27486   4.539  29.063  14.268
62260W        W27487  11.510  36.444  12.595
62261W        W27488  14.294  36.814  13.968
62262W        W27489   1.490  36.547  12.155
62263W        W27490  14.617  41.476  12.216
62264W        W27491  22.982  36.548  13.941
62265W        W27492   6.173  43.565   0.511
62266W        W27493  37.224  43.348   3.614
62267W        W27494  29.306   5.040   4.370
62268W        W27495   7.171  23.268   2.265
62269W        W27496   1.720  26.426  11.630
62270W        W27497  44.002  32.894  12.973
62271W        W27498  20.979  24.081   3.188
62272W        W27499  31.397  15.273   0.788
62273W        W27500  17.153  13.604  11.847
62274W        W27501   1.541  13.124  10.882
62275W        W27502  20.084  15.852   3.747
62276W        W27503  33.097   7.329   2.431
62277W        W27504  12.773  32.491  11.777
62278W        W27505  34.852  17.299   3.317
62279W        W27506  21.200   9.364   4.519
62280W        W27507  17.646  29.636  13.172
62281W        W27508  39.094   5.346   3.126
62282W        W27509  42.399  11.567  11.593
62283W        W27510   4.386  35.557  14.048
62284W        W27511  26.674  20.327   4.997
62285W        W27512  35.600  43.363  13.470
62286W        W27513  44.866  42.159   2.909
62287W        W27514   7.192   2.046  13.203
62288W        W27515  29.470   0.754   1.244
62289W        W27516  16.680  35.139   2.645
62290W        W27517  14.853  41.015   4.086
62291W        W27518  36.081   8.657   2.217
62292W        W27519  15.599  39.401  10.867
62293W        W27520  24.503  37.451   0.903
62294W        W27521   9.627   0.516   2.782
62295W        W27522  32.905  20.625   4.266
62296W        W27523  36.348  22.657   1.791
62297W        W27524   7.907  34.899  12.853
62298W        W27525  10.136  16.892  11.577
62299W        W27526  28.086  40.990  12.936
62300W        W27527  32.780   5.683   0.701
62301W        W27528  20.989  42.337   2.469
62302W        W27529  35.218  40.479  13.141
62303W        W27530  32.423  21.571   3.759
62304W        W27531  41.925   7.622  13.463
62305W        W27532  27.389  38.549   0.533
62306W        W27533  25.585  41.022   3.251
62307W        W27534   0.795  17.870   4.480
62308W        W27535   5.606   2.302  11.073
62309W        W27536  22.922  23.832  11.208
62310W        W27537  44.318  31.645  10.688
62311W        W27538  23.489  27.391  10.702
62312W        W27539  29.587   5.450  12.488
62313W        W27540  35.458  35.792  14.435
62314W        W27541  11.547  30.419  12.485
62315W        W27542  24.755  16.458   1.445
62316W        W27543  27.304   7.439   1.964
62317W        W27544  18.597  40.796  14.729
62318W        W27545  20.408  32.954   4.687
62319W        W27546  13.102   2.212   0.054
62320W        W27547  25.738  40.660  13.456
62321W        W27548  26.527  12.104  11.584
62322W        W27549  31.676  27.187  11.999
62323W        W27550  36.906  34.828   4.008
62324W        W27551  40.601  31.675   4.235
62325W        W27552  37.138  27.944  10.783
62326W        W27553  41.033  44.291  14.870
62327W        W27554  23.599  31.436  13.909
62328W        W27555  26.385  15.852  11.103
62329W        W27556  42.867  24.860  10.708
62330W        W27557  23.522  44.434  14.070
62331W        W27558  33.432  26.431   3.315
62332W        W27559   9.643   9.656   2.644
62333W        W27560  23.494   4.768   4.130
62334W        W27561  25.216  30.999   1.799
62335W        W27562  13.465  16.160   3.646
62336W        W27563  31.378  31.649   9.232
62337W        W27564   5.475  25.629  10.701
62338W        W27565  11.358  11.400  12.201
62339W        W27566  13.105  24.386  12.417
62340W        W27567  26.665  40.545  11.684
62341W        W27568  12.574  39.072   2.129
62342W        W27569  19.861  15.219   4.098
62343W        W27570  41.942  12.232   2.023
62344W        W27571  38.283  33.786  13.613
62345W        W27572  24.355  37.102  13.033
62346W        W27573   5.269  37.899   0.852
62347W        W27574  28.568  17.136  14.670
62348W        W27575  10.117  20.534   4.021
62349W        W27576   4.283  31.596   3.806
62350W        W27577  30.162  13.866   2.344
62351W        W27578  10.574  31.692  11.607
62352W        W27579  10.590   8.821   0.855
62353W        W27580  33.108  27.440   2.379
62354W        W27581  31.618  39.016   1.672
62355W        W27582   9.937  10.131  11.168
62356W        W27583  35.334  12.915   2.551
62357W        W27584   1.367  25.412   2.403
62358W        W27585  26.716  18.261  11.187
62359W        W27586   9.186  28.252   3.275
62360W        W27587  12.800  17.614   1.430
62361W        W27588  26.081   5.556   3.304
62362W        W27589   4.124  17.032   0.969
62363W        W27590  20.819  14.399  14.591
62364W        W27591  28.586  25.560   1.957
62365W        W27592  29.684   4.810   3.127
62366W        W27593   1.051   0.883  11.005
62367W        W27594  25.108   6.308  14.065
62368W        W27595  32.116   1.254  13.731
62369W        W27596  18.125   9.703  10.781
62370W        W27597   3.130   0.066   4.580
62371W        W27598  27.137   5.785  13.605
62372W        W27599   3.781  33.759  13.292
62373W        W27600  36.650  25.938  14.511
62374W        W27601   9.219  26.594   3.654
62375W        W27602  35.799  27.617   3.967
62376W        W27603  25.929  10.558   2.306
62377W        W27604  22.958  12.133   0.919
62378W        W27605  43.253  11.544   3.267
62379W        W27606  15.342   8.596  14.000
62380W        W27607  42.018   7.902   0.945
62381W        W27608  18.004  41.281  11.481
62382W        W27609   7.903  35.123  12.019
62383W        W27610  26.577  35.943  12.016
62384W        W27611  12.367  20.554  11.371
62385W        W27612  44.729  26.854   3.229
62386W        W27613  35.602  42.705  14.871
62387W        W27614  27.462   5.409   3.359
62388W        W27615   9.272  36.991   4.061
62389W        W27616  16.185  10.570   1.445
62390W        W27617  12.040  31.769  11.522
62391W        W27618  25.007  23.885  11.652
62392W        W27619  38.827  24.654  14.030
62393W        W27620  26.668   5.416  11.134
62394W        W27621  42.239  29.485   2.483
62395W        W27622  23.372   8.971  11.221
62396W        W27623  11.147  24.476  12.526
62397W        W27624  27.521   7.229  13.986
62398W        W27625  42.021  13.937  11.574
62399W        W27626  17.098  16.795  14.541
62400W        W27627   3.412   8.005   3.877
62401W        W27628   5.613  33.165  14.919
62402W        W27629  16.164  15.184   3.133
62403W        W27630  26.506  11.795  14.516
62404W        W27631   8.075  26.500   3.676
62405W        W27632  29.439  29.010   2.342
62406W        W27633  21.982  24.212   3.652
62407W        W27634  21.974  40.187   2.861
62408W        W27635  22.503   3.430   2.450
62409W        W27636   9.321   5.928  10.411
62410W        W27637  43.265  10.647  11.939
62411W        W27638  34.811  11.578  11.183
62412W        W27639  41.034   3.966  11.115
62413W        W27640  30.878  38.012  14.777
62414W        W27641  29.482   2.940  13.995
62415W        W27642   5.173  22.591   1.233
62416W        W27643  15.395  26.538   0.507
62417W        W27644   7.077  34.073   3.709
62418W        W27645  15.611  32.452   4.620
62419W        W27646  29.152   0.901   1.645
62420W        W27647  29.286  12.084  12.441
62421W        W27648  20.258   4.437   2.244
62422W        W27649  18.556  40.480   1.115
62423W        W27650  10.460  13.274   3.291
62424W        W27651  19.149  33.506  13.448
62425W        W27652   5.197  12.898  13.849
62426W        W27653  44.728  19.640  11.956
62427W        W27654  28.245  31.978   3.996
62428W        W27655  20.664  40.345   3.322
62429W        W27656  13.593   4.659   5.010
62430W        W27657  15.698   2.224   5.057
62431W        W27658  27.562  34.556  14.855
62432W        W27659  33.400   5.169   0.946
62433W        W27660  39.364   3.224   0.728
62434W        W27661  28.581  18.208   2.662
62435W        W27662  11.596  38.072  11.488
62436W        W27663  20.663  17.638   4.325
62437W        W27664  30.546  19.475   4.756
62438W        W27665  33.179  30.031  13.837
62439W        W27666  23.930   7.198  11.482
62440W        W27667  34.102  19.339   4.414
62441W        W27668  17.574  25.435  10.929
62442W        W27669  14.382  44.379   2.774
62443W        W27670  16.507   6.663   1.667
62444W        W27671  38.463  15.758  12.359
62445W        W27672  35.096  19.886   2.325
62446W        W27673  41.089  12.302  14.058
62447W        W27674  31.523  25.057  11.951
62448W        W27675   9.332  16.817   5.268
62449W        W27676  39.553  16.321  14.899
62450W        W27677  28.138  38.588   0.776
62451W        W27678  18.669  26.614   0.839
62452W        W27679   5.233   7.115  13.154
62453W        W27680  44.372   5.391  11.293
62454W        W27681  44.492  14.099  14.257
62455W        W27682  22.334   0.221   5.195
62456W        W27683   7.355  30.926  11.239
62457W        W27684  11.013  18.213  13.920
62458W        W27685  44.995  21.199  13.451
62459W        W27686   1.643   0.226  13.637
62460W        W27687   7.866  25.256   1.521
62461W        W27688  35.162  35.483   4.688
62462W        W27689  23.704  37.410   1.286
62463W        W27690  18.629  25.010  14.794
62464W        W27691   6.976  15.050  12.605
62465W        W27692  37.773  26.652   0.267
62466W        W27693   7.027  25.536  10.936
62467W        W27694  37.609   1.863  13.895
62468W        W27695  22.719  24.989   1.885
62469W        W27696   9.772  31.960  14.587
62470W        W27697  29.570  19.726   1.784
62471W        W27698  33.308  33.308   4.308
62472W        W27699  23.714  44.360   0.485
62473W        W27700   1.076   8.471   3.904
62474W        W27701  28.582   8.438   0.672
62475W        W27702  29.907   2.460   4.268
62476W        W27703  11.796  13.514   1.324
62477W        W27704  32.090  27.918  13.946
62478W        W27705  21.041   5.397  10.917
62479W        W27706  24.424   3.670  10.420
62480W        W27707  40.283   3.821  14.444
62481W        W27708  28.651  20.080   3.833
62482W        W27709  15.508   3.565  14.957
62483W        W27710  13.097  11.046   4.094
62484W        W27711  19.654   9.035   3.239
62485W        W27712   4.253  43.510  14.825
62486W        W27713  30.277   7.779  11.672
62487W        W27714  40.209   0.400  11.904
62488W        W27715  36.061  38.386   3.213
62489W        W27716   1.460  29.078   0.975
62490W        W27717  40.991  20.631  13.251
62491W        W27718   6.939  30.576   5.010
62492W        W27719  23.188  22.938   0.804
62493W        W27720  31.482  25.554  11.230
62494W        W27721  19.147  37.964   4.564
62495W        W27722  39.432  38.587  14.074
62496W        W27723  28.988  28.298  14.029
62497W        W27724  16.824   2.320   2.190
62498W        W27725   1.702  16.483  11.718
62499W        W27726  17.258   3.067   2.215
62500W        W27727  26.474  34.519   3.084
62501W        W27728  26.424  20.321   2.805
62502W        W27729   3.519  11.714  12.084
62503W        W27730  22.098  17.474   2.898
62504W        W27731   7.159  38.322  12.929
62505W        W27732  33.842  16.927   0.289
62506W        W27733  11.210  41.832  12.545
62507W        W27734   2.746  30.157   4.144
62508W        W27735   0.966   9.132   0.355
62509W        W27736  27.692   1.828  11.145
62510W        W27737   4.435  25.577  10.687
62511W        W27738   9.677  22.561  12.899
62512W        W27739  22.234  38.442   0.812
62513W        W27740  42.767  33.164  12.071
62514W        W27741   6.471  27.079  11.146
62515W        W27742  16.224  34.636   4.074
62516W        W27743  31.610  35.663   4.083
62517W        W27744  26.782  22.132  14.840
62518W        W27745  24.678  37.109  12.101
62519W        W27746   3.940   4.361   3.237
62520W        W27747  22.664   7.225  12.650
62521W        W27748  22.224   9.225   0.462
62522W        W27749   4.041  39.864  13.575
62523W        W27750  25.687   6.112  14.760
62524W        W27751   8.680  37.402  12.615
62525W        W27752  36.447   4.050  12.675
62526W        W27753  37.528  10.493   2.649
62527W        W27754  17.160  28.379   1.052
62528W        W27755  28.454  44.040  11.972
62529W        W27756  37.928  11.433   4.603
62530W        W27757  31.491  41.900   3.324
62531W        W27758  18.780  31.925  13.569
62532W        W27759  33.427  21.497   2.587
62533W        W27760  27.472  38.501  14.263
62534W        W27761  32.978  37.314   2.172
62535W        W27762  23.543  23.970   4.716
62536W        W27763  18.754  35.736   3.845
62537W        W27764  32.584  40.694  14.227
62538W        W27765  37.887  23.182   0.492
62539W        W27766   3.329  17.210  13.058
62540W        W27767  22.067  21.746   0.287
62541W        W27768  29.574  10.981   2.171
62542W        W27769  14.642  41.080  11.587
62543W        W27770  14.117  22.282  12.167
62544W        W27771  32.628  28.282  14.815
62545W        W27772  18.183  30.907  13.894
62546W        W27773  23.812  40.472  12.559
62547W        W27774  37.847   5.906  11.959
62548W        W27775  22.759  28.396  13.005
62549W        W27776  17.513  22.494   2.980
62550W        W27777  39.489  25.048  13.403
62551W        W27778  30.500  15.164   4.659
62552W        W27779  10.299   0.322  10.284
62553W        W27780  26.417  32.109   3.089
62554W        W27781  28.607  36.401   4.194
62555W        W27782   1.678  28.864  13.960
62556W        W27783   7.225  44.682  11.460
62557W        W27784  35.917  35.499   3.897
62558W        W27785  39.309  14.136   3.239
62559W        W27786  29.378  30.232  14.930
62560W        W27787  16.111  24.563   2.301
62561W        W27788  10.124  40.005  12.053
62562W        W27789  28.463  11.897   3.557
62563W        W27790  33.408  43.995  11.225
62564W        W27791   9.227  17.505  11.576
62565W        W27792  30.614   4.962   2.684
62566W        W27793   9.584  14.225   2.889
62567W        W27794  32.898  15.728  14.550
62568W        W27795   8.665  17.965   0.805
62569W        W27796  28.427  39.872   0.806
62570W        W27797  14.168  18.745   4.177
62571W        W27798  37.529   9.552  10.665
62572W        W27799  19.338   3.412  12.868
62573W        W27800  40.019  17.689   4.872
62574W        W27801  23.454   3.793  14.062
62575W        W27802  33.838  12.686   3.117
62576W        W27803   8.650   7.224  13.796
62577W        W27804  22.560   3.931  13.430
62578W        W27805  16.904   3.782   1.923
62579W        W27806  32.485  28.243  13.903
62580W        W27807  10.428  29.976   1.974
62581W        W27808  14.788   7.924   0.864
62582W        W27809  18.048  24.484   3.783
62583W        W27810   6.957  27.650   0.318
62584W        W27811  12.355   1.330  11.271
62585W        W27812   3.894  11.652   4.354
62586W        W27813  39.145  23.622  11.647
62587W        W27814  33.405  29.472  11.566
62588W        W27815   9.389  39.309   3.596
62589W        W27816  29.568  28.566   4.283
62590W        W27817  16.305   7.410   1.212
62591W        W27818   2.787  13.244   1.254
62592W        W27819  25.710  34.593   2.613
62593W        W27820  26.063  22.569   0.203
62594W        W27821  27.093   8.104  13.998
62595W        W27822  37.069  44.092   1.777
62596W        W27823  29.606   4.537  11.885
62597W        W27824  12.692   6.696  13.635
62598W        W27825  36.564  25.719  13.988
62599W        W27826  41.376  16.393  14.713
62600W        W27827  19.974  33.342  14.300
62601W        W27828   1.798  37.113   2.654
62602W        W27829   8.314  20.408  11.235
62603W        W27830  22.540  31.092   0.269
62604W        W27831  43.438   6.447   3.699
62605W        W27832  39.112  44.809   1.494
62606W        W27833  16.524  18.497  12.621
62607W        W27834  44.488  11.035   2.765
62608W        W27835  33.600  14.705   4.639
62609W        W27836  44.436   9.930  12.074
62610W        W27837   1.418   8.575   4.265
62611W        W27838  29.286  43.820   4.551
62612W        W27839  21.794  44.779  14.412
62613W        W27840  39.591  24.549   3.730
62614W        W27841  10.974   0.225   4.127
62615W        W27842  31.131  19.186  14.476
62616W        W27843   3.431  33.543  12.102
62617W        W27844  14.183  28.367  10.605
62618W        W27845  30.068  40.068  12.384
62619W        W27846  26.045   3.814  12.756
62620W        W27847  34.417  26.154   1.499
62621W        W27848   8.499  16.222  10.790
62622W        W27849  16.672  32.526  12.433
62623W        W27850  40.012  18.030  13.535
62624W        W27851  10.696   9.169   3.951
62625W        W27852  43.189  38.119  14.849
62626W        W27853  34.996  27.939   4.247
62627W        W27854  36.819  33.741   0.895
62628W        W27855   0.895  25.092  13.998
62629W        W27856  27.251  12.294  14.435
62630W        W27857  24.924  18.328  14.502
62631W        W27858  40.883  23.249   0.737
62632W        W27859   7.228  44.560  14.779
62633W        W27860  23.977  27.901   9.692
62634W        W27861  18.156  22.248   3.798
62635W        W27862  16.900  38.322   0.230
62636W        W27863  12.358   1.769   2.713
62637W        W27864  29.404  42.104   4.206
62638W        W27865  22.989  41.137  11.930
62639W        W27866  44.680  27.980  12.114
62640W        W27867   5.505  30.110   3.620
62641W        W27868  21.704  40.798  14.305
62642W        W27869  24.482  13.248   4.332
62643W        W27870  39.885  29.508   4.016
62644W        W27871  20.305   2.807  12.384
62645W        W27872  12.138  23.277   3.616
62646W        W27873   0.987  21.591  13.291
62647W        W27874  21.323  22.319   3.415
62648W        W27875  11.826  15.046  13.453
62649W        W27876   6.566   2.667  14.416
62650W        W27877  29.643   5.348  10.617
62651W        W27878  22.073  37.848   3.205
62652W        W27879  37.296  20.659  12.666
62653W        W27880  15.058   3.213   4.182
62654W        W27881  35.294   0.282   3.312
62655W        W27882  22.746  39.986   3.463
62656W        W27883  37.476  12.246   3.842
62657W        W27884  38.414  43.558  14.667
62658W        W27885  44.011  27.436  12.432
62659W        W27886  18.139  22.698  12.929
62660W        W27887   3.477   3.370  12.987
62661W        W27888  18.966  36.986   1.293
62662W        W27889  28.903  11.715   4.061
62663W        W27890  11.553   6.792  10.597
62664W        W27891  36.770  30.360   5.110
62665W        W27892  40.452  43.637   3.204
62666W        W27893   7.946  18.299  10.662
62667W        W27894  34.022   7.409   0.314
62668W        W27895   2.861  43.480  14.274
62669W        W27896  41.516  19.649   1.962
62670W        W27897  11.612   3.588   2.640
62671W        W27898  22.948  29.328   2.167
62672W        W27899   5.397  35.998  14.988
62673W        W27900  21.897  13.144   0.202
62674W        W27901  37.603  24.190  11.165
62675W        W27902  31.583  15.689   2.207
62676W        W27903   3.505   7.216  12.564
62677W        W27904   8.255  25.388   2.246
62678W        W27905   2.357  11.074  13.083
62679W        W27906  19.701   4.778  10.609
62680W        W27907  32.469   5.620  12.060
62681W        W27908   8.879  42.333   2.728
62682W        W27909  35.780  24.787  11.069
62683W        W27910  36.991  39.201   2.699
62684W        W27911  36.852  22.305  13.576
62685W        W27912  11.931  39.772   1.574
62686W        W27913   0.549  20.361  14.908
62687W        W27914   4.393  15.158   4.221
62688W        W27915  12.455  39.349  14.281
62689W        W27916  10.129  37.768   3.955
62690W        W27917   4.561  31.545   4.774
62691W        W27918  39.915   0.000   2.146
62692W        W27919  17.068  15.182   4.222
62693W        W27920  36.154  33.027   2.704
62694W        W27921  31.535   0.193  12.647
62695W        W27922  15.088  17.286   1.001
62696W        W27923  40.280  13.955  11.730
62697W        W27924   3.679  24.585   1.991
62698W        W27925  25.043  30.391   3.941
62699W        W27926  34.647  25.143   2.428
62700W        W27927  38.928   8.664   4.026
62701W        W27928  40.927   6.479  14.381
62702W        W27929  25.000  19.115   1.420
62703W        W27930  27.529  17.240   1.573
62704W        W27931  13.378  23.122   3.166
62705W        W27932  40.173   1.120  13.950
62706W        W27933   1.496   4.683  13.826
62707W        W27934  26.510  41.618   4.794
62708W        W27935   3.005  44.959  12.017
62709W        W27936  22.229  17.057   1.379
62710W        W27937  27.365  15.960   4.515
62711W        W27938  16.193  32.103   1.971
62712W        W27939   1.151  28.162  11.073
62713W        W27940  14.910  19.703   1.739
62714W        W27941  40.025  10.365  14.968
62715W        W27942  18.546  41.904   4.471
62716W        W27943  14.489   8.297   3.648
62717W        W27944   7.217   8.815   4.532
62718W        W27945  37.008  13.710   2.871
62719W        W27946  17.612  12.874  12.312
62720W        W27947   3.600  26.841   5.315
62721W        W27948  29.231  34.433   4.240
62722W        W27949  21.005  16.726  13.209
62723W        W27950  32.388  22.762   1.490
62724W        W27951  42.241  16.268   3.003
62725W        W27952  28.911   2.294   1.897
62726W        W27953  20.480  42.262   0.229
62727W        W27954  35.621   3.886  14.068
62728W        W27955  20.501  37.969   4.288
62729W        W27956  42.783  14.156   1.330
62730W        W27957  14.385  37.521   0.911
62731W        W27958  39.845  30.114  11.703
62732W        W27959  43.063  23.424  10.416
62733W        W27960   1.853   5.748   4.811
62734W        W27961  10.286  19.595   0.750
62735W        W27962  24.549  39.790   0.956
62736W        W27963   1.219  33.751  10.687
62737W        W27964  40.462  29.955   2.592
62738W        W27965  17.566  27.410   0.356
62739W        W27966  31.771  17.250  14.792
62740W        W27967   9.786   8.163   4.452
62741W        W27968  32.571  23.889  14.561
62742W        W27969   8.725  34.388  12.131
62743W        W27970  33.948   6.157  13.946
62744W        W27971  29.001  18.628  11.881
62745W        W27972   7.008  12.271  14.874
62746W        W27973  10.857  24.194  14.709
62747W        W27974  17.246  25.107   4.151
62748W        W27975  38.983  35.055   4.507
62749W        W27976  16.823   6.347  14.792
62750W        W27977  30.182  38.951  11.101
62751W        W27978  27.232  28.465   4.250
62752W        W27979   7.079  19.513  10.355
62753W        W27980  36.038   5.677   3.688
62754W        W27981   0.010  15.832   0.322
62755W        W27982  39.409  42.223   4.369
62756W        W27983   9.398  41.780  14.119
62757W        W27984  39.030  12.225  14.695
62758W        W27985  36.021  20.232   1.019
62759W        W27986  39.003   5.885  13.014
62760W        W27987  28.393  17.017  11.182
62761W        W27988  23.174  15.600  13.344
62762W        W27989  15.298  43.072   4.627
62763W        W27990   9.367  23.068  12.451
62764W        W27991  40.176  30.597   0.705
62765W        W27992  12.221  29.069   4.367
62766W        W27993   3.312  31.380   1.270
62767W        W27994   8.195  13.856   3.775
62768W        W27995  10.657  44.840  13.866
62769W        W27996  29.560  38.350   4.005
62770W        W27997  31.471  40.837   1.869
62771W        W27998  11.669  32.579  13.367
62772W        W27999  41.200  22.997  13.081
62773W        W28000  14.114  30.813   2.741
62774W        W28001  15.837  33.342   3.280
62775W        W28002  10.448  40.130   4.168
62776W        W28003  40.785  43.285   0.258
62777W        W28004   6.930  22.436  13.573
62778W        W28005  19.244   9.834   3.571
62779W        W28006  36.863  44.934   0.832
62780W        W28007   9.214   7.731  11.039
62781W        W28008  36.579  44.767   3.229
62782W        W28009  21.119  42.001   2.933
62783W        W28010   5.687  10.023  14.367
62784W        W28011  35.471  29.245   4.309
62785W        W28012  16.632  41.818  13.355
62786W        W28013  28.739  10.375  10.605
62787W        W28014   2.948  40.992   3.466
62788W        W28015  34.119  32.209   3.576
62789W        W28016  13.696  13.142  10.454
62790W        W28017  10.335  33.333  12.469
62791W        W28018   3.488  40.052  14.440
62792W        W28019  15.409  29.440  14.975
62793W        W28020   8.919  32.677   5.401
62794W        W28021  44.886  12.483  14.923
62795W        W28022   6.823   1.680  11.477
62796W        W28023  33.569  16.336   3.613
62797W        W28024  40.488  35.366   1.778
62798W        W28025  34.648  44.067   2.850
62799W        W28026   3.976  32.346   4.643
62800W        W28027  43.491  27.158   0.729
62801W        W28028  15.565  31.400  11.172
62802W        W28029  28.024  28.070  10.253
62803W        W28030  34.656  23.993   1.532
62804W        W28031  44.046  26.940   2.981
62805W        W28032  32.493   3.727  10.577
62806W        W28033  24.179  18.621  14.775
62807W        W28034  33.989   1.843   0.076
62808W        W28035   9.694  13.253  12.853
62809W        W28036   7.159  11.592   3.163
62810W        W28037   8.863  21.643   4.304
62811W        W28038  40.201  17.679   3.686
62812W        W28039  21.056  43.346   0.469
62813W        W28040   6.304   2.989  14.841
62814W        W28041   9.225  38.277  12.891
62815W        W28042   2.467  34.440  13.020
62816W        W28043  38.491  32.474   1.482
62817W        W28044  12.631  22.559   3.671
62818W        W28045  44.306  38.421   4.176
62819W        W28046  22.206  37.906   4.105
62820W        W28047  41.938  21.469  12.607
62821W        W28048  20.100  30.709  13.796
62822W        W28049   1.306  34.613  13.475
62823W        W28050  24.612  31.086  12.979
62824W        W28051  17.679  35.411   4.882
62825W        W28052   1.214   2.536   4.755
62826W        W28053  19.626  29.197   0.359
62827W        W28054  33.587  20.063  10.741
62828W        W28055  13.149  18.128  13.111
62829W        W28056   6.103  41.462  13.031
62830W        W28057   4.376  35.102  11.766
62831W        W28058  31.445  16.190   3.322
62832W        W28059  43.297  19.073   1.728
62833W        W28060  24.233  34.527   3.862
62834W        W28061  42.855  13.877  11.045
62835W        W28062  16.960  32.255  13.971
62836W        W28063  33.458  19.845   0.441
62837W        W28064  41.852  22.866   3.736
62838W        W28065  19.472  15.254   2.265
62839W        W28066   3.484  23.435  13.291
62840W        W28067  24.870  15.139   3.395
62841W        W28068  34.982   9.690   2.316
62842W        W28069  18.714   4.328  13.157
62843W        W28070  17.330  35.447  14.837
62844W        W28071  25.174  13.886   2.068
62845W        W28072   8.432   0.324  14.958
62846W        W28073  31.533  40.915   0.927
62847W        W28074  33.939  35.370   1.740
62848W        W28075   9.794   4.483   1.421
62849W        W28076  12.159   2.502   3.634
62850W        W28077  10.390  33.501  13.341
62851W        W28078   8.146  33.006  13.025
62852W        W28079  28.156  21.950  14.278
62853W        W28080  43.159   8.334   2.186
62854W        W28081  14.808  25.173  11.593
62855W        W28082   2.289  10.577   0.313
62856W        W28083  18.725  35.694  10.820
62857W        W28084  28.336  33.385  11.921
62858W        W28085  27.782  36.792  14.461
62859W        W28086   7.469  40.307  12.439
62860W        W28087   3.884  17.055   2.894
62861W        W28088   9.922  35.862   0.039
62862W        W28089  20.767  21.289   2.743
62863W        W28090   3.426   3.233  14.979
62864W        W28091   9.377  18.429  14.334
62865W        W28092   9.894  20.141  12.106
62866W        W28093  13.255   6.282   1.362
62867W        W28094  14.700  10.659  12.947
62868W        W28095  29.279  28.580  12.988
62869W        W28096  21.589  43.247  10.469
62870W        W28097  22.740  33.479   2.195
62871W        W28098  13.778  28.907  11.207
62872W        W28099  19.824  16.979  13.077
62873W        W28100  32.220  24.676   3.054
62874W        W28101  30.014  29.667   3.809
62875W        W28102  17.187  30.404  14.363
62876W        W28103  29.138  38.126   3.704
62877W        W28104  17.298  38.610   3.711
62878W        W28105  41.147  30.262  14.299
62879W        W28106  22.789  35.926   4.518
62880W        W28107  37.582   7.379   2.146
62881W        W28108  21.314  12.832   4.945
62882W        W28109  44.778  13.517  13.902
62883W        W28110   0.741  41.480   1.139
62884W        W28111   7.664  12.027  11.189
62885W        W28112  28.044  16.261   0.277
62886W        W28113  10.727   1.974  10.626
62887W        W28114  34.534  38.516  10.567
62888W        W28115  26.065  20.549   2.488
62889W        W28116  23.059  24.908  12.472
62890W        W28117   6.507   0.941   4.122
62891W        W28118  44.403  35.461  13.426
62892W        W28119  34.139  16.534  10.421
62893W        W28120  10.620   1.620   5.106
62894W        W28121   5.844  34.195   4.219
62895W        W28122  35.897  37.048   4.505
62896W        W28123   7.760  35.520   2.458
62897W        W28124  26.938   3.904   0.749
62898W        W28125  15.082  27.535  14.883
62899W        W28126  18.746   6.421   4.181
62900W        W28127  21.730  24.495  11.217
62901W        W28128  14.489  13.639  12.559
62902W        W28129  36.940   6.709  13.499
62903W        W28130   3.630  30.237  10.334
62904W        W28131   6.458  18.743   0.275
62905W        W28132  39.929  19.647  13.435
62906W        W28133   9.363  43.273   3.270
62907W        W28134  10.817  31.535  13.131
62908W        W28135  18.647  15.928   1.729
62909W        W28136  27.151  25.134  14.543
62910W        W28137  39.920  42.661   1.902
62911W        W28138  26.414  23.571  10.746
62912W        W28139   1.016  38.851  12.858
62913W        W28140  34.103  41.055   1.220
62914W        W28141  26.865   1.254  13.084
62915W        W28142  15.443  36.213  14.292
62916W        W28143  24.664  31.221  10.786
62917W        W28144  39.743  17.326  12.974
62918W        W28145  11.223  43.080   1.740
62919W        W28146  21.493   5.789   2.446
62920W        W28147  20.196   0.649   2.282
62921W        W28148  26.543  24.541  13.407
62922W        W28149  19.233   2.213  13.753
62923W        W28150  17.209  39.022  10.760
62924W        W28151   9.027  42.452   4.831
62925W        W28152   7.586  32.622   1.311
62926W        W28153  30.375   4.285  10.749
62927W        W28154  14.304  38.665   3.860
62928W        W28155  15.352  29.155  12.060
62929W        W28156  13.065  27.161   3.473
62930W        W28157  23.995  32.555  10.975
62931W        W28158  16.528   9.299  11.498
62932W        W28159  43.555  32.502  13.542
62933W        W28160  21.553  21.870   2.761
62934W        W28161   5.759  16.095   3.550
62935W        W28162  17.256   1.318   1.713
62936W        W28163  26.479  15.706  14.867
62937W        W28164   8.925  23.558  11.562
62938W        W28165  20.308  42.477   1.836
62939W        W28166  29.656  18.578   3.626
62940W        W28167   2.510  28.165  14.590
62941W        W28168  44.574  10.657   1.711
62942W        W28169  11.687  24.253  11.083
62943W        W28170  28.309  30.970  12.025
62944W        W28171  44.365  16.759  12.635
62945W        W28172  27.075  41.403  14.480
62946W        W28173  29.793   3.300   2.201
62947W        W28174  28.784  13.118   4.095
62948W        W28175   2.330  41.441   5.401
62949W        W28176   8.499   9.402   0.328
62950W        W28177  32.023  33.572   3.515
62951W        W28178  32.706  41.974  12.418
62952W        W28179   7.447   2.450  12.488
62953W        W28180  42.295   9.771  14.851
62954W        W28181  26.882  20.082   2.791
62955W        W28182  19.558  18.080   0.805
62956W        W28183   9.709  20.650   1.227
62957W        W28184  40.281  42.989  12.477
62958W        W28185  42.334  17.892   2.004
62959W        W28186  25.515   5.706   0.421
62960W        W28187  10.408  21.024  11.072
62961W        W28188  12.671  35.161  14.464
62962W        W28189  41.378  32.876  11.717
62963W        W28190  32.384  21.292  14.990
62964W        W28191  33.493  25.484   3.057
62965W        W28192   0.014  10.593  10.224
62966W        W28193  31.057  39.785  10.255
62967W        W28194  42.388  30.732  11.673
62968W        W28195  38.892  16.917   0.915
62969W        W28196  15.611  34.587   0.751
62970W        W28197  35.630   3.212   0.727
62971W        W28198  32.148  36.502  12.388
62972W        W28199  39.733  36.497  14.030
62973W        W28200  33.120   9.737   4.628
62974W        W28201  12.606  12.871   1.697
62975W        W28202  40.544  33.470  13.001
62976W        W28203  14.361   2.976  10.651
62977W        W28204  20.716  23.053  13.092
62978W        W28205   6.907  22.979  13.589
62979W        W28206  35.410  17.545  11.158
62980W        W28207  15.129  16.139   4.015
62981W        W28208  21.699  15.729   0.851
62982W        W28209   1.463   4.572   4.850
62983W        W28210   1.932  10.466  12.752
62984W        W28211  13.325  36.029   4.647
62985W        W28212  14.400  21.231   9.840
62986W        W28213   2.941  15.749   1.970
62987W        W28214   0.766  23.698  13.406
62988W        W28215   6.895  12.129  11.651
62989W        W28216  42.394  20.869   0.845
62990W        W28217  13.779  37.097  11.911
62991W        W28218   8.797  10.744   4.179
62992W        W28219  33.413   7.170  12.518
62993W        W28220  40.409   2.236  13.518
62994W        W28221  29.018  23.368   0.489
62995W        W28222  31.414  34.956  11.547
62996W        W28223   6.186   1.010   2.232
62997W        W28224  17.655  15.648  10.746
62998W        W28225  33.000  21.803   0.728
62999W        W28226   3.145   1.664  11.996
63000W        W28227   4.138  35.883   1.427
63001W        W28228  11.713  27.123  10.766
63002W        W28229  43.397   4.237   4.482
63003W        W28230  23.582  32.060  13.515
63004W        W28231   4.201   5.128  14.822
63005W        W28232  39.939  26.738   2.766
63006W        W28233  27.566  17.723   1.364
63007W        W28234  24.091   6.967  14.003
63008W        W28235  37.529  43.432  13.604
63009W        W28236   6.431   4.627  12.841
63010W        W28237  17.713  39.191   1.161
63011W        W28238  39.061  39.861  11.950
63012W        W28239   5.170  40.582  13.985
63013W        W28240  12.049  42.064   1.450
63014W        W28241  37.264  10.410   4.032
63015W        W28242  14.239  39.688   3.718
63016W        W28243  25.949  15.341  11.452
63017W        W28244   2.236   0.674  12.294
63018W        W28245   7.769  44.368  13.024
63019W        W28246  18.130  25.960   4.880
63020W        W28247   1.374  41.776  14.558
63021W        W28248  11.448   5.308  10.714
63022W        W28249  28.866  18.844   0.435
63023W        W28250  11.676   2.254   1.868
63024W        W28251  33.495   1.379  11.555
63025W        W28252   6.945   5.242  13.609
63026W        W28253  17.803  25.159   4.951
63027W        W28254  36.095  26.328  12.936
63028W        W28255  35.665  29.390  11.349
63029W        W28256  27.183  24.603  13.276
63030W        W28257   8.085  13.469   0.335
63031W        W28258  33.304   3.022   3.166
63032W        W28259  13.750  36.374  14.243
63033W        W28260  16.092  32.492  13.764
63034W        W28261  10.177  22.719  12.894
63035W        W28262   6.621  18.697  10.804
63036W        W28263  20.776  33.362   1.450
63037W        W28264   1.506  39.091   1.876
63038W        W28265   6.515  21.619  10.393
63039W        W28266  33.506  11.874  11.238
63040W        W28267   2.882  30.090   1.596
63041W        W28268  33.454  19.597   3.292
63042W        W28269  36.637  35.910   1.317
63043W        W28270  19.773  23.058  11.811
63044W        W28271  39.938  21.912   4.516
63045W        W28272   3.001  24.992   4.100
63046W        W28273   5.520   4.422   0.452
63047W        W28274  29.586   8.811   4.148
63048W        W28275  24.810  17.197   4.700
63049W        W28276  16.447   9.724  11.151
63050W        W28277  28.672  32.118   1.404
63051W        W28278  13.594  34.889   1.264
63052W        W28279  39.887  10.233   3.876
63053W        W28280  10.434  15.614  13.474
63054W        W28281  19.462  20.973  14.873
63055W        W28282   1.879  41.263   4.495
63056W        W28283   7.813   6.403   4.669
63057W        W28284  35.380  12.231   0.848
63058W        W28285  24.523  15.815   2.897
63059W        W28286   6.759  26.706   0.341
63060W        W28287  14.923  28.617   2.293
63061W        W28288  42.838   3.685  12.967
63062W        W28289   2.915   5.281  14.945
63063W        W28290  31.603   1.894   3.865
63064W        W28291  24.095  29.079  11.243
63065W        W28292  31.878  18.548   3.188
63066W        W28293   3.975   4.193  14.977
63067W        W28294  29.088  31.342   2.254
63068W        W28295  25.608  20.363  10.710
63069W        W28296  32.295   1.953   1.878
63070W        W28297  38.613   8.172  11.022
63071W        W28298  25.465  38.003   3.100
63072W        W28299  16.555  43.715   2.703
63073W        W28300  15.046  40.054  13.810
63074W        W28301  36.484  43.720  10.732
63075W        W28302  20.937   9.671  14.268
63076W        W28303  25.641   3.379  11.268
63077W        W28304  43.857  41.044  10.829
63078W        W28305  39.439  32.241   0.716
63079W        W28306   6.328   6.358  13.967
63080W        W28307   9.148   1.727   3.260
63081W        W28308  29.086  33.876   1.353
63082W        W28309   6.401  32.012  12.149
63083W        W28310   1.488  35.495   0.935
63084W        W28311   4.383   6.735  11.623
63085W        W28312  27.237   6.898  14.324
63086W        W28313  11.535  43.547   1.400
63087W        W28314  37.031  44.851   4.502
63088W        W28315  26.495   6.215   1.253
63089W        W28316  23.138  20.982   1.020
63090W        W28317  34.586   1.956   1.425
63091W        W28318   9.206  18.914  14.379
63092W        W28319   7.643  16.553   1.803
63093W        W28320  13.908  15.349   0.221
63094W        W28321  14.708  37.866  12.517
63095W        W28322  26.488  20.228  10.625
63096W        W28323  29.498   7.705   1.803
63097W        W28324  44.703  25.471  12.132
63098W        W28325   0.017   2.721   3.880
63099W        W28326  40.550  42.797   0.193
63100W        W28327  43.201  18.598  14.548
63101W        W28328  31.445  32.092   4.305
63102W        W28329  17.579  11.147   4.736
63103W        W28330  41.559  32.393  14.875
63104W        W28331  42.340  42.958   3.722
63105W        W28332  37.203  32.427  12.371
63106W        W28333   5.403  26.671  14.494
63107W        W28334   5.902   9.853  12.972
63108W        W28335  13.341  20.731   4.070
63109W        W28336   9.455  11.676   2.278
63110W        W28337  18.221  11.287   3.599
63111W        W28338  22.725  44.377  12.590
63112W        W28339  41.901  32.875   4.645
63113W        W28340  27.060  21.598  13.473
63114W        W28341  23.119  35.862  11.570
63115W        W28342  19.226   6.073   1.930
63116W        W28343  26.692   6.910   3.367
63117W        W28344   8.949  24.513   3.382
63118W        W28345  15.668  22.096   3.580
63119W        W28346  36.767  35.007  12.944
63120W        W28347   4.191  44.354  14.861
63121W        W28348   3.389  23.968   3.207
63122W        W28349  35.051  24.833  13.924
63123W        W28350  25.985  37.377  11.937
63124W        W28351   5.837  13.634   0.438
63125W        W28352  28.024  37.670  10.662
63126W        W28353  33.375  32.089   1.844
63127W        W28354  26.483  12.453   1.883
63128W        W28355  33.061  33.893   4.760
63129W        W28356  35.443  30.220   4.158
63130W        W28357   5.717  30.293  13.958
63131W        W28358  13.454  30.515  14.262
63132W        W28359   0.005  12.707   1.563
63133W        W28360  12.363  26.901   0.355
63134W        W28361  13.739  41.850  13.083
63135W        W28362   8.625  31.756   0.547
63136W        W28363  24.477  16.274  12.091
63137W        W28364   3.942  22.771   1.932
63138W        W28365  25.616  10.842  14.383
63139W        W28366  43.323  11.652   4.560
63140W        W28367  31.919   3.508   1.821
63141W        W28368  43.872   7.216  14.602
63142W        W28369  38.853  16.689   0.450
63143W        W28370   1.682  31.473  10.708
63144W        W28371  13.842  21.148   2.280
63145W        W28372  36.322  28.152   4.652
63146W        W28373  35.494   1.694  11.596
63147W        W28374  29.241  44.942   3.685
63148W        W28375  43.053  40.378   0.518
63149W        W28376  25.089  42.064  13.190
63150W        W28377  38.778  20.349   2.301
63151W        W28378   0.029   7.278  11.231
63152W        W28379   9.889  24.474   0.803
63153W        W28380  16.177  44.514   0.940
63154W        W28381  43.001   3.247  12.746
63155W        W28382  22.642   9.299  14.738
63156W        W28383  26.698   0.328  13.795
63157W        W28384   0.139  19.954   1.904
63158W        W28385  18.006   6.666   0.381
63159W        W28386  42.326   5.416   5.521
63160W        W28387  33.387  25.459  14.951
63161W        W28388  22.328   0.762   3.521
63162W        W28389   0.061  34.350  12.979
63163W        W28390   0.724  29.541  11.575
63164W        W28391  39.054   6.215   1.842
63165W        W28392   1.785  12.658  13.766
63166W        W28393  16.844  26.256   4.308
63167W        W28394  30.039  42.175  14.961
63168W        W28395   0.695  38.126  11.672
63169W        W28396  32.414  20.987   1.858
63170W        W28397   2.820   8.805   0.764
63171W        W28398   2.004  15.842  10.722
63172W        W28399  22.115   6.269  13.504
63173W        W28400  15.363  33.550   4.157
63174W        W28401  26.415   8.629   1.313
63175W        W28402  38.280   4.536   3.209
63176W        W28403  17.573  32.404   0.428
63177W        W28404  36.111  25.624   3.316
63178W        W28405  28.423  19.803  12.908
63179W        W28406  21.194   5.166   3.767
63180W        W28407  23.722  21.107  14.320
63181W        W28408   0.827  15.644  14.979
63182W        W28409  24.724  13.691   4.353
63183W        W28410  29.185  16.302  13.915
63184W        W28411  12.748  35.463   2.736
63185W        W28412  21.059  42.435  11.179
63186W        W28413   9.216  29.881  13.489
63187W        W28414   4.486  18.348   3.170
63188W        W28415  29.439  10.280   1.697
63189W        W28416  35.291  17.725   3.119
63190W        W28417  32.734  37.515  13.971
63191W        W28418  41.520  29.909  14.368
63192W        W28419  27.728  13.351  11.922
63193W        W28420  20.575   9.330  12.836
63194W        W28421  40.353  14.958  14.893
63195W        W28422  25.952  20.838   0.126
63196W        W28423  29.608  29.684   1.948
63197W        W28424  43.132  29.970  10.636
63198W        W28425  32.150   2.847  13.806
63199W        W28426  41.414  19.551  10.722
63200W        W28427  30.806  37.746   2.751
63201W        W28428  42.760  16.669   4.474
63202W        W28429  40.995  10.680   3.568
63203W        W28430  40.310  30.376   2.862
63204W        W28431  33.905  34.102   3.660
63205W        W28432  27.108  37.256   0.467
63206W        W28433  11.658  39.519   3.930
63207W        W28434  10.132  38.890  13.452
63208W        W28435   6.888   8.253  14.792
63209W        W28436  23.107  20.345   2.125
63210W        W28437  41.420  28.591  11.950
63211W        W28438  26.607  22.520  11.702
63212W        W28439  21.665  33.636   2.338
63213W        W28440  38.498   8.728   1.170
63214W        W28441  44.394  25.073  12.392
63215W        W28442  43.050  27.571  12.004
63216W        W28443  14.627  39.464  10.516
63217W        W28444   4.391  32.337  14.963
63218W        W28445  41.978  29.707   4.535
63219W        W28446   7.781  34.600  11.224
63220W        W28447   7.368  24.760  12.529
63221W        W28448   7.268  17.171  12.017
63222W        W28449  34.401  11.925  10.302
63223W        W28450  12.196  23.250  13.151
63224W        W28451  38.622  39.010   3.417
63225W        W28452  35.482  19.223   3.216
63226W        W28453   6.786  31.350   4.470
63227W        W28454   8.192  17.572   0.392
63228W        W28455   9.305  17.498   0.398
63229W        W28456  11.702  39.112  11.465
63230W        W28457   7.364  24.942  14.008
63231W        W28458  37.052  41.015   3.286
63232W        W28459   7.486  37.036  12.862
63233W        W28460  25.587  28.097   1.701
63234W        W28461   9.288   6.778   3.321
63235W        W28462   5.360  24.079  10.525
63236W        W28463  41.095  20.576   0.319
63237W        W28464  44.169   6.669  13.785
63238W        W28465   7.182   8.985  11.690
63239W        W28466  42.410   5.160  13.291
63240W        W28467  28.173  24.518   2.271
63241W        W28468   7.392   7.137   2.761
63242W        W28469  25.038  16.824  13.481
63243W        W28470   7.158  22.601  12.511
63244W        W28471  30.373  19.667  11.479
63245W        W28472  23.624  40.301  10.659
63246W        W28473  29.209  13.086  13.068
63247W        W28474  44.386   5.927  12.146
63248W        W28475  29.281   0.046   1.922
63249W        W28476  28.942  41.733  14.364
63250W        W28477  13.053   8.316  13.779
63251W        W28478  16.078   0.451  12.139
63252W        W28479  34.043  12.344   3.866
63253W        W28480  30.870  31.372  13.890
63254W        W28481   3.393  28.243  12.816
63255W        W28482  38.096   6.613   3.145
63256W        W28483   4.592   7.862   4.024
63257W        W28484  40.289  19.207  10.910
63258W        W28485   7.464  36.298  11.647
63259W        W28486  21.244  30.846  12.914
63260W        W28487  29.167  27.143  12.923
63261W        W28488   5.808  23.141  11.212
63262W        W28489  27.998  13.644   0.167
63263W        W28490  30.196  11.625   1.100
63264W        W28491  38.763  44.353  12.443
63265W        W28492  37.548  42.786  12.322
63266W        W28493  12.726  43.340  14.477
63267W        W28494  37.401  40.564  14.803
63268W        W28495  33.458  15.734  12.109
63269W        W28496   1.921   8.013   3.091
63270W        W28497   2.401  30.906   2.207
63271W        W28498   7.332  31.474   2.126
63272W        W28499   4.406  32.057   1.814
63273W        W28500  21.490  20.101  12.946
63274W        W28501  23.508  44.478   0.002
63275W        W28502  23.700  11.286   1.460
63276W        W28503  21.491  28.047  14.716
63277W        W28504  36.296  12.312  10.732
63278W        W28505  38.073  26.902  12.025
63279W        W28506   2.324   1.652  14.096
63280W        W28507  42.902  30.940   3.288
63281W        W28508  38.280  23.761  12.618
63282W        W28509  13.967  28.248  13.804
63283W        W28510  27.733   9.715  14.630
63284W        W28511   7.897   4.041  11.600
63285W        W28512  20.724  12.504   2.800
63286W        W28513  12.189  15.114  10.575
63287W        W28514  20.947   3.389  14.435
63288W        W28515  33.427  21.613   2.089
63289W        W28516  43.011  13.670   1.388
63290W        W28517  22.061  11.890  12.463
63291W        W28518  25.654  22.733  14.932
63292W        W28519  16.175   9.125   1.148
63293W        W28520  31.034  39.945  12.081
63294W        W28521   9.289  25.489  11.179
63295W        W28522  42.526  36.638  14.506
63296W        W28523  34.638  20.124  12.394
63297W        W28524  14.627  20.475   4.527
63298W        W28525  37.832  25.087   2.361
63299W        W28526  38.269  22.953  14.235
63300W        W28527  14.032   2.723  13.239
63301W        W28528  34.258  30.991  11.148
63302W        W28529  21.219  37.958  13.649
63303W        W28530  15.308  22.106   3.953
63304W        W28531   1.527  40.045  12.640
63305W        W28532  39.496   9.395   3.821
63306W        W28533  41.384  31.189   4.619
63307W        W28534  16.614  10.723   1.150
63308W        W28535  20.094  26.526   0.852
63309W        W28536   8.295  11.983   4.068
63310W        W28537   0.304  30.594  11.431
63311W        W28538  11.767   3.495   4.156
63312W        W28539  25.387  13.260   4.754
63313W        W28540  11.349   5.715  12.105
63314W        W28541  36.797   1.760  14.299
63315W        W28542  32.889  14.796   2.286
63316W        W28543  41.257  44.568  10.824
63317W        W28544  31.907  43.494  13.019
63318W        W28545  36.586  17.785  11.627
63319W        W28546  14.020  29.366   2.547
63320W        W28547  29.663  43.168   2.774
63321W        W28548   5.354  12.143  11.158
63322W        W28549  31.370  11.846   2.359
63323W        W28550   4.044  21.020  11.227
63324W        W28551  44.097  12.187  11.051
63325W        W28552  26.228  42.266   3.631
63326W        W28553  34.650   7.641   3.273
63327W        W28554  34.909  12.704  11.299
63328W        W28555  12.783  34.594  14.542
63329W        W28556  44.496  20.861   4.517
63330W        W28557  32.332  13.660   1.799
63331W        W28558  40.044   0.787  13.519
63332W        W28559  19.669  15.836  14.818
63333W        W28560  11.932  33.843  12.648
63334W        W28561  28.467  20.315  12.889
63335W        W28562   3.948  41.714   0.392
63336W        W28563  23.555  12.849   3.653
63337W        W28564  15.720  43.588   4.059
63338W        W28565  27.122  28.655   1.337
63339W        W28566  23.775  44.380   4.534
63340W        W28567  42.848   2.224   3.375
63341W        W28568  36.773  31.059  12.182
63342W        W28569  26.589  35.925  13.469
63343W        W28570  12.692  44.009  13.820
63344W        W28571  27.370  39.041  13.473
63345W        W28572   4.010   8.465  11.528
63346W        W28573  15.370  30.181   1.432
63347W        W28574  23.100  41.082  13.842
63348W        W28575  34.416   3.393   3.695
63349W        W28576  41.194   0.013   2.365
63350W        W28577  18.033  24.920   2.024
63351W        W28578   4.680  16.656  13.200
63352W        W28579   4.351  28.121  11.503
63353W        W28580  37.102  21.878  11.262
63354W        W28581  43.066  23.574   4.831
63355W        W28582  42.503   1.937  11.647
63356W        W28583  35.851  11.643   0.441
63357W        W28584  23.228  16.651  12.471
63358W        W28585  11.144  36.372   4.447
63359W        W28586   7.399  11.679   2.701
63360W        W28587   3.169  29.451  13.378
63361W        W28588  19.072   1.395   1.901
63362W        W28589  37.796  13.183  13.315
63363W        W28590  36.971  41.494   4.436
63364W        W28591  29.889   2.071   0.307
63365W        W28592  12.832  37.834  14.883
63366W        W28593  34.170   2.812   1.749
63367W        W28594  18.426   4.815  12.000
63368W        W28595   7.624  34.470   2.899
63369W        W28596  14.213  10.196  12.330
63370W        W28597   3.159  43.892   3.610
63371W        W28598   8.261  28.404   2.357
63372W        W28599  29.047  36.301  10.818
63373W        W28600  43.725  30.446  14.379
63374W        W28601   4.729  29.174   0.003
63375W        W28602  38.515   6.309   3.108
63376W        W28603   7.173  29.488   0.780
63377W        W28604  26.323  14.592   0.956
63378W        W28605   5.882  13.642   0.951
63379W        W28606   7.262  32.843   0.344
63380W        W28607  43.720  36.759   4.770
63381W        W28608  22.423  25.739  11.224
63382W        W28609  20.732  10.153  12.557
63383W        W28610  37.578   4.273  12.716
63384W        W28611  35.545  13.047  12.972
63385W        W28612  39.413  37.004  11.867
63386W        W28613  37.405   1.948   0.738
63387W        W28614  31.422  17.742   4.081
63388W        W28615  43.999   9.295  10.709
63389W        W28616   6.573  42.785  13.412
63390W        W28617  22.268  36.262   1.998
63391W        W28618  41.405   3.783  14.530
63392W        W28619  42.894  21.202  12.798
63393W        W28620  33.324   0.907  14.309
63394W        W28621   9.684  38.808  12.845
63395W        W28622  22.007  26.121   3.220
63396W        W28623  40.480  30.264   4.963
63397W        W28624  19.810   2.505  14.889
63398W        W28625  12.305  31.769  10.253
63399W        W28626  22.164   1.521   3.034
63400W        W28627  17.078  43.313  11.096
63401W        W28628  24.911  25.690   0.906
63402W        W28629  34.655  40.443  11.366
63403W        W28630  39.360  28.798   2.411
63404W        W28631  38.859  39.946  10.107
63405W        W28632  17.665  23.304   4.814
63406W        W28633  26.644  44.199   2.400
63407W        W28634   9.320  11.684  12.072
63408W        W28635  25.201  26.109   4.216
63409W        W28636  32.677  24.672   2.814
63410W        W28637  24.590  12.840   1.592
63411W        W28638  31.494  24.301   0.855
63412W        W28639  37.412  30.562   1.794
63413W        W28640  15.606  23.898   3.744
63414W        W28641  14.119  37.591   0.453
63415W        W28642  24.743  18.071   2.139
63416W        W28643  36.849  37.059  11.097
63417W        W28644  37.964  28.035  14.761
63418W        W28645  27.483  20.258  12.035
63419W        W28646  12.307  44.274  13.554
63420W        W28647  28.624  23.998  12.419
63421W        W28648  12.713  20.081  12.014
63422W        W28649   0.318  38.998  11.220
63423W        W28650  36.323  10.396  14.323
63424W        W28651  12.246  30.535   1.788
63425W        W28652  12.300   8.200   4.630
63426W        W28653  32.226  35.890  11.176
63427W        W28654  22.000  34.428   0.661
63428W        W28655  40.344  25.833   0.961
63429W        W28656  38.622  39.013   9.922
63430W        W28657  44.041  28.417  14.952
63431W        W28658  31.072  19.136  11.392
63432W        W28659  25.846  12.411  10.282
63433W        W28660  35.934  29.190  12.405
63434W        W28661   8.484  19.082   1.670
63435W        W28662  21.675  12.021   1.620
63436W        W28663  12.443  40.239   1.472
63437W        W28664  44.251  34.755   3.181
63438W        W28665   1.859  10.913   1.183
63439W        W28666  36.037  32.133  13.136
63440W        W28667  42.809  13.822   3.580
63441W        W28668  14.434   0.002   3.077
63442W        W28669  27.577   6.362  11.666
63443W        W28670   4.397  10.650  13.375
63444W        W28671   4.956   5.172   3.719
63445W        W28672  33.108  25.688  12.391
63446W        W28673   9.094  14.159   3.775
63447W        W28674  10.645  25.175   1.313
63448W        W28675  29.340   2.820   0.448
63449W        W28676   9.211   1.444  14.868
63450W        W28677   0.163   3.932   3.751
63451W        W28678   8.132   2.668   4.612
63452W        W28679  39.170  39.619   1.344
63453W        W28680  37.481  11.142  12.127
63454W        W28681   1.285  38.346   3.811
63455W        W28682  14.797  37.385   4.569
63456W        W28683  43.846  16.439   1.642
63457W        W28684  33.873   2.776  11.962
63458W        W28685  13.473   6.254  13.051
63459W        W28686  35.285  42.811   0.884
63460W        W28687  38.021  16.510   3.808
63461W        W28688  44.056  23.030  12.128
63462W        W28689  24.243  16.489  12.519
63463W        W28690  39.703  41.511  11.646
63464W        W28691  42.472  23.236   4.085
63465W        W28692  26.801  42.855  11.944
63466W        W28693  15.838   9.098  12.982
63467W        W28694  16.050   4.261   4.222
63468W        W28695   4.949   0.913  13.636
63469W        W28696  16.578   3.433  12.630
63470W        W28697   5.735  35.863  10.730
63471W        W28698  30.174  38.685  12.986
63472W        W28699  11.869  30.203   1.820
63473W        W28700   6.394   5.976   3.746
63474W        W28701  26.966   6.275   2.084
63475W        W28702  13.088  38.955   4.543
63476W        W28703  23.921  13.255  13.178
63477W        W28704  23.973  24.203   3.244
63478W        W28705  36.364  33.012  14.529
63479W        W28706  22.686  18.021   3.227
63480W        W28707  41.913  37.338  12.976
63481W        W28708  33.974  43.287   2.645
63482W        W28709  37.396   7.646  14.318
63483W        W28710   6.808  16.187  13.400
63484W        W28711   9.329  17.176   0.811
63485W        W28712  36.987  34.457  13.388
63486W        W28713   0.533  14.410  13.246
63487W        W28714  23.079  19.473  11.537
63488W        W28715   1.235  36.424  13.085
63489W        W28716  36.779  30.042   2.212
63490W        W28717  35.009   5.794   0.024
63491W        W28718  14.792  11.683   1.703
63492W        W28719   1.474  13.263   0.278
63493W        W28720  36.894  16.037  10.610
63494W        W28721  23.131  24.213   2.830
63495W        W28722   0.968  18.859  12.083
63496W        W28723   2.313  23.445  11.017
63497W        W28724  33.360  25.383   1.339
63498W        W28725  22.579  15.726   4.984
63499W        W28726   7.652   1.455   4.388
63500W        W28727   9.511  33.987   9.883
63501W        W28728   3.600  10.307  10.516
63502W        W28729  39.910  30.335  14.414
63503W        W28730  43.876  17.574  14.474
63504W        W28731  30.078  16.266   4.042
63505W        W28732  22.341  28.685  14.381
63506W        W28733  28.065  24.623  10.776
63507W        W28734  34.919  25.434   3.683
63508W        W28735  10.691  10.798  14.472
63509W        W28736   2.300   8.779  14.473
63510W        W28737  32.734   0.866  12.025
63511W        W28738  13.628  12.706  13.319
63512W        W28739  43.235  13.764  12.877
63513W        W28740  19.701  42.422  12.014
63514W        W28741  37.339  38.205   4.558
63515W        W28742   4.793  40.163  13.207
63516W        W28743  16.165  20.374  13.599
63517W        W28744   7.517  44.193  13.492
63518W        W28745  27.312  22.508   1.608
63519W        W28746   3.559  42.445   1.396
63520W        W28747   3.906  30.314   3.590
63521W        W28748  22.399  34.881  13.846
63522W        W28749   0.829  24.267   2.783
63523W        W28750  44.066  31.459   1.127
63524W        W28751  30.145  28.120   2.207
63525W        W28752  32.176  39.344   2.385
63526W        W28753  12.587  35.611  13.796
63527W        W28754   6.127  16.729  11.946
63528W        W28755  33.763  28.624   1.894
63529W        W28756  14.229  16.146   4.300
63530W        W28757  23.659   2.566   3.405
63531W        W28758  19.678  23.231   1.869
63532W        W28759  42.100  33.982   0.513
63533W        W28760  17.785  41.556   4.234
63534W        W28761  10.640  28.408   2.484
63535W        W28762  31.650  29.613  12.743
63536W        W28763  12.145  43.804   4.438
63537W        W28764  19.670  42.851  12.394
63538W        W28765  19.334  16.250   4.860
63539W        W28766  34.518  22.616   4.795
63540W        W28767  11.325   0.938  11.910
63541W        W28768  41.354  43.861  13.333
63542W        W28769  35.015  30.586   5.001
63543W        W28770  24.801  21.124  10.311
63544W        W28771  24.494  12.439   2.555
63545W        W28772   6.750  20.058  14.986
63546W        W28773   2.746  15.318   0.792
63547W        W28774  14.477   9.445   1.568
63548W        W28775   4.677   1.215  11.348
63549W        W28776  17.263  28.963  13.243
63550W        W28777  31.347  38.030  10.640
63551W        W28778  12.627  12.124   3.029
63552W        W28779   1.009  14.960   2.259
63553W        W28780  19.840   3.842  11.600
63554W        W28781  23.584   0.829   2.134
63555W        W28782  43.884   4.867  11.410
63556W        W28783  28.733  26.575  10.006
63557W        W28784  42.051   6.512   2.399
63558W        W28785  16.757  33.903   4.110
63559W        W28786  20.121  29.668   0.932
63560W        W28787  36.841  32.489  13.454
63561W        W28788  30.581  40.236   1.899
63562W        W28789  12.888   3.980   3.154
63563W        W28790  20.532  10.210   3.478
63564W        W28791  19.718  19.126   4.212
63565W        W28792  25.721  18.526  14.083
63566W        W28793  10.567  44.827   2.122
63567W        W28794   0.510  39.880   3.349
63568W        W28795  26.520  33.151   2.833
63569W        W28796   3.500  42.829  12.557
63570W        W28797  31.952  44.448  14.939
63571W        W28798   0.569  35.566   0.360
63572W        W28799   1.830  29.945   4.650
63573W        W28800  15.071  28.058  14.885
63574W        W28801  18.513   8.779   1.247
63575W        W28802   6.151  31.532   0.135
63576W        W28803  21.096   6.150   3.807
63577W        W28804  42.318  27.503   0.278
63578W        W28805  34.031  18.147  13.219
63579W        W28806  41.078  26.441   1.296
63580W        W28807  23.791  17.092   4.625
63581W        W28808   6.616  44.206   3.658
63582W        W28809  36.950  26.583  13.799
63583W        W28810  25.673   9.287   2.102
63584W        W28811   6.215  19.738   0.347
63585W        W28812  36.992  44.509  12.132
63586W        W28813  13.881  23.143  14.012
63587W        W28814   9.486  43.315  12.819
63588W        W28815   3.792  36.526  11.494
63589W        W28816  34.108  13.247   2.305
63590W        W28817   6.876  36.185   1.764
63591W        W28818  28.190  42.360   2.896
63592W        W28819  31.148  29.846  11.518
63593W        W28820  35.435  20.220   4.481
63594W        W28821  34.619  19.034   3.640
63595W        W28822  34.330   1.415  14.674
63596W        W28823  31.465   2.381   4.131
63597W        W28824  30.048  43.723   4.829
63598W        W28825  38.830  37.055   4.883
63599W        W28826  43.550  13.144  12.526
63600W        W28827   1.169   4.862  14.269
63601W        W28828  30.118  21.712  11.524
63602W        W28829  31.679  29.952   3.184
63603W        W28830  15.493   6.120   2.356
63604W        W28831  38.930  27.257  14.359
63605W        W28832  19.728   4.132   1.407
63606W        W28833  44.330  21.694   0.275
63607W        W28834  24.552  21.295   1.316
63608W        W28835   6.556  22.762   0.818
63609W        W28836  37.861  34.879   9.976
63610W        W28837   9.822  19.282  11.508
63611W        W28838  39.233  33.514   2.842
63612W        W28839  26.389  43.416  11.552
63613W        W28840  34.379  33.492   0.967
63614W        W28841   1.328   2.937   2.936
63615W        W28842  32.828  20.732  11.662
63616W        W28843  12.649  43.340  10.706
63617W        W28844  41.947  44.768   0.832
63618W        W28845  11.548  39.399  13.444
63619W        W28846  39.326  29.142  12.813
63620W        W28847   8.277  18.155   2.894
63621W        W28848  17.883  15.665  14.393
63622W        W28849  16.625  17.723  14.727
63623W        W28850  38.246  40.994   3.697
63624W        W28851   9.144  13.051  13.418
63625W        W28852  10.117  42.315   1.284
63626W        W28853  23.083  11.568  12.938
63627W        W28854  10.095  24.213   1.471
63628W        W28855  28.161  42.885  10.691
63629W        W28856  23.489  23.687   2.162
63630W        W28857  25.410  41.768  13.961
63631W        W28858   8.175   4.489  11.558
63632W        W28859  31.553   3.667   4.483
63633W        W28860  28.270   3.569   4.126
63634W        W28861  21.156   8.200   1.786
63635W        W28862  28.073   1.990   1.370
63636W        W28863  12.691  40.375   3.204
63637W        W28864  11.150  12.781  11.263
63638W        W28865  39.522  17.110  13.435
63639W        W28866  40.010   6.170  12.152
63640W        W28867  11.727  31.043  14.517
63641W        W28868  37.887  22.191   3.207
63642W        W28869  38.244  22.140  11.675
63643W        W28870  32.058  29.168   2.406
63644W        W28871  26.894   3.668  13.919
63645W        W28872  40.894   2.552   1.995
63646W        W28873  30.654  37.448  13.073
63647W        W28874  39.354  31.528   0.037
63648W        W28875  30.988  29.650  10.727
63649W        W28876  37.906   5.802  14.915
63650W        W28877  37.983  13.403  13.864
63651W        W28878  31.573  13.206   3.236
63652W        W28879  18.578  31.182  14.901
63653W        W28880  20.565  36.980   1.261
63654W        W28881  16.337   4.268   4.667
63655W        W28882   8.118   6.794   3.292
63656W        W28883  19.526  13.821  11.513
63657W        W28884  36.161   7.206  12.527
63658W        W28885  43.087  28.047  10.812
63659W        W28886   6.398  21.603   1.824
63660W        W28887  40.708  24.027  13.976
63661W        W28888  28.962  41.826   1.859
63662W        W28889  41.362   7.687   2.743
63663W        W28890   3.991   1.792  11.686
63664W        W28891  22.174   6.767   4.255
63665W        W28892  18.048  35.423  11.260
63666W        W28893  21.133  41.885   4.922
63667W        W28894  38.334   1.818  12.406
63668W        W28895  27.806  23.034  13.984
63669W        W28896  35.302  19.237  14.761
63670W        W28897   2.440  29.119  15.000
63671W        W28898  40.937  27.732   3.749
63672W        W28899  29.533  43.743  13.340
63673W        W28900   5.378   2.875  13.972
63674W        W28901  37.899   2.475  11.153
63675W        W28902  43.918  20.980   0.482
63676W        W28903  12.706   4.895  12.029
63677W        W28904  44.948  34.409   4.157
63678W        W28905  40.317  19.661   1.152
63679W        W28906  17.659  34.515   2.364
63680W        W28907   5.172  32.106   3.229
63681W        W28908   3.103  20.093   3.284
63682W        W28909  39.650  19.317  11.689
63683W        W28910  28.831  26.460   2.877
63684W        W28911  18.094  41.578   1.482
63685W        W28912   0.322  14.070  14.648
63686W        W28913  11.794  10.168   1.477
63687W        W28914  19.687  14.244  13.967
63688W        W28915  29.644  21.097  12.295
63689W        W28916  38.881  40.208  11.099
63690W        W28917  34.487  39.300   1.372
63691W        W28918   4.159  37.646   2.378
63692W        W28919  36.401  10.252   0.543
63693W        W28920  25.409  14.832  14.472
63694W        W28921   1.735   9.666   2.410
63695W        W28922  30.309  28.191  11.802
63696W        W28923  10.929  43.907   0.803
63697W        W28924  26.513  18.571   3.148
63698W        W28925  41.511  43.947  13.862
63699W        W28926  35.924   7.394   0.262
63700W        W28927  21.580  42.464  12.469
63701W        W28928  31.497  17.975  12.880
63702W        W28929  36.975  34.356  11.170
63703W        W28930  27.405  37.346   0.896
63704W        W28931  12.459  36.996  13.806
63705W        W28932   5.717   6.741  13.359
63706W        W28933  36.280  18.208   2.155
63707W        W28934   6.167  36.812   3.322
63708W        W28935  26.608  14.396  12.164
63709W        W28936  22.287  23.630   2.834
63710W        W28937  20.076  12.619  12.096
63711W        W28938  38.532  19.223   3.436
63712W        W28939  19.743   6.214   1.341
63713W        W28940  31.504  43.949   1.931
63714W        W28941   0.829  32.881  12.441
63715W        W28942  11.561   7.694  14.356
63716W        W28943   0.551   1.006   1.922
63717W        W28944  33.081  40.592  11.543
63718W        W28945  10.521   7.489   1.878
63719W        W28946  30.183  11.366  11.880
63720W        W28947  27.034  30.990  12.654
63721W        W28948  26.760  30.746   0.813
63722W        W28949  32.091  11.751   3.817
63723W        W28950  22.583  41.989  14.765
63724W        W28951   3.255  25.240  13.928
63725W        W28952  16.735  42.357  11.623
63726W        W28953  36.503  31.458  14.840
63727W        W28954  37.606   7.748   0.318
63728W        W28955  43.072   5.679   1.790
63729W        W28956  36.880  11.393  14.078
63730W        W28957  35.517  28.423  10.914
63731W        W28958  21.844  24.231   1.366
63732W        W28959  41.815   0.742  11.633
63733W        W28960  37.073   0.694   4.185
63734W        W28961   6.164   7.541  13.021
63735W        W28962   3.343  42.324  11.675
63736W        W28963  40.494  14.176   3.797
63737W        W28964   3.961   3.221  12.945
63738W        W28965   8.502  21.763   2.602
63739W        W28966   9.072  26.920   4.413
63740W        W28967   6.793  15.589  14.496
63741W        W28968  25.593  32.164  12.648
63742W        W28969  13.350  36.668  12.560
63743W        W28970   4.712  21.701  14.416
63744W        W28971  32.917  22.605  14.565
63745W        W28972  19.491   8.460  13.965
63746W        W28973  22.826  29.598  14.530
63747W        W28974  41.537  26.531  11.654
63748W        W28975  17.525  16.536  14.358
63749W        W28976   8.106  31.530  13.503
63750W        W28977  10.315  24.761  12.856
63751W        W28978  21.629  11.951  12.164
63752W        W28979   2.255  33.464  13.995
63753W        W28980  27.241  36.548   1.422
63754W        W28981  24.867  37.007  10.857
63755W        W28982  34.900  31.920  11.603
63756W        W28983  16.804  19.066  13.952
63757W        W28984  20.003  14.583   1.294
63758W        W28985  35.372  39.309  14.814
63759W        W28986  44.433  23.075  11.168
63760W        W28987  29.039  31.490   4.801
63761W        W28988   6.117  30.557  14.200
63762W        W28989  12.541  42.763   3.145
63763W        W28990   6.743  16.527   3.626
63764W        W28991  44.130  38.879   2.562
63765W        W28992   5.968   1.434  14.042
63766W        W28993   5.493  24.036  12.874
63767W        W28994  22.971  43.345   0.802
63768W        W28995   7.350  39.093  11.207
63769W        W28996  23.078  41.073   2.761
63770W        W28997  28.195  22.384  12.015
63771W        W28998  17.214  16.371  14.861
63772W        W28999   9.588  30.364   1.745
63773W        W29000  10.457   2.164  13.586
63774W        W29001  11.581  38.941  14.084
63775W        W29002  37.076   4.894  13.590
63776W        W29003   8.932  37.644  13.958
63777W        W29004   8.836  41.040   4.484
63778W        W29005  33.026  30.909  10.890
63779W        W29006  20.227  44.819   3.000
63780W        W29007  20.700  29.301  10.911
63781W        W29008  39.412  34.558   1.414
63782W        W29009  17.486  16.122   4.156
63783W        W29010  17.914  13.277   3.262
63784W        W29011  44.372  14.810  14.850
63785W        W29012   5.392   1.712   2.201
63786W        W29013  15.500  36.210  11.673
63787W        W29014  36.527  31.546   1.194
63788W        W29015  40.460  38.134  11.633
63789W        W29016  22.132  14.129  13.125
63790W        W29017  31.338  21.159   5.029
63791W        W29018  11.321  24.653  14.299
63792W        W29019  37.297  18.172   4.490
63793W        W29020  43.894  41.000  13.601
63794W        W29021  16.587  33.029  12.457
63795W        W29022  32.632  24.673   4.362
63796W        W29023  21.125  16.645   0.483
63797W        W29024  36.574  20.837  14.418
63798W        W29025   4.657   9.825  14.460
63799W        W29026  13.279   3.236   2.504
63800W        W29027   8.453  20.743  13.571
63801W        W29028   9.485  12.095   1.869
63802W        W29029  35.555  25.955   3.136
63803W        W29030  44.070  16.120   4.155
63804W        W29031  30.451  22.140   0.364
63805W        W29032  41.323   2.791   3.550
63806W        W29033   8.337  20.859  13.075
63807W        W29034   4.487  38.401  11.509
63808W        W29035  31.560  38.529  14.941
63809W        W29036  23.656  42.761   3.092
63810W        W29037  21.881  39.504   4.847
63811W        W29038  18.975   4.259   4.029
63812W        W29039  12.869  30.552  12.421
63813W        W29040   4.733  40.835  13.865
63814W        W29041  36.406  36.464  13.561
63815W        W29042  31.459   2.272  13.888
63816W        W29043   8.883   2.839  14.602
63817W        W29044  37.607  30.455  13.879
63818W        W29045  15.301   3.695   4.170
63819W        W29046  41.463   6.670   0.340
63820W        W29047  28.447  28.899   3.576
63821W        W29048  10.252  16.508  13.419
63822W        W29049  30.875   8.613  11.637
63823W        W29050  31.408  13.090   1.360
63824W        W29051  35.534  16.805   2.281
63825W        W29052  39.932  12.557   4.746
63826W        W29053  32.356  11.394   3.599
63827W        W29054  19.834  43.191   4.119
63828W        W29055   5.469  38.566   2.702
63829W        W29056  17.195   6.267  11.659
63830W        W29057  26.979   8.297   3.061
63831W        W29058  42.504  25.571   2.460
63832W        W29059  30.645  23.571  13.990
63833W        W29060  26.545  15.632   3.605
63834W        W29061  44.992  19.113   2.929
63835W        W29062  33.342  23.469  12.442
63836W        W29063   7.765  39.153  13.743
63837W        W29064  16.371  20.136  13.011
63838W        W29065  15.676  16.764  12.433
63839W        W29066  34.563   9.779   0.400
63840W        W29067  25.148  36.013  13.498
63841W        W29068  35.977  21.233  11.069
63842W        W29069  31.601   7.324   2.682
63843W        W29070  42.905   5.201  13.962
63844W        W29071  44.186  21.057   0.031
63845W        W29072   9.897  30.843   1.393
63846W        W29073   5.180  41.591  13.904
63847W        W29074   0.946  33.585   0.821
63848W        W29075  28.508  31.901   1.845
63849W        W29076  27.324   4.389  14.950
63850W        W29077  28.686  31.584   1.428
63851W        W29078  32.164  12.118   0.978
63852W        W29079   0.485   0.304   3.716
63853W        W29080  26.914  11.277   4.911
63854W        W29081  22.438  28.792  10.329
63855W        W29082  40.582  31.174  13.498
63856W        W29083  37.697   4.662   1.906
63857W        W29084  30.101  10.852  13.536
63858W        W29085  36.486   7.734  14.170
63859W        W29086  26.199  17.614   3.740
63860W        W29087  27.350   4.679   4.033
63861W        W29088  44.491  13.285  14.868
63862W        W29089  19.653  44.642   2.205
63863W        W29090  21.068   2.661   3.939
63864W        W29091  12.568  29.159   3.190
63865W        W29092   0.644   7.629  13.578
63866W        W29093  38.574  13.182  14.513
63867W        W29094  28.629  39.696   4.465
63868W        W29095  17.862   8.603  12.191
63869W        W29096  15.688  24.338   0.426
63870W        W29097  12.361   5.254   0.017
63871W        W29098  37.457  17.012  12.964
63872W        W29099  31.928   9.749   1.773
63873W        W29100  24.435  30.564   4.493
63874W        W29101  25.221   5.501   4.404
63875W        W29102   2.232  39.031   1.333
63876W        W29103  16.884  41.485   3.212
63877W        W29104   8.048  10.068   3.155
63878W        W29105  12.501   8.200  10.977
63879W        W29106  30.403  16.634  11.919
63880W        W29107  34.616  43.151   4.263
63881W        W29108  31.541   6.614  13.835
63882W        W29109  30.653  13.637   3.775
63883W        W29110  13.434   8.634  11.316
63884W        W29111  37.646   3.541   0.823
63885W        W29112  41.758  11.353  14.307
63886W        W29113  10.280  16.976  14.001
63887W        W29114   5.288  17.259  14.014
63888W        W29115  26.479   3.839  14.222
63889W        W29116  39.347  44.295  12.934
63890W        W29117   5.136   1.833  13.908
63891W        W29118  19.810  30.574  14.508
63892W        W29119  25.348  19.000  13.423
63893W        W29120  13.524  35.933   0.313
63894W        W29121  33.105  16.105  11.961
63895W        W29122  11.119  22.563  14.733
63896W        W29123   4.306  11.535   3.130
63897W        W29124  36.652   1.981   3.396
63898W        W29125  30.400  10.492   0.702
63899W        W29126  44.887  23.412   2.751
63900W        W29127   9.379  20.460  12.521
63901W        W29128   2.716  31.539  13.106
63902W        W29129   1.723  24.169  10.548
63903W        W29130  16.581  31.722  14.492
63904W        W29131   6.887  38.922   0.042
63905W        W29132   6.705   5.241   3.885
63906W        W29133  30.881  18.705   3.316
63907W        W29134   9.125  11.636  13.533
63908W        W29135  36.864  26.056  12.480
63909W        W29136   2.484  23.329  13.714
63910W        W29137  35.665  30.593   2.819
63911W        W29138  44.349  27.568  12.825
63912W        W29139  29.440   9.439  14.283
63913W        W29140  33.454  40.575   4.107
63914W        W29141  13.630  43.388   1.368
63915W        W29142  34.182  26.275   0.459
63916W        W29143  14.849  38.856  12.672
63917W        W29144  28.479   1.163  13.327
63918W        W29145  42.750  24.614  14.467
63919W        W29146  19.816  34.431   3.128
63920W        W29147   3.420  38.617   0.972
63921W        W29148  43.424   2.178  10.819
63922W        W29149  26.846  32.975  10.729
63923W        W29150  42.921  23.709  11.875
63924W        W29151  32.653  23.945  12.054
63925W        W29152  36.572  12.603   1.341
63926W        W29153  25.126  20.454   3.258
63927W        W29154  30.638  43.206  12.459
63928W        W29155  44.973   3.729  12.163
63929W        W29156  19.288  40.565   0.546
63930W        W29157  24.638  43.609  12.839
63931W        W29158  43.820   3.341  13.444
63932W        W29159   3.728  21.352  10.962
63933W        W29160  16.671  24.625  14.488
63934W        W29161  12.793  25.170   1.414
63935W        W29162   8.278  42.352  11.329
63936W        W29163  24.130  39.048   2.653
63937W        W29164  39.484   4.700  13.362
63938W        W29165  22.931  31.965   1.389
63939W        W29166   7.597  15.003  13.269
63940W        W29167  40.171  26.997   0.390
63941W        W29168  37.545   3.257   2.557
63942W        W29169  23.925   1.556  14.593
63943W        W29170  29.565  33.046   1.495
63944W        W29171  10.479  37.051  12.951
63945W        W29172   4.851  36.244  12.888
63946W        W29173  36.744  16.654   2.067
63947W        W29174  19.500  31.171  13.301
63948W        W29175  27.938  28.361  12.984
63949W        W29176  44.569   1.640   1.108
63950W        W29177  31.871  40.261  14.471
63951W        W29178  18.568   2.952   0.992
63952W        W29179  25.474  36.390  12.560
63953W        W29180  31.374  42.040   0.041
63954W        W29181   0.236  23.160  10.502
63955W        W29182  42.477  18.780  14.010
63956W        W29183  26.772  20.655   4.577
63957W        W29184   3.022  37.685   0.400
63958W        W29185   2.720   6.731  13.940
63959W        W29186   4.416  18.213  10.595
63960W        W29187  35.684  22.255   2.151
63961W        W29188   8.687  14.129  12.603
63962W        W29189  17.233  34.113  12.824
63963W        W29190  21.751  25.656  14.356
63964W        W29191  42.907  26.503  13.489
63965W        W29192  30.644  27.958   2.179
63966W        W29193  36.593  16.971   0.033
63967W        W29194  19.131  15.117   0.732
63968W        W29195  28.670  36.925   4.091
63969W        W29196  27.646  36.788   1.654
63970W        W29197   4.824  38.611  10.207
63971W        W29198  40.862   0.038  14.401
63972W        W29199  35.880  43.324  11.186
63973W        W29200   6.847  23.173  10.766
63974W        W29201  28.634  18.653  12.587
63975W        W29202  12.125  26.030   4.121
63976W        W29203  15.168  41.855  12.827
63977W        W29204  28.551  43.064   0.920
63978W        W29205   3.180  30.867  14.310
63979W        W29206   5.055  33.641  13.029
63980W        W29207  35.559  43.977   4.789
63981W        W29208  21.733  38.209  12.978
63982W        W29209  26.677  33.197   2.349
63983W        W29210  30.656  15.514   3.077
63984W        W29211  32.582   7.567   2.165
63985W        W29212  36.576   0.530   0.119
63986W        W29213  30.003  10.279  12.478
63987W        W29214   8.130  10.360   0.539
63988W        W29215  13.848   6.533   2.734
63989W        W29216  26.937   8.628   3.450
63990W        W29217  26.014  32.125   3.600
63991W        W29218  12.152  15.578  14.988
63992W        W29219  10.356  17.204  11.212
63993W        W29220   1.468  39.563   1.636
63994W        W29221  43.577  44.303   1.392
63995W        W29222   1.288  23.173   3.096
63996W        W29223  32.612  21.651  14.344
63997W        W29224   9.868  14.784  13.508
63998W        W29225  31.475  27.717  13.095
63999W        W29226   5.900   6.887   3.115
64000W        W29227   0.869   2.052   1.233
64001W        W29228  13.097  26.686  14.846
64002W        W29229  39.826  19.532   0.987
64003W        W29230   8.846  42.909  13.355
64004W        W29231   0.441   3.970   2.339
64005W        W29232  22.775  32.979   3.096
64006W        W29233  40.358  34.204   1.588
64007W        W29234  42.068  20.742   0.083
64008W        W29235  33.591  42.317  11.114
64009W        W29236  14.537  34.305  12.987
64010W        W29237  23.626  21.822   4.556
64011W        W29238  42.157  41.404   4.561
64012W        W29239  38.375   5.737  11.947
64013W        W29240   7.310  20.647  11.620
64014W        W29241  20.947  44.866   0.863
64015W        W29242  17.603  42.393  14.526
64016W        W29243   5.379  18.671  12.805
64017W        W29244  30.017  35.238  14.931
64018W        W29245  21.206  41.807  12.012
64019W        W29246  17.185  43.978   4.598
64020W        W29247  19.246  35.436   0.299
64021W        W29248  43.754  41.649   1.499
64022W        W29249  18.093  12.426  12.501
64023W        W29250  43.658  10.852  10.711
64024W        W29251  37.137  23.558   0.263
64025W        W29252   8.903   9.141   2.220
64026W        W29253  19.819   3.361  13.782
64027W        W29254  26.962  39.539   2.310
64028W        W29255  25.613   0.512   0.778
64029W        W29256  23.563  41.259   0.698
64030W        W29257  14.116  11.070  13.378
64031W        W29258  25.042  12.888  12.211
64032W        W29259  13.103  22.660   2.422
64033W        W29260  20.141   4.369  14.055
64034W        W29261  37.074   6.812   4.032
64035W        W29262  12.497  15.769   2.717
64036W        W29263  24.940  27.919   0.776
64037W        W29264  16.262   5.286  11.677
64038W        W29265  35.579  25.712  11.050
64039W        W29266  43.342  41.682   0.885
64040W        W29267  39.235  29.428  12.363
64041W        W29268  11.616   8.152   3.757
64042W        W29269   3.563  24.177  12.041
64043W        W29270  33.121  38.468   4.611
64044W        W29271  21.345  24.697   3.720
64045W        W29272  39.955   8.831   4.302
64046W        W29273  14.806   6.905   4.476
64047W        W29274   4.662   6.380  13.443
64048W        W29275  34.894  22.847   2.445
64049W        W29276  42.044   9.567  10.232
64050W        W29277  42.730  25.631  11.980
64051W        W29278   9.768  32.053  11.149
64052W        W29279   0.562  12.553   3.217
64053W        W29280  33.909  19.535   1.455
64054W        W29281  35.290  29.775  10.652
64055W        W29282  21.692  30.501  13.053
64056W        W29283  26.174  26.988  14.075
64057W        W29284   1.823  35.129  12.340
64058W        W29285   4.983  20.532  14.561
64059W        W29286  22.657  21.967  11.406
64060W        W29287   6.801  31.517   3.426
64061W        W29288   3.727  29.065  13.847
64062W        W29289  19.201  26.933   3.606
64063W        W29290  44.236  10.763  12.802
64064W        W29291   3.691   3.206   9.801
64065W        W29292  11.355  19.640  13.948
64066W        W29293  38.527  11.810  11.472
64067W        W29294  17.229  27.880  10.779
64068W        W29295   2.723   9.450   2.750
64069W        W29296  12.348   1.823  12.514
64070W        W29297  19.509  22.214   1.714
64071W        W29298  14.290   3.414   2.806
64072W        W29299  33.499  30.595   2.199
64073W        W29300  19.509  23.733   1.797
64074W        W29301  41.489  15.411   3.216
64075W        W29302   0.191  27.186  13.395
64076W        W29303  21.608   5.901  10.764
64077W        W29304  22.730  18.758  14.258
64078W        W29305  38.483  12.106   0.294
64079W        W29306  36.304   9.011   0.882
64080W        W29307   8.063  27.979  14.692
64081W        W29308  32.837  14.297   0.809
64082W        W29309  35.322  15.124  11.691
64083W        W29310   2.100  28.830   2.676
64084W        W29311  40.273  29.497  12.491
64085W        W29312   1.230  30.063  12.341
64086W        W29313   6.406  13.326  14.352
64087W        W29314   3.334  14.562   0.536
64088W        W29315  11.674  23.086   3.782
64089W        W29316  39.569  19.280   3.590
64090W        W29317   3.776  31.215  13.508
64091W        W29318  19.547   3.408   0.435
64092W        W29319  41.449  18.843  11.946
64093W        W29320  40.462  36.512  14.276
64094W        W29321  43.212  22.417   3.122
64095W        W29322  32.037  34.029  11.157
64096W        W29323  12.333  43.237   0.311
64097W        W29324  32.531  33.413  13.768
64098W        W29325  10.197  37.670  11.490
64099W        W29326  41.333   1.520  14.845
64100W        W29327  33.038  21.043  12.066
64101W        W29328   7.768  31.542   4.952
64102W        W29329  37.577  38.524  11.518
64103W        W29330  28.414  21.677   0.843
64104W        W29331  35.919  37.114   2.639
64105W        W29332  33.402  20.332  12.110
64106W        W29333  40.108  44.775  10.705
64107W        W29334  27.076  35.506  10.920
64108W        W29335   2.821  27.060  13.081
64109W        W29336  28.170  14.635  11.913
64110W        W29337  23.642  44.745   4.046
64111W        W29338  19.734  26.626  10.346
64112W        W29339  43.427  29.159  12.002
64113W        W29340  12.706   9.847  11.599
64114W        W29341  18.502  40.473   1.690
64115W        W29342  38.011   8.796   2.439
64116W        W29343   5.330   7.549   1.367
64117W        W29344   9.870  25.926   1.727
64118W        W29345   8.128   7.014  11.161
64119W        W29346  24.133  12.087  11.083
64120W        W29347   3.903  14.732  14.243
64121W        W29348  37.489  13.119  11.818
64122W        W29349  30.842  34.931   2.688
64123W        W29350  32.234  14.716   4.019
64124W        W29351  19.769   9.908   1.014
64125W        W29352  10.398  28.022  14.401
64126W        W29353  19.689   7.740   1.241
64127W        W29354  28.118  17.753  10.760
64128W        W29355  22.109  37.358  11.607
64129W        W29356  26.217  20.406   1.726
64130W        W29357  42.510  40.266   2.818
64131W        W29358  39.362  29.699  11.057
64132W        W29359  35.845  43.925   4.174
64133W        W29360  19.995  40.482   4.032
64134W        W29361  39.079  16.842  13.422
64135W        W29362  26.167  44.050   2.591
64136W        W29363  37.565  39.482   1.967
64137W        W29364  25.579   3.903  12.561
64138W        W29365   7.157   7.344   1.255
64139W        W29366  30.537  32.894  11.648
64140W        W29367  21.247  40.359   3.325
64141W        W29368  16.586  33.519   2.283
64142W        W29369  30.453  12.587   0.906
64143W        W29370  35.979  19.124   0.290
64144W        W29371  30.573   9.971   3.668
64145W        W29372  27.494  37.308  12.644
64146W        W29373  38.628  42.623  13.033
64147W        W29374  34.637  38.908   3.794
64148W        W29375  27.594  30.588   4.176
64149W        W29376   4.634  15.150  12.438
64150W        W29377  44.257  44.448  13.435
64151W        W29378   3.855  37.273   2.107
64152W        W29379  29.431  11.424   2.558
64153W        W29380  16.665  28.861  14.009
64154W        W29381  16.914  38.825   1.395
64155W        W29382  37.592  12.307  13.443
64156W        W29383  27.860  23.141  13.005
64157W        W29384  41.247   3.645   2.879
64158W        W29385  23.750  42.401   4.875
64159W        W29386  27.669  32.914  10.779
64160W        W29387  44.986  38.924   0.796
64161W        W29388  31.353  30.523   1.793
64162W        W29389   2.892  31.197   5.012
64163W        W29390  36.803   1.587   4.436
64164W        W29391  39.632  17.430   0.944
64165W        W29392   6.253  22.533   3.585
64166W        W29393  36.045   3.931   1.755
64167W        W29394  17.094  40.393   5.036
64168W        W29395  24.574  40.923   3.756
64169W        W29396  12.114  15.825  13.393
64170W        W29397  22.628  10.236  10.521
64171W        W29398  44.329  10.512   4.088
64172W        W29399   2.337   0.914  10.145
64173W        W29400  10.683  28.946   1.063
64174W        W29401  34.385  40.906   2.802
64175W        W29402  21.567   3.768   2.644
64176W        W29403  10.116  39.229  14.347
64177W        W29404   5.611  22.515  14.967
64178W        W29405  22.011  44.273  11.559
64179W        W29406  36.875  32.609   3.403
64180W        W29407  36.305  43.309   4.205
64181W        W29408  21.802   4.272  14.538
64182W        W29409  36.153   0.466   1.294
64183W        W29410  35.057  28.477   2.871
64184W        W29411  30.362   9.586  10.258
64185W        W29412   8.152   6.395   0.269
64186W        W29413  10.142  23.521   1.776
64187W        W29414  13.246   6.278  14.821
64188W        W29415  36.722   5.972   9.622
64189W        W29416   4.364  31.374  13.856
64190W        W29417  27.634  11.752  13.273
64191W        W29418   3.926  24.512   0.019
64192W        W29419   6.256  18.978  14.162
64193W        W29420  39.156  13.361   3.377
64194W        W29421  12.861  14.272   3.506
64195W        W29422   1.439  24.053   0.524
64196W        W29423  39.760   7.909  11.565
64197W        W29424  30.969   0.427   3.223
64198W        W29425   8.272  15.848  14.985
64199W        W29426  39.723  30.666  13.590
64200W        W29427   8.598  42.991   0.208
64201W        W29428  20.111  10.710  13.514
64202W        W29429  33.623  35.830  13.365
64203W        W29430  21.722   2.773   3.596
64204W        W29431   9.257  28.749   3.334
64205W        W29432  25.631  30.935  10.858
64206W        W29433   4.905  21.532   0.250
64207W        W29434  39.717  36.934   0.273
64208W        W29435  17.729  24.933  12.089
64209W        W29436  25.503  22.664   2.659
64210W        W29437  14.212  36.580   4.693
64211W        W29438  18.727  44.707   2.284
64212W        W29439  22.588  10.213   2.457
64213W        W29440  15.565  22.951  12.114
64214W        W29441  25.255  13.632   4.390
64215W        W29442  11.569   1.472   0.886
64216W        W29443   8.960  16.832   3.117
64217W        W29444  14.875  40.673   3.158
64218W        W29445  34.756   1.427  14.966
64219W        W29446   4.419  30.137   3.624
64220W        W29447  35.085   9.650  12.596
64221W        W29448  18.228  18.621  12.898
64222W        W29449  24.505  29.418  13.861
64223W        W29450   1.553  30.124   1.073
64224W        W29451  15.041  36.040   2.325
64225W        W29452  39.870  40.798  14.460
64226W        W29453  31.160   0.699   4.378
64227W        W29454  17.109  35.458  12.284
64228W        W29455  21.611  35.192  13.830
64229W        W29456  19.204  21.971  12.114
64230W        W29457  35.934  34.613   1.749
64231W        W29458  20.869  36.061   3.726
64232W        W29459  22.154  42.354   0.666
64233W        W29460  25.528  44.893   4.405
64234W        W29461   7.785   5.640   1.794
64235W        W29462  32.868  13.605   0.317
64236W        W29463  18.720  40.825   4.678
64237W        W29464  21.243  13.757   4.605
64238W        W29465   9.005   7.118  11.957
64239W        W29466  29.498   0.001  14.819
64240W        W29467  16.406  35.041   0.328
64241W        W29468  33.546  21.680  10.618
64242W        W29469  15.187  10.887  12.084
64243W        W29470  34.540  19.008   0.232
64244W        W29471   3.359   7.666  12.889
64245W        W29472  42.955  34.954   3.187
64246W        W29473  13.160  16.400   1.152
64247W        W29474  25.522  25.161  12.462
64248W        W29475  10.683  38.058  12.451
64249W        W29476  19.862  18.065  14.781
64250W        W29477   3.436  14.384   0.012
64251W        W29478  18.654  17.176   2.582
64252W        W29479  20.617  16.185   4.560
64253W        W29480  44.251  40.762   2.764
64254W        W29481   5.285  40.745  11.121
64255W        W29482  31.633  23.333  14.509
64256W        W29483  42.374  12.619   3.208
64257W        W29484  40.933   3.061  10.155
64258W        W29485  28.039  11.059   3.342
64259W        W29486  33.474   6.669   2.585
64260W        W29487  32.366  36.089  14.506
64261W        W29488  15.090  16.666   3.199
64262W        W29489  23.675  10.050   1.974
64263W        W29490   8.927  36.159  10.758
64264W        W29491  35.935  32.333  14.928
64265W        W29492  28.604   4.989  10.484
64266W        W29493   5.328  10.308  10.628
64267W        W29494   1.424   1.847  11.590
64268W        W29495  29.146  42.557  11.106
64269W        W29496  27.161  17.202  10.680
64270W        W29497   8.315   6.332   2.368
64271W        W29498  15.555  25.554  13.539
64272W        W29499  25.712  33.599   0.973
64273W        W29500  31.367  14.192   4.134
64274W        W29501  40.941  13.732   0.527
64275W        W29502  37.633  34.979  10.800
64276W        W29503   9.582   3.970   2.385
64277W        W29504  44.767  25.699   3.257
64278W        W29505  22.323  33.228  12.173
64279W        W29506   6.759   8.436   1.850
64280W        W29507  33.896   4.298   1.227
64281W        W29508   8.149  18.130  13.537
64282W        W29509  34.504  43.249   2.714
64283W        W29510  10.537   2.132   2.729
64284W        W29511   6.764   1.959  12.949
64285W        W29512  20.780  43.718  10.641
64286W        W29513  13.741  23.312  11.801
64287W        W29514  24.696  18.458   4.297
64288W        W29515  29.250   4.575  14.270
64289W        W29516  36.032   3.629  11.149
64290W        W29517  21.690  43.598   4.206
64291W        W29518  12.437   0.939   3.111
64292W        W29519  32.585  33.389   3.138
64293W        W29520   6.228  20.927   4.070
64294W        W29521  15.098  33.867  11.212
64295W        W29522  35.866  22.084  11.537
64296W        W29523  17.474  34.608  12.930
64297W        W29524  28.195  21.414   5.266
64298W        W29525  12.816   2.820   4.141
64299W        W29526   7.640  10.277   0.759
64300W        W29527  32.617  11.264   2.327
64301W        W29528  13.030  38.134   2.345
64302W        W29529   2.514  38.467  12.649
64303W        W29530   5.517   1.731  14.490
64304W        W29531  18.616  10.168   0.205
64305W        W29532  27.837   7.316   1.902
64306W        W29533  34.186  40.011   4.239
64307W        W29534  42.859  20.019   3.163
64308W        W29535  27.648   7.277   0.985
64309W        W29536  35.660  30.875   3.685
64310W        W29537  17.522  26.009  10.837
64311W        W29538  15.662  29.222   2.877
64312W        W29539  26.129  12.377  14.890
64313W        W29540  42.408  25.890   1.136
64314W        W29541  38.357  17.765  14.980
64315W        W29542   4.997  41.747   4.049
64316W        W29543  36.466   8.239  14.788
64317W        W29544  36.135  26.591  13.412
64318W        W29545   9.299   4.695   9.998
64319W        W29546  26.046   6.062   1.895
64320W        W29547  40.210  36.365  13.839
64321W        W29548   6.762  15.094  14.369
64322W        W29549  36.594  11.304   0.951
64323W        W29550   7.201   1.218   1.793
64324W        W29551  10.442   3.826   3.121
64325W        W29552  29.039  41.005   1.426
64326W        W29553  35.150  21.670   4.420
64327W        W29554  22.683  39.147   2.044
64328W        W29555  40.756  27.949   4.191
64329W        W29556  32.387  25.431   1.501
64330W        W29557  33.076  31.435   1.913
64331W        W29558   1.025  33.336   4.584
64332W        W29559   9.579  31.646  11.881
64333W        W29560  40.792   8.265   4.088
64334W        W29561  44.535  30.723   4.366
64335W        W29562   8.763  44.292  14.473
64336W        W29563   0.769  11.745  11.158
64337W        W29564  11.145  43.467  12.053
64338W        W29565  39.031   8.796   3.230
64339W        W29566  37.858  42.380   0.124
64340W        W29567  33.833  33.616   3.869
64341W        W29568  14.291  39.694  12.732
64342W        W29569  33.349  39.010  13.511
64343W        W29570  36.158  35.992  13.488
64344W        W29571  43.368  33.069  14.981
64345W        W29572  37.613  18.820   1.421
64346W        W29573  18.118  33.518  12.110
64347W        W29574   2.176  32.578   0.281
64348W        W29575  42.574  42.964  10.786
64349W        W29576  26.890  30.713  13.576
64350W        W29577  22.065  21.612   3.222
64351W        W29578  28.614  32.859  12.226
64352W        W29579   7.400  12.282  10.808
64353W        W29580   7.960  41.044  12.091
64354W        W29581  43.719  27.971   5.386
64355W        W29582  25.652  44.628   3.474
64356W        W29583   8.812   6.805   1.677
64357W        W29584  39.605  11.096   4.672
64358W        W29585  35.554  37.903   9.825
64359W        W29586  26.176  29.208  12.555
64360W        W29587  42.325  36.935   3.216
64361W        W29588   9.915   8.129  11.127
64362W        W29589  16.179  28.567   3.400
64363W        W29590  23.117  23.289  10.276
64364W        W29591  40.523  29.118  12.057
64365W        W29592  16.198  43.045   3.707
64366W        W29593   3.266   1.016   4.297
64367W        W29594  12.080  38.596  12.655
64368W        W29595  11.758  20.279   4.370
64369W        W29596  21.084  32.112   4.090
64370W        W29597  13.081  22.710   3.429
64371W        W29598  19.645  41.622  14.048
64372W        W29599  19.406  33.120   2.719
64373W        W29600  30.554  18.277   2.654
64374W        W29601  30.047   4.338  12.077
64375W        W29602  29.508  20.995   2.256
64376W        W29603  28.941   5.361   2.261
64377W        W29604   0.819  12.644  12.530
64378W        W29605   0.385  33.593  13.819
64379W        W29606  18.112  20.116   0.725
64380W        W29607  41.908  17.601   0.392
64381W        W29608  28.724  10.885  11.111
64382W        W29609   3.764  33.306  13.546
64383W        W29610   6.898  30.674   2.161
64384W        W29611  35.586   1.534   2.944
64385W        W29612  16.354   7.935  11.654
64386W        W29613  26.173  23.575   1.406
64387W        W29614   0.911  22.915   0.333
64388W        W29615  13.918  25.696   1.302
64389W        W29616  39.792  14.352   3.239
64390W        W29617  40.070  30.077   3.266
64391W        W29618  38.425   7.474  14.755
64392W        W29619   3.735  12.147  10.769
64393W        W29620  36.322  23.593   2.690
64394W        W29621  41.407  28.447   2.279
64395W        W29622  16.851  17.489   3.361
64396W        W29623  31.992  18.179   2.515
64397W        W29624  34.400  24.112  10.450
64398W        W29625  43.829  18.388  14.042
64399W        W29626  18.507  30.653  11.949
64400W        W29627   2.200  26.208  14.829
64401W        W29628   3.522  32.061  11.979
64402W        W29629  12.621   5.248  12.414
64403W        W29630  36.143  39.515  14.391
64404W        W29631   4.485  18.826   4.570
64405W        W29632  21.575  20.269   3.618
64406W        W29633   0.733   5.713   2.815
64407W        W29634  23.628   8.662  14.495
64408W        W29635  21.844   9.580   0.352
64409W        W29636  12.584  35.438  12.481
64410W        W29637  24.341  11.529   5.158
64411W        W29638  29.158  21.713   0.473
64412W        W29639   1.692  15.267  12.649
64413W        W29640   2.061  11.641  12.081
64414W        W29641  10.958  12.814  12.551
64415W        W29642  16.726   0.825   0.704
64416W        W29643  31.985  11.446  12.032
64417W        W29644   5.901  22.271  10.486
64418W        W29645  25.740  31.855   4.006
64419W        W29646  32.183  39.986  13.379
64420W        W29647  19.942  31.369  11.108
64421W        W29648  32.398  21.554   1.157
64422W        W29649   7.458  42.250  14.181
64423W        W29650  38.914   8.215  13.525
64424W        W29651  16.600  29.620   1.168
64425W        W29652  28.607  33.071   2.680
64426W        W29653  38.850  22.089  11.048
64427W        W29654  39.331  22.603   1.536
64428W        W29655  22.964  40.584  13.937
64429W        W29656  30.683  15.842   3.510
64430W        W29657  34.973  18.050  12.918
64431W        W29658   9.428  13.053   1.793
64432W        W29659  26.533  37.316   1.442
64433W        W29660   7.662  27.487   2.638
64434W        W29661  35.563   3.362  10.578
64435W        W29662  40.832  12.756   0.207
64436W        W29663  18.487   6.119   2.426
64437W        W29664  27.878  24.332  13.825
64438W        W29665  31.136  25.415  13.664
64439W        W29666  35.347   6.269  13.990
64440W        W29667  28.593  36.115  13.126
64441W        W29668  31.128   0.702  14.483
64442W        W29669   9.016  23.490   0.356
64443W        W29670  18.659  26.216  10.172
64444W        W29671  30.791   2.141   0.429
64445W        W29672  20.405  11.747   3.225
64446W        W29673  35.680  18.441   2.764
64447W        W29674  23.506  43.878   4.536
64448W        W29675  39.096  31.112  13.367
64449W        W29676  24.061  41.254   0.893
64450W        W29677  36.503  11.597  12.945
64451W        W29678  37.837  15.075   3.404
64452W        W29679   7.808  43.276  10.628
64453W        W29680  10.512  35.973  12.042
64454W        W29681  24.689   3.445   4.009
64455W        W29682  26.218  29.152  14.318
64456W        W29683   6.131  37.874  13.875
64457W        W29684  14.118   6.846  13.839
64458W        W29685   4.165   2.949  14.516
64459W        W29686  40.435  35.896   3.623
64460W        W29687  12.527  32.290   3.687
64461W        W29688  26.767  43.554   1.662
64462W        W29689  11.160  10.693  11.584
64463W        W29690  37.630  29.046  11.086
64464W        W29691  38.885  29.223  11.473
64465W        W29692  28.082   1.175  13.783
64466W        W29693  29.493  17.163  13.783
64467W        W29694  23.614  37.277   0.800
64468W        W29695  27.922  44.356  10.781
64469W        W29696  21.843  42.524  14.810
64470W        W29697  30.899  12.705  12.676
64471W        W29698  12.639  33.140  10.196
64472W        W29699   3.939  31.553   2.256
64473W        W29700  35.399  25.486  10.607
64474W        W29701  21.012   0.886  11.643
64475W        W29702  36.940  18.545  10.753
64476W        W29703   1.700  13.167  13.924
64477W        W29704   4.178  33.612   2.820
64478W        W29705  26.404  34.817   1.489
64479W        W29706  38.177  23.798   3.382
64480W        W29707  11.145   4.358   3.101
64481W        W29708  31.463  43.860   2.827
64482W        W29709  34.300   0.903   3.912
64483W        W29710  41.663  39.930   1.438
64484W        W29711  38.667  28.621   1.333
64485W        W29712   6.421  31.764   3.181
64486W        W29713   3.803   0.741  14.372
64487W        W29714  30.180  25.711  13.452
64488W        W29715  23.025  38.085  11.204
64489W        W29716  19.564   8.420   1.735
64490W        W29717   5.668  41.960  14.904
64491W        W29718  31.519  36.563  11.027
64492W        W29719  19.369  31.499   0.389
64493W        W29720  35.945  23.820   4.179
64494W        W29721  14.667  18.986   4.735
64495W        W29722  15.174  21.319   0.825
64496W        W29723   5.122  27.750   3.753
64497W        W29724  44.380   0.327   3.701
64498W        W29725  40.911  38.439   4.916
64499W        W29726  43.495  36.060  13.024
64500W        W29727  10.064  34.164   0.668
64501W        W29728  14.100   7.970   2.783
64502W        W29729   1.963  40.869   2.185
64503W        W29730  16.117  14.171   3.221
64504W        W29731  27.880  39.041   3.208
64505W        W29732  21.519  41.049  14.917
64506W        W29733  39.969  38.310  12.935
64507W        W29734   1.524  16.103  10.794
64508W        W29735   6.796  35.287   3.109
64509W        W29736  21.933  30.257   2.712
64510W        W29737  29.490   9.207  12.130
64511W        W29738  16.208  13.229  14.776
64512W        W29739  37.356  33.724  10.449
64513W        W29740  33.973  35.625  12.583
64514W        W29741  40.680  40.533  11.136
64515W        W29742  39.344  40.185   2.216
64516W        W29743   6.150  43.432   4.049
64517W        W29744  19.128  34.668   3.678
64518W        W29745  27.176  43.401   0.007
64519W        W29746   6.861   8.880  11.303
64520W        W29747  25.957  26.975   4.481
64521W        W29748   1.897  29.631  10.816
64522W        W29749  16.048  15.492  10.172
64523W        W29750  27.685  27.733   2.234
64524W        W29751  32.105  40.236   1.258
64525W        W29752  32.724   6.993  12.115
64526W        W29753  24.037   3.535   4.293
64527W        W29754  26.703  26.720   0.679
64528W        W29755  26.255   2.171   1.418
64529W        W29756  40.510   4.925   0.486
64530W        W29757   4.463  20.033   2.867
64531W        W29758  19.666  22.176  11.951
64532W        W29759   4.233   1.015  14.444
64533W        W29760   2.799  14.228   1.174
64534W        W29761  26.693  40.544  14.520
64535W        W29762  21.268   4.576  13.370
64536W        W29763   9.817   3.273   0.874
64537W        W29764  12.821  44.236   3.301
64538W        W29765  27.997  30.469  14.170
64539W        W29766  33.904  43.834  14.174
64540W        W29767  43.847  20.627   1.400
64541W        W29768  36.550   9.341   4.146
64542W        W29769   6.747  17.637   2.776
64543W        W29770  10.320  23.462  13.487
64544W        W29771  28.017   7.303   1.394
64545W        W29772  42.245   6.146   1.276
64546W        W29773  43.083  25.099  11.124
64547W        W29774  42.338   9.067   2.351
64548W        W29775  32.997  35.123   3.066
64549W        W29776  33.916  30.105  11.412
64550W        W29777   8.209  26.392   4.572
64551W        W29778  13.722  23.746  13.442
64552W        W29779  15.802  20.648  12.119
64553W        W29780  26.563  36.930  12.157
64554W        W29781  26.658  40.079  13.931
64555W        W29782  24.921  29.956   3.676
64556W        W29783   5.660  34.384  12.921
64557W        W29784  31.399  39.965   3.630
64558W        W29785   5.787  13.876  13.846
64559W        W29786   8.382  17.624   4.279
64560W        W29787   7.329  13.648   5.104
64561W        W29788   3.303  25.512   1.776
64562W        W29789  24.648   4.706  11.366
64563W        W29790  34.954  27.018  12.031
64564W        W29791  20.272  12.141   4.058
64565W        W29792  36.503  12.338   4.232
64566W        W29793  12.387  17.417   1.810
64567W        W29794  28.129  37.129   2.158
64568W        W29795  38.865  41.278   2.401
64569W        W29796  40.847  43.384   4.152
64570W        W29797  27.678  21.551   0.972
64571W        W29798  24.236  29.328  12.488
64572W        W29799   5.483  28.534   5.140
64573W        W29800  34.652  30.672  11.271
64574W        W29801  32.015   7.646  14.357
64575W        W29802  36.292   7.320  13.884
64576W        W29803  42.792  19.084   1.644
64577W        W29804  40.980   6.426  13.521
64578W        W29805  34.462   6.107  13.378
64579W        W29806  41.000  44.394   3.156
64580W        W29807  41.834  39.984  14.354
64581W        W29808  33.835  28.018  12.026
64582W        W29809  35.615  38.823  13.918
64583W        W29810  17.799  37.282  14.294
64584W        W29811  43.126  25.141  12.833
64585W        W29812  17.804   4.680  11.203
64586W        W29813  34.253  41.878   0.747
64587W        W29814  38.098  37.130   3.194
64588W        W29815  29.088  28.900   4.745
64589W        W29816   5.739  43.841   0.504
64590W        W29817  30.136   8.499   5.367
64591W        W29818   8.023  13.298   2.253
64592W        W29819   9.644   7.728  11.310
64593W        W29820  22.443  16.012  12.522
64594W        W29821  25.118  20.971   3.262
64595W        W29822  40.312  14.352   1.439
64596W        W29823  20.968  24.719   0.390
64597W        W29824  21.395  40.845  12.573
64598W        W29825  18.175  14.287   1.866
64599W        W29826  25.775  29.420  13.519
64600W        W29827   1.200  17.135   0.931
64601W        W29828   0.768  32.733   4.212
64602W        W29829  27.627  15.052  10.695
64603W        W29830  41.452  13.714   1.418
64604W        W29831  17.723  15.373  13.984
64605W        W29832  30.193  37.559  13.362
64606W        W29833  17.331  44.973   2.688
64607W        W29834   7.733   6.782  10.908
64608W        W29835   4.833   3.371  12.532
64609W        W29836  24.078  25.749  10.966
64610W        W29837  15.084  19.777   4.482
64611W        W29838  24.258   1.704  10.651
64612W        W29839  43.542   0.980   4.521
64613W        W29840   4.839   3.659   3.658
64614W        W29841   9.165  35.624   4.712
64615W        W29842   7.845  43.407  12.025
64616W        W29843  10.311  42.529   1.756
64617W        W29844  31.514   3.969   3.558
64618W        W29845   0.222  12.786  10.815
64619W        W29846  35.920  33.599  10.998
64620W        W29847  32.211  40.726   1.372
64621W        W29848  43.871  22.014   1.460
64622W        W29849  23.757  22.803  13.651
64623W        W29850  33.584  43.468  14.355
64624W        W29851  30.062  44.351   1.369
64625W        W29852  41.247  40.613   1.833
64626W        W29853  41.604   9.753  12.385
64627W        W29854  42.711  29.851   5.003
64628W        W29855  20.196  32.699   1.241
64629W        W29856  27.703   0.854  13.574
64630W        W29857  24.080  32.509   4.671
64631W        W29858  13.215   8.416  12.305
64632W        W29859   6.127  30.583   1.556
64633W        W29860  20.972  43.241  13.092
64634W        W29861  31.102  15.273   4.912
64635W        W29862   2.929   2.819  14.715
64636W        W29863  42.304  32.889   3.615
64637W        W29864  33.889  23.621   3.881
64638W        W29865   6.238  32.791   1.151
64639W        W29866  28.672  21.004  14.240
64640W        W29867   7.806  16.445   1.305
64641W        W29868   4.342  19.083   1.986
64642W        W29869   9.682  11.607   1.810
64643W        W29870  28.287  18.634   1.939
64644W        W29871  41.480  36.225   0.674
64645W        W29872  40.420   6.181   1.818
64646W        W29873  39.510   4.274  10.319
64647W        W29874  23.297  14.067  13.293
64648W        W29875   1.995  42.276  12.094
64649W        W29876  19.150  24.577  10.589
64650W        W29877  22.454  25.211  11.136
64651W        W29878   6.209  40.131   0.842
64652W        W29879  39.692  36.141   4.630
64653W        W29880  24.173   9.291  11.613
64654W        W29881   4.726   7.734  10.996
64655W        W29882  14.876   4.543   3.781
64656W        W29883  32.870  30.714  11.538
64657W        W29884   9.359  30.961  11.149
64658W        W29885  11.293   6.703   1.052
64659W        W29886   3.472  23.134  11.851
64660W        W29887  44.030  21.474  11.575
64661W        W29888  33.537  44.901  11.495
64662W        W29889  24.990  11.655   3.147
64663W        W29890  43.407  17.481  13.462
64664W        W29891  20.780   1.840   1.326
64665W        W29892  27.088  23.900   1.110
64666W        W29893   1.973  29.446  12.686
64667W        W29894  27.711  33.021   2.198
64668W        W29895   6.946  26.056  13.481
64669W        W29896   6.298  10.155   3.095
64670W        W29897   7.095  27.195   3.243
64671W        W29898  14.320   2.340  11.113
64672W        W29899  14.389  30.153  12.507
64673W        W29900  32.031  10.200   3.100
64674W        W29901  27.599  10.679  13.106
64675W        W29902   7.797  25.486   0.538
64676W        W29903   1.543   4.069   0.074
64677W        W29904  41.280  27.464   1.351
64678W        W29905  16.549  10.972  14.230
64679W        W29906  19.076  16.893  14.998
64680W        W29907  13.576  43.677  10.644
64681W        W29908  42.107  21.739   4.531
64682W        W29909  25.480  25.953   2.231
64683W        W29910  10.175   6.790   2.407
64684W        W29911  11.708  23.991  14.237
64685W        W29912  24.057  14.568   3.076
64686W        W29913  40.326   8.679   0.798
64687W        W29914  38.822  18.003   1.657
64688W        W29915  39.400   1.814   2.167
64689W        W29916   2.444  34.385   4.384
64690W        W29917   4.420  22.983   3.191
64691W        W29918  26.497  25.015   0.417
64692W        W29919   7.399   7.378  12.523
64693W        W29920  34.559  24.068   1.022
64694W        W29921  37.270   9.259   0.007
64695W        W29922  19.239  25.133  13.958
64696W        W29923  33.056   9.155   0.889
64697W        W29924  18.193  14.489  12.564
64698W        W29925  40.313  37.195   2.916
64699W        W29926   6.955  11.203   3.719
64700W        W29927  29.450  21.724  13.600
64701W        W29928  33.951   7.317  13.921
64702W        W29929   9.173  33.966   0.985
64703W        W29930  40.282   7.107  14.792
64704W        W29931  42.708   2.490   3.855
64705W        W29932  17.739  22.999  12.180
64706W        W29933  40.212  26.196  11.702
64707W        W29934  14.006  37.544   3.639
64708W        W29935  34.463  18.771   1.778
64709W        W29936  28.905  17.683   0.602
64710W        W29937  42.291  19.191   2.256
64711W        W29938  31.392   7.030   3.677
64712W        W29939   6.050  44.314  12.388
64713W        W29940  16.155  11.142   4.622
64714W        W29941  39.024  26.067   0.824
64715W        W29942  34.389  43.010  14.444
64716W        W29943  29.564  27.192  13.802
64717W        W29944   9.895  27.497   4.176
64718W        W29945  38.474  17.609  10.707
64719W        W29946  43.010  16.773   3.610
64720W        W29947  33.971   0.009  13.768
64721W        W29948   7.184  41.862  13.917
64722W        W29949  42.306  38.158   0.421
64723W        W29950  18.287   3.006  10.794
64724W        W29951  29.606  35.583   0.315
64725W        W29952  33.923  29.645  11.682
64726W        W29953  40.919   9.291   2.514
64727W        W29954  18.216  37.286  14.598
64728W        W29955  10.305  32.629   2.713
64729W        W29956  44.501  12.709  11.596
64730W        W29957   3.664  26.767   0.032
64731W        W29958  35.487   3.172   4.019
64732W        W29959  33.082   0.151  13.146
64733W        W29960   5.374  42.793   0.360
64734W        W29961  39.918  41.265  11.237
64735W        W29962  21.057  24.667   2.399
64736W        W29963  15.283  34.430  10.597
64737W        W29964  44.856   0.020   3.136
64738W        W29965  11.137  35.009   3.257
64739W        W29966  24.136  21.591   2.924
64740W        W29967  44.964  15.612  10.087
64741W        W29968  18.036   1.382   4.675
64742W        W29969  14.005  30.367   3.087
64743W        W29970  35.392  39.858   4.788
64744W        W29971  36.590  14.906   3.272
64745W        W29972  42.826  14.676  14.079
64746W        W29973  42.044   4.966  11.146
64747W        W29974  11.199  27.665  14.243
64748W        W29975  38.026   2.026   3.665
64749W        W29976  42.405  25.727   0.618
64750W        W29977  29.494  31.818   1.726
64751W        W29978  36.507  44.513   0.314
64752W        W29979  26.731   7.856   1.238
64753W        W29980  25.344  43.427  11.516
64754W        W29981  37.253   1.628   4.705
64755W        W29982  36.024  34.825   4.085
64756W        W29983   7.432  42.009  11.933
64757W        W29984  24.621  43.375  14.554
64758W        W29985  24.859  10.042  13.639
64759W        W29986  21.098  42.082   1.994
64760W        W29987   9.264  20.261   3.162
64761W        W29988  28.250  32.381   1.200
64762W        W29989   1.516  11.266   1.374
64763W        W29990  11.463  11.171  14.627
64764W        W29991  14.356  21.225   2.323
64765W        W29992  10.206  11.356  14.030
64766W        W29993  12.626  39.841   3.265
64767W        W29994  16.335  11.298   2.719
64768W        W29995  18.192   6.079  14.557
64769W        W29996   9.291  15.538   3.229
64770W        W29997  20.538  26.713  10.883
64771W        W29998  18.538   9.753  12.066
64772W        W29999   6.863  29.244  11.677
64773W        W30000  19.877  18.041  13.999
64774W        W30001   6.305  16.216   3.599
64775W        W30002  26.491  24.888   3.180
64776W        W30003  43.171  27.973   1.740
64777W        W30004  23.386  31.939   4.498
64778W        W30005  13.866  41.490   3.229
64779W        W30006  43.284  34.763   0.878
64780W        W30007  23.579  18.219  12.252
64781W        W30008  35.721  22.238  14.052
64782W        W30009  24.766  40.104  13.977
64783W        W30010  44.656  16.646   4.568
64784W        W30011  16.768  42.401  14.700
64785W        W30012  27.302   0.481  11.938
64786W        W30013   2.503  14.060   3.139
64787W        W30014  13.155  21.160   3.405
64788W        W30015  28.379  30.106  13.512
64789W        W30016   1.558  20.496  13.897
64790W        W30017   9.027  19.184  12.029
64791W        W30018  33.167  20.755  12.492
64792W        W30019  10.700  33.352  13.733
64793W        W30020   5.876  24.347   2.293
64794W        W30021   4.189   7.294  13.930
64795W        W30022  29.260  38.858   2.217
64796W        W30023  29.448  36.499   0.031
64797W        W30024  23.721   6.740   2.177
64798W        W30025  16.058   0.278  13.969
64799W        W30026  42.984  39.462  12.169
64800W        W30027  22.037  29.074   4.238
64801W        W30028   9.441  40.143  12.525
64802W        W30029  36.959  39.406   1.311
64803W        W30030  23.698  10.812   2.344
64804W        W30031  27.199  31.147   2.588
64805W        W30032  17.620  16.213   3.684
64806W        W30033  29.599  21.197  11.778
64807W        W30034  13.132  35.100  11.187
64808W        W30035  39.494  39.771  13.525
64809W        W30036  24.806  32.859   0.357
64810W        W30037  20.690  40.991   0.737
64811W        W30038   8.693  35.104   2.200
64812W        W30039   5.310   3.510  13.051
64813W        W30040  30.452  34.144   1.892
64814W        W30041  23.322  29.054  13.535
64815W        W30042  19.012  27.071  11.831
64816W        W30043   4.058  20.302  13.021
64817W        W30044  28.048  27.578   3.578
64818W        W30045  24.275  17.978   1.330
64819W        W30046   3.312  37.083  10.856
64820W        W30047  35.958  30.497   2.380
64821W        W30048  14.599  22.629  14.350
64822W        W30049  40.781   3.825  14.923
64823W        W30050  31.429  33.574   0.747
64824W        W30051  43.141   9.609  10.813
64825W        W30052  34.960  25.184   3.239
64826W        W30053  17.713   5.629   0.912
64827W        W30054  27.301  38.086   5.472
64828W        W30055  26.649   6.922   3.880
64829W        W30056  28.479  28.987  12.599
64830W        W30057  14.567  41.074   2.419
64831W        W30058   1.489  37.039  14.674
64832W        W30059  21.037  21.120   4.152
64833W        W30060  42.581  15.408   0.231
64834W        W30061  31.343   2.471  12.467
64835W        W30062   2.380  20.796   2.403
64836W        W30063   8.310  44.444  10.622
64837W        W30064  25.018  41.770   4.240
64838W        W30065  23.083  15.848   2.396
64839W        W30066  43.925  29.708  12.514
64840W        W30067  26.194   1.259  14.491
64841W        W30068   1.669  42.326   0.680
64842W        W30069  19.211  27.315   0.880
64843W        W30070  39.314  18.855  13.974
64844W        W30071   5.579   9.156  11.108
64845W        W30072  12.118  11.302   1.050
64846W        W30073   7.214  16.851   1.887
64847W        W30074  21.412   3.515   4.403
64848W        W30075   7.419  41.232   4.636
64849W        W30076  42.466  33.127   0.159
64850W        W30077  23.555  33.862  12.807
64851W        W30078  12.652  13.456   3.271
64852W        W30079  15.631  16.115   3.888
64853W        W30080  25.046  10.206   1.819
64854W        W30081   7.279  25.035   3.374
64855W        W30082  24.920  32.788  12.595
64856W        W30083  26.833  20.049  11.403
64857W        W30084  35.324  21.643  13.521
64858W        W30085  26.197  23.992   2.607
64859W        W30086  41.340  41.634   4.044
64860W        W30087  31.634  44.775   4.316
64861W        W30088  38.383  15.094   4.118
64862W        W30089  32.675  41.237   3.490
64863W        W30090   1.247  23.199   2.135
64864W        W30091   5.745  17.265  14.289
64865W        W30092   1.897  23.221  10.629
64866W        W30093   3.127  11.610   0.274
64867W        W30094   7.389  20.742  13.432
64868W        W30095  43.014   7.322  10.160
64869W        W30096   1.069  26.620  13.449
64870W        W30097   3.495  14.916   4.417
64871W        W30098  10.865  24.889  12.019
64872W        W30099  29.234  44.435  12.966
64873W        W30100  17.646  40.116  14.537
64874W        W30101  33.089  26.459   4.935
64875W        W30102  41.992   5.390  14.005
64876W        W30103  26.971  44.087  11.999
64877W        W30104  15.649  22.799   5.054
64878W        W30105  36.897  37.997   4.378
64879W        W30106  20.421  16.028  11.965
64880W        W30107  14.693  43.483   1.755
64881W        W30108  29.030  15.148   2.453
64882W        W30109  27.529  33.999   2.849
64883W        W30110  27.005  19.512  11.588
64884W        W30111  42.447  27.474   4.648
64885W        W30112  28.640   6.743   3.277
64886W        W30113  24.639  39.292   0.439
64887W        W30114  41.106  37.385  11.701
64888W        W30115   9.844   9.349   1.306
64889W        W30116   3.336   2.866  12.886
64890W        W30117  15.026   6.413  14.518
64891W        W30118   1.222   0.118   2.783
64892W        W30119  26.124  10.232  13.836
64893W        W30120   4.058  21.557  13.579
64894W        W30121  18.068   9.337   3.798
64895W        W30122   9.645  31.646  14.975
64896W        W30123   9.916  21.936  14.499
64897W        W30124  30.453  12.324   4.088
64898W        W30125  35.126  30.983  14.898
64899W        W30126  39.628  30.011  10.772
64900W        W30127  27.514  24.916  13.631
64901W        W30128  42.759  21.711   4.068
64902W        W30129  21.680  11.121   2.740
64903W        W30130  11.396  39.288  12.586
64904W        W30131   5.578  36.611  14.051
64905W        W30132  27.800   3.351   4.147
64906W        W30133  43.616   2.854   3.619
64907W        W30134  32.114  37.793   3.255
64908W        W30135  11.221  26.173  11.671
64909W        W30136  12.257  41.906   0.979
64910W        W30137  22.446  31.932  13.346
64911W        W30138   6.366   3.206  11.160
64912W        W30139   6.998  20.647  13.858
64913W        W30140  27.943   4.191  11.193
64914W        W30141  36.112  37.226  13.055
64915W        W30142  25.571   8.121  10.494
64916W        W30143  18.867   4.286  14.555
64917W        W30144   8.792  40.015  11.347
64918W        W30145  31.376  12.417  14.789
64919W        W30146  24.610   5.779  12.263
64920W        W30147  43.287  23.708  14.892
64921W        W30148  25.606  34.870  11.814
64922W        W30149  29.363  25.714   3.395
64923W        W30150  37.469  22.735  14.879
64924W        W30151   1.039  21.670   3.253
64925W        W30152  15.544  33.128  10.754
64926W        W30153  41.829  39.070   2.254
64927W        W30154  36.208  19.751   3.260
64928W        W30155   4.009  25.332   1.716
64929W        W30156   0.997  12.851  14.441
64930W        W30157  16.176   2.239  13.050
64931W        W30158  25.370  42.493   2.411
64932W        W30159   9.311   1.314  13.920
64933W        W30160  26.495  16.667   1.912
64934W        W30161  41.010  24.263   2.723
64935W        W30162  21.771  21.198  11.200
64936W        W30163  35.231   3.153   1.822
64937W        W30164   3.642  28.196   1.553
64938W        W30165  23.612   0.782  13.600
64939W        W30166  38.347  35.529   0.017
64940W        W30167  24.406   7.801  12.537
64941W        W30168  25.177  27.578   3.771
64942W        W30169   7.749   7.233   2.371
64943W        W30170  32.084   2.057   4.030
64944W        W30171   3.528  28.022   2.017
64945W        W30172  34.799  32.289  14.098
64946W        W30173  10.215  11.613   1.825
64947W        W30174   5.044  34.402  12.020
64948W        W30175   3.980  41.791  12.522
64949W        W30176   2.227   6.413   3.255
64950W        W30177  31.941  18.666   2.372
64951W        W30178  11.332  11.151   4.551
64952W        W30179   7.854  29.031  11.812
64953W        W30180  41.375   0.282   4.492
64954W        W30181  28.139  36.593   2.210
64955W        W30182  29.210  12.197  14.363
64956W        W30183   4.530  44.376  11.572
64957W        W30184   2.008   8.615  13.045
64958W        W30185  41.847  13.385   4.884
64959W        W30186   1.784  28.376   3.532
64960W        W30187  35.962  43.093   2.829
64961W        W30188  14.167  37.447   4.136
64962W        W30189  39.775  17.633  10.591
64963W        W30190  21.035   1.284  10.514
64964W        W30191  24.465  28.786  11.067
64965W        W30192   4.840   4.040  11.152
64966W        W30193  16.968  31.799   2.199
64967W        W30194   0.499   6.956  13.200
64968W        W30195  28.748   4.290  13.535
64969W        W30196  16.331  24.831   2.700
64970W        W30197  18.554  34.056   1.505
64971W        W30198  44.534  43.214   3.348
64972W        W30199  23.600   5.459  13.355
64973W        W30200  22.734  17.876  14.784
64974W        W30201  30.604  30.201  14.409
64975W        W30202  27.410  25.657  12.922
64976W        W30203  30.935  29.996  14.779
64977W        W30204  11.346  44.782  14.937
64978W        W30205  29.533  24.158  12.065
64979W        W30206  33.266   5.693   3.463
64980W        W30207  25.183  34.473  13.455
64981W        W30208   3.008  36.281   2.811
64982W        W30209   8.220   5.486  14.115
64983W        W30210  13.828  14.578   2.261
64984W        W30211  44.199  31.497  12.947
64985W        W30212   9.927  11.287   0.382
64986W        W30213  26.599  24.563  14.295
64987W        W30214  16.059  25.792   3.838
64988W        W30215  33.543  13.394  10.378
64989W        W30216  41.897  34.378   3.567
64990W        W30217   2.331   9.163   0.582
64991W        W30218  40.377  22.389  13.855
64992W        W30219  20.741  13.962  12.074
64993W        W30220  37.538  10.809   4.157
64994W        W30221  30.556   8.408   0.247
64995W        W30222  27.289   7.268  13.492
64996W        W30223  37.875  17.316  13.921
64997W        W30224  25.853  19.548   1.351
64998W        W30225  10.797  19.267   4.995
64999W        W30226  37.052   5.353  10.727
65000W        W30227  13.123  31.357   4.183
65001W        W30228  43.402  14.775  13.320
65002W        W30229  33.512   2.551   3.106
65003W        W30230  24.736   8.176   4.140
65004W        W30231  17.156  30.003   3.773
65005W        W30232  41.513  24.477  13.422
65006W        W30233  10.722  12.817   4.616
65007W        W30234  14.410  43.936  12.749
65008W        W30235  10.733  19.323  11.399
65009W        W30236  32.386   7.239  14.293
65010W        W30237  41.522  29.491  13.289
65011W        W30238   8.445  13.985   4.545
65012W        W30239  21.561  36.454   1.786
65013W        W30240   5.623  15.537   3.633
65014W        W30241   5.930  36.064   4.596
65015W        W30242   9.835  23.582  12.628
65016W        W30243  32.349   7.934  12.152
65017W        W30244   6.642  23.170   2.345
65018W        W30245   1.735  39.680   4.582
65019W        W30246  23.096  23.955  14.378
65020W        W30247  23.038  44.302   3.669
65021W        W30248  41.028  16.247   0.167
65022W        W30249  32.122  29.711  12.562
65023W        W30250  21.091  31.629   0.747
65024W        W30251  44.222  12.707  12.533
65025W        W30252   8.085  26.757   2.791
65026W        W30253   3.964   3.534  13.864
65027W        W30254  15.269   6.947   2.193
65028W        W30255   9.822  29.359  12.659
65029W        W30256   9.091  34.530  14.881
65030W        W30257  27.053  32.084  11.246
65031W        W30258  39.201  11.222  10.331
65032W        W30259  38.383  43.786  10.579
65033W        W30260  27.079  21.228   4.120
65034W        W30261  39.866  32.629  14.437
65035W        W30262   9.289  22.285   1.662
65036W        W30263   3.857  39.177  13.086
65037W        W30264  36.993   4.703   2.158
65038W        W30265  13.816  15.558  12.045
65039W        W30266   7.653  31.720   1.177
65040W        W30267  13.680  43.783   1.734
65041W        W30268  27.457  42.764   2.767
65042W        W30269  42.100   1.606  11.605
65043W        W30270  17.709  44.820   2.285
65044W        W30271  41.860   1.801   4.584
65045W        W30272   3.887  15.183   4.596
65046W        W30273  25.706  14.646  12.573
65047W        W30274   1.807   6.325  11.571
65048W        W30275  23.463  14.554  14.493
65049W        W30276  37.564  44.925   3.305
65050W        W30277   6.328  38.897  13.924
65051W        W30278  13.075  14.685   2.817
65052W        W30279  38.362  20.927  14.056
65053W        W30280  40.907  14.560   4.590
65054W        W30281  24.744  33.422  11.086
65055W        W30282  25.052  30.003   2.710
65056W        W30283  31.781  15.374  12.129
65057W        W30284  40.357  36.066   1.318
65058W        W30285   2.036  11.882   0.937
65059W        W30286  13.432   6.278  11.680
65060W        W30287  43.401  34.367   2.741
65061W        W30288   5.509   0.829  12.531
65062W        W30289   0.920  20.801  14.469
65063W        W30290  33.495   7.329  13.503
65064W        W30291  33.491  34.609   1.486
65065W        W30292  13.287   5.531  12.038
65066W        W30293  35.706  14.259   1.196
65067W        W30294  40.148  13.227  13.549
65068W        W30295   1.248   3.737   0.342
65069W        W30296  39.602  27.966   2.898
65070W        W30297  36.689  13.333  14.362
65071W        W30298   1.414  29.503  13.582
65072W        W30299  20.292  43.845   3.616
65073W        W30300   9.094  34.901  13.457
65074W        W30301   6.825  19.113   0.334
65075W        W30302   3.820  12.396  12.881
65076W        W30303  29.839  22.609  12.515
65077W        W30304   1.037  21.749  14.239
65078W        W30305  33.402  44.275   0.761
65079W        W30306  36.487  10.408  13.419
65080W        W30307  16.622  24.594   3.853
65081W        W30308  28.126   5.337   3.932
65082W        W30309   3.360  11.433  12.526
65083W        W30310  26.072  17.613   1.019
65084W        W30311  20.431  39.276  13.406
65085W        W30312  21.619   7.344  12.656
65086W        W30313   1.195   7.849   2.257
65087W        W30314  39.466   4.971   3.154
65088W        W30315  28.201  28.654   1.350
65089W        W30316   5.064  20.708   1.690
65090W        W30317  38.089  17.005   2.752
65091W        W30318  31.979  20.744  13.988
65092W        W30319   5.650  18.928   0.908
65093W        W30320  17.083  28.504  10.297
65094W        W30321  40.333  35.130  12.528
65095W        W30322  20.904  10.536   0.799
65096W        W30323  29.681  30.078   1.230
65097W        W30324  38.815  18.683  12.598
65098W        W30325   0.330  26.314  13.991
65099W        W30326  19.483  14.114  13.495
65100W        W30327   0.508   1.511  12.246
65101W        W30328  42.512   3.399  13.333
65102W        W30329   9.417  32.918   0.729
65103W        W30330  32.167   2.477  11.565
65104W        W30331   9.746   1.795  13.101
65105W        W30332  21.610  40.765   0.332
65106W        W30333  18.308  21.899   2.984
65107W        W30334  14.109  22.774   3.530
65108W        W30335  15.841  19.280  13.113
65109W        W30336  34.051  15.633   3.816
65110W        W30337  26.054   7.678   1.264
65111W        W30338  41.046  15.639   3.062
65112W        W30339  33.243  24.909   2.275
65113W        W30340  36.046  13.341   2.327
65114W        W30341  27.140   0.140   5.101
65115W        W30342  29.422   7.651  14.945
65116W        W30343  30.201  29.058   2.168
65117W        W30344  18.118  17.239   0.707
65118W        W30345  10.634   0.311   0.752
65119W        W30346   9.403   2.021   3.601
65120W        W30347  17.535  11.035  11.175
65121W        W30348  29.014  21.676  14.592
65122W        W30349  42.438   2.202  12.960
65123W        W30350   0.840  29.487   2.313
65124W        W30351  27.001  44.692   0.966
65125W        W30352  33.267  42.038  14.438
65126W        W30353  23.243  40.963   4.139
65127W        W30354  21.627  15.252   4.647
65128W        W30355  18.207   7.132   4.839
65129W        W30356  32.156  41.234   1.375
65130W        W30357   3.068  10.778   3.150
65131W        W30358  27.667  32.490   3.751
65132W        W30359  26.921  15.810   4.273
65133W        W30360  42.816  27.587  10.731
65134W        W30361  33.501  24.943   4.277
65135W        W30362  28.664  28.380   2.677
65136W        W30363  30.065   7.560  13.779
65137W        W30364   2.074   8.773   4.724
65138W        W30365   2.877   6.176  12.920
65139W        W30366   8.896  35.965   3.703
65140W        W30367  31.532  12.269  13.890
65141W        W30368  27.534  38.608   1.418
65142W        W30369  44.825  38.396   0.651
65143W        W30370  13.265  32.522  12.005
65144W        W30371   5.192  21.139  10.614
65145W        W30372  35.149  40.952  13.446
65146W        W30373  39.493  34.926  14.762
65147W        W30374  13.602  17.595   0.330
65148W        W30375  30.140  13.151  11.798
65149W        W30376  28.246  44.429   5.224
65150W        W30377  10.302  34.689  11.909
65151W        W30378   9.577  20.854   2.864
65152W        W30379  37.989  33.095  10.582
65153W        W30380  24.909   0.492   1.674
65154W        W30381  33.925  26.038  14.211
65155W        W30382  41.672  15.823   0.922
65156W        W30383  37.681  27.116  12.294
65157W        W30384   4.173  35.372   1.493
65158W        W30385  41.465  18.576  13.312
65159W        W30386  11.183  31.927  13.011
65160W        W30387  34.163  15.142   0.882
65161W        W30388  30.594  24.209  14.412
65162W        W30389  38.310  10.291   4.693
65163W        W30390  22.788  23.091  12.867
65164W        W30391   2.029  16.291  10.964
65165W        W30392  16.672   1.005   3.651
65166W        W30393  16.385  14.673   3.860
65167W        W30394   8.219  28.893  11.427
65168W        W30395  29.314  12.369  10.723
65169W        W30396  22.243  12.668   3.219
65170W        W30397  14.819  22.276   3.918
65171W        W30398  22.010  18.112  14.013
65172W        W30399   1.714   1.959  12.022
65173W        W30400  40.310  40.087  12.222
65174W        W30401  26.022  11.798  11.292
65175W        W30402  24.463  21.532   3.638
65176W        W30403   4.253  11.643   2.536
65177W        W30404   8.562  25.016  12.762
65178W        W30405  35.508  13.633   3.642
65179W        W30406   8.669   9.456  11.700
65180W        W30407  20.004  24.055  13.317
65181W        W30408  29.090   0.418   3.814
65182W        W30409   2.966  16.623  11.895
65183W        W30410   6.218  37.790   0.295
65184W        W30411  17.611  21.458  12.015
65185W        W30412   9.842   2.640  11.165
65186W        W30413  40.946   2.144  12.296
65187W        W30414   6.756  10.813   1.837
65188W        W30415   6.290  22.579   3.051
65189W        W30416  18.742   3.467  13.758
65190W        W30417  35.581  36.550   3.622
65191W        W30418  24.645  30.096  10.801
65192W        W30419  28.898   0.098   4.206
65193W        W30420  30.940  34.153  10.651
65194W        W30421  16.569  18.226  14.563
65195W        W30422  13.333  40.264   3.634
65196W        W30423   6.727   4.871  11.091
65197W        W30424  44.262  23.369  14.799
65198W        W30425  37.410  44.550   2.343
65199W        W30426  23.432   7.956  14.983
65200W        W30427  12.866  44.819   3.815
65201W        W30428   4.856   5.196   0.398
65202W        W30429  25.770  36.082   1.409
65203W        W30430  43.587   3.198  10.792
65204W        W30431  17.154  43.193   4.818
65205W        W30432   4.554  22.745   5.109
65206W        W30433  43.784  13.797   1.800
65207W        W30434  24.061   9.353   0.817
65208W        W30435  38.305  38.327  10.869
65209W        W30436  27.697  16.082  12.172
65210W        W30437   4.768  11.623  13.290
65211W        W30438  25.449  11.069  13.929
65212W        W30439  28.663  10.369   2.112
65213W        W30440   8.592  30.598  12.903
65214W        W30441  10.626  13.291  13.909
65215W        W30442   3.674  40.842  14.855
65216W        W30443  28.962  32.812  12.752
65217W        W30444   6.777   2.130  11.193
65218W        W30445  10.724   5.271  11.478
65219W        W30446  12.661  14.363   1.909
65220W        W30447  12.732  32.151  14.291
65221W        W30448  14.814  31.124  12.597
65222W        W30449  39.655  24.190   0.661
65223W        W30450  19.176  23.502  14.532
65224W        W30451  22.680  13.291  11.611
65225W        W30452  24.132  22.005  14.969
65226W        W30453  40.630  15.590   1.742
65227W        W30454  28.470   6.761  12.964
65228W        W30455   6.241  19.432  10.302
65229W        W30456  22.721  30.090   1.731
65230W        W30457  41.200   1.390   5.023
65231W        W30458   9.102  37.360  12.972
65232W        W30459  37.024   8.663  12.461
65233W        W30460   9.777  30.271   0.641
65234W        W30461   8.465   8.252  11.218
65235W        W30462  44.071  34.634   1.321
65236W        W30463  21.103  20.381   1.239
65237W        W30464  40.652   0.218  11.153
65238W        W30465   9.809  40.476   1.252
65239W        W30466  21.664  21.545   3.660
65240W        W30467  34.063  43.992   4.458
65241W        W30468  11.939  27.260  12.049
65242W        W30469  33.172  34.533  14.366
65243W        W30470  31.001  35.195   9.837
65244W        W30471  32.351  27.713   2.266
65245W        W30472   4.934  23.091   1.239
65246W        W30473  14.640  20.247  14.311
65247W        W30474  24.626   0.120   2.400
65248W        W30475  40.354  22.210   0.236
65249W        W30476   1.401  25.104   2.002
65250W        W30477  18.862  11.789  11.594
65251W        W30478   9.485  29.941   0.954
65252W        W30479  39.410  25.377   3.848
65253W        W30480  38.036   4.023  11.948
65254W        W30481  16.940  30.813  10.080
65255W        W30482  17.735  39.056  11.966
65256W        W30483   2.787  24.147   0.853
65257W        W30484  32.735  12.246   5.016
65258W        W30485  23.115   8.110   3.706
65259W        W30486   0.896  17.560  12.880
65260W        W30487  40.990  23.550   2.385
65261W        W30488  14.761  42.692  10.368
65262W        W30489   8.333   2.347  10.603
65263W        W30490  44.961  30.083   1.889
65264W        W30491  14.308  36.963   2.842
65265W        W30492  31.493  25.122  10.961
65266W        W30493  35.140  36.756   5.308
65267W        W30494  27.478   7.311   0.461
65268W        W30495  31.840  38.456  11.768
65269W        W30496  19.188  39.077   2.054
65270W        W30497   0.797   7.790  12.529
65271W        W30498  29.456  30.286   0.780
65272W        W30499  30.669  41.921   0.374
65273W        W30500  28.439  44.953  14.036
65274W        W30501  43.247  12.577   0.493
65275W        W30502   1.410  14.551  10.457
65276W        W30503  37.846  29.555  14.451
65277W        W30504  37.357  19.059  13.079
65278W        W30505   5.394  33.725  14.277
65279W        W30506   7.872  41.253  13.893
65280W        W30507  12.183  35.567   0.018
65281W        W30508   5.668  24.233   1.266
65282W        W30509  44.308   5.740   0.395
65283W        W30510  30.625   8.948   4.572
65284W        W30511  38.623  39.227  11.051
65285W        W30512   5.268  36.375  13.178
65286W        W30513   9.076  40.484   1.669
65287W        W30514  24.249   2.429  14.418
65288W        W30515   1.903  26.593   3.011
65289W        W30516  11.698  34.084  14.575
65290W        W30517   6.231  36.175  12.964
65291W        W30518  39.511  36.289  14.890
65292W        W30519  16.559  19.900   3.575
65293W        W30520  14.323   1.838  11.154
65294W        W30521  16.236  35.383   3.337
65295W        W30522  12.720  30.607  11.513
65296W        W30523  35.656  12.716   2.895
65297W        W30524  35.760  18.834  13.555
65298W        W30525  41.861  25.495  11.075
65299W        W30526  11.915   0.975   0.523
65300W        W30527  14.618  21.246  13.892
65301W        W30528  10.156   0.954   0.914
65302W        W30529  36.249  38.684   2.370
65303W        W30530  15.538  43.818  10.659
65304W        W30531  26.349  16.080   0.256
65305W        W30532  40.719  17.568   3.712
65306W        W30533  22.474  42.771   1.370
65307W        W30534  26.051   2.182   4.617
65308W        W30535  14.732  27.476   2.282
65309W        W30536  28.477   6.756  13.936
65310W        W30537  24.219  15.766  11.828
65311W        W30538  18.801   5.629  13.368
65312W        W30539  38.553   0.118  10.706
65313W        W30540  30.142   5.668  13.145
65314W        W30541  11.163  19.223   2.588
65315W        W30542   8.750  40.007   4.540
65316W        W30543  23.587  31.877   0.738
65317W        W30544  42.018  39.623  14.990
65318W        W30545   2.944  19.251  11.655
65319W        W30546  39.520  16.184  12.130
65320W        W30547  36.102  30.921  13.020
65321W        W30548  27.212  38.452  12.360
65322W        W30549  35.592  15.170   0.410
65323W        W30550  43.584   4.357   0.740
65324W        W30551  38.964  29.726  11.418
65325W        W30552  24.503  23.057  13.533
65326W        W30553   6.674  41.464  13.902
65327W        W30554  44.897  39.208  10.487
65328W        W30555  21.755   1.858   1.288
65329W        W30556  35.719   9.852   2.715
65330W        W30557  31.916  28.890  12.877
65331W        W30558   6.488   1.517   0.806
65332W        W30559   8.689   3.724   0.854
65333W        W30560   5.424  24.010  14.324
65334W        W30561  39.396  35.940   2.649
65335W        W30562   9.625  23.091  11.883
65336W        W30563   0.023  39.436   1.851
65337W        W30564   7.739  25.392   2.187
65338W        W30565  36.406  17.069  11.567
65339W        W30566  32.175  39.069   5.467
65340W        W30567  37.828  19.565  14.859
65341W        W30568   8.406  36.602  11.578
65342W        W30569  17.070  20.615  12.115
65343W        W30570  38.522  30.386   2.877
65344W        W30571  44.274  21.147  11.237
65345W        W30572  11.874  20.286  12.138
65346W        W30573  31.346  12.604   2.825
65347W        W30574  32.055   7.510  10.447
65348W        W30575  42.429  33.470   4.821
65349W        W30576  15.901  21.142   2.354
65350W        W30577  33.974  12.783   2.154
65351W        W30578  28.919  38.414   4.665
65352W        W30579  11.316  15.969   2.355
65353W        W30580  25.487  12.694   5.090
65354W        W30581  22.171  24.836   3.141
65355W        W30582   9.130  12.063   2.395
65356W        W30583  10.161  11.858   0.063
65357W        W30584  43.003  14.740  10.514
65358W        W30585  41.602   8.171  11.114
65359W        W30586  41.258  15.654  10.589
65360W        W30587  14.119   1.086  10.633
65361W        W30588  29.552  36.212  11.603
65362W        W30589  30.550  12.581  14.789
65363W        W30590   1.984  27.231   1.838
65364W        W30591  20.962  25.650  13.977
65365W        W30592   1.028  16.645   0.913
65366W        W30593  19.207  14.811   4.694
65367W        W30594  32.066  25.141   3.288
65368W        W30595  15.309  13.159   3.218
65369W        W30596  25.729  28.569   2.309
65370W        W30597  40.194   8.902  12.056
65371W        W30598  23.336  31.000  11.964
65372W        W30599  27.217  18.198   0.768
65373W        W30600  35.897   1.751  13.868
65374W        W30601  23.035  31.772   4.169
65375W        W30602  15.149   8.760   4.064
65376W        W30603   9.600   3.090  10.948
65377W        W30604  23.015  44.419  14.208
65378W        W30605  19.725   7.771  14.483
65379W        W30606  43.897  38.827   0.800
65380W        W30607   5.941  20.167   0.523
65381W        W30608  16.896  15.314  10.510
65382W        W30609   0.980   7.006  12.998
65383W        W30610  27.412  21.747  12.011
65384W        W30611  21.780  14.744   4.568
65385W        W30612  44.581  19.027   1.480
65386W        W30613   6.878  15.630   0.034
65387W        W30614  36.105   8.914  12.386
65388W        W30615  33.949  44.564  12.100
65389W        W30616  18.850   9.313   0.506
65390W        W30617  38.254  40.965   2.782
65391W        W30618   0.227   3.013   4.408
65392W        W30619  12.473  42.861   4.065
65393W        W30620  38.824  23.034   2.943
65394W        W30621  22.528  23.425   0.992
65395W        W30622   6.905  17.312   4.034
65396W        W30623   3.679  18.626  12.617
65397W        W30624  41.837  16.562  14.779
65398W        W30625   8.674  11.293   1.357
65399W        W30626   5.398  17.643   3.548
65400W        W30627  39.829  29.853   1.793
65401W        W30628  33.147  12.867  14.806
65402W        W30629  35.549   4.830   1.312
65403W        W30630   2.165   4.375   1.394
65404W        W30631  31.668  38.064   3.176
65405W        W30632  28.582  36.847   1.471
65406W        W30633  40.596  20.194   4.172
65407W        W30634   0.199  13.237  14.069
65408W        W30635  40.010  15.061   2.278
65409W        W30636  24.676  43.492   3.182
65410W        W30637  24.160  21.130  11.081
65411W        W30638  44.276  35.865   2.691
65412W        W30639   3.217  38.425   2.083
65413W        W30640  34.277  22.238   3.554
65414W        W30641   2.342   6.249  12.372
65415W        W30642  41.576  11.023   2.688
65416W        W30643  27.010  44.807  10.849
65417W        W30644   9.131  27.818   4.522
65418W        W30645  18.314  17.820  11.541
65419W        W30646  28.983  16.793   0.837
65420W        W30647   9.873  23.970   1.930
65421W        W30648  32.002  22.979  14.511
65422W        W30649  39.153  37.082   3.233
65423W        W30650  35.431  28.958  11.200
65424W        W30651   4.332  36.796   0.433
65425W        W30652  30.601  16.857   5.241
65426W        W30653  13.820  10.278   9.912
65427W        W30654   0.756   8.312  12.613
65428W        W30655  43.555  24.335   3.847
65429W        W30656  25.697  30.287  12.119
65430W        W30657  41.538   3.916   1.202
65431W        W30658  32.383  14.248   2.834
65432W        W30659  41.801   0.903   4.124
65433W        W30660   6.271  24.627   4.219
65434W        W30661  22.441  36.092  13.663
65435W        W30662  30.882  19.680   4.062
65436W        W30663  24.100   5.439  13.973
65437W        W30664  39.906  28.992   0.023
65438W        W30665   2.665  37.989   0.732
65439W        W30666  34.661  36.541   5.197
65440W        W30667  28.783  13.190   5.308
65441W        W30668  21.028  10.090  11.932
65442W        W30669  14.882  31.820   0.665
65443W        W30670  40.057  11.652   3.663
65444W        W30671  11.691  44.367  14.632
65445W        W30672  26.493  26.049  11.796
65446W        W30673  30.143  16.989   0.037
65447W        W30674  35.025   4.298   4.837
65448W        W30675  44.210  38.133   2.052
65449W        W30676  13.868  19.047   1.654
65450W        W30677  13.679  29.932  13.428
65451W        W30678  20.196   9.012  12.040
65452W        W30679  44.483  12.896  14.514
65453W        W30680   0.885  24.627  13.455
65454W        W30681  41.770  34.666   1.224
65455W        W30682   6.850  23.668   1.724
65456W        W30683  33.552   2.015   3.189
65457W        W30684   5.238  42.191   4.537
65458W        W30685  28.977  31.469   3.285
65459W        W30686  27.138  17.254   2.920
65460W        W30687  17.334  22.120  13.067
65461W        W30688  33.791  28.431   0.772
65462W        W30689  25.205  38.479  13.337
65463W        W30690  28.613  33.484   2.995
65464W        W30691  38.901  15.857  11.094
65465W        W30692  30.482  19.142  10.786
65466W        W30693   7.936  10.114  12.240
65467W        W30694  14.018   9.676  11.664
65468W        W30695  24.853  37.197  13.863
65469W        W30696  39.857  16.202   1.320
65470W        W30697  37.997  21.055  12.527
65471W        W30698  21.299  33.272   0.151
65472W        W30699  14.879   7.880  11.163
65473W        W30700   7.457  31.213  12.917
65474W        W30701   5.251  16.548  11.662
65475W        W30702  12.811  17.902  11.867
65476W        W30703   6.274   1.459  10.305
65477W        W30704  21.981  18.118   1.991
65478W        W30705  18.051  21.484  13.638
65479W        W30706  15.561  34.608   4.206
65480W        W30707   9.705  27.170  10.582
65481W        W30708   7.876  19.158   0.801
65482W        W30709  40.788  24.036   3.142
65483W        W30710   0.887  10.602  14.267
65484W        W30711  14.349  12.495  13.949
65485W        W30712  44.749   2.219   0.526
65486W        W30713  26.400   9.269  14.319
65487W        W30714  31.447  43.372   4.493
65488W        W30715  17.751  20.711  14.351
65489W        W30716   1.993  14.447   1.952
65490W        W30717  18.303  12.352  13.818
65491W        W30718  35.812  20.547  12.782
65492W        W30719  36.705  43.407   3.845
65493W        W30720  30.547  34.589   0.965
65494W        W30721   4.406  10.409  14.441
65495W        W30722  39.111   3.805   0.507
65496W        W30723  35.218  38.577  11.084
65497W        W30724  14.450  18.093  14.619
65498W        W30725  26.943  10.071   3.414
65499W        W30726  11.135  11.621  10.624
65500W        W30727  30.709  39.829   2.870
65501W        W30728   9.814  21.475   1.642
65502W        W30729   7.885   7.154   0.688
65503W        W30730  12.953  19.837  11.242
65504W        W30731  33.911  14.279  14.982
65505W        W30732   0.348  42.856   3.085
65506W        W30733   3.551  44.518   0.523
65507W        W30734  12.633  21.006  12.022
65508W        W30735  15.359  27.891  13.553
65509W        W30736  26.049  11.595  14.335
65510W        W30737  35.679   6.824  11.170
65511W        W30738  19.739  14.359   2.342
65512W        W30739  42.564  30.549  12.146
65513W        W30740  19.150   3.379   4.930
65514W        W30741  25.661  36.092  13.410
65515W        W30742   1.873  33.884  14.722
65516W        W30743  36.059  29.465  12.961
65517W        W30744  31.966  18.967   1.448
65518W        W30745  42.428   7.230  10.738
65519W        W30746  28.243  38.855  14.457
65520W        W30747  22.256  16.777  13.637
65521W        W30748  14.123  13.144   1.013
65522W        W30749   9.724  29.411   3.602
65523W        W30750  31.049  43.976   3.228
65524W        W30751  13.665  17.139  11.463
65525W        W30752  36.523  23.260  14.495
65526W        W30753  31.439  16.305  14.950
65527W        W30754  37.040  24.719  10.800
65528W        W30755  22.382  29.950   0.282
65529W        W30756  42.329  18.645  11.718
65530W        W30757   8.228  31.409  10.593
65531W        W30758  16.702  27.589   2.007
65532W        W30759  29.543  19.077   1.497
65533W        W30760  37.263  28.243  13.782
65534W        W30761  43.559   1.475  11.514
65535W        W30762   0.591  19.741   3.196
65536W        W30763  25.021  44.336  11.862
65537W        W30764  32.627  23.425  11.956
65538W        W30765  26.513  34.374   3.578
65539W        W30766  26.049  15.676  10.731
65540W        W30767  23.305  19.116  12.490
65541W        W30768   2.074  14.249  12.537
65542W        W30769  10.400  36.403   1.992
65543W        W30770   8.842   1.665   0.818
65544W        W30771  26.300  29.543  13.461
65545W        W30772   8.210   7.598   1.740
65546W        W30773  31.029  41.974  14.166
65547W        W30774  23.813  43.015  14.270
65548W        W30775  10.531   7.695   0.299
65549W        W30776  16.778  23.622  14.324
65550W        W30777  31.662  15.352   1.827
65551W        W30778  10.676   0.722  11.214
65552W        W30779  30.676   1.819   0.053
65553W        W30780  16.311  31.164  13.586
65554W        W30781  27.843   1.918   5.101
65555W        W30782  24.480  15.935  14.099
65556W        W30783  41.992   9.316  12.179
65557W        W30784  29.012  34.958   4.087
65558W        W30785  30.530  17.613  10.965
65559W        W30786  30.114   9.954   3.326
65560W        W30787  33.335  40.855   0.223
65561W        W30788  12.453  36.994   5.140
65562W        W30789  23.195  37.281  14.297
65563W        W30790  30.728   7.896  12.381
65564W        W30791   7.376  24.559   1.826
65565W        W30792  41.749  39.294   1.770
65566W        W30793   2.769   2.293  14.479
65567W        W30794   1.809  17.056  13.323
65568W        W30795   0.319  33.889  13.396
65569W        W30796  36.744  15.613  13.407
65570W        W30797   5.723  37.517   4.802
65571W        W30798  31.019   1.455  14.954
65572W        W30799  10.413   0.973  14.207
65573W        W30800   7.028  33.873   1.374
65574W        W30801  42.862  20.418   5.448
65575W        W30802  22.255  26.952  11.197
65576W        W30803  26.693  19.565   2.994
65577W        W30804  33.055   5.424  10.595
65578W        W30805  27.713  31.555  11.619
65579W        W30806  11.392  16.249   0.735
65580W        W30807  25.618  28.578   4.341
65581W        W30808  31.693   1.416   4.562
65582W        W30809  22.299  42.774  14.297
65583W        W30810  34.515  35.393   0.201
65584W        W30811  22.290   5.657  11.177
65585W        W30812  25.529  22.434   4.753
65586W        W30813   4.685  13.326  13.492
65587W        W30814  37.548  14.108  11.523
65588W        W30815  28.688  34.213   1.346
65589W        W30816  41.949  44.739  14.756
65590W        W30817  23.676  30.222  12.503
65591W        W30818   1.882  34.526  12.892
65592W        W30819  21.601  36.927  10.618
65593W        W30820  43.718  18.820   1.511
65594W        W30821   1.796  24.912  14.879
65595W        W30822   2.552   6.070  14.227
65596W        W30823  28.621  15.082   2.774
65597W        W30824  28.032  22.957   2.137
65598W        W30825  28.707   1.636  13.334
65599W        W30826  13.506   8.367   3.940
65600W        W30827  25.701  40.776   4.378
65601W        W30828  23.269   8.920   1.816
65602W        W30829  21.490  10.925  12.044
65603W        W30830   2.267   2.471  13.035
65604W        W30831  22.138  20.109   4.684
65605W        W30832   9.182  37.868   1.374
65606W        W30833  33.990  35.403   1.216
65607W        W30834  23.582  17.063  14.123
65608W        W30835   5.205  16.859   3.650
65609W        W30836   7.096  29.808   2.940
65610W        W30837  14.101  30.018   3.458
65611W        W30838   4.494  42.049  11.168
65612W        W30839   6.695  26.884   3.256
65613W        W30840  36.826   1.531  13.828
65614W        W30841  17.993  36.128   0.462
65615W        W30842  13.883  31.965  11.154
65616W        W30843  37.820  14.124   4.213
65617W        W30844  37.828  13.020   0.221
65618W        W30845   7.668   5.274   2.811
65619W        W30846  24.178  17.374  10.767
65620W        W30847   1.025  32.001  12.061
65621W        W30848  33.913   6.928   1.691
65622W        W30849  32.032   4.966   0.915
65623W        W30850  20.663  35.094   3.396
65624W        W30851  19.131  37.477   0.787
65625W        W30852  30.454  21.725   0.772
65626W        W30853  19.951  39.505   2.269
65627W        W30854  23.693  24.575  10.969
65628W        W30855  37.005  19.234   0.915
65629W        W30856  37.925  14.758   0.848
65630W        W30857  36.524  14.666  13.389
65631W        W30858  20.236  10.744   1.725
65632W        W30859  20.695  35.630   3.493
65633W        W30860  41.760  18.581   3.100
65634W        W30861   4.435  19.243   2.467
65635W        W30862  40.488   4.239  13.518
65636W        W30863  43.630   3.320   0.894
65637W        W30864   1.447  18.613   4.587
65638W        W30865  36.441  37.009  13.462
65639W        W30866  44.845  33.002  13.510
65640W        W30867  41.376  13.965   3.304
65641W        W30868  27.952  42.239  12.509
65642W        W30869  39.366  27.954   3.793
65643W        W30870  37.176  25.612   4.615
65644W        W30871  31.898  15.367   4.558
65645W        W30872  27.212  13.568  13.937
65646W        W30873  29.247  17.710  12.965
65647W        W30874  34.020   8.002   4.257
65648W        W30875  34.451  42.120  13.391
65649W        W30876   9.871  36.404  11.702
65650W        W30877  43.671   6.711  10.177
65651W        W30878   2.716  14.769  10.726
65652W        W30879   8.590  16.198  14.370
65653W        W30880   2.461  27.721  11.223
65654W        W30881   2.374  32.112   0.064
65655W        W30882   9.590  33.148   1.207
65656W        W30883  21.715  24.173  12.131
65657W        W30884  25.889  29.642   1.306
65658W        W30885   7.591  24.488   0.577
65659W        W30886  41.271  28.024  14.851
65660W        W30887  30.082  28.935  14.729
65661W        W30888   9.223  31.645   3.086
65662W        W30889  29.514  44.403   3.277
65663W        W30890   8.351  24.918   3.217
65664W        W30891   4.726  22.255  11.000
65665W        W30892   6.875  12.030   4.374
65666W        W30893  14.253  19.151   2.028
65667W        W30894  25.521  42.029   2.972
65668W        W30895  44.673   9.765  13.849
65669W        W30896  32.012   6.353   4.491
65670W        W30897  20.289   5.137   0.293
65671W        W30898   9.232  32.862   4.558
65672W        W30899  42.993  44.494  10.963
65673W        W30900   9.478  23.609   2.777
65674W        W30901  34.948  43.773   1.598
65675W        W30902  22.759   4.325  12.997
65676W        W30903  14.107  33.947   1.153
65677W        W30904  40.385  16.535  13.970
65678W        W30905  37.629   2.350   2.865
65679W        W30906  17.264  33.058   4.348
65680W        W30907  33.094  44.884  14.550
65681W        W30908   3.047  16.374   4.064
65682W        W30909  35.034   1.744  11.184
65683W        W30910   3.368  29.103  14.574
65684W        W30911  16.384  24.484   0.923
65685W        W30912  14.181  13.061  12.049
65686W        W30913  42.468   2.934  10.651
65687W        W30914  15.253  40.526   0.500
65688W        W30915  42.595  38.732   4.640
65689W        W30916  43.808  26.127  12.738
65690W        W30917  35.330  33.123  11.293
65691W        W30918   6.838  13.871   5.081
65692W        W30919   1.748  19.051  12.453
65693W        W30920  26.553  24.585   4.365
65694W        W30921   5.950  40.043  11.265
65695W        W30922  37.324  40.344  14.350
65696W        W30923  35.029  22.607   3.863
65697W        W30924  44.713  39.068   4.637
65698W        W30925  21.899   8.402  11.058
65699W        W30926  31.545  11.839   0.445
65700W        W30927   7.229  37.000   4.773
65701W        W30928  19.832  18.113   3.253
65702W        W30929  18.777  43.061   1.257
65703W        W30930  24.716  10.914   1.890
65704W        W30931  37.949  13.621  10.329
65705W        W30932  33.994  15.731  12.856
65706W        W30933   9.559  36.985   2.938
65707W        W30934  21.662  14.846   0.398
65708W        W30935  11.826  21.251   0.981
65709W        W30936  29.114  19.674   4.658
65710W        W30937   2.946   0.700   1.764
65711W        W30938  35.924  29.995   0.690
65712W        W30939  33.469  27.548   3.176
65713W        W30940  33.189  32.463  12.509
65714W        W30941   0.396  37.839   0.923
65715W        W30942  32.488  30.493   1.335
65716W        W30943  30.454  34.771   4.652
65717W        W30944  26.560  31.097  12.083
65718W        W30945  29.366  18.766   0.310
65719W        W30946  25.531  17.590   0.240
65720W        W30947  22.773  38.509  14.519
65721W        W30948  12.256  19.548   2.397
65722W        W30949   7.287  18.331   1.757
65723W        W30950  37.283   1.220  11.147
65724W        W30951  35.004  20.377   2.256
65725W        W30952  42.207  10.781  13.408
65726W        W30953  22.802  15.854  13.062
65727W        W30954  34.078   9.186   3.606
65728W        W30955  34.912  34.334  11.098
65729W        W30956  31.099  21.311   4.042
65730W        W30957  38.327  11.656  14.501
65731W        W30958  35.025   9.760  10.664
65732W        W30959   7.292  20.761  12.122
65733W        W30960   7.640  32.210  11.609
65734W        W30961   8.091  30.411   1.889
65735W        W30962  12.767  41.844  12.503
65736W        W30963  22.293  14.455   1.363
65737W        W30964   7.338  25.100   2.378
65738W        W30965  30.817  29.115   3.432
65739W        W30966   2.670  29.755   5.368
65740W        W30967  37.604   0.827   3.308
65741W        W30968   9.313   7.044  12.537
65742W        W30969  39.750  18.783   3.691
65743W        W30970  42.197  38.837   4.952
65744W        W30971   1.363  15.685   0.922
65745W        W30972  31.995  18.808  12.030
65746W        W30973  37.700  24.586  13.481
65747W        W30974  10.851  41.990   3.288
65748W        W30975   4.443  30.888   2.912
65749W        W30976  18.043  32.981  14.432
65750W        W30977  40.306  39.084  11.408
65751W        W30978  38.899  28.410  10.913
65752W        W30979  37.163  31.743  14.451
65753W        W30980  26.734   4.681   0.394
65754W        W30981  34.080   8.308   1.286
65755W        W30982   8.604  12.975   3.794
65756W        W30983  18.317  14.392   4.899
65757W        W30984   5.518  28.115   4.821
65758W        W30985  28.244  27.268   4.014
65759W        W30986  35.343   8.340  11.576
65760W        W30987  33.391  24.559   3.331
65761W        W30988  42.190   2.198   2.203
65762W        W30989  31.522  12.552  11.943
65763W        W30990  41.794   2.188   2.589
65764W        W30991  44.210  35.006   4.060
65765W        W30992  11.619  32.201  13.905
65766W        W30993   4.336   9.397  13.148
65767W        W30994  39.197  35.558   4.000
65768W        W30995   7.008  39.327   4.862
65769W        W30996   2.962  24.461   4.074
65770W        W30997  21.500  38.236   1.452
65771W        W30998  17.527  37.930   1.203
65772W        W30999   9.689  28.471   4.024
65773W        W31000  37.712  20.713  10.832
65774W        W31001  31.864  39.996  14.017
65775W        W31002  24.354  44.679  10.227
65776W        W31003   6.304  40.557  12.906
65777W        W31004  29.441  22.265  12.451
65778W        W31005  38.406   1.756   3.395
65779W        W31006  10.661  29.901   4.315
65780W        W31007  39.101  28.850  11.951
65781W        W31008  13.707   0.531   2.468
65782W        W31009  18.115  30.142  10.684
65783W        W31010  40.098  24.218  12.418
65784W        W31011  43.743  11.253   0.227
65785W        W31012  15.595  21.843  10.503
65786W        W31013  15.258  27.484   3.070
65787W        W31014  21.436  40.297   1.697
65788W        W31015  43.503  15.355   2.820
65789W        W31016  24.146   3.086   0.548
65790W        W31017   4.843   2.856  12.614
65791W        W31018  36.640  23.456  13.834
65792W        W31019  13.343  22.204   2.295
65793W        W31020  20.672  33.835   4.499
65794W        W31021   9.439  37.979   1.795
65795W        W31022  17.125  24.509   4.834
65796W        W31023  13.925   1.527  11.160
65797W        W31024  10.636   8.660  14.460
65798W        W31025  27.012   8.676   0.752
65799W        W31026  34.574  21.025   3.190
65800W        W31027   3.757  42.344   3.169
65801W        W31028  18.541  21.580   2.627
65802W        W31029  21.348  26.944   4.141
65803W        W31030  19.597   9.059   4.778
65804W        W31031  27.687  15.236   0.841
65805W        W31032  27.564  23.107   4.255
65806W        W31033  17.608   7.376   1.826
65807W        W31034  34.109  15.957  10.455
65808W        W31035  10.617  37.315   1.271
65809W        W31036  37.115   4.234  11.962
65810W        W31037  33.318  33.591   3.880
65811W        W31038  26.030  30.546   0.733
65812W        W31039   3.525  41.499  11.167
65813W        W31040  31.830  30.496   1.995
65814W        W31041  25.737  25.470  14.852
65815W        W31042  24.126  29.838  13.417
65816W        W31043  14.733  28.625  10.778
65817W        W31044   0.345  37.673   4.700
65818W        W31045  22.216  34.935  10.892
65819W        W31046  26.653  22.928  11.377
65820W        W31047  32.115  23.446   2.713
65821W        W31048  43.105  31.882  12.022
65822W        W31049  36.699  26.644  12.810
65823W        W31050  38.987  42.970  11.428
65824W        W31051  38.489  11.857   2.396
65825W        W31052  35.551   4.915   0.296
65826W        W31053  38.477  18.264   1.303
65827W        W31054  21.564  17.791   4.273
65828W        W31055  15.161  38.961   1.249
65829W        W31056  10.155  40.414   4.484
65830W        W31057   3.441  15.578  10.730
65831W        W31058  37.882  25.760   1.890
65832W        W31059  17.197  14.611  13.277
65833W        W31060   8.349  18.008   2.155
65834W        W31061  29.387  38.042  11.989
65835W        W31062  13.786  38.359   4.604
65836W        W31063  23.666  23.998  11.706
65837W        W31064   6.026  32.182  12.983
65838W        W31065  23.720   5.187   2.135
65839W        W31066  41.143  20.113   2.748
65840W        W31067  30.404   0.740   3.671
65841W        W31068  43.210  16.713   4.792
65842W        W31069  10.125  25.577   0.618
65843W        W31070   9.663  19.580  12.760
65844W        W31071  12.695  39.631  11.958
65845W        W31072  12.954  36.988   2.772
65846W        W31073   4.223  26.093  13.668
65847W        W31074   1.419  31.011   2.879
65848W        W31075  13.274  23.191   1.208
65849W        W31076   7.825  28.205   0.518
65850W        W31077  27.702  34.192  11.190
65851W        W31078  24.486  36.451  13.439
65852W        W31079  41.062   8.810  14.330
65853W        W31080  39.579  31.084   3.653
65854W        W31081   4.504   2.734   3.861
65855W        W31082  35.944  22.993  11.496
65856W        W31083   3.769  25.165  14.796
65857W        W31084   1.830  16.044  13.408
65858W        W31085   4.846  18.189   0.253
65859W        W31086  15.844   8.923   0.255
65860W        W31087  30.430  40.968  13.594
65861W        W31088   2.236  27.655   1.718
65862W        W31089  29.530   2.179   4.559
65863W        W31090   9.775  43.928  13.982
65864W        W31091  20.109  36.765  12.949
65865W        W31092  38.263  44.916  14.309
65866W        W31093   0.731  28.471   2.551
65867W        W31094   0.700   0.368  12.045
65868W        W31095  34.486  35.193  10.123
65869W        W31096  20.177  15.588  13.067
65870W        W31097  35.000  31.536  10.629
65871W        W31098  21.583  12.689  14.193
65872W        W31099  33.653  21.806   5.206
65873W        W31100   8.826   2.279  13.914
65874W        W31101  14.385  31.031  13.005
65875W        W31102  25.502  10.886   2.293
65876W        W31103   4.004  36.010   1.978
65877W        W31104  16.605  40.557   0.732
65878W        W31105   7.640   4.174   2.691
65879W        W31106  15.791  39.886  12.180
65880W        W31107  13.771   6.076   2.457
65881W        W31108  38.795  41.501   1.935
65882W        W31109  25.477   1.765  12.540
65883W        W31110  35.275  35.718  12.510
65884W        W31111  19.006   5.672  14.532
65885W        W31112  37.417  26.412  13.521
65886W        W31113  44.331   6.869  12.439
65887W        W31114  21.761  33.079   4.797
65888W        W31115  34.533   2.259  11.579
65889W        W31116  39.528  27.129   4.196
65890W        W31117  30.569   0.292  10.769
65891W        W31118  10.370  23.382   2.822
65892W        W31119  14.705  37.065  14.150
65893W        W31120   4.497  42.203   1.175
65894W        W31121  12.234  19.051  10.905
65895W        W31122  39.532  40.036   1.322
65896W        W31123  37.368  24.479  13.866
65897W        W31124  10.167  41.321   0.381
65898W        W31125  43.969  37.349  11.531
65899W        W31126  25.834  36.215  12.915
65900W        W31127  38.549  16.683  13.461
65901W        W31128  23.086  11.379   3.145
65902W        W31129   0.854  24.765  10.665
65903W        W31130  18.183  42.146  12.877
65904W        W31131  40.129  43.916  14.065
65905W        W31132  38.287  27.498   5.018
65906W        W31133  20.227  10.161   2.060
65907W        W31134  31.676  44.965   4.808
65908W        W31135  10.763  32.450   0.943
65909W        W31136  14.931  26.997   2.279
65910W        W31137  16.037   5.270   3.220
65911W        W31138  44.743   8.673  10.811
65912W        W31139   8.778  30.886  12.507
65913W        W31140  42.780  31.698  13.238
65914W        W31141  37.361   3.969  12.327
65915W        W31142  11.796  10.632  12.544
65916W        W31143  16.621  33.980   3.078
65917W        W31144  44.187  30.149  12.387
65918W        W31145  39.044  42.787   2.394
65919W        W31146  17.491  10.646  13.466
65920W        W31147  33.990  26.444  11.145
65921W        W31148   2.009  41.783   3.233
65922W        W31149  28.048   8.294  13.580
65923W        W31150  21.265  42.948  11.331
65924W        W31151  43.734   1.342   0.776
65925W        W31152  34.636   3.511  14.731
65926W        W31153   1.484  43.018  14.651
65927W        W31154  13.704  34.849   3.681
65928W        W31155  16.397  35.381  13.924
65929W        W31156   5.954  12.512  10.366
65930W        W31157  21.123  33.467   0.651
65931W        W31158   0.066  17.076  10.357
65932W        W31159  11.559  43.682   2.969
65933W        W31160   5.799  42.520   3.727
65934W        W31161   5.944  24.304  12.132
65935W        W31162  25.801  42.521   4.252
65936W        W31163   1.726   5.360   2.319
65937W        W31164  21.009  42.712   2.877
65938W        W31165   2.943   8.630   4.577
65939W        W31166  11.052  38.086  14.217
65940W        W31167  34.173  34.063   2.232
65941W        W31168  42.310  40.225  12.527
65942W        W31169   4.855  25.970  14.362
65943W        W31170  16.753  18.032  13.554
65944W        W31171   3.476  16.681  12.283
65945W        W31172  40.845  33.793   3.394
65946W        W31173  31.007  35.353  12.100
65947W        W31174   8.206  30.944  14.236
65948W        W31175   8.923  17.690  13.293
65949W        W31176  27.055  13.099  12.381
65950W        W31177  17.103  39.431  11.725
65951W        W31178  11.561  24.279   0.234
65952W        W31179  23.795   0.288   4.101
65953W        W31180   4.812  22.519   3.817
65954W        W31181   9.702  31.930  12.640
65955W        W31182  18.227  15.541  12.150
65956W        W31183   3.736  19.015   0.788
65957W        W31184  38.742  39.110   4.421
65958W        W31185  15.379   3.327  11.004
65959W        W31186  31.953   0.797   0.445
65960W        W31187  26.709   0.544  11.976
65961W        W31188   1.865  39.175   4.578
65962W        W31189   0.464  42.986   0.745
65963W        W31190  13.718  28.095   1.748
65964W        W31191   3.019   1.224   1.682
65965W        W31192  10.210  16.327  14.846
65966W        W31193  25.188  42.468  14.344
65967W        W31194  21.769  31.735   3.803
65968W        W31195  31.042   9.813   0.323
65969W        W31196  34.616  18.610  12.659
65970W        W31197  34.059  10.696  14.831
65971W        W31198  36.393  30.536   3.271
65972W        W31199  19.647  22.722   3.766
65973W        W31200  13.144   5.825   1.150
65974W        W31201   3.899  12.815  13.855
65975W        W31202  21.965  36.223  14.939
65976W        W31203   7.203   2.022   2.140
65977W        W31204  11.180  20.640  12.763
65978W        W31205  28.386   3.342  11.035
65979W        W31206   0.458  30.959   0.406
65980W        W31207   4.243  32.437   2.140
65981W        W31208   6.269  22.417  12.934
65982W        W31209  22.916   9.782  14.260
65983W        W31210   4.872   4.577   5.294
65984W        W31211  42.403   6.421   1.689
65985W        W31212  31.045  18.251  12.857
65986W        W31213   5.865  30.385   4.781
65987W        W31214  32.908   3.431  10.382
65988W        W31215  28.632  33.179   4.184
65989W        W31216   1.834  39.068   3.133
65990W        W31217   6.053  23.978   1.841
65991W        W31218   5.863  24.973  11.432
65992W        W31219   8.821  23.964   0.203
65993W        W31220  27.168  37.104  10.561
65994W        W31221  34.023  10.697   0.430
65995W        W31222  39.287  33.468  11.178
65996W        W31223  20.599  15.570  14.829
65997W        W31224  14.079  36.190  11.646
65998W        W31225  26.735  35.933  11.217
65999W        W31226   6.182   6.450   2.256
66000W        W31227  21.206  42.764  14.362
66001W        W31228  18.413  16.190   2.124
66002W        W31229  24.228  25.209  13.914
66003W        W31230  27.241   3.441   0.757
66004W        W31231  39.434  23.030   0.791
66005W        W31232  24.023   0.323  12.861
66006W        W31233   7.243   4.492   0.763
66007W        W31234   7.967  25.540   3.275
66008W        W31235  42.320  25.013   2.192
66009W        W31236  43.775  36.940  13.989
66010W        W31237  43.859  24.481  14.961
66011W        W31238  29.093  18.148  11.655
66012W        W31239  19.187   5.335   2.626
66013W        W31240  12.841  15.766   3.269
66014W        W31241  39.693  40.342   4.047
66015W        W31242  19.040  21.274   0.786
66016W        W31243  33.123   2.334  11.581
66017W        W31244  28.184  37.836  11.133
66018W        W31245  20.207  30.350   0.397
66019W        W31246  34.031   7.997  10.540
66020W        W31247  27.589  35.914  13.990
66021W        W31248  12.123  18.262   2.696
66022W        W31249  14.000   5.489  12.835
66023W        W31250  37.274  13.574  12.832
66024W        W31251  39.036  39.966  13.409
66025W        W31252  41.275  32.974  14.033
66026W        W31253  30.910  16.613   4.116
66027W        W31254   5.304  38.061  11.515
66028W        W31255  31.289  39.723   9.757
66029W        W31256  32.604  16.483   9.897
66030W        W31257  17.735  12.994   0.527
66031W        W31258  11.361  17.810  13.912
66032W        W31259  18.516  40.252  14.293
66033W        W31260  33.393  26.115  14.359
66034W        W31261  15.633   6.491   5.028
66035W        W31262  27.511  21.023   3.913
66036W        W31263  15.352  38.985   0.669
66037W        W31264  17.125  27.981   3.292
66038W        W31265  24.305  42.401   1.390
66039W        W31266  31.156  33.722   2.228
66040W        W31267  30.960  21.581  14.887
66041W        W31268  39.427  44.832   3.712
66042W        W31269  33.976  13.776   4.510
66043W        W31270  43.901  37.873   3.308
66044W        W31271  31.476  22.327   1.412
66045W        W31272  30.419  25.686   1.434
66046W        W31273   3.342  21.674  11.672
66047W        W31274   1.073  20.485  10.170
66048W        W31275  25.986  12.009   4.585
66049W        W31276   5.858  15.625   2.321
66050W        W31277  35.934  24.719   1.321
66051W        W31278  20.604   1.404  12.326
66052W        W31279  15.544  24.063  13.989
66053W        W31280  34.610  40.864  12.097
66054W        W31281  31.021  30.031   3.839
66055W        W31282  42.219   7.474  13.922
66056W        W31283  14.182  29.157  13.404
66057W        W31284  17.244   6.854   4.475
66058W        W31285  32.970  23.626  13.819
66059W        W31286  44.380  36.423   1.755
66060W        W31287   4.723  42.970  12.983
66061W        W31288  13.347  11.412  11.820
66062W        W31289  40.392  26.720  10.747
66063W        W31290  11.711  36.165   0.303
66064W        W31291  13.668  37.352  14.486
66065W        W31292  38.569  10.585   1.873
66066W        W31293  31.191  24.520   1.718
66067W        W31294   6.925  44.107  14.780
66068W        W31295  40.010  36.172   4.211
66069W        W31296  32.077  18.590  12.477
66070W        W31297  11.369  25.579  14.594
66071W        W31298  42.203  17.374  11.229
66072W        W31299  22.693  29.727   1.341
66073W        W31300  20.321  33.478  14.935
66074W        W31301  23.606   3.806   4.238
66075W        W31302  33.358  30.493  14.913
66076W        W31303  19.154  39.720  12.598
66077W        W31304  27.001  23.264  13.837
66078W        W31305  27.062   2.057  14.232
66079W        W31306   6.776   0.883  10.981
66080W        W31307   6.874  25.587   1.171
66081W        W31308  26.990  23.244   3.352
66082W        W31309   3.309   3.477   2.896
66083W        W31310  26.123   0.776  11.699
66084W        W31311   2.235   2.343  10.653
66085W        W31312  17.549   8.867  14.642
66086W        W31313  39.578  25.494   0.360
66087W        W31314  19.534  19.769   2.331
66088W        W31315  19.849  32.107   4.596
66089W        W31316  21.632  14.855   3.665
66090W        W31317  44.731  39.574  11.370
66091W        W31318  37.623   4.314  12.026
66092W        W31319  14.505  22.290  13.018
66093W        W31320   6.287  11.923  13.623
66094W        W31321   8.358  38.627  11.589
66095W        W31322   5.205   2.284  12.067
66096W        W31323  39.514  15.773  13.853
66097W        W31324  29.917  28.462  11.154
66098W        W31325  18.091  39.294  13.349
66099W        W31326  37.469   7.916   1.384
66100W        W31327  31.970  13.101   1.873
66101W        W31328  41.510  25.175   4.102
66102W        W31329   3.375  41.996  13.380
66103W        W31330   8.481  26.692   0.040
66104W        W31331  14.043  28.727   0.461
66105W        W31332   1.898  29.043   4.426
66106W        W31333  33.611  10.808  13.241
66107W        W31334  11.371  27.155  14.280
66108W        W31335   7.025   1.312  14.377
66109W        W31336  38.359  23.573  13.616
66110W        W31337  43.512   0.778   0.692
66111W        W31338  19.710   7.928   1.718
66112W        W31339  16.686  41.137  10.868
66113W        W31340  22.553  14.689  11.466
66114W        W31341  21.525   7.161  13.531
66115W        W31342  16.036  44.247  12.661
66116W        W31343  15.703  15.250   2.872
66117W        W31344   2.234  29.568   2.272
66118W        W31345  27.512  25.553  11.527
66119W        W31346  34.329   0.199  11.602
66120W        W31347  32.031  34.002   3.193
66121W        W31348   5.587  41.415  12.106
66122W        W31349  10.328  25.913   0.280
66123W        W31350  30.775  35.115  10.307
66124W        W31351  35.670  30.117  14.705
66125W        W31352  15.592  35.085   0.940
66126W        W31353  30.375   4.194  12.852
66127W        W31354  19.773   0.527  10.294
66128W        W31355  40.509  12.274   4.023
66129W        W31356   3.437   4.480  12.085
66130W        W31357  29.511   3.951  10.554
66131W        W31358   4.130  33.444  11.587
66132W        W31359   6.037  30.194  13.501
66133W        W31360  18.330  44.810  14.495
66134W        W31361  42.956  13.479  10.720
66135W        W31362  28.992  39.412   1.773
66136W        W31363  24.623   9.251  10.682
66137W        W31364  41.040   8.111   3.669
66138W        W31365  44.728  31.190   2.679
66139W        W31366  18.724   3.355   4.643
66140W        W31367  41.034   5.753   3.227
66141W        W31368  28.964  40.528   2.924
66142W        W31369  39.780  31.859   4.734
66143W        W31370  35.168  31.911   2.779
66144W        W31371  14.616   6.885   0.967
66145W        W31372  21.079  39.373  10.920
66146W        W31373  22.548   6.798  12.347
66147W        W31374  43.612  39.878  14.741
66148W        W31375  23.018  11.062  13.119
66149W        W31376   9.393  37.532  13.718
66150W        W31377  16.579  41.512  13.977
66151W        W31378  27.197   4.341  13.854
66152W        W31379  31.425   7.391  13.393
66153W        W31380  25.548  41.270   2.241
66154W        W31381  42.222  44.809  12.868
66155W        W31382  26.781  35.500  12.173
66156W        W31383  24.031   1.367  12.029
66157W        W31384  35.964  36.517  14.588
66158W        W31385  10.314  44.017  11.852
66159W        W31386  42.385   2.772  14.666
66160W        W31387  43.280  15.586   0.736
66161W        W31388  37.123  44.883  13.142
66162W        W31389  42.166   0.639   1.309
66163W        W31390  40.118  44.444   1.939
66164W        W31391  38.031  33.408   3.677
66165W        W31392  33.192  27.458   5.060
66166W        W31393  34.160  40.708   2.371
66167W        W31394  43.340   6.351   9.933
66168W        W31395  16.600  40.395   2.230
66169W        W31396  30.687  23.250   4.119
66170W        W31397   0.891   1.875  13.343
66171W        W31398  20.315  25.933  13.068
66172W        W31399  23.805  24.936  12.920
66173W        W31400  18.962  11.988  13.332
66174W        W31401   6.216  39.066   2.280
66175W        W31402  41.021  25.324   2.685
66176W        W31403  43.471  28.860   3.792
66177W        W31404  38.960  38.141   1.835
66178W        W31405   8.726  14.187   0.244
66179W        W31406  17.624  23.761   3.673
66180W        W31407  35.226   5.249  13.557
66181W        W31408  28.374  32.931  13.666
66182W        W31409  43.763  26.158   3.888
66183W        W31410  24.230  25.662  11.449
66184W        W31411   2.188  32.139  10.656
66185W        W31412  24.767   2.053   2.225
66186W        W31413  42.617  44.096  13.817
66187W        W31414  10.395   1.492  12.521
66188W        W31415  41.319  14.709   4.299
66189W        W31416  36.982   3.361   4.920
66190W        W31417  37.534  40.219  13.003
66191W        W31418  26.550   0.850  11.016
66192W        W31419   8.200   6.703   0.683
66193W        W31420  44.394  19.730   3.646
66194W        W31421  41.555  27.796  11.597
66195W        W31422  11.338  42.555   1.726
66196W        W31423  16.654   5.312  13.027
66197W        W31424  22.737  42.292   4.258
66198W        W31425   2.748  40.804   3.017
66199W        W31426  25.705  23.436   4.546
66200W        W31427  26.041  19.668  11.151
66201W        W31428  16.140  35.488   3.832
66202W        W31429  10.211  11.804   4.193
66203W        W31430  40.957  11.834  11.634
66204W        W31431  24.627   4.140   1.418
66205W        W31432   0.217  23.262   4.979
66206W        W31433  19.558   1.784  14.346
66207W        W31434  40.133  26.675   9.927
66208W        W31435  12.756  38.568  11.541
66209W        W31436  13.200  25.711   0.718
66210W        W31437  32.037  38.980  14.041
66211W        W31438  42.872  28.258   2.057
66212W        W31439   7.867   4.025   4.484
66213W        W31440  21.238   3.151   2.042
66214W        W31441  24.558  34.145   4.007
66215W        W31442   9.576   5.314   0.764
66216W        W31443  33.697  15.216  13.544
66217W        W31444  36.425  29.355  14.770
66218W        W31445   8.964  25.391  14.470
66219W        W31446  15.576   7.339   3.312
66220W        W31447  34.746  34.984   4.221
66221W        W31448   2.493  37.761   1.839
66222W        W31449  28.632   2.779  12.641
66223W        W31450  23.601   7.935  10.739
66224W        W31451   2.655  16.148   2.109
66225W        W31452  23.370  30.432  14.696
66226W        W31453  35.326   0.938  12.916
66227W        W31454   3.767  17.474   0.934
66228W        W31455  15.027  39.044   2.761
66229W        W31456  36.867  16.637  10.611
66230W        W31457  39.490  44.545   0.326
66231W        W31458  20.115  40.940   3.414
66232W        W31459  44.882  10.711   0.797
66233W        W31460  37.711   6.196  12.382
66234W        W31461  37.115  20.505   1.827
66235W        W31462  32.078  31.028   3.221
66236W        W31463  12.349  41.755  13.589
66237W        W31464  36.624  25.169   4.098
66238W        W31465  34.554   8.464  13.024
66239W        W31466   7.137  27.921  10.562
66240W        W31467  26.633  21.517   4.160
66241W        W31468  40.789  37.618   4.148
66242W        W31469  18.367   2.355   0.245
66243W        W31470  35.267  17.554   3.609
66244W        W31471  25.292  27.983  13.361
66245W        W31472  28.834   7.711  12.003
66246W        W31473  23.910  27.658  11.646
66247W        W31474  30.541  31.627   3.655
66248W        W31475  39.859   5.726   1.454
66249W        W31476  34.818  33.879   2.915
66250W        W31477  38.482  13.438   1.173
66251W        W31478  34.602  31.914   1.422
66252W        W31479  39.380  37.325  13.460
66253W        W31480  26.576  23.142   0.751
66254W        W31481  26.072  26.279  11.542
66255W        W31482  35.405  44.619   4.120
66256W        W31483  24.430  29.972   0.076
66257W        W31484  14.203  25.254  12.806
66258W        W31485  23.785   1.333  12.507
66259W        W31486  13.868  35.116   1.685
66260W        W31487   1.250   5.737   2.783
66261W        W31488  34.453  32.443  13.531
66262W        W31489  42.060   7.894  11.207
66263W        W31490  42.147  39.898   2.674
66264W        W31491  10.290  11.942  13.942
66265W        W31492  21.468   1.942   3.253
66266W        W31493  12.695  22.106   4.663
66267W        W31494  10.678  29.437   3.594
66268W        W31495   9.268  14.028   1.937
66269W        W31496  27.020  26.274  11.488
66270W        W31497  27.015   6.440  14.265
66271W        W31498  29.522   1.330  11.527
66272W        W31499  11.629  38.932   1.348
66273W        W31500  43.713  17.527   4.092
66274W        W31501  19.595  38.509  12.825
66275W        W31502  44.023  14.836  14.436
66276W        W31503  33.403  17.299   0.937
66277W        W31504  21.298  34.783  11.221
66278W        W31505   7.945  21.262   3.315
66279W        W31506  26.762  28.817   1.701
66280W        W31507  12.177  11.851  10.982
66281W        W31508  12.498   5.753  14.925
66282W        W31509  17.603   8.780  12.605
66283W        W31510  19.697   9.317   4.140
66284W        W31511   6.824   7.402  11.687
66285W        W31512  33.841   1.136   3.086
66286W        W31513  24.598   8.473   1.665
66287W        W31514  43.115  21.623  14.747
66288W        W31515  44.177   6.162  11.516
66289W        W31516  41.285  12.154  14.535
66290W        W31517  32.969  42.591   4.639
66291W        W31518  21.598  25.709   4.562
66292W        W31519  25.420  38.813  10.645
66293W        W31520   1.456  42.235  13.532
66294W        W31521  39.588   7.447   4.156
66295W        W31522  27.109  41.176  11.765
66296W        W31523   8.870  41.989   4.069
66297W        W31524  36.000  29.676   2.109
66298W        W31525  37.193  24.007   4.167
66299W        W31526  39.531   7.441  14.455
66300W        W31527  20.236   4.871  10.385
66301W        W31528  44.952  36.064  11.651
66302W        W31529   2.741   2.411   2.031
66303W        W31530   5.899  35.916  11.996
66304W        W31531  16.863  23.741  11.178
66305W        W31532  14.995  13.013  12.011
66306W        W31533  31.621  32.606  12.515
66307W        W31534  44.928  17.567   2.178
66308W        W31535   9.169  32.976   3.220
66309W        W31536  41.939  14.556  12.387
66310W        W31537   2.347  18.643   4.221
66311W        W31538  32.998  29.160   2.845
66312W        W31539  34.495  12.266  11.855
66313W        W31540   7.191  22.766   3.119
66314W        W31541  15.243  42.931  14.898
66315W        W31542  37.490  36.154   0.436
66316W        W31543  27.811  18.793  14.870
66317W        W31544  41.666  24.444  14.301
66318W        W31545  35.513  23.473   3.635
66319W        W31546  30.976  39.422  10.898
66320W        W31547  44.100  20.246  10.622
66321W        W31548  44.959   2.319   1.835
66322W        W31549  11.107  38.305  12.617
66323W        W31550  21.491  35.286   2.936
66324W        W31551  20.238  33.223  13.859
66325W        W31552  19.574  24.242   0.723
66326W        W31553  12.837  37.127  12.012
66327W        W31554  24.923   8.863   5.063
66328W        W31555  33.158  26.171   3.778
66329W        W31556  11.660  25.356  11.375
66330W        W31557   6.463  12.179   1.352
66331W        W31558   4.475  27.438  12.000
66332W        W31559  41.786  23.421  12.559
66333W        W31560  10.891  27.281   2.668
66334W        W31561  13.264   0.135  10.230
66335W        W31562  27.633  23.440  12.647
66336W        W31563  41.852  36.573   0.767
66337W        W31564  40.612  25.943  14.881
66338W        W31565   5.414   1.836  11.246
66339W        W31566  38.445  15.841   1.256
66340W        W31567  31.935  37.077  12.121
66341W        W31568  17.230  40.586  12.994
66342W        W31569  43.653  37.557  12.096
66343W        W31570  17.582  37.441  11.262
66344W        W31571  43.468  39.393   2.912
66345W        W31572   2.442  17.119  14.027
66346W        W31573  38.950  29.020   5.041
66347W        W31574  19.215   1.777   4.039
66348W        W31575  32.286  39.879   2.639
66349W        W31576  11.809  19.038   4.565
66350W        W31577  27.050  21.182  11.989
66351W        W31578  36.511  43.392   2.651
66352W        W31579  20.251  11.600  12.110
66353W        W31580  21.010  25.715  14.987
66354W        W31581   1.029   2.318   2.959
66355W        W31582   9.579   9.897  11.424
66356W        W31583   9.696  11.760   0.291
66357W        W31584  31.624   0.054  14.158
66358W        W31585  14.325  24.636   4.911
66359W        W31586  33.030   2.201   3.698
66360W        W31587  33.681  39.978  14.682
66361W        W31588  17.986  12.356  13.418
66362W        W31589   3.809  33.147  12.551
66363W        W31590  34.086  20.025  10.854
66364W        W31591  15.247  21.991  14.333
66365W        W31592   9.112  27.990  13.478
66366W        W31593   3.492  35.586   4.575
66367W        W31594  16.843  30.609  11.691
66368W        W31595  20.658  36.102   4.235
66369W        W31596  10.383  18.896   2.375
66370W        W31597   8.746  44.212   1.451
66371W        W31598  36.142  23.978  14.975
66372W        W31599   0.730  16.015  10.150
66373W        W31600  21.628   6.194  13.801
66374W        W31601  42.310  24.246  13.947
66375W        W31602  18.273  39.090  11.846
66376W        W31603  37.815  39.768  13.011
66377W        W31604  23.150   8.768  10.785
66378W        W31605  18.477  13.223  14.771
66379W        W31606  38.024  20.096   3.110
66380W        W31607  24.762  21.537  12.652
66381W        W31608  34.818  17.605   5.000
66382W        W31609  28.891  19.252   1.775
66383W        W31610   4.258  37.427  13.390
66384W        W31611  10.342  19.156  11.686
66385W        W31612   9.799  30.406   4.607
66386W        W31613  35.431   5.988  12.189
66387W        W31614  22.892  18.265  14.453
66388W        W31615  15.559  12.885  13.119
66389W        W31616   1.306  16.741   1.845
66390W        W31617  44.273   4.021  14.317
66391W        W31618  44.978  31.843  13.912
66392W        W31619  14.882  15.417  14.744
66393W        W31620  36.345  20.538   2.083
66394W        W31621  22.569  16.864   1.925
66395W        W31622  26.892  36.082  10.759
66396W        W31623  40.771  30.532  14.059
66397W        W31624  24.360  31.099   0.775
66398W        W31625  42.959  26.585  14.017
66399W        W31626   6.955  39.305   2.458
66400W        W31627  38.866  21.278   4.493
66401W        W31628  35.937  27.691  12.856
66402W        W31629  32.445  16.022   2.057
66403W        W31630  44.440  14.364   2.642
66404W        W31631  26.612   3.305   4.671
66405W        W31632   7.463  26.581  11.989
66406W        W31633  43.693  22.916  10.474
66407W        W31634  24.232  23.703  14.643
66408W        W31635   8.285  41.368  12.651
66409W        W31636   6.013   7.329   0.435
66410W        W31637  41.146  13.232  14.377
66411W        W31638  15.610  39.226  14.419
66412W        W31639  42.866  17.602   2.664
66413W        W31640  22.317  18.347   4.134
66414W        W31641  17.623  27.376  14.004
66415W        W31642  36.912  31.656   1.965
66416W        W31643  38.854   4.960  14.619
66417W        W31644   2.399  22.255  10.574
66418W        W31645  16.744   2.928   4.398
66419W        W31646  24.138  44.843  11.563
66420W        W31647  39.499  24.174  14.054
66421W        W31648  43.245  42.243   4.948
66422W        W31649  32.598  22.989  14.332
66423W        W31650  14.654  42.349   1.652
66424W        W31651   0.207  16.849   0.697
66425W        W31652  36.411  16.687  12.080
66426W        W31653  32.071  25.858  13.245
66427W        W31654  39.286  35.971  12.746
66428W        W31655  35.190  30.468   3.703
66429W        W31656  26.248  43.460   4.971
66430W        W31657  36.660  31.875   2.574
66431W        W31658   4.744  40.386   3.730
66432W        W31659   6.087  27.709   3.278
66433W        W31660   1.718  24.825   0.649
66434W        W31661  36.150  34.560   0.575
66435W        W31662   7.421  10.432   3.719
66436W        W31663  33.058  15.300   2.203
66437W        W31664  39.811  18.003  12.104
66438W        W31665  36.624  40.923  12.219
66439W        W31666   8.902   8.986   3.947
66440W        W31667  30.887  13.827  11.540
66441W        W31668  33.873  31.643  11.725
66442W        W31669  29.744   6.348   5.123
66443W        W31670  13.271   2.406   3.839
66444W        W31671   9.346   5.652  12.162
66445W        W31672  25.468  43.880   1.982
66446W        W31673   2.646  35.086   2.047
66447W        W31674  33.951  31.770   4.356
66448W        W31675  12.866  17.330  13.432
66449W        W31676  38.477  33.005  12.471
66450W        W31677  44.707  40.367   1.911
66451W        W31678  31.847  28.705   2.625
66452W        W31679  44.791  42.259   4.015
66453W        W31680  35.617  25.130   2.689
66454W        W31681  42.826  31.341  14.798
66455W        W31682  11.966  10.587  10.682
66456W        W31683  18.179  20.496  14.532
66457W        W31684  22.703  31.760  11.370
66458W        W31685  16.489  13.637   1.440
66459W        W31686  12.078  10.198   4.343
66460W        W31687  30.346  38.583   2.427
66461W        W31688   1.678   0.323  11.759
66462W        W31689  39.149  22.883   0.374
66463W        W31690  30.972  20.603  11.458
66464W        W31691   7.516  18.505   4.231
66465W        W31692  17.111   4.796  12.565
66466W        W31693   1.669  39.331  12.169
66467W        W31694  25.487  14.117   4.541
66468W        W31695  20.530  43.309   0.429
66469W        W31696  30.702  32.227  12.363
66470W        W31697  14.816  37.575  10.777
66471W        W31698  39.335  32.517   3.304
66472W        W31699  28.007   6.492  14.941
66473W        W31700  15.702  23.602  10.398
66474W        W31701  40.700  31.932   2.351
66475W        W31702  29.388  30.384  11.587
66476W        W31703  29.619  11.104  13.478
66477W        W31704  43.701  39.858  12.138
66478W        W31705  21.335  19.755   3.583
66479W        W31706  25.599  37.171   3.738
66480W        W31707  36.525  42.528   3.176
66481W        W31708  21.624  33.640  14.039
66482W        W31709  28.595  31.167   4.837
66483W        W31710  24.198  43.457   5.175
66484W        W31711  43.757  38.936  12.143
66485W        W31712  29.190  32.394   2.218
66486W        W31713   5.863  41.353   4.560
66487W        W31714  37.312  16.345  10.650
66488W        W31715   9.789   9.204   2.943
66489W        W31716  20.190  33.605  10.757
66490W        W31717   8.377   1.250  14.835
66491W        W31718  42.757  40.734  14.383
66492W        W31719  25.069  41.945  14.332
66493W        W31720   1.975  18.905  10.707
66494W        W31721  17.129  40.335   1.341
66495W        W31722   6.968  26.911  11.166
66496W        W31723  12.658  29.097   1.138
66497W        W31724   8.689  35.484   3.683
66498W        W31725  20.722  41.782   0.218
66499W        W31726  28.520  43.392   0.349
66500W        W31727  18.128  28.173   2.726
66501W        W31728  15.186  14.205  12.636
66502W        W31729  42.906  25.156   1.310
66503W        W31730   9.405   6.393   2.395
66504W        W31731   1.051  39.431  14.401
66505W        W31732  29.410  28.661  12.014
66506W        W31733  40.949  19.954  12.583
66507W        W31734  18.011  44.321   3.707
66508W        W31735   2.364   2.673   1.774
66509W        W31736  27.396  28.523   3.053
66510W        W31737  33.338  27.217   0.921
66511W        W31738  29.434  13.039  11.488
66512W        W31739  22.697  12.183   1.370
66513W        W31740  12.595  17.814  14.309
66514W        W31741  23.385  28.761  11.534
66515W        W31742  23.372   3.885  12.004
66516W        W31743  38.495  36.919   4.468
66517W        W31744   9.890  44.775   4.643
66518W        W31745   3.719   4.974  14.725
66519W        W31746   2.213   8.341  10.983
66520W        W31747   0.773   7.470  13.083
66521W        W31748   9.791   2.736   4.859
66522W        W31749  18.307  34.443   0.667
66523W        W31750  21.035  27.457  12.229
66524W        W31751  38.472  15.589   0.782
66525W        W31752  27.047  15.596  12.494
66526W        W31753   9.387  19.681  10.656
66527W        W31754  10.220  25.142  10.470
66528W        W31755  33.542  32.609  10.754
66529W        W31756  11.656  23.602   2.029
66530W        W31757  41.684  17.659   2.110
66531W        W31758  16.306  13.194   2.296
66532W        W31759  37.282  17.806   0.721
66533W        W31760   1.280  16.177  12.338
66534W        W31761  44.924  37.668   3.205
66535W        W31762   2.085   6.877   9.885
66536W        W31763  13.623  43.315  11.019
66537W        W31764  19.402  18.691  11.527
66538W        W31765  42.552  38.980  13.360
66539W        W31766   0.877   0.075  13.213
66540W        W31767  34.802  27.921  10.519
66541W        W31768  44.013  24.893  12.115
66542W        W31769  44.139  25.378   1.166
66543W        W31770   9.223  12.223   3.695
66544W        W31771   3.178  33.404   2.670
66545W        W31772  10.089  25.103  14.476
66546W        W31773  34.947  34.569   1.138
66547W        W31774  42.509  26.429   4.564
66548W        W31775  21.346  16.545  14.107
66549W        W31776  22.562  19.516   3.085
66550W        W31777  36.898  24.149  12.418
66551W        W31778   5.248  15.215   2.228
66552W        W31779  13.278  34.228   4.965
66553W        W31780  19.324  18.708  11.018
66554W        W31781   3.926  10.140   1.656
66555W        W31782  36.453  20.232   4.855
66556W        W31783  42.112  14.024  12.441
66557W        W31784   8.678  16.070   2.161
66558W        W31785  10.608  44.273  14.673
66559W        W31786  23.958  10.064   4.650
66560W        W31787  27.006  27.932   2.643
66561W        W31788  41.826  13.682   2.671
66562W        W31789   0.308  22.785  11.075
66563W        W31790   6.435  12.901  13.427
66564W        W31791  41.412  17.278   3.223
66565W        W31792  36.036   1.062  12.065
66566W        W31793  44.619  28.579   1.912
66567W        W31794  40.102  41.226   2.434
66568W        W31795   2.696   1.777  12.432
66569W        W31796   0.243  33.894  14.247
66570W        W31797  33.898  13.150   2.889
66571W        W31798  20.101  39.292   0.466
66572W        W31799   3.232  33.468   4.161
66573W        W31800  25.794   0.026  12.035
66574W        W31801   3.917   1.396   0.193
66575W        W31802  10.860  43.501  12.491
66576W        W31803  21.552  37.602  10.134
66577W        W31804  18.588   2.271   4.532
66578W        W31805  26.741   0.666   9.785
66579W        W31806  38.144   1.139  10.680
66580W        W31807  29.610  19.919   3.667
66581W        W31808  42.849  24.004   4.618
66582W        W31809  32.922  35.444   0.739
66583W        W31810  43.525  12.938   3.675
66584W        W31811  31.079  15.919  13.504
66585W        W31812  39.815  18.738  13.944
66586W        W31813  40.391  10.453   3.195
66587W        W31814  36.674   1.803   2.337
66588W        W31815   5.651   7.346   3.198
66589W        W31816  24.078  29.505   0.457
66590W        W31817  12.569   1.391   0.926
66591W        W31818  18.177  43.464   3.369
66592W        W31819  23.797   9.929  14.808
66593W        W31820   7.487  37.513  13.918
66594W        W31821  36.917  39.511  11.937
66595W        W31822   2.359  16.514   2.849
66596W        W31823  27.461  15.700   9.656
66597W        W31824  34.465  26.979  10.317
66598W        W31825   7.827  39.538  14.129
66599W        W31826  17.789   3.510  12.002
66600W        W31827  35.860  37.385   3.078
66601W        W31828  37.036  18.815   1.450
66602W        W31829   6.681  34.886   2.805
66603W        W31830  41.961  21.134   1.405
66604W        W31831  19.657  26.808  13.974
66605W        W31832  28.935   7.963   2.822
66606W        W31833   8.345   7.832   3.489
66607W        W31834  21.073  25.444  11.057
66608W        W31835  24.002  12.366  12.916
66609W        W31836  12.299  34.397   3.403
66610W        W31837  42.286  36.995  12.111
66611W        W31838  13.109  24.698  13.773
66612W        W31839  42.709  10.087   5.061
66613W        W31840  22.645   4.869   1.150
66614W        W31841  24.516  15.985   0.154
66615W        W31842  32.189   4.407  11.993
66616W        W31843   2.165   8.018  12.607
66617W        W31844  19.306   6.828  13.508
66618W        W31845  39.523  10.367  13.011
66619W        W31846  37.583  15.030  13.064
66620W        W31847  32.045   2.701   2.703
66621W        W31848   6.726  27.206  14.559
66622W        W31849  16.794  12.706   3.778
66623W        W31850  40.967  39.179  13.614
66624W        W31851  22.473  22.559   2.292
66625W        W31852  15.748  25.421   3.677
66626W        W31853   7.947  10.685   0.150
66627W        W31854  12.617  13.381   1.654
66628W        W31855  23.117  34.761  10.670
66629W        W31856  38.826   7.207   0.522
66630W        W31857  11.629   4.789  12.129
66631W        W31858  24.977  35.366  14.423
66632W        W31859  12.236  21.125   1.261
66633W        W31860  25.134  12.529  10.774
66634W        W31861  37.223  24.074   0.140
66635W        W31862  43.008  21.913   3.666
66636W        W31863   3.298  12.164   2.834
66637W        W31864  24.737   3.985  14.891
66638W        W31865  32.151  25.984   0.901
66639W        W31866  17.612   8.460  13.880
66640W        W31867  30.038  20.911   3.420
66641W        W31868   5.019  11.641   0.483
66642W        W31869   7.414   9.817   0.872
66643W        W31870  37.599  40.544   1.432
66644W        W31871  29.368   0.786   3.587
66645W        W31872  27.099  30.088   1.744
66646W        W31873   6.498  18.515  11.965
66647W        W31874  20.099   3.431   1.998
66648W        W31875   0.527   0.410  13.010
66649W        W31876  24.747   5.924   3.622
66650W        W31877  40.619   8.904  10.648
66651W        W31878  42.733  24.106  11.068
66652W        W31879   8.830  31.764  13.546
66653W        W31880  32.505   0.004   3.796
66654W        W31881  11.325  24.128  10.727
66655W        W31882  21.224   2.239   3.629
66656W        W31883  14.175  37.483   2.150
66657W        W31884   7.312  19.513   2.838
66658W        W31885  15.504  19.037   2.249
66659W        W31886   7.334  20.292  13.119
66660W        W31887   1.790  32.416   3.822
66661W        W31888  23.684  25.634  13.576
66662W        W31889  11.301  37.391   2.181
66663W        W31890  12.070  23.743  13.953
66664W        W31891  17.810  40.779  12.965
66665W        W31892  41.017  27.099  14.273
66666W        W31893  22.676  15.573  13.545
66667W        W31894   0.485  44.386  13.803
66668W        W31895  39.270  32.078  12.971
66669W        W31896  10.144   8.835   2.241
66670W        W31897  10.288  34.845  14.416
66671W        W31898  28.434   0.680  13.022
66672W        W31899  39.506  14.939   0.243
66673W        W31900  37.592  40.302  11.663
66674W        W31901  18.197  16.272  13.139
66675W        W31902  37.291  33.692  10.966
66676W        W31903   7.348  22.416  13.925
66677W        W31904  34.036  28.147  10.676
66678W        W31905  29.734  22.564   3.785
66679W        W31906  14.773  27.533  12.431
66680W        W31907  17.829  28.676   0.214
66681W        W31908  25.317   4.170   0.714
66682W        W31909  35.974  28.936   4.244
66683W        W31910  13.724  36.382   0.497
66684W        W31911  18.099  40.473   4.581
66685W        W31912  12.852  26.742   0.294
66686W        W31913  25.569   6.067  14.002
66687W        W31914  33.643  39.361   3.665
66688W        W31915   0.471  41.519   3.499
66689W        W31916  26.475  31.003  10.612
66690W        W31917  31.100  42.806   3.279
66691W        W31918  26.119  38.508  14.326
66692W        W31919  41.196  23.489   3.992
66693W        W31920  30.101  11.803  13.806
66694W        W31921   2.870  11.236   0.958
66695W        W31922  12.699  26.047   4.737
66696W        W31923  15.465  40.972  13.755
66697W        W31924  44.964  26.226   4.549
66698W        W31925  24.221  42.479   0.069
66699W        W31926  30.501   0.160   4.914
66700W        W31927   8.265  27.983   1.320
66701W        W31928  44.543  29.615  13.565
66702W        W31929  14.642  43.849   0.459
66703W        W31930  18.128  37.987   3.286
66704W        W31931  25.639  12.626   2.685
66705W        W31932  24.120  19.826   4.080
66706W        W31933   9.411  40.369   0.321
66707W        W31934   8.668  17.720  14.882
66708W        W31935  30.897  41.582  12.438
66709W        W31936   4.150  44.776  14.545
66710W        W31937  33.028  12.114  11.205
66711W        W31938  28.228  11.076  11.145
66712W        W31939  16.256  33.429  13.261
66713W        W31940  19.177  27.135   1.368
66714W        W31941  10.878  14.494   3.332
66715W        W31942  38.591   0.486  11.221
66716W        W31943  27.443   5.932  14.558
66717W        W31944  36.001  17.282   1.696
66718W        W31945  23.243  33.663  14.929
66719W        W31946  37.595  33.941  14.478
66720W        W31947  32.614  12.367  11.429
66721W        W31948  38.503   9.221  13.929
66722W        W31949  13.149   3.417   1.491
66723W        W31950   8.602   2.265  13.404
66724W        W31951   4.369  42.996   0.947
66725W        W31952  21.510  43.272   0.239
66726W        W31953   4.682  31.279  14.272
66727W        W31954  42.467  29.194   4.239
66728W        W31955  26.957  26.636   3.838
66729W        W31956  32.595  19.591   1.961
66730W        W31957  26.966  27.199   1.419
66731W        W31958   2.469  33.109  14.318
66732W        W31959  33.120  44.357  13.883
66733W        W31960  38.673  25.008   2.726
66734W        W31961   2.658  17.774   4.564
66735W        W31962  34.328  44.363  11.326
66736W        W31963  18.654  36.289  11.635
66737W        W31964  16.027  10.659  11.179
66738W        W31965  36.757   0.876   4.556
66739W        W31966  34.979  17.146   4.764
66740W        W31967   2.267  36.792   3.359
66741W        W31968  19.221  27.427   3.381
66742W        W31969  18.919   0.442   3.570
66743W        W31970   9.840   7.857   1.461
66744W        W31971   3.370  37.812  13.067
66745W        W31972  33.130  21.775   1.683
66746W        W31973  18.279  14.091  11.591
66747W        W31974   5.393  12.881  14.375
66748W        W31975  22.540   7.198  14.046
66749W        W31976  26.016   6.672  13.519
66750W        W31977   4.956   4.399  13.578
66751W        W31978  35.343  40.026  14.406
66752W        W31979  31.038  38.125   2.487
66753W        W31980  21.920  29.155  12.088
66754W        W31981   6.663  13.146   3.743
66755W        W31982  17.370   6.324  11.168
66756W        W31983   7.006  18.393   4.265
66757W        W31984  31.153  16.707   0.102
66758W        W31985  37.080  36.890  13.929
66759W        W31986  39.957  40.856   1.247
66760W        W31987   1.477  30.879   2.400
66761W        W31988  37.025  15.247   0.434
66762W        W31989  35.207  41.768  13.000
66763W        W31990  11.824  15.045   1.403
66764W        W31991  25.521  31.747   2.175
66765W        W31992  28.805  31.098  12.037
66766W        W31993  31.620   8.427  11.119
66767W        W31994  36.922  25.134  14.889
66768W        W31995  42.805  35.501   0.084
66769W        W31996  18.011  25.672   2.677
66770W        W31997   6.720  22.698   3.827
66771W        W31998  43.764  42.015   5.033
66772W        W31999  26.612  35.773   1.374
66773W        W32000  44.032  12.182   2.353
66774W        W32001   2.587  11.795   0.170
66775W        W32002   5.317  37.880   2.806
66776W        W32003  38.981  27.993   5.154
66777W        W32004  37.261  22.197  13.315
66778W        W32005  39.662   1.313   0.021
66779W        W32006   7.479  13.252   1.204
66780W        W32007   4.832   2.227  14.129
66781W        W32008  28.797   4.270   4.867
66782W        W32009  15.503   9.296   0.002
66783W        W32010  17.327   4.183   4.808
66784W        W32011   9.233  20.727  12.936
66785W        W32012   4.291   1.304   1.149
66786W        W32013  28.206  21.895  11.880
66787W        W32014  35.137  13.923  10.826
66788W        W32015  22.446  17.813  14.329
66789W        W32016  30.378  30.515   4.136
66790W        W32017  12.444  16.810   1.583
66791W        W32018  17.080   4.904   2.120
66792W        W32019  21.227   8.712   0.813
66793W        W32020  22.531  35.588   2.120
66794W        W32021  13.723  27.870   4.428
66795W        W32022  36.784   5.199   5.005
66796W        W32023  10.043  36.325  14.056
66797W        W32024   1.912  30.042   4.144
66798W        W32025  22.781  24.102  13.983
66799W        W32026   8.337   8.877  10.593
66800W        W32027   8.098  31.524   4.538
66801W        W32028  38.163  43.818   3.197
66802W        W32029  34.983  30.161  13.367
66803W        W32030  37.042  15.595  11.271
66804W        W32031   9.784  36.593   0.797
66805W        W32032  36.524  10.888   2.354
66806W        W32033  37.574  44.992  12.510
66807W        W32034  10.885  24.392  13.830
66808W        W32035  12.851  30.139  13.292
66809W        W32036   9.388  22.154   0.059
66810W        W32037  32.767  34.035   5.657
66811W        W32038  14.873  29.773   0.827
66812W        W32039  28.470   1.146  11.872
66813W        W32040  27.211   1.380  12.172
66814W        W32041   9.313   7.550  12.588
66815W        W32042  34.089   5.663   1.253
66816W        W32043  29.111   5.766  13.798
66817W        W32044  13.553   3.329   1.798
66818W        W32045  44.661  21.156  12.164
66819W        W32046  40.347  31.183  11.982
66820W        W32047   6.770  26.024   4.221
66821W        W32048   3.878  13.349  13.905
66822W        W32049  35.883   5.217   3.383
66823W        W32050  32.393  42.919   3.488
66824W        W32051  28.096  38.116  10.056
66825W        W32052  10.214  36.930   4.157
66826W        W32053   6.463  12.261  13.966
66827W        W32054  43.504  36.363   4.128
66828W        W32055   4.310  24.914  11.814
66829W        W32056  37.666  25.164   2.865
66830W        W32057   8.993  43.168   0.850
66831W        W32058   6.148   4.327  11.879
66832W        W32059  42.340  33.925  14.466
66833W        W32060  39.546  11.351   0.989
66834W        W32061  40.907  42.549  12.061
66835W        W32062   2.361   3.904  10.506
66836W        W32063  41.536  26.580   3.614
66837W        W32064  10.391  14.855   1.398
66838W        W32065   7.706   5.794   2.827
66839W        W32066  15.112   8.971   4.536
66840W        W32067  27.683   7.795   0.349
66841W        W32068  28.144   1.536  11.617
66842W        W32069  22.029  42.477  10.604
66843W        W32070  44.006   4.013   1.779
66844W        W32071   8.292  33.986   4.291
66845W        W32072   2.444  17.815  10.057
66846W        W32073  19.069   7.229   3.296
66847W        W32074   8.433  42.251   4.276
66848W        W32075  15.608   4.450  14.738
66849W        W32076  31.473  15.501   5.373
66850W        W32077  17.632   1.956   4.566
66851W        W32078  44.456  27.919   0.351
66852W        W32079  40.333  16.294  12.352
66853W        W32080  19.755  38.438   0.223
66854W        W32081   3.456  19.618   0.287
66855W        W32082  36.434  17.918  11.137
66856W        W32083  37.807   1.035  14.943
66857W        W32084  10.883   3.525  11.182
66858W        W32085  14.789  25.016   0.557
66859W        W32086   5.122  29.887   3.243
66860W        W32087  15.295  23.273  14.915
66861W        W32088  41.878   9.798   3.093
66862W        W32089  26.883  22.090  13.580
66863W        W32090  11.686   3.276  12.366
66864W        W32091   3.707   5.865   4.688
66865W        W32092  37.717  24.007   4.194
66866W        W32093   4.648  41.351   3.777
66867W        W32094  14.133  16.847   1.320
66868W        W32095  12.088  21.487  13.241
66869W        W32096  17.076   5.741   2.502
66870W        W32097  21.216  31.560   2.185
66871W        W32098  36.322  18.589   0.810
66872W        W32099   2.360  15.084  12.895
66873W        W32100  37.900  12.843  14.731
66874W        W32101   5.371  22.473  13.324
66875W        W32102  30.068  24.557   0.818
66876W        W32103  15.094  18.147   2.365
66877W        W32104  36.459   0.769  12.065
66878W        W32105  15.658  43.771   2.871
66879W        W32106  11.814  44.589   0.102
66880W        W32107  17.073   3.354   3.179
66881W        W32108  41.635  39.096  11.181
66882W        W32109  32.883  10.882  13.084
66883W        W32110  12.911  35.428   0.979
66884W        W32111  26.014  17.726   1.994
66885W        W32112   9.881  35.452   2.935
66886W        W32113  40.113   1.239  14.776
66887W        W32114  11.660  26.985  13.311
66888W        W32115  40.227  40.513  13.551
66889W        W32116  27.768  41.844   3.157
66890W        W32117   1.773  20.435   3.154
66891W        W32118  36.206  42.424   4.556
66892W        W32119  11.779  24.005   0.627
66893W        W32120  38.478  16.248  10.994
66894W        W32121  24.608  22.912  12.534
66895W        W32122  21.707  25.163  12.089
66896W        W32123  18.778  34.179  13.846
66897W        W32124  12.455  39.263   4.176
66898W        W32125  30.428  42.075   4.122
66899W        W32126  24.683   5.930   4.590
66900W        W32127  20.637  32.611   1.652
66901W        W32128  29.992  35.636   2.046
66902W        W32129   3.025  13.124   0.328
66903W        W32130  30.398  21.426   1.975
66904W        W32131  34.626  26.580   4.601
66905W        W32132  42.817  20.586  10.756
66906W        W32133   7.076  32.003  11.667
66907W        W32134  11.707  13.738   3.240
66908W        W32135   6.844  31.092   2.607
66909W        W32136  39.508   9.098  14.893
66910W        W32137   5.126  30.245  10.383
66911W        W32138  13.389  19.637   0.250
66912W        W32139  25.969  43.250   2.148
66913W        W32140   6.216  30.309   3.085
66914W        W32141  10.244  44.451  14.225
66915W        W32142   4.288  40.760   4.635
66916W        W32143  24.663  26.580   0.950
66917W        W32144  29.637   9.155   3.249
66918W        W32145  17.149  39.881   0.415
66919W        W32146  44.690  44.973   2.212
66920W        W32147  40.440  28.673   2.496
66921W        W32148  32.956  34.596   1.236
66922W        W32149  17.188   8.805  11.636
66923W        W32150  37.852  42.526   2.792
66924W        W32151  40.220  31.502  14.450
66925W        W32152  28.641  39.872  12.943
66926W        W32153  23.470   2.925   3.766
66927W        W32154  23.507  43.243   4.545
66928W        W32155  32.172  16.775   0.981
66929W        W32156  17.311  28.635   2.761
66930W        W32157   3.388  33.658   4.604
66931W        W32158  42.806  28.503   0.372
66932W        W32159  19.580   5.373   0.893
66933W        W32160  18.226  23.178  11.962
66934W        W32161   9.350  44.738  13.907
66935W        W32162  42.034  44.392  14.384
66936W        W32163   6.591  10.734  11.203
66937W        W32164  19.546  27.492   1.280
66938W        W32165  23.284   7.351  11.180
66939W        W32166  23.635  15.726  14.052
66940W        W32167  19.731  27.644   1.743
66941W        W32168  27.317   9.590   1.239
66942W        W32169  12.881   0.735   5.291
66943W        W32170  19.948  34.413   5.017
66944W        W32171   7.485  40.471  13.750
66945W        W32172  23.009  40.085  14.348
66946W        W32173   2.930  43.291   3.072
66947W        W32174  30.978  33.708  11.370
66948W        W32175  27.824   0.252  11.063
66949W        W32176  24.604  32.369  12.566
66950W        W32177  18.802   4.286   2.204
66951W        W32178   8.234  10.197   4.116
66952W        W32179   1.305  35.875  12.445
66953W        W32180  38.060  12.074  12.533
66954W        W32181   3.294  22.208  13.725
66955W        W32182  25.164  17.718   1.492
66956W        W32183  24.231  20.041   1.826
66957W        W32184  27.083  12.917   2.559
66958W        W32185  33.582  21.957  11.063
66959W        W32186  41.748  25.417   0.742
66960W        W32187  39.566  15.353   3.258
66961W        W32188   5.822  15.185  13.809
66962W        W32189   2.898  19.050  12.941
66963W        W32190  35.919  29.703   2.653
66964W        W32191  14.367  41.997   2.847
66965W        W32192   3.572  32.016   0.467
66966W        W32193   1.323  42.645  14.341
66967W        W32194   4.225  22.525  13.654
66968W        W32195  31.119  40.102  10.705
66969W        W32196  35.542   3.261  11.907
66970W        W32197  20.665   6.126   3.296
66971W        W32198  35.523   9.417   1.417
66972W        W32199  41.720   4.714   1.655
66973W        W32200  35.293   2.477   0.343
66974W        W32201  11.204  38.520  13.968
66975W        W32202   6.366  19.503   3.153
66976W        W32203  32.374  39.418   1.906
66977W        W32204   5.200  16.137  14.913
66978W        W32205  34.996  39.847   3.636
66979W        W32206  29.487  44.404   2.271
66980W        W32207   8.734   9.666   3.148
66981W        W32208  23.996  36.590  14.330
66982W        W32209  38.441  12.636  13.601
66983W        W32210  35.431   3.910  13.536
66984W        W32211  36.087  16.414  10.898
66985W        W32212  40.549  20.526  11.184
66986W        W32213  36.454  10.172  11.758
66987W        W32214  35.573  33.035  13.294
66988W        W32215  37.259  40.295  10.767
66989W        W32216   4.043  25.019  12.396
66990W        W32217  25.757  16.538   2.341
66991W        W32218  27.616  11.857  13.808
66992W        W32219   4.419   0.547  12.226
66993W        W32220  41.208  27.612  10.750
66994W        W32221  27.193   8.186   0.764
66995W        W32222   8.257  26.360  13.056
66996W        W32223   9.603   6.849  10.797
66997W        W32224  43.560   1.280  14.384
66998W        W32225  13.521  12.073   1.460
66999W        W32226   8.797  41.295  13.627
67000W        W32227  43.280  32.759   3.753
67001W        W32228  32.526   8.148   2.402
67002W        W32229  21.013  28.930  12.141
67003W        W32230   6.934  35.795  13.132
67004W        W32231  36.969  32.928   1.892
67005W        W32232  30.944  17.513   3.860
67006W        W32233  21.458  13.699   0.957
67007W        W32234   5.747  25.362  12.371
67008W        W32235   1.183  18.847  11.615
67009W        W32236  29.538   5.201   1.289
67010W        W32237  26.362  38.724  13.869
67011W        W32238  44.012  29.189   2.356
67012W        W32239  17.798  42.944   3.615
67013W        W32240   5.937  22.215   4.082
67014W        W32241  16.861  37.620  12.394
67015W        W32242  43.647  30.139   9.945
67016W        W32243   4.120  24.447  13.076
67017W        W32244  10.297  22.936  11.107
67018W        W32245  13.582  25.016   4.371
67019W        W32246  37.453   8.598   3.088
67020W        W32247  38.372  11.941   4.086
67021W        W32248  16.055  10.198  13.896
67022W        W32249  40.757  34.839  12.488
67023W        W32250  12.048  29.399   0.368
67024W        W32251  20.311  10.495  10.260
67025W        W32252  16.788   8.092   1.232
67026W        W32253  33.358   1.707  11.981
67027W        W32254  14.087  31.657   0.350
67028W        W32255  27.958   2.010   0.447
67029W        W32256  24.742  16.302  14.324
67030W        W32257  35.662  21.611   4.500
67031W        W32258   0.159  37.958  12.538
67032W        W32259  27.017  31.424  11.971
67033W        W32260  37.443  39.083   5.208
67034W        W32261  31.489  29.180   4.511
67035W        W32262  25.695  40.577  14.388
67036W        W32263  38.969  26.703   2.282
67037W        W32264  35.117   4.815   4.897
67038W        W32265  27.753  26.684  13.896
67039W        W32266   7.508  29.140   0.031
67040W        W32267  29.447  43.548   0.021
67041W        W32268  14.101  44.803  14.797
67042W        W32269  11.197  19.270   3.518
67043W        W32270  12.763  27.137  12.901
67044W        W32271  37.730  39.439  13.433
67045W        W32272  27.409  15.088   3.244
67046W        W32273   8.344  37.712  10.134
67047W        W32274  35.842  26.958   2.354
67048W        W32275  33.669  13.017   9.934
67049W        W32276  13.778   6.542  12.638
67050W        W32277  42.786  33.161  13.394
67051W        W32278   7.097  17.793   1.450
67052W        W32279  12.165  22.543   2.437
67053W        W32280  38.026   1.368   1.803
67054W        W32281  32.134  27.185   0.424
67055W        W32282  28.195  15.056  13.897
67056W        W32283   7.646  24.294  11.139
67057W        W32284  36.568  43.846   2.960
67058W        W32285  42.042  32.592  11.172
67059W        W32286  16.511  42.209   1.930
67060W        W32287  39.001  38.883  14.367
67061W        W32288  27.962   7.744   3.693
67062W        W32289  20.757   3.442  14.893
67063W        W32290   9.142  42.838  11.601
67064W        W32291  42.176  26.431   1.855
67065W        W32292  16.404   1.346  13.336
67066W        W32293   6.628  13.247   2.234
67067W        W32294   8.912   5.171  11.584
67068W        W32295  43.340  38.033   3.671
67069W        W32296  19.889  38.528   2.034
67070W        W32297  16.696  43.722  11.600
67071W        W32298  35.261   6.009  10.283
67072W        W32299   5.244  26.066   3.287
67073W        W32300  39.372  34.237  14.603
67074W        W32301   7.107  25.633   4.210
67075W        W32302  23.683  37.395  14.187
67076W        W32303   9.818  27.965   3.903
67077W        W32304  37.530  17.512  14.271
67078W        W32305  33.038  24.502  13.146
67079W        W32306  20.686  25.127   4.261
67080W        W32307  32.009   0.357  10.490
67081W        W32308   2.444   2.771  14.527
67082W        W32309   4.659  32.982   4.417
67083W        W32310   3.821   1.312   5.043
67084W        W32311  34.371  15.888  11.247
67085W        W32312  43.208  42.960   1.705
67086W        W32313  19.591  24.430  11.738
67087W        W32314  11.758   0.172  10.940
67088W        W32315   3.665  16.211   2.280
67089W        W32316  10.373  31.038   0.258
67090W        W32317  38.990  14.145  12.515
67091W        W32318   1.636  27.519   0.880
67092W        W32319  14.050  33.453  14.487
67093W        W32320   9.158   5.023   0.905
67094W        W32321   9.127  34.982   0.228
67095W        W32322  27.177  10.572   4.212
67096W        W32323  28.381   5.152  12.494
67097W        W32324  33.938   5.668   0.748
67098W        W32325  24.307   0.461   0.423
67099W        W32326  41.368  26.265  14.319
67100W        W32327   1.781  36.516   0.008
67101W        W32328  23.173  23.144   0.328
67102W        W32329   4.366  13.942  11.635
67103W        W32330   0.913  22.279  13.538
67104W        W32331  15.763  13.269  14.499
67105W        W32332  42.512  38.952   0.304
67106W        W32333  30.235  35.947  12.533
67107W        W32334  23.322  42.575  12.931
67108W        W32335   6.879  16.342  13.882
67109W        W32336  35.966  31.975  11.551
67110W        W32337   7.832   7.045  10.471
67111W        W32338  31.662  25.435   2.769
67112W        W32339  20.771   1.000  11.219
67113W        W32340  21.752   7.728   4.098
67114W        W32341  29.612  39.046   0.245
67115W        W32342  21.156  33.582  14.758
67116W        W32343  42.594   0.419  10.713
67117W        W32344  43.464  16.030   1.385
67118W        W32345  32.183  43.800   4.058
67119W        W32346  39.457  43.131   4.246
67120W        W32347  23.012   3.464  11.871
67121W        W32348  38.960  11.272  14.194
67122W        W32349  29.885  10.403   0.780
67123W        W32350  32.557  43.801   2.476
67124W        W32351  21.721  28.015  10.784
67125W        W32352   4.953  39.277   1.764
67126W        W32353  28.578  42.840  11.924
67127W        W32354  29.583  12.726   3.432
67128W        W32355  43.118  13.036  13.841
67129W        W32356  32.067   3.412   2.313
67130W        W32357  41.356   0.729   0.303
67131W        W32358  39.077   7.648   2.663
67132W        W32359  17.477  42.091  12.607
67133W        W32360   3.743  12.059   4.680
67134W        W32361  41.882  29.729   2.184
67135W        W32362  36.944  17.829   4.605
67136W        W32363  31.991  15.779   1.839
67137W        W32364  29.129  20.622   0.418
67138W        W32365  44.173   7.586  13.801
67139W        W32366  18.534   1.315  11.113
67140W        W32367  43.473   3.462   0.441
67141W        W32368  38.456  28.037  14.928
67142W        W32369   0.496  15.304   5.013
67143W        W32370   0.535  24.343  12.428
67144W        W32371  44.009   9.324   3.840
67145W        W32372   5.901  41.628  14.427
67146W        W32373   4.965  43.703   2.532
67147W        W32374  44.219   0.161   0.052
67148W        W32375   1.339  14.898  12.782
67149W        W32376  24.739  36.441   2.312
67150W        W32377  42.370   6.145  14.561
67151W        W32378  21.719  16.845  10.646
67152W        W32379  35.425   4.860  12.375
67153W        W32380  33.465   7.439  11.568
67154W        W32381  15.905  13.070   3.898
67155W        W32382  16.622  25.183   3.355
67156W        W32383  37.871   1.844   1.689
67157W        W32384  17.513   8.745   2.628
67158W        W32385  32.543  36.592  14.496
67159W        W32386  40.085  11.494  13.764
67160W        W32387  21.561  21.989  10.796
67161W        W32388  39.682  11.653   3.323
67162W        W32389  37.762  12.912  12.370
67163W        W32390  42.076  34.807  10.775
67164W        W32391  20.218  29.647  10.513
67165W        W32392  21.526  13.325   2.251
67166W        W32393   7.815  34.531   3.373
67167W        W32394  29.479   9.094   4.610
67168W        W32395   9.237  21.238  12.864
67169W        W32396  20.299  17.846  14.979
67170W        W32397   1.336  29.652  12.972
67171W        W32398  16.163  15.764  14.031
67172W        W32399   1.834  38.406  11.087
67173W        W32400  33.905   7.182  11.667
67174W        W32401  25.372  25.731   0.556
67175W        W32402  26.014  27.699   4.187
67176W        W32403  19.246  17.003   1.324
67177W        W32404  40.081   8.710   2.820
67178W        W32405  26.489  20.190  14.682
67179W        W32406   9.498  25.442   4.452
67180W        W32407  29.560  30.076  14.111
67181W        W32408  43.479   9.269  11.588
67182W        W32409  15.455  13.093   1.560
67183W        W32410   5.646  15.362   1.888
67184W        W32411  24.134  34.594   4.379
67185W        W32412  27.486  14.976  13.052
67186W        W32413  13.074  15.687  12.438
67187W        W32414  33.453  13.305   1.647
67188W        W32415  43.920   8.245   4.551
67189W        W32416  25.754   5.571   0.859
67190W        W32417   3.848   7.697   4.663
67191W        W32418  38.888  39.501   4.109
67192W        W32419  17.742  15.618   0.458
67193W        W32420  20.971  31.550   4.251
67194W        W32421  26.532  23.178  10.455
67195W        W32422   6.707   6.599   3.282
67196W        W32423   2.894  14.465   3.739
67197W        W32424  40.997  11.350   0.054
67198W        W32425  38.680  28.542   3.702
67199W        W32426  22.640  27.911  12.044
67200W        W32427   4.810  17.113  10.109
67201W        W32428  42.583  41.313   4.304
67202W        W32429  38.781  34.034  11.959
67203W        W32430   1.194  31.445   1.408
67204W        W32431  39.379  22.234  11.058
67205W        W32432  39.416  40.534  11.383
67206W        W32433  22.003  44.018  10.876
67207W        W32434  13.819  15.548  10.138
67208W        W32435  15.631  14.606   0.410
67209W        W32436  23.278  33.576   3.852
67210W        W32437   9.164  33.381  10.095
67211W        W32438   2.414  39.501  11.541
67212W        W32439  11.175  17.097  11.553
67213W        W32440  33.090  30.428   3.164
67214W        W32441   8.321  40.272   3.815
67215W        W32442  30.134   9.034  14.936
67216W        W32443  18.107  39.792   2.853
67217W        W32444  44.811  26.643   4.140
67218W        W32445   8.147   1.755   2.299
67219W        W32446  20.517   6.312  14.848
67220W        W32447  32.620  35.339  13.058
67221W        W32448  28.514  31.340   3.536
67222W        W32449  19.248  14.284  11.260
67223W        W32450  39.207  30.529  13.924
67224W        W32451   9.216  31.307  11.487
67225W        W32452  29.224  38.977   3.609
67226W        W32453  13.153  36.877   4.176
67227W        W32454  12.230  10.790  13.912
67228W        W32455  19.934  27.472   4.592
67229W        W32456  44.910   5.497  10.527
67230W        W32457  19.035   6.096  14.229
67231W        W32458   7.214   0.903  14.699
67232W        W32459  43.715  39.040   4.350
67233W        W32460   3.317   4.155   0.787
67234W        W32461   2.976  19.250   0.328
67235W        W32462  43.557  21.679   0.998
67236W        W32463   2.522   2.162   1.647
67237W        W32464  44.256   8.852   3.228
67238W        W32465  22.254  17.124   3.324
67239W        W32466  25.125  39.410   1.627
67240W        W32467  37.088  23.970  11.988
67241W        W32468  15.056  22.594   2.100
67242W        W32469  30.735  37.067   0.732
67243W        W32470  33.934  20.249   4.946
67244W        W32471   1.641   7.339   3.262
67245W        W32472  13.661  35.073  11.162
67246W        W32473  10.516  13.688   0.380
67247W        W32474  34.920  31.712  13.455
67248W        W32475  16.064  31.713  14.320
67249W        W32476   4.976   0.783   4.213
67250W        W32477  12.019  16.506   5.592
67251W        W32478  33.998  22.508  12.870
67252W        W32479  38.558  32.338  12.961
67253W        W32480   4.676   3.226   4.603
67254W        W32481   4.005   7.263   0.217
67255W        W32482  15.093  14.713   3.737
67256W        W32483  19.725  44.336  13.458
67257W        W32484  38.399  28.950   0.358
67258W        W32485  44.135  15.208  11.524
67259W        W32486  22.945  43.522   1.684
67260W        W32487  36.094  17.672  11.939
67261W        W32488  41.283  26.628   1.746
67262W        W32489  20.103  11.862  10.728
67263W        W32490  39.307  42.719   0.239
67264W        W32491  42.278  19.580  13.183
67265W        W32492  38.927  44.538   4.518
67266W        W32493  44.801  15.761   3.007
67267W        W32494  44.756  34.465  12.569
67268W        W32495  34.449  16.637  11.088
67269W        W32496  43.504  21.117   3.608
67270W        W32497  16.500  37.869  14.985
67271W        W32498   8.806   8.604  10.670
67272W        W32499  24.659  32.385   0.077
67273W        W32500  33.609  39.524   2.264
67274W        W32501  14.940   1.439  11.579
67275W        W32502  37.662  42.770   4.951
67276W        W32503  43.090   5.339   4.636
67277W        W32504  28.520  41.950  13.367
67278W        W32505  21.679   9.141   2.892
67279W        W32506  27.756   8.527  12.163
67280W        W32507  38.435  26.108  14.887
67281W        W32508  22.991  27.052  13.893
67282W        W32509  33.049  27.497  14.958
67283W        W32510   2.700  39.084   1.594
67284W        W32511   8.929   0.494   4.283
67285W        W32512  15.731   6.154  13.381
67286W        W32513  18.736  13.860   4.983
67287W        W32514   4.932  25.920   1.712
67288W        W32515  13.502  15.243  10.424
67289W        W32516  16.599  25.838  14.413
67290W        W32517  18.820  25.963   3.206
67291W        W32518  28.669  22.727   3.671
67292W        W32519  16.786  32.782  11.991
67293W        W32520  19.870  33.059  12.423
67294W        W32521  18.114  27.421  14.853
67295W        W32522  40.820  18.339  10.691
67296W        W32523   6.413  11.590  10.593
67297W        W32524  39.328  16.047  11.275
67298W        W32525  43.594  12.077  14.925
67299W        W32526  30.464  22.946  11.168
67300W        W32527   0.472  44.302   5.440
67301W        W32528  24.702  18.651  14.119
67302W        W32529  24.979  26.530  13.708
67303W        W32530  12.928   6.899   0.378
67304W        W32531  39.514  36.428   4.199
67305W        W32532   0.342  40.640  11.179
67306W        W32533  39.501   7.928   3.403
67307W        W32534  26.529   1.894   0.351
67308W        W32535  11.748   2.322   1.326
67309W        W32536  10.925   5.304  10.684
67310W        W32537  19.740  40.470  11.787
67311W        W32538  41.270  28.902   1.075
67312W        W32539  27.092   6.142   0.721
67313W        W32540  31.353   9.831   9.954
67314W        W32541  38.148  29.066  11.083
67315W        W32542   5.455  29.086   3.699
67316W        W32543   2.432  12.269  13.550
67317W        W32544  29.806  42.129  13.979
67318W        W32545  41.978  19.671  12.666
67319W        W32546  32.890  14.837  13.953
67320W        W32547   3.915   2.744   5.056
67321W        W32548  17.004  17.959  14.449
67322W        W32549  22.802   9.668  13.739
67323W        W32550  43.475  38.160   3.180
67324W        W32551  30.579   7.584  13.964
67325W        W32552  24.653   8.278   4.631
67326W        W32553  10.113  34.061   4.513
67327W        W32554  10.965  15.846   2.732
67328W        W32555  18.884  20.224  10.605
67329W        W32556  34.039  12.889  12.978
67330W        W32557  31.495  38.602  11.197
67331W        W32558  36.139  38.301   0.334
67332W        W32559  42.447  30.182  14.008
67333W        W32560  25.791   0.259  13.444
67334W        W32561  37.862  29.710   0.422
67335W        W32562  25.707  33.093   4.114
67336W        W32563  20.508  44.698   4.569
67337W        W32564  26.666  10.767  14.503
67338W        W32565  35.919  28.579   0.155
67339W        W32566  11.734  37.991   4.390
67340W        W32567   3.939   7.821   1.598
67341W        W32568  13.382  24.217  10.636
67342W        W32569   4.494  24.205   4.079
67343W        W32570  42.600  26.072  14.233
67344W        W32571  24.547  26.206  12.722
67345W        W32572  44.595   4.060  11.110
67346W        W32573  16.002  42.167  13.476
67347W        W32574  29.208  44.529  13.889
67348W        W32575  32.650  29.380   1.668
67349W        W32576  41.149  29.697  11.604
67350W        W32577  40.156   4.016   1.436
67351W        W32578  30.658  31.415  12.403
67352W        W32579  21.265   1.678   1.204
67353W        W32580   6.229  16.604   0.803
67354W        W32581   1.971  40.112   3.092
67355W        W32582  13.761  36.819   4.711
67356W        W32583  11.913  30.632  14.806
67357W        W32584  29.637  19.495   4.626
67358W        W32585  30.988  38.826   0.387
67359W        W32586  17.726  10.435   0.279
67360W        W32587  42.381  17.277  13.464
67361W        W32588   5.731  24.655   3.475
67362W        W32589  22.933  38.319  14.984
67363W        W32590  43.123  26.191  12.736
67364W        W32591  20.774  17.771  10.689
67365W        W32592  33.957  38.466   1.652
67366W        W32593  14.037  43.197  11.677
67367W        W32594  44.850  27.578  12.962
67368W        W32595  29.939   5.015  10.354
67369W        W32596  19.192   3.975   2.796
67370W        W32597  15.346  26.450   1.397
67371W        W32598  14.662  28.935   1.301
67372W        W32599  24.080  14.726   3.581
67373W        W32600  39.943  44.717   4.543
67374W        W32601  22.609  20.190  12.964
67375W        W32602   0.727  30.444  12.708
67376W        W32603  41.141  29.159  13.424
67377W        W32604   9.794   1.710   0.761
67378W        W32605  20.903  30.158   3.837
67379W        W32606  22.879  26.113   1.387
67380W        W32607   8.770  15.778  11.681
67381W        W32608   1.460  42.281  11.548
67382W        W32609  19.108  36.919  14.292
67383W        W32610   2.828  26.580  13.797
67384W        W32611   4.326  16.012   3.649
67385W        W32612   9.416  27.107  11.002
67386W        W32613  19.049  42.972  12.846
67387W        W32614  37.973   0.280   4.649
67388W        W32615   6.297   0.007   4.603
67389W        W32616  27.042  36.752  10.888
67390W        W32617  27.431  23.138  11.560
67391W        W32618   6.455  20.993  11.189
67392W        W32619  39.996   2.157  13.882
67393W        W32620  17.477  15.325   5.074
67394W        W32621  23.489  16.213  13.879
67395W        W32622  25.315   8.785   4.116
67396W        W32623   2.256   5.287  12.553
67397W        W32624  28.435   2.745   2.256
67398W        W32625  28.214  19.010  13.174
67399W        W32626  21.397  44.214   2.787
67400W        W32627  22.565  21.513  11.164
67401W        W32628  26.458   1.827   3.251
67402W        W32629  34.870  21.958  12.620
67403W        W32630  37.042  28.293  12.523
67404W        W32631  26.184  10.731  12.499
67405W        W32632  17.863   8.469  13.384
67406W        W32633  33.783   5.873  12.150
67407W        W32634  34.619  42.210   3.817
67408W        W32635  23.227  38.308  11.640
67409W        W32636   6.713  44.054  14.312
67410W        W32637  32.106  14.152  13.788
67411W        W32638  13.796  35.102   4.130
67412W        W32639   0.978  38.406  11.294
67413W        W32640  35.922  24.726   4.157
67414W        W32641  38.332   4.942   2.459
67415W        W32642  23.082  30.301   4.319
67416W        W32643  33.644  23.609   4.337
67417W        W32644  31.608  38.342  14.456
67418W        W32645  38.926  26.977  11.473
67419W        W32646  38.932  41.736  14.311
67420W        W32647  33.882  15.133   0.455
67421W        W32648  20.005  30.518  10.308
67422W        W32649  37.146  33.070   2.788
67423W        W32650  19.228  15.389  14.454
67424W        W32651  20.551   5.163  13.422
67425W        W32652  28.998  10.458  11.066
67426W        W32653  39.576  25.547  12.258
67427W        W32654  30.486  37.643  13.944
67428W        W32655  16.365  27.058  14.754
67429W        W32656   1.058  14.038  12.491
67430W        W32657  18.299  32.528  10.672
67431W        W32658  37.330  17.794  13.333
67432W        W32659  13.292  35.761   0.869
67433W        W32660  20.081   9.724   2.311
67434W        W32661   0.777  32.600   1.823
67435W        W32662   3.793  20.512   3.136
67436W        W32663  16.049  38.069  10.422
67437W        W32664   4.955  33.118  11.512
67438W        W32665   1.460  11.089   3.756
67439W        W32666  10.627  37.357   0.379
67440W        W32667  18.001   4.914   4.644
67441W        W32668  22.764  20.248   1.732
67442W        W32669  11.851  14.201  11.914
67443W        W32670  40.398  14.532  13.568
67444W        W32671  29.073  17.164  14.453
67445W        W32672  25.170  23.012  12.110
67446W        W32673   0.377  29.265  14.222
67447W        W32674  38.049  39.589   4.809
67448W        W32675  18.548  40.043   1.426
67449W        W32676   3.886  34.833  14.898
67450W        W32677  17.367  30.126  12.536
67451W        W32678   3.331  33.599  13.517
67452W        W32679  18.428  36.124   3.762
67453W        W32680  29.744   0.403  13.838
67454W        W32681  15.871  17.231  11.053
67455W        W32682  44.392  25.608  14.810
67456W        W32683  17.138  32.731  13.209
67457W        W32684  13.162  13.524   3.722
67458W        W32685  26.938   2.352  12.427
67459W        W32686   5.191  27.905  12.976
67460W        W32687  12.407  24.266   0.543
67461W        W32688   8.335  33.813   3.294
67462W        W32689  11.773  25.436  13.777
67463W        W32690  24.305   9.848  14.706
67464W        W32691  31.522  12.745   0.983
67465W        W32692  17.515   1.677  13.516
67466W        W32693  26.173  35.746   1.681
67467W        W32694   4.245   4.981  10.518
67468W        W32695  15.773  16.144   2.868
67469W        W32696   7.596  18.429   3.254
67470W        W32697  14.539   4.760   2.306
67471W        W32698  23.528  39.918   0.870
67472W        W32699   7.909  39.175   4.437
67473W        W32700  30.187   0.784  12.547
67474W        W32701   2.692  42.995   2.706
67475W        W32702  22.014  22.606  11.969
67476W        W32703  18.602  22.426   4.137
67477W        W32704  33.508  14.567   3.267
67478W        W32705  40.365  26.026   0.347
67479W        W32706  41.415   0.417  10.711
67480W        W32707   0.749  17.618  12.031
67481W        W32708  18.441  43.834   0.193
67482W        W32709  34.348  36.718  14.984
67483W        W32710  42.282   1.174   0.312
67484W        W32711  17.013   1.117   1.292
67485W        W32712  24.617   5.316   1.906
67486W        W32713   1.937  27.885  12.572
67487W        W32714  40.019  10.297   4.887
67488W        W32715   3.201   3.631   0.835
67489W        W32716  19.882   2.984  11.599
67490W        W32717  29.200   7.393   1.229
67491W        W32718  29.343   6.308   0.005
67492W        W32719  16.747  20.467   2.196
67493W        W32720  22.307   5.823  13.393
67494W        W32721  31.515  39.478   1.439
67495W        W32722  43.388  15.207  14.958
67496W        W32723   7.187  24.950  14.798
67497W        W32724  13.689   5.318  13.413
67498W        W32725   2.267   6.249   0.222
67499W        W32726  13.836   5.778   0.115
67500W        W32727  36.850  16.704  13.698
67501W        W32728  36.555  28.771   0.895
67502W        W32729   4.028  11.834   0.715
67503W        W32730  16.965   1.387   0.832
67504W        W32731  35.335  14.775  10.914
67505W        W32732  16.750  12.868   0.395
67506W        W32733  22.070  20.615   1.895
67507W        W32734  20.311  13.419   3.624
67508W        W32735  27.141   0.701   3.167
67509W        W32736   7.695   3.080  10.798
67510W        W32737  21.525  37.917  12.529
67511W        W32738  18.164  28.454   4.785
67512W        W32739  22.912   4.851  11.197
67513W        W32740   8.191  32.828   3.589
67514W        W32741  43.980  39.335   0.842
67515W        W32742  15.342  43.455   3.175
67516W        W32743  38.974   7.441  13.082
67517W        W32744  42.295  42.975  12.430
67518W        W32745  44.264   1.390   0.726
67519W        W32746  33.864  40.893   2.770
67520W        W32747   8.359  21.253  13.468
67521W        W32748  28.152  41.523  12.083
67522W        W32749  44.785  29.593  12.030
67523W        W32750  14.870   9.830   2.304
67524W        W32751  38.089   3.535   3.783
67525W        W32752  18.811  19.517   0.785
67526W        W32753  11.208  34.433  10.977
67527W        W32754  33.908   7.729  11.562
67528W        W32755  42.873  21.974   1.788
67529W        W32756   8.695  19.998  13.146
67530W        W32757   1.893   9.684   1.391
67531W        W32758   3.171  24.092   2.747
67532W        W32759  36.967  30.657  11.107
67533W        W32760  27.203  18.256  11.725
67534W        W32761  13.231  10.174  13.973
67535W        W32762  29.870  41.517   2.247
67536W        W32763  26.003   6.964   2.710
67537W        W32764  16.728  43.717  11.063
67538W        W32765  22.676  39.975  12.142
67539W        W32766  21.075  43.268  11.707
67540W        W32767   2.032  34.397   0.436
67541W        W32768  35.538  37.492   2.683
67542W        W32769  37.388  31.438  12.398
67543W        W32770   0.777  26.581  13.883
67544W        W32771  36.596  40.345   2.875
67545W        W32772  12.819  20.657   0.856
67546W        W32773  43.087  43.779  12.459
67547W        W32774  39.350  12.921  12.027
67548W        W32775   7.054   0.243   2.801
67549W        W32776  19.245   7.633   1.501
67550W        W32777  16.745  41.056   0.752
67551W        W32778  32.900   3.354  13.978
67552W        W32779  15.812  11.268  13.326
67553W        W32780  32.577   1.355   2.602
67554W        W32781   0.558  31.407  14.560
67555W        W32782  14.775  19.663   0.692
67556W        W32783  43.417  42.204   3.914
67557W        W32784  18.723  32.961   0.586
67558W        W32785  17.270  25.037  11.646
67559W        W32786  28.628  34.048  10.701
67560W        W32787  24.028  44.528  13.930
67561W        W32788   8.793   7.622   3.827
67562W        W32789  43.329  12.025   4.173
67563W        W32790  13.231   5.102  13.487
67564W        W32791  41.624   6.738   2.659
67565W        W32792  33.229  12.901   5.340
67566W        W32793   6.679  22.651  12.750
67567W        W32794   8.275  35.072   1.416
67568W        W32795   2.189   0.004  14.790
67569W        W32796  40.279   6.632  14.961
67570W        W32797  16.599  22.886  13.576
67571W        W32798  11.198  17.705   1.810
67572W        W32799  43.656  27.036   3.996
67573W        W32800   2.024   0.005  11.561
67574W        W32801  20.959   6.466   4.594
67575W        W32802  14.784  29.628   4.585
67576W        W32803  14.844  21.715   1.738
67577W        W32804  38.327   8.175   1.662
67578W        W32805  30.134   5.911   0.962
67579W        W32806  26.175  14.765  10.630
67580W        W32807  20.185   0.920   1.827
67581W        W32808  16.845  20.982  14.754
67582W        W32809   3.261  30.847   5.089
67583W        W32810  36.536  44.423  14.354
67584W        W32811  31.193  17.854  13.868
67585W        W32812  32.433  26.982   0.893
67586W        W32813  31.100  37.632  13.607
67587W        W32814   8.014  31.523   2.057
67588W        W32815  16.740  11.933  10.284
67589W        W32816  18.568   3.337  12.393
67590W        W32817  13.455  29.172  12.132
67591W        W32818   2.320  29.526   1.224
67592W        W32819  25.444  10.567   3.765
67593W        W32820  24.945  42.366   3.421
67594W        W32821  27.560  15.740  10.162
67595W        W32822  17.703   5.857  11.800
67596W        W32823  44.390  34.301  11.744
67597W        W32824   9.548  40.803   3.129
67598W        W32825   8.455   0.656  11.558
67599W        W32826  11.771  27.471  13.433
67600W        W32827   5.329   5.222  14.530
67601W        W32828  32.967  43.834   1.297
67602W        W32829   3.455   1.700   2.159
67603W        W32830  39.358   6.971  10.819
67604W        W32831  33.017  28.652  11.587
67605W        W32832  16.668   5.610  11.037
67606W        W32833  11.708  23.634   2.528
67607W        W32834   4.831  37.058  14.489
67608W        W32835  24.035  44.087  14.212
67609W        W32836  35.836   4.307   4.393
67610W        W32837  19.134  42.033   1.933
67611W        W32838  20.587  22.479  14.375
67612W        W32839  28.900  26.172   0.500
67613W        W32840  24.541  43.697   9.961
67614W        W32841  28.351  39.370  12.593
67615W        W32842   7.895  10.449  12.777
67616W        W32843   9.325  18.608   4.402
67617W        W32844  28.309  34.698   0.354
67618W        W32845   3.795   1.032   4.163
67619W        W32846   5.744   3.371  11.603
67620W        W32847  21.101  20.848   3.084
67621W        W32848  34.350  27.706   2.709
67622W        W32849   4.112  31.662  11.207
67623W        W32850   6.298  10.258   4.559
67624W        W32851  30.489   6.508   2.193
67625W        W32852  30.606  28.373   0.850
67626W        W32853  28.744  32.598  11.383
67627W        W32854  24.532  32.854  14.918
67628W        W32855  38.871   1.925   3.154
67629W        W32856   9.410  37.499   4.242
67630W        W32857  29.906  40.522   5.104
67631W        W32858  41.013  15.244  12.050
67632W        W32859  35.765  44.889   2.869
67633W        W32860  11.209   3.706   2.233
67634W        W32861  41.464  29.234   3.027
67635W        W32862   0.308  17.228  14.359
67636W        W32863   9.634   4.306  13.894
67637W        W32864  23.110  19.852   1.648
67638W        W32865   4.838   6.272  10.815
67639W        W32866  12.813  34.166   1.353
67640W        W32867  40.410  26.218  10.963
67641W        W32868  37.593   9.392  13.831
67642W        W32869  35.113  41.413   4.746
67643W        W32870   8.939  24.136  13.118
67644W        W32871  42.459  24.764  14.858
67645W        W32872   6.440   0.570   2.320
67646W        W32873  43.081  10.609   2.744
67647W        W32874  15.768  39.650   4.868
67648W        W32875  29.726  44.649  13.528
67649W        W32876  13.528  26.070  11.714
67650W        W32877  11.640  38.764  11.089
67651W        W32878  17.204   8.700  13.383
67652W        W32879  20.041   5.741   0.457
67653W        W32880   5.811  10.284   1.019
67654W        W32881   4.869  32.698  12.773
67655W        W32882  23.288  25.536   2.313
67656W        W32883   1.938  15.692   4.463
67657W        W32884  36.005  22.496  14.891
67658W        W32885  42.314  43.953   1.476
67659W        W32886  34.587  38.304   1.216
67660W        W32887   7.134   1.381  10.614
67661W        W32888  30.919  44.456   3.655
67662W        W32889  22.513  18.019  11.324
67663W        W32890   3.377   4.500   3.238
67664W        W32891  14.550  24.561   3.264
67665W        W32892  30.068  20.261   1.410
67666W        W32893  27.583  28.142  11.043
67667W        W32894   6.707  28.923  14.800
67668W        W32895   3.694  10.287   4.191
67669W        W32896   9.201  18.301  10.273
67670W        W32897  23.522  38.837  11.496
67671W        W32898  25.487  18.205  12.404
67672W        W32899  10.999  15.215   2.099
67673W        W32900  39.079  17.599  12.349
67674W        W32901  29.647  18.186  13.900
67675W        W32902  23.228  28.671   3.115
67676W        W32903   0.843  13.623  13.053
67677W        W32904  26.549  31.887  12.387
67678W        W32905  34.595  42.303   0.006
67679W        W32906  26.051  20.360  14.923
67680W        W32907   1.052   0.462  10.638
67681W        W32908  33.339   3.010   4.057
67682W        W32909  37.270  10.331  14.046
67683W        W32910  32.478   0.932  11.100
67684W        W32911  18.398  10.916   2.091
67685W        W32912  29.843  24.042  13.922
67686W        W32913  19.658  15.776   1.024
67687W        W32914  43.290  31.886  13.552
67688W        W32915   7.470  41.927   4.214
67689W        W32916  16.568   2.694  11.239
67690W        W32917  37.956   8.878   1.948
67691W        W32918  30.302  33.571  14.222
67692W        W32919  42.259  15.235  10.703
67693W        W32920  39.349  34.878  13.353
67694W        W32921  32.945  25.184  12.407
67695W        W32922  41.831  32.988  11.407
67696W        W32923  40.476  36.790  11.168
67697W        W32924   5.016  16.519   5.056
67698W        W32925  35.749  44.993  11.093
67699W        W32926  32.545   5.573  13.818
67700W        W32927  28.406  23.779  13.340
67701W        W32928  37.473  23.573   4.091
67702W        W32929  30.733  20.178   3.115
67703W        W32930  30.162  27.377   1.225
67704W        W32931  35.584   3.261  14.816
67705W        W32932  40.809  14.884  10.712
67706W        W32933  39.237  14.157  11.257
67707W        W32934   8.755  41.381  11.852
67708W        W32935  22.153  16.729  14.455
67709W        W32936  13.343   4.987   1.765
67710W        W32937  19.207  38.453  12.461
67711W        W32938   8.241  18.282   0.793
67712W        W32939  33.892   7.187   4.618
67713W        W32940  26.347   6.153   2.721
67714W        W32941  39.457  25.533   3.349
67715W        W32942  13.622  22.441  12.868
67716W        W32943  16.732   5.478  11.541
67717W        W32944  24.568  16.177   3.275
67718W        W32945  19.460  23.961  11.621
67719W        W32946  24.940  38.165   1.401
67720W        W32947  36.763   8.189  14.340
67721W        W32948  28.899  12.168   0.340
67722W        W32949  17.067  23.621   0.123
67723W        W32950  12.612  41.272   2.969
67724W        W32951  14.420   1.543  11.555
67725W        W32952  39.536  43.908   0.881
67726W        W32953  29.552  26.548   3.385
67727W        W32954   2.809  33.127   4.231
67728W        W32955   7.585   2.694   1.791
67729W        W32956  29.543  29.060  14.553
67730W        W32957   7.315  19.508   4.117
67731W        W32958   1.983  30.997   1.239
67732W        W32959  11.076  39.465  14.376
67733W        W32960  12.258  22.452  14.436
67734W        W32961  34.849  30.364  14.255
67735W        W32962   6.256  11.008   1.902
67736W        W32963  36.928  32.060  12.634
67737W        W32964  13.428   2.307   0.462
67738W        W32965  33.233  32.950  12.048
67739W        W32966  41.938  36.916  13.975
67740W        W32967  30.052  15.834  14.332
67741W        W32968  44.718  28.613   4.236
67742W        W32969  41.316   2.838   3.030
67743W        W32970  19.659  32.159  12.990
67744W        W32971  20.231  33.834   3.684
67745W        W32972  32.614  20.887   3.294
67746W        W32973  36.870   5.918   3.427
67747W        W32974  17.751  32.444   0.965
67748W        W32975   5.165  34.238  13.013
67749W        W32976  26.157  41.275  14.364
67750W        W32977  22.589  12.777  11.663
67751W        W32978  41.292  10.192  10.709
67752W        W32979  37.810  31.416   4.154
67753W        W32980   3.325  41.922  10.933
67754W        W32981  11.254  11.121   3.631
67755W        W32982  38.645  31.145   0.314
67756W        W32983   2.870  37.970  10.702
67757W        W32984  24.009  34.456  14.486
67758W        W32985  29.021  13.795   2.818
67759W        W32986  25.404  31.052  12.538
67760W        W32987  34.409  40.071   0.571
67761W        W32988  12.243  27.700  13.472
67762W        W32989  30.677  33.863   3.715
67763W        W32990  38.539  39.343   1.843
67764W        W32991  14.570   9.877   0.997
67765W        W32992  41.142  30.158   1.422
67766W        W32993   6.660  18.258  13.824
67767W        W32994   2.883   8.697  10.819
67768W        W32995   7.734   8.246  13.672
67769W        W32996  16.681  21.025  13.913
67770W        W32997  20.673   4.291   3.994
67771W        W32998  20.047  12.356   0.884
67772W        W32999   7.722  27.278  10.836
67773W        W33000   9.878  13.309   1.940
67774W        W33001   1.878  10.980  12.848
67775W        W33002  18.993   8.698   2.852
67776W        W33003  38.875  28.938  10.070
67777W        W33004  14.486  10.697  13.421
67778W        W33005  41.020  24.685  13.431
67779W        W33006  37.387  21.803  12.600
67780W        W33007  39.817  20.127   3.258
67781W        W33008  10.035  16.719   1.696
67782W        W33009   2.485  16.049  14.901
67783W        W33010  28.445  11.642   1.686
67784W        W33011   8.145  30.125   3.945
67785W        W33012  33.998   2.255   4.839
67786W        W33013   5.679  43.318  13.165
67787W        W33014   7.583  36.634   4.999
67788W        W33015  20.546  40.854  12.421
67789W        W33016  31.952  25.792  10.031
67790W        W33017  16.416   6.457   4.104
67791W        W33018   9.513  27.184   4.296
67792W        W33019  24.792  19.510   1.132
67793W        W33020  42.118   7.532  14.844
67794W        W33021  10.624  14.540   3.805
67795W        W33022   6.765  24.495  12.577
67796W        W33023   7.460  41.692  11.092
67797W        W33024  40.579  24.824   3.542
67798W        W33025  21.682  26.626   4.597
67799W        W33026  22.156  19.775  11.114
67800W        W33027  42.778  39.312  11.526
67801W        W33028  11.448  12.115  14.251
67802W        W33029   1.256  20.571   1.304
67803W        W33030  28.107  11.917  10.713
67804W        W33031  35.881  29.056   1.316
67805W        W33032  35.869  38.036   1.670
67806W        W33033   9.705  22.115  10.763
67807W        W33034  41.465  15.719   2.213
67808W        W33035  33.181  40.340   2.348
67809W        W33036  26.512   0.844   3.580
67810W        W33037  22.163  24.456  10.941
67811W        W33038   1.180  37.855  13.433
67812W        W33039  32.117  33.896  12.926
67813W        W33040  22.603  21.076  11.437
67814W        W33041  18.118  17.293   4.162
67815W        W33042  40.465  39.863   2.841
67816W        W33043   5.907   3.149   1.744
67817W        W33044  33.495  18.747  14.275
67818W        W33045  19.259  39.900   0.226
67819W        W33046   3.414   0.943   3.820
67820W        W33047  25.479  30.569   1.653
67821W        W33048   0.071  39.939   1.142
67822W        W33049  22.638   5.906  12.090
67823W        W33050  13.686  11.827  14.716
67824W        W33051   8.245  32.133   0.663
67825W        W33052  19.892  33.636  13.884
67826W        W33053  11.562   1.808  10.877
67827W        W33054  16.338  26.788   3.860
67828W        W33055  34.465  35.997  14.373
67829W        W33056  20.975   7.570  12.466
67830W        W33057   6.323  26.249   4.604
67831W        W33058  14.938  12.420  12.238
67832W        W33059   7.172  35.420  12.054
67833W        W33060   3.916  40.341   2.688
67834W        W33061  42.016  38.852   1.828
67835W        W33062  38.141  12.261   1.463
67836W        W33063  15.626   1.006   3.220
67837W        W33064  19.059  31.077  13.067
67838W        W33065  36.651  11.118   0.385
67839W        W33066  30.181  21.101   4.472
67840W        W33067   4.687  27.947  12.879
67841W        W33068  22.487  12.317   4.265
67842W        W33069  19.207  39.574  13.080
67843W        W33070  15.932  21.298   3.516
67844W        W33071  13.226  12.799   3.392
67845W        W33072  31.143  22.287   3.626
67846W        W33073  12.662  36.036  10.489
67847W        W33074  31.213  35.899  13.675
67848W        W33075  40.019  11.065   1.854
67849W        W33076  39.255   3.331  12.841
67850W        W33077   0.572  19.569  12.902
67851W        W33078   7.417   7.929  12.509
67852W        W33079  13.720   2.945  13.612
67853W        W33080  40.916  33.902   2.349
67854W        W33081   8.902  29.608   4.170
67855W        W33082  31.276  13.052  10.841
67856W        W33083  44.960  11.332   2.858
67857W        W33084   0.955  26.028  13.336
67858W        W33085   7.122  29.896   3.799
67859W        W33086  14.192  17.591   2.409
67860W        W33087  10.184  30.893   2.383
67861W        W33088  29.021  27.557  14.385
67862W        W33089  10.406  35.083  13.937
67863W        W33090  19.586  23.641   4.117
67864W        W33091   4.519  42.187   4.030
67865W        W33092  13.119   9.821   3.656
67866W        W33093  34.144  16.611  13.053
67867W        W33094  38.571  23.631   4.169
67868W        W33095  30.618  22.830   2.775
67869W        W33096   2.493  40.801   1.235
67870W        W33097  41.465  29.092   4.583
67871W        W33098   8.361  22.985   0.007
67872W        W33099   4.431  26.676   2.153
67873W        W33100  29.185  42.949   2.331
67874W        W33101  16.325  18.097  10.667
67875W        W33102  22.520  26.109   3.147
67876W        W33103   2.305   1.877   3.799
67877W        W33104   0.713  17.596   1.758
67878W        W33105  16.307   3.470  12.200
67879W        W33106  12.802  24.420   2.359
67880W        W33107  38.773  32.936  11.502
67881W        W33108  10.744   3.368   3.209
67882W        W33109  28.381   6.292  13.626
67883W        W33110   8.667  23.165   4.531
67884W        W33111   9.377  27.937   1.851
67885W        W33112  34.866  14.283  13.547
67886W        W33113  30.428  13.390  12.142
67887W        W33114  39.766   6.799  14.799
67888W        W33115  22.041   3.996  13.357
67889W        W33116   5.930  10.277   4.166
67890W        W33117  15.654  44.795   2.798
67891W        W33118  14.180   5.165  13.570
67892W        W33119  44.701  36.551  14.384
67893W        W33120  37.551  37.866  13.539
67894W        W33121  22.222  44.820   1.497
67895W        W33122   1.841  18.256  12.078
67896W        W33123  38.475   6.953  14.782
67897W        W33124   2.930  17.289   2.785
67898W        W33125  43.275  41.997   0.420
67899W        W33126   4.176  44.927   3.714
67900W        W33127   1.731   0.968   2.655
67901W        W33128  15.379  32.573   1.379
67902W        W33129  22.992   2.050   0.809
67903W        W33130   9.374  25.292   2.267
67904W        W33131  16.337  33.540  10.836
67905W        W33132  26.189   3.357  11.988
67906W        W33133  18.644   8.478   0.850
67907W        W33134  32.518   7.331   3.670
67908W        W33135  34.395  21.225   4.522
67909W        W33136   5.420  24.911  11.155
67910W        W33137  24.688  42.143   9.325
67911W        W33138  37.584   2.736  14.018
67912W        W33139  19.453  11.837  14.231
67913W        W33140   6.255   3.843  14.118
67914W        W33141  17.660  16.050   1.725
67915W        W33142   6.164  13.000   2.916
67916W        W33143  12.733  38.645   0.732
67917W        W33144  30.208   6.741   3.060
67918W        W33145   8.220   2.731   3.292
67919W        W33146  39.365  16.565  11.271
67920W        W33147  31.952  19.240  13.096
67921W        W33148  20.136  16.529  14.335
67922W        W33149  10.646  14.547  10.287
67923W        W33150  23.116  32.409  10.886
67924W        W33151  34.112  21.227   4.090
67925W        W33152  22.275  34.955  11.873
67926W        W33153   8.895   6.334   0.016
67927W        W33154  37.118  18.353  14.310
67928W        W33155  16.474  31.540   2.883
67929W        W33156  17.251  36.667   1.752
67930W        W33157  21.491   3.276   0.318
67931W        W33158  44.327  26.442  12.073
67932W        W33159  38.381   4.174   1.304
67933W        W33160  31.484  39.751  10.661
67934W        W33161  38.420  35.471   1.319
67935W        W33162  16.821  41.866  11.989
67936W        W33163  22.718  27.515  13.824
67937W        W33164  37.494  23.490   1.746
67938W        W33165  36.997   9.191   1.303
67939W        W33166  18.036   3.339   4.079
67940W        W33167  42.382  25.465  11.092
67941W        W33168  29.903  38.483  11.167
67942W        W33169  39.364  33.613   4.158
67943W        W33170   6.350   3.246  10.329
67944W        W33171  10.060  18.819   4.934
67945W        W33172  40.498   1.760  13.006
67946W        W33173  26.673  25.465  12.454
67947W        W33174  18.554  17.604  11.142
67948W        W33175  21.981  18.583  14.402
67949W        W33176   0.836   4.476   0.413
67950W        W33177  27.571  25.843   0.928
67951W        W33178   5.862   2.213   4.574
67952W        W33179   2.487  24.020   1.359
67953W        W33180  17.096  32.871   0.225
67954W        W33181  23.743   1.721   2.968
67955W        W33182   7.986  24.938   2.032
67956W        W33183  11.201  35.640  13.615
67957W        W33184  16.822  38.953  13.081
67958W        W33185  10.147  28.361   4.211
67959W        W33186   8.336   0.158  11.661
67960W        W33187  14.098  29.957   1.976
67961W        W33188   3.589  17.531  14.965
67962W        W33189  35.421  39.518  10.572
67963W        W33190  43.498   9.577   4.876
67964W        W33191   4.293  38.656   2.385
67965W        W33192  18.069  14.911  11.092
67966W        W33193  11.436   1.332  11.091
67967W        W33194  19.814   8.676  14.313
67968W        W33195  27.989  34.528   1.243
67969W        W33196  15.855  17.699  11.256
67970W        W33197  20.066  18.767   3.163
67971W        W33198   5.512  31.048  14.044
67972W        W33199   9.814  22.495   0.107
67973W        W33200   7.542  39.562  11.164
67974W        W33201  13.460  24.728  10.445
67975W        W33202  42.448  44.934   0.895
67976W        W33203   9.238  11.233  10.761
67977W        W33204  13.762  40.542  11.626
67978W        W33205  43.912  16.941   3.161
67979W        W33206   1.163  14.089  11.665
67980W        W33207  28.251  34.395  10.632
67981W        W33208  28.953  26.981   2.226
67982W        W33209  35.675  31.018   4.525
67983W        W33210  14.498  33.170   5.437
67984W        W33211  16.072  22.927  14.614
67985W        W33212   1.560  23.701  11.466
67986W        W33213  24.176   4.018   3.011
67987W        W33214  34.079  12.677  10.693
67988W        W33215   5.926   1.576  13.131
67989W        W33216  35.873  43.004   3.749
67990W        W33217  34.781  17.790   3.120
67991W        W33218  22.511  23.647   4.110
67992W        W33219  27.509  15.095  14.808
67993W        W33220  44.747   0.980  12.987
67994W        W33221  42.801  40.949  13.543
67995W        W33222   6.675  16.115   0.011
67996W        W33223  29.824  32.117   0.193
67997W        W33224  20.000   1.493   3.342
67998W        W33225  24.954  13.289   4.062
67999W        W33226  13.290  17.015  13.488
68000W        W33227  36.346  24.445   2.883
68001W        W33228  29.855  38.659   2.238
68002W        W33229  43.707  16.091  13.456
68003W        W33230  25.261  38.223  11.134
68004W        W33231  25.003  32.378  10.788
68005W        W33232   9.889  36.121   3.665
68006W        W33233   9.409  43.916   2.129
68007W        W33234  31.872  41.628  10.658
68008W        W33235   5.929  15.107  12.879
68009W        W33236  10.914  44.457   0.059
68010W        W33237  33.454  38.378  14.376
68011W        W33238  29.222  19.854  11.990
68012W        W33239  44.071  33.049   1.922
68013W        W33240  28.611  24.130   3.402
68014W        W33241   4.253   8.430  12.774
68015W        W33242  14.759  23.864   0.450
68016W        W33243  28.680  38.984  12.808
68017W        W33244  44.392  29.257  14.915
68018W        W33245  11.249  39.537  13.023
68019W        W33246   9.931  40.457   3.098
68020W        W33247  15.837   5.192   4.063
68021W        W33248  16.534  36.058  11.593
68022W        W33249   2.186  31.469  13.083
68023W        W33250  19.245  31.769  14.916
68024W        W33251  41.116  17.689   1.184
68025W        W33252   3.283   7.621  10.630
68026W        W33253  10.985  38.553  13.503
68027W        W33254  32.074  38.967  13.085
68028W        W33255  24.572  34.025   4.822
68029W        W33256  38.136  20.030  12.392
68030W        W33257   7.750  13.209  12.192
68031W        W33258  21.032  38.859  10.918
68032W        W33259   6.982   9.108   1.168
68033W        W33260  21.733   5.009   3.797
68034W        W33261  30.164   5.908   4.530
68035W        W33262   4.237  14.526   0.981
68036W        W33263  37.677  25.623   3.157
68037W        W33264  39.054  44.498  12.023
68038W        W33265  28.370  37.491  14.375
68039W        W33266  17.961  24.970  13.382
68040W        W33267  17.178  21.882  10.817
68041W        W33268  10.523  18.329  13.743
68042W        W33269   4.048  40.856  14.442
68043W        W33270  10.015  24.338  11.104
68044W        W33271   2.838  41.275  12.397
68045W        W33272  20.240  36.557   1.193
68046W        W33273  10.561   0.120   1.238
68047W        W33274   9.559  35.769  11.988
68048W        W33275   1.337  34.074  11.943
68049W        W33276  27.959  11.830   2.641
68050W        W33277  19.043  42.664  11.502
68051W        W33278   2.651  32.468   3.041
68052W        W33279  43.437  22.033  11.899
68053W        W33280  14.211   5.030  13.068
68054W        W33281  38.371  30.682  11.130
68055W        W33282   7.323  35.174  14.282
68056W        W33283  43.120   2.852   3.763
68057W        W33284  27.973  43.411  10.778
68058W        W33285  24.544  32.102   2.262
68059W        W33286   6.942  25.438  14.881
68060W        W33287   8.794  34.092  13.947
68061W        W33288  12.983  35.493  11.499
68062W        W33289  33.118  14.274   3.427
68063W        W33290   6.881   0.294  14.226
68064W        W33291  43.963  39.042  14.341
68065W        W33292  30.866  13.215   0.696
68066W        W33293   2.028  18.504  13.724
68067W        W33294   2.994  16.101  13.695
68068W        W33295  33.521   1.993  13.307
68069W        W33296   0.938  33.075   0.827
68070W        W33297  18.097   7.161   0.356
68071W        W33298  44.873   2.342  12.062
68072W        W33299  19.228   1.938   2.721
68073W        W33300  42.933  21.285  11.909
68074W        W33301  40.402  21.035  11.202
68075W        W33302  40.773   4.811  14.522
68076W        W33303  21.051  40.958   2.759
68077W        W33304  25.552  10.193  12.062
68078W        W33305   6.834  22.097  12.031
68079W        W33306  16.776  38.913   0.878
68080W        W33307   3.331  39.538  10.608
68081W        W33308  20.023  24.728   1.347
68082W        W33309   0.166  10.270   3.378
68083W        W33310  14.100  13.992  13.431
68084W        W33311   7.336   6.936   0.706
68085W        W33312  19.514  44.878  11.147
68086W        W33313  16.253  42.994  14.995
68087W        W33314  21.525  18.134   2.618
68088W        W33315   4.169  14.625  12.959
68089W        W33316   3.252  44.902   2.765
68090W        W33317   8.098  27.133  14.426
68091W        W33318  31.376  34.854   4.314
68092W        W33319  10.825   0.921   2.136
68093W        W33320  28.385  42.376   3.472
68094W        W33321  13.895  43.944  12.858
68095W        W33322  10.968  10.185   2.765
68096W        W33323  29.928   3.383  11.930
68097W        W33324  19.786  13.033   2.848
68098W        W33325  18.247  39.604  11.130
68099W        W33326   3.418   1.363   2.544
68100W        W33327   6.180  39.865   2.854
68101W        W33328  42.219  34.634  13.419
68102W        W33329  15.563  22.332   4.855
68103W        W33330  39.051   7.713  12.091
68104W        W33331  37.323  31.476   1.679
68105W        W33332  25.716  31.535  12.548
68106W        W33333  41.226   4.885  12.028
68107W        W33334  22.043  15.020   4.963
68108W        W33335  16.352  19.674   5.028
68109W        W33336  16.747  10.149  11.260
68110W        W33337  31.945  14.861  14.327
68111W        W33338  35.800  15.668  14.899
68112W        W33339  27.813  25.986   1.358
68113W        W33340  30.998  16.075  12.432
68114W        W33341  31.976  20.551   2.686
68115W        W33342   2.843  14.546   0.744
68116W        W33343   7.233  21.758   2.323
68117W        W33344   8.994  13.246   2.346
68118W        W33345  42.329  44.069   2.365
68119W        W33346  15.707  28.686  12.947
68120W        W33347  28.953  14.032  13.105
68121W        W33348  36.534  19.784   1.412
68122W        W33349  11.759   5.117  13.482
68123W        W33350  12.876   0.339  12.044
68124W        W33351  24.024  43.591  12.837
68125W        W33352  33.481  38.973   2.298
68126W        W33353  12.261  17.825  13.907
68127W        W33354   9.706  13.685   0.887
68128W        W33355   3.267  11.044   1.236
68129W        W33356  21.123  18.574  14.721
68130W        W33357  22.158   2.034  14.821
68131W        W33358  31.676  24.686   4.383
68132W        W33359  32.205  23.096  12.847
68133W        W33360  22.580   5.857  14.259
68134W        W33361  24.635  18.572   2.867
68135W        W33362  33.425  24.671  14.492
68136W        W33363  44.451   5.412   1.649
68137W        W33364  36.428  17.066   1.907
68138W        W33365  40.346  25.695  10.904
68139W        W33366   0.279  29.016   3.149
68140W        W33367  36.795  44.326   4.372
68141W        W33368  40.907  31.979  13.755
68142W        W33369  19.532   5.776  13.004
68143W        W33370  35.077  43.810   4.664
68144W        W33371  22.532  24.191  11.162
68145W        W33372   6.273  19.773   2.726
68146W        W33373  23.757  18.148   0.422
68147W        W33374  20.385  10.911   0.314
68148W        W33375  37.609   1.336  14.281
68149W        W33376  27.635   2.256  10.545
68150W        W33377  15.612  28.050   4.093
68151W        W33378  15.996  14.172   4.570
68152W        W33379   5.613  39.129  11.697
68153W        W33380   3.171  44.882  14.356
68154W        W33381   2.994   6.279  14.006
68155W        W33382  30.930   8.345   3.268
68156W        W33383   6.857  30.207  12.088
68157W        W33384  22.524   6.432   5.028
68158W        W33385  22.970  34.861   0.547
68159W        W33386  25.610   6.448   3.798
68160W        W33387  15.163  43.791  11.528
68161W        W33388  39.757   8.409  13.528
68162W        W33389  37.944   2.881  14.926
68163W        W33390   3.904  35.571  12.784
68164W        W33391  16.034   7.528  10.277
68165W        W33392  26.432  37.561  13.068
68166W        W33393   3.237  38.429  12.191
68167W        W33394  28.481   4.395   3.402
68168W        W33395  27.493   8.936  13.601
68169W        W33396  23.679   0.741   2.634
68170W        W33397  23.935   3.121   2.326
68171W        W33398  25.508  19.139  12.502
68172W        W33399   4.423  44.803  13.097
68173W        W33400  14.720  43.730  13.107
68174W        W33401   3.342  42.928   1.349
68175W        W33402  41.512   1.470   0.763
68176W        W33403  35.800  37.597   1.010
68177W        W33404  18.047  42.770   0.777
68178W        W33405   2.998  37.896   3.191
68179W        W33406   1.759  13.683  13.798
68180W        W33407   5.694  25.931   0.317
68181W        W33408  35.183   0.214   0.524
68182W        W33409   1.244  44.305   3.951
68183W        W33410  26.306  28.106   4.112
68184W        W33411  36.647   1.522  13.344
68185W        W33412  29.644  38.071   3.542
68186W        W33413  20.637  11.913  11.968
68187W        W33414  39.027  43.521  13.621
68188W        W33415   8.790  19.014   0.830
68189W        W33416  33.283   3.375  11.626
68190W        W33417   9.136  19.225   1.208
68191W        W33418  29.694  15.324  11.596
68192W        W33419   6.160  24.529  14.274
68193W        W33420   0.453  30.202   3.839
68194W        W33421  13.510   4.307  10.583
68195W        W33422   3.885  27.754  14.896
68196W        W33423  17.893  17.625   2.282
68197W        W33424  24.083  19.760  13.336
68198W        W33425  42.845  19.712  11.973
68199W        W33426  40.111  43.275   0.378
68200W        W33427  36.509  27.452   1.946
68201W        W33428  44.780  14.223   2.249
68202W        W33429  43.960  35.525   1.745
68203W        W33430  34.140  23.390   2.605
68204W        W33431  15.235  13.766   4.814
68205W        W33432  37.324  24.469   3.581
68206W        W33433  36.382  32.930   4.677
68207W        W33434   7.406  38.556  11.431
68208W        W33435  21.075  29.612   2.495
68209W        W33436  38.547  20.815  13.577
68210W        W33437  43.778  32.869   2.724
68211W        W33438  25.606  43.802  11.945
68212W        W33439  34.914   4.874  12.476
68213W        W33440  44.919  23.765  14.346
68214W        W33441  41.416  29.629   4.682
68215W        W33442  19.266  17.752   2.690
68216W        W33443  19.011  17.749   1.787
68217W        W33444  28.248   1.139   3.631
68218W        W33445  35.044  23.535   4.220
68219W        W33446  42.308  41.872  13.371
68220W        W33447  44.448  26.600  11.205
68221W        W33448  40.013  41.515   2.871
68222W        W33449  28.935  33.077   0.301
68223W        W33450  21.210  21.660   3.936
68224W        W33451  37.674  36.052   4.914
68225W        W33452  41.449   5.339  13.317
68226W        W33453  13.708  11.369  13.561
68227W        W33454  37.473   4.236   3.623
68228W        W33455  24.445  18.208  13.419
68229W        W33456  22.746   4.013   1.435
68230W        W33457  17.720  19.351  13.724
68231W        W33458  43.314  44.653  10.541
68232W        W33459  19.513   7.907   2.607
68233W        W33460  10.753   4.928  13.363
68234W        W33461  40.565   0.226   0.747
68235W        W33462  43.830  37.104   0.400
68236W        W33463   9.426   8.194   0.772
68237W        W33464  16.236  14.065  11.893
68238W        W33465  36.437  30.261  12.455
68239W        W33466  27.932  35.277   4.747
68240W        W33467  19.072  39.456   1.711
68241W        W33468  23.963  13.311   2.317
68242W        W33469  32.136  33.471   2.180
68243W        W33470   9.272  18.138   3.878
68244W        W33471  38.111  19.974  14.652
68245W        W33472  29.596  10.578  10.695
68246W        W33473  26.774  36.431  12.028
68247W        W33474  29.007  11.132   1.287
68248W        W33475  20.591  34.829   0.929
68249W        W33476  44.005  28.719   0.377
68250W        W33477   6.556  38.608  11.145
68251W        W33478  40.533  42.064   4.168
68252W        W33479  32.525  18.139   2.654
68253W        W33480   8.323  40.423   2.274
68254W        W33481  11.241   7.054   1.758
68255W        W33482  16.675  29.371  12.433
68256W        W33483  37.361  11.299  11.626
68257W        W33484   7.233  15.740   0.529
68258W        W33485  22.750   8.238   1.689
68259W        W33486  14.314  32.646   3.144
68260W        W33487  12.796  25.734  12.464
68261W        W33488  11.237  44.773   4.025
68262W        W33489   7.253  29.880   1.706
68263W        W33490   0.955  30.938   0.304
68264W        W33491  43.203  20.220   2.363
68265W        W33492  34.850  13.166   1.750
68266W        W33493  39.365   7.764   9.867
68267W        W33494  40.487  38.824   4.414
68268W        W33495  36.646  32.587   0.299
68269W        W33496   0.928  24.631   4.955
68270W        W33497  42.893  43.417  13.914
68271W        W33498  35.487  32.458   2.693
68272W        W33499  35.273  34.856   1.462
68273W        W33500  13.673  33.811  13.397
68274W        W33501  40.433  24.832  11.143
68275W        W33502  30.725   1.812  13.332
68276W        W33503  20.568   1.476   4.873
68277W        W33504  31.656  12.254  10.992
68278W        W33505   6.648   5.212  11.934
68279W        W33506  21.036  29.014   3.172
68280W        W33507  36.568   7.608   0.405
68281W        W33508  20.598  15.656   4.611
68282W        W33509  36.963  24.791  11.691
68283W        W33510  10.076  33.081   2.818
68284W        W33511  28.468  19.679   3.370
68285W        W33512  43.965   3.452   4.544
68286W        W33513  11.602  32.675   0.865
68287W        W33514  43.416  11.490   4.088
68288W        W33515  30.643  33.807   2.291
68289W        W33516  22.643  42.444   0.497
68290W        W33517  17.376  33.342  12.553
68291W        W33518   4.853  25.689   0.832
68292W        W33519  16.813  26.540  13.947
68293W        W33520  27.725  42.796  13.430
68294W        W33521  19.508  34.045   2.992
68295W        W33522  12.864  38.644   2.208
68296W        W33523  11.949  35.844  12.103
68297W        W33524  34.459  44.437  14.407
68298W        W33525   6.701  29.687   2.652
68299W        W33526   6.160  12.363  12.206
68300W        W33527  27.225  35.858   3.685
68301W        W33528  30.354   2.397  13.326
68302W        W33529  13.290  41.837   3.658
68303W        W33530  10.968  39.504   0.616
68304W        W33531  33.501   8.297  14.008
68305W        W33532   4.656  43.797  13.958
68306W        W33533  30.061   6.675  12.929
68307W        W33534  12.109  42.999   2.935
68308W        W33535  21.231  28.646   4.172
68309W        W33536   2.701  41.478   4.111
68310W        W33537  18.604  42.466  14.903
68311W        W33538  20.637  28.870  10.644
68312W        W33539  10.361  25.911   4.169
68313W        W33540  28.192  40.700  13.360
68314W        W33541   7.025   6.588  13.469
68315W        W33542  11.922  11.708   0.799
68316W        W33543   6.880   8.753   4.148
68317W        W33544  21.530  29.642  12.948
68318W        W33545  19.602  26.339   2.253
68319W        W33546  44.157  17.703   9.819
68320W        W33547   2.670  41.794  14.872
68321W        W33548  17.062  24.891   3.190
68322W        W33549   8.747  18.094   1.810
68323W        W33550  21.317   1.905  14.405
68324W        W33551   9.256  30.211   1.381
68325W        W33552  31.382  26.660   2.269
68326W        W33553  19.513  32.313  12.037
68327W        W33554   6.778  12.327  13.013
68328W        W33555  30.203   6.199  14.210
68329W        W33556  16.438  32.096  11.540
68330W        W33557  15.656  18.679   3.878
68331W        W33558  31.329  31.126   2.641
68332W        W33559  11.813  11.141  12.581
68333W        W33560  26.081   2.297  12.110
68334W        W33561  12.451   6.869  11.664
68335W        W33562  31.994  41.945  13.933
68336W        W33563  37.957   7.419  14.976
68337W        W33564   8.196  36.341  12.009
68338W        W33565   5.222  20.074  14.890
68339W        W33566  23.861   9.909  11.571
68340W        W33567  17.347   3.178   4.569
68341W        W33568  24.432   6.750  14.934
68342W        W33569  23.675  22.219  10.372
68343W        W33570  10.138  10.304  14.003
68344W        W33571   2.217  18.661  10.326
68345W        W33572  39.326  30.584   4.971
68346W        W33573  35.168  14.010  12.974
68347W        W33574   3.922  12.857  14.835
68348W        W33575  20.528  44.967  10.077
68349W        W33576  16.093  41.850  12.629
68350W        W33577  35.390  36.596  10.659
68351W        W33578  20.454  31.056   4.385
68352W        W33579  12.467  36.599  12.573
68353W        W33580  11.892  43.723  11.065
68354W        W33581   5.079  33.424   3.158
68355W        W33582  43.977   5.321  11.615
68356W        W33583  13.441  18.556  13.128
68357W        W33584  17.103  10.168  12.468
68358W        W33585  25.158  39.884   1.806
68359W        W33586  15.282   8.203  13.336
68360W        W33587  36.644  33.223   0.923
68361W        W33588  37.593  38.535   0.867
68362W        W33589  43.833  20.153   1.656
68363W        W33590  29.390  38.973  11.729
68364W        W33591  20.692  15.823   2.368
68365W        W33592  37.489  21.144  12.573
68366W        W33593  19.281   0.987  12.031
68367W        W33594   6.783  32.686   2.232
68368W        W33595   9.979  31.310  11.880
68369W        W33596  13.862  43.079  13.421
68370W        W33597   6.425  19.843  14.297
68371W        W33598  43.604  14.668   1.183
68372W        W33599  33.792  38.415   3.399
68373W        W33600  11.474   1.039   2.943
68374W        W33601  21.877  10.254   1.297
68375W        W33602  26.039  21.076   1.302
68376W        W33603   1.574  20.808   2.232
68377W        W33604  38.450  29.163   2.257
68378W        W33605  20.615  31.880   2.347
68379W        W33606  44.338  39.828   4.792
68380W        W33607   8.621   3.645  13.127
68381W        W33608   4.642  38.894  10.640
68382W        W33609  21.602  33.320   1.925
68383W        W33610   2.249  28.369   2.834
68384W        W33611   7.244  21.631  12.623
68385W        W33612  24.439  33.934  14.541
68386W        W33613   1.683  28.349  14.905
68387W        W33614   5.330  18.179  12.968
68388W        W33615  19.775  15.689   2.347
68389W        W33616  29.202  36.369   1.417
68390W        W33617  41.422  29.042  12.994
68391W        W33618  34.625  30.907   2.839
68392W        W33619  30.282  29.001  12.420
68393W        W33620  28.561   5.979  13.008
68394W        W33621   3.640  41.005  13.368
68395W        W33622  17.251  33.713   2.828
68396W        W33623  44.536  42.045  11.432
68397W        W33624   0.888  24.229   0.929
68398W        W33625  14.792  16.549  11.561
68399W        W33626  28.530  13.239  12.614
68400W        W33627  25.188  19.384   2.424
68401W        W33628  10.729  19.644  13.585
68402W        W33629  32.596  23.242   2.713
68403W        W33630  15.369  32.146  11.480
68404W        W33631  39.768   8.597  12.030
68405W        W33632  39.072  25.631  12.137
68406W        W33633  19.372  38.451  13.508
68407W        W33634   4.936   2.622  13.790
68408W        W33635  17.527   2.502  13.787
68409W        W33636   6.398   7.872   3.832
68410W        W33637  28.920  22.162   1.366
68411W        W33638  26.595  17.249  12.974
68412W        W33639   2.445  12.327   4.590
68413W        W33640   8.243  15.808  10.960
68414W        W33641   3.549  20.505   4.928
68415W        W33642  39.883  42.187  12.681
68416W        W33643  17.787  33.670   2.672
68417W        W33644  30.834  30.640   1.426
68418W        W33645  36.032  12.877  13.150
68419W        W33646  22.998  29.031   3.896
68420W        W33647   5.552   8.982  13.341
68421W        W33648   4.592   5.643   0.498
68422W        W33649   8.383  11.124   3.757
68423W        W33650  14.834   7.431   2.874
68424W        W33651  23.689   8.585   1.865
68425W        W33652  37.965  23.562  11.875
68426W        W33653  44.730  10.381  12.030
68427W        W33654  39.943   3.073  10.626
68428W        W33655  20.570  20.955  14.326
68429W        W33656  39.594  17.180   0.496
68430W        W33657   1.065  29.308  13.271
68431W        W33658   5.302   7.885   0.399
68432W        W33659  40.403  33.368  14.327
68433W        W33660   8.721   8.164  14.067
68434W        W33661  14.201   4.844  14.775
68435W        W33662  34.583  15.059   1.957
68436W        W33663   5.854   5.401   3.356
68437W        W33664  16.346  32.645  14.432
68438W        W33665  26.594  35.967  14.398
68439W        W33666   7.880  19.618   4.616
68440W        W33667  23.252   8.441  11.177
68441W        W33668   1.581  23.026  13.848
68442W        W33669  35.618   1.014   2.851
68443W        W33670  28.161  22.777   3.519
68444W        W33671  15.325   1.962   0.460
68445W        W33672  17.204  13.810   3.148
68446W        W33673  13.350   2.368   2.824
68447W        W33674  12.803  41.431  14.936
68448W        W33675  21.045   3.954   1.009
68449W        W33676   0.243  13.223   0.940
68450W        W33677   8.327  34.569  11.296
68451W        W33678   2.201  15.399   1.655
68452W        W33679  32.820  17.202   0.361
68453W        W33680  27.511  40.934   4.934
68454W        W33681  44.322   9.161   2.828
68455W        W33682  22.101  24.784  12.649
68456W        W33683   2.961  21.720  10.907
68457W        W33684  33.602   7.235  14.441
68458W        W33685  37.454  25.753   0.507
68459W        W33686  27.147  14.623   3.266
68460W        W33687  36.697  23.493   3.026
68461W        W33688  37.352  14.732   3.660
68462W        W33689  37.840  36.301   0.875
68463W        W33690  35.555  16.283  13.248
68464W        W33691  12.871   9.700   0.287
68465W        W33692   5.514  41.277   2.763
68466W        W33693   5.493  23.063  10.801
68467W        W33694  11.677  29.189  12.086
68468W        W33695  14.121   8.451  12.537
68469W        W33696   9.910  11.165  11.162
68470W        W33697   0.563  22.686  11.546
68471W        W33698  35.507   0.417  14.117
68472W        W33699  21.703   1.009  14.334
68473W        W33700  39.569   3.559  13.862
68474W        W33701  20.280  40.784   2.428
68475W        W33702   8.844  38.695   0.461
68476W        W33703  16.169  12.321   2.182
68477W        W33704   7.886  17.529   4.119
68478W        W33705  34.994  33.703   3.393
68479W        W33706   8.770  40.767  12.478
68480W        W33707  44.173  39.287  13.486
68481W        W33708  19.465   9.941  14.464
68482W        W33709  26.736  34.453   2.634
68483W        W33710  24.789   2.231   1.278
68484W        W33711  31.280  28.548   3.297
68485W        W33712  25.213  32.617   0.742
68486W        W33713   4.972  17.574   2.226
68487W        W33714  35.822  16.045   3.109
68488W        W33715  11.826  14.055   3.645
68489W        W33716  33.052  27.483  13.755
68490W        W33717  15.016  33.923  11.712
68491W        W33718  19.025  20.123  14.725
68492W        W33719  34.228  26.822   0.311
68493W        W33720  35.938  36.615  11.873
68494W        W33721  11.561  11.275   2.396
68495W        W33722   4.231  37.990  11.989
68496W        W33723  13.254  14.417  11.685
68497W        W33724  25.621  39.476  11.700
68498W        W33725  19.225  36.908   2.658
68499W        W33726  17.718  36.772  14.277
68500W        W33727  40.254  19.618  11.917
68501W        W33728   1.294  26.380   2.238
68502W        W33729  22.135   5.009  11.663
68503W        W33730  36.604  15.333   2.289
68504W        W33731  11.715  14.215  12.400
68505W        W33732  10.265  30.895   3.265
68506W        W33733  32.556  26.490   2.787
68507W        W33734  43.349   7.833   4.701
68508W        W33735  39.959  33.029   1.280
68509W        W33736   3.853  14.108   4.756
68510W        W33737  37.947  33.583   4.214
68511W        W33738  20.724  43.902  12.332
68512W        W33739   8.609  32.946   1.188
68513W        W33740  10.787   6.164  14.826
68514W        W33741  19.202  38.967  12.201
68515W        W33742  35.567  30.706  11.570
68516W        W33743  27.759  32.869  11.629
68517W        W33744  42.356  13.147   3.177
68518W        W33745   1.702  18.170  14.930
68519W        W33746   8.263  19.711   2.395
68520W        W33747  16.772  18.203   4.140
68521W        W33748  33.090  27.855  13.365
68522W        W33749  26.234  39.748  11.467
68523W        W33750  12.849   4.396   4.255
68524W        W33751  20.571  36.886   2.648
68525W        W33752  22.106  28.974  12.567
68526W        W33753   2.364  42.434   9.614
68527W        W33754  33.936  40.376  14.893
68528W        W33755   1.078   8.284   3.375
68529W        W33756  32.350  38.380  12.037
68530W        W33757  31.423  37.353   3.674
68531W        W33758   1.990  44.396  14.238
68532W        W33759   3.885  17.099  10.975
68533W        W33760  12.203  39.563  12.884
68534W        W33761  37.889  42.007   1.921
68535W        W33762  15.559  20.973   2.784
68536W        W33763  35.492  17.639  13.944
68537W        W33764   9.107  27.121   0.070
68538W        W33765  31.445  31.132  11.732
68539W        W33766   8.451  39.838   1.706
68540W        W33767   2.517  13.288   4.489
68541W        W33768  18.669   3.132   0.374
68542W        W33769  19.284  22.327  13.571
68543W        W33770  20.581  30.499  13.837
68544W        W33771  24.444   1.976  12.424
68545W        W33772  36.383  29.541  11.357
68546W        W33773  41.024  32.569   1.318
68547W        W33774   4.470  24.620  11.077
68548W        W33775  26.957  18.974  11.748
68549W        W33776   6.030  23.035   2.964
68550W        W33777  36.451  32.540   3.065
68551W        W33778  42.554   9.221   4.082
68552W        W33779  16.063  20.478   3.188
68553W        W33780  42.071  24.313  10.292
68554W        W33781  32.167  39.805  14.403
68555W        W33782  21.162  31.546  13.764
68556W        W33783  37.957  23.616  13.318
68557W        W33784  29.407  15.231   4.272
68558W        W33785  40.059   9.771   4.635
68559W        W33786  39.143   4.698   2.544
68560W        W33787   9.173  27.146  10.523
68561W        W33788  38.969  28.559  10.430
68562W        W33789  40.416  13.821  10.741
68563W        W33790  12.276  10.883  14.456
68564W        W33791  37.954  31.668   0.261
68565W        W33792  16.197   2.414   0.465
68566W        W33793  11.710  26.035   2.355
68567W        W33794  40.046  23.608   2.681
68568W        W33795  18.931  15.059   1.209
68569W        W33796  26.490  11.887  11.116
68570W        W33797   3.701  22.038  13.455
68571W        W33798  27.711   8.328   0.887
68572W        W33799   7.674  22.677   3.274
68573W        W33800   7.235  36.165   4.951
68574W        W33801  14.840  22.176  14.081
68575W        W33802   6.366   5.259   2.666
68576W        W33803  14.313  38.278   2.196
68577W        W33804  36.810   3.558  14.016
68578W        W33805  41.556   2.862   1.202
68579W        W33806  39.395  40.975  13.051
68580W        W33807  23.399  41.454  14.732
68581W        W33808  42.803  34.623   3.539
68582W        W33809  28.412  14.250   3.268
68583W        W33810  38.716  41.128   4.975
68584W        W33811  33.883  31.664   1.263
68585W        W33812  18.786  41.725  10.803
68586W        W33813  18.155  16.769   3.285
68587W        W33814  26.043  30.188  12.475
68588W        W33815  24.170  27.443  12.982
68589W        W33816  35.467  40.783   4.592
68590W        W33817  17.491  14.052   3.711
68591W        W33818  37.511  20.271  10.678
68592W        W33819  23.084  26.707  13.523
68593W        W33820   5.231   0.446   2.631
68594W        W33821  33.411  18.627  12.924
68595W        W33822   0.452  27.339   3.177
68596W        W33823  31.532  25.132   3.229
68597W        W33824  29.986  36.923   1.095
68598W        W33825  34.600  34.187   2.495
68599W        W33826   2.361  12.743  12.502
68600W        W33827  13.668  15.704  10.634
68601W        W33828   0.032  44.473   3.867
68602W        W33829  18.351  38.395  10.716
68603W        W33830  16.133  16.401  11.399
68604W        W33831  16.449  30.226  14.368
68605W        W33832  11.639   5.891  12.872
68606W        W33833  37.034  42.852  11.579
68607W        W33834  26.953  42.417   2.030
68608W        W33835  28.000  25.731   4.241
68609W        W33836  44.859  40.844  14.333
68610W        W33837  41.297  19.823  13.411
68611W        W33838  38.939   8.150   0.886
68612W        W33839  22.616   8.078  10.564
68613W        W33840  42.491  17.786  13.273
68614W        W33841  37.977  14.235   4.688
68615W        W33842  37.415  10.852   2.263
68616W        W33843  19.038  34.699  12.015
68617W        W33844   9.237   4.758  13.164
68618W        W33845  22.029  40.331  13.015
68619W        W33846  32.428  12.418  14.770
68620W        W33847  11.421   1.341   0.390
68621W        W33848   5.810  14.763   0.377
68622W        W33849  29.011  27.219  13.427
68623W        W33850  38.072  29.580   3.836
68624W        W33851  44.803  22.047   2.208
68625W        W33852  27.460  17.511   0.363
68626W        W33853   6.790  39.404  12.570
68627W        W33854   9.712  36.773   4.247
68628W        W33855  38.797  18.620   0.479
68629W        W33856  27.415  31.804  10.337
68630W        W33857   2.828  21.143   2.250
68631W        W33858  43.463  11.929  10.170
68632W        W33859  23.586   3.301  14.160
68633W        W33860  41.067  29.879   0.992
68634W        W33861  31.134  41.192   1.105
68635W        W33862   8.124  21.959  14.023
68636W        W33863  43.388  15.872  11.282
68637W        W33864   9.528  29.612  14.457
68638W        W33865  10.952  29.494  10.308
68639W        W33866   6.498   1.536  14.360
68640W        W33867  39.320  10.145   2.585
68641W        W33868  38.391  35.104   3.274
68642W        W33869  23.283  14.664   4.028
68643W        W33870  42.339  43.380  14.848
68644W        W33871  14.830  34.650   0.319
68645W        W33872  22.174  15.052  11.551
68646W        W33873  14.312  25.647   3.145
68647W        W33874  30.478  28.151   2.612
68648W        W33875  31.242  11.847  13.701
68649W        W33876  36.086  15.390   0.295
68650W        W33877  15.368   6.649  12.024
68651W        W33878  33.081  10.357   0.243
68652W        W33879  31.575  29.843  14.327
68653W        W33880  22.519  35.536   4.737
68654W        W33881  16.232  39.466  14.444
68655W        W33882   4.030  11.904   2.901
68656W        W33883  12.012   0.628  10.931
68657W        W33884  20.718  36.818   1.725
68658W        W33885  24.006  33.621  12.940
68659W        W33886  25.740  40.597  14.927
68660W        W33887  29.923  30.616   4.566
68661W        W33888  24.525  27.119  12.829
68662W        W33889  34.009  19.494  14.863
68663W        W33890   0.737  39.077  14.198
68664W        W33891  30.426   0.691   5.025
68665W        W33892   5.341  21.514  13.082
68666W        W33893  32.336  39.779  13.840
68667W        W33894  28.605  44.359   4.705
68668W        W33895   5.585  34.258  11.371
68669W        W33896  13.588  40.057  12.183
68670W        W33897  30.287  14.366   2.191
68671W        W33898   7.364   9.392  12.371
68672W        W33899  21.060  35.493  11.106
68673W        W33900  42.445  26.240  11.244
68674W        W33901   2.802  15.797  14.066
68675W        W33902  36.237  30.201  10.692
68676W        W33903  39.356  11.825   2.982
68677W        W33904   1.204  16.181   1.071
68678W        W33905   1.820  41.238  12.109
68679W        W33906   8.663  41.040  14.147
68680W        W33907  16.055  38.125  14.833
68681W        W33908  40.769  19.149   9.698
68682W        W33909   9.818   8.297  10.649
68683W        W33910  43.760  30.063  13.425
68684W        W33911  26.197  19.097   1.394
68685W        W33912  24.252   5.669   4.467
68686W        W33913  38.772  26.214  10.190
68687W        W33914  20.403  44.002  11.959
68688W        W33915  18.160  25.035  14.529
68689W        W33916  11.999  30.216  13.156
68690W        W33917  38.369  42.815  12.583
68691W        W33918  10.160  26.947  10.720
68692W        W33919  43.201  27.998  12.345
68693W        W33920  40.048  32.611  11.909
68694W        W33921  35.971  22.262   1.727
68695W        W33922  11.565   7.103  11.012
68696W        W33923   8.425   6.897   0.253
68697W        W33924   2.917  31.578  13.614
68698W        W33925   3.450  22.677  10.966
68699W        W33926  39.089  30.450  12.014
68700W        W33927  31.634   2.583  12.897
68701W        W33928  28.684  35.066   1.928
68702W        W33929  20.299  34.573  10.431
68703W        W33930  20.232  32.546   3.996
68704W        W33931  43.452  26.940   4.471
68705W        W33932  15.199  36.577   0.540
68706W        W33933  25.021   5.030   0.463
68707W        W33934  32.251   6.115   2.824
68708W        W33935  32.124  33.023  12.924
68709W        W33936  26.319  21.587  12.828
68710W        W33937   2.871  25.638   0.074
68711W        W33938   6.295  12.851  12.034
68712W        W33939  38.222  13.778   4.070
68713W        W33940   0.567  27.227  13.813
68714W        W33941  42.359  23.564   2.829
68715W        W33942   6.028  24.975   4.853
68716W        W33943  42.979  39.408   2.769
68717W        W33944  37.590   1.227   2.079
68718W        W33945  26.344  41.729   4.242
68719W        W33946  41.480   7.350   1.865
68720W        W33947  44.443  25.670  13.035
68721W        W33948  14.237  27.546   0.521
68722W        W33949  34.201  29.772  14.005
68723W        W33950   7.698  15.531  12.487
68724W        W33951  26.046  38.205   3.230
68725W        W33952  25.253  23.017  13.026
68726W        W33953  35.631   9.096  12.608
68727W        W33954  13.058  17.509  11.648
68728W        W33955  32.877  35.912   1.465
68729W        W33956  42.293  42.278   2.255
68730W        W33957  40.907  36.375   0.096
68731W        W33958  23.955  11.990  14.330
68732W        W33959   2.839   0.140  12.944
68733W        W33960  15.844   2.183   1.207
68734W        W33961  14.809  37.535   0.523
68735W        W33962  26.105  22.592  14.694
68736W        W33963  10.137  38.454   3.293
68737W        W33964  38.549  12.332  12.458
68738W        W33965  34.498   4.783   2.723
68739W        W33966  21.714  33.826  12.379
68740W        W33967   7.838  11.378   1.921
68741W        W33968  18.118  44.528   0.946
68742W        W33969  21.921  20.647   3.488
68743W        W33970  36.324  36.075  11.566
68744W        W33971  33.283  35.450   3.358
68745W        W33972  42.334  31.433   1.864
68746W        W33973  39.466  18.708   3.250
68747W        W33974   3.912  28.265  13.418
68748W        W33975   1.597  23.204  10.210
68749W        W33976  43.978  18.387  14.961
68750W        W33977  17.138  38.929   3.006
68751W        W33978   1.953  15.317   0.319
68752W        W33979  22.654  24.931  11.543
68753W        W33980  35.424  27.775   4.734
68754W        W33981   3.965  23.411  13.079
68755W        W33982  10.158  40.103  12.950
68756W        W33983  33.676   5.350   1.340
68757W        W33984  20.532  27.240   3.499
68758W        W33985   5.335   5.911   2.905
68759W        W33986   6.015  38.894  14.383
68760W        W33987  38.473  38.968   1.463
68761W        W33988  39.069  38.517  10.547
68762W        W33989  12.887   7.184  13.557
68763W        W33990  38.623   6.145   1.086
68764W        W33991  21.114  10.638  14.869
68765W        W33992  44.037  41.038   3.642
68766W        W33993  21.474  25.526  13.888
68767W        W33994  17.702  21.891  12.783
68768W        W33995  43.769  41.899   4.310
68769W        W33996   1.653  44.850  10.669
68770W        W33997  10.781  35.659   1.771
68771W        W33998  32.108  30.458  11.989
68772W        W33999   3.572  26.508  14.107
68773W        W34000  39.888  30.439   0.307
68774W        W34001  30.619  24.796  12.490
68775W        W34002  26.254  12.172  12.722
68776W        W34003  39.593  33.411  14.964
68777W        W34004  27.268   8.828  11.917
68778W        W34005  35.616  30.470   4.585
68779W        W34006  36.078  13.745  12.573
68780W        W34007   0.740  16.815  12.563
68781W        W34008  41.463  37.148  14.085
68782W        W34009  13.058  26.080  12.809
68783W        W34010  31.482  26.987  14.345
68784W        W34011  27.520  40.377   4.612
68785W        W34012   3.889  25.192   3.039
68786W        W34013  18.371  25.792   3.603
68787W        W34014  21.684   7.798   0.774
68788W        W34015  13.034  17.967  14.529
68789W        W34016  29.682  38.743  13.079
68790W        W34017  20.900  24.714   4.464
68791W        W34018   4.320  41.739  11.572
68792W        W34019  25.016  11.136   1.499
68793W        W34020   1.590   9.704   3.604
68794W        W34021  37.906   2.739  11.597
68795W        W34022  44.706  34.560   4.588
68796W        W34023  19.725  39.920  14.994
68797W        W34024   4.249   5.602  13.181
68798W        W34025  44.891  30.065  12.937
68799W        W34026  18.239  28.077   1.919
68800W        W34027  27.022  23.493  14.809
68801W        W34028   5.680  10.298  13.897
68802W        W34029   6.625  22.070   1.902
68803W        W34030  34.467  20.266  13.848
68804W        W34031  11.277  42.867   2.642
68805W        W34032   8.287  26.609  10.602
68806W        W34033  22.515  20.741   1.694
68807W        W34034   1.430  30.052  13.757
68808W        W34035   6.187  40.509   4.212
68809W        W34036  19.984  42.808  11.404
68810W        W34037  15.267  10.871   3.697
68811W        W34038  14.853  39.128  11.380
68812W        W34039   8.642  39.283  13.006
68813W        W34040  37.589  20.664  14.403
68814W        W34041  18.721  15.685  10.955
68815W        W34042  17.453   7.964  13.899
68816W        W34043  28.899  20.285   1.183
68817W        W34044  36.286  36.405   2.878
68818W        W34045  11.793   5.322  13.952
68819W        W34046  12.837  39.408   0.424
68820W        W34047  15.854  27.175  10.302
68821W        W34048  18.313  29.924  14.992
68822W        W34049  38.103   8.728   0.331
68823W        W34050  16.947  18.593  10.782
68824W        W34051  29.901  44.074  13.539
68825W        W34052  27.442  16.849  14.784
68826W        W34053  43.039  24.367  10.721
68827W        W34054   1.897  38.651  10.642
68828W        W34055  24.185  17.764   4.626
68829W        W34056  39.060  36.883   2.369
68830W        W34057  29.032  36.555  13.392
68831W        W34058   1.100  40.723  13.237
68832W        W34059  14.170  43.444   1.241
68833W        W34060  28.346  16.411  10.107
68834W        W34061   9.070  23.109   2.205
68835W        W34062  28.071  40.372   1.301
68836W        W34063   3.625  34.447   2.824
68837W        W34064  32.344  26.161   0.351
68838W        W34065  33.103   3.795  11.383
68839W        W34066  12.309   4.867  12.614
68840W        W34067  12.846  25.614  14.502
68841W        W34068  33.376   1.896   2.652
68842W        W34069  23.334  30.072   0.430
68843W        W34070  12.578  12.047   0.427
68844W        W34071  33.986  36.828   3.086
68845W        W34072   4.350   2.197  11.574
68846W        W34073   5.481  13.223  11.604
68847W        W34074  18.319  30.169   0.445
68848W        W34075  31.442  25.052   0.304
68849W        W34076   1.596   6.759  12.423
68850W        W34077  26.483  16.638  11.468
68851W        W34078  33.700  29.893  13.845
68852W        W34079  21.206  27.514   3.728
68853W        W34080   2.925  33.886   0.335
68854W        W34081   9.525  26.829   4.662
68855W        W34082  33.604   4.731  13.016
68856W        W34083  12.735  15.357   2.422
68857W        W34084  15.540  36.502   0.103
68858W        W34085  11.676   5.393   1.376
68859W        W34086  41.794  12.661   1.240
68860W        W34087   3.049  44.687   3.205
68861W        W34088  18.997  17.636  13.789
68862W        W34089  34.127  10.014  12.864
68863W        W34090  11.831   0.176  12.345
68864W        W34091  39.849  29.743   1.096
68865W        W34092  19.313  23.719  14.065
68866W        W34093  36.294   1.427   2.342
68867W        W34094  18.692  32.497  12.459
68868W        W34095  36.304  17.553   0.838
68869W        W34096  14.146   4.459   4.492
68870W        W34097   2.676  28.005   0.053
68871W        W34098  28.068  23.583   0.221
68872W        W34099  43.986  32.199  14.089
68873W        W34100  22.147  12.567  12.952
68874W        W34101  10.803  43.343   3.696
68875W        W34102  22.674  32.606   4.136
68876W        W34103  31.112  25.251   5.458
68877W        W34104  40.872  34.408  12.116
68878W        W34105   4.710  10.747   3.364
68879W        W34106   5.660  17.245   1.246
68880W        W34107  21.929  17.663  12.396
68881W        W34108  29.646  12.772   1.409
68882W        W34109  15.582  38.436   4.638
68883W        W34110  44.017   4.445  14.057
68884W        W34111   4.352  35.637  13.021
68885W        W34112  32.297   4.075  14.020
68886W        W34113   6.949   0.272   0.647
68887W        W34114  33.417  41.363  13.961
68888W        W34115   3.761  26.008   3.781
68889W        W34116  19.785  17.700   1.412
68890W        W34117  29.921  10.743   2.795
68891W        W34118  13.250   8.262   2.746
68892W        W34119  40.270  37.491  12.783
68893W        W34120  17.119   7.203   1.705
68894W        W34121  16.027   2.758  13.057
68895W        W34122  19.120  31.979  12.067
68896W        W34123  19.579   0.680  12.988
68897W        W34124  29.375  43.309   3.659
68898W        W34125  12.913   2.612   4.658
68899W        W34126  42.873  31.591  13.737
68900W        W34127   5.262   4.304  14.460
68901W        W34128  40.770  23.544   1.397
68902W        W34129  18.237  27.168  11.187
68903W        W34130   7.432   2.872   2.391
68904W        W34131  25.668  24.960  13.082
68905W        W34132   2.443   6.408  10.386
68906W        W34133  36.349  14.713  14.828
68907W        W34134  22.640   1.972  14.568
68908W        W34135  10.615  39.128  12.395
68909W        W34136  29.960  15.955  12.303
68910W        W34137  25.459  26.790  14.610
68911W        W34138  16.678   9.376   4.375
68912W        W34139   6.648   4.243  12.084
68913W        W34140  33.957  44.384  10.717
68914W        W34141  41.360  24.925   2.247
68915W        W34142  16.651  21.302   0.368
68916W        W34143   0.713  12.240   0.964
68917W        W34144  39.524   1.941   1.246
68918W        W34145  36.018  44.499  10.848
68919W        W34146  41.212  25.385   3.185
68920W        W34147  35.066  13.028   1.231
68921W        W34148  40.997  35.444   1.833
68922W        W34149   9.233  12.978  11.879
68923W        W34150   0.504  16.926  14.711
68924W        W34151  41.991  29.444  13.543
68925W        W34152   9.966  18.207  14.871
68926W        W34153  26.180  31.087   0.590
68927W        W34154   2.784  34.828   3.885
68928W        W34155   4.988  21.398  11.016
68929W        W34156  27.599  26.492  11.500
68930W        W34157  39.304  22.987   2.327
68931W        W34158  38.603  38.353   2.289
68932W        W34159   5.377   8.628  12.827
68933W        W34160  18.519  42.630  11.696
68934W        W34161   1.297  24.036   2.638
68935W        W34162  30.567  11.054   5.395
68936W        W34163  11.555  20.199  13.875
68937W        W34164  16.576  43.762  14.927
68938W        W34165  14.070   1.407  14.434
68939W        W34166  44.083  34.632  14.530
68940W        W34167  41.978  39.296  12.990
68941W        W34168   3.973  37.087   2.881
68942W        W34169  15.628   9.278   2.869
68943W        W34170  14.263  34.868   4.137
68944W        W34171  42.913  30.002  12.610
68945W        W34172  17.339  35.059  12.502
68946W        W34173   8.975  41.586  13.149
68947W        W34174   0.731  44.410   4.036
68948W        W34175  38.218  26.608   4.843
68949W        W34176  23.212  18.702   2.287
68950W        W34177  28.834   6.790   1.047
68951W        W34178  21.849   9.802   1.736
68952W        W34179  21.115   3.999   4.497
68953W        W34180   1.666  27.412  12.047
68954W        W34181  41.049  27.255  11.076
68955W        W34182  17.614  26.001   2.594
68956W        W34183  16.326   8.449  11.656
68957W        W34184  11.400   8.607   1.837
68958W        W34185  29.877  26.643  13.263
68959W        W34186  40.179  28.516  12.429
68960W        W34187  21.590  36.133  13.987
68961W        W34188  18.881   3.225   3.833
68962W        W34189   0.077  27.150  13.886
68963W        W34190  25.265  26.687  13.224
68964W        W34191  19.860  41.150   5.208
68965W        W34192   5.807  18.769  13.071
68966W        W34193   3.894  15.789  12.526
68967W        W34194  22.190  35.440  13.110
68968W        W34195  34.387  27.976   3.705
68969W        W34196   4.368  33.824   4.819
68970W        W34197  39.309  40.362   3.068
68971W        W34198  32.436  23.585   3.496
68972W        W34199   8.344   4.201   4.341
68973W        W34200  14.256  32.177  13.498
68974W        W34201  37.791  23.653  12.845
68975W        W34202  21.508  42.262   3.183
68976W        W34203  26.546  19.501   4.125
68977W        W34204  30.220  26.138   1.473
68978W        W34205  11.802  13.611  14.443
68979W        W34206  29.079  19.305  13.531
68980W        W34207  41.834  37.412  14.428
68981W        W34208  18.712   0.816  13.386
68982W        W34209  24.470  20.740   0.756
68983W        W34210  23.259  22.787  13.535
68984W        W34211  36.516   9.396  14.443
68985W        W34212   9.710  14.740   0.769
68986W        W34213  23.599  26.576   2.641
68987W        W34214  26.057  19.984  14.496
68988W        W34215  15.872  43.786   4.500
68989W        W34216   6.967  32.576   3.382
68990W        W34217  41.030   8.674   1.867
68991W        W34218  26.579  44.006   2.928
68992W        W34219  44.573  19.255  13.072
68993W        W34220  41.590  41.750   3.171
68994W        W34221  22.378  22.454  11.112
68995W        W34222  11.233  17.008  14.419
68996W        W34223  29.660  38.650   1.658
68997W        W34224  15.144  34.846   0.709
68998W        W34225  17.441   6.393   3.242
68999W        W34226  10.212  23.141   3.883
69000W        W34227  44.730   1.805   2.840
69001W        W34228  16.332  18.257  11.937
69002W        W34229  39.376  13.855   1.240
69003W        W34230  21.704  24.895  11.548
69004W        W34231  20.115  16.289  13.835
69005W        W34232  24.191  14.229  11.489
69006W        W34233  29.126  24.242  11.595
69007W        W34234  31.892  29.015  11.513
69008W        W34235   1.703  25.984  10.787
69009W        W34236  32.623   3.957   0.241
69010W        W34237  31.485  24.945  12.882
69011W        W34238  29.048   0.355   0.442
69012W        W34239  11.866   1.781   1.941
69013W        W34240  28.384  40.982  13.781
69014W        W34241  34.056  25.066  13.798
69015W        W34242   4.365  44.766  14.079
69016W        W34243   7.754  10.559  10.652
69017W        W34244  32.836   9.284   4.633
69018W        W34245  32.216  10.291  13.890
69019W        W34246  41.072  42.539   4.068
69020W        W34247   4.944  40.595  12.909
69021W        W34248   9.180   1.259   2.235
69022W        W34249   4.879  14.076   2.863
69023W        W34250  28.475  10.045   0.777
69024W        W34251  43.541  29.117   1.245
69025W        W34252  10.622  32.080   1.294
69026W        W34253  37.838  12.617  11.228
69027W        W34254  28.079  34.640  14.893
69028W        W34255   6.827  32.564  10.606
69029W        W34256   6.151   1.234   1.749
69030W        W34257  39.175   7.166   2.804
69031W        W34258  39.168  33.569   1.395
69032W        W34259  44.477   8.737  14.793
69033W        W34260  10.293   6.396   3.081
69034W        W34261  25.961  27.212   0.783
69035W        W34262  36.575  12.602   1.861
69036W        W34263  23.914   0.558   3.628
69037W        W34264   8.705  43.948   1.984
69038W        W34265  21.713  37.128  11.997
69039W        W34266  15.704  10.889  11.568
69040W        W34267  40.454  15.909  12.042
69041W        W34268  24.132   5.259   1.779
69042W        W34269  22.620  22.273  13.260
69043W        W34270  34.759  16.370  14.288
69044W        W34271   9.148  43.419  11.156
69045W        W34272  23.538  20.767   1.534
69046W        W34273   7.450   9.332   0.360
69047W        W34274  22.833  24.667  12.066
69048W        W34275  35.117  32.812  14.921
69049W        W34276  28.519  38.485  12.889
69050W        W34277  21.069   7.719  11.001
69051W        W34278  37.585  16.704   3.555
69052W        W34279  26.089   3.244   3.528
69053W        W34280  44.396   7.610   2.583
69054W        W34281   5.426  33.648  14.792
69055W        W34282  42.729  43.198  14.405
69056W        W34283  12.062  36.001   0.778
69057W        W34284  32.327  23.415  14.516
69058W        W34285  16.472  41.595  12.898
69059W        W34286  39.028  30.187  13.566
69060W        W34287  22.034  42.963  10.415
69061W        W34288  19.016   7.980   1.842
69062W        W34289  16.177   7.319  14.269
69063W        W34290  22.114  35.324  13.965
69064W        W34291  21.346  36.197   3.630
69065W        W34292  43.084  19.231  12.829
69066W        W34293  28.998  38.070  13.545
69067W        W34294  32.439  44.871   2.696
69068W        W34295  27.628  25.278   3.714
69069W        W34296  31.924  35.805   0.791
69070W        W34297  16.162  21.154  13.965
69071W        W34298  29.687  38.575  10.649
69072W        W34299  10.078  27.887   2.911
69073W        W34300  31.897  27.635  12.187
69074W        W34301  37.444  15.379   3.265
69075W        W34302   6.957  39.990   4.140
69076W        W34303  12.613   9.171  13.027
69077W        W34304  39.026   8.898  10.724
69078W        W34305  22.280   1.349  14.073
69079W        W34306  39.070   4.923   3.519
69080W        W34307  10.857  42.796   0.835
69081W        W34308  32.198   9.225  13.441
69082W        W34309  28.091  35.381   1.275
69083W        W34310  17.304  42.672   1.320
69084W        W34311  27.131  27.099  12.827
69085W        W34312   9.933  42.346   4.576
69086W        W34313  37.217  15.282  14.957
69087W        W34314  20.538  36.666  12.134
69088W        W34315  27.513  24.653   4.709
69089W        W34316  41.872  38.651  12.274
69090W        W34317  23.438  36.788  10.500
69091W        W34318  16.637  15.366   4.044
69092W        W34319  16.126  26.680   0.058
69093W        W34320  10.269  11.961  12.013
69094W        W34321  21.225   7.911   3.633
69095W        W34322  24.679  29.770  11.193
69096W        W34323  11.339  22.267   2.078
69097W        W34324  25.202  34.528   2.698
69098W        W34325   5.702  28.048   3.215
69099W        W34326  28.566   8.360  10.618
69100W        W34327  30.926  32.342   3.177
69101W        W34328  21.054  35.134  14.625
69102W        W34329   2.376  13.834  11.986
69103W        W34330  29.512  23.870  11.500
69104W        W34331  15.543  11.090   3.243
69105W        W34332  32.305  40.311   0.455
69106W        W34333   6.614  24.128   4.754
69107W        W34334  23.013   2.175  13.287
69108W        W34335   2.726  10.854   3.869
69109W        W34336  43.769  31.132   2.321
69110W        W34337  32.768  37.122  11.853
69111W        W34338   4.341  21.188  14.258
69112W        W34339  32.965  24.240   1.843
69113W        W34340  24.582  10.617   4.132
69114W        W34341  19.762   7.103  14.061
69115W        W34342  12.949  24.151   0.527
69116W        W34343  28.209  29.607  13.515
69117W        W34344   5.464   2.247  12.582
69118W        W34345  14.969  16.510   2.710
69119W        W34346  34.989   7.303   2.106
69120W        W34347  32.691  18.307   0.742
69121W        W34348  30.873  31.225  11.887
69122W        W34349  11.653  19.300   2.386
69123W        W34350  19.309  21.884  13.873
69124W        W34351  26.586  22.225   0.838
69125W        W34352  20.353  35.732  12.984
69126W        W34353  10.729  22.179   3.380
69127W        W34354  20.361   9.145  10.995
69128W        W34355   6.422  35.887  14.767
69129W        W34356   7.661  39.768   0.782
69130W        W34357  26.522  13.879  14.037
69131W        W34358   3.777  22.629  14.443
69132W        W34359  35.606  42.844   0.405
69133W        W34360   3.922  10.406   3.758
69134W        W34361  24.014  26.610  14.863
69135W        W34362  28.529  26.507  11.517
69136W        W34363  34.155   7.818   1.208
69137W        W34364  44.231  12.636  13.405
69138W        W34365   8.714  20.683   4.060
69139W        W34366  21.678   4.744  14.784
69140W        W34367  43.247  38.527  14.450
69141W        W34368  38.059  18.860  11.174
69142W        W34369  36.746  30.649  11.579
69143W        W34370   7.173  40.433  14.793
69144W        W34371   6.137  20.484   3.413
69145W        W34372  34.192  20.618  14.466
69146W        W34373  33.671  34.406   1.922
69147W        W34374  26.384  11.983   0.838
69148W        W34375   2.254   8.400   5.038
69149W        W34376  41.678   8.712  14.574
69150W        W34377  30.899  21.084  11.650
69151W        W34378  26.704  42.616  10.506
69152W        W34379  39.278  35.694   3.099
69153W        W34380  15.131   5.932   1.192
69154W        W34381  10.404   6.855  13.487
69155W        W34382  32.679   7.801  13.117
69156W        W34383  23.503  34.895   2.663
69157W        W34384  37.986  27.963   1.770
69158W        W34385  38.427  39.306  10.571
69159W        W34386   1.296  14.457   4.395
69160W        W34387  40.759  31.069   2.391
69161W        W34388  11.605   5.910   4.092
69162W        W34389  26.623  32.071  14.246
69163W        W34390   0.887  18.068  10.576
69164W        W34391  31.676  26.784   3.032
69165W        W34392   8.950  20.466  14.444
69166W        W34393   7.259  42.009   3.763
69167W        W34394  44.749  44.504  13.151
69168W        W34395   9.893   5.423   1.177
69169W        W34396  38.985  33.287  13.999
69170W        W34397  41.417   3.272  11.713
69171W        W34398  35.419  30.539  14.897
69172W        W34399   4.886  18.639  11.933
69173W        W34400  11.229   4.959  13.557
69174W        W34401  11.175  35.635   2.821
69175W        W34402  20.690  30.669  12.349
69176W        W34403  33.745   4.789   3.203
69177W        W34404  17.777   0.660  13.841
69178W        W34405  29.938  15.839  13.801
69179W        W34406  28.190  19.445   0.379
69180W        W34407  17.997  23.162  11.049
69181W        W34408  28.500  21.179  10.232
69182W        W34409  35.083  35.443  12.916
69183W        W34410   8.891  43.543   3.254
69184W        W34411   3.854  28.456   1.976
69185W        W34412  35.033   0.448   3.713
69186W        W34413  16.096  12.640  14.407
69187W        W34414  34.230  21.831   0.364
69188W        W34415  24.682  31.561  11.177
69189W        W34416   1.565  33.040   1.830
69190W        W34417  29.234  17.292   3.632
69191W        W34418  18.605  17.788  12.977
69192W        W34419   0.441  18.027   3.724
69193W        W34420  20.815  24.361  13.455
69194W        W34421  11.161   0.245   2.759
69195W        W34422   2.014   2.294   1.726
69196W        W34423  29.083  13.680   0.880
69197W        W34424  35.280  30.687  14.015
69198W        W34425  39.843  39.806   0.410
69199W        W34426  32.806  40.921   0.140
69200W        W34427  37.989  28.118   2.267
69201W        W34428  11.681  20.005  12.577
69202W        W34429  28.953  22.545   0.048
69203W        W34430  36.659  28.491   1.333
69204W        W34431   4.884  21.110   2.287
69205W        W34432  15.201   6.403  12.447
69206W        W34433   5.610  14.030   0.667
69207W        W34434  20.307  27.037   0.359
69208W        W34435  14.873  20.622   0.310
69209W        W34436   8.341  34.831   2.461
69210W        W34437  42.302   0.854  10.744
69211W        W34438   7.950  14.115  13.084
69212W        W34439  40.758  28.222   3.758
69213W        W34440  24.550   4.533  11.854
69214W        W34441   6.174  16.789  10.860
69215W        W34442  32.080  20.938   4.098
69216W        W34443  12.696   3.646  12.581
69217W        W34444   3.934   2.279   0.238
69218W        W34445   2.723  37.454   0.795
69219W        W34446  28.667  20.601   2.363
69220W        W34447  18.085  37.325   1.807
69221W        W34448  16.095  14.978  11.135
69222W        W34449   0.585   8.261   0.899
69223W        W34450  40.448   3.367  14.194
69224W        W34451  14.441  13.422   3.217
69225W        W34452  31.343  22.696  10.679
69226W        W34453  35.966  26.709   1.928
69227W        W34454   6.447  19.147   1.027
69228W        W34455  28.932  40.420   5.375
69229W        W34456  37.581  19.198   1.769
69230W        W34457  38.495  24.970  11.615
69231W        W34458  39.060  27.745  13.175
69232W        W34459  10.865   6.466  11.061
69233W        W34460   7.434   8.425  14.086
69234W        W34461  30.946  30.202   1.955
69235W        W34462  42.373  37.911  13.188
69236W        W34463  33.620  13.165   2.121
69237W        W34464   3.270  41.535   0.950
69238W        W34465   9.343  25.288   3.879
69239W        W34466  42.502  44.258   0.294
69240W        W34467   9.863  33.037   0.319
69241W        W34468  23.903  15.314   4.351
69242W        W34469   2.041   9.583  11.108
69243W        W34470  33.087  40.703   1.169
69244W        W34471  27.277  28.860   1.783
69245W        W34472  28.426  11.576   0.768
69246W        W34473  12.116  32.503  14.916
69247W        W34474  41.940  23.109   2.254
69248W        W34475  24.952  41.770   1.811
69249W        W34476  22.012   9.668   3.584
69250W        W34477   0.446  25.285  13.876
69251W        W34478  43.760  23.976  14.999
69252W        W34479  33.439  44.561  11.881
69253W        W34480  23.578  40.491   3.251
69254W        W34481   6.749  44.299   2.467
69255W        W34482  11.823  28.252  11.190
69256W        W34483  21.295  10.462  14.394
69257W        W34484  26.720   4.256   3.211
69258W        W34485  27.530  11.182   1.646
69259W        W34486  18.354  27.668  11.634
69260W        W34487  34.709  38.958   0.354
69261W        W34488   7.248  36.061  13.728
69262W        W34489  24.698  30.907   1.822
69263W        W34490  19.513  44.240   3.481
69264W        W34491  11.948  32.337  12.458
69265W        W34492  14.792  37.824   3.692
69266W        W34493  36.787  13.805  12.809
69267W        W34494  29.763  37.357   1.841
69268W        W34495   3.935  12.649  10.658
69269W        W34496  15.648  13.332   2.869
69270W        W34497  40.919   2.505  11.930
69271W        W34498  33.559   6.485  13.978
69272W        W34499  20.379  41.782  14.834
69273W        W34500   8.495  13.091  14.839
69274W        W34501  20.025  23.340   2.859
69275W        W34502  23.352  37.266  12.386
69276W        W34503  29.670  21.749   0.399
69277W        W34504  12.370  17.731  12.095
69278W        W34505  24.372   8.113   0.779
69279W        W34506  42.979  10.811   0.401
69280W        W34507  13.365   2.380   4.684
69281W        W34508  10.759  20.397  12.549
69282W        W34509  30.303  41.180   4.005
69283W        W34510  34.477  12.816   2.346
69284W        W34511  44.376   2.439  14.333
69285W        W34512   9.689  41.483  13.454
69286W        W34513   9.600  25.707   4.026
69287W        W34514  10.824  15.337  14.686
69288W        W34515  43.493  31.851   4.082
69289W        W34516  13.731   2.165  14.014
69290W        W34517   0.910  19.671  12.493
69291W        W34518  42.544  22.615   2.758
69292W        W34519  12.251  34.865   3.669
69293W        W34520  26.697   6.137  14.003
69294W        W34521  10.732  32.902  12.223
69295W        W34522  22.032  10.588  11.236
69296W        W34523  35.127  17.030  13.859
69297W        W34524  33.148  23.652  11.147
69298W        W34525  36.613  42.501   3.678
69299W        W34526  39.277  17.298   0.071
69300W        W34527   7.313  32.350   3.063
69301W        W34528  38.875  29.160   3.241
69302W        W34529  35.658   1.359  13.006
69303W        W34530  20.579  23.658  14.382
69304W        W34531  13.179  44.043  14.034
69305W        W34532  21.049  44.524  12.612
69306W        W34533  27.631  41.467   4.066
69307W        W34534  13.629  33.567  10.736
69308W        W34535  44.931  40.833   3.786
69309W        W34536  14.444   5.216   0.488
69310W        W34537  29.437  40.492   0.391
69311W        W34538  26.581   1.888  10.673
69312W        W34539   4.415  18.020   0.529
69313W        W34540  32.469  18.301   1.652
69314W        W34541  23.783   5.767   4.691
69315W        W34542  14.184  27.938   4.190
69316W        W34543  26.394   2.235  12.518
69317W        W34544  27.349  22.495  12.444
69318W        W34545  36.348  15.921   3.228
69319W        W34546   6.885  35.526   4.492
69320W        W34547   5.954  19.350   0.942
69321W        W34548  34.320   1.488   1.389
69322W        W34549  25.127  43.474  14.560
69323W        W34550   2.737  13.225   0.743
69324W        W34551  29.216  44.691   4.173
69325W        W34552  15.576  27.420   3.884
69326W        W34553   3.426  16.805  10.993
69327W        W34554   1.195   3.243   0.185
69328W        W34555  35.677  24.633   0.859
69329W        W34556  38.805  25.051   4.963
69330W        W34557  30.335  22.572  12.800
69331W        W34558  22.949   4.871   0.725
69332W        W34559   0.747  17.321  12.451
69333W        W34560  33.231  23.177  13.000
69334W        W34561  13.639  32.842  13.676
69335W        W34562  39.480   6.945  14.364
69336W        W34563  15.215   2.382  14.551
69337W        W34564  21.932   1.652  12.279
69338W        W34565  39.521  35.103  11.786
69339W        W34566  17.302  10.123  14.390
69340W        W34567  17.623   0.862  10.943
69341W        W34568   4.209  41.613   2.908
69342W        W34569  39.833   0.748  12.596
69343W        W34570  12.827  22.242  11.533
69344W        W34571   7.051  28.954   3.373
69345W        W34572  41.885  31.862   2.645
69346W        W34573  32.170  26.671   0.340
69347W        W34574  43.074  42.620  14.335
69348W        W34575  40.300  30.813   3.272
69349W        W34576  35.014  27.179  13.941
69350W        W34577  27.171   8.793   3.004
69351W        W34578   7.226   7.697   0.460
69352W        W34579  15.906  14.721   4.052
69353W        W34580  15.031  15.901  14.748
69354W        W34581  30.198   3.962  14.550
69355W        W34582  12.109  26.920   4.012
69356W        W34583  24.106  14.329   1.217
69357W        W34584  11.103  33.045  14.039
69358W        W34585  31.848  30.893  11.450
69359W        W34586  18.258  44.807   0.023
69360W        W34587  32.125  17.933   1.681
69361W        W34588  38.381   7.425   0.696
69362W        W34589  44.374   8.550  11.150
69363W        W34590  26.952  24.574   2.436
69364W        W34591  36.319  27.533  14.480
69365W        W34592   0.649   5.909  12.961
69366W        W34593  27.572  35.586   2.936
69367W        W34594  39.790   9.134   1.609
69368W        W34595  37.797   1.192  11.062
69369W        W34596  40.094  31.604  12.910
69370W        W34597  39.506  36.471   0.355
69371W        W34598  26.135  42.870   2.897
69372W        W34599  39.877  11.244   2.310
69373W        W34600   2.257  35.402  11.570
69374W        W34601  21.211  44.558   3.116
69375W        W34602   8.800   4.534   0.448
69376W        W34603  35.320  30.383  14.422
69377W        W34604  12.551  23.538   1.203
69378W        W34605  34.523   4.603   0.647
69379W        W34606  29.453   4.618  12.366
69380W        W34607  43.322  29.149   0.761
69381W        W34608  28.723  32.366   0.925
69382W        W34609  33.322  31.668   1.470
69383W        W34610  23.592   7.855   3.739
69384W        W34611  15.087  35.785   0.979
69385W        W34612  27.096  37.780   1.714
69386W        W34613  17.019  36.911  11.582
69387W        W34614   3.266  19.265   0.770
69388W        W34615  28.066  13.651  12.700
69389W        W34616  21.729  10.579   2.062
69390W        W34617  35.008  33.646   0.467
69391W        W34618  36.394  10.683  11.665
69392W        W34619  25.697   4.154   2.310
69393W        W34620  43.961  10.714  11.635
69394W        W34621  23.029  26.530   0.715
69395W        W34622  13.312  25.098  13.515
69396W        W34623  40.505   3.654   1.653
69397W        W34624  18.192  13.715   3.229
69398W        W34625  40.423   9.966   5.029
69399W        W34626  14.066  23.764   4.584
69400W        W34627  30.823   5.117  14.451
69401W        W34628  21.500  21.674   4.606
69402W        W34629   8.509  25.938   2.352
69403W        W34630  24.008  12.284   2.721
69404W        W34631  17.125  34.519  14.956
69405W        W34632  16.657  43.764   3.771
69406W        W34633  28.606  11.749   0.309
69407W        W34634  37.169  28.676  12.852
69408W        W34635  31.059  25.164  12.166
69409W        W34636  10.636  29.758  14.197
69410W        W34637   4.679  22.710  13.915
69411W        W34638  28.481  16.696   0.883
69412W        W34639  18.591  27.139  14.832
69413W        W34640   3.456   4.770   3.670
69414W        W34641  44.354  15.320  14.867
69415W        W34642  30.010  12.754  14.211
69416W        W34643  35.345   0.689   1.910
69417W        W34644  34.526   0.884  13.535
69418W        W34645  28.100  18.165   3.223
69419W        W34646  12.290  29.272  13.398
69420W        W34647  31.155   8.282  11.912
69421W        W34648  40.651   6.882   1.303
69422W        W34649   8.386  33.471  13.052
69423W        W34650  16.214  37.855   3.319
69424W        W34651  11.142  37.314   0.279
69425W        W34652  18.144   1.316  14.475
69426W        W34653  27.714  30.041  14.306
69427W        W34654  29.992  32.831   1.705
69428W        W34655   9.454  19.561   3.644
69429W        W34656  43.329  18.229  14.069
69430W        W34657  22.581  11.188  11.449
69431W        W34658  38.108  38.883  11.880
69432W        W34659  38.498  13.131   2.618
69433W        W34660  43.197  43.388  14.321
69434W        W34661  31.899  39.975   3.563
69435W        W34662  37.260   5.585  10.288
69436W        W34663  16.616  25.553  14.928
69437W        W34664  24.249   2.232   0.265
69438W        W34665  44.969  39.883   4.246
69439W        W34666   6.688  30.906   3.581
69440W        W34667   5.454  33.328  12.955
69441W        W34668   2.372   1.545  15.000
69442W        W34669   6.293   1.772   3.076
69443W        W34670   5.256  20.969  12.293
69444W        W34671   8.914  41.037   0.003
69445W        W34672  44.824  38.370  13.407
69446W        W34673  16.450   2.666   2.240
69447W        W34674  32.935  16.208   2.139
69448W        W34675  37.665  33.444  14.511
69449W        W34676  10.816  19.519  12.124
69450W        W34677  28.706  21.003  13.488
69451W        W34678  24.443  19.051  13.166
69452W        W34679  27.442  24.962   4.073
69453W        W34680  17.012  34.455  13.126
69454W        W34681  40.419  44.838   2.081
69455W        W34682  28.454  10.820  10.690
69456W        W34683  23.152  24.610   0.645
69457W        W34684   5.759  15.737   0.621
69458W        W34685   5.606  21.835  11.794
69459W        W34686   6.306   6.789   4.492
69460W        W34687  36.454   2.368  13.169
69461W        W34688  21.101  11.404   3.562
69462W        W34689  36.474  22.556   0.742
69463W        W34690  10.542  40.472  11.624
69464W        W34691  16.383  12.401   2.654
69465W        W34692  24.228  40.686   4.523
69466W        W34693  20.129  30.416   4.998
69467W        W34694  11.469   6.114   2.393
69468W        W34695   2.706  11.072   2.402
69469W        W34696  35.860  30.471  12.900
69470W        W34697  11.274   8.875   0.296
69471W        W34698   5.222  40.416   1.800
69472W        W34699   2.954  31.029  12.865
69473W        W34700  23.995   2.294  12.158
69474W        W34701  10.911  14.694  13.485
69475W        W34702  30.456  43.336   0.086
69476W        W34703  29.233  34.919   1.302
69477W        W34704  30.535  18.312  12.786
69478W        W34705   2.725   2.245  13.131
69479W        W34706  25.779  44.823   1.251
69480W        W34707   1.169  10.121  13.886
69481W        W34708  38.287   0.211   3.009
69482W        W34709  39.071  11.342   3.794
69483W        W34710  18.042   2.091   1.690
69484W        W34711  33.368  32.427  14.779
69485W        W34712  19.960  26.992  12.375
69486W        W34713   5.845   4.761  13.941
69487W        W34714  24.979  26.646   1.354
69488W        W34715  39.495  39.441  10.615
69489W        W34716  31.902  37.368   0.409
69490W        W34717  24.543  33.961  13.596
69491W        W34718  34.588  29.609   3.266
69492W        W34719  32.133  26.803   1.727
69493W        W34720   4.772  43.544  14.711
69494W        W34721  13.587   8.503  14.373
69495W        W34722  11.590  36.983   2.889
69496W        W34723  40.013  37.140  12.445
69497W        W34724   2.187  35.300   1.788
69498W        W34725   6.143  38.779   4.583
69499W        W34726  25.064  25.995  13.835
69500W        W34727  38.294  29.045  12.881
69501W        W34728  14.129  14.622   1.836
69502W        W34729  21.547  27.659   0.543
69503W        W34730  36.686  14.833  11.977
69504W        W34731  30.126  35.574   1.010
69505W        W34732  25.163  33.462  12.957
69506W        W34733   7.216  27.824   5.010
69507W        W34734  32.372  40.547  13.568
69508W        W34735  18.093  44.335   4.584
69509W        W34736   3.807  20.128  10.721
69510W        W34737  39.857  10.418   1.249
69511W        W34738   0.644  18.240   4.152
69512W        W34739   5.616  11.838  13.526
69513W        W34740  13.395   0.177  11.950
69514W        W34741  39.238  25.265  12.582
69515W        W34742  13.794  43.373  13.903
69516W        W34743  19.782  42.817  14.518
69517W        W34744  14.370  37.958  13.531
69518W        W34745  44.123   6.672  14.362
69519W        W34746   5.369   5.474  12.066
69520W        W34747   6.552  27.512   3.384
69521W        W34748  26.182  26.911   0.387
69522W        W34749  15.332  37.246  11.579
69523W        W34750   0.198  26.289  13.055
69524W        W34751  25.928  21.702   0.718
69525W        W34752   9.033  26.711   3.187
69526W        W34753   1.448  37.803  12.002
69527W        W34754  27.291  36.551   5.059
69528W        W34755  41.868  11.256   1.921
69529W        W34756  19.677   7.644   3.098
69530W        W34757   1.858  30.421   4.509
69531W        W34758  32.152  35.744  11.668
69532W        W34759  35.749  44.793   1.680
69533W        W34760  40.326  24.022   4.071
69534W        W34761   2.361  42.411   5.517
69535W        W34762  14.675  31.634   1.649
69536W        W34763  43.531  36.359   1.955
69537W        W34764  42.494  40.881   2.016
69538W        W34765  26.602   8.150  11.963
69539W        W34766  18.214  22.773  13.837
69540W        W34767  43.940  37.852  12.888
69541W        W34768  24.669   8.096  12.915
69542W        W34769  27.737  24.756  11.170
69543W        W34770  31.638   1.844   0.886
69544W        W34771  17.090  36.464  14.753
69545W        W34772   6.902   6.466   2.819
69546W        W34773   7.845  44.854  13.950
69547W        W34774  30.132  14.796   4.865
69548W        W34775  11.963  41.057  14.749
69549W        W34776  12.323   3.938   0.832
69550W        W34777  25.116   0.049  13.133
69551W        W34778  35.514  13.118  10.629
69552W        W34779  27.691  25.474  10.636
69553W        W34780   0.413  10.971   2.724
69554W        W34781  24.556  23.190  14.917
69555W        W34782  14.474   3.588  14.942
69556W        W34783  11.906  17.242  14.875
69557W        W34784  44.736  18.837  12.525
69558W        W34785  14.583  27.992  13.854
69559W        W34786   7.150  29.614  12.930
69560W        W34787  14.584  44.837   2.105
69561W        W34788  22.082  39.830   0.795
69562W        W34789  33.546  16.559   4.433
69563W        W34790   9.153   6.701  14.759
69564W        W34791  39.851  16.262  10.591
69565W        W34792  43.769  13.803   0.198
69566W        W34793  39.717   3.903  13.462
69567W        W34794   7.840  31.357   0.839
69568W        W34795   4.029  12.653   0.800
69569W        W34796  11.777  13.176  14.106
69570W        W34797   6.141   9.742   2.780
69571W        W34798  27.046  27.121  11.126
69572W        W34799   4.283  23.391  11.405
69573W        W34800   8.447   4.876  14.355
69574W        W34801  24.204  43.374   0.383
69575W        W34802  30.628  12.823   3.088
69576W        W34803  37.551   2.044   2.397
69577W        W34804  33.520   2.280  10.748
69578W        W34805  16.202  10.740  13.900
69579W        W34806  22.909  37.344   2.824
69580W        W34807   3.735  22.756  12.643
69581W        W34808  26.696  11.320  12.402
69582W        W34809  14.725   7.468  14.931
69583W        W34810  27.303  42.805   4.442
69584W        W34811  27.531  31.587  14.773
69585W        W34812  41.890  22.058   3.072
69586W        W34813  21.955  14.410  13.613
69587W        W34814  28.052   5.113  10.556
69588W        W34815  12.164  35.845  13.556
69589W        W34816  42.627   4.666  12.493
69590W        W34817   9.197  26.248  14.923
69591W        W34818  22.769  29.515   4.646
69592W        W34819  40.920   8.983  11.481
69593W        W34820  40.054  44.756  14.118
69594W        W34821  23.282  22.335   3.227
69595W        W34822   6.326  31.158   3.850
69596W        W34823  17.080  31.541  11.257
69597W        W34824   7.194  28.987  14.664
69598W        W34825   9.798   5.840   2.675
69599W        W34826  30.029  32.392   3.353
69600W        W34827  19.022   3.737   4.098
69601W        W34828  37.583  24.749   1.066
69602W        W34829   3.220  38.130  13.491
69603W        W34830  29.235  19.298   2.801
69604W        W34831  21.781  14.832  13.928
69605W        W34832   2.829  39.296   2.731
69606W        W34833  27.229  30.116  11.094
69607W        W34834  20.779  42.880  11.187
69608W        W34835  29.175  25.240  12.896
69609W        W34836  40.546  12.885  11.582
69610W        W34837  35.842  14.472  11.369
69611W        W34838   5.726  25.581   2.859
69612W        W34839  10.601   6.024  11.908
69613W        W34840  26.107  19.313   0.928
69614W        W34841  28.105  30.691  14.637
69615W        W34842   0.016  29.254  12.329
69616W        W34843  10.149  11.705  14.433
69617W        W34844  29.579   6.210   2.468
69618W        W34845  28.447   3.226  12.799
69619W        W34846  20.598  39.372  11.213
69620W        W34847   8.291  40.814   1.730
69621W        W34848  30.473  30.497  12.434
69622W        W34849  16.754  39.398   1.307
69623W        W34850  18.749  29.436  13.083
69624W        W34851  39.077  10.262  14.877
69625W        W34852   3.792  17.772   0.381
69626W        W34853  11.226  17.072  10.817
69627W        W34854  17.926  35.989   2.768
69628W        W34855   3.280  19.807   0.760
69629W        W34856  31.949  26.871   0.800
69630W        W34857  12.924  24.485   1.376
69631W        W34858  24.685   0.410  14.378
69632W        W34859  22.750  26.422   3.578
69633W        W34860  34.461  17.158   4.240
69634W        W34861  35.887  39.303  10.654
69635W        W34862   1.380  37.401  13.895
69636W        W34863  25.997   6.271   4.642
69637W        W34864  23.997  23.416  10.322
69638W        W34865   9.895  30.363  12.496
69639W        W34866  32.352   7.669  13.498
69640W        W34867  16.683   2.101   0.138
69641W        W34868   1.489  12.180   4.498
69642W        W34869  17.030   6.248   2.379
69643W        W34870  32.494   3.466   3.427
69644W        W34871  14.280   6.412   1.330
69645W        W34872  15.013  33.077  11.482
69646W        W34873  27.025  39.709  13.528
69647W        W34874   4.806  21.338  14.781
69648W        W34875  43.937   2.835   2.786
69649W        W34876  35.972  43.818  11.619
69650W        W34877  23.197  35.490  14.696
69651W        W34878  30.841  41.435   5.103
69652W        W34879  19.234   7.652  12.544
69653W        W34880   1.767  41.217  12.930
69654W        W34881  21.636  10.711   0.974
69655W        W34882  24.588  17.681  12.508
69656W        W34883  10.283  36.236   2.921
69657W        W34884  13.167  10.100  11.539
69658W        W34885  39.377   3.407   1.282
69659W        W34886  32.844  13.117   3.651
69660W        W34887   7.877   0.753  10.700
69661W        W34888  19.046  32.401  13.776
69662W        W34889  32.453  43.291   2.301
69663W        W34890  20.157  27.198   2.384
69664W        W34891  29.916  25.475  12.068
69665W        W34892  23.852  35.922  12.176
69666W        W34893   0.947  29.610   5.428
69667W        W34894  29.214  10.133   4.117
69668W        W34895   3.245  29.062  12.445
69669W        W34896   8.259   9.636   3.371
69670W        W34897  25.537   9.347   1.255
69671W        W34898  31.585  35.138  13.075
69672W        W34899  33.925  12.590   1.299
69673W        W34900  41.553   9.236   1.867
69674W        W34901  29.028  27.017   2.726
69675W        W34902  10.979  18.796  14.442
69676W        W34903   9.168  22.654   2.011
69677W        W34904  24.640   3.241  14.395
69678W        W34905  32.785   4.678   4.029
69679W        W34906  36.423  29.911   1.878
69680W        W34907  42.795  37.034   3.384
69681W        W34908  10.600  32.434  14.861
69682W        W34909  43.985  12.829  11.638
69683W        W34910  15.414  19.281  12.027
69684W        W34911  26.245  11.657   0.361
69685W        W34912  34.088  38.990   4.671
69686W        W34913  36.995  24.450  12.856
69687W        W34914  18.866  10.431  10.723
69688W        W34915  15.705  10.820   1.318
69689W        W34916  35.251  30.274  10.793
69690W        W34917  41.825   3.998   2.365
69691W        W34918  17.878  22.619   2.650
69692W        W34919  27.965  29.411  13.117
69693W        W34920  43.215   3.004  11.102
69694W        W34921   6.635  18.238   0.236
69695W        W34922  20.027  19.804   2.210
69696W        W34923  33.914  27.423  13.383
69697W        W34924   8.718   1.459   3.332
69698W        W34925  43.404  40.967  11.088
69699W        W34926  14.697  18.081   4.566
69700W        W34927   2.453   4.786   1.534
69701W        W34928  41.459   6.323  13.357
69702W        W34929  21.294  44.454   1.209
69703W        W34930   2.048  21.948   4.603
69704W        W34931  17.197   7.003  12.867
69705W        W34932  25.065   8.368   4.936
69706W        W34933  36.861  11.613   0.365
69707W        W34934  37.545  21.603   0.759
69708W        W34935  28.077  43.819  13.438
69709W        W34936  23.025  22.629  13.083
69710W        W34937  14.816  38.367   0.424
69711W        W34938  21.919  38.393   1.781
69712W        W34939  12.720  36.250   2.290
69713W        W34940  14.443  33.714   3.346
69714W        W34941  37.981   6.859   0.977
69715W        W34942   6.883  38.042   0.919
69716W        W34943   1.058  14.189  10.338
69717W        W34944  13.837  25.147  11.648
69718W        W34945  12.557  25.035  11.276
69719W        W34946  44.661  37.597  10.355
69720W        W34947   1.704  21.772   1.302
69721W        W34948  41.692  41.406   3.620
69722W        W34949   2.793  17.474  12.111
69723W        W34950  34.394  23.641   2.986
69724W        W34951   1.735  19.695   0.021
69725W        W34952  16.550   5.406   3.271
69726W        W34953  25.419   3.249  12.237
69727W        W34954  28.906  22.638  10.540
69728W        W34955  43.120  40.558   3.516
69729W        W34956   6.236   5.263  12.241
69730W        W34957  35.722   4.454   4.903
69731W        W34958  10.204  31.389   2.097
69732W        W34959  39.721  36.652  11.539
69733W        W34960  32.012  30.939   5.109
69734W        W34961  12.615  26.530   1.230
69735W        W34962   6.338  35.299  12.148
69736W        W34963  15.022  18.301  12.561
69737W        W34964  11.146  35.775   2.253
69738W        W34965  29.681   0.280   4.758
69739W        W34966  24.744  30.124   1.822
69740W        W34967   1.478  12.596  11.550
69741W        W34968   4.802  17.864  13.861
69742W        W34969  23.943  26.722  10.704
69743W        W34970  24.526  16.495   2.280
69744W        W34971  16.895  30.084  13.594
69745W        W34972  24.436  40.813  10.750
69746W        W34973  27.178   6.900  12.534
69747W        W34974  11.737  17.547   1.655
69748W        W34975  27.290  10.778  11.934
69749W        W34976  38.618  11.676  14.058
69750W        W34977  31.683  11.640   2.760
69751W        W34978  21.421  18.703  12.782
69752W        W34979  20.009  44.311  12.002
69753W        W34980   9.091   5.140   2.822
69754W        W34981  23.910  37.877   1.382
69755W        W34982  29.641  37.943  12.456
69756W        W34983  18.018   1.862   4.921
69757W        W34984   2.987   2.770  11.550
69758W        W34985   5.831  11.164   2.771
69759W        W34986  32.918   2.845  12.879
69760W        W34987   6.730  31.417  11.051
69761W        W34988  11.199  26.686   4.617
69762W        W34989   4.819   0.278   3.213
69763W        W34990  26.675  12.620   2.348
69764W        W34991  42.747  30.183   0.516
69765W        W34992   6.217  20.010   3.180
69766W        W34993  16.760  29.509   4.893
69767W        W34994  26.119  44.218   3.053
69768W        W34995  42.406  39.213  13.804
69769W        W34996  12.351   9.612  10.808
69770W        W34997  30.383  39.229   1.539
69771W        W34998  15.213   5.772   0.191
69772W        W34999   2.978  32.552   0.769
69773W        W35000  24.805  13.741   2.413
69774W        W35001  14.793  35.861  14.821
69775W        W35002   8.692  42.656  12.892
69776W        W35003  29.081  21.273  10.466
69777W        W35004  18.668  10.128   2.774
69778W        W35005   5.588  38.446  11.322
69779W        W35006  10.050  15.469  12.530
69780W        W35007  40.156  15.752   1.891
69781W        W35008  13.587   6.404  14.416
69782W        W35009  15.276  23.752  12.529
69783W        W35010  27.956   0.330  13.338
69784W        W35011  34.106  19.174   0.895
69785W        W35012   8.014  10.630  11.426
69786W        W35013   3.443  35.401  14.264
69787W        W35014   9.615  19.709   4.118
69788W        W35015  28.796  17.345  12.458
69789W        W35016   9.591  42.883   0.531
69790W        W35017  16.344   7.345  13.340
69791W        W35018   7.634  16.778  11.900
69792W        W35019  21.314  35.106  10.807
69793W        W35020  16.053  37.550   4.216
69794W        W35021  12.588  13.975   3.177
69795W        W35022  18.546  41.444  11.192
69796W        W35023  29.549   7.004   0.453
69797W        W35024  24.156   4.957   2.243
69798W        W35025  32.650  35.619  12.587
69799W        W35026  36.120   5.267   9.676
69800W        W35027  33.002   8.568   3.140
69801W        W35028  19.147  10.584  13.944
69802W        W35029  41.557  24.599  10.927
69803W        W35030   0.502  25.836  13.137
69804W        W35031  22.075  25.493   4.383
69805W        W35032  44.363  26.153   2.819
69806W        W35033  32.974   0.925   4.350
69807W        W35034  17.845   7.307  13.134
69808W        W35035  39.329  36.891  12.345
69809W        W35036   7.988  24.623   3.436
69810W        W35037   8.941  24.068   2.351
69811W        W35038  41.431  15.146   0.761
69812W        W35039  40.465  34.320   0.752
69813W        W35040  31.566   4.061  10.526
69814W        W35041  34.474   3.399   0.480
69815W        W35042   0.373  34.283  11.877
69816W        W35043  38.862  27.409  11.212
69817W        W35044  32.422  18.780   0.270
69818W        W35045  35.109   4.327  13.723
69819W        W35046  27.488  43.108  10.852
69820W        W35047  31.556  38.479   4.975
69821W        W35048   8.352  31.168  11.774
69822W        W35049  11.753  26.185   1.262
69823W        W35050   3.286   0.826  14.256
69824W        W35051  10.102   8.504   4.160
69825W        W35052  40.581  10.187   0.854
69826W        W35053  43.035   3.137   4.221
69827W        W35054  20.258  23.139  11.964
69828W        W35055  44.544  28.969  10.700
69829W        W35056  29.143  44.336   2.917
69830W        W35057  17.267  43.963   0.819
69831W        W35058  44.861  23.344   4.024
69832W        W35059  12.729  13.017   3.555
69833W        W35060  22.888  23.324  11.147
69834W        W35061   1.273   0.202   1.479
69835W        W35062  19.288  32.663   1.996
69836W        W35063   1.538   1.698   3.198
69837W        W35064  36.375  23.720  11.038
69838W        W35065  19.207  16.303  11.162
69839W        W35066  34.853   1.637   1.810
69840W        W35067  36.411  39.475   3.933
69841W        W35068  21.775  13.095  13.955
69842W        W35069   6.597   8.122   2.672
69843W        W35070   4.348  28.592  14.430
69844W        W35071  36.498  34.409  10.933
69845W        W35072  44.465  22.162  14.256
69846W        W35073  41.865   6.216  14.482
69847W        W35074  25.651  19.884  10.308
69848W        W35075  15.671  43.536   2.397
69849W        W35076  37.712   3.444   4.118
69850W        W35077  23.835   3.594   2.123
69851W        W35078  26.205  16.766   1.471
69852W        W35079   3.171  14.581  13.042
69853W        W35080   1.682   3.299  11.561
69854W        W35081  19.127  41.877   1.058
69855W        W35082  30.390  23.739  11.459
69856W        W35083  26.157   7.805   4.268
69857W        W35084  11.653  28.740  11.199
69858W        W35085  42.896  41.618   0.435
69859W        W35086  25.340  33.575   4.948
69860W        W35087  38.305  38.718  13.978
69861W        W35088  22.259   1.462   1.702
69862W        W35089  21.464  37.931  10.551
69863W        W35090  30.615   9.751  13.889
69864W        W35091  39.402  32.981  11.494
69865W        W35092  31.359  41.034  11.043
69866W        W35093  21.782  31.141  14.153
69867W        W35094  26.145  25.204   4.790
69868W        W35095  22.762  25.007  10.687
69869W        W35096  20.731  25.100  10.733
69870W        W35097  10.908   3.893   1.788
69871W        W35098  10.736  25.117   0.190
69872W        W35099  32.170  25.186   3.815
69873W        W35100  29.127  23.469   1.344
69874W        W35101   7.728  25.269  13.877
69875W        W35102  27.418  44.570   0.601
69876W        W35103  12.576   2.298   0.133
69877W        W35104  37.747   7.389   2.622
69878W        W35105  44.230  18.695   1.229
69879W        W35106  17.425  29.221  11.276
69880W        W35107   6.331   0.063   2.393
69881W        W35108  37.999  26.405  12.936
69882W        W35109  36.256   7.442   3.997
69883W        W35110   8.339  44.667  13.884
69884W        W35111  40.711  40.337  13.413
69885W        W35112  24.969  42.402   2.093
69886W        W35113  18.193  21.000  14.533
69887W        W35114   7.376   4.962  13.763
69888W        W35115   3.163  12.714   1.695
69889W        W35116  37.021  22.513  14.991
69890W        W35117  20.897   8.336   3.724
69891W        W35118  39.481  22.874  12.286
69892W        W35119  37.392  11.380  14.010
69893W        W35120  10.646  38.893   4.206
69894W        W35121  39.292   4.210  13.417
69895W        W35122  22.076   2.480   0.695
69896W        W35123  25.640   0.668  11.508
69897W        W35124  39.018  27.097   2.942
69898W        W35125  20.606  40.862   3.264
69899W        W35126   2.382  28.913   0.513
69900W        W35127  32.171  38.944   2.040
69901W        W35128   3.794  35.353   3.374
69902W        W35129  29.590  20.037   0.865
69903W        W35130  27.483  24.037  13.486
69904W        W35131  28.729  12.242  14.533
69905W        W35132   4.337  16.109   2.349
69906W        W35133  28.673   5.313   1.258
69907W        W35134   2.035   4.195  14.985
69908W        W35135  13.554  25.038  11.239
69909W        W35136  42.221  29.498  10.734
69910W        W35137  28.358   9.440  10.722
69911W        W35138  29.043  41.726  11.485
69912W        W35139  16.423  42.384   2.397
69913W        W35140   7.369  25.866   3.802
69914W        W35141  30.131  15.264   2.747
69915W        W35142  29.263  27.077  14.277
69916W        W35143  37.124  28.468  10.728
69917W        W35144  19.067  24.937   1.407
69918W        W35145  16.338  11.642   0.005
69919W        W35146  18.582  33.658   1.830
69920W        W35147  13.988  22.475  13.215
69921W        W35148  39.516  24.125   2.328
69922W        W35149  30.891  11.511  13.924
69923W        W35150  40.960  34.251   3.208
69924W        W35151  40.135   5.385  13.817
69925W        W35152  11.164   5.972  12.523
69926W        W35153  39.867  12.232   4.326
69927W        W35154  38.124  20.560  13.742
69928W        W35155  22.095  35.946   1.303
69929W        W35156   4.225   4.783  13.341
69930W        W35157  26.002  41.852   2.885
69931W        W35158  35.898  12.787  12.152
69932W        W35159  43.394  16.239  13.065
69933W        W35160  26.050  43.896  12.712
69934W        W35161  24.563  17.536   4.343
69935W        W35162  33.153   7.240  14.739
69936W        W35163  31.669  19.808   0.920
69937W        W35164  17.712  35.080   0.678
69938W        W35165   7.259  16.276  14.236
69939W        W35166   8.126  17.140  10.698
69940W        W35167   9.792  41.051   0.173
69941W        W35168  12.621  19.063  12.140
69942W        W35169  11.616  14.733   3.675
69943W        W35170   2.661  34.631  12.372
69944W        W35171  22.468  32.495  11.989
69945W        W35172  14.304   6.900   3.566
69946W        W35173  41.318   5.666  12.474
69947W        W35174  24.542  28.390   1.326
69948W        W35175   9.872  17.672   1.328
69949W        W35176  31.029   2.480   2.657
69950W        W35177  35.618   1.005   0.185
69951W        W35178   1.256  24.942  10.058
69952W        W35179  37.455  17.884   1.415
69953W        W35180  30.978  18.319  13.727
69954W        W35181  36.177   1.356  13.160
69955W        W35182  29.561  18.204   2.187
69956W        W35183  20.618  12.132  11.516
69957W        W35184   4.606  18.816  12.417
69958W        W35185  19.698  32.096   1.712
69959W        W35186  31.224  23.451  13.096
69960W        W35187   9.169  40.335   3.782
69961W        W35188  44.667  43.829  12.058
69962W        W35189  36.351  12.621  13.896
69963W        W35190   4.249  42.238  12.436
69964W        W35191  28.034   9.060   2.926
69965W        W35192  27.262  38.007   3.394
69966W        W35193   0.531  34.572  11.486
69967W        W35194  27.597  31.956   1.659
69968W        W35195  28.423  26.929  13.506
69969W        W35196   5.542  38.041   3.342
69970W        W35197  21.241  26.433  14.244
69971W        W35198  16.327  14.846  12.439
69972W        W35199  35.947   4.023  13.404
69973W        W35200   8.261  18.458   2.424
69974W        W35201  29.926  39.786  11.486
69975W        W35202  12.655  32.469   1.654
69976W        W35203  32.743  10.333  13.844
69977W        W35204  33.495  43.077  10.389
69978W        W35205  34.641  34.557   3.884
69979W        W35206  24.568  41.027   1.971
69980W        W35207  37.547  30.918  11.660
69981W        W35208  18.139  27.231  13.936
69982W        W35209   5.627  16.596   0.099
69983W        W35210  36.128   5.018  13.566
69984W        W35211  26.616  43.313  11.069
69985W        W35212  13.574  16.743   3.119
69986W        W35213  30.660  27.073   2.371
69987W        W35214  29.945  20.558  11.170
69988W        W35215  25.436  43.097  13.984
69989W        W35216  40.355  15.107   0.921
69990W        W35217  42.276   4.598   1.429
69991W        W35218  31.694  12.010   3.611
69992W        W35219  40.790   6.023   0.215
69993W        W35220  31.363   7.904  13.463
69994W        W35221  44.341   1.902  10.579
69995W        W35222  29.936  34.149  11.107
69996W        W35223  13.279  40.286  12.552
69997W        W35224   7.651  38.380   3.354
69998W        W35225  28.450  23.177  12.848
69999W        W35226  22.302   8.862   1.834
70000W        W35227  32.380  40.996  13.885
70001W        W35228  32.572  39.604   4.070
70002W        W35229   3.664  31.083   2.220
70003W        W35230  39.519  39.468   4.203
70004W        W35231  18.858  26.481  12.036
70005W        W35232  15.952  44.736   4.523
70006W        W35233  32.654  32.374  13.445
70007W        W35234  35.842   0.375  14.490
70008W        W35235  43.591  15.355   3.749
70009W        W35236  24.233   2.800   2.750
70010W        W35237   4.271  28.589  10.668
70011W        W35238  20.601  13.798   3.282
70012W        W35239  12.855   1.114   3.368
70013W        W35240  31.754  26.464   2.633
70014W        W35241   8.528  10.140  10.996
70015W        W35242  16.824  11.619  12.395
70016W        W35243  28.513   7.230  11.685
70017W        W35244  34.549  29.758   0.365
70018W        W35245  14.223   9.872   1.438
70019W        W35246  44.436  40.950   3.229
70020W        W35247  20.912  21.611  13.784
70021W        W35248  30.419  22.812  14.533
70022W        W35249   7.854  32.221   4.975
70023W        W35250  15.524  18.211  11.492
70024W        W35251  19.500   7.680  12.998
70025W        W35252  17.099   0.729   0.357
70026W        W35253  17.607  14.876  14.927
70027W        W35254   3.822  20.577  13.850
70028W        W35255  33.347  30.104   2.310
70029W        W35256  19.188  29.543   0.950
70030W        W35257  35.659  15.705  12.558
70031W        W35258   4.092   1.530  14.441
70032W        W35259  16.671  43.313  10.713
70033W        W35260   1.383  27.169  14.103
70034W        W35261  23.258  40.342  14.877
70035W        W35262  41.271  42.969   1.642
70036W        W35263  18.771  30.072   2.804
70037W        W35264  37.383  39.955   2.152
70038W        W35265  34.603  36.926  12.287
70039W        W35266  12.679  37.327  11.190
70040W        W35267  28.512  33.543   2.482
70041W        W35268  34.943  26.882   0.349
70042W        W35269  32.478  13.879  12.039
70043W        W35270  31.586   7.499   3.817
70044W        W35271   6.196  15.738  11.923
70045W        W35272   2.294  44.346   0.506
70046W        W35273  25.359  44.311  13.085
70047W        W35274  25.560  36.876  12.458
70048W        W35275  40.101  12.711   2.295
70049W        W35276   3.510   9.611  12.846
70050W        W35277  33.542   2.794  10.753
70051W        W35278  28.916  11.379  14.036
70052W        W35279  37.893  40.549   2.791
70053W        W35280  16.495   3.346   4.203
70054W        W35281  21.210  36.827   4.118
70055W        W35282  24.119   0.972   1.318
70056W        W35283  19.368  14.659  13.986
70057W        W35284  40.908  27.339   2.347
70058W        W35285  36.099   1.493   3.741
70059W        W35286   5.288  25.331  12.609
70060W        W35287  11.094  32.057   1.477
70061W        W35288  19.064  37.477   4.395
70062W        W35289  18.634  38.460   1.559
70063W        W35290   0.571  37.885   0.412
70064W        W35291  44.918  44.978   1.322
70065W        W35292   6.863  20.967   0.368
70066W        W35293  16.855   0.346   1.989
70067W        W35294  34.978  14.562  12.225
70068W        W35295  31.755  33.026  11.224
70069W        W35296  11.582  36.048  11.823
70070W        W35297   9.644  22.640  14.243
70071W        W35298   1.716  44.994   2.746
70072W        W35299  24.717   1.371   1.739
70073W        W35300  30.623  17.298   1.202
70074W        W35301  34.204  22.282  14.158
70075W        W35302   0.556  17.005  10.478
70076W        W35303  44.956   5.101   1.806
70077W        W35304  25.820  43.948   3.359
70078W        W35305   3.720  28.939   0.189
70079W        W35306  20.977   2.176   4.075
70080W        W35307  43.247  15.580  14.005
70081W        W35308  24.306  22.231   4.166
70082W        W35309  13.604  37.370  13.421
70083W        W35310   2.292  31.366  11.047
70084W        W35311   3.008  30.938   1.333
70085W        W35312  33.263  13.606  13.164
70086W        W35313  25.174  19.997  11.631
70087W        W35314   7.081   7.705  12.118
70088W        W35315  43.564  43.793  11.210
70089W        W35316  17.375  27.054   2.550
70090W        W35317  38.931  23.548  12.100
70091W        W35318  33.626  22.139  12.923
70092W        W35319   5.104   1.262  11.032
70093W        W35320  31.612  17.589  11.150
70094W        W35321  22.035   6.286  11.127
70095W        W35322  18.532  40.912  12.026
70096W        W35323  32.291  34.441   4.973
70097W        W35324  16.887  40.780  14.436
70098W        W35325   5.744  44.835   0.143
70099W        W35326  17.021  40.430   4.494
70100W        W35327  19.074  31.600  14.419
70101W        W35328  38.271  37.472   4.179
70102W        W35329  19.515   9.712  10.597
70103W        W35330  25.162   7.851  12.095
70104W        W35331  19.761   5.844   3.445
70105W        W35332  39.378  36.028  12.189
70106W        W35333  40.319   9.614  13.859
70107W        W35334   8.167  43.344  11.094
70108W        W35335  29.063   4.220  10.644
70109W        W35336  21.514  35.558   1.695
70110W        W35337  40.050  32.896   0.420
70111W        W35338  33.832  10.205  11.132
70112W        W35339  42.041   2.518   0.451
70113W        W35340  36.750  26.058   0.968
70114W        W35341  22.468  21.195   0.871
70115W        W35342  10.394   6.019   1.841
70116W        W35343  38.345  10.713   0.803
70117W        W35344  24.257  11.772  10.684
70118W        W35345  42.523   6.634  14.467
70119W        W35346   7.079  29.600   4.232
70120W        W35347  27.128  31.432   3.017
70121W        W35348  17.176  31.925  10.852
70122W        W35349  23.558  14.777   3.043
70123W        W35350  25.768  34.033  11.564
70124W        W35351   7.642  44.317   2.776
70125W        W35352  43.683  33.420  10.859
70126W        W35353  12.223  20.132  11.643
70127W        W35354  16.577  43.915  14.416
70128W        W35355  20.101  10.932   0.771
70129W        W35356  30.094   3.219  12.649
70130W        W35357   1.437  13.987  14.332
70131W        W35358  15.509   4.251  13.847
70132W        W35359  35.878  36.114   2.676
70133W        W35360  35.816  23.231   1.688
70134W        W35361  37.002   6.635   2.290
70135W        W35362  22.032  38.502   0.283
70136W        W35363  34.255  17.681   3.852
70137W        W35364  27.364   3.613   3.249
70138W        W35365  12.240  19.399  14.900
70139W        W35366  33.674  40.425   4.546
70140W        W35367  19.118  20.518  14.409
70141W        W35368   4.342  15.857  13.578
70142W        W35369   1.445   3.692  11.235
70143W        W35370  44.775  11.310   0.923
70144W        W35371  41.930   9.424   2.194
70145W        W35372  34.745  40.293   1.433
70146W        W35373  33.281   0.915  12.173
70147W        W35374   5.401  16.442  10.656
70148W        W35375  43.710  26.941  13.630
70149W        W35376  35.273  16.536  11.039
70150W        W35377   0.435  29.739   0.829
70151W        W35378  38.863   8.159  11.950
70152W        W35379  26.306  43.985   5.005
70153W        W35380   6.026   4.020   3.142
70154W        W35381   7.642  34.895   0.293
70155W        W35382   2.276  17.242  12.050
70156W        W35383  35.757   1.802   4.644
70157W        W35384  24.784  32.425   1.653
70158W        W35385  10.993  20.589  11.788
70159W        W35386  25.625  24.212   3.449
70160W        W35387  32.025  32.325   0.802
70161W        W35388   1.776  34.690   4.630
70162W        W35389  21.030  29.072   4.388
70163W        W35390   4.737  26.162   3.144
70164W        W35391  11.038  41.805   1.346
70165W        W35392  40.223  26.497   4.138
70166W        W35393  39.826   4.634   3.260
70167W        W35394   6.141   3.210   0.369
70168W        W35395  27.699  35.433   4.308
70169W        W35396  15.776  32.810   5.012
70170W        W35397  20.861  17.543   0.567
70171W        W35398  34.340  18.738  14.386
70172W        W35399  15.353  29.861   3.337
70173W        W35400  26.683  33.617   2.666
70174W        W35401   5.226  36.069   4.078
70175W        W35402  14.063  32.369   2.750
70176W        W35403  12.288  12.841   3.939
70177W        W35404   3.220  29.561   1.155
70178W        W35405  30.430  35.212   2.843
70179W        W35406   8.809  38.771  12.309
70180W        W35407   0.468   5.884   0.899
70181W        W35408  39.087   8.492  12.970
70182W        W35409  31.923   1.574   4.116
70183W        W35410   4.212  35.094  11.282
70184W        W35411  20.419  44.497  14.006
70185W        W35412  20.563  21.601  14.504
70186W        W35413  42.459  38.054  14.402
70187W        W35414  30.456  22.530   0.007
70188W        W35415  34.243  32.158  12.070
70189W        W35416  41.287  10.141   0.037
70190W        W35417  18.925  13.620   3.900
70191W        W35418   2.876  44.596   2.355
70192W        W35419  13.052  28.816   1.341
70193W        W35420  35.447  38.483   1.932
70194W        W35421  14.641  33.842  13.199
70195W        W35422   6.730  10.368  13.821
70196W        W35423   3.380  27.378   2.833
70197W        W35424  41.014  22.884   0.360
70198W        W35425  13.997  31.399  13.056
70199W        W35426   0.088  33.731   3.741
70200W        W35427   3.180   1.935  11.076
70201W        W35428  12.985   6.674   4.266
70202W        W35429  20.519  22.164   0.005
70203W        W35430  24.454   3.846   4.249
70204W        W35431  33.627   7.421  12.974
70205W        W35432  16.273  10.311   2.314
70206W        W35433  28.815  12.659   3.147
70207W        W35434  31.473  39.343   2.819
70208W        W35435  39.931  10.577   3.049
70209W        W35436  33.963  31.928  14.328
70210W        W35437   9.218  22.300   0.877
70211W        W35438  34.012  39.777   1.922
70212W        W35439   1.491  17.192  12.882
70213W        W35440  29.915  26.857   3.145
70214W        W35441  34.857  37.562   3.254
70215W        W35442  10.651   8.407   2.914
70216W        W35443  28.975   2.426  14.331
70217W        W35444  22.105   6.699  12.615
70218W        W35445  16.095   2.230  13.982
70219W        W35446  19.727  35.615   3.615
70220W        W35447  11.450  15.214   3.216
70221W        W35448  14.751  41.920   1.920
70222W        W35449  40.497  37.540   3.268
70223W        W35450  17.896  23.678  11.059
70224W        W35451  10.897  31.913   2.768
70225W        W35452  31.004  14.784   2.742
70226W        W35453  27.466  18.511   2.293
70227W        W35454  11.658  10.176   3.388
70228W        W35455  13.632  43.750   4.239
70229W        W35456  19.681  10.377   2.823
70230W        W35457  32.554  20.778   1.401
70231W        W35458   1.762  25.159  12.813
70232W        W35459  30.149  12.729   2.166
70233W        W35460  10.249  18.715  11.929
70234W        W35461  34.393   3.305  13.033
70235W        W35462   6.272   5.460   3.700
70236W        W35463  30.888  31.120  11.043
70237W        W35464  10.458   0.229  11.115
70238W        W35465   5.211  14.785  12.919
70239W        W35466  43.556   0.445  13.146
70240W        W35467   5.357   4.358  14.966
70241W        W35468   8.404  16.501   2.327
70242W        W35469   6.895   4.822   2.308
70243W        W35470   4.285  15.054  14.401
70244W        W35471  25.447  18.857   4.660
70245W        W35472   4.489  32.083   3.894
70246W        W35473  41.346   0.141   3.190
70247W        W35474  38.894  10.955  10.719
70248W        W35475   1.245  28.472   1.260
70249W        W35476  44.296  36.099  14.726
70250W        W35477  40.240  42.409  10.724
70251W        W35478  26.443  14.369   2.172
70252W        W35479  10.859  36.170  13.139
70253W        W35480  38.803  16.171  11.488
70254W        W35481  27.755  41.839  11.172
70255W        W35482  24.019  31.617   3.683
70256W        W35483  24.139  18.493   1.268
70257W        W35484  35.726  30.866  13.851
70258W        W35485   9.180  42.591  12.147
70259W        W35486  29.117  35.091  13.993
70260W        W35487  22.163  22.694   2.715
70261W        W35488  13.388   4.467   3.846
70262W        W35489  10.617  36.048  11.142
70263W        W35490  36.925  44.200  11.637
70264W        W35491  27.598  44.190   0.950
70265W        W35492  41.743   3.615   2.722
70266W        W35493  21.010  28.547  14.113
70267W        W35494  33.125   9.891  13.326
70268W        W35495  27.264  21.785  12.894
70269W        W35496  17.547   7.248  14.482
70270W        W35497  34.595  30.397   2.811
70271W        W35498  14.934  40.939   2.730
70272W        W35499  23.451  10.432   0.934
70273W        W35500  22.231   8.106   3.600
70274W        W35501   4.399  28.043  10.710
70275W        W35502   5.204  27.556  14.494
70276W        W35503  32.434   4.579  13.942
70277W        W35504   0.635  39.838  12.889
70278W        W35505  31.388  35.974   0.956
70279W        W35506  44.014   0.917   0.819
70280W        W35507  40.479  36.946  12.601
70281W        W35508  30.557  15.554   2.557
70282W        W35509  40.622   1.135   0.858
70283W        W35510   4.459   6.055  12.980
70284W        W35511  42.086  18.081   1.295
70285W        W35512  28.945  38.038   1.607
70286W        W35513  26.734   1.925   1.349
70287W        W35514  24.592  24.196  11.744
70288W        W35515  17.274   8.225   3.247
70289W        W35516  40.222  24.492  12.916
70290W        W35517   4.267   6.261   3.643
70291W        W35518  25.181   3.701  14.911
70292W        W35519   2.878   8.418   1.454
70293W        W35520  30.387  23.936  10.020
70294W        W35521  37.974   2.810   9.500
70295W        W35522   0.448   9.434  13.564
70296W        W35523  12.643  36.993  10.649
70297W        W35524  41.803  44.287   0.741
70298W        W35525   1.576  34.642  10.736
70299W        W35526   6.166  41.989  10.580
70300W        W35527  29.455  14.818   0.377
70301W        W35528   9.737  17.870  10.981
70302W        W35529  38.386  44.341   1.413
70303W        W35530  31.657  13.493   3.660
70304W        W35531   0.294   2.461  11.669
70305W        W35532  31.286  12.587   1.426
70306W        W35533  37.985   0.947  14.073
70307W        W35534  42.309  34.882  11.661
70308W        W35535  42.079  22.282  12.161
70309W        W35536  15.274   2.539  12.522
70310W        W35537  15.184  36.569   4.716
70311W        W35538  17.334  28.616   0.021
70312W        W35539  40.511  43.667   2.421
70313W        W35540   4.962  30.126   4.506
70314W        W35541  39.847   8.450   1.009
70315W        W35542  30.603   2.667  12.931
70316W        W35543   3.780  22.883   0.431
70317W        W35544   0.385  28.092   2.735
70318W        W35545  11.949  31.304   5.470
70319W        W35546  41.770  37.022   1.650
70320W        W35547   9.379  26.609  11.241
70321W        W35548  28.166  18.082  11.201
70322W        W35549  30.992  22.187  13.689
70323W        W35550   9.850  38.777  10.347
70324W        W35551   6.500  44.307  12.622
70325W        W35552  20.330  15.840  13.872
70326W        W35553   7.173  37.941   2.381
70327W        W35554  22.239  34.034  12.856
70328W        W35555  13.654  20.071  12.119
70329W        W35556  27.824  42.993   3.918
70330W        W35557   3.076  35.166  12.974
70331W        W35558   6.371  38.576  10.669
70332W        W35559  38.528   4.664  13.015
70333W        W35560  29.018  23.750   3.626
70334W        W35561  22.977  14.691  11.184
70335W        W35562  16.817  36.929  12.053
70336W        W35563  33.222  12.724   9.871
70337W        W35564  27.166  33.075   2.221
70338W        W35565  30.388  12.303  13.046
70339W        W35566   3.271  30.461  11.787
70340W        W35567  19.192  37.874   2.563
70341W        W35568  44.890  43.566  13.933
70342W        W35569  39.953  36.671   4.076
70343W        W35570  15.152  31.188  11.378
70344W        W35571   6.711   7.193   2.310
70345W        W35572  32.943  19.612   3.273
70346W        W35573  34.595  21.117   0.586
70347W        W35574  10.405  42.618  14.343
70348W        W35575  28.182  18.981   2.828
70349W        W35576  23.065  18.425  12.424
70350W        W35577  12.173  15.350  14.473
70351W        W35578  24.135  44.904   4.008
70352W        W35579  35.454  20.471   3.488
70353W        W35580  28.702  10.189   1.230
70354W        W35581  19.168  27.360   3.902
70355W        W35582  25.022  43.990  13.335
70356W        W35583   6.977  15.902  12.963
70357W        W35584  27.278  13.731   4.943
70358W        W35585  21.245  43.694  14.489
70359W        W35586  30.965   0.320   4.754
70360W        W35587  23.222  40.929   0.903
70361W        W35588  41.977  19.779   1.765
70362W        W35589  41.771   9.266   3.650
70363W        W35590  18.412   9.363  13.368
70364W        W35591  11.417  32.216  14.746
70365W        W35592  29.609  24.779  11.129
70366W        W35593   2.770  19.127   1.831
70367W        W35594  38.059  44.768  10.531
70368W        W35595  15.283  25.705   2.583
70369W        W35596  20.963  27.115  11.613
70370W        W35597  10.167  17.390  12.554
70371W        W35598   2.839  41.871   0.825
70372W        W35599  14.671  11.400  11.631
70373W        W35600  33.984  26.949  11.996
70374W        W35601  27.443  29.925  11.514
70375W        W35602  26.016  11.778   4.107
70376W        W35603  33.760  36.711   9.972
70377W        W35604  43.083  41.363  13.376
70378W        W35605   7.804  22.155  13.070
70379W        W35606   4.705  43.011  11.530
70380W        W35607  31.426  31.612   5.147
70381W        W35608  12.228   3.787  12.321
70382W        W35609   1.648  10.267  13.965
70383W        W35610   6.842  39.111  14.040
70384W        W35611   3.367  25.152   4.495
70385W        W35612  30.988  30.097  11.033
70386W        W35613  14.443  19.486  12.100
70387W        W35614  13.676  36.077  11.965
70388W        W35615   2.492   5.491  12.094
70389W        W35616  42.482   2.430   1.826
70390W        W35617   9.322  25.194   3.353
70391W        W35618  21.431   2.286  12.839
70392W        W35619   5.534   1.288   3.703
70393W        W35620  42.783  24.776   2.661
70394W        W35621   9.226   7.664   2.925
70395W        W35622  29.001  16.569   0.351
70396W        W35623  30.500  41.566   3.219
70397W        W35624   1.185  12.217   0.719
70398W        W35625   5.004  41.514   0.485
70399W        W35626  11.591  18.513   1.844
70400W        W35627  41.511  21.345  10.763
70401W        W35628  31.161  23.651  13.982
70402W        W35629   6.385   4.241   4.615
70403W        W35630  22.009  33.561  12.924
70404W        W35631   8.944  25.124   0.005
70405W        W35632  19.707  43.059   1.222
70406W        W35633  14.842  11.897   3.073
70407W        W35634  44.877  33.610   2.746
70408W        W35635  25.424   7.713  14.980
70409W        W35636  40.768  20.219  13.444
70410W        W35637  22.578  41.934  12.979
70411W        W35638  12.590  30.703   5.219
70412W        W35639   7.258  44.216   0.171
70413W        W35640  16.494  23.593   0.932
70414W        W35641  24.995  43.926  14.291
70415W        W35642   0.309  32.877  13.295
70416W        W35643  26.973   6.820  11.195
70417W        W35644  17.474  20.831  13.518
70418W        W35645  24.445  33.802   2.824
70419W        W35646  34.116  11.339   0.293
70420W        W35647   6.787  41.877   1.288
70421W        W35648   3.208  15.350   0.010
70422W        W35649  32.001  11.826  14.243
70423W        W35650   1.684  17.946   3.312
70424W        W35651  34.395   4.486  14.818
70425W        W35652   5.008  24.765  12.109
70426W        W35653  34.117  30.047   1.618
70427W        W35654  41.584  23.132  13.997
70428W        W35655  40.835  27.543  14.526
70429W        W35656  28.253  35.561  14.713
70430W        W35657  22.211  18.698  13.398
70431W        W35658  20.699  14.148   3.672
70432W        W35659  31.094  14.203   0.918
70433W        W35660  31.924  26.539  12.675
70434W        W35661  44.323  19.248   1.865
70435W        W35662   9.328  27.169   0.915
70436W        W35663   2.265  30.513   0.374
70437W        W35664  38.887   1.304  12.423
70438W        W35665   4.948  43.924   1.728
70439W        W35666  21.373   6.140   2.803
70440W        W35667   3.392   8.126  13.149
70441W        W35668  32.283  29.801   2.155
70442W        W35669  28.907  16.257  11.526
70443W        W35670  30.083  34.624   0.741
70444W        W35671  43.036  16.265  10.674
70445W        W35672   2.385  27.678   2.232
70446W        W35673   2.116  33.621   2.249
70447W        W35674  43.222  13.101   1.898
70448W        W35675  30.867  39.288   1.764
70449W        W35676  37.388   8.347   1.837
70450W        W35677  44.440  28.051  13.937
70451W        W35678  34.527  17.202   3.732
70452W        W35679  29.869  15.169   3.165
70453W        W35680  12.248  31.253   0.652
70454W        W35681   8.292  44.736  13.118
70455W        W35682  18.117  26.913  14.834
70456W        W35683  14.389  36.617   4.142
70457W        W35684  20.033  19.841  11.309
70458W        W35685  15.729  17.579   1.325
70459W        W35686   9.189  33.330   4.770
70460W        W35687  32.086  41.836   3.128
70461W        W35688  40.674  33.507   5.037
70462W        W35689  35.813  37.333   2.199
70463W        W35690  16.517  39.132  12.694
70464W        W35691  34.436  31.615   4.366
70465W        W35692  30.526  32.070  14.558
70466W        W35693   1.762  16.692   0.506
70467W        W35694   0.365  18.521  12.079
70468W        W35695   1.183  27.735   1.876
70469W        W35696  43.352  14.785   1.648
70470W        W35697  33.048   2.302   2.442
70471W        W35698   7.426  39.389  14.749
70472W        W35699  18.165   3.390  11.175
70473W        W35700  32.403   8.329  14.796
70474W        W35701  36.052   0.911   3.169
70475W        W35702   3.249  38.994  10.669
70476W        W35703  39.367  10.223   1.231
70477W        W35704  42.824   5.706  13.984
70478W        W35705  37.577  13.362   2.296
70479W        W35706   9.630  23.457   4.133
70480W        W35707  18.488  25.758  14.106
70481W        W35708  10.933  17.934  14.628
70482W        W35709  35.397  23.505  12.651
70483W        W35710   0.880   9.610  11.622
70484W        W35711  32.591  28.996   4.139
70485W        W35712  10.501  39.499  13.553
70486W        W35713  42.850  44.865   1.414
70487W        W35714   4.241  28.016   3.276
70488W        W35715   3.677   3.421  10.467
70489W        W35716   4.510   5.637   2.333
70490W        W35717   5.198  19.683  10.502
70491W        W35718  33.877   1.191  13.239
70492W        W35719  13.865  26.085   0.044
70493W        W35720   7.161  18.542  13.791
70494W        W35721   4.927  18.667   0.449
70495W        W35722  30.880  13.692  13.727
70496W        W35723  22.638   7.675  11.862
70497W        W35724  42.037  24.424  11.674
70498W        W35725  40.967  31.555  13.422
70499W        W35726  37.994   6.871   4.069
70500W        W35727  30.839  18.901  12.002
70501W        W35728  22.177  23.059   0.098
70502W        W35729  21.134  25.535   3.108
70503W        W35730  10.585  42.037   2.311
70504W        W35731  19.025  28.488  12.577
70505W        W35732  10.676  38.556   0.826
70506W        W35733  19.805  19.635  14.481
70507W        W35734  18.686  26.701   2.721
70508W        W35735  22.493   8.966   0.101
70509W        W35736  32.461   6.167  11.430
70510W        W35737  24.299  10.679  11.167
70511W        W35738  26.626  17.263  13.918
70512W        W35739  28.193   8.879  14.259
70513W        W35740  18.028   5.874  13.045
70514W        W35741  37.546  19.312  12.661
70515W        W35742  37.442  34.022   2.421
70516W        W35743  26.843  13.085  11.054
70517W        W35744  33.683  30.047  11.862
70518W        W35745  34.648  12.571   1.918
70519W        W35746  28.490   2.777   1.354
70520W        W35747  31.156  36.399  14.727
70521W        W35748  44.858  41.883  10.666
70522W        W35749  23.460  33.507  11.683
70523W        W35750  41.800  29.998   4.914
70524W        W35751  16.146  34.682  14.435
70525W        W35752   2.971  36.763   2.647
70526W        W35753  40.128   0.990   2.248
70527W        W35754   8.161   8.909  14.390
70528W        W35755   8.311  35.370  10.726
70529W        W35756   3.215   5.679   4.572
70530W        W35757  23.421  24.196   3.284
70531W        W35758   5.477   4.780   4.648
70532W        W35759  34.500  17.333   4.706
70533W        W35760  26.959  10.104   1.876
70534W        W35761  39.425  39.637  12.626
70535W        W35762  31.652  25.092   1.227
70536W        W35763  27.420  15.285   3.723
70537W        W35764  12.246  21.806   4.805
70538W        W35765   2.495  20.053   4.088
70539W        W35766   8.816  22.166   2.738
70540W        W35767  19.755  33.020   0.500
70541W        W35768  38.132  19.233   1.666
70542W        W35769  24.089  37.109  14.317
70543W        W35770  40.772  32.831  14.129
70544W        W35771  18.693  24.694  12.448
70545W        W35772  21.540  22.039   3.776
70546W        W35773  26.763  29.754   3.814
70547W        W35774  24.535   3.359  10.804
70548W        W35775  33.356  33.419  11.131
70549W        W35776  14.763  11.116   3.680
70550W        W35777  41.363   8.009  11.553
70551W        W35778  43.214  31.161  12.975
70552W        W35779  14.549  19.251   3.286
70553W        W35780  23.588   4.407   4.497
70554W        W35781  12.166  23.701   4.320
70555W        W35782  40.865  23.276  11.824
70556W        W35783  36.165  39.021   0.987
70557W        W35784  11.069   4.865  14.088
70558W        W35785  10.203   4.806  10.521
70559W        W35786  23.773   5.666   3.823
70560W        W35787  38.349  22.768   1.305
70561W        W35788  13.939  29.510  14.345
70562W        W35789  26.961  43.824  13.887
70563W        W35790  21.935  40.165  11.128
70564W        W35791   7.777  32.595   3.169
70565W        W35792  12.377  18.698   2.854
70566W        W35793  43.885  33.730  12.896
70567W        W35794  11.846  13.680  13.520
70568W        W35795  16.212   7.167  12.023
70569W        W35796  23.233  30.765   4.155
70570W        W35797  22.140  17.060   4.021
70571W        W35798  17.936   5.174   1.701
70572W        W35799  24.049   1.675  12.812
70573W        W35800  44.809   1.646  10.594
70574W        W35801  19.673  26.525   3.247
70575W        W35802  25.591  43.921  12.469
70576W        W35803   8.408  23.638  12.613
70577W        W35804  36.605  30.947   2.119
70578W        W35805   4.857  21.085  14.329
70579W        W35806  43.466  37.031   1.020
70580W        W35807  33.015  18.000  11.272
70581W        W35808  37.490  43.706  12.281
70582W        W35809   3.246  25.121   3.626
70583W        W35810   5.314  12.171   3.448
70584W        W35811   4.214  22.072  14.857
70585W        W35812  14.165  38.069  13.995
70586W        W35813  20.810  13.767  10.601
70587W        W35814  28.731   0.732  13.482
70588W        W35815  38.305   3.141   5.475
70589W        W35816  17.875  44.481  14.960
70590W        W35817  32.023  34.863  12.894
70591W        W35818  26.983  31.581  11.060
70592W        W35819   8.326  31.982  13.321
70593W        W35820  12.305  21.025  11.189
70594W        W35821   9.294   3.736   3.177
70595W        W35822  36.783   1.755   9.973
70596W        W35823   9.949  17.297  14.959
70597W        W35824  39.017  37.776   0.271
70598W        W35825   7.144  42.004   0.422
70599W        W35826  23.563  14.479  10.773
70600W        W35827  15.495  14.871   0.824
70601W        W35828   6.734  25.092   3.074
70602W        W35829  13.864  11.887   1.792
70603W        W35830  42.017  30.356  10.569
70604W        W35831  28.674  16.309   3.718
70605W        W35832  23.582  15.265  12.251
70606W        W35833  26.369  42.077   5.028
70607W        W35834  10.372  43.260   4.053
70608W        W35835  43.797  10.985   2.192
70609W        W35836   4.875  17.960  11.548
70610W        W35837  18.776  41.104  14.344
70611W        W35838  31.447   6.713  14.801
70612W        W35839   0.969   7.875   3.077
70613W        W35840  41.281  32.048   0.232
70614W        W35841  36.205  26.500   4.479
70615W        W35842   6.430  33.510   4.183
70616W        W35843  27.502  20.510  14.744
70617W        W35844  27.178  31.464   2.114
70618W        W35845  20.547  12.678  14.480
70619W        W35846  17.725  33.761   0.038
70620W        W35847   6.291  41.791   3.742
70621W        W35848  24.697  34.343  11.094
70622W        W35849  15.669  43.045   4.960
70623W        W35850   4.676  36.334  11.244
70624W        W35851  43.285  24.759   3.943
70625W        W35852  12.207  19.965   2.044
70626W        W35853   6.698  26.749  11.578
70627W        W35854  36.420   7.235   4.437
70628W        W35855  34.611  38.413  13.608
70629W        W35856  39.159  34.790  11.586
70630W        W35857   4.257   7.556  12.972
70631W        W35858  40.082   4.194  12.170
70632W        W35859   4.581  13.173   0.362
70633W        W35860  17.412   1.069   2.166
70634W        W35861  37.065   0.981   1.393
70635W        W35862   2.922  29.026   4.657
70636W        W35863  30.886   2.699  14.535
70637W        W35864   5.697  13.214   2.158
70638W        W35865  40.342  20.627  14.115
70639W        W35866  11.203  39.041  13.237
70640W        W35867  22.139  35.329   1.851
70641W        W35868   2.838  27.534   3.565
70642W        W35869  35.046  19.512   2.683
70643W        W35870  43.760   5.301  11.146
70644W        W35871  40.559  12.817   4.235
70645W        W35872  35.003  38.943  14.884
70646W        W35873  39.555  23.592  10.714
70647W        W35874  39.003  11.312   2.827
70648W        W35875  11.697  27.722  12.090
70649W        W35876   4.633  38.284   1.685
70650W        W35877  41.218  43.728   0.361
70651W        W35878   8.885  31.028  14.816
70652W        W35879  30.763  12.779  13.209
70653W        W35880  23.979  19.680   2.109
70654W        W35881  20.240   0.151   2.180
70655W        W35882  37.479  36.643   0.658
70656W        W35883  24.398  25.970  14.384
70657W        W35884  12.694  31.884   0.282
70658W        W35885  13.159  33.011  13.875
70659W        W35886   8.657  18.408   3.249
70660W        W35887  11.473  35.252   0.300
70661W        W35888  21.660  41.305   0.340
70662W        W35889  29.636  28.512  13.898
70663W        W35890  15.470  39.515  13.113
70664W        W35891  19.716  18.199  13.523
70665W        W35892   8.310  38.078  12.593
70666W        W35893  37.049  43.481  12.135
70667W        W35894  18.013  35.074   4.622
70668W        W35895  11.525  39.443   1.511
70669W        W35896   6.207  25.064   3.122
70670W        W35897  30.734  22.943   3.707
70671W        W35898  26.012  40.662  12.939
70672W        W35899  25.658  31.660  14.383
70673W        W35900   8.459  32.439  12.566
70674W        W35901  21.721  38.028  13.459
70675W        W35902   4.905   5.920   0.779
70676W        W35903  13.021  26.488   3.177
70677W        W35904  25.538  21.936   4.908
70678W        W35905  28.940  37.888   4.586
70679W        W35906  37.325  34.850  13.520
70680W        W35907   8.147  27.444  11.174
70681W        W35908  10.639  42.093  12.061
70682W        W35909   5.200  26.033   0.075
70683W        W35910  36.985   7.672  11.929
70684W        W35911  35.479  13.990   4.033
70685W        W35912   0.706  18.502  10.818
70686W        W35913   0.125  23.459   0.114
70687W        W35914  13.184  29.727  13.370
70688W        W35915   2.882  31.100   2.894
70689W        W35916   3.751  42.998   2.747
70690W        W35917  16.239  41.481   1.476
70691W        W35918  43.441  37.150  12.410
70692W        W35919  39.275  44.171   4.489
70693W        W35920   0.848  16.595  13.916
70694W        W35921  12.790  21.401   2.910
70695W        W35922  32.472  31.175  14.406
70696W        W35923  39.180  23.401   0.485
70697W        W35924   7.836  35.370  13.386
70698W        W35925  22.230   7.325  11.109
70699W        W35926  39.632  14.426   5.063
70700W        W35927  29.915  42.974   0.706
70701W        W35928  26.506  26.008   3.762
70702W        W35929   1.157  15.398   2.706
70703W        W35930   6.718  27.682  10.770
70704W        W35931   4.318  42.665   1.346
70705W        W35932   4.761  27.253   2.101
70706W        W35933  12.163  40.570   1.801
70707W        W35934   1.065  23.628  11.473
70708W        W35935  42.077  25.558   3.212
70709W        W35936  37.038  31.098   1.891
70710W        W35937  10.125  28.572   4.674
70711W        W35938   9.869  32.996   1.976
70712W        W35939   9.843  14.165   4.336
70713W        W35940  11.653   6.078  12.387
70714W        W35941  21.647  25.173   3.820
70715W        W35942   5.415  29.735   2.815
70716W        W35943   3.005   5.790   4.090
70717W        W35944  11.755   8.528  13.038
70718W        W35945  19.524  28.485   4.185
70719W        W35946  15.985  28.186   1.059
70720W        W35947  32.075  32.101   2.410
70721W        W35948  38.557   2.839   4.224
70722W        W35949  13.695  33.823   1.404
70723W        W35950  22.156  31.518  14.148
70724W        W35951  15.752   1.015  13.989
70725W        W35952  20.048  21.099  12.955
70726W        W35953  38.564   5.615  13.213
70727W        W35954  11.007  43.325  13.867
70728W        W35955  28.432   2.308  12.545
70729W        W35956  36.579   1.812  11.951
70730W        W35957  31.037  25.866  13.914
70731W        W35958  36.073   5.269  10.660
70732W        W35959  41.246  39.289   4.502
70733W        W35960  18.773  33.418   0.850
70734W        W35961  17.870  31.199   1.321
70735W        W35962  32.328   4.625  13.408
70736W        W35963  22.632  26.721  12.147
70737W        W35964  41.228  24.240   1.848
70738W        W35965  10.543  17.454  10.799
70739W        W35966  23.032  21.082  13.975
70740W        W35967   3.235  35.868  11.965
70741W        W35968  14.190  36.554   3.580
70742W        W35969  23.146  21.241   3.256
70743W        W35970  31.457  20.697  13.983
70744W        W35971  24.568   9.262   2.100
70745W        W35972  15.587  20.739   2.318
70746W        W35973  12.689  26.863   2.728
70747W        W35974  23.815  20.581   0.588
70748W        W35975  26.542   8.274   2.323
70749W        W35976  42.930  37.631   1.614
70750W        W35977   6.677  41.742  11.574
70751W        W35978  31.498  25.575  10.197
70752W        W35979   6.654  11.273  14.934
70753W        W35980   2.301  31.315   9.828
70754W        W35981  44.975  17.199   1.792
70755W        W35982  39.400  27.930   4.631
70756W        W35983  27.978  16.214  11.525
70757W        W35984   1.252  35.794   4.212
70758W        W35985  14.931  36.861  13.738
70759W        W35986   9.184   0.020   4.077
70760W        W35987  12.648  36.738  13.389
70761W        W35988  40.670  27.020  13.900
70762W        W35989  33.613  11.622   4.939
70763W        W35990  44.859  39.311  14.352
70764W        W35991  12.350  31.369  11.181
70765W        W35992  42.776  23.490  13.430
70766W        W35993  28.315  17.042  13.753
70767W        W35994  30.286   5.889   2.792
70768W        W35995   4.310  37.079  10.956
70769W        W35996  43.579  22.778   0.283
70770W        W35997   4.189   2.108   4.583
70771W        W35998  39.966  37.596  14.775
70772W        W35999  17.019  29.095  13.720
70773W        W36000   9.917  13.532  13.445
70774W        W36001   5.694  43.920   1.392
70775W        W36002  44.669  32.042   2.662
70776W        W36003  44.484  17.529   2.900
70777W        W36004  39.606  35.908  14.542
70778W        W36005  10.596  14.276  13.405
70779W        W36006  43.780  38.335   3.577
70780W        W36007  19.152   0.870   0.236
70781W        W36008   6.418  12.615   2.652
70782W        W36009  24.711  12.368   4.604
70783W        W36010  37.071  38.784   0.796
70784W        W36011  11.801  30.999  12.461
70785W        W36012  31.732  14.941  14.832
70786W        W36013  18.819   2.212   3.701
70787W        W36014   3.817   1.546  10.802
70788W        W36015  37.355   4.692   1.187
70789W        W36016  43.713  30.280  12.545
70790W        W36017   1.995  11.257   4.540
70791W        W36018  16.522  13.230   1.825
70792W        W36019   9.286   6.731   1.875
70793W        W36020   9.066  27.152  14.547
70794W        W36021   4.268  39.445  13.355
70795W        W36022   9.726  38.909  14.448
70796W        W36023  20.571  42.913   0.789
70797W        W36024  22.980  11.173   0.426
70798W        W36025  24.328   6.222   3.662
70799W        W36026  35.865  20.563  14.906
70800W        W36027   5.863  32.693  12.280
70801W        W36028  18.550  30.706  14.751
70802W        W36029   5.767   5.675  13.400
70803W        W36030  31.059  35.893  12.888
70804W        W36031  20.608  43.658   2.374
70805W        W36032  14.600  37.988   0.763
70806W        W36033  32.420  15.601  12.572
70807W        W36034  38.951   9.464  13.850
70808W        W36035  16.686   5.606   2.804
70809W        W36036  18.002   7.141  11.448
70810W        W36037  12.249  31.803   4.474
70811W        W36038  40.833  40.133   0.779
70812W        W36039  40.298  44.011  12.422
70813W        W36040  34.454   8.920   2.269
70814W        W36041  11.288   5.844  14.039
70815W        W36042  20.928  32.637   3.018
70816W        W36043  34.207  41.395  13.762
70817W        W36044  37.621   5.438  14.013
70818W        W36045  31.301  33.960   0.105
70819W        W36046  25.227   5.385  14.709
70820W        W36047   4.241  31.845  12.440
70821W        W36048  21.000  21.350   2.271
70822W        W36049  32.098   7.349   2.237
70823W        W36050  43.766  22.309  11.126
70824W        W36051  20.084  11.523   1.243
70825W        W36052  36.470  27.266   0.302
70826W        W36053   3.455   9.891  11.479
70827W        W36054  14.017   2.298  14.924
70828W        W36055   2.657  44.979  14.484
70829W        W36056  33.052  29.494  12.936
70830W        W36057  28.288  37.098   9.864
70831W        W36058  32.824  39.088  13.542
70832W        W36059  26.237  38.988  14.516
70833W        W36060  40.017  34.691  13.259
70834W        W36061   6.762   5.847   0.301
70835W        W36062  15.951   0.589   3.210
70836W        W36063  32.662   1.910  13.500
70837W        W36064  20.163  27.253  13.338
70838W        W36065  15.589  44.481  13.787
70839W        W36066  37.014  13.109   4.462
70840W        W36067  14.336  42.038   4.570
70841W        W36068  31.955  16.045   3.289
70842W        W36069  13.354  16.378   2.819
70843W        W36070  22.342   0.829   1.851
70844W        W36071  33.028  31.319  11.189
70845W        W36072  33.056   1.770   3.206
70846W        W36073  18.195  10.677  13.824
70847W        W36074  31.128   4.399   0.818
70848W        W36075  36.643   6.356   0.150
70849W        W36076  14.937  31.972   0.184
70850W        W36077  43.498  13.383  10.775
70851W        W36078   8.736  20.344   4.885
70852W        W36079  13.223  36.107   3.140
70853W        W36080  24.722  16.685   3.187
70854W        W36081  25.458  29.080   4.153
70855W        W36082  44.567  38.976   0.409
70856W        W36083  17.635  14.214   3.160
70857W        W36084  37.516  39.404   3.902
70858W        W36085   2.273   1.146  12.043
70859W        W36086  13.513  39.251   4.414
70860W        W36087  28.500   3.328  13.277
70861W        W36088  20.638  13.368  13.335
70862W        W36089  30.974  13.354   1.192
70863W        W36090  36.461  29.463  10.826
70864W        W36091  37.375  35.842  13.402
70865W        W36092  40.425  41.076   1.085
70866W        W36093  41.466  31.519   4.253
70867W        W36094  22.409  43.359  11.148
70868W        W36095   0.910   0.988   0.642
70869W        W36096  39.805  34.871  13.865
70870W        W36097   6.184  42.888  10.608
70871W        W36098  25.946   1.903   3.319
70872W        W36099  30.125  11.916   3.003
70873W        W36100  25.966  27.635  14.855
70874W        W36101  37.607  11.775   3.658
70875W        W36102  40.488  23.700   0.352
70876W        W36103  13.944  29.990   4.821
70877W        W36104   4.260  13.605   3.388
70878W        W36105  19.310   6.168  11.487
70879W        W36106  10.092  14.632   4.526
70880W        W36107  23.528  12.659   1.672
70881W        W36108  15.021  14.230  13.117
70882W        W36109  38.714  32.478   4.195
70883W        W36110  43.629   0.686  10.468
70884W        W36111  19.661  39.602  13.322
70885W        W36112   5.945  31.578   3.284
70886W        W36113  33.544  17.505  12.495
70887W        W36114  26.562  27.632  13.566
70888W        W36115  40.425  30.998   1.996
70889W        W36116  42.273   9.235   3.668
70890W        W36117   3.717  16.220  12.106
70891W        W36118  13.154  41.562  14.597
70892W        W36119  10.087   5.938   4.506
70893W        W36120  26.618  15.663   0.361
70894W        W36121  38.955  25.157  11.476
70895W        W36122  17.568  22.748  14.575
70896W        W36123  15.323  39.999   2.679
70897W        W36124  41.168  28.962   0.568
70898W        W36125  24.150  11.764   1.046
70899W        W36126   1.186  23.293  14.427
70900W        W36127  23.704  34.000  10.632
70901W        W36128  32.585  44.088   1.915
70902W        W36129  40.522  37.349  10.519
70903W        W36130  41.551  24.853   3.659
70904W        W36131  18.190  31.897  12.920
70905W        W36132  28.582  22.760   2.941
70906W        W36133  28.242   4.327  12.156
70907W        W36134  35.466  26.029   1.607
70908W        W36135  20.036   6.354  14.701
70909W        W36136  10.628  12.681   0.108
70910W        W36137  29.297  33.447   3.877
70911W        W36138  39.585   6.359  13.707
70912W        W36139  42.894   5.010   0.787
70913W        W36140  24.734  39.043  11.152
70914W        W36141  26.747  16.645  11.003
70915W        W36142  26.319   3.051  12.869
70916W        W36143  20.126  13.594   3.141
70917W        W36144  24.261  41.525  10.395
70918W        W36145  13.999  31.140   0.413
70919W        W36146  39.084  18.432  10.784
70920W        W36147   1.814   3.750   3.912
70921W        W36148  23.629  40.142   1.348
70922W        W36149  39.307  21.973  12.386
70923W        W36150   6.442  26.684  13.869
70924W        W36151   8.948  18.768   2.704
70925W        W36152  17.666   8.931   0.155
70926W        W36153   2.020   7.712  14.671
70927W        W36154  35.000  34.486  14.846
70928W        W36155   1.975   2.870  11.570
70929W        W36156   6.880   6.854   1.486
70930W        W36157  16.856  22.558   4.655
70931W        W36158  40.431  21.384  14.889
70932W        W36159  40.518  40.086  12.954
70933W        W36160  38.939  34.283   3.866
70934W        W36161  37.444   1.711   1.999
70935W        W36162   0.031  12.212  12.412
70936W        W36163  38.947  16.890  11.208
70937W        W36164   2.199   4.641  13.534
70938W        W36165  16.264  21.943   1.254
70939W        W36166  43.267  32.622   1.752
70940W        W36167   8.708  36.996  13.371
70941W        W36168   5.368  30.846  11.243
70942W        W36169  23.410   2.334  14.979
70943W        W36170   7.268  29.297  12.001
70944W        W36171  26.563   5.794  10.258
70945W        W36172   0.915  19.675  14.364
70946W        W36173   3.265  38.128   0.010
70947W        W36174  34.433  28.633   2.043
70948W        W36175  24.019   3.380  11.917
70949W        W36176  22.598  11.816  12.905
70950W        W36177  44.387   9.369  11.541
70951W        W36178  42.954   6.364  12.722
70952W        W36179   7.742  23.802   0.005
70953W        W36180  23.125  28.303   2.368
70954W        W36181  38.226  25.180   0.199
70955W        W36182   7.370  37.963  11.989
70956W        W36183  42.756   6.905  13.466
70957W        W36184  38.618  21.449   3.539
70958W        W36185   0.347  37.661  11.105
70959W        W36186  37.405  14.787  14.931
70960W        W36187  10.704   1.675   0.894
70961W        W36188  18.226  11.180   4.840
70962W        W36189  25.746  19.179   0.194
70963W        W36190  23.273  13.894  11.666
70964W        W36191  15.239  19.078  13.927
70965W        W36192  15.254  10.160  13.433
70966W        W36193  23.721  41.375  10.895
70967W        W36194   1.801  40.881  14.466
70968W        W36195  17.642  22.452   0.543
70969W        W36196  32.478  27.663   0.698
70970W        W36197  29.943   1.866   0.789
70971W        W36198  44.267   3.261   1.686
70972W        W36199  32.706  35.995  13.879
70973W        W36200  40.417  40.371   3.321
70974W        W36201  42.259  27.198   1.155
70975W        W36202  24.649   6.265   4.204
70976W        W36203  35.480  42.868   2.714
70977W        W36204   7.640  13.169   0.332
70978W        W36205   8.816  44.552   4.146
70979W        W36206  20.611  20.650   1.889
70980W        W36207   0.846  22.240   5.412
70981W        W36208  44.415  25.460   2.331
70982W        W36209  42.384  14.364  10.709
70983W        W36210  24.201  27.194  10.721
70984W        W36211  18.284  23.922  11.587
70985W        W36212  34.074  35.566  14.279
70986W        W36213  17.099  30.045  12.119
70987W        W36214  40.558  43.821   0.791
70988W        W36215  26.576  22.297   4.542
70989W        W36216  17.347  26.187   4.253
70990W        W36217  26.696  24.071   0.771
70991W        W36218  11.712  12.025  11.597
70992W        W36219  41.338  17.378   4.571
70993W        W36220  11.362  24.981   0.833
70994W        W36221  34.642  13.719   4.201
70995W        W36222  40.918   1.513   2.242
70996W        W36223   8.745  12.323  11.090
70997W        W36224  16.719   0.012   3.430
70998W        W36225  14.172  27.732   4.709
70999W        W36226   6.365  26.931  12.542
71000W        W36227  14.167  44.737  10.963
71001W        W36228  11.149   3.254   1.397
71002W        W36229   6.272  39.636  14.332
71003W        W36230   5.308  20.792   2.144
71004W        W36231   7.728  32.937  11.048
71005W        W36232  39.651   8.669   0.210
71006W        W36233   3.545  15.883  12.918
71007W        W36234  42.380  20.309  10.629
71008W        W36235  16.103  22.972  13.797
71009W        W36236  20.696  30.226  14.708
71010W        W36237  13.928   9.109   0.943
71011W        W36238  23.224  26.105   1.802
71012W        W36239   4.266  12.728  11.980
71013W        W36240  13.538  22.790  13.250
71014W        W36241  18.210  24.298   2.816
71015W        W36242  13.619  30.180   1.938
71016W        W36243   9.794  45.000  13.887
71017W        W36244  20.129  31.923   1.468
71018W        W36245   5.865   4.115  10.552
71019W        W36246  43.315   0.705  13.979
71020W        W36247   6.884  30.258   4.628
71021W        W36248   8.923  27.241  10.965
71022W        W36249  42.827  14.160  11.980
71023W        W36250  43.488  36.586   3.285
71024W        W36251  36.370  28.191   0.349
71025W        W36252  12.824  25.505  11.160
71026W        W36253  12.328   3.715   4.972
71027W        W36254  12.762   3.771  10.603
71028W        W36255   0.254  34.559   4.551
71029W        W36256  24.329  44.016  12.839
71030W        W36257  31.549  30.864  14.527
71031W        W36258  28.020  37.979   0.188
71032W        W36259  26.618   2.825   0.553
71033W        W36260  25.505  22.057   3.890
71034W        W36261  38.571  35.695   0.892
71035W        W36262  24.682   1.245   2.672
71036W        W36263  42.782   7.277  13.049
71037W        W36264  44.731  36.798   2.837
71038W        W36265  17.104  13.412  12.535
71039W        W36266  42.128   5.734   2.784
71040W        W36267  35.988  28.660   2.349
71041W        W36268  44.815   3.904   2.896
71042W        W36269  19.291  27.718  10.698
71043W        W36270  43.216  30.859  13.390
71044W        W36271  14.334  40.395   3.696
71045W        W36272  37.007  13.378   4.888
71046W        W36273  24.095   4.457   2.143
71047W        W36274  39.487  26.501  10.632
71048W        W36275  32.529  23.502   1.736
71049W        W36276  11.962  34.360   4.870
71050W        W36277   0.765  20.740   1.390
71051W        W36278  11.639  10.252   0.395
71052W        W36279   0.295  18.328  11.607
71053W        W36280  32.897  32.634   1.091
71054W        W36281   1.738  12.077  12.041
71055W        W36282  27.925  39.439  13.027
71056W        W36283  28.066   6.164  10.934
71057W        W36284  29.346  26.500   2.135
71058W        W36285   0.323  24.915   0.742
71059W        W36286  30.822   8.620   3.694
71060W        W36287  27.789  11.412   0.332
71061W        W36288  40.548  10.318  13.015
71062W        W36289  23.058  19.355   1.709
71063W        W36290  36.045   3.318  11.676
71064W        W36291  23.208  13.219   3.646
71065W        W36292   0.565   5.779   4.302
71066W        W36293  15.772  28.550   4.693
71067W        W36294  34.175   8.827  10.813
71068W        W36295  25.966  36.479  12.467
71069W        W36296  37.556  15.610   0.631
71070W        W36297  19.601   8.804   0.527
71071W        W36298   1.452  19.042  12.025
71072W        W36299  36.909  40.525  11.962
71073W        W36300  39.446  17.815   2.878
71074W        W36301   5.127  32.797  11.135
71075W        W36302  44.773  25.501   0.633
71076W        W36303  36.420   1.382   4.145
71077W        W36304  11.738   8.966  13.940
71078W        W36305  10.910   9.867   0.829
71079W        W36306   9.603  44.470  12.003
71080W        W36307  40.491  27.656   2.412
71081W        W36308   7.654   6.810  13.924
71082W        W36309  18.867  39.039   3.303
71083W        W36310  27.233   1.735   4.238
71084W        W36311   0.832  41.081   3.169
71085W        W36312  24.482  12.635   2.042
71086W        W36313  31.240   8.313   3.663
71087W        W36314  11.277   8.857  11.422
71088W        W36315  34.650  10.617  12.596
71089W        W36316  32.863   8.270  12.593
71090W        W36317  28.631  34.852  12.701
71091W        W36318  33.971  44.482   4.573
71092W        W36319   2.468  16.672  12.136
71093W        W36320  43.321  20.038   0.468
71094W        W36321  21.619   2.932   2.294
71095W        W36322  30.186   6.193  10.790
71096W        W36323   9.624  41.354  12.533
71097W        W36324  41.600  17.173   0.378
71098W        W36325  25.757  28.053  12.489
71099W        W36326  40.353  13.584   1.854
71100W        W36327  44.690  42.635   3.680
71101W        W36328  24.070  28.993   3.451
71102W        W36329  21.425  21.758  13.788
71103W        W36330  38.020   6.108   2.998
71104W        W36331   8.405   2.308  11.145
71105W        W36332  43.453  35.399  12.061
71106W        W36333   2.471  10.703   0.828
71107W        W36334  34.101  20.724   4.690
71108W        W36335  30.439  35.823  10.728
71109W        W36336  32.145  42.495  14.759
71110W        W36337  29.332  25.688   4.581
71111W        W36338   0.029  38.823  13.506
71112W        W36339   7.205   2.463   3.763
71113W        W36340  27.142  18.648  11.404
71114W        W36341  44.999  38.358   2.618
71115W        W36342  12.824  16.818  13.366
71116W        W36343  36.322  43.264  12.958
71117W        W36344  33.162  31.937  14.710
71118W        W36345  10.263  37.367   3.154
71119W        W36346  38.086   9.695   1.899
71120W        W36347  31.681  41.594  12.091
71121W        W36348  21.497  39.575   2.580
71122W        W36349  21.982  11.747  13.919
71123W        W36350  44.262  28.437   4.037
71124W        W36351   2.167  14.099  10.711
71125W        W36352  42.336   2.529  13.356
71126W        W36353  27.432  31.023  10.515
71127W        W36354  14.643   4.729  12.979
71128W        W36355  13.337  20.646  12.933
71129W        W36356  32.533  41.074   2.247
71130W        W36357  15.674  27.424  10.726
71131W        W36358  34.517  41.579   1.063
71132W        W36359  35.866  32.506  12.804
71133W        W36360   8.389  23.161  12.406
71134W        W36361  34.935  24.223   3.493
71135W        W36362  35.752  23.649   3.186
71136W        W36363   6.793   4.699   0.983
71137W        W36364  11.360  12.187   1.613
71138W        W36365  36.435  36.101   1.808
71139W        W36366  16.332  19.584  11.729
71140W        W36367  27.596  16.171  14.073
71141W        W36368  10.875  14.617   1.334
71142W        W36369  14.129  33.381   3.622
71143W        W36370  26.469  20.254  11.730
71144W        W36371  26.763  15.985  14.521
71145W        W36372  11.746  17.795  11.171
71146W        W36373   3.066  17.607   2.368
71147W        W36374   6.007   9.242   3.369
71148W        W36375   2.024  27.369  12.511
71149W        W36376   8.379  35.776   0.267
71150W        W36377  39.475  44.343  14.797
71151W        W36378  39.313   7.731  10.773
71152W        W36379  44.808  12.885  11.148
71153W        W36380  27.390  42.088   0.273
71154W        W36381  15.422  13.072   4.089
71155W        W36382   4.419  38.707   1.906
71156W        W36383  43.794   4.384   3.075
71157W        W36384  31.109  16.251   0.358
71158W        W36385  21.079  44.609  10.747
71159W        W36386  33.568  41.060  14.365
71160W        W36387  30.213  42.856   3.637
71161W        W36388  23.123   4.458   1.840
71162W        W36389  22.053  39.493   2.334
71163W        W36390   0.241  37.156  11.159
71164W        W36391   5.338  19.028   4.008
71165W        W36392  32.133  39.731   1.121
71166W        W36393  14.410  38.527  13.916
71167W        W36394  35.963  30.106   1.225
71168W        W36395  26.356  19.141  13.346
71169W        W36396   6.807  23.742   4.452
71170W        W36397  28.697   9.815   0.339
71171W        W36398  26.143  38.347   1.380
71172W        W36399   7.643   7.299  13.743
71173W        W36400   1.998  33.926  13.793
71174W        W36401   0.538  39.541   4.393
71175W        W36402  32.941  20.925   1.815
71176W        W36403   1.342  11.962   2.693
71177W        W36404  43.899  11.129   4.695
71178W        W36405   2.911  12.223  11.711
71179W        W36406  32.894  37.518  10.700
71180W        W36407  12.844   7.628  12.634
71181W        W36408  11.254  19.313   1.700
71182W        W36409  33.630  31.009  12.909
71183W        W36410   3.750  17.338   1.467
71184W        W36411  15.228  13.539  12.040
71185W        W36412  30.541  34.843  10.687
71186W        W36413  31.250  25.252  13.200
71187W        W36414  19.034  34.889   2.947
71188W        W36415  18.770   6.674   3.223
71189W        W36416  25.925  24.953   2.308
71190W        W36417  25.665  39.925  12.528
71191W        W36418  22.659  39.268   0.576
71192W        W36419  18.902   8.932  14.776
71193W        W36420  20.430  22.620  11.296
71194W        W36421   8.276   8.653  14.884
71195W        W36422  23.242  39.912   1.671
71196W        W36423  33.570  36.890   2.288
71197W        W36424  11.288  25.947   1.279
71198W        W36425  13.827  42.443   3.405
71199W        W36426  26.125  10.984  13.280
71200W        W36427  38.341  13.515   1.679
71201W        W36428  35.406  32.678  11.054
71202W        W36429  11.878   8.129  12.031
71203W        W36430   1.762   8.420  13.448
71204W        W36431  23.695  22.158  14.777
71205W        W36432   2.754  10.573   2.264
71206W        W36433  17.607  36.313   2.549
71207W        W36434  28.313  32.047   0.812
71208W        W36435  13.528   2.527  14.968
71209W        W36436  38.140  43.575  13.026
71210W        W36437  43.808  28.660  10.613
71211W        W36438  24.462   5.062  13.072
71212W        W36439   2.861  26.434   1.953
71213W        W36440   4.121  21.627   3.236
71214W        W36441  43.800  16.671  13.516
71215W        W36442  13.162  10.163   0.473
71216W        W36443  21.772  42.753  13.521
71217W        W36444  10.665   1.751   4.603
71218W        W36445  26.231  34.537   2.603
71219W        W36446   2.471  41.807   2.339
71220W        W36447  37.398  29.597  11.048
71221W        W36448  27.684  23.800   0.507
71222W        W36449   7.008  29.090   0.178
71223W        W36450  32.148  29.108  14.932
71224W        W36451  43.753  10.511  12.052
71225W        W36452  22.585  13.391  13.012
71226W        W36453  33.031  42.943   1.289
71227W        W36454  41.445  37.590   0.483
71228W        W36455   8.617   5.231  12.981
71229W        W36456  44.797   9.392  14.831
71230W        W36457   7.322  33.818  11.987
71231W        W36458  34.325  25.838   0.142
71232W        W36459   7.463   5.516  11.777
71233W        W36460  25.486  31.884  13.952
71234W        W36461  34.424  31.801   1.918
71235W        W36462  15.107  42.033  14.451
71236W        W36463  25.440  10.193  13.502
71237W        W36464  33.617  29.140   0.265
71238W        W36465  18.640  41.507   0.870
71239W        W36466  36.979  10.902   4.756
71240W        W36467  15.783  34.818  12.858
71241W        W36468   8.198  17.063   0.361
71242W        W36469   0.855  30.020  11.407
71243W        W36470  17.094  22.709   2.737
71244W        W36471  10.811  28.938   4.204
71245W        W36472  27.992  40.486  11.091
71246W        W36473  34.198  16.491   1.222
71247W        W36474  44.860  16.189   3.810
71248W        W36475  39.846  22.433   4.492
71249W        W36476  26.120  17.790  10.644
71250W        W36477  19.481  15.645   1.918
71251W        W36478  36.943  12.814  11.698
71252W        W36479  26.464   4.285   2.757
71253W        W36480  19.217  22.687   2.904
71254W        W36481   3.288   9.754  11.946
71255W        W36482  42.183  23.298  12.927
71256W        W36483  29.313  37.902   0.408
71257W        W36484  16.228  44.267   3.053
71258W        W36485  27.044  22.574  13.478
71259W        W36486  22.474  29.555   3.118
71260W        W36487  24.203  34.054   3.649
71261W        W36488  11.494  30.552  14.510
71262W        W36489  22.139   5.822  12.015
71263W        W36490  35.870  31.872   3.210
71264W        W36491  33.512  36.927   1.397
71265W        W36492  27.461   0.405  12.687
71266W        W36493  30.963  15.162   3.974
71267W        W36494  13.831  44.982   4.699
71268W        W36495  27.894  27.534   0.760
71269W        W36496  23.481  16.127   1.177
71270W        W36497   0.333  23.234  12.674
71271W        W36498  23.276  15.475  14.947
71272W        W36499  14.921  34.645  12.879
71273W        W36500  19.585  39.336   1.761
71274W        W36501  21.479  35.202   2.438
71275W        W36502   5.170  21.078  13.874
71276W        W36503  11.128  20.147   0.703
71277W        W36504  27.488  43.039  14.769
71278W        W36505   9.919  20.372  10.609
71279W        W36506  17.101  25.464  10.739
71280W        W36507  11.802  16.555  13.852
71281W        W36508   7.884  33.816   4.719
71282W        W36509  15.824   9.789   3.772
71283W        W36510   5.769  27.692  11.668
71284W        W36511   8.717  21.577  13.240
71285W        W36512  34.017  26.717  10.236
71286W        W36513   8.545  31.998   3.274
71287W        W36514  30.885  21.295  10.240
71288W        W36515   5.183   6.304   2.590
71289W        W36516  13.395  22.966   4.015
71290W        W36517  33.561  26.116  12.006
71291W        W36518  23.623   3.770  10.655
71292W        W36519  25.983  21.766  12.434
71293W        W36520  16.083  37.535   5.050
71294W        W36521  44.480   1.884  12.928
71295W        W36522  30.610  34.788  13.571
71296W        W36523  11.143  33.094  13.533
71297W        W36524  14.830  43.424   3.061
71298W        W36525  43.205  33.610   1.745
71299W        W36526  21.846  27.181  14.039
71300W        W36527  28.158  34.511   4.212
71301W        W36528  23.874  11.036  11.144
71302W        W36529  33.403  42.723   0.748
71303W        W36530   6.813  13.034  14.236
71304W        W36531  35.811  32.035   1.745
71305W        W36532   0.404  37.145   4.611
71306W        W36533  36.598  21.856  11.120
71307W        W36534  36.453  31.674  12.768
71308W        W36535  22.229  37.587   0.326
71309W        W36536   3.381   2.437  13.915
71310W        W36537  24.575  19.243   4.585
71311W        W36538  27.748  11.116   1.171
71312W        W36539  41.304  33.457   2.646
71313W        W36540  20.606  10.867   3.117
71314W        W36541  44.228  29.593   3.750
71315W        W36542  36.519  26.100   4.482
71316W        W36543  42.636  41.346   3.790
71317W        W36544   6.489  43.462   2.324
71318W        W36545  29.151  20.190   4.772
71319W        W36546  36.348  36.689  12.446
71320W        W36547   0.260  31.996  13.481
71321W        W36548  29.379  29.707  14.970
71322W        W36549  15.042  27.444   1.280
71323W        W36550  26.018   2.118  11.261
71324W        W36551  18.255  44.448  13.512
71325W        W36552  35.498  15.108   2.000
71326W        W36553  35.188  24.511   0.903
71327W        W36554   2.036  16.648  14.560
71328W        W36555  42.051  42.917  10.761
71329W        W36556   6.642  12.977   0.343
71330W        W36557  10.057   9.437  12.000
71331W        W36558   1.455  21.968  11.901
71332W        W36559  28.665   4.452  14.475
71333W        W36560  39.940  35.379   1.690
71334W        W36561  40.982   3.368   1.599
71335W        W36562  11.063  18.184   2.820
71336W        W36563  32.616  14.017  13.739
71337W        W36564  41.159  19.658   3.053
71338W        W36565  24.438  28.869  11.874
71339W        W36566  43.358   2.868   4.602
71340W        W36567  19.462  37.269   3.685
71341W        W36568  22.043  19.483  14.067
71342W        W36569  37.381  26.463   2.689
71343W        W36570  35.135   9.958  13.701
71344W        W36571  41.914  37.311  10.666
71345W        W36572  15.811  43.838  13.546
71346W        W36573  10.446   8.734   3.665
71347W        W36574  34.524  43.429  11.253
71348W        W36575   6.132  38.018   2.159
71349W        W36576  21.313  23.766  14.668
71350W        W36577  40.586  44.133   3.286
71351W        W36578   0.385  22.425   1.843
71352W        W36579  10.462  27.277   4.810
71353W        W36580  14.878  30.001  13.517
71354W        W36581  18.030   1.869   1.205
71355W        W36582  10.736  17.794  11.984
71356W        W36583   8.701   3.568   3.756
71357W        W36584  29.513  19.280   4.178
71358W        W36585   1.448  14.685  12.323
71359W        W36586  27.519   8.310   0.343
71360W        W36587   7.679  34.151   2.077
71361W        W36588  12.393  24.483   1.352
71362W        W36589   5.828  38.945  10.230
71363W        W36590  38.446  12.876   3.072
71364W        W36591  36.253  30.728  12.574
71365W        W36592  43.985  39.353   1.770
71366W        W36593  44.380  38.066   4.586
71367W        W36594  16.390  29.379  14.880
71368W        W36595   9.122   8.770   1.782
71369W        W36596  23.012  26.214  11.688
71370W        W36597  22.004  38.820  10.771
71371W        W36598  18.466  18.382  11.674
71372W        W36599  32.620  15.126   2.026
71373W        W36600  37.430   2.932  14.896
71374W        W36601   8.406   2.562  12.947
71375W        W36602   8.598  17.620  10.165
71376W        W36603  17.958  30.352   3.774
71377W        W36604  42.042  41.448  13.378
71378W        W36605   6.344  43.365  10.233
71379W        W36606  40.347  23.365  11.918
71380W        W36607   2.925  26.718   1.524
71381W        W36608  36.193   7.850   0.137
71382W        W36609  36.467  23.606   4.426
71383W        W36610  40.373  42.785   3.618
71384W        W36611  33.068  31.695  11.530
71385W        W36612  30.298  16.160  11.069
71386W        W36613   6.456  35.033  11.663
71387W        W36614  20.441  12.332  12.890
71388W        W36615  31.216  10.714  10.804
71389W        W36616   5.170  29.476   0.934
71390W        W36617  24.891  40.904  14.940
71391W        W36618  32.703  24.964   0.971
71392W        W36619  16.893   9.500  11.188
71393W        W36620  29.111  13.741   2.200
71394W        W36621  23.991  12.780   0.235
71395W        W36622  21.987  36.158  13.430
71396W        W36623   1.912  22.220   2.367
71397W        W36624  41.288  12.703  13.804
71398W        W36625  37.101  15.110   2.228
71399W        W36626  26.440  44.157  11.945
71400W        W36627  41.399   3.635   0.759
71401W        W36628  21.514  26.004   0.810
71402W        W36629  30.871  41.481   2.310
71403W        W36630  25.291  33.139  12.381
71404W        W36631  25.903  30.523  11.725
71405W        W36632  11.319  36.091  14.953
71406W        W36633   7.820  32.938  14.389
71407W        W36634  18.551   8.858  11.275
71408W        W36635  35.102  22.004   1.285
71409W        W36636   2.260  12.181  11.951
71410W        W36637  20.974   1.250   2.455
71411W        W36638  17.076  15.248   3.222
71412W        W36639  21.499  31.494   0.464
71413W        W36640  41.699  18.099   4.583
71414W        W36641  15.717  33.630   5.392
71415W        W36642   2.687  22.472  11.480
71416W        W36643  30.540   6.144   1.224
71417W        W36644   0.746  29.609   0.412
71418W        W36645  26.183  29.530   2.288
71419W        W36646  22.072  19.118  11.754
71420W        W36647  16.417  14.760   5.112
71421W        W36648   8.500  13.286   2.450
71422W        W36649  25.479   1.468  13.925
71423W        W36650  37.563  30.420   0.295
71424W        W36651   2.309  29.585   1.737
71425W        W36652  11.478  40.007   3.990
71426W        W36653  35.623  35.964   2.229
71427W        W36654  34.366  18.058   4.213
71428W        W36655  10.275  20.478  13.776
71429W        W36656   9.546   0.023   1.151
71430W        W36657  40.699   2.934   4.806
71431W        W36658  22.730   9.190  11.610
71432W        W36659  31.801  34.788  10.908
71433W        W36660  18.665  41.287  14.970
71434W        W36661  17.060  35.298  11.259
71435W        W36662   8.333   7.732  11.610
71436W        W36663  32.584   5.358   1.366
71437W        W36664  34.526  13.849   1.404
71438W        W36665   5.772   5.431  14.355
71439W        W36666   7.239  24.594  14.374
71440W        W36667  35.750  28.892  11.601
71441W        W36668  39.038  40.063  10.609
71442W        W36669  38.865  24.524   2.765
71443W        W36670  30.790   1.612   0.572
71444W        W36671   1.838   6.406  13.855
71445W        W36672   0.281  44.439  11.979
71446W        W36673  34.487  25.105   2.969
71447W        W36674  44.837   8.386   2.693
71448W        W36675  37.188  10.585  11.055
71449W        W36676  40.555   1.150  13.590
71450W        W36677  26.112  19.398  10.724
71451W        W36678  25.676  28.121  13.010
71452W        W36679  41.404  25.247   1.820
71453W        W36680  21.174  11.545  12.526
71454W        W36681   5.973  16.602   2.322
71455W        W36682  30.380  20.018   4.904
71456W        W36683  24.247  11.982  13.140
71457W        W36684  40.799  25.091   3.115
71458W        W36685  10.307  22.258   3.108
71459W        W36686  25.576  17.578   1.771
71460W        W36687  38.752   2.837  14.405
71461W        W36688  33.877  41.532   2.109
71462W        W36689  15.813   5.309   1.632
71463W        W36690   6.996   1.007   3.997
71464W        W36691   4.467  24.716   4.292
71465W        W36692  31.100   3.420  13.342
71466W        W36693  39.129   3.352   2.555
71467W        W36694  39.504  33.943   1.180
71468W        W36695  34.955  25.140  10.236
71469W        W36696  36.351   3.479  10.258
71470W        W36697  29.122  39.157  12.587
71471W        W36698  19.542  35.952  10.617
71472W        W36699  42.340  21.714  11.166
71473W        W36700   5.762  11.917   1.168
71474W        W36701  42.860   4.311  10.701
71475W        W36702  30.002  24.757   1.350
71476W        W36703  25.765  35.962  12.467
71477W        W36704   1.563  15.726   2.709
71478W        W36705   5.649  18.664  10.730
71479W        W36706  32.487  14.291   0.007
71480W        W36707  20.599  32.519   3.603
71481W        W36708  16.838  40.087   3.403
71482W        W36709  12.884  17.193   2.698
71483W        W36710   5.498  14.191  14.353
71484W        W36711  26.143  11.366   3.738
71485W        W36712   4.499  38.416   2.783
71486W        W36713  38.693  34.012  10.605
71487W        W36714  15.502  34.046   4.173
71488W        W36715  34.385  15.119  11.682
71489W        W36716   1.938  11.378  11.513
71490W        W36717  20.275  21.228   4.590
71491W        W36718   0.666  39.306  11.529
71492W        W36719  10.082  19.002   4.089
71493W        W36720  30.964  30.121   2.448
71494W        W36721   2.425  26.748   1.324
71495W        W36722  23.744  43.778   3.216
71496W        W36723  37.737  40.004  14.836
71497W        W36724  17.570  12.219  14.965
71498W        W36725  26.073   5.242   4.562
71499W        W36726   2.932  11.728  10.632
71500W        W36727  10.254  14.318   1.568
71501W        W36728  36.532   0.876  10.498
71502W        W36729  27.427   1.020  10.639
71503W        W36730  26.187  39.091  12.703
71504W        W36731   7.143   5.728   3.221
71505W        W36732  14.110  37.501  13.380
71506W        W36733  36.934  32.473   3.898
71507W        W36734   5.905  26.646  12.634
71508W        W36735  29.619  34.865   2.117
71509W        W36736   3.645   0.892  13.896
71510W        W36737  17.338  24.615   4.348
71511W        W36738  19.968  22.896  13.445
71512W        W36739  34.005  22.535   4.646
71513W        W36740  34.505  20.028   3.758
71514W        W36741  34.967  24.546   4.989
71515W        W36742   4.490  34.039   0.458
71516W        W36743  13.826  16.809   0.881
71517W        W36744  37.449  17.196   0.068
71518W        W36745  17.394  38.301  10.756
71519W        W36746  34.836   0.254  12.922
71520W        W36747  30.931  31.958   2.675
71521W        W36748  12.854   0.494   0.524
71522W        W36749   2.649  19.731  11.092
71523W        W36750  32.049  24.081   2.244
71524W        W36751   5.187  30.555  12.921
71525W        W36752  43.837  24.794   4.118
71526W        W36753  27.128  19.640   2.711
71527W        W36754  25.896   5.717  14.292
71528W        W36755  20.779  18.476  11.104
71529W        W36756  33.912  15.660   0.825
71530W        W36757  28.408  14.234  11.580
71531W        W36758  14.888   9.564   1.249
71532W        W36759  35.084  35.237   0.514
71533W        W36760  35.814  14.385   3.874
71534W        W36761   3.448   9.126   2.465
71535W        W36762  13.589  25.628  12.018
71536W        W36763  44.268   4.948  14.155
71537W        W36764  22.055  11.860   4.896
71538W        W36765  31.234  24.676   3.289
71539W        W36766  44.908   7.360   3.839
71540W        W36767  14.597   3.885   2.315
71541W        W36768   5.388  43.042  12.503
71542W        W36769  24.961  40.582   3.790
71543W        W36770  19.595   7.191   3.493
71544W        W36771  29.037  32.547  12.180
71545W        W36772   6.006  17.004  12.537
71546W        W36773  12.555  20.105   1.306
71547W        W36774  16.100  41.534  10.718
71548W        W36775  23.670  12.194   1.459
71549W        W36776  13.079  42.218  11.988
71550W        W36777  16.531   7.835   0.870
71551W        W36778  13.742  20.703  10.981
71552W        W36779  12.899   0.804   1.878
71553W        W36780  34.493   0.749  14.918
71554W        W36781  37.290  15.844   3.452
71555W        W36782  19.843  36.012  11.057
71556W        W36783  37.615  33.024  13.540
71557W        W36784  15.296  13.172   2.509
71558W        W36785  15.195  44.405   3.415
71559W        W36786   3.528  40.417   0.608
71560W        W36787  36.349  12.176   1.116
71561W        W36788  22.148  19.597   3.877
71562W        W36789  20.051  36.375  14.307
71563W        W36790  20.273  18.305   3.070
71564W        W36791  39.853  21.244  13.360
71565W        W36792   7.083  10.694  12.557
71566W        W36793  44.837  35.076   4.577
71567W        W36794   8.175  23.467   1.347
71568W        W36795  23.215  41.040   1.424
71569W        W36796  22.144  27.736   2.700
71570W        W36797  44.782  41.594   3.419
71571W        W36798  37.859  27.554   0.466
71572W        W36799  22.322  10.270   3.336
71573W        W36800  17.467   7.870   4.550
71574W        W36801  41.578  25.352   3.631
71575W        W36802  35.088  17.290   1.680
71576W        W36803   9.116   2.467   3.693
71577W        W36804  23.673  33.582   2.471
71578W        W36805   2.446  21.208   3.237
71579W        W36806  27.162  15.517  11.385
71580W        W36807  25.523  30.698  13.145
71581W        W36808  38.396  30.869  12.878
71582W        W36809  22.769  37.353   3.619
71583W        W36810   6.966   0.769   1.858
71584W        W36811   5.595   4.916   0.257
71585W        W36812  30.658  33.371   1.540
71586W        W36813  17.604  27.930   4.544
71587W        W36814  43.961  17.719  10.751
71588W        W36815  43.975  16.116  14.771
71589W        W36816  13.894  15.152  13.816
71590W        W36817  39.910  23.075  12.092
71591W        W36818  27.002  42.325  12.533
71592W        W36819  13.883  36.969  14.783
71593W        W36820  36.152  29.573  12.070
71594W        W36821  44.363  28.479   1.266
71595W        W36822   7.661  15.662   0.832
71596W        W36823  25.746  42.268   3.801
71597W        W36824  25.490   2.117   4.809
71598W        W36825   7.689  17.903  11.834
71599W        W36826  27.096  10.805   2.902
71600W        W36827  30.905   7.430   0.040
71601W        W36828  18.198  14.571  10.727
71602W        W36829  29.263  17.932  10.292
71603W        W36830   8.772   8.146  13.113
71604W        W36831  27.650  23.716  11.261
71605W        W36832   1.057  38.951   2.101
71606W        W36833  18.223   1.909   2.153
71607W        W36834  14.701   7.079  11.920
71608W        W36835  14.779  11.736  12.966
71609W        W36836  32.085  23.117   1.266
71610W        W36837  29.610  20.335  14.725
71611W        W36838   7.441  21.517  14.037
71612W        W36839  23.682   5.991  12.542
71613W        W36840   0.025   3.326   2.703
71614W        W36841   4.185   4.398  12.575
71615W        W36842  41.769  35.172  11.175
71616W        W36843  14.654  30.836  10.311
71617W        W36844   5.768   4.888   3.294
71618W        W36845  30.202   2.413   3.504
71619W        W36846  23.450  10.173   4.546
71620W        W36847   5.668  25.210  14.784
71621W        W36848  37.891   6.253  13.462
71622W        W36849  22.148  23.453   1.811
71623W        W36850  21.011  20.614  12.488
71624W        W36851   3.005   5.911   1.266
71625W        W36852  33.676   9.181  14.432
71626W        W36853  28.601  41.536  10.654
71627W        W36854   4.345  21.642   3.682
71628W        W36855  37.962  24.892  11.644
71629W        W36856  36.105  34.455  11.263
71630W        W36857   0.763  14.310   0.933
71631W        W36858  36.604  23.536  10.595
71632W        W36859  27.906   0.879  10.574
71633W        W36860  35.466  37.958   0.843
71634W        W36861  36.333  30.646  14.293
71635W        W36862   7.266   5.602   1.833
71636W        W36863  31.910  15.734  12.535
71637W        W36864  24.518  33.504  12.905
71638W        W36865  26.753  39.022  10.556
71639W        W36866  16.192   7.809  14.482
71640W        W36867  33.916  44.699   1.604
71641W        W36868  18.270  30.617   3.236
71642W        W36869  37.057  13.692  12.380
71643W        W36870  25.314  43.968   3.234
71644W        W36871  20.574  17.255   3.244
71645W        W36872  17.647  31.479   0.495
71646W        W36873   1.852  38.103   3.154
71647W        W36874  37.106   6.896   0.714
71648W        W36875  30.639  37.797  13.453
71649W        W36876  36.012  32.041  12.626
71650W        W36877   6.755  18.347  12.922
71651W        W36878  17.644   9.185   3.407
71652W        W36879   1.221  12.823   0.287
71653W        W36880  16.771  37.193   4.384
71654W        W36881   4.238  40.587   2.342
71655W        W36882  42.420  29.794   2.861
71656W        W36883   8.016  32.098  10.784
71657W        W36884  30.009  26.499  12.794
71658W        W36885   1.517  40.954  10.685
71659W        W36886  30.895  29.035   0.902
71660W        W36887  14.231   1.446  13.545
71661W        W36888  12.827  40.527   2.329
71662W        W36889   1.519  25.083   3.248
71663W        W36890  12.344  20.252  12.294
71664W        W36891  32.153  30.885   1.235
71665W        W36892  43.457  35.378   4.664
71666W        W36893  34.985  43.436   4.088
71667W        W36894   1.247  18.865  12.539
71668W        W36895  37.642  28.974  11.994
71669W        W36896  16.187   0.797  13.143
71670W        W36897   2.756   9.099  11.589
71671W        W36898  20.622  39.790  14.899
71672W        W36899  44.831  14.878   4.182
71673W        W36900  15.878  29.696  14.864
71674W        W36901  41.365  25.519   0.404
71675W        W36902  44.126  15.521   4.568
71676W        W36903  37.469  30.228   2.796
71677W        W36904  20.927  42.778  11.673
71678W        W36905  39.995  20.755  13.394
71679W        W36906  20.864  23.228   0.425
71680W        W36907  35.745  19.852  12.336
71681W        W36908  27.051  18.724  10.921
71682W        W36909  13.494  11.709  12.880
71683W        W36910   1.030  35.051  13.284
71684W        W36911  40.123  29.244   3.631
71685W        W36912  35.829  38.840   4.177
71686W        W36913  21.958  20.238   1.087
71687W        W36914  39.290  21.180   4.788
71688W        W36915  15.812  22.941   4.115
71689W        W36916  28.094  32.660  12.422
71690W        W36917  31.152  29.735   0.191
71691W        W36918   7.763   7.882   1.715
71692W        W36919  11.570   5.507   0.280
71693W        W36920  42.944  41.334   0.883
71694W        W36921  30.588  30.636   0.296
71695W        W36922  23.036   2.416  14.615
71696W        W36923  27.477   2.741  13.131
71697W        W36924  26.596  19.744   4.589
71698W        W36925  28.004  31.609   9.839
71699W        W36926  21.951  29.008  14.641
71700W        W36927   2.958  40.491   2.309
71701W        W36928  28.995  15.777   1.887
71702W        W36929  20.607  44.014  13.887
71703W        W36930   9.405  26.685  14.434
71704W        W36931  15.621   9.806  13.318
71705W        W36932  42.332  17.612   4.162
71706W        W36933  29.108  17.729   3.866
71707W        W36934  39.304   4.495   3.306
71708W        W36935  12.525   8.665  10.629
71709W        W36936  28.674  38.495  14.650
71710W        W36937  37.939  16.789  13.066
71711W        W36938  35.928   5.299   4.399
71712W        W36939  36.117  25.225   4.142
71713W        W36940  43.200  44.206   4.111
71714W        W36941  14.520  35.655  13.556
71715W        W36942  21.675  15.817   4.654
71716W        W36943   9.173   9.279  13.459
71717W        W36944  11.324  32.178   2.802
71718W        W36945   3.005  31.555   3.200
71719W        W36946  22.692   2.904   3.360
71720W        W36947  12.889  27.988   3.784
71721W        W36948  28.189   1.210  10.172
71722W        W36949  32.493   9.736   2.212
71723W        W36950   7.818  32.209  10.324
71724W        W36951  28.335  40.820  11.957
71725W        W36952   5.698   1.656  14.996
71726W        W36953  21.199   4.994  10.527
71727W        W36954  11.543  40.038  10.539
71728W        W36955  22.643  22.492   4.049
71729W        W36956  30.559   5.202  10.974
71730W        W36957  17.599  10.075  11.137
71731W        W36958   9.775   5.408   3.374
71732W        W36959  37.759  26.977   1.758
71733W        W36960  11.130  31.893   5.447
71734W        W36961  25.958  43.772  14.544
71735W        W36962   2.354  22.636   2.516
71736W        W36963   0.499  17.508   1.307
71737W        W36964  29.456  25.033  13.372
71738W        W36965   9.632  35.763   3.917
71739W        W36966   7.970   2.162  10.927
71740W        W36967  10.224  38.538  13.813
71741W        W36968   9.435   1.168   0.239
71742W        W36969  12.704  42.806  10.689
71743W        W36970  27.154  43.508  11.107
71744W        W36971  15.108  37.340  12.466
71745W        W36972  41.250  39.097   1.835
71746W        W36973  27.496   5.544  12.405
71747W        W36974  20.286   2.132   3.618
71748W        W36975  16.366  42.005  14.751
71749W        W36976  33.954  38.875   2.464
71750W        W36977   8.702  33.426   3.197
71751W        W36978  42.300   5.249   2.052
71752W        W36979   9.758  36.007   4.910
71753W        W36980  38.967  34.042  10.074
71754W        W36981  38.136  13.592  13.388
71755W        W36982  27.226  39.389  13.879
71756W        W36983  11.542  16.239   3.726
71757W        W36984  16.055  43.011   2.827
71758W        W36985  41.047  26.495   2.198
71759W        W36986  39.384  23.988   3.179
71760W        W36987  10.748   0.941   0.188
71761W        W36988   6.752  40.735  12.630
71762W        W36989  15.868  26.632  13.622
71763W        W36990  39.386  23.286  11.984
71764W        W36991  28.121  28.568  10.557
71765W        W36992  15.626  14.545  10.635
71766W        W36993  19.007  37.919  14.317
71767W        W36994  34.525  25.410   0.922
71768W        W36995   5.728  36.495  13.475
71769W        W36996  17.157  23.012  11.496
71770W        W36997  24.031  35.369  10.763
71771W        W36998   7.463  43.040  11.976
71772W        W36999  39.575  38.535   4.728
71773W        W37000   2.242  25.560   3.217
71774W        W37001  16.052  38.641  14.877
71775W        W37002  37.819  30.145   2.376
71776W        W37003  25.081  16.314   3.587
71777W        W37004  16.681  34.059  11.663
71778W        W37005  38.409  33.052   4.998
71779W        W37006  16.973  29.891  11.293
71780W        W37007  23.007  25.650  13.940
71781W        W37008  10.810  40.266  14.972
71782W        W37009   2.489  21.597  11.126
71783W        W37010  41.100  42.949   0.985
71784W        W37011  29.870  35.019  12.668
71785W        W37012  19.524  44.391  10.591
71786W        W37013   3.171   0.291  11.587
71787W        W37014  44.348  15.318   1.294
71788W        W37015  26.584  14.582   3.193
71789W        W37016  20.065  40.807  12.098
71790W        W37017  15.750  10.411  12.429
71791W        W37018   5.725  17.044   0.340
71792W        W37019   7.680  13.358   1.659
71793W        W37020  16.637  22.695  14.322
71794W        W37021  21.528  33.953  14.448
71795W        W37022  41.921  38.663   0.927
71796W        W37023   8.758  44.036   3.246
71797W        W37024   4.202  22.714  12.866
71798W        W37025  11.761   4.884  10.756
71799W        W37026  40.908  10.862  13.942
71800W        W37027  29.034  12.713   2.652
71801W        W37028  26.632  25.621   4.427
71802W        W37029  26.574  30.206  14.228
71803W        W37030  39.808  10.900   1.421
71804W        W37031  29.097   7.791  14.548
71805W        W37032  11.828  44.956   1.725
71806W        W37033  22.493  30.655  10.271
71807W        W37034  34.465  25.055  10.458
71808W        W37035  28.121  42.922  14.205
71809W        W37036  22.025   2.963   3.219
71810W        W37037   9.682  34.965   4.245
71811W        W37038  28.462  41.272   4.216
71812W        W37039  30.569   4.615  12.155
71813W        W37040  13.495  10.983  11.546
71814W        W37041  12.563  26.612   0.728
71815W        W37042  18.846   6.479   1.711
71816W        W37043  23.211  24.582   2.177
71817W        W37044   3.334  18.107   4.895
71818W        W37045  11.385   3.725  12.525
71819W        W37046  18.538  27.480  13.032
71820W        W37047  32.809   0.032  12.171
71821W        W37048   1.300  24.946  12.709
71822W        W37049   7.417  14.608   0.340
71823W        W37050  32.541  18.748  12.608
71824W        W37051  39.119  34.368   1.023
71825W        W37052  44.841  38.846  12.127
71826W        W37053  19.180   3.304   4.382
71827W        W37054  34.462  24.136   2.856
71828W        W37055  42.477   4.807   0.558
71829W        W37056  28.096  21.475  11.628
71830W        W37057  14.257   3.378   0.667
71831W        W37058  26.008  27.623   1.479
71832W        W37059  37.005  27.281   4.483
71833W        W37060  14.064   7.303   3.763
71834W        W37061  27.522  22.122   4.387
71835W        W37062  10.678  41.314   3.686
71836W        W37063  22.890   2.427  13.728
71837W        W37064  18.569  11.223   1.704
71838W        W37065  11.835  35.700   3.455
71839W        W37066  19.823  17.025   2.718
71840W        W37067  27.600  22.061   2.321
71841W        W37068  32.569   7.246  10.810
71842W        W37069  16.063  29.585  11.089
71843W        W37070  10.679  24.113  14.218
71844W        W37071   9.700   9.836   0.482
71845W        W37072  30.991  32.567  13.325
71846W        W37073  40.543  33.097   2.426
71847W        W37074  37.389   0.244  10.704
71848W        W37075  33.594  30.499  13.108
71849W        W37076  21.508  13.648   2.804
71850W        W37077  16.104  18.720  12.028
71851W        W37078   5.924   5.885   1.552
71852W        W37079  33.733   6.619  10.999
71853W        W37080  10.652   7.313  13.469
71854W        W37081  16.337   0.352  14.424
71855W        W37082  30.936  23.037  11.422
71856W        W37083  26.287   5.671   2.837
71857W        W37084  32.963  29.555   1.265
71858W        W37085  14.063  12.131  10.601
71859W        W37086  24.017  43.682  14.993
71860W        W37087  11.935  37.501   1.651
71861W        W37088   5.133  30.905  13.368
71862W        W37089   8.403  32.030   0.186
71863W        W37090  33.920  41.373   0.703
71864W        W37091  16.641  43.134   4.679
71865W        W37092  37.291  39.541   3.454
71866W        W37093   8.378  28.652  10.728
71867W        W37094  18.641  13.401  10.596
71868W        W37095   9.737   0.210  14.590
71869W        W37096  24.140  36.102  13.596
71870W        W37097  37.611  44.821   1.397
71871W        W37098  29.040   1.366  11.127
71872W        W37099   8.671  28.388   0.176
71873W        W37100   7.601   8.947  14.141
71874W        W37101  18.339  37.100   2.196
71875W        W37102  37.464   4.174   4.132
71876W        W37103  28.461  37.899   4.408
71877W        W37104  15.432  22.884   3.766
71878W        W37105   3.961   9.793  13.134
71879W        W37106  13.586   4.288  12.306
71880W        W37107   2.274  19.045  14.690
71881W        W37108   7.371  40.919  13.977
71882W        W37109  14.081   4.358  10.612
71883W        W37110  20.648  26.356   3.004
71884W        W37111  16.161   4.143   3.692
71885W        W37112  24.118  37.086   0.987
71886W        W37113  43.018  16.967   4.088
71887W        W37114   5.952  39.514   2.534
71888W        W37115   2.989   8.259  10.559
71889W        W37116  31.398  11.856   4.950
71890W        W37117  28.140  43.113  12.035
71891W        W37118  22.294  20.697   3.118
71892W        W37119  16.572  22.931  14.787
71893W        W37120   7.694  19.150   1.283
71894W        W37121  28.506  36.938  10.912
71895W        W37122  15.202  19.290   3.915
71896W        W37123  13.567  36.260   2.457
71897W        W37124  32.257  30.690  10.225
71898W        W37125   7.141   4.477   3.984
71899W        W37126   5.499  43.396  11.122
71900W        W37127  41.698  30.408  14.321
71901W        W37128   3.873   6.147   2.840
71902W        W37129  17.014  29.220  12.833
71903W        W37130  13.209  41.866  13.801
71904W        W37131  32.121   7.383   0.662
71905W        W37132   4.161  15.400  14.780
71906W        W37133  36.114   8.696  14.201
71907W        W37134   4.292   6.378   2.603
71908W        W37135  32.091  23.707   0.814
71909W        W37136   8.327  23.827   4.716
71910W        W37137  20.220  34.952   1.732
71911W        W37138  38.511  37.431   4.638
71912W        W37139  19.989  33.116  13.431
71913W        W37140  32.023  36.647   2.830
71914W        W37141  23.150   8.907  14.498
71915W        W37142  19.066  30.747   0.761
71916W        W37143  10.333  40.547  14.941
71917W        W37144   6.223  19.396   1.419
71918W        W37145  38.481   9.322  12.848
71919W        W37146   1.229  29.729  14.923
71920W        W37147  40.934   5.703  14.823
71921W        W37148  18.325  34.463   3.106
71922W        W37149  12.212   1.619  14.385
71923W        W37150  44.024  42.057  10.694
71924W        W37151  23.071  44.981  14.873
71925W        W37152  27.694  19.696   3.788
71926W        W37153   9.600  30.762   4.961
71927W        W37154  37.140  30.043  14.773
71928W        W37155   0.767  14.812   3.154
71929W        W37156  18.246  12.222  12.029
71930W        W37157  26.316   8.227   4.875
71931W        W37158  43.461  11.379  11.517
71932W        W37159  35.619  11.760   0.885
71933W        W37160   6.207  13.943   2.608
71934W        W37161   5.077  28.385  12.041
71935W        W37162  32.011  16.828   4.965
71936W        W37163  15.308  43.360  12.520
71937W        W37164  34.177   3.884   1.314
71938W        W37165   9.812  31.221   1.057
71939W        W37166  18.254  23.005   0.939
71940W        W37167   0.842  44.595  10.435
71941W        W37168  31.931  26.932  14.017
71942W        W37169  25.452  37.858   0.480
71943W        W37170  15.254  18.847   3.613
71944W        W37171   8.788  39.164   5.083
71945W        W37172  41.457  16.317  11.272
71946W        W37173  11.658  26.483  12.495
71947W        W37174  10.721  37.321   2.887
71948W        W37175   1.966  12.384   4.371
71949W        W37176  44.815   1.852  11.074
71950W        W37177  36.087  42.557   1.092
71951W        W37178   3.091  17.601   0.197
71952W        W37179  31.999  43.290   4.226
71953W        W37180  12.767  18.850  13.432
71954W        W37181  44.785  20.241  11.145
71955W        W37182  13.568  25.696   0.266
71956W        W37183  14.117  43.817   3.414
71957W        W37184  37.374  44.576  14.507
71958W        W37185  41.541  25.785  14.342
71959W        W37186  11.756  34.100  13.083
71960W        W37187  36.316  29.043   4.616
71961W        W37188  38.801  42.018  13.393
71962W        W37189  40.828  20.595  11.888
71963W        W37190  37.618  24.079  12.015
71964W        W37191   2.252  12.755  13.529
71965W        W37192  44.370  38.809  11.546
71966W        W37193  30.808  16.382   1.828
71967W        W37194   2.683  13.846   2.093
71968W        W37195  33.542  41.442  12.570
71969W        W37196  43.956   0.841  13.435
71970W        W37197  27.429   4.500   1.781
71971W        W37198  17.124  40.835   3.782
71972W        W37199  42.295  12.212   0.508
71973W        W37200  19.668   1.838   2.167
71974W        W37201  30.359  30.899  13.165
71975W        W37202  23.955  34.159  12.910
71976W        W37203  32.446   6.837   1.383
71977W        W37204  24.148  21.120   0.930
71978W        W37205  17.144  43.794  11.354
71979W        W37206  22.034  24.032   0.921
71980W        W37207  31.667  44.254   4.297
71981W        W37208   2.546  24.202  13.778
71982W        W37209  15.186  26.750  14.002
71983W        W37210  15.258  12.204   3.177
71984W        W37211   5.983  25.817   0.744
71985W        W37212  24.941  16.130  13.867
71986W        W37213   1.297  32.932  14.569
71987W        W37214   6.409  42.569   4.114
71988W        W37215  13.354   0.961   3.213
71989W        W37216  39.517  20.179  12.333
71990W        W37217   9.836  34.882  11.947
71991W        W37218  13.182  41.857  10.513
71992W        W37219  32.044  26.382  13.143
71993W        W37220   8.666  44.294   3.698
71994W        W37221  36.220  12.040  11.608
71995W        W37222   8.223  32.365   3.166
71996W        W37223  18.045  42.986  11.671
71997W        W37224  13.187  23.600   0.861
71998W        W37225   3.524  39.103   0.491
71999W        W37226  30.907  24.481  11.041
72000W        W37227  36.016  16.824  13.899
72001W        W37228  32.168  35.574  14.484
72002W        W37229   0.268  30.343  10.949
72003W        W37230  15.125  38.837   2.294
72004W        W37231   5.452   4.874   2.875
72005W        W37232  13.081  12.920  10.926
72006W        W37233  22.667  20.043   2.194
72007W        W37234  38.022   0.459   1.652
72008W        W37235  14.019  12.734  11.241
72009W        W37236  31.194  40.609  10.756
72010W        W37237   5.354  21.366  11.947
72011W        W37238  31.724   7.606  11.541
72012W        W37239  34.579  21.139  12.253
72013W        W37240  14.755  16.550   3.634
72014W        W37241  24.163  21.252  13.320
72015W        W37242  38.526  18.452   2.285
72016W        W37243   3.937  18.573  14.461
72017W        W37244  39.328  16.930  10.896
72018W        W37245  27.366  14.666  14.505
72019W        W37246  35.710  28.073  10.600
72020W        W37247  27.671   7.877  10.690
72021W        W37248  29.436  32.306   4.540
72022W        W37249  38.857  10.258   2.774
72023W        W37250  12.563   2.899  11.129
72024W        W37251  40.171   2.802   4.978
72025W        W37252  15.976   4.687   5.095
72026W        W37253   3.388  14.124  13.139
72027W        W37254  28.194   0.716  12.523
72028W        W37255  38.293  41.930  13.319
72029W        W37256   8.392   9.216   3.080
72030W        W37257  28.933   6.238   2.166
72031W        W37258  27.542   8.851   0.826
72032W        W37259   2.741  29.486   0.932
72033W        W37260  42.598  43.494   2.792
72034W        W37261   6.546  44.568  11.563
72035W        W37262   3.346  23.370   2.245
72036W        W37263  40.337   1.741  11.137
72037W        W37264   1.290  34.961   1.627
72038W        W37265  40.444  19.231  14.433
72039W        W37266  18.849  26.885  14.443
72040W        W37267  39.995  23.760   4.667
72041W        W37268  20.693  40.024   1.327
72042W        W37269  14.825  18.172  10.743
72043W        W37270  40.762  33.475   2.658
72044W        W37271  37.365   3.210   4.549
72045W        W37272  16.856  21.220   3.647
72046W        W37273  14.554   4.442  13.944
72047W        W37274   4.212  36.581  14.060
72048W        W37275  32.652  30.163   3.069
72049W        W37276   5.725   8.658  11.034
72050W        W37277  34.231  24.250  12.945
72051W        W37278  37.423  38.125  14.017
72052W        W37279  24.230  12.157   3.615
72053W        W37280  24.263  16.635   1.355
72054W        W37281  37.927  28.272   4.583
72055W        W37282   2.442  30.968   5.331
72056W        W37283  27.836  14.702   0.340
72057W        W37284  31.411  29.554   3.373
72058W        W37285  25.485  15.342   2.793
72059W        W37286  42.233  39.051  12.058
72060W        W37287   9.675  34.074   1.226
72061W        W37288  37.850   6.348  14.964
72062W        W37289  15.659  12.613   4.008
72063W        W37290  10.717   4.008  11.110
72064W        W37291   3.713  44.358   0.057
72065W        W37292  10.114   3.024  13.853
72066W        W37293  16.858  26.959   0.848
72067W        W37294  43.982  39.401  12.116
72068W        W37295  25.499  19.317  11.022
72069W        W37296  30.749   9.087  11.484
72070W        W37297  33.079   5.262  12.544
72071W        W37298  25.544  41.907  12.952
72072W        W37299   3.910  32.192   0.109
72073W        W37300   4.008   4.816  12.880
72074W        W37301  26.804  32.040  13.364
72075W        W37302  14.804  14.669  14.561
72076W        W37303  25.561   0.609   3.730
72077W        W37304   0.940  25.253  12.477
72078W        W37305  19.309  38.859  13.070
72079W        W37306  41.065  36.074  12.793
72080W        W37307  21.734  43.852  11.696
72081W        W37308  29.094  42.508  12.783
72082W        W37309  29.452  39.801   4.105
72083W        W37310   9.240  34.050   3.760
72084W        W37311  21.091  11.157   1.698
72085W        W37312  36.803  41.351   0.051
72086W        W37313  37.664  10.682   1.843
72087W        W37314   9.037  23.873   0.739
72088W        W37315  40.249  25.447  12.901
72089W        W37316  18.256   1.014   2.475
72090W        W37317   4.440  31.458   4.276
72091W        W37318   9.659  30.524  12.963
72092W        W37319  27.454  26.045  11.685
72093W        W37320  19.075   2.461   2.519
72094W        W37321   4.475  17.924  12.482
72095W        W37322  14.030   5.174   3.168
72096W        W37323  16.277  43.809  12.847
72097W        W37324  28.107  25.765  12.361
72098W        W37325  28.698  29.032  11.580
72099W        W37326  18.329  11.816  12.422
72100W        W37327  17.740  43.589   2.730
72101W        W37328  37.881   7.935  14.912
72102W        W37329  40.249  32.358   0.975
72103W        W37330  17.290   0.109   1.166
72104W        W37331  19.798  36.494   2.324
72105W        W37332  22.429  16.546  14.064
72106W        W37333  13.293  12.456  10.833
72107W        W37334  13.557  27.500   1.209
72108W        W37335   2.522  10.854  12.021
72109W        W37336  32.929  10.858  13.997
72110W        W37337   6.251   9.219  14.395
72111W        W37338  40.608   8.324   4.577
72112W        W37339  13.769  28.627  10.760
72113W        W37340  34.027   4.367  12.045
72114W        W37341   2.161  37.984   3.552
72115W        W37342  20.257  10.899  12.640
72116W        W37343  14.689   0.551  13.984
72117W        W37344  41.035   3.909   3.585
72118W        W37345  38.557  19.202  14.250
72119W        W37346  16.116  21.187  11.193
72120W        W37347  10.443  38.109   1.009
72121W        W37348  11.931  17.821   2.470
72122W        W37349  36.868   3.577  10.332
72123W        W37350   1.985   0.776  14.344
72124W        W37351  34.191  34.397   4.531
72125W        W37352   2.225  23.121   3.215
72126W        W37353  38.937  28.161  14.837
72127W        W37354  27.724   4.186  14.160
72128W        W37355  10.530   8.217  13.373
72129W        W37356   8.342  31.470   0.876
72130W        W37357  33.907  24.631   3.372
72131W        W37358  20.574  14.162   0.793
72132W        W37359  29.532  26.740   0.573
72133W        W37360  32.006   5.406  12.067
72134W        W37361  30.356  21.588   4.203
72135W        W37362  21.514  41.360   2.339
72136W        W37363  19.232  32.489  12.473
72137W        W37364  42.877   1.265   0.628
72138W        W37365  16.660  42.817  11.948
72139W        W37366   1.240   5.112   0.669
72140W        W37367  21.758  35.894   3.655
72141W        W37368  12.100  43.717   0.279
72142W        W37369  27.760  10.789  11.727
72143W        W37370   0.294  11.842  13.015
72144W        W37371  39.499  22.020   3.764
72145W        W37372  29.045   8.579   3.222
72146W        W37373  36.447  39.449   1.879
72147W        W37374  37.565  30.006  14.479
72148W        W37375   9.391   0.750   3.160
72149W        W37376  40.427  36.809   0.753
72150W        W37377  39.536  25.421   1.342
72151W        W37378  22.058  29.601  10.692
72152W        W37379  22.983   0.030  11.021
72153W        W37380  35.124  34.495  12.950
72154W        W37381  26.685   0.219   5.334
72155W        W37382  44.456  24.195  10.599
72156W        W37383   0.323  28.521   0.402
72157W        W37384   0.425   5.287   3.049
72158W        W37385   1.753   5.695  12.343
72159W        W37386  37.480  23.959  13.775
72160W        W37387  17.434  44.764  13.972
72161W        W37388   3.963  19.379   4.147
72162W        W37389  37.255  43.320  11.683
72163W        W37390  34.432  14.282  10.353
72164W        W37391  17.672  34.642  11.434
72165W        W37392  40.297   5.177   0.075
72166W        W37393  43.319  25.446  12.458
72167W        W37394  13.230  35.330   2.885
72168W        W37395  28.288   7.790  10.115
72169W        W37396  13.076  16.128  12.154
72170W        W37397  29.391  31.702  11.937
72171W        W37398   0.475  20.925   5.037
72172W        W37399   3.044  21.603  14.498
72173W        W37400  30.987  29.047   4.585
72174W        W37401  26.285  42.308   4.155
72175W        W37402  35.396  28.453  13.324
72176W        W37403  22.277   1.733   2.156
72177W        W37404  42.526  42.430  14.800
72178W        W37405  14.172  41.592  10.461
72179W        W37406   0.050  42.551  11.896
72180W        W37407  34.941  20.480   4.261
72181W        W37408  11.034   0.250  10.211
72182W        W37409  16.528  16.542   4.374
72183W        W37410  44.999  26.427  14.903
72184W        W37411  22.051  11.602  12.038
72185W        W37412  40.246  30.116  11.379
72186W        W37413  22.307  10.953   4.566
72187W        W37414   2.450   6.221  11.833
72188W        W37415  26.501   5.525   1.830
72189W        W37416  20.630  18.807   1.950
72190W        W37417   2.144   7.518   2.334
72191W        W37418  10.180   1.167   2.594
72192W        W37419  27.583  36.954   3.158
72193W        W37420  34.476  24.057   3.362
72194W        W37421  37.078   4.391  14.851
72195W        W37422  18.715  41.762  13.592
72196W        W37423  18.590  12.358   3.199
72197W        W37424   2.374  33.469   4.254
72198W        W37425   2.431  35.107  11.167
72199W        W37426  35.271  10.282  14.503
72200W        W37427   7.104  31.181   3.697
72201W        W37428  27.991  10.929   0.326
72202W        W37429  31.450  27.850  10.710
72203W        W37430   1.947  44.935   1.413
72204W        W37431  44.557  33.553  11.651
72205W        W37432   3.431  44.877  13.368
72206W        W37433   3.707  15.514   4.204
72207W        W37434  29.689  33.590   4.510
72208W        W37435  27.660  35.291   2.347
72209W        W37436  16.751  37.434   1.294
72210W        W37437  42.439  10.084   2.484
72211W        W37438  34.233  21.862  10.947
72212W        W37439  24.128  22.879   0.493
72213W        W37440   3.345  40.912   0.691
72214W        W37441   3.259  36.391   3.256
72215W        W37442  24.160  35.157   0.578
72216W        W37443  38.435  16.522  12.966
72217W        W37444  21.160  32.982  12.104
72218W        W37445  19.532  19.042   2.755
72219W        W37446  32.072  23.924  13.405
72220W        W37447   8.728  36.633   4.178
72221W        W37448   3.482  38.092   1.109
72222W        W37449  34.850  11.450   9.991
72223W        W37450   8.781   7.683   2.589
72224W        W37451   2.291  37.078   3.780
72225W        W37452  22.618  40.200   4.077
72226W        W37453  17.658  43.500   4.123
72227W        W37454  17.750   6.038   1.915
72228W        W37455  15.751  28.037   2.575
72229W        W37456  41.521  17.574  13.431
72230W        W37457  10.681  11.894  13.171
72231W        W37458  30.140   6.789  14.861
72232W        W37459  18.856  37.105   2.960
72233W        W37460  44.047  22.647   2.909
72234W        W37461   0.265  25.510   4.302
72235W        W37462   5.813  18.690  14.103
72236W        W37463  25.234  22.222   2.677
72237W        W37464  23.200  13.244   2.796
72238W        W37465   5.735  16.853  12.961
72239W        W37466   2.413  38.792  11.933
72240W        W37467  33.565  17.216  11.037
72241W        W37468   0.928  42.210   4.560
72242W        W37469   3.766   4.880   3.240
72243W        W37470  39.051  28.455   9.930
72244W        W37471  27.154  43.916   1.754
72245W        W37472  19.131  16.059  11.636
72246W        W37473  13.164  10.384   3.266
72247W        W37474  12.104   9.724   2.789
72248W        W37475  25.236  28.162   4.210
72249W        W37476  25.022  34.630  12.478
72250W        W37477   4.286  20.600  14.904
72251W        W37478  23.600  16.865   3.061
72252W        W37479   6.789  41.390   3.348
72253W        W37480  32.877  36.143  14.432
72254W        W37481  23.311  16.258   0.204
72255W        W37482  34.934  21.851  11.592
72256W        W37483  24.514  22.593   2.212
72257W        W37484  16.707  26.096  14.853
72258W        W37485  31.445   5.465   3.695
72259W        W37486  12.576  10.392  14.902
72260W        W37487  39.546  42.102  11.120
72261W        W37488   5.898   4.960   4.944
72262W        W37489   2.852  16.637   3.609
72263W        W37490  22.565  13.613  13.942
72264W        W37491  18.728   0.188  14.632
72265W        W37492   4.039  11.300   3.578
72266W        W37493   5.257  34.709   0.889
72267W        W37494   2.345  19.593   3.275
72268W        W37495  26.956  13.185   0.310
72269W        W37496  38.107  28.909   1.960
72270W        W37497  34.476  38.346  13.108
72271W        W37498   0.991   4.765   3.656
72272W        W37499  27.088   5.773  14.922
72273W        W37500  29.597  19.790  11.624
72274W        W37501  41.303  21.197   3.657
72275W        W37502  28.388  14.150   2.293
72276W        W37503  31.433  43.333   1.541
72277W        W37504  39.429   0.722   1.236
72278W        W37505  41.949   9.902  11.158
72279W        W37506  17.045  17.231   2.256
72280W        W37507  10.994   7.822  13.898
72281W        W37508  17.701   2.335   2.399
72282W        W37509  18.170  38.633   2.250
72283W        W37510  13.438  10.215   3.672
72284W        W37511  17.572  10.507   3.936
72285W        W37512  15.758  32.835   3.239
72286W        W37513  42.911  41.798  14.114
72287W        W37514   4.033  26.248  11.565
72288W        W37515   6.481  14.738  13.442
72289W        W37516  21.813  17.153   4.950
72290W        W37517  36.850  39.376  10.693
72291W        W37518  41.247   4.300   3.312
72292W        W37519   5.175  29.558   4.607
72293W        W37520   7.727  21.076  12.099
72294W        W37521  34.698  13.172  10.972
72295W        W37522  42.803   4.043  11.527
72296W        W37523  12.828  32.989   0.953
72297W        W37524   7.888  38.857  12.412
72298W        W37525  40.555  36.072   4.144
72299W        W37526   1.971  39.558   2.195
72300W        W37527  29.054   2.926  13.737
72301W        W37528  20.808  31.303   1.451
72302W        W37529  24.836  13.934  10.858
72303W        W37530  38.804  20.579  11.347
72304W        W37531  34.065  26.911  14.517
72305W        W37532  26.714  42.890  14.351
72306W        W37533  38.848  30.964  12.008
72307W        W37534  13.877  18.572   0.944
72308W        W37535  30.681  35.753   2.879
72309W        W37536  33.938  26.219   4.585
72310W        W37537  27.364  26.230   2.422
72311W        W37538  19.686   9.341  13.013
72312W        W37539  44.588  29.362  12.646
72313W        W37540   2.844   7.499  13.086
72314W        W37541   7.599  26.051   2.611
72315W        W37542   1.015  12.059  11.540
72316W        W37543   4.743  37.903  13.966
72317W        W37544  38.576  23.215  13.903
72318W        W37545  12.272  14.846  12.400
72319W        W37546  11.244   1.351  11.607
72320W        W37547   4.260  32.623  14.532
72321W        W37548   6.165  15.261  12.459
72322W        W37549  41.079  13.114   3.688
72323W        W37550  40.182   7.273   0.945
72324W        W37551   3.501  28.451   0.182
72325W        W37552  27.843  22.496   2.253
72326W        W37553  15.148  22.503   4.580
72327W        W37554   9.132  25.071  12.470
72328W        W37555   4.550  39.830  13.559
72329W        W37556  16.666  39.420   4.298
72330W        W37557  20.765  36.830  14.859
72331W        W37558  23.966  27.439  13.468
72332W        W37559  13.530  27.862  14.783
72333W        W37560  32.109   5.205  12.561
72334W        W37561  25.770  18.499   1.912
72335W        W37562   5.788   1.129  12.907
72336W        W37563   5.903  18.332   9.818
72337W        W37564  11.379  24.042   2.682
72338W        W37565  29.169  25.452  13.375
72339W        W37566  41.834  37.976   2.327
72340W        W37567   3.958  19.961  11.210
72341W        W37568  25.232  27.573  12.049
72342W        W37569   9.377  36.913   3.574
72343W        W37570  11.074  36.394  11.156
72344W        W37571  37.248  43.769  14.515
72345W        W37572  42.901   0.312  11.943
72346W        W37573  12.566  14.704  12.872
72347W        W37574  13.703  44.214  14.658
72348W        W37575  23.715  39.058  13.130
72349W        W37576  44.063   2.214   0.304
72350W        W37577  38.840  28.055  12.834
72351W        W37578  33.966  42.931   2.200
72352W        W37579  34.578  12.871  14.525
72353W        W37580  38.773  11.540  12.440
72354W        W37581   1.834  33.123  12.500
72355W        W37582  24.781  28.323   0.449
72356W        W37583   3.652  39.084  12.626
72357W        W37584  27.446   6.129   4.602
72358W        W37585  36.014  28.500  10.659
72359W        W37586   1.863  29.927  13.043
72360W        W37587  30.944  44.126   2.004
72361W        W37588  42.405  38.735   1.160
72362W        W37589   1.440  29.680   1.835
72363W        W37590  23.010  18.691   0.407
72364W        W37591  25.986  28.464  14.377
72365W        W37592  10.143  23.485   4.308
72366W        W37593   3.379  12.894  14.955
72367W        W37594  24.641   8.565   0.808
72368W        W37595   9.862  21.648   2.672
72369W        W37596  15.510  35.110  14.874
72370W        W37597   0.565   4.225  10.723
72371W        W37598   1.476  20.298   2.255
72372W        W37599  22.210  17.830   1.030
72373W        W37600  24.975  16.772   4.466
72374W        W37601  21.859  18.997   2.544
72375W        W37602  33.714  13.255  14.404
72376W        W37603  28.938  11.744   2.647
72377W        W37604  38.942  32.238  10.728
72378W        W37605  40.142  14.838  14.454
72379W        W37606  37.103  42.771   9.691
72380W        W37607   3.295  42.535   1.830
72381W        W37608   4.054  12.416  11.108
72382W        W37609  36.008  23.960   0.874
72383W        W37610  26.519  25.921   2.802
72384W        W37611  23.597  34.600   3.208
72385W        W37612  32.920   7.324  14.274
72386W        W37613  36.347  13.298   2.763
72387W        W37614   1.469  31.438  14.123
72388W        W37615  25.704   5.645  14.948
72389W        W37616  44.774  15.210  10.735
72390W        W37617  16.766  17.501  13.807
72391W        W37618  36.881  26.352  10.170
72392W        W37619  24.833  26.401  13.117
72393W        W37620  34.876  23.182  10.556
72394W        W37621  26.828   8.354   4.709
72395W        W37622   8.193  31.399  14.525
72396W        W37623  33.797  21.362  14.839
72397W        W37624   6.622   2.901   4.855
72398W        W37625   7.165  39.383  12.954
72399W        W37626  32.352  12.896   2.864
72400W        W37627   5.905  29.555   4.100
72401W        W37628  28.970  34.814  13.096
72402W        W37629  22.113  39.913  13.291
72403W        W37630   3.421  20.031   2.348
72404W        W37631  10.976  14.358  10.723
72405W        W37632   8.592  32.828   3.962
72406W        W37633   6.199  29.516  10.923
72407W        W37634  32.217  36.516   3.606
72408W        W37635  40.988  31.914   0.752
72409W        W37636  30.298  36.833   0.387
72410W        W37637   8.184  34.008   2.228
72411W        W37638   0.964   4.121  13.600
72412W        W37639  19.235  21.088  12.487
72413W        W37640   2.508   8.716  11.192
72414W        W37641  36.749  32.663   1.429
72415W        W37642  32.885  33.999  13.606
72416W        W37643  24.253  12.630  14.827
72417W        W37644  35.611   4.326  10.686
72418W        W37645  43.026  17.307  10.802
72419W        W37646  29.974  39.841  13.841
72420W        W37647  11.722  30.789   4.979
72421W        W37648  20.328  37.700   3.654
72422W        W37649  15.517   3.998  12.553
72423W        W37650  31.442  42.479   0.341
72424W        W37651   9.861   7.272  13.901
72425W        W37652  44.554   5.600   5.055
72426W        W37653  37.259  32.503   0.051
72427W        W37654   6.763  36.888   4.565
72428W        W37655  28.300   7.260  13.686
72429W        W37656  37.983  21.211  11.257
72430W        W37657   5.008  29.880   1.388
72431W        W37658   3.058  25.963   1.880
72432W        W37659  36.248   7.292   2.195
72433W        W37660   5.560  21.714   3.800
72434W        W37661  17.053  14.568  11.147
72435W        W37662  24.915  32.191   3.670
72436W        W37663  42.804  39.352  14.137
72437W        W37664  16.266   6.923  13.019
72438W        W37665   1.975  30.217  14.423
72439W        W37666  16.500  39.357  10.903
72440W        W37667  22.732  32.531  10.550
72441W        W37668   0.249  11.853   3.677
72442W        W37669   1.206  27.203   0.975
72443W        W37670  14.793  13.792  12.948
72444W        W37671  15.004   4.802  10.728
72445W        W37672  16.770  37.289   2.659
72446W        W37673   5.150  10.401   3.747
72447W        W37674  37.814  35.807   4.035
72448W        W37675   3.755  18.756   2.136
72449W        W37676  10.265  36.792   3.663
72450W        W37677  16.164  31.993   2.957
72451W        W37678   9.801   7.323  11.583
72452W        W37679  31.179  17.758   0.244
72453W        W37680  39.566  37.283  14.873
72454W        W37681  35.618   5.904   2.405
72455W        W37682  38.990  21.841   1.764
72456W        W37683   0.256   1.935   2.845
72457W        W37684   8.753  10.271   1.303
72458W        W37685  29.506  28.177   3.445
72459W        W37686  24.417  32.587  12.133
72460W        W37687  17.836  36.028  11.571
72461W        W37688  36.383  21.816  12.950
72462W        W37689  25.506  16.311  12.338
72463W        W37690   6.078  42.562  11.658
72464W        W37691  37.612  25.813  12.481
72465W        W37692  14.878  35.728   5.059
72466W        W37693  23.176  12.334  14.041
72467W        W37694  39.538   6.978  10.338
72468W        W37695  39.658  21.053   0.428
72469W        W37696  21.001  19.739  14.058
72470W        W37697  24.004  26.929  13.379
72471W        W37698  33.949  12.715   4.616
72472W        W37699   5.792  22.613   2.854
72473W        W37700  29.650  39.504  10.545
72474W        W37701   3.454  15.300  12.126
72475W        W37702  31.657  17.566   0.235
72476W        W37703  38.583  12.838   4.321
72477W        W37704   1.457   4.634   3.910
72478W        W37705  34.194  38.155   3.569
72479W        W37706  21.214  44.220  14.445
72480W        W37707  30.075   3.321   2.651
72481W        W37708   4.301  15.847   1.895
72482W        W37709  12.613  23.228  12.383
72483W        W37710   1.204   9.875  11.213
72484W        W37711  20.902  18.728   4.184
72485W        W37712  40.915  32.083   4.329
72486W        W37713  21.601   0.987   9.714
72487W        W37714  23.633  21.018   3.377
72488W        W37715  18.712  21.822  12.085
72489W        W37716   6.440  19.305   4.490
72490W        W37717  21.073   7.381  10.571
72491W        W37718  13.618   1.668  14.032
72492W        W37719  10.819   7.426   1.456
72493W        W37720   3.395   2.792   3.882
72494W        W37721  18.216  28.424  14.880
72495W        W37722  20.182  42.443   3.710
72496W        W37723  38.308  28.232  12.151
72497W        W37724  19.365  26.638  12.110
72498W        W37725  21.509  21.450   3.186
72499W        W37726  23.993  36.675  12.516
72500W        W37727  38.900  24.295   3.717
72501W        W37728  20.237  21.723  14.900
72502W        W37729   1.278  41.455   3.865
72503W        W37730  43.369  21.758  12.533
72504W        W37731  22.547  44.437   0.287
72505W        W37732  28.744  44.409  11.084
72506W        W37733  44.681  12.316   4.611
72507W        W37734  26.185  32.654  11.962
72508W        W37735  19.124   6.069   0.439
72509W        W37736   3.867  23.757  13.475
72510W        W37737  18.686  30.725  11.065
72511W        W37738  12.270  43.757  13.534
72512W        W37739  13.862  31.522   4.005
72513W        W37740  16.536  42.523   3.296
72514W        W37741   1.364  32.101  12.425
72515W        W37742  26.900   8.934   4.682
72516W        W37743  18.981  41.227  11.630
72517W        W37744  34.476  28.047  11.405
72518W        W37745  21.157  11.678  11.102
72519W        W37746  15.296  19.086  10.725
72520W        W37747  12.277  40.245  11.751
72521W        W37748  29.716   7.292  13.038
72522W        W37749  31.121  11.556  11.434
72523W        W37750  34.015  29.833   4.251
72524W        W37751   7.105  26.447  10.964
72525W        W37752  19.191  37.509  12.996
72526W        W37753  13.160  35.547   4.599
72527W        W37754  31.218  17.695  10.225
72528W        W37755  20.125  31.950   1.984
72529W        W37756  17.312  21.206   0.987
72530W        W37757  14.116  35.343  12.083
72531W        W37758   9.178   1.974  14.912
72532W        W37759  43.353  32.119  11.605
72533W        W37760  42.317   1.695   1.212
72534W        W37761   1.716  23.229  14.422
72535W        W37762  40.451  39.298  10.639
72536W        W37763  23.465   8.280   0.397
72537W        W37764  32.645   1.021   3.974
72538W        W37765  40.599  21.991  14.085
72539W        W37766  27.528  44.409  10.191
72540W        W37767  28.266  27.044   1.766
72541W        W37768  22.605  30.620  13.100
72542W        W37769  38.858  35.662   0.121
72543W        W37770  26.696   1.366   4.619
72544W        W37771  11.783  16.135   2.499
72545W        W37772  21.565  29.532  11.961
72546W        W37773   1.056  12.788   3.775
72547W        W37774   8.854   3.997   3.107
72548W        W37775   8.013   9.627  12.142
72549W        W37776  26.204  29.389  11.028
72550W        W37777  15.874   5.771   4.083
72551W        W37778  15.888  23.576  13.792
72552W        W37779  44.765  16.563   2.110
72553W        W37780  41.935  42.550  13.825
72554W        W37781  44.838  12.279  14.459
72555W        W37782  42.877   9.363  14.345
72556W        W37783  15.575  11.151   1.712
72557W        W37784  39.495  16.070   4.222
72558W        W37785  14.229  20.210  14.654
72559W        W37786  35.267   0.619   0.184
72560W        W37787  31.284  35.519  14.795
72561W        W37788  24.260  14.568   0.777
72562W        W37789   2.850  10.860  13.011
72563W        W37790  15.218  44.088  10.950
72564W        W37791  41.474   1.481  13.020
72565W        W37792  26.476  19.440  12.431
72566W        W37793   1.965  39.615  10.861
72567W        W37794   3.729  35.889   0.988
72568W        W37795  25.205  32.995  11.906
72569W        W37796  11.269  13.994  13.003
72570W        W37797  10.332   6.437  14.892
72571W        W37798   0.054  11.231   2.368
72572W        W37799  40.486  36.061   3.142
72573W        W37800  27.057  30.698   1.681
72574W        W37801  19.507  12.761   3.183
72575W        W37802  40.602  32.488  12.690
72576W        W37803  36.498  35.222  12.518
72577W        W37804  16.122  24.461  13.755
72578W        W37805  40.816  34.422   1.440
72579W        W37806  42.223  16.372   4.559
72580W        W37807   8.106   5.821  14.525
72581W        W37808   2.515   3.241   2.938
72582W        W37809  44.259  21.966   1.116
72583W        W37810  13.600  41.278   2.837
72584W        W37811  10.401  40.311  10.895
72585W        W37812  34.996  16.658  11.864
72586W        W37813  12.814  24.133  13.796
72587W        W37814  15.309  28.992   2.598
72588W        W37815  24.470  16.591  12.991
72589W        W37816  31.823  12.904  11.690
72590W        W37817  16.604  27.116   1.276
72591W        W37818  14.531  14.334   1.629
72592W        W37819  25.069  14.728   1.134
72593W        W37820   8.036  43.683   2.259
72594W        W37821  15.258   9.644  12.432
72595W        W37822  31.536  16.144  13.399
72596W        W37823  26.647  16.508  14.504
72597W        W37824   6.358   1.838   4.040
72598W        W37825  31.998   5.325  11.532
72599W        W37826  35.053  43.934   0.091
72600W        W37827  23.393   6.747   3.615
72601W        W37828  18.577   5.919   0.318
72602W        W37829  13.805  32.939   0.843
72603W        W37830   0.835  14.120  12.943
72604W        W37831  19.565  12.460   0.710
72605W        W37832  31.251  14.694   2.292
72606W        W37833  34.885  17.705   0.757
72607W        W37834  40.539  27.485   1.897
72608W        W37835   0.128  28.426   1.824
72609W        W37836   0.437  18.219  13.343
72610W        W37837  28.237  18.514  14.828
72611W        W37838  24.910  23.632   4.217
72612W        W37839  20.572   7.852   1.709
72613W        W37840  27.022  35.825   0.178
72614W        W37841  42.915  29.107  14.768
72615W        W37842  29.203   7.667  13.455
72616W        W37843  16.882  24.097   1.606
72617W        W37844  29.058  36.120   2.312
72618W        W37845  14.176  44.645   2.326
72619W        W37846  29.027  16.824   4.466
72620W        W37847  34.723   5.335  14.963
72621W        W37848  34.336  22.698   3.296
72622W        W37849  32.122  16.850   2.395
72623W        W37850   5.832  31.912   3.762
72624W        W37851  37.547  36.088  12.893
72625W        W37852   8.116   1.310  13.201
72626W        W37853  36.053   5.281   4.892
72627W        W37854  42.272   3.490  11.433
72628W        W37855  26.477  23.526   2.715
72629W        W37856  23.158  27.325   2.745
72630W        W37857  34.947  16.501  10.640
72631W        W37858  29.508  28.221   2.940
72632W        W37859   5.167  25.031   1.262
72633W        W37860   9.783   6.714   0.912
72634W        W37861  44.068  15.811   0.293
72635W        W37862  23.684  29.971  11.168
72636W        W37863  24.798  35.287  11.271
72637W        W37864  19.807  17.605   0.891
72638W        W37865  35.903  14.055   0.753
72639W        W37866  32.487  30.587  13.316
72640W        W37867  34.720  15.070   0.709
72641W        W37868  31.046  25.078  12.670
72642W        W37869  39.481  30.664  12.257
72643W        W37870  15.760  35.598  14.818
72644W        W37871  18.614  30.955   2.111
72645W        W37872  38.813  36.810   3.652
72646W        W37873  40.713   7.127   4.903
72647W        W37874  12.490  44.563   2.855
72648W        W37875  25.081  10.942  10.745
72649W        W37876  42.946   1.528  12.894
72650W        W37877   7.409  32.379   0.160
72651W        W37878  37.603   1.016   0.831
72652W        W37879  20.512  14.657  11.087
72653W        W37880  20.981  28.267   0.997
72654W        W37881  15.570  35.940  12.432
72655W        W37882  43.783  38.558   4.053
72656W        W37883  13.754  24.598   2.016
72657W        W37884   4.065  36.908   4.132
72658W        W37885  33.278  22.784   3.268
72659W        W37886  33.972   0.548  14.970
72660W        W37887  32.795  33.526  13.313
72661W        W37888  36.072  19.043  10.568
72662W        W37889  30.534  21.059   3.367
72663W        W37890   5.305  34.363   4.248
72664W        W37891   4.691   1.190   3.420
72665W        W37892  31.696   6.389   0.097
72666W        W37893  20.742  15.690  14.327
72667W        W37894  43.529  29.877  10.940
72668W        W37895  40.304  35.508   2.227
72669W        W37896  24.806  29.901  12.034
72670W        W37897  11.245   2.707  11.497
72671W        W37898  13.853  20.522   0.999
72672W        W37899  33.189   7.633   3.265
72673W        W37900   3.420  18.107   1.554
72674W        W37901  37.871   1.736  12.600
72675W        W37902  33.899  11.730   4.524
72676W        W37903   8.096  22.966   3.629
72677W        W37904   8.822  35.901  13.830
72678W        W37905  44.866  30.059  11.147
72679W        W37906  22.382  26.186   1.237
72680W        W37907  28.052  36.637  13.911
72681W        W37908  11.972  33.169  11.676
72682W        W37909  14.142  34.845  12.013
72683W        W37910   3.837  17.075   4.810
72684W        W37911  25.507  10.411   1.338
72685W        W37912  16.769  27.611  10.719
72686W        W37913  44.496   8.906   0.854
72687W        W37914  19.606  29.166  13.555
72688W        W37915  11.267  17.991   2.238
72689W        W37916  30.436  44.577   4.939
72690W        W37917  25.281  35.987   1.632
72691W        W37918  13.764  21.960   3.651
72692W        W37919  32.691   4.449   4.884
72693W        W37920   3.413   5.041  10.305
72694W        W37921   0.192  12.228  14.090
72695W        W37922   8.280  28.634   0.467
72696W        W37923  39.800  44.193   0.536
72697W        W37924   1.523  22.699  13.440
72698W        W37925  44.769  21.966  12.562
72699W        W37926  29.891  15.586   0.304
72700W        W37927  23.538  43.737  13.388
72701W        W37928   6.400  35.839   3.718
72702W        W37929  38.299  32.544  13.750
72703W        W37930  43.868  44.784   4.426
72704W        W37931  39.046   3.443   1.681
72705W        W37932  27.734   1.202   3.651
72706W        W37933  11.704  23.166  12.496
72707W        W37934  34.364   1.774   1.858
72708W        W37935  15.745  12.656   1.701
72709W        W37936  38.591  19.653  10.855
72710W        W37937  36.837  11.422  10.572
72711W        W37938   2.460   0.093   3.150
72712W        W37939   1.696  16.085  12.079
72713W        W37940   5.139  40.446  14.905
72714W        W37941  11.255  40.207   0.426
72715W        W37942  13.101  35.083  10.282
72716W        W37943  44.263  12.171   1.853
72717W        W37944  25.949  25.753  10.708
72718W        W37945  20.085  42.878   4.501
72719W        W37946  44.065  39.235  10.759
72720W        W37947  12.292  29.389  11.968
72721W        W37948  29.251   2.930   3.242
72722W        W37949  32.001   3.449   3.210
72723W        W37950  20.819  19.994  14.504
72724W        W37951  11.191  42.772   2.159
72725W        W37952  34.877  35.885  10.528
72726W        W37953  27.736  15.808  13.014
72727W        W37954  15.632   7.754  11.634
72728W        W37955  37.006  38.989   0.324
72729W        W37956  17.071  17.947   4.608
72730W        W37957  42.908  12.971  14.390
72731W        W37958  42.371  36.308   2.466
72732W        W37959  13.831   7.843   3.220
72733W        W37960  19.547  22.537  10.694
72734W        W37961  14.385  44.994   0.805
72735W        W37962  37.654  41.475  11.576
72736W        W37963   2.843  24.859   0.372
72737W        W37964  20.822  11.830   1.080
72738W        W37965  21.149  12.659   4.257
72739W        W37966  32.119   2.700   3.614
72740W        W37967  17.595  40.209   0.367
72741W        W37968  34.552  24.493   1.308
72742W        W37969  33.907  12.313   0.884
72743W        W37970  19.631  15.657   4.659
72744W        W37971  12.893  35.848  12.533
72745W        W37972  25.993   3.775   1.231
72746W        W37973   1.679  43.464  13.729
72747W        W37974   7.346  18.511   0.281
72748W        W37975  16.503   3.015  11.633
72749W        W37976   5.760  12.997  11.241
72750W        W37977  34.140   7.242  12.873
72751W        W37978  35.127  33.149  13.070
72752W        W37979   9.715   6.753   3.607
72753W        W37980  38.562  16.270   2.904
72754W        W37981  13.692  19.761  12.525
72755W        W37982  33.630   1.854   0.764
72756W        W37983   7.263  34.683   1.018
72757W        W37984  16.482  42.183   0.676
72758W        W37985  27.195  16.136   0.842
72759W        W37986  38.928  19.032  12.038
72760W        W37987   3.962  38.403  11.436
72761W        W37988  44.933  10.799   2.684
72762W        W37989  16.804  17.315   3.879
72763W        W37990   3.855   3.328   3.578
72764W        W37991  15.147  42.032  12.337
72765W        W37992  29.430  23.200   0.187
72766W        W37993  35.525  31.547  12.690
72767W        W37994  38.657  40.850  14.454
72768W        W37995  16.130  34.627  11.923
72769W        W37996  26.743   9.230  11.953
72770W        W37997   0.537   3.271  14.954
72771W        W37998  19.815  38.718  14.304
72772W        W37999  21.153  30.143  10.483
72773W        W38000  19.613  35.006  10.658
72774W        W38001  34.929  21.497  12.406
72775W        W38002   6.193  24.146  14.943
72776W        W38003  20.646  17.298  12.440
72777W        W38004   8.604  12.530  10.165
72778W        W38005   8.210   6.767   4.568
72779W        W38006  15.623  19.522   0.861
72780W        W38007  30.292   0.220  11.597
72781W        W38008  35.859   2.384   1.508
72782W        W38009  33.562  25.626  11.059
72783W        W38010  26.728  40.074  10.598
72784W        W38011  40.382  31.606   0.579
72785W        W38012  34.911  43.213  11.530
72786W        W38013  38.464  30.199  14.782
72787W        W38014  29.064  32.842   2.786
72788W        W38015  36.780  39.479   3.588
72789W        W38016  35.797   8.504   5.087
72790W        W38017   0.169  31.517  11.953
72791W        W38018  28.193  25.849   2.147
72792W        W38019   0.844   8.213  11.150
72793W        W38020   7.238  14.055   1.142
72794W        W38021  38.921  22.454   0.159
72795W        W38022   1.307  13.433   1.166
72796W        W38023  31.095   5.941   4.537
72797W        W38024  29.602   9.630  10.971
72798W        W38025  27.962  29.944  13.837
72799W        W38026  29.198  12.026  13.425
72800W        W38027  38.455  41.975   0.186
72801W        W38028  39.614  36.781  14.765
72802W        W38029  21.008  35.403   3.130
72803W        W38030  20.735  38.605  10.603
72804W        W38031  31.853  38.055   4.985
72805W        W38032  18.347  39.393  12.379
72806W        W38033   4.832   9.781   4.623
72807W        W38034  18.794  22.723  14.109
72808W        W38035  24.062  15.338   2.867
72809W        W38036  13.363   4.129  13.603
72810W        W38037   6.392  33.527  13.961
72811W        W38038  14.841  39.023  14.675
72812W        W38039  17.273   6.862  11.997
72813W        W38040  33.089  20.252  12.563
72814W        W38041   5.408  37.720  14.440
72815W        W38042  40.332   8.053   4.182
72816W        W38043   1.324  16.290   2.555
72817W        W38044  23.781   9.483   1.278
72818W        W38045  10.203  18.141  14.337
72819W        W38046  18.107  19.436  14.077
72820W        W38047  36.913  18.148  11.417
72821W        W38048  13.884  40.619   0.973
72822W        W38049  23.456   2.570  11.105
72823W        W38050   5.418  14.718  13.527
72824W        W38051  26.150   7.375   4.563
72825W        W38052  28.930  21.708   1.914
72826W        W38053  39.312  21.025  10.768
72827W        W38054  23.044   5.396  13.383
72828W        W38055  31.649  36.820  13.459
72829W        W38056  17.917  27.478   2.945
72830W        W38057   7.111  25.834  14.265
72831W        W38058  22.956  29.954  10.659
72832W        W38059  15.905  18.645   0.697
72833W        W38060   4.499  20.116   2.308
72834W        W38061  29.956  42.504   2.396
72835W        W38062  10.827   2.540  11.869
72836W        W38063  22.119   5.063   2.812
72837W        W38064  23.983  10.081   3.695
72838W        W38065   6.763   1.868   2.352
72839W        W38066   2.519  13.541  11.593
72840W        W38067   6.504  28.882  11.625
72841W        W38068  40.890   2.661  12.683
72842W        W38069  35.959  31.512  11.361
72843W        W38070  42.722  12.357  11.311
72844W        W38071  24.865  16.751  14.956
72845W        W38072   2.138  22.969  11.035
72846W        W38073  27.643  40.492  11.505
72847W        W38074   1.027  16.306   5.266
72848W        W38075  12.885  16.305   2.601
72849W        W38076  38.532  25.985  14.346
72850W        W38077  38.383   8.706   1.678
72851W        W38078  27.658   1.656   2.338
72852W        W38079   4.399  11.579  12.036
72853W        W38080  38.990  21.494  14.884
72854W        W38081  29.095  43.960  13.147
72855W        W38082   6.433   2.765   2.649
72856W        W38083  25.558  32.659  13.464
72857W        W38084  35.983  39.350   4.221
72858W        W38085   7.941  32.453  12.509
72859W        W38086  27.525  27.163   4.574
72860W        W38087   8.216  24.681  14.456
72861W        W38088  19.263  16.494   1.324
72862W        W38089  21.995  41.791  12.964
72863W        W38090  10.735  44.851  10.875
72864W        W38091  13.126  30.625  13.346
72865W        W38092  34.433  18.114   2.213
72866W        W38093  42.950   2.266  11.021
72867W        W38094  29.046  10.894  14.812
72868W        W38095  22.792  37.904   2.784
72869W        W38096  21.785  14.849  11.972
72870W        W38097  29.830  42.308   4.666
72871W        W38098   2.675   0.378   0.864
72872W        W38099  28.647  43.571   1.069
72873W        W38100  36.955  16.270   2.336
72874W        W38101  13.131  16.237  13.004
72875W        W38102  33.459   1.227  10.704
72876W        W38103  27.666  27.844  11.450
72877W        W38104  24.073  25.523  12.344
72878W        W38105  17.896  39.200   3.211
72879W        W38106   1.509   2.309   1.712
72880W        W38107  41.272  31.057   2.382
72881W        W38108  13.737  13.650   2.590
72882W        W38109  29.931  42.133   4.187
72883W        W38110   6.500  28.129   2.444
72884W        W38111  18.998  31.829   0.358
72885W        W38112  31.796  14.773  13.375
72886W        W38113  44.367   2.811  13.013
72887W        W38114  39.963   7.875   2.148
72888W        W38115  15.315  13.838  12.962
72889W        W38116   1.379  39.723   3.672
72890W        W38117  32.206  17.011  14.653
72891W        W38118   1.941  34.979  13.799
72892W        W38119  25.650  34.371   1.708
72893W        W38120  18.842  32.357   2.660
72894W        W38121   8.816  21.963   0.874
72895W        W38122  24.030  15.215  12.630
72896W        W38123  39.026  12.033  12.463
72897W        W38124  21.209  18.819  11.129
72898W        W38125  40.930  10.302  12.618
72899W        W38126  20.187  26.667   3.263
72900W        W38127  18.734  10.966   4.387
72901W        W38128  37.032  34.858   0.726
72902W        W38129  24.245  29.038   0.196
72903W        W38130  23.579  22.459   3.845
72904W        W38131  19.174  43.129   3.202
72905W        W38132  39.308  35.047   0.498
72906W        W38133  13.366  31.603  11.937
72907W        W38134  43.262  40.378   1.965
72908W        W38135   7.444  37.899   4.286
72909W        W38136  29.494  19.317  14.841
72910W        W38137  25.909   8.755   1.266
72911W        W38138  28.072  34.029  11.513
72912W        W38139  30.441   1.691   3.672
72913W        W38140  22.552  21.703   3.446
72914W        W38141  21.162  17.466   4.205
72915W        W38142  16.526  17.722  10.339
72916W        W38143  16.700  38.121   3.238
72917W        W38144  40.389  41.494  11.151
72918W        W38145   9.389  21.683  10.639
72919W        W38146  13.687  21.964   0.401
72920W        W38147   9.507  13.270   2.304
72921W        W38148  22.696  22.479  11.577
72922W        W38149  44.279  27.622  10.372
72923W        W38150  36.838  36.840  12.506
72924W        W38151  44.718  35.905  13.377
72925W        W38152  12.199  31.233   1.306
72926W        W38153  35.948  30.657  11.220
72927W        W38154  33.316  18.734   1.203
72928W        W38155  33.374  36.273  12.077
72929W        W38156   4.103  35.104   3.045
72930W        W38157  15.601  38.236   1.327
72931W        W38158   7.777  25.056   3.141
72932W        W38159   0.478  18.328   1.002
72933W        W38160  39.616  37.291  11.014
72934W        W38161  28.833  15.283   9.799
72935W        W38162   9.743  18.973   5.305
72936W        W38163  33.766  22.197   1.049
72937W        W38164   6.171  20.632   1.992
72938W        W38165  12.844  26.757  12.011
72939W        W38166  12.327  24.584  11.281
72940W        W38167  20.633  30.990   0.308
72941W        W38168  24.030  12.646  12.477
72942W        W38169  36.433  28.681  13.333
72943W        W38170  33.585  15.509   4.009
72944W        W38171  26.884  31.798  11.651
72945W        W38172  28.422  42.784   1.695
72946W        W38173  42.846  12.461   0.164
72947W        W38174   9.952   3.231   4.173
72948W        W38175  21.530  19.780  14.069
72949W        W38176   9.148   1.517  11.308
72950W        W38177  29.034  26.076   2.077
72951W        W38178  28.858   3.180  10.769
72952W        W38179  16.647  41.034  11.396
72953W        W38180  41.890  12.743  14.225
72954W        W38181  35.121  30.499  11.233
72955W        W38182  15.212  32.865  11.040
72956W        W38183   8.192  18.731  14.795
72957W        W38184   0.035  19.634  14.719
72958W        W38185  38.261  39.065  13.396
72959W        W38186   9.348  32.040   1.849
72960W        W38187   5.238  21.084   1.332
72961W        W38188  32.967  21.921   3.213
72962W        W38189  32.470  17.170  13.573
72963W        W38190  26.145  15.196   1.724
72964W        W38191  40.399  35.389   3.568
72965W        W38192  21.968   4.806  13.900
72966W        W38193  14.604  17.094   1.139
72967W        W38194  27.701  42.970  11.571
72968W        W38195  36.476  39.089   0.112
72969W        W38196  40.797  15.913  10.602
72970W        W38197  19.517  26.241   0.395
72971W        W38198  26.176  17.872  12.008
72972W        W38199   3.411   8.124   2.301
72973W        W38200  30.304  22.182  14.432
72974W        W38201  38.977  30.608  10.794
72975W        W38202  32.225   6.242  14.530
72976W        W38203  21.625  15.804  11.538
72977W        W38204   4.845  32.176  13.499
72978W        W38205  40.274  38.926  14.921
72979W        W38206  14.346  39.271   3.139
72980W        W38207  44.896  12.345  10.972
72981W        W38208  35.608  37.987  10.618
72982W        W38209  17.566   4.344  11.591
72983W        W38210  10.233  36.760  13.303
72984W        W38211  21.005  22.697   3.612
72985W        W38212  24.536   1.260  12.009
72986W        W38213  15.347  42.858   0.404
72987W        W38214  39.347   0.440  11.532
72988W        W38215  27.981  20.339  12.110
72989W        W38216  20.090  40.848   4.849
72990W        W38217  12.121   4.605  13.053
72991W        W38218  43.840  12.780   4.547
72992W        W38219  39.607   0.582   4.147
72993W        W38220  36.998  27.569   2.672
72994W        W38221  15.655   4.053  11.633
72995W        W38222  29.565  40.908  14.484
72996W        W38223  23.096  10.186  12.431
72997W        W38224  12.844  32.428  12.291
72998W        W38225  41.313   0.881   3.578
72999W        W38226  30.935  16.486   1.024
73000W        W38227   0.741  39.011  11.938
73001W        W38228  28.697  30.201  11.191
73002W        W38229  42.480  31.219  11.549
73003W        W38230   5.175  21.996  13.221
73004W        W38231   8.635   4.787   0.933
73005W        W38232   9.956  33.800  12.450
73006W        W38233  34.012  41.265   5.051
73007W        W38234   9.276  33.147  10.535
73008W        W38235   5.692   3.021   3.164
73009W        W38236  22.662   7.512  13.087
73010W        W38237  41.583  26.231   3.253
73011W        W38238  44.779   4.488  10.851
73012W        W38239  14.812  18.915  11.295
73013W        W38240  43.272  17.866  11.363
73014W        W38241  25.519  17.727   3.703
73015W        W38242  33.115  14.547   4.514
73016W        W38243  21.720  19.280   1.668
73017W        W38244  32.897   5.496  13.001
73018W        W38245  36.594  22.057  12.061
73019W        W38246  34.623  22.740  10.693
73020W        W38247  15.340  15.779   3.457
73021W        W38248  32.647   3.235  12.605
73022W        W38249  23.163  33.988  14.534
73023W        W38250  14.957  31.022  13.837
73024W        W38251   3.936  34.635   3.901
73025W        W38252  19.560   6.491   5.138
73026W        W38253   4.001  38.037   4.245
73027W        W38254  37.380   9.272   4.538
73028W        W38255  31.819  39.408   0.290
73029W        W38256  26.782  40.915  11.119
73030W        W38257  22.687  13.684   2.161
73031W        W38258  29.657  41.972   3.790
73032W        W38259  44.008  21.533  14.314
73033W        W38260  35.839  27.494   3.089
73034W        W38261   8.146  11.699   3.078
73035W        W38262  18.192  35.085  13.788
73036W        W38263  19.677  27.055  11.220
73037W        W38264  19.691  17.353  11.653
73038W        W38265  43.468  31.394   3.743
73039W        W38266  37.826  12.334   4.677
73040W        W38267  14.674  36.409   2.297
73041W        W38268  30.623  13.705   1.005
73042W        W38269   6.307  31.080  13.574
73043W        W38270  19.180  25.494  13.501
73044W        W38271  26.541  32.784   2.111
73045W        W38272  37.056  33.578  12.379
73046W        W38273  33.228  31.354   4.858
73047W        W38274  14.698  10.577   1.328
73048W        W38275   8.450  37.564   3.163
73049W        W38276   8.095   0.047   3.534
73050W        W38277  10.127  43.859   0.398
73051W        W38278  31.821  29.470  14.067
73052W        W38279   0.764  33.478  10.742
73053W        W38280  32.569   5.676   4.134
73054W        W38281  30.963   7.705   1.667
73055W        W38282   0.411  40.527   4.116
73056W        W38283   7.319  27.315  10.406
73057W        W38284   4.853  15.545  13.856
73058W        W38285  20.232   9.082   3.572
73059W        W38286   0.853  19.091   2.329
73060W        W38287  40.303  12.043  10.937
73061W        W38288  20.794  13.903  14.438
73062W        W38289  39.452  20.306  14.977
73063W        W38290  19.818  41.297  11.179
73064W        W38291  23.276  42.475  11.082
73065W        W38292  38.322  36.926   3.610
73066W        W38293  20.004   7.612  12.900
73067W        W38294  35.116  35.407  14.457
73068W        W38295  40.059   1.307  13.464
73069W        W38296  36.413  17.660  12.609
73070W        W38297  15.262  32.106   1.587
73071W        W38298   9.238   8.298   1.968
73072W        W38299  42.548  16.660  11.605
73073W        W38300  29.220  29.733  14.445
73074W        W38301  12.838  19.706  12.977
73075W        W38302  18.775  42.784   3.123
73076W        W38303  30.719  31.599   0.471
73077W        W38304  21.556  44.949   0.321
73078W        W38305  20.583  30.122  14.222
73079W        W38306  27.568  17.359  14.848
73080W        W38307   7.250  20.239  14.916
73081W        W38308  40.978  12.537  12.420
73082W        W38309  44.415  30.239   4.502
73083W        W38310  44.895  33.553   4.539
73084W        W38311  23.547  18.118   4.493
73085W        W38312  44.561  16.862  13.130
73086W        W38313   3.814  39.786   1.744
73087W        W38314  11.695  38.897   3.273
73088W        W38315  23.108  42.965   3.768
73089W        W38316  11.268   0.175   3.670
73090W        W38317  24.700  19.096   1.859
73091W        W38318  31.522  19.518  12.112
73092W        W38319  17.990  37.880  12.346
73093W        W38320  26.503  12.492   0.980
73094W        W38321  23.773   8.344  14.917
73095W        W38322  44.204   4.246  11.936
73096W        W38323   6.224  17.415   4.126
73097W        W38324  36.588  20.052  14.837
73098W        W38325  36.180   2.414  14.963
73099W        W38326   7.942  44.579   3.405
73100W        W38327  25.616  31.496   0.257
73101W        W38328  17.760   4.452   4.687
73102W        W38329  18.145  30.399  14.946
73103W        W38330  27.359  43.704  12.944
73104W        W38331  41.849  44.307   2.206
73105W        W38332   7.824  38.766   3.684
73106W        W38333  18.145   5.002  13.375
73107W        W38334   1.254  23.719   3.665
73108W        W38335  40.020  30.768  12.540
73109W        W38336  19.854  10.319   3.312
73110W        W38337   2.888  16.542   4.528
73111W        W38338  34.284  18.274  10.420
73112W        W38339  38.969  28.540  13.766
73113W        W38340  33.551  18.019  11.481
73114W        W38341   9.663  17.163  12.514
73115W        W38342  29.457  42.005  11.586
73116W        W38343  11.363  38.990   0.513
73117W        W38344  10.448  17.203  14.811
73118W        W38345  18.349  37.381  11.005
73119W        W38346  22.675  23.691   1.489
73120W        W38347  25.445  42.896   4.124
73121W        W38348  16.224  27.945   2.306
73122W        W38349  17.185   5.932   1.983
73123W        W38350  10.487  13.283  11.535
73124W        W38351  31.054  40.488  14.032
73125W        W38352   7.899   7.560  14.954
73126W        W38353   5.760  35.800   2.289
73127W        W38354  34.485  31.622  11.111
73128W        W38355  40.071  16.746  10.552
73129W        W38356  12.629  37.066   1.886
73130W        W38357  27.754  27.137   1.792
73131W        W38358   1.750   6.513  14.974
73132W        W38359  23.024  19.028   2.643
73133W        W38360   3.002  21.597   2.413
73134W        W38361   6.939   0.662   3.642
73135W        W38362  42.692  36.995   4.647
73136W        W38363  44.250  38.515  14.430
73137W        W38364  36.051  22.387   3.282
73138W        W38365  35.895   4.685   4.030
73139W        W38366   9.006  18.838   3.208
73140W        W38367  13.940   1.915  13.589
73141W        W38368  16.216  23.050  12.611
73142W        W38369   4.791  43.481  12.897
73143W        W38370  36.211  16.072   1.664
73144W        W38371  11.846  19.414  14.454
73145W        W38372  40.775   3.314  10.582
73146W        W38373  13.702  13.824  12.218
73147W        W38374  44.424  14.375  12.952
73148W        W38375  19.739  43.540  10.779
73149W        W38376   4.970  31.177   4.743
73150W        W38377  15.346   0.342  10.753
73151W        W38378  20.422  15.718  12.391
73152W        W38379  12.345  13.125   1.198
73153W        W38380  10.999  26.254  12.125
73154W        W38381  44.587  15.779   1.199
73155W        W38382  40.458  22.562  12.796
73156W        W38383   2.757  21.339   0.310
73157W        W38384   6.849  21.791   1.109
73158W        W38385  14.908  18.799   2.655
73159W        W38386  13.139  44.775  11.184
73160W        W38387   7.069  11.628  11.495
73161W        W38388  12.548   1.139  12.109
73162W        W38389  28.154  41.789  11.654
73163W        W38390  41.754  26.472  12.979
73164W        W38391  43.334   8.459   3.777
73165W        W38392  12.422  38.504  14.852
73166W        W38393  19.781  20.653   0.131
73167W        W38394  30.033  23.003   0.668
73168W        W38395   4.584  42.730   3.238
73169W        W38396  18.687   8.880   4.740
73170W        W38397  34.318   3.780   3.232
73171W        W38398   3.754  30.186  14.912
73172W        W38399  33.137  31.620  13.431
73173W        W38400  25.001  43.324  13.066
73174W        W38401   8.619  36.509   1.985
73175W        W38402  24.461   1.002   0.034
73176W        W38403  37.841  22.080  12.602
73177W        W38404  33.989   3.801  11.408
73178W        W38405  32.391  32.601  13.050
73179W        W38406   1.470  35.139  10.665
73180W        W38407  40.174  22.665  11.252
73181W        W38408  30.427   7.666  14.879
73182W        W38409  14.066  13.240   1.906
73183W        W38410  20.563  30.481  11.637
73184W        W38411  25.298  34.465   3.619
73185W        W38412   9.070  20.417  12.107
73186W        W38413  19.339  41.326  13.729
73187W        W38414  24.139  42.387  10.650
73188W        W38415   2.457  28.088   0.947
73189W        W38416  28.856   2.132  13.482
73190W        W38417  21.101  17.979   0.403
73191W        W38418  10.338  31.088  13.780
73192W        W38419  19.661   1.559   0.015
73193W        W38420  13.891  26.411   2.299
73194W        W38421  19.495   0.542  13.949
73195W        W38422  43.023   8.780   1.314
73196W        W38423  24.648   9.619  12.916
73197W        W38424  15.536  22.506   4.193
73198W        W38425  40.286  28.995  12.494
73199W        W38426  10.763   7.759   3.324
73200W        W38427  31.080  16.003  11.424
73201W        W38428   6.734  25.263  13.899
73202W        W38429  36.738  35.559  10.751
73203W        W38430  32.921  19.142   2.824
73204W        W38431   0.643  27.553   2.743
73205W        W38432  14.983   5.382   4.069
73206W        W38433   9.322  37.923   2.311
73207W        W38434  38.941   9.422   2.445
73208W        W38435  16.247   8.713  12.998
73209W        W38436  37.427  11.398   2.106
73210W        W38437  29.875  25.033   1.767
73211W        W38438   7.694   6.895   1.965
73212W        W38439  28.751   4.984   1.914
73213W        W38440  40.102  38.793  14.057
73214W        W38441   4.997  39.871   4.088
73215W        W38442   9.350   0.664   0.220
73216W        W38443  41.943  12.450  11.129
73217W        W38444  42.003  34.462  14.910
73218W        W38445   6.890  19.083  12.475
73219W        W38446  10.183   8.413   3.155
73220W        W38447  39.138  35.681   1.821
73221W        W38448  42.498  14.376   2.727
73222W        W38449  39.203   6.665  12.622
73223W        W38450  44.465   0.943  12.547
73224W        W38451  41.728  19.135  11.054
73225W        W38452  16.603  42.420  14.212
73226W        W38453   8.486  29.009   0.789
73227W        W38454  33.972  10.839   2.329
73228W        W38455  15.162  37.274   1.344
73229W        W38456  33.803  25.493   3.461
73230W        W38457  39.613  39.749   0.907
73231W        W38458  14.628  32.653   0.575
73232W        W38459  13.194  26.998  11.214
73233W        W38460   1.579  16.631   2.861
73234W        W38461  40.351  24.320   3.266
73235W        W38462   8.981  41.185   0.957
73236W        W38463  29.692  37.639   1.403
73237W        W38464  24.792  40.557  11.085
73238W        W38465   7.256  15.495  13.219
73239W        W38466  36.434  25.791  13.276
73240W        W38467  38.295  34.835  14.481
73241W        W38468  33.068  38.988  13.986
73242W        W38469   8.704   3.200   0.876
73243W        W38470  37.517  23.309   4.915
73244W        W38471   1.252  25.734  14.894
73245W        W38472  14.331  20.298  12.934
73246W        W38473  17.702   2.887   3.047
73247W        W38474  24.268  28.937  14.598
73248W        W38475   1.221  26.882   2.240
73249W        W38476  24.892  10.618   3.677
73250W        W38477   5.119  26.152  12.360
73251W        W38478   9.714   0.291  13.466
73252W        W38479  15.108  11.857   4.006
73253W        W38480  32.636  10.150   0.817
73254W        W38481  11.136   1.324   2.678
73255W        W38482  31.347  39.554   3.265
73256W        W38483  38.546  12.149  14.477
73257W        W38484  40.574  27.153   0.666
73258W        W38485   7.827  28.621   3.750
73259W        W38486   6.051  37.278   0.263
73260W        W38487  25.539  29.461   1.657
73261W        W38488  42.846   4.068  12.530
73262W        W38489  41.942  11.553  11.856
73263W        W38490   5.915   4.665   3.765
73264W        W38491  18.640  13.861   0.833
73265W        W38492   8.882   9.794   1.014
73266W        W38493  38.847  18.273  11.227
73267W        W38494  44.854  16.563  12.131
73268W        W38495  32.010   1.795  10.817
73269W        W38496  40.044   9.893  14.740
73270W        W38497  37.922  38.662   3.831
73271W        W38498   5.504  21.178   1.846
73272W        W38499  34.332  28.945   3.609
73273W        W38500   3.972  24.485   0.528
73274W        W38501  24.137   6.173   2.767
73275W        W38502  12.829  20.364  14.209
73276W        W38503  21.470  36.401   4.544
73277W        W38504  36.966  24.631  13.352
73278W        W38505  44.197  21.540   1.737
73279W        W38506  41.852  10.158   4.645
73280W        W38507  16.322  25.925  13.519
73281W        W38508  26.508  11.087  11.543
73282W        W38509  31.941  40.910  11.206
73283W        W38510  22.565   5.339   0.913
73284W        W38511  15.168  42.063  10.789
73285W        W38512  15.821  27.579   0.470
73286W        W38513  23.483   4.384   3.541
73287W        W38514  12.835   4.118  14.457
73288W        W38515  26.697  22.255  14.042
73289W        W38516  18.583  19.837  12.231
73290W        W38517  10.402   0.333  11.961
73291W        W38518  21.096  16.036   4.822
73292W        W38519   1.552  23.737  13.003
73293W        W38520   4.260  31.621  12.896
73294W        W38521  44.684  20.081   9.765
73295W        W38522  42.312  10.825  14.797
73296W        W38523  41.987   0.271  11.866
73297W        W38524  43.788   6.469  11.647
73298W        W38525  41.165  32.033   2.163
73299W        W38526   1.472  39.890   3.168
73300W        W38527  37.931   3.825  14.873
73301W        W38528   1.656  15.820  12.980
73302W        W38529  18.459  23.629   1.724
73303W        W38530  40.064   7.297  12.562
73304W        W38531  16.767  24.995  11.584
73305W        W38532   9.103   1.422   4.154
73306W        W38533  13.668  27.089   1.506
73307W        W38534   4.580  40.781  11.617
73308W        W38535  32.833  25.155  11.910
73309W        W38536  25.991  39.852  14.480
73310W        W38537  15.650  19.839   1.263
73311W        W38538  18.644  19.961  11.400
73312W        W38539   9.846  17.001   4.544
73313W        W38540   3.953  35.576  11.121
73314W        W38541  20.620  10.369  12.081
73315W        W38542  20.328   1.217   1.430
73316W        W38543  14.010   4.013   3.203
73317W        W38544   0.644  25.640  12.183
73318W        W38545  30.743  39.498  11.417
73319W        W38546  25.970  16.794   1.948
73320W        W38547  30.764  36.050   1.656
73321W        W38548   6.153   0.524  10.659
73322W        W38549  44.413  44.031   1.191
73323W        W38550   1.858  40.318  12.328
73324W        W38551  20.261  34.210   3.306
73325W        W38552   8.498  33.344  14.898
73326W        W38553  40.074   5.760   2.344
73327W        W38554  18.467   4.058  11.944
73328W        W38555  28.557  13.684  10.675
73329W        W38556  13.242  38.070   0.113
73330W        W38557   3.848  37.661   1.058
73331W        W38558   9.247  27.707  11.685
73332W        W38559  14.277  13.758  13.018
73333W        W38560  17.894   9.236  14.778
73334W        W38561  27.469  19.526   4.227
73335W        W38562  18.775   1.488  11.534
73336W        W38563  26.820  16.500   0.893
73337W        W38564  42.073  27.737  14.863
73338W        W38565  24.665   9.718  12.016
73339W        W38566  27.516  27.264   3.621
73340W        W38567  20.438   9.616  10.705
73341W        W38568  31.929  34.374  13.058
73342W        W38569   3.571   7.492  11.677
73343W        W38570  19.809   3.458   3.160
73344W        W38571  14.709  41.827  13.098
73345W        W38572   8.284  41.907   4.647
73346W        W38573  17.096  33.797   1.174
73347W        W38574  27.930  29.608   4.273
73348W        W38575  31.966  29.958  11.804
73349W        W38576  31.196  12.046   1.890
73350W        W38577   4.485  32.480   4.611
73351W        W38578  43.976  27.198  14.535
73352W        W38579  25.559   5.043  12.934
73353W        W38580  15.862  44.982   3.258
73354W        W38581  17.926  13.532   3.749
73355W        W38582  39.091  12.554  11.690
73356W        W38583  35.774  13.178   3.316
73357W        W38584  24.014  21.374   3.407
73358W        W38585  28.573   2.833   3.975
73359W        W38586  17.355  29.987   2.581
73360W        W38587  11.251  41.051  13.098
73361W        W38588  10.799  30.699  11.960
73362W        W38589  32.366  34.068   5.334
73363W        W38590  20.520   1.736   0.886
73364W        W38591  22.154  21.267   0.468
73365W        W38592  29.376  23.311  12.641
73366W        W38593  28.470  36.896   0.222
73367W        W38594  39.075  15.595   5.024
73368W        W38595  32.120  10.387   3.609
73369W        W38596  27.680   7.721   2.206
73370W        W38597  18.591  24.331  12.067
73371W        W38598  12.279  28.943   0.440
73372W        W38599  36.385  14.624  12.896
73373W        W38600  24.529  35.685  12.887
73374W        W38601  42.432  25.127   4.256
73375W        W38602  26.273  18.372  11.923
73376W        W38603  23.321  22.069   4.119
73377W        W38604  34.887  35.049  13.781
73378W        W38605  24.546  31.504   4.126
73379W        W38606  42.051  34.406   4.473
73380W        W38607  15.511  15.921  14.592
73381W        W38608  13.168  21.957   0.241
73382W        W38609  26.109   6.314   3.632
73383W        W38610  15.883   2.774  14.371
73384W        W38611  13.968  39.608   3.271
73385W        W38612  12.545  36.997  11.564
73386W        W38613  12.800  33.388   2.281
73387W        W38614   2.519  14.488   1.929
73388W        W38615   6.884  43.808   1.671
73389W        W38616   4.806  18.853   2.463
73390W        W38617  32.463  14.751  13.034
73391W        W38618  19.527  18.681  12.502
73392W        W38619  11.046  44.021  14.330
73393W        W38620  38.055  26.980  14.723
73394W        W38621   4.805  34.976   0.838
73395W        W38622  22.753  40.066   2.393
73396W        W38623  24.011  36.476  11.710
73397W        W38624   4.920  40.956   2.988
73398W        W38625  35.534  22.588  13.117
73399W        W38626   0.672  23.018   5.029
73400W        W38627  21.566  14.056   3.137
73401W        W38628  20.737  34.009   1.541
73402W        W38629  12.662  41.565   0.824
73403W        W38630  29.745   4.793   4.156
73404W        W38631  37.489  35.537   2.268
73405W        W38632  36.096  24.885   2.674
73406W        W38633  20.217  11.447  13.958
73407W        W38634  32.186  37.026  11.666
73408W        W38635  43.545  11.166  13.664
73409W        W38636  23.539  19.117   4.494
73410W        W38637  22.274  13.671  11.697
73411W        W38638  17.821  32.374  11.922
73412W        W38639  34.451  17.826  11.679
73413W        W38640   8.263  18.796   0.766
73414W        W38641  12.133  14.674   3.610
73415W        W38642  31.839  34.525   0.240
73416W        W38643  14.529  22.229   4.681
73417W        W38644  42.735  19.044   3.109
73418W        W38645  19.627  39.042   0.362
73419W        W38646  43.760   4.812   0.958
73420W        W38647   5.174  43.512  14.402
73421W        W38648  36.056  13.571  11.441
73422W        W38649   9.315  44.898   0.706
73423W        W38650  12.434  41.367  11.945
73424W        W38651  24.802  44.081   0.862
73425W        W38652   6.467  24.933   1.858
73426W        W38653  23.582  11.237  14.492
73427W        W38654  24.950  43.106  13.761
73428W        W38655  38.512  40.475  13.070
73429W        W38656  31.986  34.379  12.567
73430W        W38657  16.804  25.086  12.828
73431W        W38658  41.554  15.097   0.262
73432W        W38659  14.566   3.721  11.136
73433W        W38660   3.279  32.649  14.088
73434W        W38661  24.756  24.958  13.026
73435W        W38662   7.972  21.794   2.633
73436W        W38663  40.097   4.988   0.836
73437W        W38664  24.000  24.137  13.351
73438W        W38665  10.589  25.876   1.745
73439W        W38666  32.561  35.649   1.838
73440W        W38667  44.374  42.886   2.711
73441W        W38668  19.788  28.658   0.891
73442W        W38669   5.399  41.785   2.817
73443W        W38670  25.117  29.407  14.240
73444W        W38671  32.397  17.486  14.799
73445W        W38672  34.059  21.762   1.937
73446W        W38673  32.751  30.044   1.292
73447W        W38674  43.299  25.947  11.033
73448W        W38675  15.849  26.271   0.419
73449W        W38676  14.718  17.879  12.884
73450W        W38677  22.279  36.093   2.837
73451W        W38678   4.289  23.654  10.495
73452W        W38679   2.556   1.029   1.703
73453W        W38680  12.335  26.855  12.985
73454W        W38681  12.552   5.130   1.523
73455W        W38682  42.314  33.060  11.833
73456W        W38683  36.619  17.251   3.616
73457W        W38684   6.892  35.361   1.353
73458W        W38685  42.934  41.086   1.345
73459W        W38686  25.267  19.917   2.415
73460W        W38687  19.412   9.412   1.858
73461W        W38688   5.245  36.530   3.236
73462W        W38689   8.130  21.707   2.143
73463W        W38690   0.170  25.988   4.119
73464W        W38691  23.238  22.629   0.396
73465W        W38692   6.441  14.337  12.118
73466W        W38693  31.238  44.479  10.245
73467W        W38694  30.077  31.080   1.157
73468W        W38695  25.891  24.450  10.877
73469W        W38696  34.799  42.446   3.343
73470W        W38697   6.357   5.202   2.163
73471W        W38698  18.335   6.234  10.743
73472W        W38699  28.372  23.145  11.584
73473W        W38700  21.588  41.000   2.762
73474W        W38701  35.030  44.394  14.286
73475W        W38702  29.983  41.775  11.038
73476W        W38703  15.802   8.307  12.499
73477W        W38704  24.632  17.641   4.916
73478W        W38705   7.851   0.286  12.197
73479W        W38706  26.300  39.053   3.278
73480W        W38707  31.631   7.182  14.739
73481W        W38708  11.781  10.186   0.939
73482W        W38709  27.023  14.657  11.907
73483W        W38710  33.401  42.108  13.939
73484W        W38711  27.241  34.310   0.858
73485W        W38712  27.911  16.517  11.942
73486W        W38713  42.550  40.108  13.000
73487W        W38714  11.410   8.617   3.722
73488W        W38715  29.405  34.609  13.965
73489W        W38716  26.648   0.602  13.351
73490W        W38717  37.019  16.039   3.900
73491W        W38718   9.269  28.652   0.935
73492W        W38719  19.706   1.607  12.981
73493W        W38720  15.618  19.179   3.162
73494W        W38721  14.022  17.736   0.575
73495W        W38722  39.109   7.737  13.505
73496W        W38723  38.923  24.746  12.081
73497W        W38724  12.741  25.019  13.623
73498W        W38725   5.776  37.053   0.770
73499W        W38726  24.259  30.049  11.163
73500W        W38727  23.219  36.000  10.712
73501W        W38728   2.529  15.597  12.481
73502W        W38729   6.200  19.009  13.646
73503W        W38730  10.820  30.724  14.041
73504W        W38731   1.996  44.672   0.921
73505W        W38732  32.597  17.376   1.815
73506W        W38733   0.226   3.913   1.391
73507W        W38734  19.723  16.830  12.596
73508W        W38735  14.837  32.936   1.868
73509W        W38736  36.680  24.163  14.398
73510W        W38737  33.660  38.446   2.350
73511W        W38738  15.270   1.414  13.405
73512W        W38739  38.281   4.380  10.191
73513W        W38740  24.041   8.756   5.026
73514W        W38741  32.415   0.739   4.360
73515W        W38742  20.506   5.202   1.764
73516W        W38743  15.696  40.435  14.867
73517W        W38744   7.206  11.805  10.657
73518W        W38745  27.616  32.430   4.678
73519W        W38746   6.627  25.994  14.420
73520W        W38747  19.650   0.105   0.312
73521W        W38748   2.158  22.637   2.991
73522W        W38749   4.441   3.705  11.209
73523W        W38750  32.354  12.038  10.662
73524W        W38751  28.463  34.492   3.790
73525W        W38752   1.807  33.188   2.258
73526W        W38753  28.036  27.179   4.474
73527W        W38754  43.218  25.601   0.855
73528W        W38755  13.374  42.006  14.750
73529W        W38756   4.357  40.908   3.744
73530W        W38757  32.073   4.328  14.424
73531W        W38758  28.643  19.556  10.754
73532W        W38759  23.065  41.546  11.629
73533W        W38760  12.687  37.261   2.380
73534W        W38761  25.727   3.298  13.487
73535W        W38762  19.066  14.028  12.588
73536W        W38763  28.911  11.615  13.566
73537W        W38764  43.195  21.220   3.196
73538W        W38765   2.914  19.482   5.485
73539W        W38766  28.269  29.570   1.270
73540W        W38767  11.183  30.200   3.695
73541W        W38768  16.621  22.499   4.195
73542W        W38769  22.156  42.554   4.864
73543W        W38770  17.663  22.778  11.155
73544W        W38771  40.992  16.775   1.567
73545W        W38772  27.013  23.964  12.558
73546W        W38773  11.296  12.510  12.198
73547W        W38774  37.959   0.827   0.459
73548W        W38775  15.483  29.923   0.191
73549W        W38776  36.584   6.298  11.532
73550W        W38777  37.701  40.289   4.455
73551W        W38778  40.995  30.812   2.780
73552W        W38779  39.321  13.152  13.833
73553W        W38780  14.120  40.798  12.871
73554W        W38781  20.083  10.201   0.259
73555W        W38782  14.676   8.179   2.299
73556W        W38783  41.039  30.795  11.365
73557W        W38784  33.404  12.453   0.739
73558W        W38785   6.941  34.208   2.425
73559W        W38786  15.353  41.044   0.478
73560W        W38787   1.730  24.839  11.192
73561W        W38788  26.422  23.815   3.677
73562W        W38789  38.181  40.844  12.465
73563W        W38790   1.996  33.407  10.499
73564W        W38791  27.229   0.177  10.576
73565W        W38792  30.352  38.034  14.779
73566W        W38793  33.224  12.809   1.624
73567W        W38794   4.192  44.036   2.203
73568W        W38795  12.324  23.475  13.605
73569W        W38796  17.499   5.111   4.678
73570W        W38797  38.437  16.354   0.383
73571W        W38798  20.225  38.529  14.568
73572W        W38799  13.980  42.512  13.813
73573W        W38800  16.399  44.634  12.435
73574W        W38801  36.090  27.788   1.703
73575W        W38802  41.035  25.249  11.332
73576W        W38803  28.577  20.552   1.484
73577W        W38804  27.503  14.665   4.568
73578W        W38805  31.046  10.171   3.847
73579W        W38806  34.474   3.822  10.849
73580W        W38807  15.688  27.417   3.375
73581W        W38808  10.270  30.547   1.172
73582W        W38809  36.298   9.337  11.472
73583W        W38810  44.651  11.525  14.024
73584W        W38811   0.779  44.240   5.012
73585W        W38812  29.468  34.579   4.705
73586W        W38813  34.930  15.280   1.573
73587W        W38814  19.238  41.802   2.377
73588W        W38815  39.052  12.706  14.974
73589W        W38816  17.764  28.188  12.266
73590W        W38817  19.486   3.268  14.460
73591W        W38818   0.723   5.707   1.943
73592W        W38819  15.241   3.481  14.492
73593W        W38820  10.211  44.366   1.175
73594W        W38821  14.157  26.486  14.905
73595W        W38822  14.489  30.192   2.245
73596W        W38823  44.430  44.555  12.553
73597W        W38824   4.009  30.732   0.781
73598W        W38825  43.523   2.151  13.849
73599W        W38826  28.449  37.881  11.597
73600W        W38827  29.881  44.811  14.008
73601W        W38828  29.130   9.158   2.352
73602W        W38829  10.948  25.592   1.480
73603W        W38830  16.961  37.391  14.468
73604W        W38831  17.065  21.151   2.416
73605W        W38832  34.482  15.566  12.673
73606W        W38833  37.382   5.749  12.366
73607W        W38834   2.871  41.897  13.549
73608W        W38835  28.688   1.580  14.295
73609W        W38836   1.940  12.242   1.334
73610W        W38837  20.195   5.436   2.448
73611W        W38838  25.265  20.526  11.531
73612W        W38839   9.743  20.428  13.926
73613W        W38840  19.607  23.120   4.231
73614W        W38841  32.617  32.999   2.788
73615W        W38842  30.907  24.201   4.199
73616W        W38843  34.419  21.778  11.823
73617W        W38844  25.955  27.022   2.338
73618W        W38845  29.039   4.548  11.094
73619W        W38846  29.942  13.407  13.643
73620W        W38847   9.399  21.709  13.798
73621W        W38848  23.529  36.900   3.280
73622W        W38849  30.366  19.730   4.037
73623W        W38850  39.310  25.691  14.878
73624W        W38851  33.241   0.182  13.635
73625W        W38852  13.173   0.696   1.441
73626W        W38853  22.096   3.414  12.993
73627W        W38854  16.046  34.904   3.204
73628W        W38855  42.451  35.534  12.127
73629W        W38856  33.926  29.454   3.890
73630W        W38857  10.498  16.150  10.276
73631W        W38858  28.054   6.702  11.832
73632W        W38859  19.228  29.860   1.969
73633W        W38860  28.516  25.849   0.902
73634W        W38861  20.747  43.539  14.103
73635W        W38862  43.451  22.533  11.630
73636W        W38863  38.293  44.961  14.840
73637W        W38864   8.262   3.888  12.786
73638W        W38865  34.662   8.842  10.630
73639W        W38866  29.061  23.108   0.943
73640W        W38867  35.577   2.773  12.718
73641W        W38868  38.978  33.565  10.522
73642W        W38869  40.432  38.396   4.117
73643W        W38870   7.854   4.509   2.383
73644W        W38871   7.517  21.098   1.918
73645W        W38872  20.856   6.179  12.642
73646W        W38873   9.339   3.950  14.557
73647W        W38874  21.531  24.199   0.919
73648W        W38875  36.964  22.644   0.952
73649W        W38876   5.708  21.082  14.517
73650W        W38877  26.415   7.627  13.448
73651W        W38878  33.338  29.572   2.857
73652W        W38879  28.086   9.618  13.888
73653W        W38880   4.213  22.090  13.930
73654W        W38881  15.585  30.686  14.359
73655W        W38882  19.255  27.290  11.022
73656W        W38883  16.570  13.598  13.475
73657W        W38884  17.260  23.188  11.977
73658W        W38885  35.628  15.432   2.900
73659W        W38886   3.661  13.362  12.173
73660W        W38887  10.684  24.631   0.409
73661W        W38888  40.776  42.385   2.169
73662W        W38889   8.334  33.599  14.447
73663W        W38890   2.927  15.311   2.238
73664W        W38891  11.407  34.434  13.476
73665W        W38892  10.676  35.291   3.638
73666W        W38893  13.711  30.971  13.354
73667W        W38894  30.641  12.180   4.545
73668W        W38895   7.648   7.645   1.269
73669W        W38896  20.099  16.563  12.856
73670W        W38897  10.273   9.842   4.454
73671W        W38898   0.855   5.285   4.365
73672W        W38899  32.524  29.331   3.720
73673W        W38900  10.160   1.926  13.944
73674W        W38901  28.593   1.691  11.887
73675W        W38902  36.454   6.177   3.584
73676W        W38903  28.427   6.280   2.782
73677W        W38904  32.146  16.836   3.556
73678W        W38905  23.803   2.675  14.453
73679W        W38906   4.022  39.448   2.382
73680W        W38907  20.123  40.373   2.162
73681W        W38908   2.931  42.458   2.358
73682W        W38909  27.575  13.885   1.865
73683W        W38910   8.794   7.510  11.621
73684W        W38911  25.613  11.152  10.802
73685W        W38912   5.013  31.045  13.909
73686W        W38913  39.472   5.326   3.527
73687W        W38914  35.901  25.256  13.022
73688W        W38915   6.325  13.793   4.054
73689W        W38916  10.814  15.798  12.033
73690W        W38917   1.818   1.311   2.239
73691W        W38918  15.186   4.848   0.667
73692W        W38919   3.875  10.113   3.327
73693W        W38920  43.433  25.714  14.871
73694W        W38921   7.310  29.991  13.982
73695W        W38922  40.114  25.952   4.853
73696W        W38923   7.285  36.399   3.562
73697W        W38924  40.218   0.255  13.325
73698W        W38925  25.487  17.544  11.586
73699W        W38926   3.556  18.972   4.832
73700W        W38927  17.573  41.634  12.371
73701W        W38928  33.293  12.875   4.121
73702W        W38929  18.009  15.278  10.727
73703W        W38930  42.229  36.566  12.835
73704W        W38931  10.411  35.332  13.423
73705W        W38932  31.203  26.894  12.734
73706W        W38933   8.696  32.041  11.472
73707W        W38934   6.727  42.809   0.141
73708W        W38935  12.268  21.457  11.472
73709W        W38936  37.424  10.167  11.203
73710W        W38937  32.159  33.422  12.254
73711W        W38938  42.707  16.757  14.286
73712W        W38939  12.190  26.764   1.461
73713W        W38940  17.806   0.294  12.517
73714W        W38941  33.483   3.310   5.192
73715W        W38942  13.881  43.772  11.046
73716W        W38943  34.372  44.733  13.915
73717W        W38944  41.657   1.006  13.064
73718W        W38945   1.936   3.662  14.902
73719W        W38946   4.719  24.061   3.630
73720W        W38947  32.423  43.958   0.579
73721W        W38948  26.761  13.733   5.036
73722W        W38949   9.667  34.001  11.380
73723W        W38950   2.929  29.512   2.395
73724W        W38951  11.737  10.452  13.891
73725W        W38952  35.583  28.903  12.087
73726W        W38953   5.716  20.590  10.803
73727W        W38954  24.966   6.273   1.301
73728W        W38955  28.399  32.452   0.303
73729W        W38956  40.967   8.026  14.289
73730W        W38957  10.991  15.663  10.651
73731W        W38958  26.534  32.005   3.588
73732W        W38959  42.546  19.123  12.999
73733W        W38960  29.040  33.570  14.956
73734W        W38961  40.742  24.495   1.197
73735W        W38962   1.044  26.690  14.774
73736W        W38963   4.348  29.062  12.865
73737W        W38964  14.446  27.020   5.114
73738W        W38965   1.408  23.733  12.488
73739W        W38966  33.194  34.304   5.596
73740W        W38967  17.123  18.476  11.227
73741W        W38968  40.045   0.252   0.655
73742W        W38969  28.203  12.228   4.100
73743W        W38970   9.912  11.436   3.710
73744W        W38971  31.534  12.640   3.331
73745W        W38972  10.229  15.812  14.851
73746W        W38973  12.461  29.883  11.071
73747W        W38974   3.221  30.578   3.259
73748W        W38975  12.956  22.766  11.541
73749W        W38976  11.905  39.313   1.841
73750W        W38977  23.157  18.470  10.671
73751W        W38978   6.777  23.664  14.368
73752W        W38979  18.631   7.786   3.712
73753W        W38980  26.853   6.286   2.661
73754W        W38981  29.540  10.757  14.955
73755W        W38982  24.029   5.387  10.807
73756W        W38983  16.914  21.950   2.378
73757W        W38984  37.382  24.986  14.065
73758W        W38985   4.877  23.467   4.255
73759W        W38986  23.296   0.650  12.207
73760W        W38987  25.442  13.246  10.431
73761W        W38988  31.539  14.604  14.485
73762W        W38989  20.000  23.138   2.295
73763W        W38990  39.416   1.106  14.585
73764W        W38991  19.757  36.321  13.809
73765W        W38992   6.279   9.311   4.254
73766W        W38993  44.730  30.618   0.857
73767W        W38994  37.885  11.690   0.400
73768W        W38995  35.986  12.363  14.123
73769W        W38996  24.060  36.102  14.101
73770W        W38997  33.727  33.490  12.403
73771W        W38998   3.838  44.367   2.384
73772W        W38999  32.134   4.470   4.220
73773W        W39000  32.602  42.899  10.746
73774W        W39001  29.155   1.709  12.607
73775W        W39002  33.391  35.040  14.633
73776W        W39003  40.375  13.021  10.645
73777W        W39004  35.219   5.307   0.144
73778W        W39005  34.955  24.492   3.948
73779W        W39006  36.673  33.226  14.995
73780W        W39007  17.457  31.194   3.076
73781W        W39008   8.615  22.462  14.858
73782W        W39009  15.544   4.796   2.217
73783W        W39010   6.525  39.365  13.713
73784W        W39011  38.985  22.011  14.907
73785W        W39012  28.044  42.722  14.682
73786W        W39013  24.146  38.095  12.394
73787W        W39014  33.337  19.657  11.530
73788W        W39015  30.900  25.085   4.087
73789W        W39016  43.880  37.347   3.698
73790W        W39017   7.811  17.245  12.051
73791W        W39018  12.496   0.442  11.083
73792W        W39019  21.017   4.966   1.998
73793W        W39020  44.946  17.684   0.630
73794W        W39021  29.770  39.051   3.547
73795W        W39022  11.655  25.659  12.849
73796W        W39023  42.311  18.196   0.535
73797W        W39024  26.048  43.929  12.189
73798W        W39025  18.894  22.199  13.891
73799W        W39026  36.797   5.453   3.220
73800W        W39027  32.880  30.422  10.736
73801W        W39028  30.335  14.581  10.581
73802W        W39029  35.472  18.591  11.052
73803W        W39030  22.362  37.218  14.076
73804W        W39031  14.291   7.911  14.064
73805W        W39032  43.742   1.044   0.323
73806W        W39033  44.498  18.108   9.827
73807W        W39034  20.153  11.873  11.646
73808W        W39035  19.765  32.003   3.616
73809W        W39036  18.472  41.333   2.302
73810W        W39037  21.683  38.393  11.614
73811W        W39038  31.596  41.466   0.248
73812W        W39039   0.342  33.328  12.034
73813W        W39040  20.120   8.741  14.781
73814W        W39041  42.446  35.078   3.235
73815W        W39042  15.164   7.077   0.858
73816W        W39043  40.664   5.298  13.813
73817W        W39044  27.129  24.645  14.332
73818W        W39045  42.411  31.100   4.719
73819W        W39046  28.922  37.320   3.766
73820W        W39047  12.381  37.935  11.864
73821W        W39048   8.925  35.003  13.917
73822W        W39049  16.716  18.218  11.042
73823W        W39050  37.110   5.339   1.696
73824W        W39051   4.708  11.103  12.500
73825W        W39052  10.394  22.755   3.106
73826W        W39053  25.468  39.346  13.155
73827W        W39054  16.007  27.547  13.956
73828W        W39055   8.860  39.939   0.990
73829W        W39056  18.007  27.732  13.948
73830W        W39057  10.204  34.034   1.170
73831W        W39058  24.411   2.844   5.379
73832W        W39059   0.432  21.707   0.052
73833W        W39060  14.107  26.956   1.267
73834W        W39061  21.568   7.635  13.943
73835W        W39062  28.605  38.042  12.437
73836W        W39063  10.103  36.421   4.092
73837W        W39064  15.330  31.550  13.883
73838W        W39065  28.510  37.611   3.611
73839W        W39066  30.850  24.127   2.218
73840W        W39067  22.330  24.369   1.224
73841W        W39068  24.267   1.453   9.809
73842W        W39069   7.938  38.449   0.363
73843W        W39070   5.806  10.404   2.344
73844W        W39071  27.163  32.435   2.810
73845W        W39072   3.729  23.242   1.900
73846W        W39073  27.387  22.723   2.091
73847W        W39074  42.776  11.121  14.869
73848W        W39075  36.138  42.444   2.228
73849W        W39076  39.311   1.449   2.558
73850W        W39077  21.718  14.012   3.968
73851W        W39078  42.461  31.620   0.062
73852W        W39079  42.293  40.958  13.445
73853W        W39080   3.286   5.203   4.349
73854W        W39081  28.722  15.744   1.355
73855W        W39082  43.007   7.327  12.588
73856W        W39083  10.863  24.062   3.804
73857W        W39084   1.437   3.969  10.797
73858W        W39085   7.710   6.145   1.659
73859W        W39086   4.250   0.959  11.934
73860W        W39087  33.530  42.360  12.025
73861W        W39088   4.308  41.027   1.845
73862W        W39089   9.679  29.278   0.255
73863W        W39090  41.074  27.590  12.457
73864W        W39091  14.028  37.082   0.308
73865W        W39092   0.669   1.996   4.679
73866W        W39093   4.467  14.760   4.578
73867W        W39094   6.281   8.344   3.010
73868W        W39095  43.389  25.623   1.807
73869W        W39096  39.538   8.263  11.285
73870W        W39097  44.357  33.772  13.132
73871W        W39098   9.639  15.368  12.080
73872W        W39099   8.460  16.770   4.504
73873W        W39100  23.213  39.930   2.578
73874W        W39101  42.788  12.858  11.255
73875W        W39102  11.765  39.751   2.083
73876W        W39103  26.788  12.567  11.156
73877W        W39104   6.090  35.372  13.094
73878W        W39105  11.589   1.662   2.393
73879W        W39106  38.079  24.729  14.343
73880W        W39107  24.164  36.431   4.827
73881W        W39108   6.954  31.868   4.178
73882W        W39109  26.126   2.188   0.458
73883W        W39110  28.578  14.373  12.123
73884W        W39111  28.635  41.360  14.040
73885W        W39112  33.851  42.387   0.717
73886W        W39113  32.712  27.965   4.078
73887W        W39114  41.772  41.032  10.734
73888W        W39115  29.904  32.961   4.630
73889W        W39116  11.398  13.860   2.119
73890W        W39117  34.086  13.576   2.695
73891W        W39118   0.463  17.179   2.065
73892W        W39119   1.243  16.836   0.471
73893W        W39120  38.417  25.250  10.649
73894W        W39121   1.350  15.319  11.688
73895W        W39122  35.665  16.392  14.672
73896W        W39123  43.960  12.615   3.600
73897W        W39124  29.465   2.878   1.456
73898W        W39125  42.765   7.294   0.476
73899W        W39126  37.036  19.522   3.359
73900W        W39127  34.876   5.628  12.917
73901W        W39128   0.006  30.660   2.727
73902W        W39129  34.660  27.112   0.892
73903W        W39130   0.507  41.514  13.421
73904W        W39131  38.047  22.086  10.825
73905W        W39132  35.610  37.602  14.390
73906W        W39133  17.926  37.819   4.081
73907W        W39134  10.369   1.811   1.699
73908W        W39135  38.995  17.771   4.636
73909W        W39136  37.235   3.866   2.816
73910W        W39137  25.935  23.494  11.944
73911W        W39138  38.433  10.703  10.707
73912W        W39139   2.990   1.437  11.032
73913W        W39140  38.149  35.817  12.325
73914W        W39141  40.862  18.548   1.329
73915W        W39142  16.670  39.789   4.651
73916W        W39143  20.781   6.965  13.939
73917W        W39144  14.634  16.213  11.190
73918W        W39145  17.026   6.444  12.145
73919W        W39146  34.549   9.968   2.210
73920W        W39147  34.726  42.448   1.843
73921W        W39148  43.811  44.821  11.976
73922W        W39149  22.572  29.375  13.910
73923W        W39150  39.394  28.780   3.304
73924W        W39151  35.873  11.110  11.362
73925W        W39152  35.861   3.659   2.149
73926W        W39153  42.156  41.555  12.462
73927W        W39154  41.436  32.850  12.220
73928W        W39155  33.379  17.969   0.028
73929W        W39156  14.143  43.124  12.182
73930W        W39157  44.532  43.992  14.373
73931W        W39158  19.029  37.923  13.247
73932W        W39159  31.117  44.356   1.211
73933W        W39160  37.036  43.811  14.037
73934W        W39161  20.145  28.007  14.469
73935W        W39162  31.716  24.982   3.696
73936W        W39163  44.987   2.780  11.383
73937W        W39164  42.541  27.045   3.195
73938W        W39165  17.396  41.306   4.464
73939W        W39166  30.977  28.074   1.781
73940W        W39167   7.163  34.225   1.958
73941W        W39168   3.222  18.835  11.732
73942W        W39169   3.676  44.583  13.010
73943W        W39170  11.964  29.928   3.393
73944W        W39171  23.581  20.235  12.735
73945W        W39172   4.620  18.795  10.564
73946W        W39173  25.509  16.566   0.323
73947W        W39174  24.679  15.861   0.908
73948W        W39175  20.312  42.023  11.616
73949W        W39176   9.221  15.799  14.838
73950W        W39177  36.119  42.190   0.733
73951W        W39178   7.866  33.040   2.820
73952W        W39179   7.180  31.548  13.614
73953W        W39180  35.709  30.916   2.222
73954W        W39181  26.704  21.254   3.712
73955W        W39182  30.160  13.534   0.875
73956W        W39183  36.388  36.793   3.871
73957W        W39184  11.811   0.925   4.526
73958W        W39185   9.534  23.397  14.534
73959W        W39186  11.505   0.403   0.971
73960W        W39187  25.732   0.912   2.882
73961W        W39188  42.818  26.241  14.970
73962W        W39189  17.114   3.787   3.475
73963W        W39190  42.953  32.697  11.957
73964W        W39191  14.919  34.497   2.393
73965W        W39192  12.543   7.425  11.040
73966W        W39193   2.351  31.460   5.061
73967W        W39194   2.028   7.034   3.067
73968W        W39195   4.397  13.959  14.945
73969W        W39196  10.660  24.989  11.557
73970W        W39197  21.224  22.440  12.518
73971W        W39198  26.646  37.852   1.434
73972W        W39199   6.792  30.041   4.182
73973W        W39200  33.788  38.453  12.094
73974W        W39201  38.811  33.822   2.632
73975W        W39202   8.295  32.435  10.549
73976W        W39203   0.879  13.159  13.309
73977W        W39204   1.381  33.880   3.391
73978W        W39205   4.203  15.855  14.542
73979W        W39206  14.276  12.093  11.063
73980W        W39207  40.544  42.462  11.719
73981W        W39208  24.064  22.647   3.947
73982W        W39209  44.362  43.944   2.968
73983W        W39210   7.281  19.181   0.031
73984W        W39211  44.932  43.794   1.635
73985W        W39212  38.036  23.581   4.234
73986W        W39213  17.556  16.781  14.820
73987W        W39214  28.148  11.641   2.159
73988W        W39215  22.271  10.939  13.563
73989W        W39216  15.898  34.692  11.159
73990W        W39217  43.383  21.545  13.576
73991W        W39218  18.579  34.963   1.788
73992W        W39219  11.667  24.471  13.385
73993W        W39220  42.949  31.842  14.753
73994W        W39221  12.545  10.180   4.063
73995W        W39222  23.799   2.472  13.054
73996W        W39223  43.245  35.825  13.447
73997W        W39224   7.970  23.539   0.394
73998W        W39225  18.673  14.367   0.774
73999W        W39226  12.892  23.518   2.318
74000W        W39227  30.680   0.646   0.911
74001W        W39228  10.147  15.180  13.332
74002W        W39229  33.442  27.612   5.488
74003W        W39230  21.088   5.713   3.493
74004W        W39231  25.896  15.356   4.160
74005W        W39232  35.082  41.019   1.948
74006W        W39233  33.083  31.442   4.371
74007W        W39234  14.078  19.770  11.191
74008W        W39235   7.691   2.433   2.255
74009W        W39236  36.847  25.675   1.746
74010W        W39237   5.570  23.097   4.178
74011W        W39238   7.609  24.032   4.239
74012W        W39239  16.048  11.698   3.914
74013W        W39240  12.269  33.202   2.251
74014W        W39241  13.759  32.666  11.836
74015W        W39242  20.607  44.571  13.159
74016W        W39243   7.858  16.197   3.341
74017W        W39244   9.176   1.221   3.191
74018W        W39245  29.225  39.576  13.434
74019W        W39246  19.045  36.096  12.062
74020W        W39247   9.759   4.423   3.390
74021W        W39248   6.907  33.755  13.654
74022W        W39249  41.403  19.000  14.040
74023W        W39250  26.756  40.832   1.526
74024W        W39251  24.058  26.682  14.025
74025W        W39252  15.188  11.361   3.848
74026W        W39253  16.802  28.906   3.219
74027W        W39254  33.517  12.192   1.200
74028W        W39255  37.050   1.141  11.648
74029W        W39256  42.333   6.681   1.254
74030W        W39257  13.412   7.317   2.194
74031W        W39258   9.864   1.851   3.405
74032W        W39259   4.871  26.882   3.618
74033W        W39260  32.417  33.442  12.842
74034W        W39261  37.577  19.520  13.127
74035W        W39262   2.846   6.008  13.413
74036W        W39263  34.142  32.495   0.194
74037W        W39264  20.840  32.094  14.495
74038W        W39265  33.260  10.560  12.899
74039W        W39266  28.144  18.169  12.661
74040W        W39267  25.436  30.779  14.496
74041W        W39268  25.962  15.853   2.941
74042W        W39269  20.062   6.219   4.349
74043W        W39270  33.339   2.565  11.177
74044W        W39271  16.001  11.279   3.104
74045W        W39272   7.216   9.776  12.661
74046W        W39273  27.083  28.641  13.554
74047W        W39274  19.537  30.168   4.183
74048W        W39275  40.559  27.163  11.896
74049W        W39276   2.960  22.854   0.026
74050W        W39277  37.704  31.979  13.021
74051W        W39278  34.090  23.510  13.480
74052W        W39279  11.191   3.114  11.093
74053W        W39280  42.446   2.355   3.084
74054W        W39281  33.675   0.951  14.699
74055W        W39282   7.180  43.840  14.416
74056W        W39283  22.752   8.659   4.246
74057W        W39284  36.689  28.499  12.882
74058W        W39285  26.890  39.923   1.483
74059W        W39286  37.937   6.133  14.511
74060W        W39287  15.338  13.451  13.779
74061W        W39288   8.528  43.499  12.834
74062W        W39289   9.610  22.598   2.908
74063W        W39290  44.989  39.309  10.989
74064W        W39291  41.837  32.229  13.479
74065W        W39292   2.419  32.569  13.507
74066W        W39293  34.599  28.640  12.969
74067W        W39294  31.656  18.617   4.596
74068W        W39295  26.720  10.106  10.514
74069W        W39296  12.337  43.661   1.789
74070W        W39297   4.814  33.930   1.504
74071W        W39298  27.135  23.763  13.801
74072W        W39299  29.594  41.115   4.515
74073W        W39300  40.816  35.397   1.353
74074W        W39301  31.155  27.677   3.153
74075W        W39302   1.801  32.225  12.198
74076W        W39303   5.364   5.455  12.918
74077W        W39304  19.570   9.437   0.949
74078W        W39305  29.154  26.768   3.146
74079W        W39306   1.261   2.151  11.164
74080W        W39307  32.121   0.298   3.614
74081W        W39308  30.919  42.414  10.600
74082W        W39309  32.433  22.771   4.578
74083W        W39310  33.616  16.790  13.840
74084W        W39311  12.101   5.341   2.291
74085W        W39312   5.846  41.511  13.507
74086W        W39313   9.351  33.419  13.404
74087W        W39314  17.938  43.758  13.306
74088W        W39315   3.439  13.749  12.444
74089W        W39316  34.968  44.204  12.119
74090W        W39317  23.087  15.520   2.821
74091W        W39318   8.479  27.634   2.913
74092W        W39319  44.261  25.862  12.051
74093W        W39320  22.551  30.916   0.748
74094W        W39321   1.949  10.728   0.711
74095W        W39322  13.657  28.420  13.388
74096W        W39323  17.763  26.350   3.440
74097W        W39324   6.729  15.950  12.518
74098W        W39325  16.996   5.628   0.299
74099W        W39326  20.151  21.486   0.754
74100W        W39327  19.170   6.122   4.229
74101W        W39328  20.048  18.716  12.443
74102W        W39329  33.761   5.679   1.746
74103W        W39330  37.120  19.596   4.923
74104W        W39331  28.684   7.217   2.920
74105W        W39332  20.498   6.221   1.500
74106W        W39333  20.751  16.561   2.833
74107W        W39334   6.193  17.197   1.272
74108W        W39335  12.197  22.026   1.715
74109W        W39336  30.337  42.029  13.411
74110W        W39337   6.964   2.295  14.178
74111W        W39338  27.727  37.318  11.547
74112W        W39339  11.290  18.788   3.700
74113W        W39340  34.638  26.136   9.575
74114W        W39341  14.270   6.887  10.646
74115W        W39342  16.341  44.888  14.215
74116W        W39343  14.367  38.288  14.891
74117W        W39344  30.211  25.152  14.539
74118W        W39345  13.690  18.204   0.655
74119W        W39346   6.995  10.275  13.365
74120W        W39347  19.772  22.137   3.195
74121W        W39348  37.493  32.967   4.387
74122W        W39349   4.646  18.809   3.343
74123W        W39350  26.447   3.623   4.284
74124W        W39351   9.090  20.983  11.453
74125W        W39352  17.763  21.052  10.504
74126W        W39353  10.887  18.332  11.121
74127W        W39354  18.137  42.054   1.262
74128W        W39355  19.356  44.758  14.124
74129W        W39356  36.592  20.697  11.557
74130W        W39357  41.080   7.450  13.500
74131W        W39358   6.780  40.722   0.314
74132W        W39359  13.997  43.359  10.671
74133W        W39360  11.773  30.384   3.192
74134W        W39361  16.651   8.669   2.857
74135W        W39362  29.752  33.939   3.098
74136W        W39363  42.064  44.297  11.136
74137W        W39364  17.588  19.252  12.453
74138W        W39365   5.642  38.626  13.510
74139W        W39366  43.968   6.255  14.049
74140W        W39367   0.391   2.387   3.730
74141W        W39368  29.099   4.776  10.632
74142W        W39369   5.721  12.714  12.102
74143W        W39370  23.035  44.586   3.201
74144W        W39371  34.034  33.077   4.049
74145W        W39372  20.982  26.443  10.985
74146W        W39373  39.931  13.089   4.682
74147W        W39374   1.356   5.860  11.098
74148W        W39375  34.579  13.302   1.341
74149W        W39376  11.944  14.894   5.568
74150W        W39377  20.250  44.292  11.541
74151W        W39378  34.310  10.272   4.425
74152W        W39379  33.415   2.641  14.265
74153W        W39380  43.839   8.327   2.717
74154W        W39381  30.156   7.237   2.974
74155W        W39382  34.333  42.100  12.500
74156W        W39383  28.771   5.707   3.440
74157W        W39384   7.724   9.184  12.075
74158W        W39385  16.792  12.032   1.656
74159W        W39386  13.035  11.954   1.541
74160W        W39387  42.363  26.000  14.725
74161W        W39388  30.545  34.312   2.403
74162W        W39389  14.266  26.211   4.721
74163W        W39390  31.643   0.929   0.869
74164W        W39391  25.644   9.543  13.483
74165W        W39392   1.722  11.107   3.317
74166W        W39393  10.694   5.764  12.779
74167W        W39394  20.587  28.167  12.432
74168W        W39395   9.832   1.308  11.507
74169W        W39396  27.475  20.036   4.127
74170W        W39397  36.796  14.578  10.986
74171W        W39398   8.183  12.219   1.705
74172W        W39399  30.873  33.531   2.678
74173W        W39400  21.933  39.661   2.835
74174W        W39401  19.379   3.671  12.054
74175W        W39402   6.403   3.377  14.369
74176W        W39403  13.206   4.450   4.723
74177W        W39404  37.638  23.616   0.334
74178W        W39405  15.603   0.275  12.061
74179W        W39406  18.338  12.174   0.657
74180W        W39407  24.905  26.508   0.451
74181W        W39408  39.372  30.628   2.335
74182W        W39409  35.837  30.943  10.600
74183W        W39410  25.425  32.327   1.444
74184W        W39411  15.164  41.551   0.467
74185W        W39412  29.705  21.077  14.911
74186W        W39413  37.358  13.823  11.984
74187W        W39414  39.521  43.328   1.417
74188W        W39415  19.159  14.165  13.915
74189W        W39416  36.256  26.808  11.924
74190W        W39417  26.722  44.432  11.039
74191W        W39418  24.260  13.256   2.750
74192W        W39419  10.609  23.306   4.696
74193W        W39420   5.255  18.196   5.174
74194W        W39421  15.691   5.754  13.007
74195W        W39422  16.614  43.445   1.414
74196W        W39423   4.452   1.689   0.807
74197W        W39424  38.445  42.513   4.830
74198W        W39425  19.675  34.224   0.863
74199W        W39426  22.312  42.199   0.171
74200W        W39427  34.461  19.581  12.502
74201W        W39428   3.744  30.698  11.098
74202W        W39429  42.151  39.023  11.172
74203W        W39430   6.465  22.780   2.043
74204W        W39431  16.379  18.586   0.456
74205W        W39432  21.644  41.046   0.785
74206W        W39433   2.234  23.785  13.905
74207W        W39434  24.988   2.229  13.904
74208W        W39435  43.288   0.703   0.241
74209W        W39436  33.828  37.429  14.847
74210W        W39437  34.056   8.895   3.190
74211W        W39438  11.972   9.538  14.291
74212W        W39439  17.041   6.826   0.787
74213W        W39440  33.333  43.318  14.877
74214W        W39441  14.166   6.920   2.524
74215W        W39442   9.280  38.564  12.454
74216W        W39443  40.069  28.172   0.477
74217W        W39444  14.159  13.789   1.474
74218W        W39445  13.292   7.923  12.483
74219W        W39446  10.403  42.228   3.370
74220W        W39447  14.811   4.530   0.841
74221W        W39448   9.842   2.993   2.156
74222W        W39449  36.321   4.291  14.316
74223W        W39450  35.066  26.444   2.756
74224W        W39451  10.862   6.870   1.433
74225W        W39452   6.840  32.742  13.933
74226W        W39453  27.455  44.897  13.822
74227W        W39454  11.497  32.469   1.660
74228W        W39455  21.114  32.171  13.454
74229W        W39456  37.100  30.666   0.438
74230W        W39457  33.070  42.262  14.914
74231W        W39458  21.205  13.678  14.671
74232W        W39459  35.446   5.316   1.714
74233W        W39460  39.545  38.985   3.391
74234W        W39461  13.558  13.348   1.748
74235W        W39462  13.913  42.571  13.280
74236W        W39463  19.469  30.221  13.514
74237W        W39464  29.634  37.010  13.781
74238W        W39465  11.880  44.198   0.473
74239W        W39466  18.422  40.444   2.214
74240W        W39467  20.174  37.341  10.370
74241W        W39468  40.038  24.963  12.756
74242W        W39469  34.405  28.972  14.768
74243W        W39470  10.081  44.594   1.674
74244W        W39471  25.612  18.043  14.325
74245W        W39472  13.389  29.414  10.893
74246W        W39473  18.625  29.355   4.517
74247W        W39474   7.791  16.014  13.581
74248W        W39475   8.881  26.068   1.960
74249W        W39476  13.716   7.262  12.124
74250W        W39477  19.311  38.964   4.589
74251W        W39478  22.215   6.609   1.245
74252W        W39479  14.574  22.753   3.887
74253W        W39480  34.268   1.418  11.104
74254W        W39481  23.249  30.003   3.137
74255W        W39482  20.746  28.793  11.164
74256W        W39483   6.901  34.188   4.579
74257W        W39484  14.802  24.921  10.708
74258W        W39485   3.963   2.036   4.127
74259W        W39486  22.443   0.431   3.143
74260W        W39487  26.300  42.720  11.967
74261W        W39488  19.662  17.354  12.720
74262W        W39489  38.271  33.825   3.864
74263W        W39490   8.333  28.769   3.587
74264W        W39491  36.106  13.770  10.813
74265W        W39492  38.698  34.311   2.138
74266W        W39493  32.602  23.012   1.895
74267W        W39494   0.456  33.133   2.550
74268W        W39495  32.086   0.764  13.513
74269W        W39496  10.686  35.792  13.447
74270W        W39497   7.235  40.000   1.812
74271W        W39498  11.172  24.826   0.230
74272W        W39499  40.328  38.449   3.103
74273W        W39500  20.229  20.132   3.738
74274W        W39501   7.511  39.405  12.279
74275W        W39502  33.107   5.903   4.189
74276W        W39503  27.094  38.792   0.188
74277W        W39504  37.743   7.944   3.659
74278W        W39505  23.694   4.406   0.871
74279W        W39506  15.430  30.043  13.467
74280W        W39507  31.484  10.768  13.025
74281W        W39508  41.328  27.621   2.516
74282W        W39509  27.388  10.131  11.071
74283W        W39510  27.726  44.335  11.270
74284W        W39511  17.145  22.681  10.252
74285W        W39512  23.077  26.148  10.788
74286W        W39513   5.300  17.334   0.438
74287W        W39514  44.089  34.636  13.999
74288W        W39515  39.709   7.797  11.079
74289W        W39516   3.334   2.458   1.310
74290W        W39517  41.022  15.908   1.611
74291W        W39518  36.867   7.938   0.708
74292W        W39519  35.701  30.996  14.896
74293W        W39520  26.017  19.165  11.177
74294W        W39521   1.649  35.544   3.240
74295W        W39522   4.391  25.451  11.670
74296W        W39523  27.961  24.004  14.314
74297W        W39524  12.247  41.088   1.169
74298W        W39525  25.657  38.521  11.228
74299W        W39526  18.142   1.301  11.999
74300W        W39527  18.455  18.442  14.775
74301W        W39528   9.152  40.424  14.017
74302W        W39529   9.125  34.690   1.447
74303W        W39530  12.098  44.670  14.547
74304W        W39531  27.431  18.509   1.100
74305W        W39532  31.633  11.169   3.147
74306W        W39533  11.859   7.298   0.018
74307W        W39534  11.171  37.853   3.795
74308W        W39535  20.650  23.204   4.370
74309W        W39536  43.032   7.624   1.856
74310W        W39537  44.018   7.822  14.826
74311W        W39538  23.997  33.510   2.947
74312W        W39539  15.352  34.767  11.632
74313W        W39540  40.272  13.690  14.124
74314W        W39541  18.799  17.294   1.323
74315W        W39542  21.734  40.975  13.475
74316W        W39543   6.892   3.248   1.620
74317W        W39544  12.110   5.156   1.786
74318W        W39545  13.625  27.233   0.343
74319W        W39546  27.585   9.235   2.743
74320W        W39547  16.789   3.165  13.964
74321W        W39548  44.526  29.416   4.118
74322W        W39549   3.119  39.676   3.667
74323W        W39550  16.259   2.957  10.946
74324W        W39551  22.085   6.801  12.083
74325W        W39552  35.801  19.270  13.033
74326W        W39553  34.609  33.687   2.220
74327W        W39554  21.607  28.722   0.436
74328W        W39555  30.565  27.142   0.423
74329W        W39556  31.981   2.042  12.193
74330W        W39557  13.289   0.492  10.638
74331W        W39558  15.074  13.440   1.738
74332W        W39559  39.639  43.163  12.049
74333W        W39560  29.416  42.169   5.014
74334W        W39561  18.386   9.247   0.301
74335W        W39562  25.114   8.346  12.853
74336W        W39563  23.418  39.172  14.615
74337W        W39564  18.209   2.828  13.396
74338W        W39565  37.317  22.230   3.961
74339W        W39566  42.494   0.245   1.363
74340W        W39567  38.343   4.942  14.524
74341W        W39568  26.386  39.067  10.915
74342W        W39569  37.386  12.318  10.699
74343W        W39570   0.301  42.834   5.412
74344W        W39571  17.300  33.084   4.853
74345W        W39572  11.842   5.859   3.136
74346W        W39573  25.598  41.538  11.289
74347W        W39574  15.711  28.141  12.810
74348W        W39575   8.669  37.818  14.455
74349W        W39576  15.882   3.288  11.052
74350W        W39577  38.302  15.988   4.655
74351W        W39578  15.900   9.799  14.235
74352W        W39579  23.648   6.931   4.039
74353W        W39580  43.737  25.005  13.467
74354W        W39581  10.719  19.985  14.993
74355W        W39582  19.498  18.916   0.009
74356W        W39583   1.300  24.623  11.364
74357W        W39584  20.623  11.195   3.828
74358W        W39585  43.245  13.215   0.999
74359W        W39586  13.736  31.538   3.008
74360W        W39587  22.349  24.765  11.914
74361W        W39588   1.191  21.834  12.330
74362W        W39589  21.268  18.319  11.075
74363W        W39590  22.976  41.790  10.747
74364W        W39591   6.351  31.180   2.799
74365W        W39592  17.372   4.318  12.532
74366W        W39593  21.165  37.869   4.098
74367W        W39594  26.656  15.140   4.359
74368W        W39595  29.116  21.191   1.178
74369W        W39596  27.052  30.331  11.556
74370W        W39597  26.555  20.008   4.094
74371W        W39598  25.905   5.478   4.129
74372W        W39599  11.849  41.645  13.936
74373W        W39600  24.132  29.437   0.991
74374W        W39601  16.630  39.734   0.365
74375W        W39602   1.992  25.120   2.156
74376W        W39603  31.485  29.315  14.434
74377W        W39604   5.861  40.836  14.909
74378W        W39605  11.225   2.680   0.407
74379W        W39606  15.562  42.046  12.036
74380W        W39607  11.992  14.803  10.123
74381W        W39608  30.932  34.136  14.779
74382W        W39609  35.650  22.564  11.563
74383W        W39610   6.822  37.885  11.239
74384W        W39611  26.041  43.425  11.984
74385W        W39612  38.071  35.341  13.002
74386W        W39613  17.072  42.982   0.958
74387W        W39614  32.534  14.350  14.480
74388W        W39615  43.538  42.249   0.027
74389W        W39616   0.769  40.945  12.893
74390W        W39617   7.717  13.643  12.999
74391W        W39618  43.164   6.820  10.128
74392W        W39619  38.832  14.673  12.477
74393W        W39620  23.153   6.646  13.957
74394W        W39621  18.467  19.508  11.230
74395W        W39622  29.904  22.166  12.256
74396W        W39623   9.377  26.610   1.328
74397W        W39624  32.132  34.405   1.651
74398W        W39625   3.335  41.355  10.679
74399W        W39626  10.636  37.175  13.437
74400W        W39627  32.304  33.600   1.718
74401W        W39628  14.556  16.756  14.935
74402W        W39629  37.441  30.101  12.302
74403W        W39630  16.359  38.328   0.189
74404W        W39631  28.162  29.959   4.562
74405W        W39632  31.245  28.119   3.564
74406W        W39633  31.291  21.359   1.798
74407W        W39634  24.204   3.306   1.858
74408W        W39635  17.743  35.230  14.089
74409W        W39636  10.183   8.637   0.499
74410W        W39637  36.376  18.069  12.122
74411W        W39638  20.135  18.943   1.796
74412W        W39639  44.627  17.895  11.101
74413W        W39640  11.622  30.397  10.042
74414W        W39641  33.035   6.825   1.627
74415W        W39642   2.721  42.892   0.319
74416W        W39643  20.737  10.627  11.532
74417W        W39644   8.257  29.494   4.832
74418W        W39645  44.539  33.975   4.248
74419W        W39646  42.960  15.190  10.769
74420W        W39647  28.392   5.378  14.795
74421W        W39648  43.719   4.159   2.209
74422W        W39649  20.070  29.683  13.036
74423W        W39650  32.870   5.893   2.041
74424W        W39651   7.800  30.290  11.082
74425W        W39652  18.167   5.570  14.510
74426W        W39653  30.965  37.468   1.822
74427W        W39654  25.587   3.745  13.074
74428W        W39655   7.692   0.756  12.013
74429W        W39656  38.063  33.178  14.917
74430W        W39657  11.280   0.646   3.875
74431W        W39658  41.355  41.214  13.836
74432W        W39659   9.050  26.224   0.680
74433W        W39660  31.382  42.901   1.241
74434W        W39661  28.504  20.049   1.464
74435W        W39662  14.223   7.804   3.632
74436W        W39663  41.312  29.676   1.428
74437W        W39664  27.931   2.871  11.973
74438W        W39665  24.679  22.738  13.953
74439W        W39666  25.738  37.063  13.320
74440W        W39667  26.481  43.317   2.199
74441W        W39668  20.322  20.082   2.636
74442W        W39669   4.876   9.598  12.642
74443W        W39670  26.493  28.970  11.055
74444W        W39671  16.067  26.615  11.061
74445W        W39672  35.363  19.632  12.043
74446W        W39673  39.937  24.007  14.286
74447W        W39674  11.113  30.883   2.219
74448W        W39675  13.055  13.875   4.066
74449W        W39676  38.545  36.414  11.211
74450W        W39677  44.857  41.547  12.973
74451W        W39678  39.496  37.078   1.612
74452W        W39679  19.556  39.588  13.829
74453W        W39680  19.625   9.178  11.577
74454W        W39681  35.314   6.870  12.454
74455W        W39682  20.097  14.298   1.736
74456W        W39683  38.434  41.950   2.343
74457W        W39684  17.600  42.245   3.180
74458W        W39685  26.120  41.103  13.220
74459W        W39686  44.780  14.676  12.093
74460W        W39687  20.774  24.194   0.400
74461W        W39688  34.573  17.125  13.178
74462W        W39689  20.045  40.223  10.425
74463W        W39690  14.156  25.750  14.448
74464W        W39691  14.787   4.031   0.858
74465W        W39692  21.687  15.025   4.147
74466W        W39693   5.242  16.821  13.704
74467W        W39694  39.496  42.360  11.910
74468W        W39695  37.010  21.896   4.220
74469W        W39696  20.558  17.482  14.628
74470W        W39697  15.639  20.740  14.848
74471W        W39698  25.208  22.076   1.609
74472W        W39699  36.512  37.701  12.448
74473W        W39700   9.827  22.289   3.861
74474W        W39701  20.193  14.386  13.919
74475W        W39702  26.081   4.985  13.121
74476W        W39703   1.307  40.002   2.180
74477W        W39704  28.555  38.635   5.642
74478W        W39705  23.787  22.168   3.160
74479W        W39706  40.490  44.364   2.805
74480W        W39707  10.159  15.229  14.288
74481W        W39708  32.473  14.701   0.839
74482W        W39709   3.992  11.895  12.012
74483W        W39710   6.508   6.428   0.387
74484W        W39711  33.872  28.086   2.616
74485W        W39712  24.574  18.195  12.488
74486W        W39713   4.499  29.893  11.853
74487W        W39714  38.795  39.303   1.180
74488W        W39715  11.668  31.026   0.057
74489W        W39716  34.955  32.027   1.787
74490W        W39717  32.168  32.126  11.186
74491W        W39718  16.312  32.022   4.892
74492W        W39719  29.963  26.528   0.796
74493W        W39720  12.344   0.811   4.168
74494W        W39721  16.210   1.023  10.839
74495W        W39722  21.694  36.647   3.222
74496W        W39723   7.524  25.010   4.912
74497W        W39724   5.638   5.907  14.247
74498W        W39725  20.877  33.890  12.887
74499W        W39726  38.300  23.217   0.207
74500W        W39727  22.170  32.159  11.744
74501W        W39728  13.738   1.780   1.815
74502W        W39729  30.596  15.783  11.267
74503W        W39730  34.512  22.056  14.987
74504W        W39731  11.080  39.775  10.525
74505W        W39732  24.446   1.472  11.096
74506W        W39733  43.754  20.163  12.074
74507W        W39734  30.163  39.064   2.309
74508W        W39735  40.009  13.618   4.508
74509W        W39736  10.530  37.688   5.054
74510W        W39737  12.621  27.666  13.860
74511W        W39738  16.746  43.671   4.612
74512W        W39739  20.835  21.664  11.476
74513W        W39740  39.629  21.575   4.021
74514W        W39741  34.588   4.728  13.339
74515W        W39742   4.215  28.049   0.304
74516W        W39743  25.503  10.712   0.905
74517W        W39744  14.381  18.685   0.810
74518W        W39745  12.741  11.582  12.330
74519W        W39746  39.031  15.081  13.460
74520W        W39747  20.547  32.831  10.713
74521W        W39748  20.771  41.340  13.049
74522W        W39749  25.960  24.242  14.307
74523W        W39750  27.556  41.075   1.229
74524W        W39751   8.000  33.913  12.527
74525W        W39752  40.802   5.372   1.414
74526W        W39753  35.328   7.249  13.534
74527W        W39754  34.487  14.545  12.911
74528W        W39755   6.806  18.124   0.725
74529W        W39756  22.420   2.825   2.923
74530W        W39757   1.179  25.464  13.583
74531W        W39758  26.174  12.854  14.037
74532W        W39759  42.415  16.143   2.008
74533W        W39760  28.690  15.146  12.585
74534W        W39761   2.897  16.174  10.665
74535W        W39762  30.522  23.658  11.931
74536W        W39763   6.808  22.060   4.667
74537W        W39764  40.315  29.198  11.581
74538W        W39765  38.184  26.378  12.060
74539W        W39766  19.096   3.225   0.649
74540W        W39767  42.904  34.330   2.603
74541W        W39768   2.985  30.950  11.755
74542W        W39769  14.033   6.194   0.342
74543W        W39770  31.849   4.188  11.128
74544W        W39771  42.538  16.311   3.408
74545W        W39772  30.477  37.929   1.218
74546W        W39773  44.610  26.154  12.943
74547W        W39774  16.186  44.466  10.654
74548W        W39775  18.096   4.244   4.039
74549W        W39776   4.413  41.253  11.533
74550W        W39777  14.695  29.142  10.797
74551W        W39778  35.672  18.076  13.062
74552W        W39779  36.934  29.809   0.614
74553W        W39780  13.571  13.023  12.825
74554W        W39781  30.977   7.202   1.893
74555W        W39782  32.753  32.378   3.203
74556W        W39783  17.350  28.662   3.976
74557W        W39784  18.658  23.730   2.274
74558W        W39785  25.202  33.059  13.369
74559W        W39786  29.668  12.616   4.402
74560W        W39787  38.221   4.697   1.985
74561W        W39788  28.154  13.705  10.301
74562W        W39789  27.706  21.674  14.276
74563W        W39790  26.901  23.584   4.466
74564W        W39791  24.574  36.503   1.213
74565W        W39792  34.457  31.317  13.785
74566W        W39793  12.248  44.861   0.018
74567W        W39794   4.863   4.314  14.829
74568W        W39795  30.548  44.678  12.999
74569W        W39796   9.662  28.835   3.652
74570W        W39797   5.354  27.389   4.122
74571W        W39798  25.962  11.180  14.018
74572W        W39799   7.360  37.451   3.082
74573W        W39800   1.045   4.464  13.964
74574W        W39801  22.666   7.380   1.145
74575W        W39802   6.403  10.771   1.481
74576W        W39803  26.092  13.772  10.437
74577W        W39804   7.263   8.678   3.797
74578W        W39805  23.181  19.722   4.221
74579W        W39806  11.982  34.916  11.097
74580W        W39807  32.652  34.306   3.614
74581W        W39808   6.331   0.885   3.626
74582W        W39809  21.226   4.418   3.144
74583W        W39810  15.402  31.148  13.541
74584W        W39811  19.775  14.918  12.490
74585W        W39812  10.848  15.045   4.727
74586W        W39813   4.735  14.344   0.881
74587W        W39814  39.748   4.697  14.506
74588W        W39815  25.624  37.465  14.865
74589W        W39816  21.132  33.163  13.338
74590W        W39817  42.158  16.761   3.202
74591W        W39818  17.860   3.360  10.757
74592W        W39819  37.165  42.356  11.644
74593W        W39820  22.182  39.778  11.448
74594W        W39821  36.629   3.438   0.702
74595W        W39822   6.889  27.669  11.659
74596W        W39823  10.409  31.383   0.770
74597W        W39824  13.261  21.015  10.352
74598W        W39825  20.285  17.709  10.770
74599W        W39826  18.144  24.636   2.430
74600W        W39827   0.018  22.056  12.084
74601W        W39828  36.076  14.271   1.983
74602W        W39829  26.440  28.339   3.669
74603W        W39830  15.542  43.032   1.864
74604W        W39831  35.751   5.702   3.246
74605W        W39832  34.031  40.525   1.214
74606W        W39833  37.270  26.754   0.248
74607W        W39834  19.157   0.834   1.268
74608W        W39835  29.880   0.278  12.906
74609W        W39836   3.424  35.886   3.307
74610W        W39837   8.707  21.619   3.242
74611W        W39838   3.352  25.964   0.795
74612W        W39839   2.531   2.745  10.752
74613W        W39840  31.400  13.684   0.394
74614W        W39841  10.802  43.503   4.195
74615W        W39842  12.352  12.808  12.482
74616W        W39843  30.954  39.595  14.278
74617W        W39844   0.420   5.333   4.087
74618W        W39845  38.759  34.437  14.843
74619W        W39846  43.899  26.898  14.979
74620W        W39847  14.812   5.421  13.941
74621W        W39848  24.657  38.832   1.852
74622W        W39849  35.914  41.394  14.523
74623W        W39850   1.503   6.815   2.318
74624W        W39851  40.056  15.311  13.514
74625W        W39852   6.182  43.127   1.280
74626W        W39853  39.843  33.398   0.445
74627W        W39854  33.337  15.155   1.329
74628W        W39855   8.275   2.259  12.540
74629W        W39856  16.673  17.285  14.430
74630W        W39857  24.986  40.215   0.292
74631W        W39858  43.483  10.199   0.264
74632W        W39859   7.900  21.551  13.811
74633W        W39860  43.376  17.420  11.144
74634W        W39861  29.953  12.484   4.822
74635W        W39862  31.877  25.086  13.849
74636W        W39863  37.415  17.071  14.037
74637W        W39864  24.276  14.368   2.593
74638W        W39865  19.727  24.558  12.630
74639W        W39866   5.708  12.805   3.836
74640W        W39867  14.292  31.422  13.964
74641W        W39868  23.737   2.230   2.156
74642W        W39869  38.071   5.493   5.652
74643W        W39870  36.165   2.436  11.906
74644W        W39871   9.342  27.123   1.442
74645W        W39872  43.720   2.087  12.515
74646W        W39873  40.556  19.567   4.522
74647W        W39874  19.365   0.338   2.823
74648W        W39875  16.613   8.383   0.753
74649W        W39876  33.411   9.521  10.194
74650W        W39877  27.188   1.870   2.286
74651W        W39878  37.044  41.600  13.457
74652W        W39879  16.902  13.034  13.946
74653W        W39880  36.630  43.549  14.761
74654W        W39881  13.147  35.351  14.661
74655W        W39882  13.097  33.567  10.751
74656W        W39883  31.141  10.318  11.984
74657W        W39884  20.032  14.212   4.508
74658W        W39885  31.159  20.180   0.488
74659W        W39886   5.352  14.758   1.165
74660W        W39887   6.282   5.078  13.065
74661W        W39888  35.004  38.895   9.986
74662W        W39889   6.760   6.865   3.716
74663W        W39890  41.831  32.100  10.654
74664W        W39891  26.031  15.796   0.536
74665W        W39892  15.477  14.291  11.317
74666W        W39893   0.815  32.878   2.828
74667W        W39894  43.861  23.128   2.767
74668W        W39895   9.705  14.847  12.031
74669W        W39896  36.099  11.129   0.383
74670W        W39897   3.780   5.196   1.420
74671W        W39898  24.734  27.183  11.560
74672W        W39899  10.825  18.954   4.542
74673W        W39900  30.158  28.656  11.563
74674W        W39901  34.403  21.364  10.968
74675W        W39902  43.869  29.473  12.055
74676W        W39903  41.790  34.079   3.163
74677W        W39904  29.820  12.306   2.246
74678W        W39905  18.160   6.646   4.586
74679W        W39906  20.614  19.246   0.787
74680W        W39907  14.380  17.225  14.824
74681W        W39908   1.553  35.089   3.061
74682W        W39909  27.955   8.097   4.061
74683W        W39910   1.863  17.015  14.214
74684W        W39911  34.734   6.167   0.483
74685W        W39912  14.160  10.215   1.854
74686W        W39913  15.786  39.751  13.498
74687W        W39914  21.732   8.228  12.576
74688W        W39915   5.695   3.517   0.431
74689W        W39916  43.082  22.748  13.903
74690W        W39917  36.787   8.955   1.764
74691W        W39918   7.977  32.127   4.153
74692W        W39919  32.864  29.974  13.037
74693W        W39920  24.536  15.375  12.681
74694W        W39921  33.403  20.700   4.171
74695W        W39922   6.011  34.320   0.369
74696W        W39923   2.473   8.848  13.088
74697W        W39924  38.315  43.807   1.268
74698W        W39925  10.754  28.017   0.821
74699W        W39926  43.136  27.808   3.036
74700W        W39927  26.930  34.966   1.358
74701W        W39928  42.688  15.650  12.501
74702W        W39929   5.774  11.569  14.343
74703W        W39930  22.577   7.858  14.406
74704W        W39931  20.520  17.559  11.997
74705W        W39932  18.170  28.362   3.499
74706W        W39933  24.326  41.056  14.925
74707W        W39934   3.465  41.515  13.574
74708W        W39935  20.875  33.916  12.080
74709W        W39936   8.492  36.266  13.966
74710W        W39937   5.597   3.026  14.419
74711W        W39938   2.206  21.604   1.361
74712W        W39939  24.458   1.635   2.343
74713W        W39940   8.787  32.440   4.980
74714W        W39941  42.591   8.151  12.993
74715W        W39942  38.415  17.370   0.359
74716W        W39943  26.785  22.691   0.973
74717W        W39944  25.703   8.159  14.985
74718W        W39945  24.628  43.393  14.044
74719W        W39946  24.904  17.962  10.792
74720W        W39947  30.151   1.516  10.747
74721W        W39948   2.309   7.365  11.499
74722W        W39949  16.102   3.617   2.118
74723W        W39950   7.347   7.629   3.733
74724W        W39951  16.125   4.337  11.593
74725W        W39952  38.287   2.005  10.714
74726W        W39953  28.603  42.837   3.557
74727W        W39954  34.350  29.076   0.272
74728W        W39955  22.729  17.073  13.291
74729W        W39956   6.342  27.034   3.604
74730W        W39957   8.216  16.041   2.425
74731W        W39958  21.708   8.553   0.238
74732W        W39959  26.513  42.522   1.779
74733W        W39960  25.676  42.891   1.577
74734W        W39961  30.101   9.493  11.114
74735W        W39962   8.126  20.190  10.798
74736W        W39963   5.182  41.084  13.814
74737W        W39964  23.494  11.330   2.325
74738W        W39965  26.988   1.711  10.941
74739W        W39966  42.756  38.938   0.776
74740W        W39967   8.561  27.681  10.980
74741W        W39968  27.650   5.752   2.138
74742W        W39969  13.202  20.134  11.888
74743W        W39970   8.827  23.904  14.676
74744W        W39971  27.938  17.063  13.366
74745W        W39972   8.692  32.746  14.535
74746W        W39973  19.058  37.417  14.425
74747W        W39974  20.978  26.909  10.745
74748W        W39975  36.122  30.746   1.956
74749W        W39976   3.395  41.470  14.149
74750W        W39977  33.662  34.978   3.996
74751W        W39978   3.783  18.039  11.706
74752W        W39979  26.072  25.780  11.655
74753W        W39980  16.233  20.972  10.038
74754W        W39981   0.747  43.327   0.457
74755W        W39982  41.948   1.320   4.404
74756W        W39983  24.607   4.837  12.638
74757W        W39984  34.895  30.590  11.717
74758W        W39985  33.168  43.847  14.873
74759W        W39986  39.010  19.352   2.227
74760W        W39987  17.776  16.966   4.840
74761W        W39988   4.633  21.762  11.081
74762W        W39989  28.360  12.819  12.312
74763W        W39990   5.498  27.212   1.353
74764W        W39991  22.542  18.052   0.705
74765W        W39992   0.251  18.291   9.892
74766W        W39993   3.832  24.684  11.833
74767W        W39994  22.042  13.139  12.130
74768W        W39995   8.247   7.888  14.345
74769W        W39996  15.263  27.624  12.411
74770W        W39997   9.156  33.236  13.928
74771W        W39998  21.006  18.984  11.592
74772W        W39999   6.530  21.412   3.589
74773W        W40000  40.858   8.490  13.459
74774W        W40001  44.777   6.046   1.511
74775W        W40002  12.887  40.526  14.656
74776W        W40003  25.606  38.264   4.548
74777W        W40004  34.605  33.806  11.603
74778W        W40005  27.155  22.131   2.577
74779W        W40006  12.310  38.981   1.685
74780W        W40007   2.452   1.750   1.002
74781W        W40008  18.348  31.077  14.389
74782W        W40009   3.028  22.071  11.484
74783W        W40010  24.910   3.329  12.384
74784W        W40011  21.489  33.981  11.522
74785W        W40012   0.971  17.155   1.907
74786W        W40013  17.726  13.768   0.839
74787W        W40014  24.335   3.118   4.223
74788W        W40015  43.198   1.980  14.853
74789W        W40016  31.602  22.602   3.794
74790W        W40017   4.449  32.942  13.979
74791W        W40018  44.809  36.861  14.794
74792W        W40019   4.649  21.099  13.840
74793W        W40020  22.938  29.635   3.307
74794W        W40021  14.653  21.006  14.981
74795W        W40022  39.461  41.943   1.305
74796W        W40023  27.056  43.805   4.613
74797W        W40024  35.502  24.590  14.927
74798W        W40025  37.352  41.696   4.166
74799W        W40026  11.362   0.826  12.991
74800W        W40027  36.929  10.443  11.495
74801W        W40028  18.137  20.061  14.763
74802W        W40029   8.290   7.444  12.582
74803W        W40030  24.019  34.675   0.433
74804W        W40031   1.705  36.679   0.762
74805W        W40032  39.907  42.200  12.169
74806W        W40033  12.671  16.766  14.292
74807W        W40034  12.215  17.960   0.266
74808W        W40035  40.522  12.285  12.266
74809W        W40036  16.689   0.344   4.753
74810W        W40037  29.711  16.231   3.634
74811W        W40038   2.334   4.267  14.305
74812W        W40039   6.186   6.396   4.147
74813W        W40040  24.187   3.935   1.210
74814W        W40041   5.264  31.920  12.735
74815W        W40042  44.661   7.626  12.837
74816W        W40043   6.816  43.317   5.043
74817W        W40044  13.185  18.965  11.226
74818W        W40045  32.696  33.547   2.204
74819W        W40046  16.589   2.337  14.235
74820W        W40047  37.566  39.877  14.371
74821W        W40048  34.561  21.422  14.515
74822W        W40049  24.335   3.607  11.226
74823W        W40050  28.916  40.744   1.904
74824W        W40051  42.858   1.977  14.375
74825W        W40052   7.158  25.478   2.082
74826W        W40053  21.111  28.100   4.973
74827W        W40054  36.154  33.854  13.620
74828W        W40055  41.312  30.401  12.328
74829W        W40056  20.599  13.455   4.087
74830W        W40057  41.925  35.508   0.837
74831W        W40058  26.065  12.825  10.502
74832W        W40059   3.657  18.465   0.011
74833W        W40060  29.415   7.682   3.745
74834W        W40061  43.519  42.978  14.384
74835W        W40062  25.686   0.138   3.579
74836W        W40063  19.874  28.217   0.455
74837W        W40064   8.973   1.843   1.284
74838W        W40065  10.757  34.130   2.146
74839W        W40066   5.081  39.872  12.874
74840W        W40067  23.762  32.390   1.778
74841W        W40068  10.880  42.939  11.119
74842W        W40069   9.367  43.564   4.101
74843W        W40070  43.911  16.766   2.668
74844W        W40071   3.707  25.185  10.642
74845W        W40072  19.450  24.709   3.161
74846W        W40073  21.535   9.902  11.987
74847W        W40074  27.931   6.179  14.430
74848W        W40075  44.963   7.764  11.037
74849W        W40076   5.787  12.477  11.213
74850W        W40077  27.004   7.717   1.655
74851W        W40078  37.697  17.011  12.029
74852W        W40079  34.195  38.659   3.664
74853W        W40080  17.743  32.337  14.921
74854W        W40081  15.053   0.065  11.107
74855W        W40082  22.203  38.303  11.620
74856W        W40083  34.910  25.670  10.410
74857W        W40084  13.343   1.270  13.863
74858W        W40085  25.135  19.775   0.828
74859W        W40086  14.630  30.860   2.687
74860W        W40087  25.713  20.915   2.751
74861W        W40088  10.691  14.164  12.526
74862W        W40089  23.560  16.794  13.359
74863W        W40090  36.290   7.627   2.687
74864W        W40091  36.408  13.852  11.205
74865W        W40092  17.489   4.742   5.041
74866W        W40093  41.030   1.237   2.654
74867W        W40094  36.199  36.714  13.094
74868W        W40095  12.428  13.314  12.564
74869W        W40096  24.285  39.122  14.445
74870W        W40097   9.334   0.892  13.008
74871W        W40098  40.311  40.931   4.536
74872W        W40099   5.727  22.963   2.481
74873W        W40100  35.961  29.238  14.297
74874W        W40101  23.628  40.245   0.453
74875W        W40102   7.676  34.330  13.486
74876W        W40103  26.547  22.977   3.349
74877W        W40104   9.274  19.202   0.722
74878W        W40105  36.122  17.042   4.506
74879W        W40106  37.586   3.793   1.311
74880W        W40107   6.360   8.764  11.347
74881W        W40108  38.384  38.729  11.210
74882W        W40109  31.910  30.540   2.485
74883W        W40110  42.968  17.156   3.050
74884W        W40111  21.697   0.328  13.468
74885W        W40112  33.979  30.680  10.775
74886W        W40113  34.666  10.104  13.930
74887W        W40114  33.808  36.121  12.994
74888W        W40115   8.753   6.017   2.307
74889W        W40116   6.102  43.605   1.447
74890W        W40117  44.026  15.119   3.619
74891W        W40118   1.274  36.167   2.447
74892W        W40119  24.991  28.390  13.333
74893W        W40120  39.248  21.153   1.341
74894W        W40121  22.414   7.019  10.750
74895W        W40122  31.054  23.407   3.336
74896W        W40123  20.396  16.734   3.177
74897W        W40124   2.542  27.455  13.284
74898W        W40125  18.115  31.085   0.842
74899W        W40126   8.682   9.641  10.766
74900W        W40127   1.154  33.870  12.370
74901W        W40128  12.771   6.625   2.250
74902W        W40129  14.323  15.649  12.102
74903W        W40130  24.060  20.336   4.114
74904W        W40131  25.917   8.706  14.944
74905W        W40132  35.422  30.270  13.091
74906W        W40133   3.437   5.912   3.697
74907W        W40134  11.508  31.381  10.205
74908W        W40135   0.135  25.729   0.310
74909W        W40136  12.911  10.291   0.902
74910W        W40137  33.833  24.388  14.395
74911W        W40138  37.039  21.687   2.722
74912W        W40139   4.638  13.077   1.241
74913W        W40140  13.880  44.695  12.539
74914W        W40141   7.876  22.219  14.433
74915W        W40142  38.705  30.205   3.350
74916W        W40143   0.735  23.060  12.424
74917W        W40144   3.750   7.346  13.017
74918W        W40145  25.210  10.219  13.961
74919W        W40146  31.718  20.183   0.503
74920W        W40147  25.565   4.531  10.640
74921W        W40148  27.601  40.800  11.086
74922W        W40149   7.392   2.433   2.721
74923W        W40150   1.530  18.773   3.640
74924W        W40151   4.394  18.755  14.234
74925W        W40152  25.618   4.404  12.440
74926W        W40153  25.837   6.186  13.569
74927W        W40154   5.219  28.928   2.257
74928W        W40155  34.906  42.949  14.492
74929W        W40156  14.501  15.279   3.326
74930W        W40157  40.480  36.569   4.886
74931W        W40158  38.117  42.336   3.707
74932W        W40159  10.360   2.485  14.428
74933W        W40160   0.313  15.832  13.065
74934W        W40161  32.099  38.800   3.035
74935W        W40162   3.732   8.891  14.385
74936W        W40163  18.020  16.178  14.131
74937W        W40164  29.017  22.992   3.143
74938W        W40165  28.020   4.710  11.311
74939W        W40166  11.595  15.521  11.659
74940W        W40167   6.385  39.471   3.114
74941W        W40168  11.581  17.430   4.566
74942W        W40169  29.926  11.732   0.661
74943W        W40170  25.984  39.286   4.096
74944W        W40171  36.143   4.993   2.554
74945W        W40172  19.300   8.386   2.548
74946W        W40173  20.217  13.325   0.980
74947W        W40174   7.870  23.324   2.696
74948W        W40175  10.713  33.062   1.762
74949W        W40176  11.186  35.030   1.879
74950W        W40177  22.795  14.034  13.203
74951W        W40178  13.308  35.986  13.493
74952W        W40179  43.408  10.164  11.884
74953W        W40180  29.785  22.500  13.029
74954W        W40181   9.747  31.361   4.193
74955W        W40182  24.117  31.192  12.348
74956W        W40183  27.073  30.408   3.142
74957W        W40184  10.711   9.780  13.491
74958W        W40185  23.705  13.362   1.880
74959W        W40186   1.174  32.425  14.431
74960W        W40187  33.962  31.938   3.174
74961W        W40188   0.834  38.905   3.623
74962W        W40189  16.163  26.102  12.275
74963W        W40190  20.067  24.623  13.939
74964W        W40191   5.353  35.831   4.530
74965W        W40192  34.631  29.960  14.864
74966W        W40193  27.920  18.792  10.572
74967W        W40194  21.016   7.409   0.327
74968W        W40195  44.062   6.359   4.214
74969W        W40196  33.427  41.776  11.160
74970W        W40197   1.018  30.063  12.897
74971W        W40198   1.736  22.102  13.518
74972W        W40199  13.295  27.210   4.833
74973W        W40200   8.803   2.413  10.834
74974W        W40201   6.252  28.545  13.768
74975W        W40202  29.145   5.320  10.704
74976W        W40203  26.887  37.874   4.327
74977W        W40204  32.019  43.459   3.379
74978W        W40205  12.095  25.100   0.412
74979W        W40206  35.571   0.417   3.740
74980W        W40207  43.633  27.226  11.027
74981W        W40208  21.078  29.916  13.981
74982W        W40209  25.099  32.781   1.436
74983W        W40210  37.079  17.056   2.741
74984W        W40211  33.075  34.156  11.561
74985W        W40212  29.460  27.900   0.432
74986W        W40213  39.533  29.608  12.936
74987W        W40214  14.146  24.490  12.290
74988W        W40215  20.645   5.252   1.248
74989W        W40216   5.266  43.897  14.008
74990W        W40217   2.196  40.561   0.476
74991W        W40218  28.010   6.773   0.654
74992W        W40219  31.730  30.091  13.459
74993W        W40220  32.003   9.380   0.652
74994W        W40221  27.523  34.977  12.214
74995W        W40222   0.651  37.806  13.530
74996W        W40223  34.111  33.556   1.437
74997W        W40224  20.366  32.986  12.572
74998W        W40225  20.465  29.204  13.327
74999W        W40226  16.346  28.896   4.191
75000W        W40227  10.043  34.316  10.467
75001W        W40228   1.831  13.252   2.297
75002W        W40229   5.808  26.532  10.302
75003W        W40230   3.969  41.025   4.254
75004W        W40231  27.871   0.722   3.562
75005W        W40232   0.939  39.808   4.169
75006W        W40233   2.143   1.657  12.152
75007W        W40234   1.846  32.104  14.394
75008W        W40235  30.566  26.925  14.806
75009W        W40236   9.755  11.641   3.214
75010W        W40237  17.547  28.668  10.562
75011W        W40238   7.309  10.068  14.871
75012W        W40239  36.505  12.312  13.427
75013W        W40240   1.959  30.411  14.937
75014W        W40241  31.518  30.146   3.622
75015W        W40242  15.607  38.952  11.847
75016W        W40243  18.146  20.957  13.626
75017W        W40244   5.409  41.859  11.086
75018W        W40245  31.451  33.928  12.041
75019W        W40246  11.058  12.578   1.802
75020W        W40247  33.060  24.042   1.226
75021W        W40248  34.890  14.815  12.675
75022W        W40249  32.917   7.504   4.437
75023W        W40250  40.973  12.235   0.966
75024W        W40251  15.536  41.899  11.543
75025W        W40252  12.129  32.559   2.880
75026W        W40253   5.737  11.248  13.461
75027W        W40254  19.374  21.659   0.083
75028W        W40255  12.233   6.133   0.224
75029W        W40256  39.933   5.150   3.264
75030W        W40257  18.315   3.627  14.035
75031W        W40258  41.743  34.119  13.333
75032W        W40259   9.263   4.388  14.276
75033W        W40260   6.969  26.118  12.587
75034W        W40261  35.124   4.460  10.715
75035W        W40262  22.679  43.757  13.319
75036W        W40263  22.012  24.777   1.272
75037W        W40264  10.402   5.641   0.988
75038W        W40265  18.061  35.659  12.598
75039W        W40266  20.473  24.429   1.261
75040W        W40267  22.022  37.483  14.351
75041W        W40268  19.792  21.263   3.684
75042W        W40269   4.288  39.647   3.139
75043W        W40270  15.135  19.324  11.189
75044W        W40271  44.785  21.916  10.350
75045W        W40272  27.568  34.924  13.905
75046W        W40273  29.886   6.838  12.472
75047W        W40274  20.750   2.939  14.826
75048W        W40275  27.536  23.998  14.007
75049W        W40276  13.130  27.030   1.547
75050W        W40277  16.634   3.666   2.732
75051W        W40278   2.441  11.282   0.050
75052W        W40279  13.769  42.009   1.561
75053W        W40280  24.523  38.318  10.786
75054W        W40281   9.169   0.424  12.802
75055W        W40282  36.402  18.725   2.249
75056W        W40283  32.144  38.360   0.831
75057W        W40284  32.227  26.014   1.418
75058W        W40285   0.499  31.587   2.556
75059W        W40286  26.855  24.634  13.848
75060W        W40287  42.799  23.932   0.010
75061W        W40288  27.472  42.461  11.615
75062W        W40289  38.110  26.698  12.492
75063W        W40290  33.933  20.692   0.495
75064W        W40291  29.266  21.397  12.591
75065W        W40292  33.460  11.217   3.858
75066W        W40293  24.081  15.538   0.370
75067W        W40294  28.482  10.392  13.485
75068W        W40295  13.793  42.259  14.256
75069W        W40296  27.019  16.976  12.834
75070W        W40297  40.771  41.533  12.870
75071W        W40298  12.910  32.131  14.851
75072W        W40299  21.996   7.360  10.671
75073W        W40300   4.344  21.574  14.998
75074W        W40301  14.321  44.332   3.300
75075W        W40302  20.672  24.413  14.927
75076W        W40303  25.715  38.259  12.945
75077W        W40304  13.999  42.960   1.315
75078W        W40305  25.412  20.481   1.320
75079W        W40306   6.196  27.490  11.433
75080W        W40307   3.495  17.805  14.327
75081W        W40308  19.585   9.626   2.308
75082W        W40309   0.797  16.174   0.753
75083W        W40310  29.881  36.468   0.875
75084W        W40311  21.574  16.136  12.350
75085W        W40312  38.620   3.427  13.576
75086W        W40313  27.216   0.640  10.369
75087W        W40314   2.425  17.963   2.788
75088W        W40315   8.904  25.324   3.614
75089W        W40316  27.752  41.543  12.578
75090W        W40317  33.028  40.853  12.003
75091W        W40318  31.596   4.819  13.011
75092W        W40319   6.622  21.217  10.740
75093W        W40320  41.760   2.471   4.276
75094W        W40321  15.326  43.100  13.027
75095W        W40322  16.100  23.695   3.140
75096W        W40323  16.577  37.564  13.488
75097W        W40324  30.274  20.485   2.104
75098W        W40325   6.822   2.729   0.897
75099W        W40326  19.257  37.954   3.081
75100W        W40327  30.996  17.648  10.704
75101W        W40328  41.234  30.309   0.229
75102W        W40329  34.882  25.067   0.746
75103W        W40330  33.494  27.603   0.312
75104W        W40331  36.053  27.961  12.085
75105W        W40332  31.949  27.201  14.474
75106W        W40333  28.332  23.059   4.780
75107W        W40334  25.357  12.129   1.946
75108W        W40335  41.790  43.471   1.897
75109W        W40336  14.419  18.746   2.785
75110W        W40337  31.916  22.643  14.116
75111W        W40338  13.618  15.675   3.606
75112W        W40339  22.061  15.519   4.849
75113W        W40340  37.609  35.673  12.010
75114W        W40341  32.555  34.808   3.349
75115W        W40342  19.644  39.645  12.809
75116W        W40343  20.159   1.172   2.296
75117W        W40344   3.721  11.115  11.650
75118W        W40345  36.891  43.462  10.913
75119W        W40346  16.583  12.082  10.739
75120W        W40347  20.173   7.922   1.377
75121W        W40348  13.205  31.618  13.494
75122W        W40349  26.438   8.696   4.700
75123W        W40350  10.022  13.186   2.438
75124W        W40351  15.349  37.525  13.896
75125W        W40352  41.979   9.464   0.788
75126W        W40353  21.366   9.432   0.217
75127W        W40354  26.971  30.557   4.037
75128W        W40355  13.608  16.476  12.868
75129W        W40356  19.454  35.428  11.473
75130W        W40357   1.194   5.366   2.367
75131W        W40358  21.549  10.086   4.521
75132W        W40359  23.196  16.021  14.277
75133W        W40360   6.410  19.276  12.593
75134W        W40361  21.204  28.464  12.318
75135W        W40362  13.345  18.110  13.595
75136W        W40363  21.003   8.601  12.941
75137W        W40364  15.850  24.281  12.539
75138W        W40365  34.979  13.763  13.399
75139W        W40366  26.107  37.769   1.291
75140W        W40367  23.965   5.268   2.662
75141W        W40368  13.892  35.366  14.095
75142W        W40369  39.963  31.971   2.813
75143W        W40370  23.288   1.736  13.335
75144W        W40371  28.105  31.490  14.749
75145W        W40372  43.253  34.570  12.973
75146W        W40373  28.946  25.006  12.474
75147W        W40374  44.563  21.659   0.748
75148W        W40375  12.591  41.130   4.339
75149W        W40376  36.935   2.325   4.141
75150W        W40377   2.583  11.177  14.538
75151W        W40378  25.483  20.049   0.528
75152W        W40379   1.804   0.339  12.268
75153W        W40380  32.125   3.895   2.143
75154W        W40381  11.376  22.345   4.040
75155W        W40382  20.123   1.264   4.612
75156W        W40383   9.302  33.449   0.907
75157W        W40384  15.106  32.481   1.910
75158W        W40385  43.583  28.351  10.232
75159W        W40386   4.787  40.659  11.144
75160W        W40387  30.566  37.794  12.177
75161W        W40388   7.384  22.662   0.514
75162W        W40389   7.768   4.576  10.710
75163W        W40390   8.856  32.808   2.406
75164W        W40391  32.272  22.970  13.925
75165W        W40392   3.093   1.303  12.897
75166W        W40393   2.474  25.650  10.584
75167W        W40394  25.494  14.892  14.988
75168W        W40395  13.874   2.030  11.323
75169W        W40396   9.184   3.988   1.745
75170W        W40397  10.708  30.879   3.542
75171W        W40398  38.372   4.936   0.924
75172W        W40399  44.928  28.276  12.513
75173W        W40400  40.810   3.335   0.125
75174W        W40401  20.205  37.839  10.596
75175W        W40402   9.743  38.359  12.585
75176W        W40403  32.945  44.862   1.265
75177W        W40404  20.066  31.498   3.081
75178W        W40405  18.059  27.147   0.294
75179W        W40406  39.412   0.980   2.842
75180W        W40407   9.564   1.926  13.560
75181W        W40408  10.848  36.395  11.969
75182W        W40409   4.465   1.849   2.382
75183W        W40410   2.408  37.400   2.824
75184W        W40411  40.875   5.453  13.361
75185W        W40412   7.445  17.316  14.915
75186W        W40413   4.710  23.253   0.830
75187W        W40414  17.168  23.099  12.915
75188W        W40415  33.383  18.848  11.094
75189W        W40416  36.989  20.201  10.781
75190W        W40417  40.488  27.584   0.971
75191W        W40418  40.078  27.212   0.913
75192W        W40419  37.567  10.824  13.999
75193W        W40420  17.108   3.684  11.635
75194W        W40421   0.716   8.085  14.511
75195W        W40422  16.610  13.910   4.054
75196W        W40423  19.258  35.106  12.820
75197W        W40424   8.910  42.313  14.229
75198W        W40425  24.266  24.034   2.657
75199W        W40426  43.459  33.815  12.608
75200W        W40427  13.251   2.928   1.665
75201W        W40428  26.625  12.282   4.094
75202W        W40429  26.846   6.482   4.072
75203W        W40430  37.874  20.949  14.970
75204W        W40431   9.597   1.749   1.733
75205W        W40432   0.027  33.462  12.532
75206W        W40433  42.060  20.274   1.932
75207W        W40434  24.299  30.961   3.326
75208W        W40435  22.065   0.347   3.702
75209W        W40436  30.871   7.315   5.003
75210W        W40437  44.964   7.737   1.382
75211W        W40438   5.694   9.418  12.096
75212W        W40439  39.342   2.114   0.720
75213W        W40440  23.163  30.030  14.467
75214W        W40441  14.720   6.494  12.610
75215W        W40442  33.713  23.525   0.780
75216W        W40443  20.260  35.909   1.818
75217W        W40444  26.505   1.298  13.857
75218W        W40445  26.428  13.806  14.584
75219W        W40446  23.002   5.885   3.283
75220W        W40447  37.338  13.723   1.975
75221W        W40448  18.086  36.305  14.948
75222W        W40449  22.976  23.608  13.031
75223W        W40450  19.087  39.391  11.569
75224W        W40451  12.175  22.735   4.406
75225W        W40452  11.905  10.191  10.317
75226W        W40453  25.866  34.829   1.644
75227W        W40454  19.659  28.100  13.541
75228W        W40455  36.052   0.253   0.807
75229W        W40456  18.999  20.723   0.804
75230W        W40457   8.795  22.564   0.760
75231W        W40458  40.408  37.085   1.696
75232W        W40459  26.578  34.805   5.092
75233W        W40460  27.128  39.009   3.625
75234W        W40461  29.018   3.527   4.726
75235W        W40462  28.355  27.973   4.111
75236W        W40463  16.739  32.350   3.802
75237W        W40464  19.300   2.458  13.045
75238W        W40465   3.091  23.424  12.948
75239W        W40466  36.365  34.138  12.347
75240W        W40467  27.083  17.426  14.122
75241W        W40468  21.504  39.414  12.357
75242W        W40469  14.849  19.272   2.865
75243W        W40470  38.070  38.887   3.326
75244W        W40471  20.555  28.687  12.415
75245W        W40472  15.657  35.506   4.002
75246W        W40473  43.078  38.278   4.084
75247W        W40474   4.865  30.733   0.166
75248W        W40475   0.549  38.451   1.392
75249W        W40476  27.636   3.846  10.259
75250W        W40477  12.361  35.102   2.795
75251W        W40478  32.543  23.667  12.729
75252W        W40479  44.391   5.438   0.798
75253W        W40480  26.677   2.185  13.842
75254W        W40481   1.550  13.094  11.432
75255W        W40482  43.848  10.448   2.301
75256W        W40483   9.271  31.604   2.584
75257W        W40484  16.767  36.237  14.403
75258W        W40485  30.506  40.038   3.321
75259W        W40486   0.415  24.412  13.359
75260W        W40487   6.097   5.987   2.455
75261W        W40488  29.069  29.902  13.007
75262W        W40489  13.664   2.351  14.490
75263W        W40490  31.088   9.274   0.069
75264W        W40491  25.886  14.848  11.549
75265W        W40492  21.960  13.574  14.825
75266W        W40493  30.954  35.613   3.694
75267W        W40494  43.097  10.302   3.734
75268W        W40495   5.823  14.375  13.963
75269W        W40496  40.066  24.437   2.843
75270W        W40497  30.124  29.930  14.339
75271W        W40498  10.328  12.014   4.645
75272W        W40499  37.380  36.878   0.194
75273W        W40500  43.806  25.082   1.426
75274W        W40501  42.242   2.391   0.953
75275W        W40502  19.426  38.362  11.469
75276W        W40503  33.590  23.926   1.141
75277W        W40504  11.643  10.286   1.967
75278W        W40505  42.450  31.385  10.623
75279W        W40506  25.703  30.891  14.950
75280W        W40507  21.776  40.177   3.330
75281W        W40508  16.204  12.750  13.541
75282W        W40509  25.507  24.176   0.002
75283W        W40510  19.261   1.710  11.509
75284W        W40511  16.509  21.367  11.467
75285W        W40512  13.048  30.933  12.885
75286W        W40513  43.593   0.894   1.690
75287W        W40514  18.700  29.543   1.134
75288W        W40515  18.120   2.898  11.268
75289W        W40516  25.482  21.098   2.296
75290W        W40517  31.559  32.961   2.706
75291W        W40518  43.803  20.144   0.663
75292W        W40519  40.052  20.082   2.810
75293W        W40520  34.468  36.280  12.091
75294W        W40521  39.786   7.469   1.885
75295W        W40522   1.206  29.299   4.561
75296W        W40523  39.004  43.469  12.641
75297W        W40524   4.421  35.063   1.819
75298W        W40525  22.177   4.548  14.773
75299W        W40526  34.832  21.689  14.846
75300W        W40527   7.722  22.235   1.283
75301W        W40528  40.940  37.557  10.739
75302W        W40529  23.124  44.055  14.559
75303W        W40530   1.778  16.835   1.486
75304W        W40531  36.083  10.095  13.491
75305W        W40532  18.705  17.294   0.023
75306W        W40533  23.884   2.416  10.829
75307W        W40534  10.809  13.787  13.540
75308W        W40535  25.718  28.573  13.836
75309W        W40536  13.636   9.693   2.836
75310W        W40537  30.545  23.292  10.244
75311W        W40538  41.627  39.968   1.974
75312W        W40539  17.847  30.139  13.440
75313W        W40540   5.864  26.854   1.468
75314W        W40541  17.036   5.225   2.916
75315W        W40542  26.209  25.285  11.636
75316W        W40543  36.897  25.989   0.471
75317W        W40544  19.034  40.950  12.086
75318W        W40545  24.866  33.620   4.063
75319W        W40546  40.203  23.334   4.872
75320W        W40547  43.209  44.317  10.137
75321W        W40548  41.976  14.309  12.849
75322W        W40549  17.155  20.029  11.271
75323W        W40550  41.499   1.406  12.120
75324W        W40551   7.836  17.705   4.600
75325W        W40552  43.565  25.001  13.970
75326W        W40553   2.861  43.923   2.775
75327W        W40554  15.653  20.783   4.334
75328W        W40555  41.398  24.346   4.511
75329W        W40556  26.927   0.759  14.004
75330W        W40557  37.569  32.422  12.803
75331W        W40558  17.377  37.537   0.485
75332W        W40559  40.798  14.715  13.291
75333W        W40560  32.161  29.276  14.420
75334W        W40561   3.768  25.175   3.535
75335W        W40562  15.799  24.257  13.068
75336W        W40563  26.759  30.548   4.503
75337W        W40564   6.273   4.385   1.643
75338W        W40565  15.706  18.158   2.548
75339W        W40566  41.334  17.351  11.116
75340W        W40567  37.015  25.626   3.709
75341W        W40568  11.565  30.966   5.426
75342W        W40569  22.952  23.407   0.704
75343W        W40570   8.087   5.919   3.508
75344W        W40571  33.612  25.769   3.850
75345W        W40572  16.888   5.259  10.719
75346W        W40573  37.056  16.670  12.794
75347W        W40574  23.587  41.002   3.272
75348W        W40575  32.948  24.782   1.842
75349W        W40576  34.790   0.478  11.535
75350W        W40577  36.915  29.425  12.130
75351W        W40578   4.649  25.178  13.895
75352W        W40579  33.105   6.728  14.849
75353W        W40580   3.999  21.230  12.799
75354W        W40581   6.668  32.062   4.849
75355W        W40582  37.419  23.088   2.835
75356W        W40583  44.216  23.059  11.647
75357W        W40584  41.433  25.467   2.317
75358W        W40585  29.058  22.808   4.490
75359W        W40586  34.085  43.190  11.041
75360W        W40587  20.251  22.610   1.888
75361W        W40588   6.820  44.730   2.180
75362W        W40589   3.310  42.215  12.391
75363W        W40590  11.465  37.710  13.565
75364W        W40591  19.872  13.362  12.760
75365W        W40592  16.640  32.956  13.360
75366W        W40593  41.588   9.869   2.194
75367W        W40594   7.923  30.462   9.444
75368W        W40595  36.540  41.697  13.529
75369W        W40596  22.034   9.383   4.150
75370W        W40597   9.358  34.715   3.633
75371W        W40598   8.277  30.893   2.004
75372W        W40599   2.462  38.975  13.551
75373W        W40600  26.715   7.227  14.984
75374W        W40601   7.622  17.232   4.463
75375W        W40602  24.312  43.423   1.315
75376W        W40603  15.697  23.669  14.279
75377W        W40604  30.490  19.706  12.491
75378W        W40605  11.744  14.847   0.907
75379W        W40606   9.804  25.456  12.467
75380W        W40607  25.046  28.564  10.719
75381W        W40608  34.432   3.582  13.471
75382W        W40609  30.586  26.449  12.134
75383W        W40610  22.538  17.763   2.804
75384W        W40611   3.010  27.587   1.186
75385W        W40612  24.190  30.593   0.749
75386W        W40613   2.790   8.625  14.378
75387W        W40614  35.131  41.490  13.430
75388W        W40615  14.943  40.901  11.067
75389W        W40616   1.641   7.512  14.995
75390W        W40617  28.931  35.331  10.687
75391W        W40618   5.220   4.384   4.892
75392W        W40619  20.085   9.480   1.027
75393W        W40620  10.921   8.685   3.866
75394W        W40621  19.418   2.568   3.426
75395W        W40622   7.169  41.879  14.920
75396W        W40623  34.947  42.854  12.962
75397W        W40624  41.797  31.990  13.928
75398W        W40625  31.089  38.508  14.707
75399W        W40626  15.200   3.052  14.813
75400W        W40627  23.377  40.431   0.874
75401W        W40628  25.014  25.394   0.323
75402W        W40629  38.731  44.071  12.034
75403W        W40630  41.074   1.718   4.214
75404W        W40631   0.173  28.908  13.298
75405W        W40632  32.898   8.664  14.524
75406W        W40633   2.217  15.137  10.668
75407W        W40634   9.269  32.479   1.550
75408W        W40635  38.432   2.312  12.499
75409W        W40636   4.764  27.042   0.423
75410W        W40637  41.955  34.141  13.808
75411W        W40638  18.645  10.638   3.983
75412W        W40639  30.419   8.142  11.220
75413W        W40640  20.919   3.502  10.363
75414W        W40641  29.752  20.487   2.245
75415W        W40642  41.713  24.127  11.231
75416W        W40643  16.796  31.177  13.838
75417W        W40644   8.436  33.456  11.551
75418W        W40645  17.737  13.614  14.156
75419W        W40646  21.199  38.920  12.833
75420W        W40647   0.984  37.347  10.248
75421W        W40648  39.258  33.517  12.503
75422W        W40649  19.170  26.375  10.159
75423W        W40650   9.815  28.399  10.412
75424W        W40651   1.454  20.868   4.572
75425W        W40652  34.704  16.541   1.314
75426W        W40653  43.978  30.445  13.091
75427W        W40654  13.377  36.253   1.820
75428W        W40655  18.740  16.810   2.152
75429W        W40656  12.349  26.785   2.341
75430W        W40657  36.762  40.036  11.897
75431W        W40658  13.685   9.026   4.599
75432W        W40659  14.224  27.616   3.779
75433W        W40660  28.708  36.397   1.257
75434W        W40661  17.729  21.416  12.927
75435W        W40662  30.946  32.116   4.533
75436W        W40663  42.808   3.204   0.303
75437W        W40664  34.169  12.566   1.734
75438W        W40665  39.573  39.561   0.012
75439W        W40666  16.048  16.240   4.164
75440W        W40667   3.242   2.211   0.863
75441W        W40668   7.068   1.451  12.530
75442W        W40669  16.346  42.283  11.239
75443W        W40670  43.286   9.215   2.125
75444W        W40671  13.286  36.772  10.229
75445W        W40672  16.010  38.861  13.532
75446W        W40673  38.010  41.758   3.234
75447W        W40674   5.645  26.380   1.885
75448W        W40675  34.137  38.110   2.666
75449W        W40676  41.716  11.016  13.837
75450W        W40677  35.514  31.515   2.851
75451W        W40678  13.929  13.329   3.282
75452W        W40679  33.608  24.916   1.361
75453W        W40680  16.243  41.507   0.377
75454W        W40681  16.651   3.778   0.069
75455W        W40682  30.238  22.779   3.789
75456W        W40683  19.671  39.867  11.080
75457W        W40684  40.647  22.241   2.442
75458W        W40685  17.478   3.309  11.648
75459W        W40686   7.400  20.006   2.819
75460W        W40687  26.831   9.090   3.265
75461W        W40688  28.674  25.480  13.506
75462W        W40689   4.466  39.061  11.094
75463W        W40690   6.535  39.420  10.928
75464W        W40691  12.860  41.777  13.421
75465W        W40692  39.938  38.453  14.400
75466W        W40693  14.153  39.690  10.552
75467W        W40694  10.717  28.770   1.566
75468W        W40695   3.751  41.345   1.763
75469W        W40696   8.854  11.371  11.742
75470W        W40697  29.397  24.221  14.361
75471W        W40698  43.029  28.395   0.849
75472W        W40699  35.335  23.015  13.746
75473W        W40700  14.368  18.014   2.162
75474W        W40701   0.479  18.061  14.537
75475W        W40702  33.315  12.645  11.668
75476W        W40703   3.705   2.645  11.159
75477W        W40704  44.228  41.547   1.317
75478W        W40705  34.407  14.874  11.186
75479W        W40706  35.819  21.847  14.412
75480W        W40707  14.643  33.441  12.878
75481W        W40708   3.542  27.179   1.770
75482W        W40709  27.124  11.962  14.048
75483W        W40710  35.762   2.219  11.178
75484W        W40711  14.706  16.716   0.436
75485W        W40712  23.258   6.251   3.879
75486W        W40713  34.182  25.907   9.680
75487W        W40714   3.815  19.599  12.968
75488W        W40715  18.564  21.502  14.883
75489W        W40716  12.431  19.568  11.119
75490W        W40717  30.984   6.891  11.641
75491W        W40718  20.259  30.532  10.775
75492W        W40719  35.297  14.699   2.248
75493W        W40720  37.962  44.919  13.844
75494W        W40721  25.351   7.751   1.900
75495W        W40722  35.310  15.514  12.168
75496W        W40723  35.822  37.091   0.891
75497W        W40724   4.733   8.456   0.346
75498W        W40725  13.147  35.283   5.490
75499W        W40726  40.000  38.837   0.375
75500W        W40727  32.231  20.575   3.668
75501W        W40728   1.558  38.470   1.394
75502W        W40729   0.541  39.418  13.849
75503W        W40730  10.810   3.970  10.608
75504W        W40731  23.452  21.654  12.466
75505W        W40732  22.367  14.025   4.437
75506W        W40733  30.674  22.033  14.908
75507W        W40734   3.025   3.977   4.294
75508W        W40735  23.673  12.581   3.200
75509W        W40736   7.846  16.128  13.052
75510W        W40737  11.110  37.834   1.992
75511W        W40738  18.084  43.438   3.866
75512W        W40739   8.879  25.916  12.635
75513W        W40740  10.196  34.318  14.348
75514W        W40741  21.752  23.740   1.641
75515W        W40742  28.707  11.165  12.108
75516W        W40743  42.173   2.541   3.535
75517W        W40744  39.354   1.025  11.707
75518W        W40745  18.671  21.831  12.925
75519W        W40746   2.793  26.367  12.862
75520W        W40747  39.323  31.110   4.106
75521W        W40748  37.789  10.286   0.244
75522W        W40749  33.504  32.664   3.698
75523W        W40750  17.811  26.008   1.637
75524W        W40751  29.509  24.357   3.351
75525W        W40752  34.408  29.892   2.619
75526W        W40753  13.678   1.357  10.732
75527W        W40754  12.240  15.382   1.476
75528W        W40755  39.494   5.103   4.974
75529W        W40756  26.234  20.344   0.899
75530W        W40757   2.851  42.523  11.555
75531W        W40758  21.801  44.289   1.187
75532W        W40759  30.430  26.773  12.540
75533W        W40760   8.506  17.086   1.228
75534W        W40761   2.772   2.680  12.858
75535W        W40762  14.793  11.217   2.940
75536W        W40763  36.398  43.403  12.457
75537W        W40764  15.931  33.307  11.065
75538W        W40765  38.507   1.124  12.866
75539W        W40766  35.547  23.982  11.439
75540W        W40767   8.868  41.264   1.819
75541W        W40768  33.610   2.786  12.398
75542W        W40769  16.572   8.848   0.986
75543W        W40770  33.958  39.119  11.417
75544W        W40771  35.366  40.151   0.293
75545W        W40772   7.988  19.211   1.709
75546W        W40773  27.523   5.598   4.554
75547W        W40774  28.217   8.269  14.735
75548W        W40775   6.907  11.357   0.885
75549W        W40776  13.787   2.520   4.957
75550W        W40777  39.831  37.581   0.693
75551W        W40778  14.510  27.582   1.301
75552W        W40779  40.128   2.536  12.572
75553W        W40780  24.189   2.914   1.373
75554W        W40781  15.655  24.135  10.678
75555W        W40782  38.048   0.715   0.968
75556W        W40783  36.542  39.048  14.104
75557W        W40784  17.273  38.368   2.343
75558W        W40785  25.489  41.409  12.714
75559W        W40786   1.849  24.074  11.631
75560W        W40787  33.470  42.149   1.632
75561W        W40788  18.642  31.457   1.234
75562W        W40789   1.856  25.588   2.288
75563W        W40790  35.512  34.317  10.702
75564W        W40791  16.493  18.803   1.745
75565W        W40792  20.306  31.006  14.805
75566W        W40793  44.725  35.239  12.155
75567W        W40794  28.560  35.817   2.355
75568W        W40795  41.806   2.172  12.342
75569W        W40796   8.100  44.281   4.560
75570W        W40797  36.578   3.816  14.457
75571W        W40798  28.090   4.707   5.477
75572W        W40799  26.015  25.636  13.838
75573W        W40800   4.268  38.486  13.342
75574W        W40801  19.908  23.452   4.507
75575W        W40802   3.603  28.526   2.988
75576W        W40803   3.836   9.093   0.249
75577W        W40804   8.803  21.286   3.723
75578W        W40805  18.688  37.716  11.804
75579W        W40806  15.539   6.223   0.257
75580W        W40807   5.260   4.775   4.149
75581W        W40808  21.790  31.085   1.407
75582W        W40809   0.785  12.562  12.021
75583W        W40810  22.012  29.822  11.994
75584W        W40811   9.777  41.878  11.163
75585W        W40812  11.171   1.662   4.141
75586W        W40813  35.451  20.097   2.651
75587W        W40814  28.006  42.396  14.247
75588W        W40815  26.214  41.953   2.417
75589W        W40816  35.393   1.752  10.609
75590W        W40817  11.557  40.678   2.733
75591W        W40818  42.990   1.685   3.235
75592W        W40819  38.918  12.457   3.644
75593W        W40820  32.106  34.506   4.502
75594W        W40821  17.894  21.044   3.345
75595W        W40822  21.809  13.312  12.590
75596W        W40823  14.418  30.096  11.999
75597W        W40824  20.571  11.239   1.696
75598W        W40825  29.446  38.167  11.499
75599W        W40826  19.744  35.920  14.571
75600W        W40827  13.750  32.766   2.494
75601W        W40828  38.881  27.495   1.143
75602W        W40829  36.468  32.171   3.909
75603W        W40830  30.487   1.111  13.772
75604W        W40831  39.426   7.690  13.042
75605W        W40832  11.148  42.712  12.454
75606W        W40833  19.645  11.814  11.013
75607W        W40834   6.243   0.871   0.415
75608W        W40835  33.328   2.030  11.146
75609W        W40836  39.018  21.281  14.401
75610W        W40837   9.281  44.454  13.342
75611W        W40838   0.230   0.851  13.888
75612W        W40839  24.419  35.434   4.681
75613W        W40840   8.319   7.870   4.015
75614W        W40841  44.721  23.171   1.678
75615W        W40842   9.083  16.445   5.013
75616W        W40843  24.669  37.076   3.869
75617W        W40844  35.147  21.448   0.170
75618W        W40845   3.291   8.792  13.514
75619W        W40846  10.306   2.004   3.191
75620W        W40847   0.845   5.282   4.904
75621W        W40848  43.025  12.208  13.205
75622W        W40849  13.546  21.672  11.510
75623W        W40850   5.464   1.430  12.635
75624W        W40851  42.802   1.610   4.213
75625W        W40852   9.792  39.573   1.149
75626W        W40853  12.285   8.976  13.369
75627W        W40854  33.976  10.221   0.667
75628W        W40855   3.406   2.771   5.703
75629W        W40856  40.012  43.883  12.821
75630W        W40857  15.055   6.433  11.138
75631W        W40858  12.697  27.209   2.314
75632W        W40859  39.057   3.997   0.013
75633W        W40860   2.393  14.862  12.007
75634W        W40861  27.803  10.898  13.530
75635W        W40862   6.338   1.896   2.059
75636W        W40863  32.789  16.035   1.662
75637W        W40864  24.113  12.124  13.841
75638W        W40865   9.560  43.445  14.922
75639W        W40866  13.662   9.362   1.931
75640W        W40867  40.881   2.345  11.441
75641W        W40868  21.592  10.338  14.805
75642W        W40869   5.805  36.908  10.761
75643W        W40870  12.270  28.243  13.464
75644W        W40871  37.857  32.617   4.333
75645W        W40872  34.787   0.907   3.727
75646W        W40873  37.504   9.798   4.603
75647W        W40874  18.140  39.910  14.465
75648W        W40875  44.049   0.704  14.426
75649W        W40876   1.380   9.763  11.705
75650W        W40877  18.425   9.065   4.344
75651W        W40878  15.156   4.895  13.333
75652W        W40879  20.492   0.418  10.666
75653W        W40880  15.880  20.365   4.548
75654W        W40881  22.849  44.648   4.547
75655W        W40882  22.062  17.669   4.194
75656W        W40883  25.112  14.929   4.233
75657W        W40884  10.869  26.503   1.395
75658W        W40885  10.541  10.672   1.649
75659W        W40886  21.013  33.928  11.237
75660W        W40887  19.578  31.657  14.524
75661W        W40888   2.208  13.235  12.646
75662W        W40889  12.851  41.734   2.737
75663W        W40890  22.956  24.202   0.905
75664W        W40891  22.261  21.205   2.744
75665W        W40892  16.236  37.901   3.852
75666W        W40893  18.149  34.075  11.340
75667W        W40894   8.807  38.724   3.007
75668W        W40895  37.271  26.899  12.064
75669W        W40896  17.128  21.111  10.248
75670W        W40897  39.659   0.059   0.320
75671W        W40898  29.940  23.560  11.641
75672W        W40899  10.763  39.989   0.459
75673W        W40900  15.136  15.846  12.492
75674W        W40901  13.263  33.965   4.528
75675W        W40902  20.361  30.138  10.462
75676W        W40903  21.555  34.115   0.351
75677W        W40904  35.985  19.736  14.722
75678W        W40905  26.410  11.200  13.738
75679W        W40906  31.401  29.353   2.328
75680W        W40907   5.931  36.054   3.690
75681W        W40908  29.651   6.283   1.966
75682W        W40909   8.711  32.568  11.226
75683W        W40910  14.555  43.874  12.256
75684W        W40911   6.158  43.318  13.003
75685W        W40912  40.910   9.485  11.464
75686W        W40913   5.839  21.655   0.299
75687W        W40914  42.451  10.009  11.462
75688W        W40915  17.597  15.878  13.920
75689W        W40916  42.245  34.008  14.971
75690W        W40917  20.153  20.211   4.646
75691W        W40918  24.031   3.291  12.424
75692W        W40919  42.841   9.649   2.671
75693W        W40920  28.997   3.501  11.134
75694W        W40921  32.818  36.363   0.679
75695W        W40922  41.491   6.575  11.441
75696W        W40923  36.778   6.935  14.816
75697W        W40924  30.360  34.279   3.638
75698W        W40925  27.643  39.767  14.648
75699W        W40926  42.453   1.645  14.385
75700W        W40927  37.055  18.647  13.173
75701W        W40928  42.011   6.276  10.592
75702W        W40929  24.421  14.736  13.030
75703W        W40930  39.400   9.689   1.271
75704W        W40931  11.807   9.600   1.728
75705W        W40932  15.222  32.648  13.400
75706W        W40933  29.047  18.728  12.926
75707W        W40934  43.107  14.647   2.628
75708W        W40935  39.701   7.033   3.665
75709W        W40936  32.147  19.157   4.140
75710W        W40937  10.724  20.603  13.525
75711W        W40938  28.517   0.246   2.693
75712W        W40939   5.525  36.338   4.394
75713W        W40940   0.043  22.715  10.650
75714W        W40941  24.985   2.652  14.798
75715W        W40942  28.100   3.036   3.270
75716W        W40943  15.906  11.113  10.271
75717W        W40944  13.278  21.111  11.586
75718W        W40945  27.189  24.047  10.613
75719W        W40946  34.558   1.033   1.212
75720W        W40947   3.496  35.453  12.030
75721W        W40948  17.239  21.940  14.983
75722W        W40949  30.866  11.694   1.631
75723W        W40950  32.934  43.067  13.069
75724W        W40951  39.618   6.733  11.622
75725W        W40952  35.636   4.837  13.505
75726W        W40953  28.018  19.263  14.935
75727W        W40954  28.912  25.290   4.099
75728W        W40955  14.974   3.725   3.330
75729W        W40956  26.017  23.624   2.915
75730W        W40957  31.585  19.008   3.262
75731W        W40958  10.397  12.811   4.183
75732W        W40959   3.724   5.491   1.007
75733W        W40960  17.793  19.972  12.906
75734W        W40961  23.715  36.483  14.751
75735W        W40962  30.038   9.586   4.343
75736W        W40963  23.723   3.675   1.218
75737W        W40964   3.973   0.276   3.230
75738W        W40965  27.074  11.104   3.337
75739W        W40966  23.544  22.624  14.610
75740W        W40967  39.019  16.458   1.869
75741W        W40968  14.550  26.724   2.504
75742W        W40969  24.811  36.202  13.835
75743W        W40970  24.658  40.922  13.031
75744W        W40971  39.836  15.511  12.551
75745W        W40972   7.648  17.659   0.732
75746W        W40973  40.821  32.827   3.419
75747W        W40974   0.977  31.470   2.314
75748W        W40975   0.837   8.627  11.936
75749W        W40976  18.554   6.440  14.701
75750W        W40977  33.086  32.475  10.964
75751W        W40978   3.871   2.502  13.704
75752W        W40979  28.110  11.524   3.660
75753W        W40980  36.419   0.071   4.034
75754W        W40981   0.734  42.941  12.921
75755W        W40982  15.269  30.638   2.344
75756W        W40983  11.316  22.062  13.110
75757W        W40984  41.367  14.697  11.540
75758W        W40985  27.604  19.762   2.833
75759W        W40986  35.633   7.339  11.216
75760W        W40987  36.557  14.650   2.813
75761W        W40988  31.653  12.042  13.433
75762W        W40989  44.711  13.655  13.023
75763W        W40990   5.547  11.839  12.643
75764W        W40991  44.027   9.348   1.469
75765W        W40992  10.161  16.150  14.332
75766W        W40993  16.248  26.861  12.991
75767W        W40994  15.882   6.979   3.589
75768W        W40995  43.358   3.493  13.641
75769W        W40996  33.131   2.215   2.962
75770W        W40997  39.755  40.036  12.653
75771W        W40998   6.872   6.982   2.892
75772W        W40999   5.792  38.404  14.542
75773W        W41000  37.585  39.884  10.797
75774W        W41001  10.879   7.799   2.171
75775W        W41002  18.200  33.502  13.622
75776W        W41003  23.094  28.100   3.844
75777W        W41004  19.576  16.474   1.849
75778W        W41005  30.249  22.903  12.394
75779W        W41006   6.836  36.444   2.864
75780W        W41007  27.097  27.529   3.837
75781W        W41008   9.232  38.844   4.369
75782W        W41009  26.226  13.386  14.844
75783W        W41010  36.672  28.173   5.070
75784W        W41011   3.358  18.797  12.976
75785W        W41012  19.749  44.206   0.967
75786W        W41013   2.213   9.338   2.720
75787W        W41014  29.612   6.054  11.962
75788W        W41015   6.306  38.139  12.910
75789W        W41016  29.037  13.132   3.642
75790W        W41017  41.823   4.762  14.666
75791W        W41018   6.155  43.504  11.668
75792W        W41019  37.849  20.266  11.080
75793W        W41020  24.702  34.326  14.839
75794W        W41021  35.119  34.433   5.146
75795W        W41022  23.180   3.154   0.367
75796W        W41023  37.630  22.706   0.407
75797W        W41024  43.422  32.653   4.611
75798W        W41025  42.032   6.290  13.573
75799W        W41026   3.267  12.822   4.202
75800W        W41027  37.358   3.240  14.466
75801W        W41028  44.978  27.778  12.502
75802W        W41029  28.441  18.727   2.432
75803W        W41030  33.113  11.900  13.939
75804W        W41031   8.194  22.576  12.443
75805W        W41032  44.862   9.705   1.684
75806W        W41033  17.178   6.754  14.728
75807W        W41034  28.162  38.274   2.620
75808W        W41035  26.923  41.071   3.603
75809W        W41036  34.891  22.725  11.167
75810W        W41037   5.300  21.291   3.642
75811W        W41038  41.328  28.640  13.326
75812W        W41039   8.623  11.144  14.826
75813W        W41040  35.201  20.616  11.104
75814W        W41041  24.613  10.087   4.091
75815W        W41042  33.000  17.313  12.388
75816W        W41043   5.241  33.251  14.468
75817W        W41044  11.827  36.128   3.152
75818W        W41045   5.712   0.143  13.106
75819W        W41046  11.686  43.608   4.618
75820W        W41047  22.725   1.695   1.865
75821W        W41048  22.693  26.662  11.193
75822W        W41049   3.789  36.317   2.390
75823W        W41050  26.895   8.786  14.064
75824W        W41051   5.415   6.960  10.552
75825W        W41052   1.021   4.421  11.572
75826W        W41053  31.624  32.544  11.064
75827W        W41054  18.941  15.540   1.949
75828W        W41055  27.452   0.350   3.441
75829W        W41056  44.137  22.795   1.896
75830W        W41057  40.875  20.357  13.949
75831W        W41058  28.869   8.187  12.269
75832W        W41059   5.211   2.750   3.137
75833W        W41060  24.050  21.636   4.821
75834W        W41061  40.012  33.123   4.297
75835W        W41062  30.224   3.797  11.177
75836W        W41063  42.237  20.954  13.141
75837W        W41064  30.879  31.641   5.288
75838W        W41065   6.352  36.794   3.829
75839W        W41066   6.382   7.915  13.334
75840W        W41067  44.067  41.371   1.812
75841W        W41068  12.249  12.405   4.209
75842W        W41069  18.885  18.477   4.060
75843W        W41070  23.749   4.169   1.325
75844W        W41071  34.144  24.162   1.359
75845W        W41072  26.196  43.062  11.240
75846W        W41073  29.881   0.820   2.647
75847W        W41074   5.864  38.400   1.056
75848W        W41075  39.243  26.967  10.674
75849W        W41076  12.390  29.565   4.422
75850W        W41077  24.127  31.248   1.198
75851W        W41078  24.596  10.407   1.436
75852W        W41079  12.100  10.616  11.615
75853W        W41080  31.778  14.737   2.394
75854W        W41081  13.461  26.743   3.149
75855W        W41082   3.911   6.783   4.697
75856W        W41083   7.751  11.143   2.368
75857W        W41084  13.801   8.668   4.262
75858W        W41085  25.254   5.914  14.962
75859W        W41086  12.809  41.081  13.974
75860W        W41087   3.214   2.406  13.077
75861W        W41088  32.856  19.755  11.668
75862W        W41089  11.975  13.275   3.259
75863W        W41090  25.260  43.330   0.376
75864W        W41091  27.043  12.352  13.112
75865W        W41092   4.666   7.366   0.838
75866W        W41093  11.787  37.806  12.436
75867W        W41094  33.383  38.590  13.866
75868W        W41095  19.551   7.892  11.243
75869W        W41096   6.092  43.503   9.767
75870W        W41097  27.574  40.387   3.046
75871W        W41098  14.387  22.266  13.889
75872W        W41099  14.134  41.701   1.370
75873W        W41100  27.174  10.268  11.969
75874W        W41101  32.026  40.881  12.190
75875W        W41102  13.112  11.208  10.670
75876W        W41103  44.330  41.322   4.621
75877W        W41104  33.993  16.225  11.747
75878W        W41105  17.049  18.593   3.914
75879W        W41106   0.853  41.743   3.750
75880W        W41107  44.654   0.829   3.715
75881W        W41108  32.031  24.217   0.827
75882W        W41109  20.166  23.885  11.135
75883W        W41110  15.733  33.922  12.514
75884W        W41111  15.782  30.442   4.595
75885W        W41112  17.127   4.689  11.639
75886W        W41113  31.485  42.449  12.080
75887W        W41114  20.284  38.452  12.194
75888W        W41115   5.786  18.360  12.737
75889W        W41116   8.132  29.500   1.668
75890W        W41117   7.473   0.686   3.570
75891W        W41118  27.725  27.075   4.072
75892W        W41119  31.053  20.734   0.237
75893W        W41120   6.821  30.001   1.946
75894W        W41121  24.424  32.256   0.528
75895W        W41122  25.165  32.488  12.914
75896W        W41123  43.378  41.884   1.741
75897W        W41124   9.072  42.905   0.403
75898W        W41125  43.734  42.765  13.459
75899W        W41126  25.326  12.134  12.502
75900W        W41127  17.199  39.353   2.678
75901W        W41128  36.586   5.703   2.762
75902W        W41129  37.854   3.450  12.980
75903W        W41130  18.695  40.001   2.357
75904W        W41131  28.866  20.370  14.256
75905W        W41132   1.797  23.429  11.093
75906W        W41133   0.042   2.926  11.862
75907W        W41134   9.721  10.623  13.936
75908W        W41135   4.653  28.105   1.728
75909W        W41136   6.424  18.129  11.606
75910W        W41137  44.015   4.272  13.577
75911W        W41138  25.505  22.961  14.496
75912W        W41139   3.835   6.037   1.850
75913W        W41140  39.351  33.009   2.104
75914W        W41141  38.656  25.012   3.655
75915W        W41142  18.219  11.659   2.150
75916W        W41143  17.219   9.980  11.486
75917W        W41144   1.956  26.174   2.712
75918W        W41145  22.168   6.365  14.897
75919W        W41146   3.311  20.727  12.714
75920W        W41147  28.757  13.843   4.684
75921W        W41148  22.567  23.352  10.745
75922W        W41149  35.473  16.309   2.376
75923W        W41150  14.444  22.569  13.467
75924W        W41151  18.124  37.031  10.698
75925W        W41152   4.932  39.419   4.314
75926W        W41153   4.267  23.018  13.850
75927W        W41154  44.097  35.520   4.099
75928W        W41155   7.787  19.722  10.979
75929W        W41156  32.088  21.971  12.433
75930W        W41157  25.771   5.942  12.531
75931W        W41158  23.850   2.970   4.206
75932W        W41159   1.789  40.956  11.136
75933W        W41160  32.663  37.411   2.621
75934W        W41161  37.846  26.991  13.821
75935W        W41162   7.851  27.340   3.710
75936W        W41163  15.902  16.843   0.907
75937W        W41164   4.733   6.453   2.866
75938W        W41165  25.273  43.134   4.545
75939W        W41166  22.489  19.728  14.849
75940W        W41167  22.979  11.170   2.386
75941W        W41168  12.876  13.410  13.473
75942W        W41169  28.197  12.828  13.141
75943W        W41170  32.092  10.600  10.831
75944W        W41171  29.927  16.726  10.515
75945W        W41172  12.269  18.052  12.509
75946W        W41173  43.307  40.950  12.511
75947W        W41174  15.595  28.862  13.917
75948W        W41175   5.376  27.140   0.326
75949W        W41176  23.057  43.589  14.290
75950W        W41177  15.530  12.140  14.905
75951W        W41178   4.290   6.253   3.122
75952W        W41179  14.297  29.658  11.092
75953W        W41180  31.705  35.172   4.092
75954W        W41181  23.652  35.506   1.186
75955W        W41182  28.722  39.340  14.933
75956W        W41183  10.801  13.812  14.955
75957W        W41184  30.924  27.116   1.485
75958W        W41185  21.597  20.201  14.849
75959W        W41186  23.604  42.545  10.690
75960W        W41187   0.333  11.405  13.291
75961W        W41188  24.210  38.156  12.960
75962W        W41189  40.348  21.057   3.573
75963W        W41190  37.346  35.081   3.782
75964W        W41191  23.624  11.114   3.223
75965W        W41192  37.550   9.957  13.598
75966W        W41193  12.126  22.068  12.610
75967W        W41194  31.308  31.691  14.830
75968W        W41195  28.106  11.821   0.411
75969W        W41196  20.677  33.484  14.542
75970W        W41197   4.686   8.206  11.162
75971W        W41198   8.758  32.546  14.031
75972W        W41199  40.322  35.431  13.840
75973W        W41200  11.644  27.643  10.661
75974W        W41201  23.278  37.536   3.649
75975W        W41202  42.314  38.515  13.424
75976W        W41203  31.090  37.122  13.524
75977W        W41204  25.750  43.931   4.210
75978W        W41205   4.627  25.231  14.778
75979W        W41206   3.396  11.298  14.122
75980W        W41207  19.633  40.608  14.083
75981W        W41208  22.526   7.822   4.507
75982W        W41209  29.653  12.269  13.465
75983W        W41210   9.864   1.451   0.226
75984W        W41211  22.947  32.352  12.095
75985W        W41212  42.399  35.629   0.433
75986W        W41213  38.317  28.570  14.938
75987W        W41214   6.333  37.316   3.921
75988W        W41215   2.524  22.738   0.885
75989W        W41216  15.507  13.887  12.385
75990W        W41217   1.229  27.191  11.157
75991W        W41218   5.444  25.957   1.678
75992W        W41219  42.109  24.887  10.240
75993W        W41220  36.981  34.455   0.410
75994W        W41221   9.628   4.718   1.843
75995W        W41222  18.959  30.597   3.599
75996W        W41223  33.932  37.940  12.001
75997W        W41224  22.044  12.423  12.436
75998W        W41225   6.447  11.555  12.415
75999W        W41226   9.680  41.322   3.181
76000W        W41227  10.844   3.360  14.962
76001W        W41228  44.337  37.059   3.594
76002W        W41229  44.237  38.922   4.443
76003W        W41230   4.217  13.751  14.489
76004W        W41231  19.222  12.143   3.683
76005W        W41232   9.204  27.025   3.933
76006W        W41233  29.833  35.242   0.752
76007W        W41234  27.690   9.209   1.264
76008W        W41235  40.753   8.964  12.856
76009W        W41236  18.977  17.220   0.863
76010W        W41237  44.323   8.169  12.009
76011W        W41238  23.419  10.301  12.063
76012W        W41239  19.041  32.996   1.699
76013W        W41240  10.811  37.526   2.326
76014W        W41241  11.631   7.925   4.337
76015W        W41242  28.024  36.664   3.072
76016W        W41243  14.807  30.719  12.928
76017W        W41244  12.102  23.079  11.532
76018W        W41245  15.355  21.259  11.135
76019W        W41246  39.776  14.994   3.831
76020W        W41247   1.804   1.719   3.861
76021W        W41248   2.794   3.268   2.271
76022W        W41249  24.780   4.855  12.155
76023W        W41250  29.068  30.784  11.733
76024W        W41251  30.509  35.007   4.207
76025W        W41252  32.617  10.622   3.526
76026W        W41253  20.660  35.292  14.941
76027W        W41254  16.519  40.048  11.663
76028W        W41255   3.924  22.456  13.220
76029W        W41256  15.382  11.562   2.274
76030W        W41257   2.139  20.512  11.870
76031W        W41258  30.833  12.541   2.701
76032W        W41259  24.928   5.127  11.283
76033W        W41260   0.324  37.290   1.784
76034W        W41261  22.200  41.254  13.388
76035W        W41262  20.698   8.192  12.805
76036W        W41263  10.818  22.146  12.881
76037W        W41264  39.037  18.207  14.389
76038W        W41265   0.906  30.142   4.140
76039W        W41266  32.609   4.747   0.778
76040W        W41267  24.714  12.528  12.056
76041W        W41268  41.458  44.389   2.891
76042W        W41269  17.623  27.871   2.790
76043W        W41270  34.957  26.565  10.967
76044W        W41271  18.069  38.287  14.435
76045W        W41272  16.170  10.056   1.359
76046W        W41273  13.137  21.527  14.024
76047W        W41274  35.853  36.322  11.451
76048W        W41275   2.224   1.459   4.088
76049W        W41276  38.081   9.778  11.543
76050W        W41277   6.379  35.516   4.577
76051W        W41278  44.399  38.911  11.043
76052W        W41279  20.077  25.967   4.838
76053W        W41280  24.390  43.884  11.181
76054W        W41281  29.717  27.103   0.919
76055W        W41282  39.147  25.919   4.650
76056W        W41283   0.976  11.747   0.915
76057W        W41284  44.897   9.037  12.110
76058W        W41285  43.163  39.991   3.562
76059W        W41286   7.893  29.498  10.388
76060W        W41287   3.719  12.254   3.117
76061W        W41288  29.014  35.919  11.186
76062W        W41289  19.041  34.566  14.061
76063W        W41290  20.561  10.099   2.579
76064W        W41291  31.230  13.755  14.090
76065W        W41292   0.271  42.494   4.214
76066W        W41293  28.030  32.849   3.618
76067W        W41294  39.721  24.641  10.664
76068W        W41295  32.622  34.957   1.420
76069W        W41296  13.095   3.980  14.891
76070W        W41297  42.282  26.737  11.158
76071W        W41298  36.823  25.164   3.610
76072W        W41299   2.888  36.338  14.429
76073W        W41300  43.556  15.589  13.532
76074W        W41301   8.881  23.315  12.446
76075W        W41302  26.498  41.992  11.591
76076W        W41303  24.684  10.649  12.091
76077W        W41304   9.140  41.499  12.661
76078W        W41305  39.607  37.732  14.409
76079W        W41306  12.744  13.048  11.347
76080W        W41307  37.440  22.758  12.377
76081W        W41308  19.665  11.433  12.809
76082W        W41309  34.539   9.931   3.231
76083W        W41310  37.687   1.943  13.363
76084W        W41311  31.228  37.938   1.045
76085W        W41312  44.098  44.819  13.758
76086W        W41313  20.776  34.447   2.794
76087W        W41314  38.374  31.131  14.284
76088W        W41315   3.937  43.221   3.180
76089W        W41316  22.949  10.096  13.472
76090W        W41317   8.190  34.452  14.877
76091W        W41318  30.771  24.521  13.466
76092W        W41319  25.503  38.971   1.181
76093W        W41320   3.273   7.781   4.311
76094W        W41321   7.848  40.735  14.004
76095W        W41322   5.113  15.385   3.573
76096W        W41323  19.241  13.293  14.374
76097W        W41324  44.872  27.433   0.979
76098W        W41325  36.670  22.349  11.246
76099W        W41326  24.528   9.390  14.884
76100W        W41327   8.737  41.275  12.404
76101W        W41328   8.237  37.954   0.424
76102W        W41329  21.676   5.206   3.094
76103W        W41330  15.740  17.782  10.732
76104W        W41331  33.811   5.347  11.475
76105W        W41332  37.713  12.657  12.853
76106W        W41333   8.952  13.303  10.752
76107W        W41334  23.148  44.934   4.905
76108W        W41335  42.105   9.657  12.541
76109W        W41336   5.343  16.307   1.557
76110W        W41337  39.282  38.155  10.853
76111W        W41338  20.663  18.286  13.340
76112W        W41339  30.790  11.590   9.724
76113W        W41340  38.841  35.144   0.297
76114W        W41341  19.267   6.582   0.020
76115W        W41342  25.588   6.552   2.761
76116W        W41343  11.386  38.223   2.163
76117W        W41344  40.448  28.205   3.345
76118W        W41345  11.744  24.024   4.791
76119W        W41346  36.961  20.059   0.304
76120W        W41347   6.423  43.999   1.516
76121W        W41348  12.778  13.818   4.498
76122W        W41349  44.619  10.716  14.795
76123W        W41350  37.406  40.499  12.096
76124W        W41351  41.494  12.090   3.692
76125W        W41352  34.812  28.138  10.046
76126W        W41353  43.140  29.995  14.571
76127W        W41354  16.389  28.703   1.832
76128W        W41355   2.737  33.446   2.393
76129W        W41356  42.507  17.048   4.047
76130W        W41357  27.066  38.953   0.711
76131W        W41358  11.749  11.674  11.251
76132W        W41359  13.578  28.891  12.591
76133W        W41360  27.141  43.276   0.489
76134W        W41361  28.520   6.277   0.730
76135W        W41362  36.997  23.049   2.505
76136W        W41363  32.017  12.611   1.002
76137W        W41364  21.243  39.459   0.864
76138W        W41365   8.749   4.257   2.670
76139W        W41366  29.560  41.702  12.765
76140W        W41367   2.536  23.585   3.917
76141W        W41368  20.390  28.091  13.984
76142W        W41369  42.265  32.383   1.735
76143W        W41370  30.169  25.457   2.713
76144W        W41371  22.488  40.866  10.697
76145W        W41372  31.906   0.469   0.861
76146W        W41373  40.893  11.081   1.981
76147W        W41374  36.001  19.290   1.556
76148W        W41375  10.658  10.155   4.377
76149W        W41376  33.311   2.389   1.391
76150W        W41377  41.354  38.620  13.855
76151W        W41378  28.138  38.908  12.363
76152W        W41379   9.944  32.297   0.988
76153W        W41380  26.934   7.357  12.404
76154W        W41381   2.270  10.752   3.639
76155W        W41382  25.149  31.800  14.340
76156W        W41383  36.811  18.603   1.038
76157W        W41384  26.602  19.517   0.840
76158W        W41385  19.164  11.530  11.181
76159W        W41386  13.255   8.686   4.538
76160W        W41387  35.031   9.141   0.341
76161W        W41388   5.057  13.267  14.459
76162W        W41389  12.560  11.206   2.423
76163W        W41390  41.378  38.641   0.762
76164W        W41391  25.269  36.060   3.180
76165W        W41392  15.044  25.390  12.872
76166W        W41393  38.815  43.015  12.441
76167W        W41394  21.582  15.184   3.260
76168W        W41395   4.445   5.857   3.942
76169W        W41396  38.833   9.409   4.514
76170W        W41397  27.245  22.343  11.087
76171W        W41398  40.429  43.046  13.832
76172W        W41399  18.497   1.926  13.563
76173W        W41400  35.872   4.969  12.619
76174W        W41401  27.954   6.991  14.766
76175W        W41402  36.507  28.990   4.124
76176W        W41403  17.132  20.786   3.713
76177W        W41404   8.999  22.067   3.214
76178W        W41405  25.384  35.415   3.218
76179W        W41406  42.368  21.172   2.201
76180W        W41407  44.158  25.365  12.011
76181W        W41408  34.943  33.148  13.546
76182W        W41409  26.198   7.876  12.121
76183W        W41410  28.669   9.337   3.293
76184W        W41411  15.046   6.300   0.363
76185W        W41412   8.770   5.262  14.829
76186W        W41413  39.987  27.708  13.260
76187W        W41414  40.987  23.139   2.756
76188W        W41415  13.715   7.802  12.099
76189W        W41416  24.144  18.290   4.783
76190W        W41417  14.081  33.836  11.937
76191W        W41418  34.394  10.924   0.161
76192W        W41419   3.796  18.497  11.423
76193W        W41420  31.207  16.505  12.619
76194W        W41421  10.289  24.655  10.803
76195W        W41422  18.701  26.974   1.266
76196W        W41423  10.940  29.903  10.647
76197W        W41424   6.477  17.979   2.175
76198W        W41425  36.914  10.916  10.744
76199W        W41426  31.373  44.970   2.192
76200W        W41427  10.226  36.216  10.163
76201W        W41428   8.106  27.673  10.724
76202W        W41429  17.203   6.511  12.948
76203W        W41430  36.657  33.925   2.111
76204W        W41431   7.234   6.575  12.983
76205W        W41432   8.464  27.111   2.728
76206W        W41433  36.370   3.153   4.309
76207W        W41434  17.564  22.019   3.193
76208W        W41435  29.958  19.351   1.363
76209W        W41436   2.617   3.204   0.446
76210W        W41437  31.450  26.032   0.158
76211W        W41438  37.952   3.425  13.521
76212W        W41439  23.313  33.156   0.806
76213W        W41440  44.546   0.812  14.400
76214W        W41441  41.589   8.046   4.453
76215W        W41442  10.886  21.120  12.087
76216W        W41443   4.355  15.156  12.955
76217W        W41444  18.906  14.156   1.204
76218W        W41445   4.200   3.072  14.028
76219W        W41446  10.241  37.926   2.436
76220W        W41447  42.708  33.415  13.925
76221W        W41448  36.818  11.837  13.352
76222W        W41449  26.454   0.784  13.791
76223W        W41450  21.241  39.040   2.331
76224W        W41451  43.310  37.240   1.958
76225W        W41452  23.528  31.245  11.534
76226W        W41453  33.675  26.921  14.831
76227W        W41454  18.533   2.991   3.153
76228W        W41455  18.148  36.478  10.910
76229W        W41456  33.366  37.625   0.008
76230W        W41457  11.136  37.357   1.245
76231W        W41458  12.021  37.966  14.098
76232W        W41459  35.101  14.337   1.927
76233W        W41460   8.348   5.296  13.444
76234W        W41461  31.266  32.549   2.842
76235W        W41462  42.978   6.963  11.491
76236W        W41463   1.817   5.068   3.922
76237W        W41464   1.943  12.474   3.400
76238W        W41465  27.161  22.227   3.080
76239W        W41466  36.946  18.019   2.708
76240W        W41467  37.137  33.104  12.209
76241W        W41468   3.556  11.724  13.877
76242W        W41469   0.472  31.606  13.743
76243W        W41470  33.911  16.111   2.362
76244W        W41471  21.656   8.027   0.240
76245W        W41472  33.536  30.128  10.991
76246W        W41473  30.126  35.141   1.355
76247W        W41474   8.320   6.851   3.749
76248W        W41475  11.778  42.566   4.602
76249W        W41476  43.908  16.472   2.220
76250W        W41477  22.052  29.129   0.681
76251W        W41478  20.455  44.951  13.463
76252W        W41479  14.319  10.829   1.585
76253W        W41480  42.695  15.143  12.488
76254W        W41481  25.224  26.170  13.384
76255W        W41482  20.574  44.440  12.157
76256W        W41483  14.170  10.591  13.015
76257W        W41484  20.936  43.244  14.489
76258W        W41485  32.418  14.294   0.519
76259W        W41486  29.590  37.847   2.199
76260W        W41487  25.183  27.662  12.969
76261W        W41488  34.641  32.008   2.732
76262W        W41489  30.311  39.909   3.877
76263W        W41490  20.150  42.071  10.783
76264W        W41491  31.339  25.026   2.767
76265W        W41492  28.022   1.037  11.656
76266W        W41493  20.110  23.459  14.304
76267W        W41494   2.980   3.240  12.891
76268W        W41495  24.006   4.515  14.199
76269W        W41496  32.143   6.879   4.291
76270W        W41497  32.606  26.413  14.379
76271W        W41498  43.909  26.462   1.127
76272W        W41499   8.491   7.422   4.248
76273W        W41500   1.295  25.985   4.949
76274W        W41501  24.918  14.731  14.385
76275W        W41502  21.824  43.709   0.237
76276W        W41503  17.195  12.918  12.665
76277W        W41504  38.549   4.340   5.021
76278W        W41505  25.215  41.360  14.542
76279W        W41506  36.059   6.332  13.636
76280W        W41507  17.055   9.301   0.647
76281W        W41508  43.712  31.086   4.518
76282W        W41509  36.277  21.557  11.373
76283W        W41510  40.768  40.902  13.339
76284W        W41511  24.035  22.942   1.378
76285W        W41512  39.275  30.767   0.729
76286W        W41513  36.754  33.834  13.544
76287W        W41514   7.342  11.156  11.455
76288W        W41515   1.243  22.239  14.318
76289W        W41516  18.894  33.395   1.409
76290W        W41517  42.580  31.891  10.285
76291W        W41518   1.409  30.109  13.249
76292W        W41519   8.283  26.430  14.005
76293W        W41520   6.993  24.415  10.968
76294W        W41521  11.077  22.919  13.541
76295W        W41522   1.475  10.821   0.535
76296W        W41523  34.692  30.688   4.600
76297W        W41524  15.674  22.762   1.390
76298W        W41525   6.678  41.855   4.589
76299W        W41526  25.064  15.232  14.326
76300W        W41527  21.028   0.033  11.058
76301W        W41528  44.961  22.701   1.715
76302W        W41529  35.399  20.687  14.003
76303W        W41530  35.105  31.348  14.508
76304W        W41531  33.519  41.509  11.612
76305W        W41532   6.479  17.560  14.799
76306W        W41533  22.310  36.599   3.704
76307W        W41534  35.639  40.944  11.119
76308W        W41535   4.151  39.865   2.692
76309W        W41536  39.434  38.018  11.854
76310W        W41537  11.332  43.310  13.446
76311W        W41538  33.639  28.442   1.340
76312W        W41539  12.732  29.362   1.926
76313W        W41540  30.025  18.331   1.423
76314W        W41541  26.473  43.066   1.719
76315W        W41542   6.309   6.928   3.428
76316W        W41543  20.507  17.675   4.948
76317W        W41544  31.082  17.582  11.219
76318W        W41545  42.855  24.086  12.215
76319W        W41546   1.823  35.604  11.410
76320W        W41547  44.479  31.437   4.913
76321W        W41548  27.876  12.713  12.424
76322W        W41549  22.073  24.723   2.155
76323W        W41550   7.800   5.238   0.826
76324W        W41551   9.903  11.892   2.753
76325W        W41552  37.965  43.068  12.373
76326W        W41553  13.228   2.546   0.892
76327W        W41554  42.495  14.268   0.854
76328W        W41555   1.884  27.542   2.267
76329W        W41556  43.752  36.070   0.311
76330W        W41557  33.034  27.031   3.184
76331W        W41558   9.908  23.009   4.271
76332W        W41559   8.332  43.355   0.500
76333W        W41560   0.270  37.467   4.197
76334W        W41561  29.007  14.582   0.374
76335W        W41562   0.257   8.685  14.327
76336W        W41563  33.170   2.882   4.886
76337W        W41564  36.080  24.782  12.817
76338W        W41565  35.088  28.047  12.510
76339W        W41566  39.957  40.958  13.798
76340W        W41567  25.860  44.163  13.107
76341W        W41568  27.173  13.677  13.021
76342W        W41569   2.153   2.473   4.511
76343W        W41570  17.837  19.090   1.854
76344W        W41571  24.764  21.924  12.317
76345W        W41572  13.210   4.332   2.903
76346W        W41573  20.325   2.334   3.130
76347W        W41574   5.355  25.111   4.221
76348W        W41575  24.653   8.918  11.546
76349W        W41576  37.358  43.223  12.551
76350W        W41577  40.067  32.127  14.301
76351W        W41578   2.780   3.943  12.562
76352W        W41579  19.706  17.894  12.553
76353W        W41580  43.020  13.330   0.217
76354W        W41581   3.162  37.911  11.136
76355W        W41582  35.569  18.117   2.358
76356W        W41583   2.917  37.498  12.076
76357W        W41584   5.747  23.624  14.512
76358W        W41585  38.023  17.008   3.650
76359W        W41586  34.207  34.524   3.617
76360W        W41587  41.718  14.829  10.653
76361W        W41588  34.432  35.988   1.850
76362W        W41589  41.234  33.313   0.293
76363W        W41590   8.320  30.279  11.498
76364W        W41591  32.057  14.261   9.722
76365W        W41592   6.396  19.327   0.042
76366W        W41593  22.166  10.147  12.511
76367W        W41594  13.112  11.352   4.506
76368W        W41595  21.963  22.986   0.615
76369W        W41596  33.367  25.672   2.185
76370W        W41597   6.701   3.395   2.667
76371W        W41598  32.836  38.573   4.158
76372W        W41599   5.613  10.155  10.185
76373W        W41600  37.586  43.854   4.064
76374W        W41601  20.891  24.209  10.704
76375W        W41602   2.285  11.031   4.159
76376W        W41603  14.224  13.876  14.365
76377W        W41604  36.351  42.515  13.928
76378W        W41605  41.856  23.206   0.773
76379W        W41606  43.262  17.117  11.527
76380W        W41607  13.716  21.205   3.212
76381W        W41608  21.080   3.653  12.973
76382W        W41609  21.055  22.113  11.588
76383W        W41610   5.294  38.869  11.407
76384W        W41611  23.079  44.015  13.886
76385W        W41612  32.884  27.439  14.456
76386W        W41613   7.778   3.450   2.143
76387W        W41614  24.627  35.352  13.871
76388W        W41615   7.636   9.533   4.004
76389W        W41616  11.854  25.390   3.180
76390W        W41617   2.834  14.214  12.913
76391W        W41618  22.106   9.860   3.104
76392W        W41619  35.198  28.466  11.951
76393W        W41620   0.787  22.205  12.447
76394W        W41621  43.148   7.766   4.244
76395W        W41622   7.091  24.164   4.965
76396W        W41623  23.896  34.659   4.937
76397W        W41624  44.276  39.444  14.270
76398W        W41625  29.012  42.854   4.461
76399W        W41626  17.584  31.527  14.484
76400W        W41627  17.514   5.977   4.780
76401W        W41628  16.984  21.534   0.743
76402W        W41629  29.130  30.099   4.045
76403W        W41630   5.216  34.356  10.978
76404W        W41631  19.086  23.816  11.301
76405W        W41632  36.424   3.982   4.432
76406W        W41633  23.902  25.407   4.349
76407W        W41634  13.416  24.198   1.990
76408W        W41635   8.000  29.222   3.098
76409W        W41636   9.064  44.482  11.985
76410W        W41637   6.606  36.800  14.662
76411W        W41638  17.648  30.213   2.197
76412W        W41639  25.500  31.016   1.387
76413W        W41640  26.981  39.854   2.788
76414W        W41641  28.979   3.503   4.195
76415W        W41642  37.482  29.558  12.025
76416W        W41643  15.266   3.798   0.833
76417W        W41644   8.307  43.023  12.060
76418W        W41645  12.350  44.907   4.008
76419W        W41646  33.705   2.668  13.817
76420W        W41647  26.241   2.499   1.868
76421W        W41648  23.120  29.531  10.424
76422W        W41649   9.483  28.196   0.956
76423W        W41650  11.209  44.381   4.760
76424W        W41651  42.008  43.854  11.898
76425W        W41652  23.220  30.713   0.099
76426W        W41653  15.789  25.169  11.551
76427W        W41654  10.761  21.716   4.545
76428W        W41655  17.382   6.378  10.353
76429W        W41656  36.043  20.480  14.011
76430W        W41657  28.733  22.059  14.935
76431W        W41658  43.821  27.569  10.614
76432W        W41659  10.421  39.568   3.166
76433W        W41660  31.205  10.161  14.031
76434W        W41661  30.931  36.603   0.760
76435W        W41662  34.433   5.573   3.146
76436W        W41663  34.779  44.965   3.821
76437W        W41664  12.883  39.630  14.461
76438W        W41665  35.620  17.146  13.767
76439W        W41666  14.607  11.597  12.123
76440W        W41667  40.527   4.321  12.880
76441W        W41668  21.162   2.503   4.432
76442W        W41669  32.230  21.726   3.259
76443W        W41670  11.882  35.220   1.756
76444W        W41671  39.142  21.580   4.177
76445W        W41672   3.540  12.748   3.181
76446W        W41673  12.689  18.091  13.856
76447W        W41674  14.762  39.029  10.813
76448W        W41675  20.136  18.857   2.652
76449W        W41676  31.883  27.508   2.242
76450W        W41677  11.664   2.386   0.423
76451W        W41678  40.791   9.290   3.442
76452W        W41679  25.271  40.600   0.995
76453W        W41680  14.774  18.804   3.194
76454W        W41681  11.846  37.636  12.953
76455W        W41682   8.194   6.331  12.729
76456W        W41683  31.339  18.750   4.177
76457W        W41684   2.361  15.519   4.732
76458W        W41685   2.349   9.794  14.306
76459W        W41686  13.913  16.740   1.822
76460W        W41687  10.410  12.643   0.879
76461W        W41688  32.114   7.481  12.058
76462W        W41689  43.640   2.881  14.802
76463W        W41690  42.036  38.139   0.875
76464W        W41691  40.357  28.650  13.316
76465W        W41692  33.690  25.073  12.830
76466W        W41693  42.253   0.862  13.914
76467W        W41694   9.947  10.649  11.171
76468W        W41695  41.403   0.745  14.387
76469W        W41696  33.450  41.547   3.040
76470W        W41697  26.908  43.972  11.133
76471W        W41698  34.297  32.091   4.596
76472W        W41699  39.568  20.600   3.314
76473W        W41700   2.493  33.465  10.706
76474W        W41701  43.820  36.492  12.922
76475W        W41702  37.874   3.867  12.474
76476W        W41703  26.115  35.908   0.667
76477W        W41704  31.095   9.272   2.034
76478W        W41705  13.026   8.690  10.433
76479W        W41706  27.066  15.162  13.272
76480W        W41707   2.021  29.568  12.181
76481W        W41708  18.447  10.126   1.771
76482W        W41709   4.688  30.847   5.190
76483W        W41710  24.597   5.763   4.084
76484W        W41711  40.930  15.554   4.044
76485W        W41712  13.309  11.218  12.980
76486W        W41713  26.581  24.286  11.590
76487W        W41714  19.486  31.430   2.298
76488W        W41715  38.977  36.697  12.949
76489W        W41716  18.589  19.691   3.578
76490W        W41717  40.909  38.087  14.601
76491W        W41718  24.436  22.367   1.752
76492W        W41719  19.049  36.456  10.948
76493W        W41720   8.514  33.122  11.011
76494W        W41721  24.696  18.638  13.309
76495W        W41722  36.305  42.452  11.339
76496W        W41723  31.529  17.315   1.741
76497W        W41724  29.492  36.813   0.996
76498W        W41725  10.544   3.900   3.630
76499W        W41726  23.382  44.682   3.608
76500W        W41727  13.069  12.604  12.014
76501W        W41728  30.158  10.803  11.600
76502W        W41729  35.988  28.612   2.926
76503W        W41730  20.591  24.478   2.182
76504W        W41731   5.841  42.164  12.326
76505W        W41732   1.766  30.595   0.427
76506W        W41733  25.148  32.234   0.234
76507W        W41734  21.167   8.592  12.010
76508W        W41735  11.267  30.023   2.879
76509W        W41736  30.891  12.656   0.618
76510W        W41737  39.437  42.964   3.150
76511W        W41738  13.770  44.963   3.754
76512W        W41739  31.042   6.125   0.509
76513W        W41740  15.969  36.973   5.109
76514W        W41741  35.071   9.320   3.636
76515W        W41742  24.720  17.531   2.226
76516W        W41743  10.857  41.377   1.727
76517W        W41744  12.111   6.839   1.497
76518W        W41745  40.292   2.875  14.394
76519W        W41746   6.234  16.011   0.429
76520W        W41747  25.916  14.020   9.956
76521W        W41748  27.625  38.306   5.139
76522W        W41749  29.619   5.862   1.659
76523W        W41750  24.285  17.915  13.812
76524W        W41751  36.878  19.068   0.421
76525W        W41752  29.960  27.728  14.330
76526W        W41753  29.591  43.869   4.958
76527W        W41754   1.218   1.856  12.507
76528W        W41755  21.035  31.873  12.824
76529W        W41756  39.439  38.074  12.725
76530W        W41757  29.487   1.837  11.505
76531W        W41758  10.677  23.227  13.112
76532W        W41759  21.999  44.955  11.144
76533W        W41760   9.914  41.151  10.038
76534W        W41761  32.328  26.197  13.537
76535W        W41762  44.565   2.632  11.094
76536W        W41763  31.423  40.362   4.229
76537W        W41764   9.420  19.382   2.159
76538W        W41765  33.340   4.285  13.069
76539W        W41766   8.595  30.765   4.150
76540W        W41767  21.616   3.231  12.521
76541W        W41768  33.978   6.873   0.239
76542W        W41769   6.938  14.510   3.478
76543W        W41770  27.252  17.610  11.118
76544W        W41771  35.273  44.961   2.924
76545W        W41772  26.957  32.957   0.872
76546W        W41773  14.619  22.019  10.740
76547W        W41774  40.329  29.217   4.122
76548W        W41775  26.095  34.168   3.805
76549W        W41776   7.794   8.556   3.250
76550W        W41777  32.785  40.296  12.799
76551W        W41778  12.984  32.846   1.436
76552W        W41779  19.598  43.097   4.563
76553W        W41780  17.609  36.030  12.931
76554W        W41781  26.459  44.822  13.155
76555W        W41782   6.869  33.530  12.757
76556W        W41783   3.728  21.065   0.552
76557W        W41784   9.681  20.013  14.983
76558W        W41785   8.597   7.712  12.045
76559W        W41786  15.008  26.913  14.460
76560W        W41787   9.706   2.896  12.107
76561W        W41788  41.782  37.721  11.098
76562W        W41789  22.322   2.005  12.347
76563W        W41790  16.701  17.677   0.232
76564W        W41791  28.645  27.598   3.927
76565W        W41792  42.585  21.718   0.945
76566W        W41793  40.860  39.935   3.952
76567W        W41794  36.634  21.588   0.745
76568W        W41795  22.229  20.481  11.293
76569W        W41796   4.823  21.510  12.037
76570W        W41797  24.188  35.593   1.209
76571W        W41798  12.283  44.976  13.124
76572W        W41799  43.102  14.708   3.555
76573W        W41800  16.738  34.535  13.960
76574W        W41801  41.951  26.644  10.764
76575W        W41802  24.687  30.673   0.855
76576W        W41803  23.547  30.421   3.039
76577W        W41804  43.714  30.509   2.234
76578W        W41805  27.253  24.453  14.840
76579W        W41806  18.824   8.450   4.449
76580W        W41807  20.941  17.041   0.820
76581W        W41808  19.971  22.951   4.644
76582W        W41809   2.145  10.853  11.105
76583W        W41810  18.277  35.425  12.198
76584W        W41811  26.602  43.124   2.712
76585W        W41812  32.551  28.668   0.922
76586W        W41813   3.395  31.056  10.515
76587W        W41814  44.231  21.315   4.511
76588W        W41815  28.619  33.915  14.983
76589W        W41816  14.626  44.822  11.952
76590W        W41817   3.960  14.224  11.717
76591W        W41818   9.649  17.186  11.610
76592W        W41819  39.987  19.159  14.195
76593W        W41820  37.429  24.480   4.097
76594W        W41821  39.955   5.984   1.893
76595W        W41822  30.547  33.505  12.490
76596W        W41823   0.241  23.708   3.845
76597W        W41824  32.032  24.286   3.737
76598W        W41825  31.195  35.720   9.964
76599W        W41826  33.124   9.957  13.839
76600W        W41827  11.285  18.462  10.802
76601W        W41828  33.261  23.031  11.445
76602W        W41829  10.080  37.991  14.400
76603W        W41830  16.633  21.639   4.131
76604W        W41831   2.419  41.985   9.363
76605W        W41832  18.090  21.971  12.462
76606W        W41833  38.056  28.515  10.476
76607W        W41834  43.042  19.153  12.130
76608W        W41835  12.335  17.592   4.177
76609W        W41836   5.742  34.658   4.079
76610W        W41837   2.327   1.908  13.119
76611W        W41838  20.128  39.547   0.004
76612W        W41839  32.700  22.062  12.026
76613W        W41840  37.319  33.105   1.298
76614W        W41841  15.814   8.253  13.354
76615W        W41842  32.389  32.463  13.888
76616W        W41843  13.757   0.560  12.018
76617W        W41844   1.596  17.978  14.466
76618W        W41845  16.110  20.494  14.968
76619W        W41846  17.663  15.185  12.701
76620W        W41847  31.549  20.275   2.578
76621W        W41848  39.303   8.778   3.689
76622W        W41849  22.857  37.329  12.463
76623W        W41850  42.338  34.463   1.963
76624W        W41851   6.890  23.501  13.554
76625W        W41852  14.317  37.611   1.672
76626W        W41853  21.285  10.280  12.819
76627W        W41854  20.110  21.329   4.092
76628W        W41855  34.406  13.979  14.772
76629W        W41856   3.028   8.919   9.934
76630W        W41857  21.723  15.549   4.220
76631W        W41858   4.601  41.155  12.013
76632W        W41859   1.866  22.707  14.535
76633W        W41860  16.476  25.992  13.038
76634W        W41861  43.282  25.006  14.415
76635W        W41862  29.146  15.110  12.295
76636W        W41863  16.698  16.162   3.029
76637W        W41864  12.935  40.607   3.593
76638W        W41865  42.786  43.931  11.495
76639W        W41866  17.798  33.381  14.222
76640W        W41867  29.968   7.459   4.849
76641W        W41868  43.576  17.721  12.079
76642W        W41869  23.263  36.081   2.255
76643W        W41870  15.727  20.837  13.043
76644W        W41871  40.522  41.498   2.826
76645W        W41872  32.937  40.465  11.059
76646W        W41873  23.351  11.110   2.768
76647W        W41874  27.966  21.268  13.523
76648W        W41875   5.232  44.124  10.173
76649W        W41876  37.538   2.214   3.378
76650W        W41877   7.286  11.591  13.937
76651W        W41878  16.183  11.783  12.872
76652W        W41879  40.927   1.501  13.715
76653W        W41880  17.386  14.067   2.176
76654W        W41881  15.748  31.592  11.996
76655W        W41882   1.004  32.794   1.354
76656W        W41883  25.973  12.106   0.300
76657W        W41884  14.095  14.630  12.105
76658W        W41885  41.031  31.047  13.309
76659W        W41886  26.523  22.805   4.628
76660W        W41887  19.747  21.110   4.689
76661W        W41888   8.941   7.644   2.102
76662W        W41889  12.303  32.744   0.347
76663W        W41890  16.552  41.888  11.554
76664W        W41891  42.365  43.455   0.943
76665W        W41892  37.110  11.974   0.699
76666W        W41893  13.866  12.879   4.090
76667W        W41894  38.855  15.678   0.391
76668W        W41895  27.044  24.880   0.958
76669W        W41896  31.531  12.849   0.019
76670W        W41897  43.881  35.056  11.231
76671W        W41898   9.172  20.632   4.895
76672W        W41899   1.265   4.994  10.816
76673W        W41900  35.608  17.088  13.271
76674W        W41901  30.430  41.536  10.330
76675W        W41902  39.972   6.296   1.466
76676W        W41903  13.753  20.807  13.805
76677W        W41904  11.850  33.647   3.703
76678W        W41905  44.687  11.147   3.269
76679W        W41906  37.840  34.365  11.965
76680W        W41907   6.345  36.322   1.683
76681W        W41908  27.974  29.267   2.083
76682W        W41909  36.095  42.012  11.201
76683W        W41910   8.097  43.806   0.333
76684W        W41911  27.466  36.422  14.290
76685W        W41912  28.484   4.865   2.352
76686W        W41913  19.642  25.670   3.869
76687W        W41914  31.879   6.216   3.715
76688W        W41915   3.963  20.145   2.368
76689W        W41916  32.855  14.127  12.509
76690W        W41917  43.953  14.642  12.563
76691W        W41918  20.468  37.327   0.889
76692W        W41919   5.902  33.554  12.651
76693W        W41920  14.836  35.458  12.809
76694W        W41921  18.058  10.113  12.889
76695W        W41922  18.171  44.222  12.967
76696W        W41923  18.506   5.722  13.777
76697W        W41924  22.511   3.413  12.687
76698W        W41925   8.647  42.397   3.821
76699W        W41926  42.268  21.507  14.439
76700W        W41927  19.583  29.191   1.766
76701W        W41928  24.289  42.023  10.294
76702W        W41929   3.327  42.446  12.862
76703W        W41930  32.693   5.315  14.930
76704W        W41931   5.233  30.212   2.700
76705W        W41932  43.347   0.208  11.303
76706W        W41933  40.373  30.591   1.293
76707W        W41934  14.748  27.122  12.744
76708W        W41935  28.567  41.724   4.473
76709W        W41936  10.240   0.538  10.777
76710W        W41937  43.427  31.563   1.777
76711W        W41938  10.283   9.378   3.209
76712W        W41939   4.492  25.048  13.419
76713W        W41940  15.683  25.723   3.247
76714W        W41941   1.391  41.387   4.353
76715W        W41942  40.238  26.717  14.577
76716W        W41943  17.208   2.218  14.543
76717W        W41944  23.497  40.360  11.666
76718W        W41945  35.933  40.936   1.394
76719W        W41946  12.757   7.957  13.991
76720W        W41947  29.109  35.622  13.485
76721W        W41948  29.921  36.104   2.907
76722W        W41949  16.607   1.151   1.616
76723W        W41950  36.875  30.141  11.453
76724W        W41951   8.402  22.142   4.774
76725W        W41952  20.547   0.921  13.912
76726W        W41953  26.994  14.723  12.966
76727W        W41954  37.143  22.295  14.501
76728W        W41955  18.783  22.053  10.786
76729W        W41956  34.503  31.687  10.598
76730W        W41957  38.000  44.889  12.822
76731W        W41958  43.320  34.340  14.351
76732W        W41959  10.867  14.103   1.334
76733W        W41960  27.228   2.840  14.922
76734W        W41961  39.113   5.305  13.870
76735W        W41962   2.599  24.662  12.895
76736W        W41963  31.076  43.632   1.871
76737W        W41964  16.248   4.269   3.205
76738W        W41965  13.697  40.304   1.898
76739W        W41966  21.614  40.299  14.268
76740W        W41967  11.825  14.636  12.660
76741W        W41968  22.205   6.261   3.140
76742W        W41969   3.389  42.014   1.757
76743W        W41970  27.608   2.487   2.638
76744W        W41971  21.235  12.832  13.803
76745W        W41972  33.456  10.203   2.939
76746W        W41973  14.270  40.785   1.313
76747W        W41974   6.750   6.099   3.161
76748W        W41975  22.498  28.621  10.818
76749W        W41976  34.445  29.304   4.005
76750W        W41977  40.011  43.070  10.677
76751W        W41978  25.981  44.537   2.650
76752W        W41979  11.107  11.614  12.944
76753W        W41980  16.794  16.619  12.609
76754W        W41981  34.593  27.130   1.829
76755W        W41982  25.012  44.206   0.387
76756W        W41983  14.821  42.297  12.904
76757W        W41984  27.525  16.269  13.074
76758W        W41985  37.934  30.394   4.106
76759W        W41986  44.965  18.135   1.911
76760W        W41987  17.841  32.500  14.424
76761W        W41988  25.623  16.591  14.498
76762W        W41989  38.522  11.501   2.780
76763W        W41990  43.684   3.811   2.656
76764W        W41991  39.006  18.613   2.422
76765W        W41992  44.951   3.905  13.571
76766W        W41993   3.326  22.180   4.128
76767W        W41994  15.041  11.771   3.521
76768W        W41995   2.373  40.980   0.773
76769W        W41996  14.279  36.024  12.995
76770W        W41997  37.812  20.061   0.073
76771W        W41998  42.759  17.295  13.974
76772W        W41999  30.393   0.816   2.601
76773W        W42000  42.999  43.507   1.781
76774W        W42001  16.145  34.133   4.768
76775W        W42002   3.106  31.479  10.472
76776W        W42003  35.055  18.045   3.534
76777W        W42004  12.060  37.253   3.815
76778W        W42005   3.386  22.343  10.548
76779W        W42006  37.582  29.508   1.392
76780W        W42007   3.850  17.226  12.090
76781W        W42008   8.363  43.272  11.587
76782W        W42009  20.701  32.869   1.210
76783W        W42010  36.484  42.826   9.507
76784W        W42011  17.773  35.244  14.615
76785W        W42012  25.618   2.274  13.541
76786W        W42013  27.999  10.375   2.700
76787W        W42014  23.279   8.398  14.783
76788W        W42015  19.264  32.880   4.129
76789W        W42016  15.887   1.849  14.434
76790W        W42017  29.768  26.429   2.908
76791W        W42018  44.704  30.497   0.331
76792W        W42019   1.212  31.052  12.378
76793W        W42020  15.138  32.438   5.514
76794W        W42021  27.569  27.751   3.756
76795W        W42022   6.723   5.835  12.466
76796W        W42023  15.796  10.886  14.681
76797W        W42024  40.032  29.972   2.294
76798W        W42025  35.469  30.070   1.125
76799W        W42026  44.288  26.340   1.480
76800W        W42027  35.798   7.389  13.987
76801W        W42028  12.838  29.097   2.734
76802W        W42029  27.911  28.221   2.294
76803W        W42030  19.604  27.627   3.785
76804W        W42031  10.727  32.961   2.673
76805W        W42032  39.769  36.429  10.740
76806W        W42033   2.200  18.972  13.851
76807W        W42034  26.702  16.761   9.918
76808W        W42035  11.851  20.627   3.403
76809W        W42036  33.531  32.636   2.449
76810W        W42037  29.015   8.426   1.886
76811W        W42038   7.330  42.525   2.084
76812W        W42039  28.683   7.689  11.454
76813W        W42040   0.897  31.979   2.459
76814W        W42041  32.955  20.486   1.515
76815W        W42042   5.115   3.188  14.288
76816W        W42043   2.523  23.920  11.064
76817W        W42044  26.269  24.542   0.349
76818W        W42045  17.304  18.367   3.289
76819W        W42046   3.883  43.747  11.335
76820W        W42047  23.744   4.467  11.231
76821W        W42048  18.288  19.648  14.495
76822W        W42049  41.377  16.594  12.559
76823W        W42050  23.049  27.221  13.389
76824W        W42051  31.351  19.507   1.295
76825W        W42052  31.759  31.528  11.948
76826W        W42053  26.305  42.719   4.485
76827W        W42054   5.731  23.677  10.621
76828W        W42055  12.624   8.436  14.077
76829W        W42056  44.193   3.692   1.395
76830W        W42057  20.728  13.925   1.482
76831W        W42058  26.559   8.304  12.939
76832W        W42059  33.006  41.372   1.621
76833W        W42060  17.617  14.097   2.641
76834W        W42061  32.275  19.458  10.312
76835W        W42062   4.798  24.182   4.922
76836W        W42063  27.625  19.629  10.731
76837W        W42064  31.260  32.382  13.761
76838W        W42065  33.327  30.903  11.346
76839W        W42066  19.962  17.105   0.771
76840W        W42067  10.551  34.513   3.978
76841W        W42068  21.044  13.543   0.660
76842W        W42069  40.823   1.462   0.463
76843W        W42070   2.220  14.293   4.054
76844W        W42071  13.220   6.800   1.225
76845W        W42072  39.494  42.533  12.866
76846W        W42073  15.805  43.908   4.981
76847W        W42074  11.761  38.488  13.090
76848W        W42075  19.826   0.457   1.975
76849W        W42076  13.680   7.432   1.751
76850W        W42077  38.580  24.220  13.840
76851W        W42078   3.161  22.468   4.941
76852W        W42079  28.068  27.433   2.049
76853W        W42080  18.219  18.226  10.529
76854W        W42081  13.813  20.219   4.649
76855W        W42082  34.406  31.006   1.229
76856W        W42083  29.075  43.642  14.657
76857W        W42084   3.024  36.457   4.649
76858W        W42085  17.153  28.107   2.708
76859W        W42086  29.044  44.664   2.130
76860W        W42087  14.847  38.002   3.205
76861W        W42088   5.109  15.095   0.781
76862W        W42089  28.357  16.801  11.872
76863W        W42090  32.154   6.916   0.929
76864W        W42091  29.666  26.020  11.606
76865W        W42092   7.676  27.176   2.173
76866W        W42093  43.445   2.086  10.280
76867W        W42094   8.111   0.306  10.821
76868W        W42095  39.800  24.282   1.936
76869W        W42096  27.014  37.467   1.301
76870W        W42097  41.578   9.171   1.073
76871W        W42098  10.700  33.627  10.770
76872W        W42099  18.562  20.647  10.668
76873W        W42100   2.335   3.914   1.209
76874W        W42101  35.774  33.909  13.985
76875W        W42102  11.224  24.115  14.362
76876W        W42103  37.960  18.206  11.623
76877W        W42104  15.497  13.360   1.992
76878W        W42105  34.090  22.021  12.136
76879W        W42106  44.759  22.486  12.750
76880W        W42107   2.895  23.998  11.424
76881W        W42108  25.159  36.565  14.845
76882W        W42109  27.998   5.208  11.089
76883W        W42110  22.004  29.022  11.586
76884W        W42111  29.967   3.332   3.953
76885W        W42112  30.847  11.855  10.151
76886W        W42113   5.097  35.545  14.780
76887W        W42114   0.225  33.395   4.150
76888W        W42115  41.787  23.692  14.784
76889W        W42116  15.690  31.837  10.256
76890W        W42117  24.009  10.737  10.736
76891W        W42118   6.927   1.375  11.090
76892W        W42119  19.756  14.673   1.893
76893W        W42120  32.058   9.859  12.478
76894W        W42121  44.453  21.784   4.529
76895W        W42122  32.968  27.386  12.052
76896W        W42123  38.064  39.681   2.890
76897W        W42124  26.639  27.501  10.824
76898W        W42125  14.215   4.689   4.022
76899W        W42126  12.952  14.851   4.145
76900W        W42127  20.276  39.884   2.161
76901W        W42128  12.744  21.942   2.981
76902W        W42129  35.398  19.120  12.733
76903W        W42130   4.394  30.100   4.501
76904W        W42131  29.655  14.997   0.827
76905W        W42132  29.187   0.033   1.406
76906W        W42133  20.061  19.776  14.029
76907W        W42134  19.163  42.285  10.563
76908W        W42135  16.768  41.297   0.307
76909W        W42136   7.687   9.004  11.591
76910W        W42137  20.538  40.921  13.800
76911W        W42138  26.082  40.346   2.803
76912W        W42139  17.734  24.646   2.717
76913W        W42140  15.898  35.014   4.235
76914W        W42141  20.659  32.883  11.592
76915W        W42142  14.808  33.867   1.833
76916W        W42143   8.583   4.766  14.857
76917W        W42144  19.793  42.059  11.640
76918W        W42145   7.665  29.149  12.309
76919W        W42146  31.377  15.343  14.861
76920W        W42147  40.339   0.775   3.096
76921W        W42148   3.056  40.512   0.460
76922W        W42149  20.573   9.241  13.561
76923W        W42150  34.203   7.877   0.473
76924W        W42151  13.853  22.862   3.087
76925W        W42152   6.691   4.324   1.940
76926W        W42153  24.976   4.909  12.997
76927W        W42154  15.142  38.015   2.673
76928W        W42155  30.649  18.038  14.501
76929W        W42156  12.571  40.911   3.354
76930W        W42157  25.408  24.908  11.627
76931W        W42158  31.559  32.227   4.806
76932W        W42159  44.006  12.274   0.170
76933W        W42160  22.755  41.909   0.654
76934W        W42161  44.954  30.540  13.172
76935W        W42162  10.413   3.314  12.045
76936W        W42163  24.681   5.633   2.346
76937W        W42164  35.623  21.313   0.357
76938W        W42165  18.807  36.439  10.395
76939W        W42166  28.526  18.290  13.505
76940W        W42167  28.191  15.315   0.771
76941W        W42168  30.918  30.646  14.358
76942W        W42169  13.176  15.409  14.462
76943W        W42170  16.014  35.146  13.628
76944W        W42171  43.506  10.809  14.046
76945W        W42172   5.301  30.051   1.815
76946W        W42173  23.196  10.229  14.247
76947W        W42174  15.273  19.089  14.553
76948W        W42175  12.670   3.680  14.921
76949W        W42176  20.313  35.469  12.515
76950W        W42177  28.492  17.684   2.733
76951W        W42178  11.846  27.213  11.260
76952W        W42179  29.275  11.238  14.414
76953W        W42180   4.725   0.978   0.326
76954W        W42181  15.121  32.445   9.542
76955W        W42182  11.720  38.151  14.502
76956W        W42183  18.367  42.506   2.355
76957W        W42184   4.710  19.345   1.690
76958W        W42185  27.590  25.805  14.960
76959W        W42186   3.762  41.974  11.624
76960W        W42187   5.221  12.548   0.555
76961W        W42188  11.073  33.846  12.404
76962W        W42189   7.797  37.328  12.551
76963W        W42190  31.372  42.767  11.226
76964W        W42191  37.598  27.671  10.725
76965W        W42192  36.481  21.079   3.854
76966W        W42193  10.735  23.048   3.883
76967W        W42194  34.303  40.504   1.660
76968W        W42195  42.067  40.723  12.030
76969W        W42196  37.817  12.437  12.125
76970W        W42197  24.519  42.056  14.988
76971W        W42198   4.268  34.342  13.717
76972W        W42199   8.755  42.583   2.302
76973W        W42200  32.278  35.316  14.913
76974W        W42201  33.492  27.131   2.239
76975W        W42202  17.791  23.777   4.573
76976W        W42203  39.762   8.721  11.136
76977W        W42204  14.204  20.766   2.579
76978W        W42205  13.251  17.745  12.104
76979W        W42206  18.619   5.019   4.241
76980W        W42207  19.560  25.519  13.896
76981W        W42208   8.705   3.343  10.881
76982W        W42209   8.032  43.064  14.431
76983W        W42210  19.697   2.011  11.564
76984W        W42211   5.211  11.143   0.362
76985W        W42212  10.320  36.902   1.292
76986W        W42213  23.126   6.687  14.912
76987W        W42214  14.586  16.830  13.252
76988W        W42215  15.349  19.589  10.792
76989W        W42216   3.668  32.842  13.793
76990W        W42217  43.937  14.514  14.842
76991W        W42218  18.991  42.323   3.010
76992W        W42219  37.457  23.149   0.218
76993W        W42220  39.987   9.765  13.333
76994W        W42221  30.043  27.680   1.693
76995W        W42222  37.939  44.356  12.931
76996W        W42223  17.589  22.070  11.519
76997W        W42224  40.934   0.519  10.503
76998W        W42225  33.813  26.105   2.749
76999W        W42226  43.018  36.907   1.342
77000W        W42227   0.148   9.385   3.260
77001W        W42228  13.016  36.437  10.519
77002W        W42229  31.561  24.685  10.750
77003W        W42230  38.974  24.542  14.533
77004W        W42231  27.994  24.080   1.312
77005W        W42232  38.069  42.858  10.721
77006W        W42233  36.513   7.921   1.295
77007W        W42234   3.361   9.736   0.679
77008W        W42235  42.064  14.922   2.117
77009W        W42236  12.740  29.123   0.316
77010W        W42237  40.805  42.841   1.401
77011W        W42238  34.896  21.122   2.795
77012W        W42239   3.358  29.198  11.539
77013W        W42240   9.717  37.219  11.985
77014W        W42241  27.528  34.209  13.390
77015W        W42242  13.756  36.660  11.108
77016W        W42243  23.948  29.861  14.884
77017W        W42244  11.369  17.227   2.664
77018W        W42245   5.428  33.344  13.925
77019W        W42246   4.984   5.188  14.166
77020W        W42247   4.778  35.494  13.753
77021W        W42248  16.326   7.461   2.607
77022W        W42249  32.872   8.406   1.192
77023W        W42250  12.258  16.710  12.740
77024W        W42251  29.370   8.216   3.694
77025W        W42252  35.826  29.357   3.099
77026W        W42253  39.598  18.561  10.763
77027W        W42254  19.615  10.737  11.141
77028W        W42255   4.446   5.134  12.973
77029W        W42256   2.429  15.109   2.056
77030W        W42257  12.660   4.640   1.775
77031W        W42258   2.818  21.548   3.182
77032W        W42259   5.419  41.955  14.413
77033W        W42260  10.000  33.475  14.942
77034W        W42261  27.085   7.229  12.944
77035W        W42262  30.168  38.835   0.931
77036W        W42263  29.541  43.367  10.752
77037W        W42264  41.344  44.789   1.013
77038W        W42265   0.766  15.974   2.311
77039W        W42266  32.366   9.328  10.736
77040W        W42267  16.197  24.494  14.270
77041W        W42268  43.545  30.830  11.114
77042W        W42269   5.273  44.855   0.450
77043W        W42270   5.932  33.956   2.387
77044W        W42271  12.297  13.281   3.691
77045W        W42272  39.087   8.224  14.831
77046W        W42273  18.238  24.806   2.921
77047W        W42274  13.675  20.785  12.496
77048W        W42275  37.629   8.144  12.882
77049W        W42276   7.327  20.376   0.706
77050W        W42277  20.272   9.716   2.797
77051W        W42278   6.201  21.393   1.409
77052W        W42279  37.824  33.941  11.661
77053W        W42280  12.432  34.178   4.931
77054W        W42281  25.456   8.843   3.191
77055W        W42282  41.975  27.251  14.986
77056W        W42283   4.287  29.558  11.491
77057W        W42284  38.326   3.334  13.158
77058W        W42285  42.246   3.433   4.106
77059W        W42286  44.530   8.096   3.185
77060W        W42287  44.898  28.779  12.458
77061W        W42288  21.544  20.563   0.215
77062W        W42289  33.533  44.725  12.353
77063W        W42290  31.184  30.957  13.753
77064W        W42291  25.580  14.024  13.030
77065W        W42292  10.682   3.011   1.397
77066W        W42293   6.803  14.056  11.618
77067W        W42294  19.049  14.321  12.145
77068W        W42295  29.605  27.686  12.148
77069W        W42296  26.718   9.277  13.897
77070W        W42297  26.952  39.438   0.858
77071W        W42298  43.966  41.541   3.700
77072W        W42299  24.150  32.505   0.896
77073W        W42300   0.804  14.782   1.142
77074W        W42301   9.153  12.814   3.105
77075W        W42302  39.579  31.404  14.014
77076W        W42303  29.071  37.020  11.050
77077W        W42304   0.730  32.402  11.939
77078W        W42305  26.288  16.161  12.804
77079W        W42306  24.685  37.005   4.368
77080W        W42307   1.785  15.789  13.856
77081W        W42308  13.337  16.660  11.084
77082W        W42309   9.331   4.882   0.437
77083W        W42310  12.312  23.992  13.465
77084W        W42311  36.955  43.670  13.540
77085W        W42312  31.751  41.284   2.224
77086W        W42313  20.558  11.632  11.472
77087W        W42314   7.233   0.109  13.882
77088W        W42315  24.963  36.969  14.536
77089W        W42316  11.652   7.231   5.078
77090W        W42317  36.905   1.924  14.787
77091W        W42318  12.662  20.141   2.295
77092W        W42319  40.890  40.220   4.902
77093W        W42320   4.047  31.448   4.605
77094W        W42321  15.030  39.016   0.240
77095W        W42322  10.866  23.689  14.516
77096W        W42323  21.559  28.987   4.383
77097W        W42324   7.189  14.098  12.567
77098W        W42325  18.492  40.657  10.179
77099W        W42326  41.757  20.031  13.422
77100W        W42327   7.150  39.208   3.062
77101W        W42328  22.034  28.047   3.197
77102W        W42329   5.248   0.399  12.825
77103W        W42330  16.292  27.107   2.657
77104W        W42331  37.527  37.306  11.485
77105W        W42332  30.881  17.615   3.334
77106W        W42333  35.905   4.030  12.879
77107W        W42334   0.400  41.997  12.489
77108W        W42335   7.802  25.599   4.627
77109W        W42336  42.543  32.990   2.361
77110W        W42337  14.365   7.801   1.436
77111W        W42338  30.489   9.473   4.569
77112W        W42339  20.187  15.981  14.745
77113W        W42340   4.859   6.874  13.468
77114W        W42341  42.497  26.127  11.747
77115W        W42342  23.109  26.555  12.059
77116W        W42343  33.034  22.680   0.959
77117W        W42344   2.766   9.142  11.061
77118W        W42345  43.777   6.517   2.706
77119W        W42346  28.498  18.636   1.175
77120W        W42347   6.248  32.665   1.657
77121W        W42348  31.203   8.660   5.385
77122W        W42349  10.882   2.818   0.054
77123W        W42350   8.168  41.868  12.397
77124W        W42351  23.624  39.029   2.154
77125W        W42352  40.291  18.551  13.917
77126W        W42353  20.201  23.086  10.466
77127W        W42354  31.499  18.490   1.287
77128W        W42355   8.445   8.983   2.586
77129W        W42356  21.332  34.600  12.554
77130W        W42357   6.681   8.338  11.205
77131W        W42358   8.257  16.834   0.811
77132W        W42359   2.450  18.524  13.010
77133W        W42360  11.603  41.810   3.668
77134W        W42361  27.622   9.379   3.762
77135W        W42362  15.601  16.709  14.921
77136W        W42363   2.833  34.045   4.113
77137W        W42364   7.664  10.274  11.369
77138W        W42365  19.068  13.801  11.246
77139W        W42366  13.347   0.187   2.285
77140W        W42367  28.815  28.118  13.558
77141W        W42368  28.109  38.219  13.649
77142W        W42369  19.133   9.909   2.323
77143W        W42370   9.597  16.615  12.417
77144W        W42371  31.357  14.540  13.165
77145W        W42372   1.394  13.930   2.710
77146W        W42373  19.399  16.336   0.722
77147W        W42374   9.413  44.331  10.640
77148W        W42375  39.341   8.210   4.867
77149W        W42376  30.708  12.218  11.117
77150W        W42377  14.267  10.758  12.060
77151W        W42378  29.393  24.523   3.856
77152W        W42379  31.442  25.648   5.333
77153W        W42380  37.838  21.600   2.307
77154W        W42381  20.000  31.739  13.899
77155W        W42382  29.550  18.277   0.279
77156W        W42383   6.418  26.247  14.874
77157W        W42384   2.070  40.019   1.773
77158W        W42385  15.324  16.321  13.776
77159W        W42386  37.498  14.406   3.271
77160W        W42387  30.727   2.365  10.624
77161W        W42388  43.555  17.519  11.627
77162W        W42389   1.685  23.178   3.487
77163W        W42390   7.354  41.145  12.725
77164W        W42391  42.401   4.035   0.744
77165W        W42392  13.030   8.760   2.655
77166W        W42393  30.390  20.439  10.859
77167W        W42394  31.701  22.417  11.599
77168W        W42395   3.414  15.889  12.411
77169W        W42396   9.664   5.804   4.748
77170W        W42397  19.566  10.298  14.079
77171W        W42398  23.151  42.306   4.568
77172W        W42399  28.793  20.729  12.086
77173W        W42400  40.530  37.919   2.852
77174W        W42401   1.381  19.198   0.527
77175W        W42402   5.843   9.588  14.627
77176W        W42403  35.215  22.121  13.962
77177W        W42404   3.194  44.767  12.925
77178W        W42405  30.702  21.135  11.106
77179W        W42406  10.596  22.675  10.179
77180W        W42407  35.399  18.659   2.370
77181W        W42408  23.268   6.088   0.447
77182W        W42409  16.988   3.183  11.663
77183W        W42410   2.930  37.281   2.611
77184W        W42411   8.534  17.725  11.929
77185W        W42412  41.923  11.850  10.293
77186W        W42413  12.475   7.241  12.832
77187W        W42414  32.299   1.455  13.030
77188W        W42415  26.200  33.135   0.425
77189W        W42416   8.330  36.154  12.498
77190W        W42417   1.422  38.836  14.022
77191W        W42418  25.053  28.705  12.892
77192W        W42419  36.105  23.592   2.227
77193W        W42420   0.461  23.018   4.569
77194W        W42421  41.257   1.737   1.930
77195W        W42422  20.243  34.711   4.711
77196W        W42423   7.911   6.157  14.877
77197W        W42424  37.075  30.299   4.644
77198W        W42425   3.322  31.832  11.558
77199W        W42426  10.150  41.824   3.160
77200W        W42427  37.906  22.520  12.337
77201W        W42428  18.245  20.826  11.485
77202W        W42429  37.895  25.736   2.727
77203W        W42430  41.959   2.865   5.127
77204W        W42431   4.860  12.859  12.711
77205W        W42432   7.137  43.372   2.750
77206W        W42433  31.836  42.468  13.876
77207W        W42434  39.153  43.318  10.476
77208W        W42435  36.710   4.389   4.602
77209W        W42436   3.264  32.559   1.752
77210W        W42437   3.291  30.213  12.769
77211W        W42438   2.787  31.409   1.294
77212W        W42439  36.164  21.303   0.327
77213W        W42440  34.464   4.076  11.993
77214W        W42441  29.108  22.973   1.450
77215W        W42442  22.048  20.981  13.080
77216W        W42443  21.510  39.593   4.499
77217W        W42444  36.532   3.593  12.408
77218W        W42445  22.940   8.212  13.852
77219W        W42446  18.669  42.188  12.666
77220W        W42447   5.223  43.181  12.960
77221W        W42448  31.544  27.139  14.839
77222W        W42449   0.972  30.295  13.492
77223W        W42450  13.869  16.033  13.718
77224W        W42451   2.999  18.805   4.045
77225W        W42452  10.112   3.325   1.813
77226W        W42453  41.483   4.320   4.209
77227W        W42454  34.657  10.890   2.110
77228W        W42455  42.404   1.054  12.080
77229W        W42456  37.300  25.053  14.560
77230W        W42457  23.010  12.084  13.147
77231W        W42458  42.765  25.214  13.786
77232W        W42459  10.126  41.226  10.525
77233W        W42460  12.000   6.931  10.793
77234W        W42461   2.620  10.038  11.503
77235W        W42462   0.948   9.358   2.219
77236W        W42463  38.038  40.753   3.262
77237W        W42464  40.239  11.257  11.891
77238W        W42465  13.108   6.625  14.316
77239W        W42466  31.461  24.146   5.152
77240W        W42467  14.732  17.230  12.103
77241W        W42468  15.317  14.269   2.790
77242W        W42469  23.814   5.649   1.026
77243W        W42470  37.963  38.956  14.717
77244W        W42471  34.631  37.536   0.296
77245W        W42472  10.672  40.041  11.373
77246W        W42473   2.846  28.779  13.475
77247W        W42474  41.080   7.061   1.118
77248W        W42475  39.321  16.265  13.871
77249W        W42476  13.251  43.386   0.792
77250W        W42477  33.912  28.546  13.429
77251W        W42478  15.557   8.112  12.916
77252W        W42479  15.696  31.546   3.740
77253W        W42480   2.927  11.200   0.023
77254W        W42481   9.724  27.548  12.128
77255W        W42482  39.357  16.829  13.854
77256W        W42483  10.721  33.917   1.205
77257W        W42484  29.529  33.984   2.613
77258W        W42485  36.553  19.598   0.787
77259W        W42486  38.897  15.701   3.846
77260W        W42487  17.318   0.139  11.534
77261W        W42488  36.847  29.020  11.542
77262W        W42489  31.966  32.661   3.657
77263W        W42490  22.761   2.798  13.414
77264W        W42491  26.061  33.159   3.741
77265W        W42492  29.469  13.629  14.206
77266W        W42493  25.757  29.539  12.652
77267W        W42494  32.857  36.127   3.295
77268W        W42495  18.183  38.391  12.395
77269W        W42496  18.498  30.018   2.363
77270W        W42497   7.854  31.548   3.421
77271W        W42498  28.382  40.755   4.055
77272W        W42499  14.571  11.845  13.438
77273W        W42500   2.141   0.370  13.559
77274W        W42501   3.382  19.219  12.047
77275W        W42502  23.484  13.861  14.928
77276W        W42503  42.366   7.940  14.104
77277W        W42504  12.142  18.737   4.803
77278W        W42505  40.786   1.953   4.604
77279W        W42506   7.378  38.530  10.527
77280W        W42507   0.330  30.744  12.874
77281W        W42508   9.385  29.887  14.944
77282W        W42509  12.529  11.333  11.456
77283W        W42510   1.469   5.729  13.109
77284W        W42511  11.347   1.670  13.298
77285W        W42512   2.095  26.063  12.466
77286W        W42513   2.699  18.650   4.990
77287W        W42514  11.274  27.734  11.477
77288W        W42515  13.792  26.993   2.368
77289W        W42516  36.888  30.899   4.166
77290W        W42517  18.292  32.536   1.231
77291W        W42518  39.558   3.377  10.156
77292W        W42519  29.982  39.099  14.843
77293W        W42520  39.326  11.648   4.151
77294W        W42521  21.715  43.822  12.211
77295W        W42522  15.400  26.795   2.321
77296W        W42523  19.209  23.774  10.802
77297W        W42524  27.449  32.462  11.656
77298W        W42525  34.203  36.557  11.696
77299W        W42526   2.103  20.776  10.867
77300W        W42527  34.304   1.328   3.157
77301W        W42528  41.248  32.028   3.555
77302W        W42529  22.542   8.357   2.153
77303W        W42530  26.501  44.777  13.644
77304W        W42531  15.645  29.153  14.342
77305W        W42532  40.067  19.666   3.204
77306W        W42533  26.016  23.736  13.569
77307W        W42534  32.511   3.785  13.280
77308W        W42535  13.882  28.978   1.696
77309W        W42536   9.666  16.023   1.991
77310W        W42537  36.516   6.271   1.154
77311W        W42538  40.368  44.264   4.583
77312W        W42539  30.519  12.687  12.293
77313W        W42540  34.609  36.303   4.721
77314W        W42541   5.757  18.527   0.611
77315W        W42542  21.628  24.059  10.957
77316W        W42543  19.002  20.216   0.228
77317W        W42544   6.403  18.469   2.293
77318W        W42545   0.575  18.171  11.188
77319W        W42546   2.346  27.151  12.886
77320W        W42547  11.033  20.588  11.274
77321W        W42548  37.945  22.724   3.270
77322W        W42549   4.686  35.890  10.385
77323W        W42550  32.671  20.511   2.449
77324W        W42551   4.159  12.296   2.087
77325W        W42552  34.818  42.348   1.289
77326W        W42553  33.056  41.721   1.240
77327W        W42554  13.569  28.432   2.754
77328W        W42555   4.213  15.549   0.914
77329W        W42556  34.584  43.728   3.807
77330W        W42557  30.448   4.150  12.338
77331W        W42558   7.814  37.341  14.852
77332W        W42559  21.221  26.213   4.609
77333W        W42560  43.169  38.116  13.305
77334W        W42561  19.359  41.820  14.907
77335W        W42562   1.972  17.680  11.647
77336W        W42563  18.138  10.530   1.895
77337W        W42564   6.365  13.599   0.774
77338W        W42565  17.670  20.786   0.269
77339W        W42566  18.142  39.372   1.471
77340W        W42567  11.168  14.827   9.619
77341W        W42568  38.299  27.571   1.646
77342W        W42569  29.907  26.038  12.585
77343W        W42570  43.989  14.110   2.715
77344W        W42571  31.103  42.284   3.290
77345W        W42572  30.118   0.283   3.763
77346W        W42573   2.044  22.938  12.587
77347W        W42574  13.813   1.150   1.147
77348W        W42575  32.692  40.979   4.082
77349W        W42576   4.104   0.385   0.893
77350W        W42577   3.150  21.614   1.232
77351W        W42578  33.448  33.856   3.458
77352W        W42579  39.021  40.279  11.607
77353W        W42580   6.062   9.229   1.990
77354W        W42581  13.080  17.162  14.329
77355W        W42582   1.390  25.613  11.720
77356W        W42583  33.368  41.007   2.820
77357W        W42584  14.116  17.951   3.755
77358W        W42585   3.232  42.070   4.640
77359W        W42586  27.186   6.877   0.298
77360W        W42587  31.505  21.775  12.664
77361W        W42588  43.298  14.670   0.688
77362W        W42589  32.594  22.266  11.154
77363W        W42590  24.261  38.902   3.657
77364W        W42591  38.739  29.535  10.509
77365W        W42592  32.601  12.300   1.202
77366W        W42593  40.428   5.675   2.728
77367W        W42594  41.927   2.767  14.984
77368W        W42595   2.207  35.397   3.246
77369W        W42596  11.601  24.968  11.710
77370W        W42597  18.124  35.092  10.601
77371W        W42598   4.250   8.924  14.264
77372W        W42599  40.205  21.456   0.763
77373W        W42600  35.484  37.991  12.004
77374W        W42601  13.684  17.116   1.305
77375W        W42602  27.590   5.451   3.875
77376W        W42603  16.562  21.663   3.634
77377W        W42604  34.915   8.345  14.906
77378W        W42605  20.030  12.619  14.523
77379W        W42606  10.312  13.854  13.383
77380W        W42607  19.187  29.573  12.863
77381W        W42608   0.436  31.118   4.891
77382W        W42609   6.110   9.857  13.440
77383W        W42610  38.115  12.229  13.422
77384W        W42611   8.898  42.729  14.885
77385W        W42612  11.665  31.102   3.698
77386W        W42613  32.170  24.697   4.083
77387W        W42614  19.747  17.247  13.507
77388W        W42615   4.783  22.732   0.892
77389W        W42616  14.127  14.368  11.659
77390W        W42617  11.570  10.703  14.849
77391W        W42618   0.212  39.487   1.376
77392W        W42619  32.646  32.756  11.105
77393W        W42620  32.148  23.100   4.865
77394W        W42621  36.121  17.070   3.727
77395W        W42622   0.352  16.931   9.945
77396W        W42623  31.071  39.536   2.370
77397W        W42624  28.172   7.499  11.437
77398W        W42625  44.957  24.560  13.582
77399W        W42626  37.065  19.336  14.350
77400W        W42627  32.960  43.247  11.488
77401W        W42628  29.117  33.096  12.328
77402W        W42629  27.475   4.232   1.352
77403W        W42630  19.647  39.510  11.444
77404W        W42631   3.326  37.314   3.267
77405W        W42632  33.388  44.898   2.967
77406W        W42633  26.627  39.435  11.191
77407W        W42634   6.438  16.377  10.661
77408W        W42635  11.153  42.565  11.299
77409W        W42636  21.248  28.470   1.403
77410W        W42637   9.819  15.548   2.162
77411W        W42638  39.588   6.381  12.421
77412W        W42639   2.818  26.249   3.280
77413W        W42640   2.177   1.679   2.376
77414W        W42641  43.282  42.685   0.155
77415W        W42642  18.931  22.736   3.319
77416W        W42643  21.270  28.519  14.609
77417W        W42644   7.606   6.734   3.398
77418W        W42645  35.276  13.455   4.094
77419W        W42646  17.193  21.586   2.187
77420W        W42647  44.204  43.483   0.242
77421W        W42648  28.130  43.335   1.457
77422W        W42649  41.679  28.692  10.314
77423W        W42650   6.131   6.908  10.739
77424W        W42651  23.825  40.927   4.309
77425W        W42652  15.328   0.331  13.513
77426W        W42653  10.872  36.660   4.754
77427W        W42654   6.040  38.031   3.243
77428W        W42655   3.295  41.569   2.003
77429W        W42656  15.996  27.924  11.980
77430W        W42657  44.722  38.463   3.801
77431W        W42658  17.644  40.103   1.224
77432W        W42659  40.418  21.566   3.678
77433W        W42660  14.833  12.733  13.943
77434W        W42661   4.393  40.476  11.999
77435W        W42662  16.113  23.032   4.848
77436W        W42663  35.769  40.501  14.397
77437W        W42664  40.434  40.586  13.059
77438W        W42665   6.289  18.019  14.605
77439W        W42666  38.643   3.717   1.393
77440W        W42667  36.469  10.590   3.631
77441W        W42668  15.198  25.047   0.204
77442W        W42669  33.985  31.559  13.935
77443W        W42670  40.235  27.235  11.515
77444W        W42671  16.528  29.134  14.413
77445W        W42672  13.416  11.534   4.962
77446W        W42673  37.612  37.126  12.145
77447W        W42674  29.513  20.972  14.427
77448W        W42675  16.528  17.741  12.865
77449W        W42676   4.743  36.541  14.430
77450W        W42677  43.803  17.432   5.313
77451W        W42678  12.736  14.156   2.397
77452W        W42679  38.570  37.856   1.052
77453W        W42680  40.090  30.372  13.355
77454W        W42681  15.085  30.085   4.630
77455W        W42682  32.396  11.759  12.061
77456W        W42683  44.390  44.393   3.322
77457W        W42684  39.894  20.849   3.639
77458W        W42685  24.657  29.707  14.270
77459W        W42686  38.859  12.299  12.883
77460W        W42687  16.337  35.916   3.658
77461W        W42688   5.960  26.135  13.397
77462W        W42689  21.500  10.918  10.980
77463W        W42690  30.595  43.066  14.271
77464W        W42691   4.994  16.405   2.951
77465W        W42692   5.406  14.442   4.447
77466W        W42693  30.434   8.738   1.295
77467W        W42694  21.637  11.713   4.055
77468W        W42695  30.199  44.012  14.436
77469W        W42696   4.801  44.421  12.019
77470W        W42697  11.371  20.488   3.188
77471W        W42698   7.803  44.899  13.059
77472W        W42699  11.927   5.983   2.151
77473W        W42700   2.942   9.878  13.517
77474W        W42701  31.324  24.606   4.741
77475W        W42702  34.591   2.751  14.597
77476W        W42703  17.237  14.671  13.796
77477W        W42704  23.788  26.103  13.877
77478W        W42705  40.055  37.490   4.617
77479W        W42706  12.574  19.978   0.796
77480W        W42707  30.223  14.501  14.497
77481W        W42708  22.475   1.260   2.136
77482W        W42709   3.277  34.113   4.388
77483W        W42710  28.201  34.365  11.138
77484W        W42711   6.253  24.137   4.369
77485W        W42712  25.497  25.096  11.163
77486W        W42713   2.312  24.075   0.312
77487W        W42714  33.527  20.844  12.084
77488W        W42715  39.104  18.242  12.510
77489W        W42716  20.394  28.145  11.944
77490W        W42717   2.147  34.355   4.821
77491W        W42718   5.427  39.359  11.244
77492W        W42719  14.566  32.566  12.681
77493W        W42720  39.184   4.603   1.085
77494W        W42721  19.019  11.153   1.369
77495W        W42722  27.429  38.901   4.178
77496W        W42723  41.931  25.884   0.950
77497W        W42724  38.076  25.986   3.190
77498W        W42725  33.903  26.487  12.882
77499W        W42726  33.999  35.591  13.598
77500W        W42727  43.302  19.217   2.234
77501W        W42728  22.596  32.050   4.135
77502W        W42729  30.496   5.631  11.582
77503W        W42730  15.391  17.169  14.762
77504W        W42731  23.623   3.758   5.760
77505W        W42732  35.751  28.935  10.722
77506W        W42733   9.919   5.406  12.868
77507W        W42734   5.010   4.971  12.919
77508W        W42735  27.729  28.570   2.625
77509W        W42736   4.758  15.373  13.369
77510W        W42737   6.798   9.896   3.070
77511W        W42738  34.612   1.183  10.740
77512W        W42739  27.496  43.582  10.700
77513W        W42740   1.147  40.386   4.637
77514W        W42741  13.554  21.873  13.935
77515W        W42742   1.889  35.330   0.597
77516W        W42743  17.291   6.269   0.049
77517W        W42744  44.445  38.418   3.232
77518W        W42745  18.231  39.790  13.176
77519W        W42746  44.455  28.448   0.331
77520W        W42747  17.693  27.903  11.038
77521W        W42748  27.212   0.655  13.590
77522W        W42749   3.765   2.469   1.629
77523W        W42750  10.419  24.559   3.314
77524W        W42751  28.105   0.562  11.904
77525W        W42752   9.262   2.968  12.381
77526W        W42753  12.070  13.310  13.104
77527W        W42754  30.038  10.071   5.250
77528W        W42755  14.115  40.989   3.217
77529W        W42756  26.229  32.426  14.245
77530W        W42757  14.599   3.085  13.048
77531W        W42758  16.775  21.911  12.152
77532W        W42759  37.888  14.983   1.744
77533W        W42760  32.856  19.544   1.379
77534W        W42761   8.141  16.616   1.669
77535W        W42762  29.365   3.013   4.954
77536W        W42763   3.951   2.007  13.541
77537W        W42764  25.163  38.547   1.133
77538W        W42765  29.359  15.117   3.268
77539W        W42766  29.617  38.689  14.214
77540W        W42767  37.789  18.303  14.748
77541W        W42768   6.354  13.398  11.948
77542W        W42769  18.069  41.537  11.025
77543W        W42770  36.784  24.898  14.427
77544W        W42771  42.864  38.020  11.876
77545W        W42772  22.204  14.545   4.794
77546W        W42773  19.043  18.114   0.857
77547W        W42774  39.615  39.073  14.119
77548W        W42775  21.747  12.721   3.050
77549W        W42776   3.390   7.865   1.811
77550W        W42777  17.547  11.361  11.598
77551W        W42778  30.946  20.499   3.810
77552W        W42779  33.068   2.612   3.387
77553W        W42780  24.665  39.340   1.861
77554W        W42781  14.799  27.523   1.738
77555W        W42782  12.603  28.437   1.733
77556W        W42783  25.390  36.608   1.044
77557W        W42784  10.246  26.488  12.524
77558W        W42785   3.408  12.465  11.662
77559W        W42786  21.313   9.705   1.694
77560W        W42787  22.204   7.068   2.322
77561W        W42788  26.773  35.219  10.613
77562W        W42789  26.186  40.272   0.271
77563W        W42790  27.988  38.489  12.781
77564W        W42791  17.125   2.180   0.421
77565W        W42792  18.243  31.987   4.524
77566W        W42793  23.592  23.111  10.368
77567W        W42794  16.791  39.458  14.949
77568W        W42795  34.443  32.642  12.990
77569W        W42796   6.762  22.535   2.380
77570W        W42797  19.248  33.879   4.637
77571W        W42798   2.538   3.199   3.478
77572W        W42799  34.227  31.645   4.853
77573W        W42800  19.398  11.151  10.348
77574W        W42801  19.056  26.005  11.882
77575W        W42802   5.826   1.708   2.811
77576W        W42803  44.336  27.144   0.806
77577W        W42804  44.859  18.274   3.807
77578W        W42805  44.509   5.110   1.225
77579W        W42806  40.531  26.009   1.788
77580W        W42807  11.384  28.757  12.020
77581W        W42808  32.968  29.079   0.042
77582W        W42809   9.023  33.139  14.949
77583W        W42810  29.998  42.535   0.422
77584W        W42811  14.261  33.602  11.515
77585W        W42812  27.645  20.279   2.757
77586W        W42813  22.996  33.565   0.906
77587W        W42814  36.091   3.759   3.630
77588W        W42815  11.798  17.781  10.327
77589W        W42816  38.730  34.364   2.643
77590W        W42817  24.682   8.612  12.906
77591W        W42818   1.776   6.201   4.602
77592W        W42819   3.786  35.126   4.692
77593W        W42820  40.760   9.009   0.780
77594W        W42821  23.234  18.099   1.445
77595W        W42822  28.899   5.369  10.249
77596W        W42823   9.796   4.818   4.557
77597W        W42824  22.042  36.582  12.113
77598W        W42825   8.498  28.130  12.910
77599W        W42826   8.779  34.606   9.873
77600W        W42827   3.788  22.984  14.069
77601W        W42828  39.778  12.646  11.913
77602W        W42829  40.591  41.827  13.863
77603W        W42830  26.553  28.694  12.962
77604W        W42831  14.188  43.594  11.973
77605W        W42832  16.967  34.342   1.786
77606W        W42833  37.064  28.109   4.116
77607W        W42834   9.316  28.574   2.732
77608W        W42835  34.452  35.652  10.380
77609W        W42836  35.230  33.608  11.438
77610W        W42837  29.448   4.359   4.133
77611W        W42838  16.993  42.907   4.392
77612W        W42839   3.420  24.669   3.826
77613W        W42840   7.321  13.912   2.254
77614W        W42841  11.622  12.687  11.047
77615W        W42842   1.949  33.479   4.556
77616W        W42843  12.727  38.979   2.610
77617W        W42844  31.422  34.841   3.783
77618W        W42845  39.540   6.011  14.076
77619W        W42846   5.071  19.508  10.971
77620W        W42847  22.007  34.010   2.592
77621W        W42848  13.053  17.718   0.900
77622W        W42849   2.680  28.544   0.787
77623W        W42850  37.811  43.809  13.423
77624W        W42851  16.281  21.261   4.838
77625W        W42852  10.426  15.659  14.412
77626W        W42853  29.039   4.664  12.897
77627W        W42854  42.618   1.863   2.335
77628W        W42855  17.514  20.421  10.637
77629W        W42856  41.051  13.032   2.237
77630W        W42857  39.361  27.386   4.629
77631W        W42858  18.081   6.432  11.989
77632W        W42859  23.774  32.979  11.800
77633W        W42860   0.222  22.121  11.594
77634W        W42861   9.835   9.460  13.100
77635W        W42862   9.392  15.717  14.362
77636W        W42863  28.538  42.440   0.261
77637W        W42864  39.466   4.114  11.638
77638W        W42865  21.194  26.694  14.703
77639W        W42866  10.803  36.830  13.821
77640W        W42867  19.386  33.526  13.935
77641W        W42868  14.644   8.592  11.207
77642W        W42869  29.078  18.320   1.891
77643W        W42870   7.049  10.228   3.382
77644W        W42871  31.882   9.608  14.722
77645W        W42872  17.612   4.871  11.668
77646W        W42873  18.704  25.128  13.856
77647W        W42874  19.414   0.545   4.847
77648W        W42875  22.408  29.862  14.751
77649W        W42876  42.848  32.160  13.424
77650W        W42877  36.041  13.720   1.766
77651W        W42878  10.216  43.274   4.557
77652W        W42879  30.911  32.945   1.727
77653W        W42880  23.220  40.500  10.345
77654W        W42881  28.983   0.385   3.305
77655W        W42882  10.607  34.038  14.421
77656W        W42883   5.750  10.967  11.109
77657W        W42884  23.701  13.379  12.434
77658W        W42885  31.694  34.912  10.113
77659W        W42886  28.105  14.545  13.301
77660W        W42887  36.553  11.088  12.968
77661W        W42888  16.662  28.115  10.754
77662W        W42889  22.635  41.308   2.656
77663W        W42890   4.455  31.892  13.707
77664W        W42891   8.676  24.729  11.135
77665W        W42892  11.959  13.534  12.650
77666W        W42893  34.025  19.704  13.790
77667W        W42894   0.038  14.512  13.049
77668W        W42895  43.894  43.879  13.782
77669W        W42896  15.616  11.104  12.892
77670W        W42897  25.023  28.210   1.507
77671W        W42898  41.505  38.994   0.390
77672W        W42899   5.611   8.231   0.072
77673W        W42900   2.755   8.660  10.316
77674W        W42901  34.336   6.269   2.183
77675W        W42902  20.180  29.875   3.303
77676W        W42903  31.934  35.966   3.628
77677W        W42904  21.227  14.029  11.142
77678W        W42905  44.971  13.843  12.321
77679W        W42906  43.891   8.869   1.668
77680W        W42907  32.852  21.791   0.227
77681W        W42908  21.789  18.240  12.255
77682W        W42909  18.005  29.919   2.426
77683W        W42910  16.137  18.564   3.693
77684W        W42911   3.767  25.943   0.430
77685W        W42912  39.011  35.717  13.833
77686W        W42913  33.904   2.410   2.243
77687W        W42914  43.962   9.592   4.609
77688W        W42915  12.045  33.930  12.132
77689W        W42916  22.591  16.560  13.337
77690W        W42917  18.711  32.539  14.736
77691W        W42918  38.870  38.114  12.561
77692W        W42919  16.843   4.338   2.239
77693W        W42920   8.390  25.764  12.412
77694W        W42921  39.419  18.270  11.150
77695W        W42922  19.308  33.061   1.261
77696W        W42923  20.320  22.078   3.237
77697W        W42924   1.203   5.792   1.698
77698W        W42925   5.937  18.007   3.243
77699W        W42926  25.003  44.375  14.033
77700W        W42927   6.979  33.824   3.263
77701W        W42928  28.943  20.153   2.221
77702W        W42929   3.685  29.011   4.002
77703W        W42930  35.459   5.193   3.699
77704W        W42931  39.605   0.412   3.671
77705W        W42932  30.715  35.507   4.221
77706W        W42933  14.585  43.870   3.188
77707W        W42934  28.522  26.635  14.443
77708W        W42935  27.184  26.771  11.493
77709W        W42936  44.487  29.170   3.633
77710W        W42937   2.150   5.989  13.899
77711W        W42938  26.116  43.327   2.637
77712W        W42939  34.051  10.277  11.598
77713W        W42940  23.288  26.109  13.911
77714W        W42941   3.756  18.901  11.767
77715W        W42942  27.539   2.710  14.511
77716W        W42943  43.956   0.944   3.161
77717W        W42944  44.751  24.480   1.313
77718W        W42945  38.913   9.745  13.412
77719W        W42946  17.838   3.437  13.869
77720W        W42947  39.880  40.244   3.174
77721W        W42948  15.462  22.132   0.615
77722W        W42949   2.056   3.268   3.665
77723W        W42950  21.789  10.130   3.416
77724W        W42951   5.706  33.060  12.616
77725W        W42952  42.530  44.982   2.743
77726W        W42953  33.372   9.280   4.650
77727W        W42954   0.460  44.616  13.352
77728W        W42955  12.590   2.763   0.367
77729W        W42956  34.663  13.699  13.826
77730W        W42957   0.571  43.419  14.962
77731W        W42958  39.037  21.253   2.357
77732W        W42959  11.776   1.165  12.070
77733W        W42960  15.766  26.917  10.758
77734W        W42961  11.923   3.410   3.653
77735W        W42962  37.919  36.032  14.250
77736W        W42963   8.883  24.031   4.133
77737W        W42964  20.584  42.461  11.443
77738W        W42965  25.080  21.179  13.065
77739W        W42966  31.242  37.030   1.698
77740W        W42967  31.539   8.077  11.492
77741W        W42968  32.182  27.485  12.603
77742W        W42969   8.212  21.058   2.856
77743W        W42970   8.204  23.097   0.495
77744W        W42971  19.027   4.692   4.307
77745W        W42972  37.079  35.824  11.979
77746W        W42973  44.633  20.148  12.022
77747W        W42974  12.078  42.825   0.491
77748W        W42975  25.686  21.295  10.938
77749W        W42976  18.603  44.536   0.798
77750W        W42977  42.965  41.898  11.141
77751W        W42978  41.852  44.795   3.832
77752W        W42979   4.438  27.428   4.099
77753W        W42980  41.074   6.798   1.604
77754W        W42981   7.897  35.845  12.582
77755W        W42982   0.384   6.021  11.132
77756W        W42983  40.472  16.600  10.269
77757W        W42984  29.226  34.329   5.114
77758W        W42985  35.040  37.875   9.846
77759W        W42986  26.466  16.633  11.984
77760W        W42987  11.405  17.208  10.350
77761W        W42988  44.265  29.456  13.050
77762W        W42989   6.454  26.493   4.167
77763W        W42990  37.153   4.032  13.135
77764W        W42991   7.364  17.753  12.660
77765W        W42992  31.652  40.917   3.234
77766W        W42993   8.000  39.446  12.394
77767W        W42994  13.538  43.540  13.458
77768W        W42995   8.397  24.741  10.688
77769W        W42996  21.612  41.875  13.352
77770W        W42997  18.726  41.788   2.191
77771W        W42998  17.592  31.727   2.196
77772W        W42999  28.459  28.477   0.739
77773W        W43000  40.814  23.296  13.493
77774W        W43001   0.800  24.364   4.543
77775W        W43002  28.909   0.864   0.407
77776W        W43003  44.940  44.046   5.535
77777W        W43004  38.402  28.242   0.993
77778W        W43005  22.812   6.804  13.582
77779W        W43006   1.999  31.328   3.181
77780W        W43007  17.284  19.518  12.115
77781W        W43008   3.889  11.279   2.678
77782W        W43009  29.561  28.418   0.360
77783W        W43010  37.906  17.452   3.358
77784W        W43011  10.964  13.730  12.578
77785W        W43012  28.537  27.043  10.256
77786W        W43013  21.738  44.376   3.117
77787W        W43014  21.242   1.702   3.670
77788W        W43015  31.855   4.758  12.546
77789W        W43016  44.618  29.068   4.472
77790W        W43017  22.101  28.701   3.805
77791W        W43018  38.611  29.446  12.698
77792W        W43019  41.698  19.924   0.007
77793W        W43020  15.192  35.095  12.950
77794W        W43021  15.026  22.612   3.592
77795W        W43022  41.341   2.216  13.514
77796W        W43023   6.884  40.334  13.570
77797W        W43024  38.001   9.866  10.579
77798W        W43025  37.330   9.733   3.681
77799W        W43026  36.968  26.459   0.707
77800W        W43027  34.308  12.768   1.011
77801W        W43028  10.440  26.481  14.567
77802W        W43029  17.704   2.528   4.778
77803W        W43030  13.411   5.932   2.123
77804W        W43031  20.636  43.869   3.246
77805W        W43032  32.250  35.225  11.710
77806W        W43033   3.716  18.161   4.019
77807W        W43034  28.318  13.128   0.800
77808W        W43035  40.882  35.114  14.551
77809W        W43036  18.350   5.266  10.748
77810W        W43037  12.293  29.978  10.523
77811W        W43038  28.184  19.861   3.824
77812W        W43039  35.333  27.544   4.283
77813W        W43040  10.163  41.244   2.380
77814W        W43041  16.720  42.758   0.100
77815W        W43042   5.441  44.603  12.652
77816W        W43043   6.461   6.943   4.997
77817W        W43044  40.960  32.489  13.821
77818W        W43045  30.452  17.176  11.816
77819W        W43046   1.016   8.966   4.864
77820W        W43047  18.648  21.812   2.166
77821W        W43048  23.066  27.762  10.668
77822W        W43049  35.350   0.159  10.809
77823W        W43050  17.409  27.861  12.047
77824W        W43051  33.442  41.090   1.757
77825W        W43052   8.890   5.021   1.352
77826W        W43053  14.435   7.277   2.233
77827W        W43054  38.114  35.867  14.701
77828W        W43055  10.867  29.200  13.558
77829W        W43056   9.354  38.388   4.145
77830W        W43057  22.463   9.508  12.188
77831W        W43058   8.587  35.408  13.990
77832W        W43059  17.056  25.161  11.185
77833W        W43060  44.825  11.137   1.410
77834W        W43061  17.451   4.637   3.461
77835W        W43062  17.924   3.413  14.999
77836W        W43063  40.552  32.520  12.157
77837W        W43064  43.967  32.192  12.374
77838W        W43065  12.427   9.476  13.466
77839W        W43066  14.561  11.730   0.009
77840W        W43067  40.522   7.405   2.400
77841W        W43068  33.077  21.472   4.735
77842W        W43069  12.080  13.125  12.191
77843W        W43070  24.834  38.773  13.549
77844W        W43071   7.192  17.036   0.257
77845W        W43072  14.562  28.308  13.438
77846W        W43073  29.192  36.248   5.388
77847W        W43074  12.954  13.829   0.830
77848W        W43075   4.977   2.255   2.860
77849W        W43076   5.213  42.100  13.952
77850W        W43077  30.198  24.763  11.696
77851W        W43078   7.142  43.814  11.717
77852W        W43079  41.453   6.671   1.235
77853W        W43080  19.091  10.688  11.109
77854W        W43081  14.203   1.516   1.876
77855W        W43082  32.398   6.993   0.480
77856W        W43083  13.998  33.120  13.901
77857W        W43084   0.441   7.184  13.751
77858W        W43085   4.598  13.845   4.712
77859W        W43086  15.886  15.709  14.876
77860W        W43087  34.358   3.380   1.390
77861W        W43088  23.793  44.328   0.991
77862W        W43089   8.972  28.973  11.011
77863W        W43090  12.998   6.270   0.907
77864W        W43091  44.964   6.640   1.158
77865W        W43092  14.765  23.619   2.945
77866W        W43093   0.540   4.889   4.332
77867W        W43094  14.739  25.696   2.368
77868W        W43095  23.588   4.201  14.373
77869W        W43096  16.252  34.179  14.483
77870W        W43097   9.230  36.144   4.676
77871W        W43098   7.047   1.875  12.197
77872W        W43099   9.756  18.177  12.502
77873W        W43100  23.230  23.666   3.582
77874W        W43101   6.824  21.069   4.887
77875W        W43102  28.457  30.464  14.959
77876W        W43103  36.448  14.580   4.694
77877W        W43104   6.008  34.356  11.981
77878W        W43105  10.754  41.476  11.187
77879W        W43106  38.088  15.968  12.667
77880W        W43107  31.460  14.853  14.029
77881W        W43108  22.776  15.620  14.923
77882W        W43109  21.518  29.956  14.244
77883W        W43110  13.507  40.548  12.093
77884W        W43111  40.537  25.311   3.708
77885W        W43112  15.059  14.284   1.736
77886W        W43113  21.701  22.516   0.479
77887W        W43114  42.836  43.256   0.869
77888W        W43115   7.783   9.540  11.696
77889W        W43116  20.558  20.447   4.342
77890W        W43117   8.864   8.990  11.663
77891W        W43118  23.156  15.073  13.260
77892W        W43119  44.073   0.407  13.144
77893W        W43120  15.327  44.818  13.388
77894W        W43121  18.515  34.377  12.987
77895W        W43122  18.872  44.223  14.991
77896W        W43123  36.273  13.823   2.220
77897W        W43124  18.242  30.250   2.818
77898W        W43125  40.266  29.810   4.208
77899W        W43126  43.497  22.605  14.798
77900W        W43127  41.580  21.540   1.346
77901W        W43128   6.279   7.187  10.330
77902W        W43129  30.648   6.638   3.335
77903W        W43130  28.687  32.349  14.895
77904W        W43131  25.563  17.916   5.098
77905W        W43132  39.427  12.598  13.197
77906W        W43133   0.353  13.507   1.351
77907W        W43134  17.387  19.780  13.700
77908W        W43135   3.432  23.208  13.762
77909W        W43136  31.133  42.574   0.891
77910W        W43137  21.258  10.678  13.480
77911W        W43138  22.101  21.806   3.728
77912W        W43139  20.172  26.039  10.364
77913W        W43140  39.009  13.080  12.502
77914W        W43141   5.041   2.675   3.793
77915W        W43142  21.490   7.963   3.142
77916W        W43143  21.761  15.710  12.019
77917W        W43144  16.865   6.155  13.090
77918W        W43145  41.602  25.927  11.170
77919W        W43146  42.557  12.274  10.601
77920W        W43147  12.076  17.793   1.977
77921W        W43148   8.122  25.562  14.002
77922W        W43149  34.518  23.106   4.126
77923W        W43150   1.237  18.745   2.223
77924W        W43151  22.717   0.965   1.259
77925W        W43152   7.752   9.297  13.312
77926W        W43153   9.325  38.407  11.155
77927W        W43154  36.100   6.335  10.664
77928W        W43155  42.796  11.455  14.423
77929W        W43156   2.751  24.865  11.052
77930W        W43157  15.300  40.496   1.446
77931W        W43158  19.175  42.974   0.337
77932W        W43159   5.378   6.909   3.853
77933W        W43160  20.796   7.134  11.866
77934W        W43161  40.370   0.487   0.277
77935W        W43162  22.561  13.834   1.691
77936W        W43163   0.909  14.680  13.031
77937W        W43164  40.196  40.607   0.855
77938W        W43165  38.386  44.612  12.978
77939W        W43166  44.931   4.765  13.088
77940W        W43167  36.767  16.113   0.430
77941W        W43168  27.568  10.960  12.682
77942W        W43169  22.460  32.695   2.707
77943W        W43170   3.813  41.779   1.484
77944W        W43171  38.301  28.469   0.512
77945W        W43172  17.110   5.897   4.479
77946W        W43173  35.356  20.608   1.953
77947W        W43174  13.663  13.101  14.065
77948W        W43175  36.677  27.616  11.619
77949W        W43176  32.576   2.267  10.681
77950W        W43177  21.201  26.246   2.336
77951W        W43178  13.660  14.775  14.082
77952W        W43179  26.403  22.660   3.728
77953W        W43180  44.522  18.567   3.547
77954W        W43181   3.429  16.321   1.837
77955W        W43182  39.815  16.744   0.061
77956W        W43183  39.889  36.366  14.537
77957W        W43184  19.135  35.898  12.543
77958W        W43185  31.759  20.178   1.837
77959W        W43186  22.966  18.139  13.571
77960W        W43187  36.091  22.679  10.371
77961W        W43188  24.466  27.674  13.499
77962W        W43189  10.596   9.091  14.757
77963W        W43190  37.847  16.781   2.315
77964W        W43191  12.264  33.585   1.412
77965W        W43192   2.971  33.784  12.009
77966W        W43193   4.256  28.968   0.208
77967W        W43194  42.142  20.130   9.694
77968W        W43195   8.568  38.321  12.103
77969W        W43196  36.302  30.334   0.882
77970W        W43197  11.711  13.357  11.866
77971W        W43198  20.028  13.803  11.524
77972W        W43199   2.896  23.580  12.138
77973W        W43200   9.799  38.546   3.899
77974W        W43201   6.592  20.502  12.094
77975W        W43202  39.669  16.538   2.485
77976W        W43203  12.617   1.142   3.814
77977W        W43204  16.205   6.532  13.790
77978W        W43205  39.885  36.021  11.067
77979W        W43206  32.447  32.629  14.380
77980W        W43207  14.208  19.226  14.331
77981W        W43208  36.745  26.464  11.073
77982W        W43209  14.915  27.548   4.249
77983W        W43210  35.265  34.558  14.411
77984W        W43211  41.489  38.036  10.578
77985W        W43212   5.494  12.759   4.311
77986W        W43213  39.207  42.883   0.709
77987W        W43214  33.340  11.171  13.843
77988W        W43215  36.416  18.003  14.921
77989W        W43216  31.645  24.667  12.506
77990W        W43217   7.436  13.203  13.010
77991W        W43218  39.331  38.831   0.875
77992W        W43219  36.948   3.827  12.688
77993W        W43220   7.848  33.599   3.237
77994W        W43221   4.632   4.835   1.448
77995W        W43222   2.415   4.806  13.094
77996W        W43223   5.072  13.149   5.001
77997W        W43224  34.141  20.287  13.146
77998W        W43225  25.560  15.139  12.611
77999W        W43226  37.454  15.585   2.806
78000W        W43227  40.509  24.261  14.409
78001W        W43228   4.148  43.700   1.402
78002W        W43229  38.058  14.723  13.068
78003W        W43230  29.527  32.713  12.078
78004W        W43231   0.940  41.567  11.296
78005W        W43232  11.657  16.198   4.237
78006W        W43233  10.707  26.246  12.578
78007W        W43234   9.713   8.689   0.803
78008W        W43235  21.556   4.865   4.253
78009W        W43236  39.964  23.812  13.320
78010W        W43237   0.770  42.360   0.338
78011W        W43238  18.727   8.858   0.280
78012W        W43239  43.230  28.669  13.514
78013W        W43240  18.784   8.305   1.481
78014W        W43241  18.762  44.136   0.497
78015W        W43242  28.226  20.363   3.723
78016W        W43243  42.862  20.853   1.107
78017W        W43244  43.698  43.437   0.219
78018W        W43245  44.746  36.325  14.857
78019W        W43246  12.869  28.161   3.292
78020W        W43247   0.011   7.663  10.513
78021W        W43248   9.304  30.321   5.032
78022W        W43249   3.803   7.269  12.095
78023W        W43250  21.228   4.028   2.313
78024W        W43251  11.390   4.886  10.210
78025W        W43252   4.850  17.550  14.292
78026W        W43253  24.536   7.449   2.771
78027W        W43254  29.301  19.055  12.021
78028W        W43255  41.611  42.467  12.545
78029W        W43256  44.521  19.051  14.536
78030W        W43257  39.889  14.324   2.711
78031W        W43258   3.731  31.657   1.429
78032W        W43259   2.460   1.967  11.533
78033W        W43260  14.772  39.388  11.872
78034W        W43261   5.294   3.390   2.472
78035W        W43262  39.470  21.136  11.756
78036W        W43263  27.020  19.783   4.109
78037W        W43264  20.240   4.730   3.677
78038W        W43265  19.993  21.589  10.418
78039W        W43266  20.511  38.925  11.006
78040W        W43267  30.488  22.984   0.378
78041W        W43268  10.302  34.050   4.012
78042W        W43269  38.120   7.707  13.508
78043W        W43270  27.158  15.083  12.640
78044W        W43271   2.763  32.581  14.394
78045W        W43272   4.134  14.256  12.594
78046W        W43273  36.147  16.136  14.772
78047W        W43274   4.246   7.638   4.344
78048W        W43275  38.742  31.876   4.950
78049W        W43276  37.403   8.144  13.370
78050W        W43277  11.395  21.190  12.058
78051W        W43278  44.563  14.236   1.756
78052W        W43279  40.843   4.862  13.471
78053W        W43280  12.148  36.319   1.484
78054W        W43281  42.995  16.968   0.318
78055W        W43282  29.073   2.830   1.866
78056W        W43283  25.111  23.555   2.619
78057W        W43284  24.424   8.818   1.182
78058W        W43285   0.219  28.286  13.103
78059W        W43286  30.737  43.307  13.808
78060W        W43287  43.916  43.152   2.868
78061W        W43288  35.130  13.883   0.265
78062W        W43289  40.188  14.363  12.013
78063W        W43290   8.909  42.285   1.856
78064W        W43291   0.927  34.065  14.873
78065W        W43292  34.551  25.633   2.316
78066W        W43293  17.665  14.564   3.669
78067W        W43294  22.595  29.367  11.171
78068W        W43295  36.751  24.672  11.231
78069W        W43296  37.708  10.922   4.641
78070W        W43297  14.404  15.660   2.424
78071W        W43298  12.602  22.821   4.138
78072W        W43299   0.498   8.938  13.920
78073W        W43300   2.176  31.600  10.601
78074W        W43301   7.760  18.510  12.542
78075W        W43302  43.360  16.976  13.501
78076W        W43303  37.106  29.189  11.123
78077W        W43304  24.101  23.658  12.642
78078W        W43305  22.262   7.126   1.319
78079W        W43306  26.165  16.227  11.385
78080W        W43307  24.562   8.410  11.586
78081W        W43308  25.739   8.118  12.066
78082W        W43309  14.940  40.385   1.820
78083W        W43310  22.069  39.355  10.749
78084W        W43311  12.656  22.196  11.044
78085W        W43312  26.462  16.059   4.298
78086W        W43313  29.999  34.061   0.465
78087W        W43314   1.991  37.579   0.824
78088W        W43315  26.711  12.678  13.423
78089W        W43316  36.795  36.167   2.745
78090W        W43317   5.946  14.624  11.630
78091W        W43318  18.286  41.917  10.660
78092W        W43319  25.179  15.361   1.509
78093W        W43320   4.756  39.868  14.020
78094W        W43321  28.149  13.035  11.871
78095W        W43322  14.860   4.638  10.253
78096W        W43323   4.534  43.958  14.920
78097W        W43324   3.937  29.270  11.203
78098W        W43325   6.552  23.208  14.462
78099W        W43326  11.599  19.753   1.405
78100W        W43327  21.639  16.207  13.789
78101W        W43328   9.401  27.245  12.384
78102W        W43329  27.063  20.988   1.596
78103W        W43330  18.817  32.480   1.352
78104W        W43331  20.221  44.809  11.455
78105W        W43332  15.001   6.976  11.138
78106W        W43333  24.175  15.352  10.613
78107W        W43334  13.181  14.201  11.238
78108W        W43335  24.585   5.645   3.170
78109W        W43336  26.226   2.305   3.148
78110W        W43337   5.397  21.655   1.116
78111W        W43338  24.289  39.241  10.319
78112W        W43339  42.590  34.039   0.343
78113W        W43340  31.410   7.841  11.923
78114W        W43341  20.321  30.532  14.569
78115W        W43342   1.061  44.514  14.946
78116W        W43343  36.733  26.965  10.586
78117W        W43344  28.762  19.055  13.189
78118W        W43345   8.622  21.170   4.276
78119W        W43346   1.376  26.096  11.847
78120W        W43347  15.051  33.428  11.901
78121W        W43348  11.168  10.359   2.239
78122W        W43349  35.842  36.324   1.340
78123W        W43350  10.540  25.500  10.704
78124W        W43351   4.912   5.699  12.091
78125W        W43352  19.678  32.576  11.589
78126W        W43353  42.041  40.977   3.433
78127W        W43354   5.626  26.984  12.920
78128W        W43355  17.558  36.558  11.594
78129W        W43356  11.792  40.274   1.592
78130W        W43357   2.089  22.441   0.854
78131W        W43358  12.117  27.513  13.997
78132W        W43359  31.404  37.338  12.546
78133W        W43360  38.327  40.746   1.855
78134W        W43361   7.014  27.695   3.151
78135W        W43362   6.713   7.214  13.862
78136W        W43363  29.110  32.894   2.257
78137W        W43364  42.279  18.314  12.117
78138W        W43365   6.638  39.870  10.699
78139W        W43366  35.454  41.470   4.041
78140W        W43367  37.088   1.497   1.362
78141W        W43368  32.872  43.474   3.993
78142W        W43369  39.032  28.113   3.282
78143W        W43370   1.857   1.972  12.896
78144W        W43371  19.116   1.737  10.675
78145W        W43372  22.112  20.689   3.987
78146W        W43373  36.025   5.675  11.958
78147W        W43374  22.518  41.372   3.157
78148W        W43375  25.979   5.206  11.012
78149W        W43376   9.272  26.790  11.698
78150W        W43377  12.694  42.082  13.817
78151W        W43378  21.622  12.156   4.873
78152W        W43379  14.383  13.084   1.463
78153W        W43380  22.525   5.693  12.949
78154W        W43381  40.602  17.468  13.884
78155W        W43382   8.942   4.254  11.068
78156W        W43383  21.613  37.076  13.511
78157W        W43384  28.696  13.158   3.240
78158W        W43385  18.182   2.972   2.781
78159W        W43386  21.762  15.580  12.952
78160W        W43387  31.153  18.651  14.533
78161W        W43388  30.890  35.073  12.555
78162W        W43389  44.205  34.814  11.582
78163W        W43390  41.957  43.664  11.123
78164W        W43391  33.547  12.159   4.266
78165W        W43392   8.674  33.251   0.392
78166W        W43393  22.534   7.351   3.738
78167W        W43394  42.981  20.444  12.944
78168W        W43395  43.272  25.951   4.144
78169W        W43396   0.928  25.654   2.587
78170W        W43397  28.642  21.142   0.912
78171W        W43398  40.822  43.248  14.693
78172W        W43399  38.285  32.983  11.581
78173W        W43400  32.998  34.070   3.272
78174W        W43401  11.868  31.741  14.007
78175W        W43402  23.659  33.345   1.567
78176W        W43403  25.084  24.566   4.222
78177W        W43404  42.023  44.761  11.882
78178W        W43405   4.342   0.279  14.020
78179W        W43406  19.811   6.341   3.659
78180W        W43407  19.325  21.674   0.604
78181W        W43408  44.840  16.539  12.637
78182W        W43409  24.467  36.861   4.803
78183W        W43410  27.070  34.008   0.479
78184W        W43411   9.400  23.683  11.685
78185W        W43412  25.522  40.050  11.076
78186W        W43413  20.388  32.016  12.228
78187W        W43414  39.263  43.565   0.285
78188W        W43415  29.687  42.564   4.233
78189W        W43416   3.355   7.292   0.728
78190W        W43417  22.613  43.534  12.485
78191W        W43418  44.842  42.756   4.178
78192W        W43419  29.735  39.937   1.676
78193W        W43420  39.792  37.187  11.562
78194W        W43421  24.202  16.134  14.493
78195W        W43422  18.142  34.939  11.500
78196W        W43423  27.189  36.100  11.968
78197W        W43424  32.175  26.758   2.600
78198W        W43425  23.484  18.378   1.966
78199W        W43426  10.224  40.287  14.500
78200W        W43427  21.276  41.431   2.785
78201W        W43428  13.707  19.366  11.599
78202W        W43429   0.910   5.744  12.559
78203W        W43430  29.409  20.757   1.816
78204W        W43431  29.856  16.766   0.403
78205W        W43432  22.966  25.128   3.289
78206W        W43433  36.547  19.732  11.997
78207W        W43434  11.630   1.907  14.033
78208W        W43435  28.376  41.511   3.433
78209W        W43436  10.944  31.574  14.931
78210W        W43437  34.229  28.062  14.338
78211W        W43438   6.566  29.402  11.282
78212W        W43439  15.308   7.391  14.503
78213W        W43440  39.947  35.984  10.535
78214W        W43441   5.673  14.151   4.824
78215W        W43442  28.286  44.069  14.729
78216W        W43443   5.972   3.899   2.223
78217W        W43444  44.806  41.640  13.953
78218W        W43445   6.586   8.698   4.970
78219W        W43446  43.837  24.195  11.140
78220W        W43447  31.289  16.377  11.130
78221W        W43448  12.004   6.236  13.038
78222W        W43449  41.465  30.172  13.888
78223W        W43450   7.563  20.144   2.345
78224W        W43451  43.819  38.931  14.850
78225W        W43452  42.568  40.558   4.779
78226W        W43453   8.341  24.995  11.971
78227W        W43454  34.519   6.893  13.792
78228W        W43455  36.399   5.512  14.496
78229W        W43456  35.581   8.469   3.260
78230W        W43457   5.868  31.435  12.381
78231W        W43458  39.720  11.435   2.833
78232W        W43459  27.824  23.785  11.775
78233W        W43460   3.011   1.965   4.276
78234W        W43461   4.460  26.434   3.683
78235W        W43462   0.546  12.253  11.626
78236W        W43463  17.784  11.806   2.370
78237W        W43464  30.408   1.131  12.877
78238W        W43465   8.602  44.290  11.019
78239W        W43466  15.329   9.848   3.599
78240W        W43467   8.099  11.096  14.842
78241W        W43468  17.828   7.133  14.903
78242W        W43469  13.279  44.999  10.736
78243W        W43470   0.250   7.204  10.479
78244W        W43471   6.350   9.370  10.679
78245W        W43472  18.248  19.040   4.185
78246W        W43473  34.264  14.276  12.061
78247W        W43474  28.207  40.732   1.960
78248W        W43475  14.714  17.593   4.805
78249W        W43476  34.911  21.153   4.466
78250W        W43477  41.908   4.412   2.668
78251W        W43478   1.827  12.898  12.443
78252W        W43479  38.007  29.477  10.385
78253W        W43480   8.736   1.627  14.943
78254W        W43481  11.260  19.012   2.132
78255W        W43482   2.546  25.611   0.548
78256W        W43483  35.594   0.445   2.838
78257W        W43484  33.565  13.413   2.574
78258W        W43485  26.783  41.342  12.996
78259W        W43486  11.085  42.401  13.879
78260W        W43487  27.573  39.842   0.741
78261W        W43488  10.763  38.087   3.562
78262W        W43489  30.877  10.886   3.334
78263W        W43490  13.404  11.413  14.937
78264W        W43491  33.639  30.764  13.956
78265W        W43492   1.393  16.943  11.917
78266W        W43493  36.098  22.076   1.244
78267W        W43494   8.842  23.722   3.700
78268W        W43495   8.740  40.413   2.596
78269W        W43496  38.864   8.652   1.883
78270W        W43497   9.769  10.817  13.421
78271W        W43498   5.542  44.882  12.201
78272W        W43499   5.805  32.976   1.705
78273W        W43500   1.921   2.462   2.661
78274W        W43501  38.108   7.861   4.009
78275W        W43502  25.133  24.501   2.361
78276W        W43503  12.556   5.408   0.457
78277W        W43504  24.015  20.931   1.400
78278W        W43505   5.151  22.594  14.704
78279W        W43506  30.716   5.488   2.388
78280W        W43507  34.723  29.002   0.949
78281W        W43508  31.516  36.221  13.372
78282W        W43509  10.316  40.523   3.446
78283W        W43510  23.707  25.791   3.222
78284W        W43511  16.265  33.609   3.156
78285W        W43512  18.030   4.002   2.947
78286W        W43513  41.322  40.374   3.176
78287W        W43514  11.891  36.656   0.232
78288W        W43515  28.553  10.554   0.896
78289W        W43516  36.217  16.555   3.673
78290W        W43517  36.861  21.231  14.217
78291W        W43518   7.756  29.738  14.303
78292W        W43519   8.147  41.564   1.264
78293W        W43520   7.233   6.344   2.433
78294W        W43521  41.688  38.506   3.156
78295W        W43522  40.998   0.939   4.854
78296W        W43523  17.120  19.528   1.370
78297W        W43524  14.639  41.962   5.033
78298W        W43525   6.337  33.147  13.271
78299W        W43526  16.177  26.143   5.131
78300W        W43527  15.382  29.618  13.890
78301W        W43528  25.870   4.696  12.759
78302W        W43529   9.853  25.807  10.152
78303W        W43530  12.451  19.521   4.943
78304W        W43531   5.729  18.961   3.665
78305W        W43532   0.894  16.337   4.204
78306W        W43533  16.149   7.138  14.770
78307W        W43534  23.142  21.640   4.378
78308W        W43535  32.768  12.772   5.052
78309W        W43536  26.146  23.283   0.430
78310W        W43537  20.442   9.121   1.037
78311W        W43538  11.272   5.280   1.695
78312W        W43539  14.728  13.834   3.899
78313W        W43540  11.708  21.727  11.053
78314W        W43541  44.289  14.085  11.182
78315W        W43542   4.390  18.655   1.315
78316W        W43543  28.185   6.911   4.617
78317W        W43544  11.605  43.943  12.887
78318W        W43545  36.914  14.782   0.869
78319W        W43546  36.780  30.402  13.376
78320W        W43547  40.308  42.886   2.646
78321W        W43548  35.003  10.894  13.305
78322W        W43549  18.406  13.741   3.714
78323W        W43550  42.791   7.436   1.005
78324W        W43551  26.998   4.049  14.280
78325W        W43552   3.532  34.685   0.302
78326W        W43553  27.547  32.210  11.159
78327W        W43554  21.458  29.149  13.015
78328W        W43555  25.969  17.204   3.310
78329W        W43556   8.441  44.032   4.994
78330W        W43557   0.451  14.201   0.522
78331W        W43558  25.585  42.299  13.814
78332W        W43559   9.417  33.388   5.611
78333W        W43560  33.089  11.128  12.108
78334W        W43561   8.988  17.262   1.212
78335W        W43562   5.932  42.986  12.374
78336W        W43563  27.209  12.659  13.550
78337W        W43564  15.796  42.024  13.933
78338W        W43565  27.127  36.501  13.904
78339W        W43566  22.464  30.512  10.763
78340W        W43567  37.552   1.846   2.909
78341W        W43568   6.962  26.566   4.256
78342W        W43569  28.019   1.318   4.089
78343W        W43570   1.935  42.327   2.238
78344W        W43571  44.585  13.326  12.598
78345W        W43572  20.490   5.695   4.231
78346W        W43573   5.374  35.874  13.006
78347W        W43574   1.674  19.839  10.785
78348W        W43575   1.024  43.499  14.664
78349W        W43576   1.114  43.921  14.321
78350W        W43577  20.206  11.407   3.576
78351W        W43578  23.498  23.631  12.595
78352W        W43579  31.582   0.010  13.644
78353W        W43580   8.771  30.874   4.620
78354W        W43581  11.016  11.309   3.128
78355W        W43582  22.050   6.800  11.044
78356W        W43583  15.110  42.601  10.909
78357W        W43584  44.671  37.868  13.367
78358W        W43585  17.239  43.268   2.275
78359W        W43586  26.035   6.427  12.333
78360W        W43587  23.073  17.380   0.864
78361W        W43588  41.455  25.297  14.398
78362W        W43589  27.976  27.668   2.888
78363W        W43590  18.611  12.281  11.594
78364W        W43591   3.779  40.311   1.620
78365W        W43592  36.148   3.264  13.425
78366W        W43593  39.051  18.303   2.011
78367W        W43594  40.466  32.593  13.681
78368W        W43595  36.354  32.058   3.390
78369W        W43596  32.583  15.107  12.501
78370W        W43597  18.350  20.127   3.659
78371W        W43598   4.281  15.794  12.189
78372W        W43599  18.810   0.856   0.873
78373W        W43600  42.416  23.152  10.944
78374W        W43601  15.459  14.143  14.546
78375W        W43602  28.940  28.233  12.204
78376W        W43603  39.541  41.829   1.797
78377W        W43604  24.736  36.513  10.843
78378W        W43605  43.365   0.844  10.909
78379W        W43606  23.983  24.482   2.679
78380W        W43607  21.563   3.051  11.272
78381W        W43608  18.408  15.534   2.861
78382W        W43609  17.669  11.004   2.657
78383W        W43610   0.797   3.111  14.282
78384W        W43611   5.019  27.813  13.496
78385W        W43612  27.966   5.981  13.453
78386W        W43613  25.009  33.471  11.586
78387W        W43614  32.258  30.674   3.688
78388W        W43615  34.640  31.030   3.700
78389W        W43616  11.924  24.168   1.827
78390W        W43617  44.773  31.445  14.789
78391W        W43618  34.514  34.633  11.274
78392W        W43619  32.035  21.522  13.303
78393W        W43620   3.967  28.706   3.299
78394W        W43621  14.182  39.359   1.347
78395W        W43622  31.818  37.553   2.809
78396W        W43623   2.276  34.787   1.828
78397W        W43624  21.572  32.961  14.706
78398W        W43625   2.557  25.247   0.187
78399W        W43626  19.222  36.026   1.859
78400W        W43627  32.482  21.949  13.933
78401W        W43628  32.572  26.359   1.240
78402W        W43629  24.120  38.931  10.713
78403W        W43630  43.966  43.207  12.258
78404W        W43631   5.772  39.771  14.086
78405W        W43632  29.920   3.391  10.915
78406W        W43633  26.181  13.588   3.890
78407W        W43634  15.091  30.608  11.444
78408W        W43635  12.648  22.657   2.164
78409W        W43636  41.978   3.960  12.790
78410W        W43637   5.159   5.282  11.651
78411W        W43638   2.699  41.388   0.748
78412W        W43639  40.375  37.004  12.085
78413W        W43640   0.734  44.546   2.819
78414W        W43641   9.126  26.403   4.524
78415W        W43642  41.120  20.497   3.796
78416W        W43643  20.508  34.688   3.740
78417W        W43644  25.985   8.768  13.678
78418W        W43645  43.768   6.186  11.209
78419W        W43646   5.307  25.612  14.507
78420W        W43647  17.056  32.315   2.691
78421W        W43648  14.367   2.954  14.365
78422W        W43649  22.953   8.224   0.677
78423W        W43650  41.571  39.543  12.805
78424W        W43651  13.517  35.907   3.776
78425W        W43652   8.857  13.690   1.130
78426W        W43653  15.969  38.926   2.411
78427W        W43654  38.143   2.398   2.806
78428W        W43655  42.489  36.070   4.755
78429W        W43656   8.792   8.466   4.640
78430W        W43657   7.200  31.984  13.876
78431W        W43658   5.494   8.274  11.496
78432W        W43659  41.571   2.662   1.690
78433W        W43660  19.700  24.099  14.750
78434W        W43661  41.103  40.513  11.657
78435W        W43662  12.798  29.041   4.570
78436W        W43663  18.780   5.447  14.985
78437W        W43664  25.955  35.658  14.319
78438W        W43665   2.962  23.135   4.708
78439W        W43666   2.986   5.989   3.070
78440W        W43667  38.888  19.984   3.233
78441W        W43668   4.726  24.115  11.605
78442W        W43669  22.214  15.625   1.683
78443W        W43670  13.495  40.869  14.320
78444W        W43671  35.785  37.693  10.230
78445W        W43672  24.951  40.924  12.076
78446W        W43673  12.143  21.236  14.996
78447W        W43674  44.375  43.818   3.447
78448W        W43675   7.277  24.393   1.349
78449W        W43676   9.784  26.707  13.447
78450W        W43677  12.216  34.868  13.383
78451W        W43678  38.237   4.007   3.162
78452W        W43679   7.829   5.769  13.843
78453W        W43680  15.033  31.189   3.776
78454W        W43681   9.761  37.575  12.372
78455W        W43682  10.788  10.108  13.924
78456W        W43683  30.685  28.584  11.638
78457W        W43684   1.435   4.162  13.812
78458W        W43685  30.583  29.407   2.184
78459W        W43686  43.822   2.805  12.144
78460W        W43687  26.662  15.229   1.585
78461W        W43688  42.795  33.950   2.925
78462W        W43689  37.411  13.108   5.037
78463W        W43690  24.010  14.207   3.498
78464W        W43691   7.215  25.609  13.335
78465W        W43692  41.281  38.718  11.427
78466W        W43693   5.221  20.991  14.738
78467W        W43694  24.976  30.986   2.253
78468W        W43695   1.359  13.353  12.138
78469W        W43696  30.469  44.855   2.675
78470W        W43697  32.321  43.300   1.803
78471W        W43698  12.662  28.610  14.341
78472W        W43699   2.290  26.937  12.417
78473W        W43700  28.597   1.516  10.916
78474W        W43701  17.811  23.599   2.199
78475W        W43702  19.096  19.603   3.501
78476W        W43703  36.726  12.003  11.616
78477W        W43704  15.355   2.088   1.273
78478W        W43705  31.557  24.523   3.900
78479W        W43706   4.962  33.868   0.571
78480W        W43707  20.457  23.013  13.562
78481W        W43708   4.744  15.304   2.155
78482W        W43709  24.402  44.696   2.132
78483W        W43710  25.588   6.874  13.344
78484W        W43711   5.236   0.509  13.821
78485W        W43712  40.924   0.310   1.552
78486W        W43713  17.278  22.080   3.989
78487W        W43714   7.978  10.659  13.468
78488W        W43715  28.207  16.062   2.894
78489W        W43716  11.185  23.128  10.800
78490W        W43717  16.280  43.987   0.797
78491W        W43718  33.355   5.646   2.924
78492W        W43719  32.491  43.332   0.708
78493W        W43720   8.530  31.504   2.126
78494W        W43721  29.415  31.133   4.796
78495W        W43722  22.050  41.762   0.002
78496W        W43723  38.899  28.452   4.170
78497W        W43724   2.403  39.405   2.472
78498W        W43725  41.501  33.343  11.570
78499W        W43726  25.136  19.740  14.082
78500W        W43727  20.310  12.186  14.437
78501W        W43728  18.624  33.433  12.303
78502W        W43729   6.298  30.376   2.580
78503W        W43730  30.552  25.509  10.259
78504W        W43731  35.857   3.382   1.192
78505W        W43732   8.506   3.313   4.149
78506W        W43733  27.278  27.176   3.151
78507W        W43734   0.992   4.935   0.237
78508W        W43735   6.336  21.504  11.205
78509W        W43736  33.398  13.671  14.435
78510W        W43737  26.045  35.008   2.469
78511W        W43738  23.778   5.177   1.192
78512W        W43739  29.427  14.377  11.890
78513W        W43740  25.183  25.660   5.106
78514W        W43741  33.951  21.096   2.702
78515W        W43742  14.943   2.584  14.936
78516W        W43743  31.531   0.903  10.914
78517W        W43744   6.605  10.575  14.285
78518W        W43745  28.666  11.597   4.501
78519W        W43746  20.154   9.081   4.068
78520W        W43747   0.236  36.650   3.217
78521W        W43748  12.682   3.193  14.624
78522W        W43749  34.384  25.441  13.945
78523W        W43750  42.479  25.987   2.139
78524W        W43751  43.008  32.002   0.818
78525W        W43752  29.016  26.493   3.543
78526W        W43753  14.125  19.177  11.820
78527W        W43754  41.317  37.445  14.477
78528W        W43755  35.804  44.249   0.754
78529W        W43756  36.877  34.051  12.561
78530W        W43757  10.424   3.407   4.363
78531W        W43758  12.190  18.649  11.212
78532W        W43759  16.310  34.389  11.460
78533W        W43760  19.246  32.145   4.674
78534W        W43761  11.370  34.825   3.707
78535W        W43762   6.219  25.954   0.257
78536W        W43763  12.134  16.735  14.775
78537W        W43764  17.299  35.151  13.829
78538W        W43765  33.968  36.244   4.153
78539W        W43766  36.626  29.981  13.128
78540W        W43767   6.275  13.102  13.875
78541W        W43768  15.873  11.366  14.860
78542W        W43769  24.215   7.594  11.984
78543W        W43770   0.792  29.513   1.341
78544W        W43771   7.338  33.140   3.590
78545W        W43772  40.911  43.028   4.904
78546W        W43773   6.174  14.304   4.075
78547W        W43774  17.210  34.962   1.200
78548W        W43775  12.311   8.728   3.383
78549W        W43776   2.241  22.255   3.314
78550W        W43777  28.582  24.694   3.322
78551W        W43778  43.059   0.412  14.545
78552W        W43779   8.740  32.052  10.947
78553W        W43780  28.207  14.746   3.015
78554W        W43781  35.885   5.892   4.188
78555W        W43782  42.056  42.542   1.883
78556W        W43783  30.048  21.898   3.277
78557W        W43784  22.295  16.498   2.707
78558W        W43785  37.507   9.936   1.427
78559W        W43786  12.774   0.438   4.477
78560W        W43787  31.365  44.500   3.927
78561W        W43788  16.758  35.417   0.900
78562W        W43789  16.274   0.460  10.842
78563W        W43790  20.219  24.253  14.702
78564W        W43791  18.694  33.407   0.318
78565W        W43792  14.608  20.758  10.759
78566W        W43793  13.206  33.834   1.243
78567W        W43794   6.803  19.097  14.821
78568W        W43795  15.468   1.388  11.527
78569W        W43796  25.721   5.676  11.036
78570W        W43797  25.219  29.182   1.958
78571W        W43798  24.058  44.833   3.086
78572W        W43799  29.943  21.611   1.734
78573W        W43800   6.832  31.859   1.809
78574W        W43801  40.507  38.938   3.288
78575W        W43802  17.727  28.727  14.152
78576W        W43803  37.744  37.852  14.906
78577W        W43804  29.245  37.647   3.509
78578W        W43805   0.407  41.014   3.530
78579W        W43806   0.760  34.000  14.337
78580W        W43807  20.271   9.845   3.742
78581W        W43808  38.916  11.621   5.062
78582W        W43809  26.785  22.563   4.147
78583W        W43810  39.339  14.088   4.120
78584W        W43811   4.423  44.966  13.598
78585W        W43812  18.415   1.388  13.469
78586W        W43813  15.101  30.463  13.334
78587W        W43814  26.188  14.523  12.431
78588W        W43815  32.161   4.521   1.747
78589W        W43816  30.592   0.462  12.537
78590W        W43817  30.557   6.499  12.914
78591W        W43818   6.028  12.575  11.710
78592W        W43819  14.381  43.260  14.357
78593W        W43820  24.986  40.563  13.922
78594W        W43821  24.583  13.822  12.121
78595W        W43822  10.800  20.635   3.263
78596W        W43823  41.930  41.048   0.813
78597W        W43824  22.243  33.530   0.053
78598W        W43825  14.255  43.978  13.233
78599W        W43826   4.677  10.805  14.688
78600W        W43827  34.036   5.183  11.060
78601W        W43828  31.223  30.103  13.471
78602W        W43829  19.389  12.260  11.072
78603W        W43830  30.794  20.343   4.554
78604W        W43831  34.874   7.461  11.590
78605W        W43832  40.551  18.538  12.206
78606W        W43833  15.292  42.772  14.029
78607W        W43834  29.431  32.552  14.392
78608W        W43835  40.677  22.751  11.154
78609W        W43836  22.693   6.288  12.427
78610W        W43837   4.944  26.675  11.634
78611W        W43838   6.318  17.281   2.739
78612W        W43839  29.652  16.257  13.620
78613W        W43840  30.583  35.652   0.751
78614W        W43841  32.320   5.297   3.162
78615W        W43842   6.616  20.780  11.654
78616W        W43843  21.112  28.777  13.113
78617W        W43844   6.418  41.273   3.753
78618W        W43845   4.359  33.874   2.374
78619W        W43846   4.421  33.040   1.848
78620W        W43847  29.424  38.890   3.131
78621W        W43848   0.984  22.956   5.572
78622W        W43849  37.088   7.398   1.964
78623W        W43850  16.057  30.997  11.267
78624W        W43851  37.588  31.356  13.677
78625W        W43852  25.110  36.387   1.951
78626W        W43853  12.196  11.710   0.357
78627W        W43854  26.680  38.075  14.941
78628W        W43855  10.362  36.574  13.754
78629W        W43856   5.647  35.919   1.308
78630W        W43857  24.186  32.997  10.777
78631W        W43858  13.630  16.613  10.674
78632W        W43859   8.988   0.177   1.005
78633W        W43860  25.685  18.506   4.075
78634W        W43861  39.817  13.549   3.546
78635W        W43862  27.194  38.402  13.392
78636W        W43863  22.917  25.678  11.386
78637W        W43864  32.398  14.173   1.036
78638W        W43865  13.186  25.654  14.893
78639W        W43866  21.590   2.913  14.626
78640W        W43867  17.873   7.748  10.834
78641W        W43868   4.960   8.827   1.689
78642W        W43869   3.123   0.463   0.623
78643W        W43870  34.202  39.351  12.272
78644W        W43871  21.133   2.212   1.261
78645W        W43872  36.320  15.242  10.779
78646W        W43873   9.731  40.095   3.702
78647W        W43874  33.280   0.542   0.385
78648W        W43875  38.535  38.006   0.369
78649W        W43876   6.360  17.781   1.710
78650W        W43877  32.161   1.727  12.569
78651W        W43878  43.570  38.067   0.708
78652W        W43879  26.993  39.247  11.508
78653W        W43880   4.313  29.405  11.964
78654W        W43881   2.681   1.893  11.092
78655W        W43882  26.923  31.851  12.736
78656W        W43883  39.017   6.722   0.551
78657W        W43884  28.053  36.137   3.133
78658W        W43885   7.435   5.224  14.631
78659W        W43886  14.356  24.733   0.746
78660W        W43887  43.416  38.270   4.913
78661W        W43888  13.686   0.222   4.197
78662W        W43889  42.316  28.185  14.922
78663W        W43890  41.322  20.294  12.528
78664W        W43891   4.935   4.731   1.872
78665W        W43892  43.988   9.569  13.063
78666W        W43893  19.007   7.948   2.423
78667W        W43894   3.287  40.892  11.969
78668W        W43895  34.679  17.650   4.253
78669W        W43896  44.007  12.064   2.898
78670W        W43897  14.555  42.947   0.874
78671W        W43898  18.197  28.953  12.602
78672W        W43899  18.656  31.298   4.666
78673W        W43900  16.282  17.701   2.441
78674W        W43901  22.981  15.193  13.754
78675W        W43902  18.833  25.958   4.104
78676W        W43903  33.104  23.162   3.555
78677W        W43904  32.166   5.307  13.535
78678W        W43905  26.012  11.545   1.142
78679W        W43906  29.000  38.021   3.207
78680W        W43907  33.474  44.027   0.288
78681W        W43908  19.666  14.307   4.138
78682W        W43909  43.389  40.816   2.246
78683W        W43910  11.735  15.832  14.261
78684W        W43911  40.992   2.394  14.718
78685W        W43912  42.817  28.399  13.325
78686W        W43913  31.465  40.349   1.615
78687W        W43914  12.223  18.374  14.984
78688W        W43915   9.625  39.822  12.131
78689W        W43916   5.790  22.158   0.474
78690W        W43917  27.586   6.404   1.961
78691W        W43918  43.490  16.856   3.827
78692W        W43919  26.272  24.795   3.692
78693W        W43920  24.476  20.021   0.295
78694W        W43921  19.795   2.621   2.218
78695W        W43922   1.201   8.526   2.891
78696W        W43923   8.141  17.920   3.909
78697W        W43924  18.031  36.826  12.927
78698W        W43925  33.576  37.435   1.383
78699W        W43926  25.644  36.756   1.984
78700W        W43927   5.535  12.686  11.601
78701W        W43928  39.399   8.365   0.738
78702W        W43929  29.501   3.110  11.810
78703W        W43930  27.050  22.929   1.434
78704W        W43931   2.019  14.324  11.618
78705W        W43932   1.397   5.937  12.636
78706W        W43933  28.985  11.247   3.331
78707W        W43934   2.048  24.795  12.581
78708W        W43935  13.977  35.628  12.815
78709W        W43936  12.384   1.255   2.685
78710W        W43937   7.361  19.203  12.302
78711W        W43938  37.310  17.807  11.165
78712W        W43939  36.583  17.270   0.489
78713W        W43940  34.363  14.119   0.896
78714W        W43941   7.173  34.151  12.339
78715W        W43942  10.827  12.486   4.219
78716W        W43943  16.762   7.653  13.105
78717W        W43944   5.587  28.253   5.584
78718W        W43945  12.132  12.573  14.784
78719W        W43946  41.849  40.044  10.838
78720W        W43947   5.754  13.728   1.437
78721W        W43948   1.495  26.807  11.365
78722W        W43949  25.189  26.144  14.706
78723W        W43950   4.935  15.708  12.903
78724W        W43951  18.678  15.085  13.349
78725W        W43952  16.898  37.037  14.054
78726W        W43953   1.014   0.462  12.872
78727W        W43954  22.787  27.887  12.922
78728W        W43955  16.834  39.426  10.511
78729W        W43956   6.791  23.485  11.184
78730W        W43957   0.513  38.953  12.725
78731W        W43958  20.414  16.142   1.003
78732W        W43959  20.583  36.147  12.182
78733W        W43960  32.598  24.407  14.365
78734W        W43961  15.144  37.937  10.985
78735W        W43962  28.179  10.216   1.221
78736W        W43963   2.281  14.715  14.317
78737W        W43964  21.128  34.573   0.787
78738W        W43965  22.971  19.269  12.025
78739W        W43966  19.520  19.707  11.179
78740W        W43967  14.154  22.196   1.697
78741W        W43968  26.723  39.168  14.434
78742W        W43969   7.867  27.453  11.990
78743W        W43970  17.691   8.667   2.151
78744W        W43971  20.282  25.541  14.462
78745W        W43972  21.461   4.387   4.519
78746W        W43973  22.773  39.546   1.727
78747W        W43974  33.756  18.347   9.785
78748W        W43975  33.917  14.849   3.186
78749W        W43976  14.705  42.239  10.635
78750W        W43977  34.539  29.572   4.863
78751W        W43978  16.717   3.923   4.610
78752W        W43979  21.667  14.351  11.719
78753W        W43980  16.803  20.904  13.072
78754W        W43981  39.022  11.727   0.872
78755W        W43982  22.017  15.636   0.199
78756W        W43983  27.759  29.893   3.691
78757W        W43984  31.769  44.076   4.878
78758W        W43985   1.179  17.554   3.177
78759W        W43986  34.541  42.507  14.543
78760W        W43987  25.076  13.035  10.783
78761W        W43988   7.815   8.089  14.162
78762W        W43989   7.600   6.833  11.918
78763W        W43990  40.224  17.264  10.588
78764W        W43991  40.892  14.183   0.263
78765W        W43992  23.475  32.340  14.806
78766W        W43993  32.674  40.906  11.610
78767W        W43994  44.322  12.062  10.215
78768W        W43995  10.961  23.131   4.342
78769W        W43996  39.802  43.412  11.025
78770W        W43997   6.232  33.296   0.922
78771W        W43998  23.510  39.397   4.557
78772W        W43999  24.610  40.340   4.627
78773W        W44000  14.014   0.287  13.596
78774W        W44001   5.994  12.394   1.198
78775W        W44002  21.030  24.170   2.219
78776W        W44003   3.434  17.087  13.571
78777W        W44004  11.178   7.835   1.362
78778W        W44005  13.227  44.271  14.493
78779W        W44006  17.282  32.012  11.333
78780W        W44007  16.079   9.793  12.933
78781W        W44008  23.253  40.148   3.042
78782W        W44009  21.012  26.758  13.640
78783W        W44010  34.434   8.620  14.878
78784W        W44011   5.977  34.937   1.852
78785W        W44012  34.972   8.299  11.921
78786W        W44013  16.745  30.238  12.715
78787W        W44014   6.818  19.060   2.325
78788W        W44015  18.666  14.268   3.065
78789W        W44016  38.094  11.812   2.754
78790W        W44017  40.338  20.298   0.463
78791W        W44018  39.557  20.619   1.928
78792W        W44019  26.566   1.402  10.952
78793W        W44020   2.729  16.588   0.354
78794W        W44021  18.178  28.969  11.563
78795W        W44022  20.095  27.869  12.234
78796W        W44023   5.667  40.286  14.000
78797W        W44024   1.242  36.611  14.894
78798W        W44025  15.315  40.405  11.627
78799W        W44026   6.113  33.401   5.250
78800W        W44027  26.802  40.047   3.237
78801W        W44028  18.951  16.094   0.852
78802W        W44029  30.381   4.139   0.012
78803W        W44030  22.036   7.208  13.563
78804W        W44031  30.909   1.389  13.551
78805W        W44032  17.243  44.302   3.304
78806W        W44033  17.530  16.338   1.276
78807W        W44034  29.704  37.618   0.113
78808W        W44035  38.344  39.317   4.163
78809W        W44036   2.574  14.135  11.582
78810W        W44037  33.663  31.601  10.402
78811W        W44038  15.874  19.974  13.840
78812W        W44039  15.829  41.824   4.028
78813W        W44040  30.311  19.321  14.122
78814W        W44041  12.306   5.940   1.620
78815W        W44042  37.147  13.354   0.905
78816W        W44043  15.483  30.776   4.162
78817W        W44044  25.564   5.002   4.504
78818W        W44045  25.316   9.859   2.138
78819W        W44046  14.867  32.170  11.590
78820W        W44047  14.714  37.508   3.234
78821W        W44048  42.706  23.212  12.992
78822W        W44049  33.128  38.149   2.847
78823W        W44050  19.208  16.689  13.982
78824W        W44051  15.334  37.823   3.106
78825W        W44052   2.669  10.186   0.892
78826W        W44053  24.538   7.258  12.572
78827W        W44054   7.267  36.376   0.555
78828W        W44055  39.271   7.830  11.454
78829W        W44056  31.940  24.716  12.083
78830W        W44057  39.556  28.683   1.025
78831W        W44058  43.301  27.570  14.256
78832W        W44059  34.835  15.685  12.064
78833W        W44060  30.652  41.419   0.226
78834W        W44061  33.064  24.738   4.110
78835W        W44062  24.345  21.027   3.651
78836W        W44063  29.379  19.247   1.950
78837W        W44064  33.041  12.189   0.407
78838W        W44065  16.878  36.368   4.699
78839W        W44066  34.695  21.249   2.349
78840W        W44067  26.041  44.613  12.950
78841W        W44068  36.116   0.318   0.299
78842W        W44069   8.614   6.701  13.873
78843W        W44070   8.308  19.888  14.103
78844W        W44071   4.835   1.339   2.930
78845W        W44072  34.402  24.284   2.367
78846W        W44073  20.553   4.298  13.042
78847W        W44074   0.817   8.623  13.634
78848W        W44075   2.217  24.719   9.867
78849W        W44076  21.629  32.440  14.419
78850W        W44077  20.237  21.340   0.250
78851W        W44078  29.345  11.210   0.268
78852W        W44079  33.096  14.074   2.174
78853W        W44080  26.199   5.241  14.404
78854W        W44081  10.393  31.926  13.432
78855W        W44082   5.327   1.729   1.710
78856W        W44083  35.346  32.653  11.561
78857W        W44084  39.575  24.995  11.036
78858W        W44085  24.877  15.150  12.157
78859W        W44086  16.669   9.381  10.738
78860W        W44087  33.930  39.781   3.416
78861W        W44088  21.641   5.207  10.795
78862W        W44089  26.033  34.174  12.004
78863W        W44090  42.787  23.033  10.618
78864W        W44091   8.824  18.730  11.468
78865W        W44092  21.605   2.442   0.467
78866W        W44093  22.299  23.177  14.160
78867W        W44094  29.242  32.795  11.346
78868W        W44095  19.357  25.720  11.059
78869W        W44096  27.066  17.320   2.396
78870W        W44097  42.303  24.625   2.528
78871W        W44098  13.635  32.139  12.036
78872W        W44099   8.534  30.318   0.804
78873W        W44100  40.811  15.179   1.948
78874W        W44101  28.036   2.438   2.322
78875W        W44102  41.899  22.754  12.038
78876W        W44103  25.137  34.998   0.930
78877W        W44104  19.165  20.363   4.717
78878W        W44105   2.227  32.448   1.834
78879W        W44106  12.117  37.049  10.599
78880W        W44107  33.200   8.225  11.987
78881W        W44108  22.089  44.167   0.284
78882W        W44109   7.497  12.820  13.370
78883W        W44110  28.383  17.283   4.315
78884W        W44111   2.901  22.548  13.586
78885W        W44112  12.831  40.418   0.172
78886W        W44113  17.447   7.455  12.831
78887W        W44114  12.340   9.026  14.793
78888W        W44115  17.124  37.341   3.207
78889W        W44116  27.431  42.766   1.634
78890W        W44117  26.266  26.401   2.825
78891W        W44118   8.425   0.441   4.204
78892W        W44119  20.221  38.828  10.598
78893W        W44120  12.751  35.466  10.186
78894W        W44121   1.096  31.512  14.529
78895W        W44122  34.144  21.073   0.839
78896W        W44123  15.815  42.304   4.225
78897W        W44124  28.943  20.783  10.556
78898W        W44125   6.362  39.293   1.285
78899W        W44126  38.662  41.555   0.440
78900W        W44127  22.204  17.479   3.703
78901W        W44128  41.520  29.337   0.387
78902W        W44129   2.355  32.172  14.514
78903W        W44130   9.423  13.999  11.204
78904W        W44131  16.327  32.977  12.938
78905W        W44132  11.846  24.199   3.877
78906W        W44133  39.897  13.328   1.793
78907W        W44134  25.055  27.928   3.334
78908W        W44135  22.649  10.720   2.399
78909W        W44136  40.223  18.717   0.772
78910W        W44137  35.369  32.583   0.863
78911W        W44138   5.955  33.491  13.144
78912W        W44139   4.866  37.610  11.199
78913W        W44140  14.941  17.265   4.016
78914W        W44141  26.051   6.044  10.880
78915W        W44142  12.342  16.709  13.236
78916W        W44143  13.705  36.946   1.178
78917W        W44144  41.882  24.133  12.050
78918W        W44145  41.981   1.411  11.006
78919W        W44146  33.850  33.114   1.315
78920W        W44147  15.214   8.301  11.115
78921W        W44148  16.476  14.592   0.671
78922W        W44149  17.119  37.417   4.809
78923W        W44150  43.355   0.074  11.882
78924W        W44151  32.579  15.111   4.023
78925W        W44152  22.748  34.699   4.190
78926W        W44153  14.370  21.598   2.687
78927W        W44154  33.967  35.406  11.244
78928W        W44155  33.486  43.965  12.653
78929W        W44156  27.323  43.606   2.368
78930W        W44157  39.528  41.963   0.805
78931W        W44158  38.107  33.464   2.247
78932W        W44159  40.085  23.467   2.174
78933W        W44160  33.603   8.856  10.499
78934W        W44161  18.237   8.697  10.440
78935W        W44162  13.922   8.165   4.178
78936W        W44163   6.598  40.891  13.418
78937W        W44164  38.069  18.563  14.397
78938W        W44165   6.257  27.528  10.940
78939W        W44166  28.635  12.334   3.750
78940W        W44167  43.270  37.661  12.428
78941W        W44168  11.297  43.382  10.655
78942W        W44169  27.378  14.670   0.062
78943W        W44170  16.090  15.052   4.813
78944W        W44171  13.299  13.064  12.030
78945W        W44172   6.433   4.024   0.800
78946W        W44173  21.953  26.932   3.290
78947W        W44174  15.349  29.127   0.410
78948W        W44175   0.858  32.359   2.853
78949W        W44176   9.269  24.384  11.975
78950W        W44177   1.743  32.780  12.866
78951W        W44178  40.997  16.125  11.396
78952W        W44179  41.733  34.026   4.516
78953W        W44180  27.213  28.028   3.091
78954W        W44181   8.640   6.465   0.451
78955W        W44182   3.146   6.842   1.715
78956W        W44183  18.329   4.963   1.401
78957W        W44184  39.831   5.492  13.411
78958W        W44185  44.353  32.502  12.549
78959W        W44186   2.764  21.276  10.553
78960W        W44187   2.201   3.007   1.417
78961W        W44188  31.970  13.988  11.031
78962W        W44189  35.140  41.893   0.536
78963W        W44190   9.186  36.344  12.422
78964W        W44191  40.612  41.312  14.460
78965W        W44192  28.265   7.222  13.158
78966W        W44193  36.186  16.720   0.833
78967W        W44194  43.373   5.410  14.956
78968W        W44195  44.931  29.267   2.113
78969W        W44196  27.869  30.403   1.288
78970W        W44197  36.217  17.186  12.024
78971W        W44198  13.119  29.183  11.267
78972W        W44199  37.818   8.941  12.919
78973W        W44200   2.106  13.249  13.546
78974W        W44201  26.633  37.042  10.726
78975W        W44202   8.135  40.847   0.784
78976W        W44203  22.003  23.769  12.719
78977W        W44204  15.480   5.302   0.265
78978W        W44205  10.355  23.760   0.778
78979W        W44206  12.411  15.191  11.537
78980W        W44207  24.961  39.894  12.028
78981W        W44208  40.625  30.588  10.207
78982W        W44209  31.062  30.694  13.319
78983W        W44210  24.005  27.717   4.755
78984W        W44211  12.663  21.922   1.468
78985W        W44212  21.729  14.513   4.076
78986W        W44213   1.718  23.001  14.946
78987W        W44214   0.480  36.562   3.687
78988W        W44215  38.045  23.151  13.540
78989W        W44216  22.575  33.191   1.279
78990W        W44217  12.805  14.554  14.327
78991W        W44218  24.100  38.234   3.106
78992W        W44219  40.846  26.247   0.304
78993W        W44220   0.321  42.325  14.514
78994W        W44221   0.961  36.272  12.512
78995W        W44222   7.905  18.214  14.045
78996W        W44223  35.095  29.293   2.397
78997W        W44224  33.938   8.320   0.366
78998W        W44225  18.763  17.222   4.553
78999W        W44226   9.653  30.101   2.278
79000W        W44227   8.095  14.601  11.089
79001W        W44228   1.764  19.655  12.194
79002W        W44229  43.708  20.589  10.658
79003W        W44230  28.065   2.824   0.957
79004W        W44231  39.017  26.217   2.139
79005W        W44232  26.699  33.678   0.305
79006W        W44233  15.297  30.150   3.753
79007W        W44234  16.230  26.004   0.695
79008W        W44235  30.975  15.977   0.948
79009W        W44236  38.905  29.033  10.607
79010W        W44237  16.240  23.496   2.157
79011W        W44238  43.760  35.369   2.687
79012W        W44239   8.469  28.787  14.911
79013W        W44240  25.242  28.006  12.432
79014W        W44241  12.936  36.312  13.337
79015W        W44242  43.862   6.181   4.670
79016W        W44243   2.774   0.786  10.369
79017W        W44244  38.280  42.263  11.552
79018W        W44245  30.237  42.438   1.958
79019W        W44246  42.538  26.525   3.244
79020W        W44247  16.151  31.353   4.602
79021W        W44248   5.557   1.809   3.538
79022W        W44249  20.119  30.994   2.852
79023W        W44250   9.469  44.354   2.488
79024W        W44251  33.891   3.235  11.212
79025W        W44252  12.138  34.625   1.276
79026W        W44253  26.872  32.294  12.491
79027W        W44254  28.650  25.443  12.399
79028W        W44255  16.793   6.232   2.847
79029W        W44256  20.127  30.875  11.159
79030W        W44257  13.364  37.106  14.836
79031W        W44258  16.529  32.081  13.189
79032W        W44259   7.201  21.151   4.042
79033W        W44260  37.629   9.831  10.229
79034W        W44261  29.856  43.363  13.554
79035W        W44262  20.575  44.439  14.511
79036W        W44263  15.092   9.808   1.785
79037W        W44264  17.132  30.289   2.205
79038W        W44265   5.455  42.385  13.589
79039W        W44266  14.050  21.669   2.297
79040W        W44267  22.308  14.110  13.875
79041W        W44268  15.318  34.545   3.723
79042W        W44269  12.489   2.288  11.591
79043W        W44270  26.146   1.882  10.371
79044W        W44271  16.142  34.436  12.400
79045W        W44272  41.288   6.819  13.450
79046W        W44273  16.648   8.410   3.306
79047W        W44274  13.519  18.697   3.865
79048W        W44275  30.638  12.746  13.740
79049W        W44276   5.828  27.454  12.115
79050W        W44277  34.080  22.469   1.341
79051W        W44278  13.121   1.730  14.794
79052W        W44279  23.514  39.105   3.324
79053W        W44280  13.382   9.345  12.529
79054W        W44281  25.953   1.666  13.092
79055W        W44282  33.194  21.162   2.224
79056W        W44283  18.152  15.379  12.619
79057W        W44284   4.968   7.201  10.708
79058W        W44285  33.353   9.925   1.965
79059W        W44286  39.535  39.562  11.107
79060W        W44287   3.765  29.843  14.504
79061W        W44288  28.154   9.312   4.593
79062W        W44289  42.533  27.597  13.545
79063W        W44290  37.080  41.289   4.892
79064W        W44291  34.914  15.601   3.176
79065W        W44292  26.418  41.635  13.925
79066W        W44293  31.187   1.950   4.162
79067W        W44294   4.971  11.432   3.787
79068W        W44295  15.103  44.759   0.499
79069W        W44296  13.954  27.450  12.179
79070W        W44297   6.381  19.465  11.167
79071W        W44298   4.609  33.917   3.842
79072W        W44299   5.475  10.547   2.880
79073W        W44300  32.036  27.811   1.855
79074W        W44301   8.381  10.820  12.203
79075W        W44302  28.583  21.077   3.275
79076W        W44303  37.959  31.601   1.157
79077W        W44304  30.920  23.624  11.579
79078W        W44305  28.747  35.459  14.787
79079W        W44306  10.850  14.275   4.697
79080W        W44307  37.931  33.002  11.079
79081W        W44308  21.243   0.432   1.483
79082W        W44309   7.380  17.586   4.110
79083W        W44310  18.275  27.731  13.434
79084W        W44311   0.994  21.667  10.823
79085W        W44312  31.549  16.111   1.263
79086W        W44313   1.748  26.573   2.484
79087W        W44314  32.118  19.952  13.846
79088W        W44315  15.623  27.107   4.311
79089W        W44316   4.134  41.361   3.891
79090W        W44317   3.286  24.244   1.047
79091W        W44318   2.679  26.742  12.104
79092W        W44319  35.941   7.128  14.809
79093W        W44320  27.612  27.588  12.274
79094W        W44321  10.206  38.035   4.909
79095W        W44322   3.925   9.214   2.303
79096W        W44323  21.924  28.923  13.286
79097W        W44324  40.494  28.572   1.989
79098W        W44325  23.443  30.134  10.722
79099W        W44326  29.713   2.477  10.657
79100W        W44327  19.583  32.314   5.040
79101W        W44328  37.297  12.367  12.988
79102W        W44329  16.037  34.618   4.568
79103W        W44330  30.330  24.419   4.563
79104W        W44331  38.888  25.442  10.610
79105W        W44332   4.770  14.211   3.888
79106W        W44333  26.334  17.568   3.250
79107W        W44334  18.561  26.415   4.076
79108W        W44335  13.907  12.688   0.888
79109W        W44336  16.976  42.906  10.754
79110W        W44337  24.259   6.735  13.019
79111W        W44338  30.908  15.386   4.435
79112W        W44339  39.475  35.800   0.044
79113W        W44340  41.088  44.996  10.560
79114W        W44341  24.298  29.134  10.696
79115W        W44342  21.426  19.212  13.422
79116W        W44343   1.701  11.409   4.120
79117W        W44344  26.694  16.821  12.418
79118W        W44345  14.538  43.103  12.654
79119W        W44346  37.702  11.522  12.440
79120W        W44347  32.464  17.202   3.707
79121W        W44348   3.562  33.411  14.642
79122W        W44349   0.342  31.994   0.708
79123W        W44350  12.850  20.823   4.209
79124W        W44351  37.358   8.823  14.739
79125W        W44352  34.858  33.088   0.273
79126W        W44353   9.152  24.111   4.642
79127W        W44354  36.278   5.212  12.852
79128W        W44355   3.539  25.035   1.711
79129W        W44356  25.460   9.052   1.668
79130W        W44357  34.680   2.424  12.943
79131W        W44358   1.907   5.371  14.959
79132W        W44359  36.058   9.129  14.437
79133W        W44360  29.081  15.809  11.662
79134W        W44361  20.734  43.373  12.290
79135W        W44362   2.401  37.761  14.038
79136W        W44363  16.805  13.747   1.839
79137W        W44364   8.321  39.502  13.376
79138W        W44365   4.656  24.413  12.579
79139W        W44366  39.489  27.007   2.712
79140W        W44367  43.358  23.157  14.834
79141W        W44368  29.543  21.000   4.527
79142W        W44369  28.863   9.783  12.295
79143W        W44370  38.543  21.922  12.970
79144W        W44371  44.359  19.192  13.542
79145W        W44372  40.277   4.888  13.846
79146W        W44373   4.927   4.217   1.669
79147W        W44374  38.930  13.098   0.299
79148W        W44375   7.202  26.991   2.319
79149W        W44376   6.604  33.426   2.593
79150W        W44377  13.258  21.766  13.527
79151W        W44378  22.562  19.229   1.743
79152W        W44379  19.105   3.436  11.636
79153W        W44380  28.109  16.812   4.152
79154W        W44381  15.255  18.755  12.592
79155W        W44382  42.077  44.084  13.735
79156W        W44383  24.095  18.866   2.237
79157W        W44384   0.381  11.022  10.393
79158W        W44385   4.535   3.867   3.308
79159W        W44386  28.023   4.775  12.346
79160W        W44387  20.185  19.910   4.236
79161W        W44388  44.899  28.492   0.038
79162W        W44389  36.556  42.542   1.326
79163W        W44390  24.753  30.867   3.544
79164W        W44391  23.631  23.139  14.536
79165W        W44392  25.091  16.857   0.422
79166W        W44393  10.824  16.288   0.015
79167W        W44394  16.560  18.000   1.457
79168W        W44395  44.239  13.020   3.137
79169W        W44396  20.205  25.056   4.044
79170W        W44397  41.554   5.362  14.641
79171W        W44398  34.996   8.786  10.214
79172W        W44399  22.200  25.511   3.873
79173W        W44400   7.075   2.726  14.476
79174W        W44401  12.454  30.534   3.967
79175W        W44402   2.808   5.827   0.693
79176W        W44403  11.821  42.544  13.419
79177W        W44404  32.200  15.777   4.580
79178W        W44405  33.535  42.989   0.294
79179W        W44406  11.967  33.453  13.412
79180W        W44407  42.585  33.574   1.181
79181W        W44408  35.823  41.496   0.522
79182W        W44409   0.512  38.574   4.663
79183W        W44410   1.859  13.622  11.928
79184W        W44411   6.669  20.130   4.082
79185W        W44412  10.350  25.674   1.097
79186W        W44413  31.482  41.870   0.982
79187W        W44414  40.462  33.106  13.826
79188W        W44415  18.186  42.558   0.226
79189W        W44416   2.251  33.127   3.421
79190W        W44417  39.816  44.366  13.852
79191W        W44418  40.054  31.333  12.441
79192W        W44419   4.365  30.876   1.132
79193W        W44420   6.535  43.142  11.567
79194W        W44421   1.984   6.085   4.089
79195W        W44422  40.452  42.981   0.660
79196W        W44423  27.681   4.693   1.344
79197W        W44424  34.336   5.027  14.723
79198W        W44425  11.609   7.387  11.447
79199W        W44426   1.597   1.474   2.704
79200W        W44427  25.185  34.489   0.835
79201W        W44428  11.721  19.114  10.727
79202W        W44429  34.806  22.998  13.641
79203W        W44430  28.141  33.101  10.971
79204W        W44431  31.633  40.442   1.137
79205W        W44432  29.230  36.625  11.652
79206W        W44433   4.698  15.393   0.825
79207W        W44434   3.712  21.252  10.462
79208W        W44435  32.091  38.503  14.321
79209W        W44436  43.803   3.517   1.706
79210W        W44437   8.808  27.968   0.444
79211W        W44438  21.015  44.275  13.102
79212W        W44439  35.864   5.705  10.521
79213W        W44440  11.717  34.667  10.648
79214W        W44441   9.363  20.434  13.356
79215W        W44442  10.426  29.400  11.946
79216W        W44443  34.106   3.324   3.279
79217W        W44444  31.193  21.688   1.306
79218W        W44445   1.347  10.370  14.374
79219W        W44446  36.816  39.901  13.248
79220W        W44447  27.377   9.805   3.577
79221W        W44448  42.396  16.684   1.262
79222W        W44449  27.189   4.449  12.503
79223W        W44450  39.310  30.663  11.269
79224W        W44451   1.975   7.900   3.795
79225W        W44452  11.633   6.909  12.793
79226W        W44453  30.990  24.488   0.780
79227W        W44454  44.444  10.413   0.805
79228W        W44455  28.389  27.190   5.526
79229W        W44456  38.411   6.626  13.810
79230W        W44457  16.862   7.987   0.488
79231W        W44458  19.322  38.575  14.962
79232W        W44459  31.920  37.300   1.492
79233W        W44460   1.726   3.788  13.986
79234W        W44461  18.620   8.166  14.544
79235W        W44462  37.050   1.572  10.871
79236W        W44463  10.856  10.929  12.459
79237W        W44464  39.606  39.493   2.668
79238W        W44465  21.967  36.284  11.680
79239W        W44466  20.003  14.692   4.158
79240W        W44467   3.941  32.576  12.841
79241W        W44468  44.505   9.499   0.532
79242W        W44469   1.957  10.290  13.562
79243W        W44470   4.902  10.346  14.591
79244W        W44471  38.704  36.995   0.031
79245W        W44472  34.867   3.943  11.654
79246W        W44473  29.694   6.257  14.305
79247W        W44474  10.183  13.086   3.745
79248W        W44475  21.996  12.649   3.676
79249W        W44476  17.324  22.674  13.697
79250W        W44477  10.739  17.653   0.938
79251W        W44478  11.668  25.518   2.398
79252W        W44479  26.401   6.456   4.951
79253W        W44480  13.637  37.705   4.867
79254W        W44481   8.416  14.012  12.154
79255W        W44482  43.496  24.551   0.367
79256W        W44483   2.848  41.063   2.584
79257W        W44484  37.953   7.480  11.424
79258W        W44485   3.707  28.515   2.481
79259W        W44486  31.172  43.758   4.223
79260W        W44487  33.771  20.594   2.743
79261W        W44488  28.210  42.082  12.078
79262W        W44489  26.941  43.335   3.860
79263W        W44490  26.924  38.532  14.756
79264W        W44491   4.360  26.606  14.431
79265W        W44492  30.463  39.515  10.980
79266W        W44493  26.796  26.207   3.147
79267W        W44494  18.674  15.395  14.896
79268W        W44495  44.889  16.102  12.911
79269W        W44496  28.717  38.463   1.342
79270W        W44497  20.252  36.446  13.842
79271W        W44498  42.531  12.349   2.778
79272W        W44499  35.067   1.038   4.999
79273W        W44500  31.158  32.849   2.186
79274W        W44501   0.128  38.086   3.910
79275W        W44502  29.327  26.575   2.688
79276W        W44503  39.823  44.254  12.409
79277W        W44504  18.729  16.319  11.459
79278W        W44505  20.532  23.870  11.548
79279W        W44506   0.268  44.224  12.478
79280W        W44507  28.449  15.735   1.794
79281W        W44508  28.248   8.885  12.985
79282W        W44509  24.227  35.947  12.556
79283W        W44510   6.994  39.118  14.578
79284W        W44511  13.214  43.725  12.160
79285W        W44512  44.901   1.529  11.463
79286W        W44513  11.994  34.867   4.534
79287W        W44514  28.885  25.671   2.397
79288W        W44515  22.586   6.355  11.163
79289W        W44516  20.323   0.814  11.066
79290W        W44517   8.161   2.049   1.878
79291W        W44518  19.076  40.460   1.027
79292W        W44519  31.755  35.409  10.319
79293W        W44520  38.967  25.963  10.602
79294W        W44521  12.360  28.125   0.149
79295W        W44522  38.232  37.984   2.132
79296W        W44523  30.841  24.496   4.615
79297W        W44524   7.407  38.044  14.854
79298W        W44525  12.630  39.345   3.490
79299W        W44526  27.930  36.926   3.768
79300W        W44527   9.394   1.947   2.867
79301W        W44528  17.685  30.492  14.707
79302W        W44529  36.979   2.718   3.811
79303W        W44530   3.506  33.389  13.064
79304W        W44531  44.291  11.827  13.082
79305W        W44532  11.933  39.276  14.362
79306W        W44533  35.242  27.140  12.868
79307W        W44534  28.225   7.184   0.915
79308W        W44535   4.376  29.084  12.361
79309W        W44536  41.560  44.899   2.794
79310W        W44537  29.186  39.487  12.169
79311W        W44538   4.851  15.487   3.087
79312W        W44539   7.391   4.678  12.008
79313W        W44540  43.722  37.966  12.430
79314W        W44541  15.776   5.799   1.491
79315W        W44542  35.486   7.964   3.801
79316W        W44543  29.526  33.590  14.758
79317W        W44544   8.741   1.366   1.941
79318W        W44545  11.149  10.102  10.772
79319W        W44546  40.755  39.949   2.413
79320W        W44547  43.322  35.841  12.579
79321W        W44548  15.165  28.358  14.439
79322W        W44549  41.538   5.577  13.767
79323W        W44550  13.742  44.075   0.176
79324W        W44551   9.630  28.647   2.303
79325W        W44552  32.952  25.601  14.686
79326W        W44553   0.417  14.330  12.746
79327W        W44554  37.814   2.529   2.413
79328W        W44555   8.289   2.359   0.929
79329W        W44556   5.721   7.422   2.279
79330W        W44557  27.001  13.857   4.508
79331W        W44558  22.625  25.672   4.082
79332W        W44559   5.225   6.158  14.394
79333W        W44560  34.360  35.979   3.428
79334W        W44561  28.044   2.512   1.407
79335W        W44562  26.878   0.974   0.226
79336W        W44563  25.595  44.345  11.197
79337W        W44564  13.926  33.012  12.220
79338W        W44565  11.875  37.505   4.217
79339W        W44566  41.482   9.297  12.146
79340W        W44567  36.820  17.124   2.286
79341W        W44568  20.038  43.936  13.331
79342W        W44569  41.376  17.685   1.644
79343W        W44570  19.856  38.450  10.564
79344W        W44571  22.176  34.656  13.451
79345W        W44572  30.607  37.499  14.439
79346W        W44573   5.082  31.453   0.672
79347W        W44574  20.357   8.781   1.869
79348W        W44575  43.243  10.673   2.151
79349W        W44576  10.411  19.172  14.970
79350W        W44577  40.339   2.624   2.674
79351W        W44578  36.274  24.550   1.863
79352W        W44579  34.045  33.503   0.541
79353W        W44580  31.799  24.065  12.965
79354W        W44581  30.981  27.093   0.084
79355W        W44582   1.174   7.603  10.630
79356W        W44583  37.078  32.577  12.843
79357W        W44584  16.997   1.459  14.718
79358W        W44585   5.405  10.917   1.516
79359W        W44586  28.873  43.067   3.191
79360W        W44587  11.543   8.981   4.058
79361W        W44588  38.720  13.611   2.625
79362W        W44589   9.251  21.382  11.105
79363W        W44590   5.669  39.293  14.293
79364W        W44591  14.289   3.871   0.826
79365W        W44592  22.106  30.519   0.740
79366W        W44593  17.292  10.858  12.943
79367W        W44594   0.512  15.169   2.189
79368W        W44595  23.166  15.071  12.507
79369W        W44596  10.741  10.436  12.427
79370W        W44597   2.446  27.506   0.342
79371W        W44598  35.938  15.647   0.862
79372W        W44599  24.373   5.240   5.913
79373W        W44600  28.927  15.283   1.155
79374W        W44601  28.844  19.954   4.314
79375W        W44602  40.312  14.096   0.084
79376W        W44603  19.146   3.781  13.826
79377W        W44604  27.997  39.503   1.930
79378W        W44605  42.265  30.370   0.469
79379W        W44606   5.238  25.176   3.178
79380W        W44607  23.508  22.820   2.929
79381W        W44608   9.776  20.232  11.599
79382W        W44609  37.116  14.326   1.946
79383W        W44610  12.414  10.815  10.817
79384W        W44611   0.681   3.598  11.668
79385W        W44612   2.963  35.012  12.483
79386W        W44613  38.019  11.060  12.837
79387W        W44614  41.435  30.926   1.802
79388W        W44615  19.474  20.637  11.833
79389W        W44616  33.124  27.112  14.113
79390W        W44617  25.118  23.737   1.739
79391W        W44618   6.968  16.613   1.468
79392W        W44619  20.869  21.169   1.742
79393W        W44620  12.505   9.947   4.524
79394W        W44621  17.653  31.913   0.182
79395W        W44622  20.261   1.023  12.344
79396W        W44623  12.476   3.889   3.438
79397W        W44624  24.526   4.179  13.374
79398W        W44625  23.990  24.753  13.914
79399W        W44626   8.221  36.115  13.019
79400W        W44627  44.918  40.343   3.998
79401W        W44628   7.888  27.198   0.422
79402W        W44629   3.282  20.236  12.540
79403W        W44630  18.382  38.447  13.487
79404W        W44631   7.106  35.084  12.472
79405W        W44632  30.915  12.192  14.833
79406W        W44633  18.269  26.262   3.350
79407W        W44634  31.724  38.862  14.458
79408W        W44635   6.621  18.985   1.484
79409W        W44636   5.668  14.817  12.025
79410W        W44637  32.664  38.424   1.013
79411W        W44638  39.322  25.952   0.344
79412W        W44639  16.504  18.560  14.954
79413W        W44640  31.391  16.786   4.072
79414W        W44641   2.872   9.382   0.536
79415W        W44642  26.189   5.782   3.777
79416W        W44643  11.601  31.646   0.859
79417W        W44644  23.956  34.400  11.649
79418W        W44645  29.586  35.762   3.107
79419W        W44646  29.928  26.488  14.274
79420W        W44647  41.220  17.111  11.572
79421W        W44648  36.709  25.026  12.106
79422W        W44649  21.428  41.801  14.415
79423W        W44650   2.195  24.195  10.768
79424W        W44651  21.129   0.003   3.337
79425W        W44652  11.613  44.791  14.335
79426W        W44653  42.327  44.387   0.769
79427W        W44654  24.184   1.917  11.234
79428W        W44655  16.402  35.387  14.909
79429W        W44656   4.822  12.848   0.724
79430W        W44657   0.783  37.102  12.881
79431W        W44658  18.229   2.282  13.841
79432W        W44659  14.220  20.163  10.438
79433W        W44660  16.522  26.219   3.197
79434W        W44661  17.613   0.562   3.424
79435W        W44662  20.598  30.970   1.797
79436W        W44663  13.041  15.159  14.888
79437W        W44664   1.098  15.835   0.489
79438W        W44665   4.863  22.156   1.269
79439W        W44666   5.939  39.352   4.519
79440W        W44667  17.847  30.027   0.429
79441W        W44668  43.779  17.742   1.399
79442W        W44669  20.510  17.043  14.891
79443W        W44670  34.372  15.263   0.393
79444W        W44671  26.141   1.340   9.750
79445W        W44672  16.673   0.516   1.547
79446W        W44673  29.621  29.492   0.416
79447W        W44674   9.652  30.051   4.133
79448W        W44675  31.132  26.932  13.224
79449W        W44676  27.500  12.671  12.845
79450W        W44677  40.437  26.046   4.078
79451W        W44678  13.026  42.914  11.604
79452W        W44679   3.698  32.948  11.220
79453W        W44680   2.322  20.341  10.652
79454W        W44681  13.662  23.593   1.920
79455W        W44682  24.444  20.482   1.712
79456W        W44683   1.219  36.493  13.971
79457W        W44684  20.760   5.806  12.256
79458W        W44685  38.890  40.983  14.913
79459W        W44686  29.254  40.771   3.817
79460W        W44687  19.971  36.600   4.464
79461W        W44688  17.921   4.925  12.059
79462W        W44689  44.073  38.864   0.310
79463W        W44690   7.934  24.230  12.001
79464W        W44691   4.676  13.204  11.252
79465W        W44692  25.715   5.210   3.219
79466W        W44693  35.015   3.772   4.815
79467W        W44694  42.081  20.824  14.565
79468W        W44695  16.234  37.539   1.261
79469W        W44696  28.566  17.095  12.901
79470W        W44697  20.128  14.616  13.427
79471W        W44698   8.442  22.506   2.650
79472W        W44699   1.848  12.913   4.314
79473W        W44700  22.556  24.454   3.855
79474W        W44701  44.351   8.281  10.697
79475W        W44702  33.958   9.714   0.851
79476W        W44703  28.432   1.683  10.442
79477W        W44704  14.697  38.565   2.383
79478W        W44705  40.448   7.587  14.882
79479W        W44706  20.580   1.718  14.284
79480W        W44707  42.854  18.165  12.446
79481W        W44708   4.068  24.721  11.370
79482W        W44709   2.666   5.923  10.463
79483W        W44710  11.494   5.655  11.096
79484W        W44711   7.510  34.394   3.769
79485W        W44712  18.033  32.089   3.209
79486W        W44713   4.268   2.394  13.370
79487W        W44714  19.958  15.674  12.616
79488W        W44715   1.790  16.193   0.405
79489W        W44716   2.187  29.807  10.167
79490W        W44717  22.127  43.361   4.387
79491W        W44718   3.707  24.949  11.085
79492W        W44719   8.430  36.550   0.751
79493W        W44720  20.076  25.569   4.153
79494W        W44721  14.274  31.270   2.880
79495W        W44722  13.826  30.651   1.847
79496W        W44723  43.963  43.106   1.950
79497W        W44724  39.049  43.780   0.832
79498W        W44725  10.664  39.235   1.602
79499W        W44726  10.319   4.966  12.548
79500W        W44727   6.191  10.893   0.510
79501W        W44728  19.654  31.277   2.784
79502W        W44729  40.006  38.322  10.802
79503W        W44730  22.246  11.298  14.037
79504W        W44731  16.216  44.825  11.506
79505W        W44732  30.173  17.412  12.187
79506W        W44733  33.816  16.804   5.280
79507W        W44734  41.050  11.180   3.426
79508W        W44735  25.255  43.837   4.229
79509W        W44736  34.885  33.623  13.792
79510W        W44737   5.745  26.500   2.860
79511W        W44738  30.099  35.982  13.834
79512W        W44739  19.948  22.720  12.163
79513W        W44740  36.118  22.254   2.786
79514W        W44741  12.225  33.250   0.315
79515W        W44742  14.145  33.537  10.682
79516W        W44743  21.243  13.608  10.814
79517W        W44744  19.150  11.104   4.141
79518W        W44745  12.704  24.897   3.256
79519W        W44746  38.424  34.990   3.769
79520W        W44747   2.273  23.068   1.227
79521W        W44748  29.075  33.330  10.505
79522W        W44749  43.034  32.481   1.294
79523W        W44750  40.043  22.309   3.376
79524W        W44751  25.113  20.567  10.540
79525W        W44752   4.721  25.482  11.112
79526W        W44753  20.157  28.700   1.283
79527W        W44754  21.974   0.528   2.180
79528W        W44755   2.673  17.349   4.202
79529W        W44756  34.596   9.262   2.707
79530W        W44757  34.047  34.903  11.097
79531W        W44758  43.155  41.443  12.397
79532W        W44759  32.352  33.072   0.392
79533W        W44760  37.992   6.858   0.470
79534W        W44761  25.392  32.636  12.466
79535W        W44762  10.798  32.532  12.927
79536W        W44763  25.884  36.096  11.450
79537W        W44764  35.426  17.227   0.723
79538W        W44765  16.283  17.517   3.798
79539W        W44766   3.526  18.268  14.555
79540W        W44767  41.443  44.395   4.395
79541W        W44768  33.033  23.899  14.279
79542W        W44769  35.299   9.374   4.716
79543W        W44770  16.132  27.544  14.783
79544W        W44771  23.726   9.182   0.278
79545W        W44772   0.079  41.314  12.535
79546W        W44773  43.629  19.714  14.722
79547W        W44774   7.277  36.187  13.201
79548W        W44775  19.782  26.630  10.908
79549W        W44776  23.537   8.295   2.291
79550W        W44777  32.248  28.788   1.696
79551W        W44778   1.625  28.821   1.386
79552W        W44779  23.694  25.481  10.763
79553W        W44780  42.035  39.721   1.738
79554W        W44781  36.316  39.204   2.359
79555W        W44782  37.921  41.432   1.975
79556W        W44783  25.974  37.845  12.634
79557W        W44784   4.666  14.747  12.952
79558W        W44785  35.190  42.844  11.314
79559W        W44786   8.904  13.821   1.620
79560W        W44787  43.856  23.538  11.672
79561W        W44788  10.451  24.004   2.679
79562W        W44789  23.049   0.251   1.195
79563W        W44790  41.846  43.416  13.029
79564W        W44791  20.197   2.413   1.829
79565W        W44792  22.140  38.880   5.028
79566W        W44793  20.051  37.357  14.061
79567W        W44794   4.145  38.099   1.163
79568W        W44795  30.990  12.705  14.590
79569W        W44796  23.425  37.818  11.705
79570W        W44797  32.752   1.393   0.656
79571W        W44798  20.086   4.442   4.535
79572W        W44799  29.210   9.338   1.457
79573W        W44800   1.462   8.622  13.058
79574W        W44801  22.560  41.888  11.013
79575W        W44802  10.273   9.813  13.793
79576W        W44803  30.132   7.561  13.254
79577W        W44804   2.057  10.435   1.270
79578W        W44805  33.033  11.379   4.109
79579W        W44806   6.791  32.381  13.487
79580W        W44807  12.619  12.622   1.226
79581W        W44808   8.079  28.631   1.929
79582W        W44809  42.862  43.732  13.505
79583W        W44810  19.553  30.904   0.872
79584W        W44811   8.181  15.648   0.805
79585W        W44812  10.341  23.741   0.264
79586W        W44813  40.506  20.808   0.471
79587W        W44814  34.110   7.154  12.142
79588W        W44815  18.019  16.329   0.372
79589W        W44816  29.664  12.546   0.127
79590W        W44817  43.365  21.673  14.082
79591W        W44818  22.399  14.705  12.569
79592W        W44819  23.780  36.108   4.610
79593W        W44820   9.356  38.410   2.609
79594W        W44821  36.266   9.527   0.782
79595W        W44822   2.033  24.910  14.382
79596W        W44823  19.346  43.452  11.105
79597W        W44824  31.985  44.478   4.623
79598W        W44825  31.108  11.719  14.661
79599W        W44826  29.580  38.127   1.643
79600W        W44827  40.978  36.128  11.486
79601W        W44828  26.629  23.679  10.296
79602W        W44829  34.616   6.911   1.349
79603W        W44830   2.993   9.992   3.651
79604W        W44831  29.269   4.655   2.796
79605W        W44832  44.384  19.156   0.027
79606W        W44833   6.020   8.491   1.482
79607W        W44834  21.731  28.748  12.834
79608W        W44835  41.323  27.016  11.467
79609W        W44836  24.079  18.144  14.991
79610W        W44837  13.700   4.914   1.415
79611W        W44838   3.752  17.049  14.893
79612W        W44839  41.862  12.976  10.254
79613W        W44840  10.055  37.047   2.793
79614W        W44841  30.875  29.471   1.205
79615W        W44842  31.548  32.091  12.956
79616W        W44843  31.942  17.599   0.671
79617W        W44844  33.546   1.743  13.748
79618W        W44845  43.484  11.221   2.848
79619W        W44846   5.107  26.956  13.794
79620W        W44847  42.925  42.094   4.494
79621W        W44848  28.060  16.718  11.465
79622W        W44849  36.811   8.832  10.137
79623W        W44850  24.140  10.316   1.746
79624W        W44851  11.485  32.600  12.373
79625W        W44852  14.804  12.228   3.450
79626W        W44853  18.270   4.284  12.838
79627W        W44854  38.887  24.839   3.175
79628W        W44855  25.960  11.215   0.072
79629W        W44856  10.594   3.685  13.391
79630W        W44857  20.119   4.737   3.157
79631W        W44858   2.726  15.790   3.311
79632W        W44859  26.947  13.622  11.034
79633W        W44860   8.183  15.883  10.436
79634W        W44861  10.359  12.192  13.463
79635W        W44862  44.447  43.240  13.107
79636W        W44863  41.525  20.241  10.781
79637W        W44864  41.528  18.486   2.378
79638W        W44865   0.878  21.454   2.660
79639W        W44866  43.355  12.613   4.653
79640W        W44867  12.808  43.235   3.181
79641W        W44868  11.627  22.671  14.688
79642W        W44869  17.873  32.024   1.262
79643W        W44870  36.302  22.067  14.883
79644W        W44871   7.646  42.770   2.437
79645W        W44872  34.052  41.663   0.282
79646W        W44873   8.937  28.132  11.576
79647W        W44874  17.180  15.334  12.650
79648W        W44875  16.684  11.554   1.813
79649W        W44876  18.832  34.904  13.735
79650W        W44877  15.218  15.911   4.875
79651W        W44878  14.594  25.467  13.590
79652W        W44879   2.350  26.041   3.398
79653W        W44880  39.581   5.762   3.866
79654W        W44881  19.713  38.402  12.340
79655W        W44882  39.015  13.076  10.773
79656W        W44883  12.074  39.492  11.579
79657W        W44884  23.492   4.193  12.514
79658W        W44885  13.887  21.452   0.569
79659W        W44886  32.063   5.950   4.144
79660W        W44887  15.703  26.955  11.737
79661W        W44888  28.863  31.865   4.104
79662W        W44889   2.172   8.781  13.513
79663W        W44890  10.380  36.270  13.313
79664W        W44891  27.364  11.201   4.632
79665W        W44892  25.142   0.567  13.115
79666W        W44893   1.838  39.544  14.087
79667W        W44894  19.398   0.333   3.388
79668W        W44895  42.565  41.741   1.751
79669W        W44896   3.873   7.225   4.413
79670W        W44897   2.358  15.008   4.775
79671W        W44898   3.805  35.558   1.843
79672W        W44899   5.756  43.817  11.441
79673W        W44900  23.080   7.367  11.904
79674W        W44901  15.035   1.483  14.874
79675W        W44902  19.231  11.122  10.840
79676W        W44903  38.441  10.860   2.355
79677W        W44904  40.433  33.611  13.870
79678W        W44905  44.000   5.812   0.875
79679W        W44906  36.035  29.476   4.628
79680W        W44907  26.453   4.173  11.612
79681W        W44908  27.210  35.761   1.728
79682W        W44909  25.484  14.014   3.497
79683W        W44910  39.468   6.446   0.583
79684W        W44911  16.366   9.173  14.828
79685W        W44912  11.321   4.016  10.619
79686W        W44913  25.445  31.833   3.105
79687W        W44914  41.310  35.013   1.809
79688W        W44915  30.072   9.589   1.239
79689W        W44916   0.071  15.642  12.605
79690W        W44917   3.995  16.467  10.413
79691W        W44918  27.041  18.050   3.231
79692W        W44919  13.242  37.978  14.593
79693W        W44920  15.802  24.753  14.525
79694W        W44921  14.542  34.305   1.912
79695W        W44922  39.465   4.635  11.619
79696W        W44923  27.853  18.994   0.386
79697W        W44924   7.260  31.006   0.462
79698W        W44925  16.182  29.885  10.694
79699W        W44926  11.202   2.614  10.975
79700W        W44927  41.786   2.816   3.270
79701W        W44928  30.034  29.397  13.597
79702W        W44929  39.993  14.717  13.258
79703W        W44930  34.887  21.541   1.188
79704W        W44931  12.731   6.121   3.485
79705W        W44932  10.874  37.611   4.226
79706W        W44933   8.992  29.814  12.076
79707W        W44934   9.367  21.313   1.962
79708W        W44935   0.782  32.916  10.702
79709W        W44936  25.241  31.638  11.863
79710W        W44937  12.036  17.038  12.400
79711W        W44938  15.595  31.859  13.583
79712W        W44939  37.575  28.539  11.663
79713W        W44940  41.628  28.043   2.605
79714W        W44941  20.764  34.505  13.362
79715W        W44942   4.506  31.644   0.745
79716W        W44943  27.069  27.708  11.006
79717W        W44944  20.521  27.606   3.890
79718W        W44945   0.681  30.506   2.190
79719W        W44946  40.005   7.871   1.622
79720W        W44947  15.730  19.306  14.423
79721W        W44948  29.653   5.835   1.149
79722W        W44949  29.689  40.904  12.930
79723W        W44950  17.169  21.667   1.195
79724W        W44951  10.205  22.559   4.106
79725W        W44952   8.247  24.047   0.315
79726W        W44953   3.393   5.150  13.480
79727W        W44954  35.380  28.126   1.250
79728W        W44955  22.766   2.017   1.273
79729W        W44956  22.495  34.074   0.337
79730W        W44957  13.686   1.318   3.113
79731W        W44958  40.006   0.437  14.506
79732W        W44959   4.330  39.451   0.372
79733W        W44960  27.355  18.068   4.232
79734W        W44961  22.494  28.139   4.080
79735W        W44962   3.688   3.745   1.533
79736W        W44963  18.789  37.732  13.894
79737W        W44964  11.530  37.044  11.587
79738W        W44965  43.608  16.520   3.353
79739W        W44966  36.051  23.952  11.532
79740W        W44967  39.845   0.521   0.251
79741W        W44968  42.573  34.952   1.347
79742W        W44969  40.938  16.727   2.596
79743W        W44970  24.239  32.030   2.806
79744W        W44971  33.091  24.393  14.196
79745W        W44972  20.558  14.346   2.398
79746W        W44973  25.845  26.656  10.314
79747W        W44974   8.863  17.440  11.137
79748W        W44975  10.132  10.888   1.371
79749W        W44976  20.312  24.588  13.469
79750W        W44977  36.617   6.562   3.266
79751W        W44978  38.827  43.534   1.257
79752W        W44979   6.095  27.793   2.354
79753W        W44980  30.726  27.011   0.900
79754W        W44981  37.973  44.439   0.634
79755W        W44982  35.350  27.813   3.844
79756W        W44983  18.024   1.341   0.860
79757W        W44984  24.327  42.659  13.011
79758W        W44985  32.245  17.242   3.227
79759W        W44986  16.331  20.437  14.480
79760W        W44987  32.556   8.856   3.189
79761W        W44988  36.333   4.958  12.396
79762W        W44989   8.601  29.471  12.110
79763W        W44990   3.088   5.790  14.941
79764W        W44991  25.125   3.516   4.832
79765W        W44992   7.342  13.610   2.677
79766W        W44993   0.790  17.960   0.807
79767W        W44994   3.664  43.549  14.188
79768W        W44995  31.117  24.544  12.588
79769W        W44996  27.322  19.138   4.567
79770W        W44997  16.570   6.180   3.672
79771W        W44998   1.468  13.391  14.409
79772W        W44999  30.854  14.390   2.091
79773W        W45000  33.642   7.844   1.266
79774W        W45001  34.754  19.293  11.109
79775W        W45002   4.897   8.779  13.028
79776W        W45003  32.596  27.980  14.352
79777W        W45004  42.411  44.050  13.341
79778W        W45005  20.182   0.173   0.360
79779W        W45006  14.820  36.251   5.075
79780W        W45007  30.390  19.640   2.191
79781W        W45008  39.306  36.696   1.965
79782W        W45009  27.344  15.843  13.354
79783W        W45010  29.814  35.282   2.854
79784W        W45011  33.506  16.278  13.872
79785W        W45012  34.002  18.639   1.944
79786W        W45013  19.233  41.859   2.883
79787W        W45014   5.854  27.883  10.466
79788W        W45015  22.997  23.084   1.708
79789W        W45016  43.601   6.274   0.050
79790W        W45017  15.718  41.714   0.375
79791W        W45018  28.551  36.437  10.834
79792W        W45019   1.345  19.284   2.388
79793W        W45020  22.597  42.343  14.266
79794W        W45021  38.823  34.674  12.954
79795W        W45022  31.046  12.597  10.676
79796W        W45023  33.335  41.377  12.081
79797W        W45024  35.797  25.643   5.006
79798W        W45025  13.396  36.024   1.345
79799W        W45026  12.577  26.409  13.488
79800W        W45027  10.080   7.712  14.059
79801W        W45028  20.718   9.039  11.389
79802W        W45029  35.040  40.341  14.107
79803W        W45030  37.615  30.585   1.286
79804W        W45031   9.607  23.008  13.304
79805W        W45032  44.775  27.175   0.540
79806W        W45033  15.611  41.650   2.306
79807W        W45034  17.441  29.577   2.915
79808W        W45035  17.281  38.966  14.949
79809W        W45036  15.301  20.907   1.193
79810W        W45037   8.360  20.169  12.764
79811W        W45038   0.835  37.461   4.612
79812W        W45039  29.641  13.487   1.750
79813W        W45040  41.268  22.210  14.868
79814W        W45041  42.412  32.459   2.704
79815W        W45042  12.837  38.860   3.549
79816W        W45043  35.485  34.141   2.449
79817W        W45044  33.482  20.267   3.270
79818W        W45045  14.212  35.571   0.694
79819W        W45046  39.343  29.759   3.311
79820W        W45047   1.482  30.037   5.003
79821W        W45048  42.792  14.272   2.178
79822W        W45049  43.576  15.052  11.669
79823W        W45050   0.778  37.552   4.108
79824W        W45051  23.518   1.960   0.799
79825W        W45052   6.374  40.993   0.983
79826W        W45053  41.452  17.078  13.378
79827W        W45054  37.985   5.597   1.465
79828W        W45055   8.180   9.692   1.797
79829W        W45056  41.563  18.023  11.678
79830W        W45057   6.396  24.576  14.725
79831W        W45058  19.651  17.247   4.535
79832W        W45059  18.978  34.155  12.893
79833W        W45060  44.413  10.712   3.176
79834W        W45061  41.353  37.057  12.014
79835W        W45062  37.462   4.898   4.662
79836W        W45063  13.895  41.782   2.801
79837W        W45064   0.163  44.681   4.422
79838W        W45065  32.910  27.760   0.989
79839W        W45066  36.744  24.588   1.609
79840W        W45067  29.847   3.126  14.515
79841W        W45068  28.658  15.651  14.371
79842W        W45069  13.135  36.972  13.420
79843W        W45070  40.787  24.702  12.093
79844W        W45071   2.484  38.281   1.842
79845W        W45072  30.394  23.227   3.415
79846W        W45073   5.642  38.554   3.179
79847W        W45074  44.318   8.897  13.418
79848W        W45075   7.842  30.444   1.431
79849W        W45076  17.286  25.247  12.908
79850W        W45077  24.985  17.565  11.696
79851W        W45078   7.308  29.044  11.539
79852W        W45079  41.397  13.324   1.083
79853W        W45080  10.617  30.105  14.667
79854W        W45081  34.764   5.264   0.472
79855W        W45082  31.301  42.960   4.820
79856W        W45083   3.092  24.148  14.545
79857W        W45084  42.921  23.523   2.207
79858W        W45085   0.149  42.776   4.634
79859W        W45086  21.807  34.317  12.551
79860W        W45087   6.713  20.861   3.371
79861W        W45088  23.662  42.186  11.249
79862W        W45089  22.544  37.549   4.341
79863W        W45090  42.486   7.362   3.391
79864W        W45091  31.451   6.258   3.206
79865W        W45092  16.820  32.563  11.534
79866W        W45093  30.310  11.875  12.452
79867W        W45094  25.503  15.676   3.283
79868W        W45095  43.479  30.841   3.553
79869W        W45096  23.043   4.706  14.002
79870W        W45097  15.307  19.888   3.496
79871W        W45098  27.279  43.500  14.513
79872W        W45099  15.623  39.489  10.335
79873W        W45100   0.266  13.593   4.374
79874W        W45101  40.129  21.578  10.562
79875W        W45102  27.086  30.444  12.599
79876W        W45103   3.390  29.262  12.926
79877W        W45104  16.897  20.239  12.967
79878W        W45105   0.335  32.991   1.673
79879W        W45106   7.491  13.321  10.662
79880W        W45107  44.384  28.628   3.062
79881W        W45108  21.243   7.254   0.767
79882W        W45109  12.811  30.958   2.967
79883W        W45110  44.895  19.985  13.910
79884W        W45111  32.457  30.111   1.733
79885W        W45112  17.305  19.042   1.828
79886W        W45113  34.611  19.035   2.182
79887W        W45114  41.147  19.344  13.337
79888W        W45115  30.595   8.314   2.863
79889W        W45116   4.298  28.638  11.471
79890W        W45117  37.606  28.714  13.124
79891W        W45118   7.755  34.443  14.323
79892W        W45119   8.287  43.340  14.047
79893W        W45120  27.274  44.837   2.729
79894W        W45121  44.579  44.152   0.722
79895W        W45122  34.130  35.842  14.736
79896W        W45123  37.457  15.736   3.911
79897W        W45124  21.724   2.824   0.103
79898W        W45125  35.352  25.579   2.776
79899W        W45126  39.114  20.022  14.568
79900W        W45127   0.470   1.955  13.076
79901W        W45128  13.595  17.519  10.771
79902W        W45129  10.807  37.795   1.231
79903W        W45130  13.753  24.066  13.849
79904W        W45131   9.174  10.391   4.134
79905W        W45132  23.257  22.577  10.916
79906W        W45133  21.176  25.247  14.248
79907W        W45134  11.648   8.598  11.173
79908W        W45135  36.509  14.591  12.388
79909W        W45136  24.442  44.374  13.183
79910W        W45137  23.018  35.947   4.056
79911W        W45138   1.980   4.718   3.418
79912W        W45139  35.532  11.595  11.937
79913W        W45140  21.129  33.664   1.665
79914W        W45141  29.285  21.076  12.986
79915W        W45142  35.680   0.473   1.535
79916W        W45143  37.594  19.464   4.520
79917W        W45144  31.854  30.597  10.581
79918W        W45145  20.667  41.884   3.212
79919W        W45146  15.371  21.202   4.247
79920W        W45147  19.010  19.521  11.139
79921W        W45148  12.889  42.407   1.418
79922W        W45149   9.319   4.813  10.555
79923W        W45150  28.542   0.448  14.760
79924W        W45151  43.471  44.481  12.749
79925W        W45152  33.781   7.856  13.953
79926W        W45153  19.582  43.944  11.122
79927W        W45154  18.020  38.488   4.124
79928W        W45155   6.434   6.491  10.807
79929W        W45156  22.694  41.512   3.866
79930W        W45157  16.591  15.746  10.489
79931W        W45158  26.519  42.027   1.975
79932W        W45159   3.420  39.516  12.427
79933W        W45160  22.138  24.103   2.683
79934W        W45161  33.026  31.446  14.425
79935W        W45162  22.117   7.857  10.582
79936W        W45163  12.214  36.257   2.826
79937W        W45164  11.645  21.588  11.553
79938W        W45165  15.453  31.107  14.080
79939W        W45166  36.009  11.419   4.081
79940W        W45167  36.364   0.915  12.939
79941W        W45168  38.118  42.999   5.014
79942W        W45169  24.055  34.408   1.906
79943W        W45170   2.155  15.845  11.200
79944W        W45171  24.532  29.348  12.062
79945W        W45172  41.119  41.255  14.494
79946W        W45173  42.986  25.494   2.701
79947W        W45174  44.822  10.588  11.522
79948W        W45175  37.304  23.167  11.478
79949W        W45176  10.570  44.097  10.364
79950W        W45177  16.419  12.899  12.141
79951W        W45178  32.481  11.135   2.814
79952W        W45179  36.578  37.518  12.980
79953W        W45180  19.859   3.378  12.868
79954W        W45181  10.607  10.997   3.188
79955W        W45182  43.927  41.014   4.696
79956W        W45183  11.390   8.850   3.253
79957W        W45184   4.923   5.813  14.767
79958W        W45185  42.337  32.965  10.496
79959W        W45186  38.852   3.836  10.662
79960W        W45187  20.169  31.443   4.606
79961W        W45188  15.628  40.599   5.028
79962W        W45189  25.440  36.991  14.764
79963W        W45190  31.534  39.132  14.001
79964W        W45191  44.957  17.421   2.699
79965W        W45192   9.589  25.055  13.842
79966W        W45193  22.030  26.374  12.938
79967W        W45194  39.450  16.812   1.728
79968W        W45195  31.336  23.503   0.303
79969W        W45196  26.545  18.993   4.073
79970W        W45197  11.840  17.033  14.013
79971W        W45198  20.248   2.656  10.998
79972W        W45199  43.946   5.466   1.740
79973W        W45200  15.154  29.996  13.042
79974W        W45201  30.460   9.640   2.262
79975W        W45202  30.054  27.329   2.516
79976W        W45203  10.773  23.876   1.064
79977W        W45204  13.138  11.657   2.778
79978W        W45205  14.670  30.490   3.977
79979W        W45206  22.719  31.821   3.682
79980W        W45207  34.792  13.628  12.920
79981W        W45208  26.912  38.454  12.766
79982W        W45209  15.318  30.521  10.964
79983W        W45210   0.401  42.459  10.598
79984W        W45211  12.753  18.606  13.903
79985W        W45212  14.836  43.241  13.045
79986W        W45213  32.093   6.356   1.412
79987W        W45214  29.023  16.194  12.022
79988W        W45215  31.627  17.675   4.575
79989W        W45216  29.374   9.184  10.779
79990W        W45217  14.756  26.506   4.509
79991W        W45218   6.641  39.886  12.484
79992W        W45219  29.365  36.442  11.186
79993W        W45220  13.891   2.202  11.875
79994W        W45221  17.406   9.533   0.352
79995W        W45222   1.703  40.390   0.370
79996W        W45223  35.757   5.629   1.986
79997W        W45224  40.020   2.670  13.882
79998W        W45225  22.103  22.175   0.592
79999W        W45226  39.561  27.774  12.415
80000W        W45227  35.382  31.163   3.313
80001W        W45228  34.696   3.272  11.598
80002W        W45229  43.874  38.883  13.424
80003W        W45230   3.792  42.471  11.465
80004W        W45231  13.736  35.835  11.516
80005W        W45232  14.535  33.185  14.486
80006W        W45233  23.212  43.653   5.447
80007W        W45234  40.039   4.273  14.465
80008W        W45235  43.263  42.535   1.428
80009W        W45236  42.776  16.690  12.428
80010W        W45237  16.383  12.481   0.890
80011W        W45238  34.296  29.117  11.648
80012W        W45239  33.386   3.841   3.058
80013W        W45240  19.171   0.844  14.284
80014W        W45241  44.327  21.078   4.954
80015W        W45242  17.682   3.170   1.002
80016W        W45243  32.490  33.959   1.332
80017W        W45244  18.884  42.910  11.932
80018W        W45245  29.072  11.259  11.229
80019W        W45246  40.796   1.721   5.118
80020W        W45247  25.676  20.579  14.175
80021W        W45248  32.043   1.034   4.613
80022W        W45249   5.326  15.832   0.308
80023W        W45250  21.989  38.082   1.362
80024W        W45251  23.763  12.393   3.709
80025W        W45252  18.949  19.024   2.698
80026W        W45253  40.237  38.324  12.160
80027W        W45254  42.543   2.413  10.713
80028W        W45255  12.133  24.570   2.675
80029W        W45256  19.738  18.046   4.193
80030W        W45257  40.032   7.216   3.293
80031W        W45258  34.063   1.347   1.843
80032W        W45259  33.348  29.981  11.450
80033W        W45260  28.016  38.528  10.389
80034W        W45261  28.677  22.780  13.972
80035W        W45262  31.968  28.693   0.250
80036W        W45263   6.818   6.112  10.857
80037W        W45264   7.274  12.050   4.926
80038W        W45265  39.934   4.199   0.503
80039W        W45266  14.157   9.038   4.090
80040W        W45267  34.415   7.212   0.665
80041W        W45268  32.327  19.664   5.098
80042W        W45269  38.079  10.431   1.663
80043W        W45270  17.857  42.667  14.157
80044W        W45271  35.089  34.659   3.111
80045W        W45272  24.096  39.871   1.295
80046W        W45273  24.648   4.738   4.643
80047W        W45274  13.060  41.926   3.172
80048W        W45275  14.141   5.946   1.499
80049W        W45276  33.871   8.095   0.834
80050W        W45277  42.678  11.956  14.510
80051W        W45278  36.566  33.252  14.124
80052W        W45279  31.589   4.708   0.855
80053W        W45280  33.413   3.433  13.985
80054W        W45281  40.591   5.730  12.189
80055W        W45282   7.853   2.645  13.219
80056W        W45283  41.051  40.392  12.500
80057W        W45284  41.413  20.613   1.929
80058W        W45285  33.060  15.348   4.124
80059W        W45286  11.336  24.258   3.718
80060W        W45287  40.290  12.637  11.941
80061W        W45288  27.116   5.801   3.313
80062W        W45289  36.886   0.216  11.626
80063W        W45290  21.739  36.632   0.767
80064W        W45291  18.295   6.215   4.275
80065W        W45292   8.682   9.232  13.695
80066W        W45293  27.554  18.676  12.977
80067W        W45294  43.410   8.699   2.856
80068W        W45295  28.179  28.175   2.748
80069W        W45296  15.177  11.347  10.823
80070W        W45297  39.488  33.926  14.982
80071W        W45298  34.364   1.856   2.716
80072W        W45299  42.449   1.695   0.274
80073W        W45300  40.882   0.369  13.989
80074W        W45301  39.720   8.695   1.925
80075W        W45302  40.024  20.618   1.721
80076W        W45303  43.257  43.685   0.046
80077W        W45304  37.038  41.931  13.855
80078W        W45305   2.886  42.313   4.331
80079W        W45306   1.888  14.937   4.974
80080W        W45307  18.274  20.265  12.303
80081W        W45308  21.998   2.792   1.995
80082W        W45309  34.035  22.176  13.688
80083W        W45310  29.099  32.083  14.806
80084W        W45311  40.915   4.423   3.678
80085W        W45312  37.272  19.613   1.688
80086W        W45313  17.067   6.237  10.756
80087W        W45314  12.132  32.910  11.223
80088W        W45315   5.485  17.799  12.270
80089W        W45316  18.738   9.978  11.655
80090W        W45317   0.102  13.555  12.723
80091W        W45318  43.848  21.498  13.813
80092W        W45319  18.676   0.139  12.451
80093W        W45320  17.737  25.626  12.219
80094W        W45321  38.784  38.005  14.006
80095W        W45322  24.565  34.143   3.250
80096W        W45323  31.425  38.002   4.137
80097W        W45324  17.124  30.969  11.081
80098W        W45325   4.954  27.738  14.903
80099W        W45326  36.798   9.367  11.417
80100W        W45327  33.420  32.435   0.973
80101W        W45328  25.163  27.639   1.186
80102W        W45329  22.033  37.245   0.759
80103W        W45330  39.753  15.764   0.932
80104W        W45331  21.605  22.613  14.172
80105W        W45332   3.956  27.459  12.789
80106W        W45333  15.225  12.269  11.846
80107W        W45334  28.729   3.328   0.353
80108W        W45335  25.240  32.003   4.067
80109W        W45336  36.971  14.355  13.452
80110W        W45337  36.046  31.581   2.783
80111W        W45338  12.048  14.866   2.717
80112W        W45339  10.189  23.295  11.965
80113W        W45340  32.604  16.912  10.993
80114W        W45341  43.101  14.279  14.794
80115W        W45342  24.798  44.546   1.114
80116W        W45343  33.545  16.739  11.234
80117W        W45344  26.191  21.595  13.840
80118W        W45345  29.110  20.174  14.661
80119W        W45346  32.630  41.937  10.745
80120W        W45347  35.058  36.505   0.435
80121W        W45348  23.030  16.510  14.853
80122W        W45349  28.199  35.552   4.118
80123W        W45350  10.858  21.091  13.428
80124W        W45351  29.402  35.017   2.697
80125W        W45352   3.964   6.785   1.303
80126W        W45353  41.088  36.215   4.152
80127W        W45354  27.190   4.232  12.032
80128W        W45355   2.568  43.182   0.779
80129W        W45356   8.445  38.309   4.608
80130W        W45357  17.123  24.213   2.924
80131W        W45358  34.324   3.160  14.448
80132W        W45359  36.923  10.273  11.975
80133W        W45360  32.050  23.223   4.228
80134W        W45361   2.166   3.946  13.765
80135W        W45362  23.496  33.421   2.933
80136W        W45363  30.500  17.194  14.706
80137W        W45364   9.461  24.046   2.485
80138W        W45365  30.041  22.620  14.259
80139W        W45366  33.689  18.245   1.073
80140W        W45367   7.960  16.873  11.119
80141W        W45368  13.754   6.492   1.289
80142W        W45369  23.735  27.630  13.898
80143W        W45370   1.128  16.314   1.572
80144W        W45371   1.957  16.840  11.989
80145W        W45372   6.369  33.440  11.936
80146W        W45373   8.178   6.166  11.387
80147W        W45374  37.120  36.909   3.996
80148W        W45375  14.652  15.825  13.342
80149W        W45376   8.355   2.697  11.493
80150W        W45377  23.666  14.248  12.980
80151W        W45378  23.038  10.504  14.826
80152W        W45379  13.143  27.545  11.017
80153W        W45380  39.288  12.443   0.889
80154W        W45381   8.215  11.754   0.354
80155W        W45382  39.358  27.052  11.736
80156W        W45383  17.178  38.001   0.665
80157W        W45384   1.799  27.151  13.345
80158W        W45385  36.946   5.254   2.272
80159W        W45386  21.751  22.152  10.343
80160W        W45387  38.342  26.142   3.617
80161W        W45388  36.745   8.243  12.459
80162W        W45389  37.470  30.537  11.111
80163W        W45390  41.965   3.845   3.139
80164W        W45391  17.082  15.714  13.882
80165W        W45392  22.066  11.137   3.255
80166W        W45393  28.293  20.942   3.682
80167W        W45394  11.814  44.985   0.839
80168W        W45395  41.184  16.176   2.306
80169W        W45396  23.380  25.845  13.089
80170W        W45397  33.367  35.820  11.817
80171W        W45398  36.092  42.714   0.594
80172W        W45399  20.048  43.435   2.408
80173W        W45400  26.464  43.061  10.617
80174W        W45401   1.765  25.677   4.059
80175W        W45402  13.706   7.209  14.941
80176W        W45403  32.426   3.763   2.585
80177W        W45404   9.755  26.955  12.578
80178W        W45405  38.060  21.721  11.431
80179W        W45406  27.892  43.865  12.930
80180W        W45407  16.357  22.609  12.923
80181W        W45408  40.767  32.438   2.214
80182W        W45409  20.442  21.615  13.559
80183W        W45410  37.882  37.038   4.537
80184W        W45411  44.472  28.509  12.632
80185W        W45412  28.882  38.037   2.114
80186W        W45413  38.916  18.478  13.963
80187W        W45414  44.845  44.574   2.819
80188W        W45415   0.402  14.068  11.111
80189W        W45416  10.373  36.059  13.778
80190W        W45417  26.939  32.874  13.065
80191W        W45418  43.579   7.690   2.232
80192W        W45419   1.679  24.365  12.067
80193W        W45420  43.699  28.000   9.804
80194W        W45421  21.006  33.408   3.802
80195W        W45422   1.276  22.158   3.144
80196W        W45423  18.263  27.246   3.788
80197W        W45424  23.696  35.617  14.675
80198W        W45425  11.470  21.885   0.782
80199W        W45426  35.370  33.348   3.400
80200W        W45427  19.393  20.016   3.381
80201W        W45428  15.907  20.780  14.371
80202W        W45429   6.707  10.333  12.916
80203W        W45430  18.242   0.723  14.065
80204W        W45431   5.981   5.673  14.848
80205W        W45432  36.246  32.848  14.040
80206W        W45433  15.254   2.446  12.008
80207W        W45434   6.981  10.770   2.735
80208W        W45435  19.316   5.568  12.600
80209W        W45436  31.277   7.348   0.813
80210W        W45437  31.128  29.265  11.110
80211W        W45438   2.247  43.193  12.093
80212W        W45439  22.735  42.409   2.892
80213W        W45440   5.845   6.536   4.551
80214W        W45441  37.361  33.812  11.461
80215W        W45442  21.530  13.859   2.280
80216W        W45443   0.782  34.517   4.659
80217W        W45444  10.322  21.667  10.252
80218W        W45445  28.576  10.688  14.518
80219W        W45446   4.368   6.301   1.093
80220W        W45447  40.406  20.220  10.786
80221W        W45448  31.735  13.857   9.853
80222W        W45449  35.399  22.966   1.780
80223W        W45450   8.430  30.150  11.972
80224W        W45451  34.236  17.508  12.073
80225W        W45452  11.303   4.214   0.277
80226W        W45453  13.844  22.145   2.324
80227W        W45454  36.397  25.477  11.040
80228W        W45455  41.039  15.094  13.551
80229W        W45456  26.615  34.480   4.078
80230W        W45457   1.245  10.783   0.081
80231W        W45458   3.346  27.701   2.423
80232W        W45459  22.161  35.674  11.326
80233W        W45460  43.912  42.888   2.423
80234W        W45461   8.269   9.172   0.817
80235W        W45462  25.773  18.219   1.176
80236W        W45463  43.970   1.684   2.277
80237W        W45464  38.255  35.847   0.499
80238W        W45465   3.067  35.800   2.953
80239W        W45466  25.596  11.868  10.978
80240W        W45467  29.043  21.661   1.421
80241W        W45468  32.175  42.773  11.666
80242W        W45469  20.689  38.782  14.949
80243W        W45470  17.732   7.170  13.989
80244W        W45471   1.489  38.041  11.235
80245W        W45472  23.227   3.814  11.516
80246W        W45473   7.193   7.925   3.323
80247W        W45474  40.006  28.524   2.259
80248W        W45475  44.993  34.544   3.142
80249W        W45476  17.172  36.412  13.272
80250W        W45477  17.696  43.919  10.689
80251W        W45478   1.823   0.159   0.934
80252W        W45479  21.634  16.203  14.956
80253W        W45480   1.913  20.182  14.851
80254W        W45481  28.742   7.086   0.035
80255W        W45482  15.539   0.958   2.305
80256W        W45483   4.036  28.521   1.459
80257W        W45484   7.849  33.459  14.316
80258W        W45485  41.417   3.220   2.613
80259W        W45486  25.658  44.893  10.640
80260W        W45487  16.140  16.309   0.829
80261W        W45488  41.765   5.330   4.989
80262W        W45489  13.641   0.502  14.998
80263W        W45490  35.232  29.795  13.061
80264W        W45491  13.595  26.587  12.383
80265W        W45492   8.731  44.353  13.547
80266W        W45493   3.575  39.957   0.380
80267W        W45494  39.026  37.560   1.851
80268W        W45495  25.213   4.229   3.151
80269W        W45496  28.678  30.615   3.206
80270W        W45497   7.647  13.857  10.627
80271W        W45498   7.124   9.713   4.135
80272W        W45499  22.102  33.427   4.418
80273W        W45500   4.153  35.528   2.741
80274W        W45501  29.148  21.666  13.047
80275W        W45502  29.104   1.879  11.179
80276W        W45503  26.886  16.936   0.603
80277W        W45504  38.832   5.263   2.315
80278W        W45505  24.795  12.286  10.417
80279W        W45506  36.734  41.503  13.977
80280W        W45507  16.194  44.884  14.694
80281W        W45508   3.145  41.347   0.469
80282W        W45509  13.775  18.295  10.787
80283W        W45510  41.204  36.094  11.018
80284W        W45511  24.125  39.877  10.621
80285W        W45512  17.555   6.415  12.048
80286W        W45513  19.502   4.901   4.216
80287W        W45514  15.755  21.059  12.426
80288W        W45515  25.527  10.634  10.734
80289W        W45516  32.076  24.249   1.749
80290W        W45517  35.150  31.937   0.835
80291W        W45518  25.905  13.302  10.638
80292W        W45519  36.941  28.986   2.581
80293W        W45520   1.108   0.252  13.716
80294W        W45521   1.235  15.241  14.904
80295W        W45522   0.293   5.498  11.199
80296W        W45523  11.429  24.335  12.937
80297W        W45524  32.159  18.282   0.659
80298W        W45525  22.141  17.236   1.868
80299W        W45526  30.098   5.744  11.888
80300W        W45527  40.065  37.385  10.768
80301W        W45528  26.119   1.769  14.503
80302W        W45529  33.297  10.234  12.445
80303W        W45530  43.143   1.855   5.015
80304W        W45531  32.945  26.448  12.987
80305W        W45532  22.989  22.678  11.973
80306W        W45533   0.535  42.374   5.543
80307W        W45534  39.086  26.117  11.067
80308W        W45535  43.682  43.466   1.219
80309W        W45536   2.844  36.801  13.359
80310W        W45537  11.110  38.876  11.921
80311W        W45538   2.395   6.805   4.690
80312W        W45539  26.814  42.277   0.033
80313W        W45540  12.066  18.687   1.915
80314W        W45541  30.410  20.084   1.751
80315W        W45542  14.758   1.897  11.414
80316W        W45543  28.502  19.127   3.241
80317W        W45544  37.643  13.626   2.851
80318W        W45545  23.450   1.400  14.772
80319W        W45546   7.329  12.716   2.608
80320W        W45547  22.918   9.703  14.950
80321W        W45548   9.957   5.436   4.368
80322W        W45549   3.190  19.552   2.568
80323W        W45550  10.112   1.990  14.846
80324W        W45551   9.543  19.949  13.121
80325W        W45552  13.224  44.009  13.503
80326W        W45553   3.432  34.364   1.717
80327W        W45554  34.202   6.902   2.267
80328W        W45555  22.844   5.156  13.868
80329W        W45556  32.786  24.101  12.923
80330W        W45557  16.052  40.446  10.409
80331W        W45558   9.927   4.301  14.857
80332W        W45559   4.391   1.882  13.299
80333W        W45560  41.420  44.658   3.319
80334W        W45561  40.868  16.314   1.322
80335W        W45562  14.000  29.201  12.394
80336W        W45563  38.341  27.781  11.903
80337W        W45564   7.109  39.424  11.975
80338W        W45565  32.310  20.593  11.654
80339W        W45566  13.323   4.862  14.544
80340W        W45567  11.302  16.161   3.278
80341W        W45568  36.104   4.490  12.627
80342W        W45569  41.608  38.113  11.960
80343W        W45570  33.628  10.732   1.414
80344W        W45571  37.070  34.925   2.595
80345W        W45572  34.919  29.421  10.767
80346W        W45573   5.316  31.505  10.683
80347W        W45574  21.424   9.886  10.646
80348W        W45575   3.901  28.202   0.754
80349W        W45576  31.362   0.980  10.425
80350W        W45577  27.621   1.440  14.930
80351W        W45578  24.132   1.495   1.464
80352W        W45579  25.966  25.965   0.500
80353W        W45580   1.341  38.936   3.405
80354W        W45581  37.053  17.336  14.357
80355W        W45582  31.020   2.296  12.037
80356W        W45583  27.115   9.934  12.942
80357W        W45584  40.719  39.441  11.525
80358W        W45585  29.608  39.305  12.500
80359W        W45586  34.900  37.329  12.873
80360W        W45587  39.900  36.893  11.967
80361W        W45588  34.817  11.285   0.912
80362W        W45589  43.763   2.462   3.282
80363W        W45590  33.395  42.489   0.244
80364W        W45591  40.822  21.892   3.695
80365W        W45592  12.599  13.361  13.049
80366W        W45593  39.275  24.416   0.342
80367W        W45594   0.894  24.724  12.489
80368W        W45595  44.803  16.881   0.381
80369W        W45596   9.908  34.405  13.612
80370W        W45597  36.130   6.787   2.344
80371W        W45598  16.003  35.953  11.578
80372W        W45599   7.689  26.245  10.889
80373W        W45600  16.634  37.376  14.879
80374W        W45601  22.427  30.542  13.588
80375W        W45602  42.954  17.349   1.352
80376W        W45603  24.502  14.169   1.516
80377W        W45604  22.451   5.372   0.074
80378W        W45605  32.331  35.419   2.260
80379W        W45606  22.199   3.101  11.284
80380W        W45607  26.343   6.862  14.977
80381W        W45608  26.124  41.465  12.838
80382W        W45609  14.307  12.987  13.509
80383W        W45610  17.513   6.397   5.109
80384W        W45611  16.234  12.704  11.718
80385W        W45612  32.811  38.255   1.948
80386W        W45613   7.927  40.002   0.386
80387W        W45614  12.053   0.616  12.512
80388W        W45615  29.084   7.682  10.566
80389W        W45616  29.542  17.490  13.374
80390W        W45617  42.847  44.766   3.132
80391W        W45618  35.082  17.841  12.378
80392W        W45619   3.926  14.248   1.313
80393W        W45620  12.475  11.753  12.877
80394W        W45621  17.314  40.074   1.763
80395W        W45622  33.401  14.983   0.549
80396W        W45623  39.370  33.891   3.198
80397W        W45624  42.327  11.988   1.110
80398W        W45625  10.831  16.286  11.080
80399W        W45626  12.023  29.427  14.249
80400W        W45627  25.488  36.379   4.202
80401W        W45628  24.442  13.689  10.652
80402W        W45629  31.225  14.044  13.527
80403W        W45630   9.165  12.027  12.711
80404W        W45631   8.313  35.670   1.308
80405W        W45632  26.669  40.401  11.194
80406W        W45633   0.025  35.778  12.963
80407W        W45634  41.552   7.263  13.436
80408W        W45635  38.396  40.476   2.642
80409W        W45636  19.934  16.593   4.173
80410W        W45637  15.882  40.035  10.096
80411W        W45638  23.198  11.132  12.645
80412W        W45639  26.877  14.212   3.444
80413W        W45640  40.789  12.224  13.616
80414W        W45641  27.140  13.578   1.217
80415W        W45642   6.756   0.332  11.922
80416W        W45643  32.833  32.936   0.309
80417W        W45644  28.106  15.641  12.602
80418W        W45645   6.688  25.486  14.391
80419W        W45646   0.609  36.874  13.338
80420W        W45647   0.995  12.996   4.774
80421W        W45648  29.274   3.362   2.303
80422W        W45649  38.193  12.899  11.440
80423W        W45650  40.772  15.986   3.812
80424W        W45651  33.271  44.224  12.243
80425W        W45652  10.603  31.503  13.616
80426W        W45653   2.331  21.480  11.625
80427W        W45654  16.199  16.037   1.771
80428W        W45655  32.169  34.467   3.386
80429W        W45656  10.105  35.934  11.112
80430W        W45657   1.292  34.131  13.289
80431W        W45658   9.106  10.233   1.756
80432W        W45659   4.470  17.734  14.682
80433W        W45660  15.792  21.421   2.793
80434W        W45661   6.191  29.492  13.921
80435W        W45662  26.947  10.769  10.747
80436W        W45663  34.400  10.286   0.372
80437W        W45664  39.817   1.077   1.411
80438W        W45665   0.510  25.203   1.139
80439W        W45666  37.453  38.575  14.970
80440W        W45667  42.389   9.102  12.595
80441W        W45668  27.613  42.497   0.462
80442W        W45669  42.084   1.726  10.592
80443W        W45670  43.994  21.165   4.085
80444W        W45671  21.552   5.768  11.702
80445W        W45672  36.023   7.115   4.768
80446W        W45673  21.145  44.535  11.243
80447W        W45674  10.622  20.607   4.677
80448W        W45675  14.905  36.692   4.254
80449W        W45676   6.321  17.655  13.276
80450W        W45677  25.445   7.365   3.959
80451W        W45678  36.877  14.366   0.535
80452W        W45679  24.614  11.945   1.301
80453W        W45680  19.609  33.637   3.791
80454W        W45681  43.290   5.013   9.611
80455W        W45682  35.522  36.048  12.847
80456W        W45683  44.026   9.640   0.628
80457W        W45684  32.357   4.359   0.475
80458W        W45685  18.488  39.019   2.441
80459W        W45686  21.652  38.377  10.728
80460W        W45687  28.162  36.429  10.241
80461W        W45688   5.293  19.385   0.435
80462W        W45689   8.552  36.536  13.121
80463W        W45690  17.374  14.205  13.581
80464W        W45691   8.394   0.116  12.166
80465W        W45692  11.348  28.241  11.432
80466W        W45693   5.467   1.201  12.167
80467W        W45694  19.773  19.624   4.109
80468W        W45695  38.004  24.972   4.213
80469W        W45696  13.660  30.457  13.382
80470W        W45697  27.024  29.324   3.948
80471W        W45698   0.446  18.815   0.805
80472W        W45699   0.391  16.169  10.597
80473W        W45700   3.990  18.755  13.493
80474W        W45701  24.175  44.678  14.943
80475W        W45702  38.336  36.295  14.514
80476W        W45703  25.412  29.966   3.865
80477W        W45704  20.546   2.713  10.350
80478W        W45705  41.483   3.014  13.898
80479W        W45706   4.242  24.042  12.535
80480W        W45707  30.521   9.962   1.842
80481W        W45708  20.283  29.728  11.394
80482W        W45709  33.697  17.034  14.799
80483W        W45710  25.020   7.895   4.684
80484W        W45711  33.188  26.656  11.650
80485W        W45712  41.298  43.194   0.440
80486W        W45713  31.098  29.211   0.313
80487W        W45714  22.113  41.800  12.074
80488W        W45715  16.119  23.915  12.843
80489W        W45716  19.807  38.473   2.551
80490W        W45717  30.009  20.944   2.173
80491W        W45718  19.069  35.094  14.329
80492W        W45719  21.553  25.538   2.781
80493W        W45720   7.427   8.152   2.067
80494W        W45721  15.248  34.109  12.578
80495W        W45722  21.377  33.186  12.543
80496W        W45723  36.288  21.075   2.818
80497W        W45724  13.659  20.985  11.977
80498W        W45725  39.147  35.537  12.164
80499W        W45726   9.190  13.998   0.314
80500W        W45727  36.864  15.846   1.633
80501W        W45728  30.203  30.496  12.863
80502W        W45729  31.680  38.581   3.231
80503W        W45730  20.624  12.901  11.095
80504W        W45731   5.855  42.846   0.179
80505W        W45732  22.557  33.639   4.189
80506W        W45733  28.943   7.925   3.785
80507W        W45734  32.357   3.144  14.884
80508W        W45735  39.760  29.527  13.422
80509W        W45736  17.202  37.339   2.321
80510W        W45737  17.654   5.104   0.954
80511W        W45738  35.986  18.651   1.463
80512W        W45739  30.257  39.607  13.476
80513W        W45740  33.351  29.950  12.865
80514W        W45741  32.636  37.006   1.238
80515W        W45742  11.590  40.494   4.026
80516W        W45743  29.488  14.523  14.379
80517W        W45744  37.771   6.585   4.520
80518W        W45745   5.859  31.712   4.236
80519W        W45746   3.300   6.198  13.282
80520W        W45747   6.124   6.470  13.473
80521W        W45748  44.289  10.469   4.607
80522W        W45749   3.001   9.224  12.043
80523W        W45750   7.314  15.665  12.125
80524W        W45751  19.477  37.898  11.771
80525W        W45752  13.385   9.213   0.314
80526W        W45753   1.394  20.580   2.701
80527W        W45754   0.458  15.973  12.552
80528W        W45755   0.970  25.536  10.680
80529W        W45756  21.551  18.645   2.821
80530W        W45757   4.262  12.216   2.585
80531W        W45758  19.018  40.325  11.609
80532W        W45759  11.252  19.525   2.162
80533W        W45760  21.985  33.711  10.842
80534W        W45761  29.938   1.486  12.114
80535W        W45762  39.829  16.064   3.759
80536W        W45763  24.365   3.052  11.188
80537W        W45764  42.024  28.506   0.825
80538W        W45765   1.445   5.567  14.916
80539W        W45766   2.036  33.516  11.610
80540W        W45767  35.379  34.645   2.501
80541W        W45768  27.362  20.572   1.732
80542W        W45769  42.432   3.027   2.670
80543W        W45770   4.442  18.948   2.894
80544W        W45771  19.782  13.337  11.657
80545W        W45772  20.081   4.634  11.274
80546W        W45773  15.123  17.736  10.677
80547W        W45774   0.416  22.334  10.652
80548W        W45775  21.679   0.017  13.007
80549W        W45776  14.724  27.155   2.725
80550W        W45777  16.639   5.341  12.046
80551W        W45778  24.976   2.983   1.725
80552W        W45779   3.722  26.779   0.899
80553W        W45780  35.693  17.325  14.664
80554W        W45781  18.570  15.995  13.915
80555W        W45782   5.939  34.446   3.622
80556W        W45783  18.670   3.220   2.708
80557W        W45784  42.203  42.464   0.851
80558W        W45785   2.960  30.122  11.508
80559W        W45786  30.032  40.121  13.405
80560W        W45787  23.122  31.095   2.853
80561W        W45788   9.629  21.233  10.739
80562W        W45789  35.873  38.643   1.197
80563W        W45790  22.140  41.251   4.542
80564W        W45791   5.618   6.808  12.857
80565W        W45792  28.276  10.886  12.096
80566W        W45793  22.005  38.445  14.746
80567W        W45794  12.317  44.121  10.646
80568W        W45795  32.284  21.754  11.991
80569W        W45796  34.198  10.661   2.744
80570W        W45797  42.595  43.638  11.108
80571W        W45798   6.230  33.531   3.709
80572W        W45799  40.605  23.501  13.049
80573W        W45800  38.547   0.367  14.340
80574W        W45801  16.550  23.124  14.029
80575W        W45802  12.985  10.706  10.752
80576W        W45803  19.539  22.114  11.414
80577W        W45804  23.859  38.561  11.103
80578W        W45805  42.263  12.524  13.383
80579W        W45806   5.118  18.761  12.370
80580W        W45807   9.942  20.800  10.934
80581W        W45808  17.074  19.503  14.015
80582W        W45809  12.668  44.976  11.328
80583W        W45810  28.051  35.377   3.663
80584W        W45811   2.072  15.668   2.650
80585W        W45812  32.060  41.164  10.784
80586W        W45813  33.685  22.510  13.863
80587W        W45814  11.178  29.446  10.809
80588W        W45815   9.676   7.058   1.728
80589W        W45816  17.261  25.883   2.235
80590W        W45817  26.477   1.990   2.756
80591W        W45818  42.247  35.807   3.898
80592W        W45819  35.035  32.118  12.480
80593W        W45820  36.917  41.367   2.439
80594W        W45821   4.579   2.999   1.151
80595W        W45822   6.578  30.706   2.862
80596W        W45823   6.226  37.204  10.762
80597W        W45824  26.934   5.894  14.400
80598W        W45825   1.779  33.362  10.963
80599W        W45826  19.790   8.259   1.274
80600W        W45827  39.893   3.916  14.881
80601W        W45828   1.740  35.302   1.472
80602W        W45829  36.825   1.013   3.592
80603W        W45830   8.929  14.913   3.223
80604W        W45831   8.765  20.791   4.598
80605W        W45832  30.527   7.139  14.891
80606W        W45833  37.252  22.012   4.673
80607W        W45834   0.356  32.845   0.129
80608W        W45835  25.713  17.164  13.387
80609W        W45836  44.711  40.575   2.610
80610W        W45837  16.758  38.191  12.580
80611W        W45838  19.661  33.733   0.687
80612W        W45839  12.076   8.100   4.174
80613W        W45840   1.810   8.713  13.883
80614W        W45841  10.197  28.616   1.279
80615W        W45842  21.691   4.977  10.326
80616W        W45843   2.297   5.950   5.018
80617W        W45844  29.699   7.814   3.335
80618W        W45845   1.014  41.303  12.569
80619W        W45846  15.729   0.326   0.683
80620W        W45847  28.377  13.186   4.976
80621W        W45848  38.866   1.852  12.426
80622W        W45849  23.886   2.984  13.168
80623W        W45850  31.872  25.964   0.459
80624W        W45851  13.349  44.327   3.292
80625W        W45852  22.634  36.576   1.804
80626W        W45853   1.177  13.660   0.426
80627W        W45854  13.868  17.482  12.865
80628W        W45855  15.719   4.881  10.707
80629W        W45856  43.494   9.701  13.060
80630W        W45857   9.167  35.889  14.265
80631W        W45858   6.866  26.241   4.672
80632W        W45859  16.006  31.508   3.117
80633W        W45860  11.172  21.715   1.352
80634W        W45861  36.132   7.572  13.396
80635W        W45862  30.323  20.526   4.752
80636W        W45863  20.553   3.394  11.181
80637W        W45864  17.134  26.386  10.199
80638W        W45865  39.268  43.316  11.699
80639W        W45866  36.049  44.014  10.703
80640W        W45867  43.519  44.879   2.580
80641W        W45868   8.144  40.928   2.441
80642W        W45869  35.544  31.992  12.395
80643W        W45870   0.186   7.662   2.240
80644W        W45871  11.831   9.801   9.924
80645W        W45872  36.925  39.350  13.889
80646W        W45873  41.161  40.356  13.950
80647W        W45874   4.316   4.603   2.385
80648W        W45875  15.207  11.424  12.951
80649W        W45876   3.208  24.605   1.711
80650W        W45877   5.528  34.221   3.822
80651W        W45878  29.927  20.113   1.920
80652W        W45879   7.145   3.354   3.083
80653W        W45880  35.278  40.411   4.893
80654W        W45881  36.554   1.223   0.259
80655W        W45882  33.255  40.564   1.651
80656W        W45883   6.667  40.432  14.908
80657W        W45884  35.031  40.324  13.597
80658W        W45885  44.087  16.801  14.037
80659W        W45886  30.436  33.452  14.857
80660W        W45887  26.579   1.572  13.396
80661W        W45888   0.332  14.780   1.899
80662W        W45889  28.379  27.180  12.205
80663W        W45890   2.908  44.762   0.401
80664W        W45891  27.020  14.408  14.781
80665W        W45892   0.197   9.932  13.979
80666W        W45893   6.991  26.731  13.870
80667W        W45894  21.003  28.150   3.183
80668W        W45895  17.284  28.671  11.199
80669W        W45896  28.312  32.124  12.760
80670W        W45897   8.097  31.674   0.456
80671W        W45898  44.446  24.762  10.594
80672W        W45899  24.674  32.038  14.311
80673W        W45900   3.925  10.635   3.297
80674W        W45901  44.863  35.744  12.120
80675W        W45902  20.669  17.997  14.638
80676W        W45903   1.518  20.699   4.073
80677W        W45904  25.241  28.958   3.684
80678W        W45905  34.440  15.824  13.105
80679W        W45906  24.497  33.473  11.522
80680W        W45907  18.972   0.281   2.500
80681W        W45908  27.323  18.970   0.367
80682W        W45909  30.905  22.496   2.430
80683W        W45910   4.843  31.251   2.974
80684W        W45911  36.033   0.733   2.692
80685W        W45912  24.230  39.169  11.166
80686W        W45913  44.324  39.298  11.449
80687W        W45914  27.771  25.737  11.954
80688W        W45915  37.901  16.297   3.365
80689W        W45916  15.739  12.019   3.123
80690W        W45917   5.670  25.484   4.388
80691W        W45918   5.244  20.314  14.134
80692W        W45919  22.960  43.952  12.415
80693W        W45920  13.161   3.055   5.311
80694W        W45921   5.215   7.761  13.806
80695W        W45922  37.134  16.457   5.021
80696W        W45923  18.953  22.952  14.945
80697W        W45924  31.526  43.185  11.508
80698W        W45925  15.636   1.214   2.733
80699W        W45926  37.836  17.803  14.826
80700W        W45927  20.929   5.492   4.434
80701W        W45928   1.877  41.061   0.899
80702W        W45929  41.344  41.297   3.164
80703W        W45930  16.537  28.354   2.208
80704W        W45931  37.744  10.289  14.207
80705W        W45932   7.925  42.575   4.196
80706W        W45933  16.629  41.065   3.050
80707W        W45934  16.781   0.743   2.807
80708W        W45935  33.336   7.567   4.991
80709W        W45936  30.818   5.620  11.133
80710W        W45937  42.402  20.119  12.622
80711W        W45938  25.237  16.600   3.176
80712W        W45939  34.939  20.747  14.920
80713W        W45940   0.870  15.875   1.348
80714W        W45941  36.673   9.166  11.873
80715W        W45942  34.569  27.987   4.572
80716W        W45943   5.985  43.927   3.834
80717W        W45944  44.249  26.642   1.909
80718W        W45945  17.330  28.402  12.450
80719W        W45946  29.677  40.878  12.327
80720W        W45947  31.661  24.498   1.961
80721W        W45948  43.883  42.519  10.908
80722W        W45949  36.087  27.212   2.719
80723W        W45950  39.701  28.712   2.817
80724W        W45951  44.510  20.716  12.935
80725W        W45952  43.983  14.621   2.874
80726W        W45953  36.631  42.972   2.051
80727W        W45954  13.702  14.844  10.688
80728W        W45955   9.180  32.153   5.169
80729W        W45956  22.423  23.611  11.191
80730W        W45957  12.613  28.180   2.460
80731W        W45958   6.722  43.544  14.409
80732W        W45959  23.482   2.179   4.253
80733W        W45960  26.040   4.197   3.614
80734W        W45961  28.193  33.547   1.521
80735W        W45962  30.088  34.099  13.258
80736W        W45963  32.617  32.461  10.675
80737W        W45964  19.212  24.257   3.154
80738W        W45965  35.056   0.865  13.540
80739W        W45966  18.189   8.185   4.979
80740W        W45967  29.888  14.856  10.657
80741W        W45968  44.366  42.871   2.192
80742W        W45969   6.294   3.186   2.951
80743W        W45970  35.594  28.107   3.001
80744W        W45971  30.507   7.439   1.766
80745W        W45972   9.660  41.987   2.275
80746W        W45973  21.583  42.128  12.080
80747W        W45974   6.985  37.860  12.744
80748W        W45975  17.791  35.307   3.400
80749W        W45976   5.869  39.653  13.524
80750W        W45977  25.984  16.803   2.746
80751W        W45978  21.576  44.240   0.330
80752W        W45979   9.100  35.486  13.959
80753W        W45980   7.770  18.905   3.052
80754W        W45981  18.536  19.513  12.621
80755W        W45982  41.297  24.821  14.362
80756W        W45983  29.970  26.056   0.534
80757W        W45984  20.912  16.140  12.824
80758W        W45985  22.828  40.516   9.871
80759W        W45986  38.173  10.158  10.985
80760W        W45987  41.357  40.877   1.242
80761W        W45988   1.322   1.729   2.347
80762W        W45989  11.761  16.038  11.566
80763W        W45990   6.830  22.610  10.756
80764W        W45991  23.538  14.356   1.732
80765W        W45992   6.777  28.071   1.653
80766W        W45993  11.408  21.720  14.853
80767W        W45994  23.976  42.571   0.516
80768W        W45995  43.668   6.722   1.320
80769W        W45996  23.798  30.585  10.740
80770W        W45997   1.190  36.928  11.941
80771W        W45998  36.588  35.073   2.486
80772W        W45999  16.722  40.801  10.494
80773W        W46000  17.772  19.925   0.078
80774W        W46001   9.320  43.339   2.287
80775W        W46002  21.168  29.266  11.788
80776W        W46003  12.612  27.788  11.057
80777W        W46004  30.384  17.786   0.027
80778W        W46005  35.105  26.382   0.355
80779W        W46006  43.810   4.886  13.906
80780W        W46007  24.692  41.554  11.102
80781W        W46008  37.570   9.755   1.909
80782W        W46009  29.011   4.759  14.702
80783W        W46010  22.734  44.441   1.961
80784W        W46011  23.060  20.293  11.091
80785W        W46012  44.729  37.400  14.667
80786W        W46013  29.377  42.332  14.627
80787W        W46014  28.139   2.771  14.920
80788W        W46015  37.058   2.227  14.405
80789W        W46016  20.732  15.856  10.703
80790W        W46017  16.146   5.723  10.418
80791W        W46018  23.920  20.078  12.362
80792W        W46019  39.512   9.140  11.444
80793W        W46020  24.060   6.284  14.412
80794W        W46021  27.604  39.842   4.611
80795W        W46022  25.019   6.275  13.102
80796W        W46023  34.517  40.413  12.383
80797W        W46024  36.052  21.115   1.263
80798W        W46025  42.659  24.208   0.954
80799W        W46026  35.899   4.667  12.185
80800W        W46027  10.646  22.498   1.187
80801W        W46028  15.177   5.251   1.028
80802W        W46029  18.793  37.719  10.506
80803W        W46030   9.240   2.252  10.580
80804W        W46031  22.042  39.919  14.757
80805W        W46032  32.359  31.052  12.360
80806W        W46033  40.172  22.789  13.623
80807W        W46034  27.275  31.967   1.234
80808W        W46035  22.679   8.364  14.322
80809W        W46036  31.363  13.574  12.935
80810W        W46037  17.673  38.313  13.937
80811W        W46038  18.554  32.254  13.901
80812W        W46039  41.897  11.201  12.913
80813W        W46040  31.342  28.154   5.406
80814W        W46041  20.605  18.630   4.599
80815W        W46042  26.398  16.159  12.239
80816W        W46043  14.186   3.249   3.740
80817W        W46044   8.185  16.783   2.688
80818W        W46045  24.307  21.442   0.536
80819W        W46046   1.538  19.003  14.514
80820W        W46047  41.210  38.220   3.147
80821W        W46048  18.711  12.440  10.730
80822W        W46049  25.056  33.076  14.917
80823W        W46050  29.805  30.197  10.210
80824W        W46051  25.057   7.357  14.835
80825W        W46052  41.116   1.617   2.978
80826W        W46053  16.880  34.571   1.292
80827W        W46054   4.062   1.976   2.710
80828W        W46055  15.107   8.891  14.403
80829W        W46056  35.516  26.268   3.558
80830W        W46057  18.173  31.378  12.932
80831W        W46058  10.087  12.833  11.260
80832W        W46059  17.584  16.953   1.421
80833W        W46060  10.267  25.429   0.099
80834W        W46061   8.619  26.997  11.755
80835W        W46062  22.122   9.606  11.169
80836W        W46063  27.671  21.685   4.134
80837W        W46064  25.696   4.191   1.052
80838W        W46065  28.186  31.165  13.690
80839W        W46066   4.347  21.053   2.301
80840W        W46067   8.314  23.437   2.927
80841W        W46068  10.227   5.964  12.622
80842W        W46069  18.309  22.168  12.032
80843W        W46070  20.749  17.071   2.794
80844W        W46071  35.919  26.102  13.432
80845W        W46072  18.275  43.003  10.362
80846W        W46073  21.779  11.302  10.784
80847W        W46074  37.327  13.776   2.477
80848W        W46075   5.873  38.984   3.351
80849W        W46076  19.230  24.477  13.619
80850W        W46077   6.324  41.528   0.402
80851W        W46078  27.067  35.994   1.280
80852W        W46079  37.710  25.089  13.320
80853W        W46080  39.247   8.662  11.138
80854W        W46081  37.944  43.097   1.968
80855W        W46082  38.856  21.283  10.641
80856W        W46083  23.524   2.262  14.478
80857W        W46084   3.890  39.417  14.228
80858W        W46085  16.379  32.943   1.784
80859W        W46086  27.179  38.113   2.112
80860W        W46087  16.902  23.937  14.729
80861W        W46088  44.746  27.151   1.987
80862W        W46089   9.560  31.652  11.382
80863W        W46090  31.632   5.286  14.942
80864W        W46091  17.785  12.859   2.383
80865W        W46092  37.843  26.457  13.868
80866W        W46093   8.422  37.851  11.902
80867W        W46094  39.594   1.784   0.335
80868W        W46095   3.819  39.017   2.585
80869W        W46096  34.333  10.077  11.207
80870W        W46097  10.090   6.232  13.099
80871W        W46098  44.973  30.609   1.846
80872W        W46099  34.454  34.243  14.832
80873W        W46100  15.533  21.642  11.859
80874W        W46101  44.474  23.918   0.287
80875W        W46102  38.456  41.404  11.218
80876W        W46103  26.843  24.909  12.489
80877W        W46104  24.701   7.707   4.317
80878W        W46105  14.935  42.330   2.411
80879W        W46106  35.883  28.691  11.143
80880W        W46107  27.507  21.636   3.649
80881W        W46108   1.008  28.085  14.228
80882W        W46109  32.328   4.927   3.962
80883W        W46110  13.496  20.963   0.282
80884W        W46111  21.677  30.991  12.183
80885W        W46112  18.865  29.037  13.951
80886W        W46113  22.187  37.071   2.202
80887W        W46114  26.002  33.844  12.922
80888W        W46115  32.212   1.257   3.773
80889W        W46116  28.017   7.464  14.541
80890W        W46117   8.012  26.627  14.823
80891W        W46118  36.342  44.829   1.506
80892W        W46119  33.628  15.827  14.105
80893W        W46120  41.051  27.037   4.139
80894W        W46121  22.526  38.890  12.873
80895W        W46122  37.501  26.011   4.664
80896W        W46123  23.913  24.102  11.257
80897W        W46124  36.072  19.862  11.108
80898W        W46125  25.485  33.558   4.093
80899W        W46126  12.244  18.138   4.225
80900W        W46127  28.596  34.032   2.630
80901W        W46128  18.152  25.432  12.488
80902W        W46129  21.486  22.686  12.121
80903W        W46130  30.022  13.650  14.564
80904W        W46131  10.777  20.014   2.805
80905W        W46132  24.491  26.888  14.713
80906W        W46133  33.447   6.318   2.219
80907W        W46134  25.595  12.803   3.580
80908W        W46135  29.012  31.973   4.595
80909W        W46136  13.606  40.813  13.013
80910W        W46137   3.781  23.516   1.082
80911W        W46138  27.628  21.224   4.369
80912W        W46139  23.671   9.693   2.410
80913W        W46140  16.131  44.949  12.031
80914W        W46141  25.509  35.185  10.859
80915W        W46142  28.741  40.919   2.680
80916W        W46143  12.709  18.818   0.310
80917W        W46144  27.410  30.361  10.443
80918W        W46145  20.243  33.011   4.201
80919W        W46146  30.878  24.600   9.975
80920W        W46147  22.981   9.662  11.599
80921W        W46148  29.433  19.152  10.727
80922W        W46149  20.606   2.983  13.805
80923W        W46150   2.926  13.228  10.971
80924W        W46151  27.967  22.436  14.279
80925W        W46152  40.104   7.526   4.047
80926W        W46153  31.634  20.452   1.405
80927W        W46154  39.853  39.579  12.359
80928W        W46155  25.583   0.867   0.229
80929W        W46156  23.251  14.639  12.215
80930W        W46157  16.057  19.454   3.095
80931W        W46158  14.579   3.525  12.520
80932W        W46159   0.369   7.839   1.770
80933W        W46160   8.296   6.428  13.227
80934W        W46161  35.153  43.995  11.654
80935W        W46162  31.230  26.638   0.281
80936W        W46163   3.437  43.967  14.843
80937W        W46164  19.111   9.194  12.596
80938W        W46165  21.307  24.991   2.034
80939W        W46166   3.374  28.361   5.025
80940W        W46167  35.571  14.911   2.975
80941W        W46168  40.517  13.614   2.843
80942W        W46169   2.958  27.993   2.699
80943W        W46170   3.710  44.076   1.356
80944W        W46171   5.415  25.083  13.025
80945W        W46172  31.352   9.376  12.552
80946W        W46173  14.650  33.324   3.643
80947W        W46174  38.535   4.688  14.948
80948W        W46175  14.405  41.551   1.783
80949W        W46176  21.128  31.042  12.414
80950W        W46177  27.680   6.250  12.978
80951W        W46178  33.923  17.715   2.325
80952W        W46179  16.207  15.106  12.921
80953W        W46180  32.137  31.468   2.094
80954W        W46181  29.169  25.507  12.434
80955W        W46182  39.888  31.452  11.952
80956W        W46183  24.830  40.078   3.805
80957W        W46184  13.188  27.568   3.736
80958W        W46185  34.191  12.156  14.920
80959W        W46186  38.310  32.513   4.547
80960W        W46187   8.828   4.682  10.409
80961W        W46188  13.183  37.546  12.070
80962W        W46189  35.928  21.577  11.726
80963W        W46190  20.646  19.054   3.741
80964W        W46191  20.451   3.193   4.542
80965W        W46192  11.165  11.242  11.559
80966W        W46193  34.952  42.852   1.295
80967W        W46194  27.418  15.787  11.011
80968W        W46195  32.504  18.263   0.247
80969W        W46196  34.621  33.078  10.739
80970W        W46197   2.294  30.147   4.500
80971W        W46198  40.596  14.064  14.282
80972W        W46199  16.604   5.793  13.865
80973W        W46200  14.103  42.009   2.357
80974W        W46201   3.007  11.813  12.982
80975W        W46202  10.753  26.013   1.231
80976W        W46203  36.705  33.627  14.482
80977W        W46204  30.829  12.458   5.363
80978W        W46205  37.109  13.812   4.638
80979W        W46206  27.459  13.756  11.041
80980W        W46207  19.657  34.134   3.937
80981W        W46208  41.752  29.443   2.645
80982W        W46209   5.515  16.374  12.914
80983W        W46210  13.299   7.841  14.835
80984W        W46211  27.266  41.600  14.958
80985W        W46212  17.575  39.286   4.158
80986W        W46213  11.133  44.805  10.545
80987W        W46214  36.922   3.683   4.008
80988W        W46215  13.368  19.422   5.079
80989W        W46216  37.412   6.254   0.217
80990W        W46217  11.320  42.775  13.529
80991W        W46218  11.789  18.265   0.290
80992W        W46219  16.719  16.497  13.980
80993W        W46220  21.459  14.390   2.208
80994W        W46221  34.852  20.015  13.594
80995W        W46222  19.513  38.857   2.725
80996W        W46223  43.900  27.905   2.836
80997W        W46224  43.989  42.534   0.785
80998W        W46225  36.346  44.592   4.219
80999W        W46226  12.366  25.512   2.764
81000W        W46227  13.058  11.833  11.990
81001W        W46228  12.252  39.534   2.176
81002W        W46229   2.956  34.296  11.946
81003W        W46230  24.551  38.476   3.189
81004W        W46231  33.578   1.511   1.737
81005W        W46232  29.355  28.929  12.593
81006W        W46233  31.066   7.204  12.532
81007W        W46234  33.383  24.406  10.765
81008W        W46235  42.573   4.373  12.039
81009W        W46236  15.081  38.616   4.862
81010W        W46237  26.499  16.527  13.568
81011W        W46238  20.471  44.948   4.097
81012W        W46239  18.854  15.180   4.648
81013W        W46240  19.714  40.806  11.009
81014W        W46241  32.544  25.695   0.011
81015W        W46242  25.978   7.866   4.737
81016W        W46243   2.288  19.346  11.001
81017W        W46244   8.578   5.259   2.787
81018W        W46245   6.475  16.987   3.990
81019W        W46246  24.024  20.695  14.549
81020W        W46247  41.240  39.158   0.815
81021W        W46248  14.661   7.397   1.729
81022W        W46249  23.155  20.826  13.515
81023W        W46250  38.338  42.585   0.133
81024W        W46251  17.785  42.897   1.272
81025W        W46252  13.652  39.549   2.437
81026W        W46253  17.042  30.006  13.109
81027W        W46254  35.156   6.619   3.325
81028W        W46255  30.686  29.962  11.718
81029W        W46256  30.072   3.487   1.793
81030W        W46257  19.464   0.456  14.478
81031W        W46258   7.324  13.080   0.745
81032W        W46259   5.259  12.548   3.838
81033W        W46260  22.271  14.638  13.974
81034W        W46261   6.689  25.525   3.873
81035W        W46262   2.668  22.377   2.850
81036W        W46263   1.843  19.699   4.632
81037W        W46264   1.991  34.550  11.522
81038W        W46265  16.574  31.114   0.708
81039W        W46266  30.966  14.878  13.357
81040W        W46267  13.065  38.850  14.849
81041W        W46268  21.684  44.256   1.907
81042W        W46269  10.382  11.746   2.598
81043W        W46270  34.975   3.743  12.598
81044W        W46271  31.234  16.185  13.958
81045W        W46272  24.642  29.648  13.407
81046W        W46273  28.372  30.189   3.106
81047W        W46274  29.252  34.919  13.525
81048W        W46275  31.089  43.072  13.454
81049W        W46276  18.790   4.860  11.628
81050W        W46277  30.547  14.111   3.569
81051W        W46278   9.206   8.653   0.628
81052W        W46279  19.664  24.236   2.861
81053W        W46280  35.446  33.584  11.980
81054W        W46281   8.128  11.712  12.662
81055W        W46282  17.572   6.318   1.480
81056W        W46283  22.047  38.114   3.648
81057W        W46284  26.394  35.873   4.097
81058W        W46285  16.130  23.287  11.058
81059W        W46286  43.766  42.230   2.608
81060W        W46287  42.909   4.989  10.958
81061W        W46288  10.604  15.954   1.828
81062W        W46289  25.777  26.755  12.086
81063W        W46290  28.103  17.566  12.056
81064W        W46291   2.213  15.365   0.780
81065W        W46292  31.462  44.516  12.221
81066W        W46293  29.177  28.210  14.509
81067W        W46294  13.494  27.553   1.720
81068W        W46295   2.229  32.674   4.803
81069W        W46296   9.221  43.524  13.597
81070W        W46297  28.107  11.289   4.137
81071W        W46298  28.928  34.074  11.130
81072W        W46299  41.244   2.257   0.722
81073W        W46300  37.068  31.084  12.613
81074W        W46301  13.787  22.071  14.888
81075W        W46302  18.954  17.066  10.680
81076W        W46303  11.890   0.865   3.197
81077W        W46304  32.047   0.249  10.988
81078W        W46305   8.233   9.868  13.461
81079W        W46306  34.984  17.554  13.840
81080W        W46307  38.146  10.898   1.893
81081W        W46308  28.227  34.812   1.913
81082W        W46309  18.030  43.558  14.037
81083W        W46310  23.705  26.784   3.172
81084W        W46311  31.700  30.906   4.608
81085W        W46312  28.965  13.368  11.788
81086W        W46313  37.584  17.059   2.694
81087W        W46314  43.547  18.208   9.569
81088W        W46315  28.622  30.037  14.410
81089W        W46316   3.215  12.070  14.032
81090W        W46317  19.200  43.498   0.413
81091W        W46318  24.651  34.643   4.156
81092W        W46319   6.545  16.852   0.486
81093W        W46320  37.505  36.546   5.072
81094W        W46321   0.776  41.081  13.386
81095W        W46322  43.034  20.526  13.863
81096W        W46323   6.245  13.311   0.376
81097W        W46324  25.783  26.530  11.179
81098W        W46325  14.407   3.172   0.233
81099W        W46326  10.404  37.401   4.194
81100W        W46327  22.009  44.493  14.013
81101W        W46328  17.898  14.397   2.340
81102W        W46329  42.747   4.713   1.773
81103W        W46330  31.495  23.018  11.992
81104W        W46331  21.087  29.416  13.914
81105W        W46332  15.985  23.260  14.201
81106W        W46333   5.719  14.590   2.385
81107W        W46334   9.260  25.999  13.011
81108W        W46335  39.682  11.727  14.041
81109W        W46336  32.106   8.656   4.087
81110W        W46337  32.015  20.020   2.800
81111W        W46338  17.817  15.144   4.681
81112W        W46339  35.612  39.552  14.351
81113W        W46340   8.655  33.319   3.789
81114W        W46341  20.299   1.128   3.643
81115W        W46342  29.168  21.309  13.425
81116W        W46343  14.362  17.748   0.982
81117W        W46344  28.266   5.422   3.058
81118W        W46345  35.838  18.540   0.975
81119W        W46346  28.348  23.445   3.013
81120W        W46347  12.177   3.124   0.444
81121W        W46348  35.515  44.340  14.478
81122W        W46349   4.586  33.592   3.147
81123W        W46350  16.817   3.418   4.615
81124W        W46351  29.661  23.725   0.570
81125W        W46352   1.543  21.152  14.871
81126W        W46353  19.891   8.602  12.004
81127W        W46354  31.186  40.443  11.710
81128W        W46355  26.532  26.804  13.725
81129W        W46356  22.086  36.321   4.137
81130W        W46357  41.347  20.013   4.600
81131W        W46358  43.662  34.850  13.477
81132W        W46359   8.907  21.547  10.742
81133W        W46360   2.851  21.951   4.115
81134W        W46361   7.412  25.580   2.536
81135W        W46362  43.540  32.156   4.510
81136W        W46363   3.604   4.901  14.228
81137W        W46364  29.667  35.529  14.687
81138W        W46365  22.678  11.496   2.061
81139W        W46366  37.121   0.371  12.981
81140W        W46367   9.350  14.987  13.074
81141W        W46368   3.458  18.040   1.000
81142W        W46369   1.665   4.495   1.451
81143W        W46370   8.919   1.902   0.365
81144W        W46371  41.084   3.049   2.017
81145W        W46372  21.978   6.848  10.530
81146W        W46373   1.917  21.661  10.751
81147W        W46374   5.466   7.828   0.900
81148W        W46375  16.645   8.356  14.785
81149W        W46376  33.443  28.950  11.564
81150W        W46377   7.190  43.992   2.386
81151W        W46378  31.750   8.265  10.650
81152W        W46379  16.065   7.094   1.913
81153W        W46380  19.291  37.575  12.483
81154W        W46381  40.350   8.176   5.016
81155W        W46382  42.241  38.557  14.400
81156W        W46383  26.715  38.282   4.057
81157W        W46384  12.426  28.021   1.124
81158W        W46385  32.797  35.217  14.882
81159W        W46386  43.316  33.985   3.815
81160W        W46387  14.254  42.965  10.884
81161W        W46388  40.160  14.621   0.952
81162W        W46389  37.776  23.696   4.652
81163W        W46390  36.314  11.455  14.988
81164W        W46391  31.241  27.044  12.260
81165W        W46392  25.226  16.359  13.348
81166W        W46393   5.455  39.366   1.689
81167W        W46394   1.414  22.823  14.271
81168W        W46395  17.316  13.255  11.118
81169W        W46396  37.494  10.264  13.165
81170W        W46397  21.308   1.242   1.502
81171W        W46398   9.217   7.410   2.476
81172W        W46399   8.831  17.103   1.675
81173W        W46400  27.429   6.700  13.864
81174W        W46401  44.085  20.620   2.251
81175W        W46402  16.144  10.322  13.041
81176W        W46403  17.296  15.067  11.827
81177W        W46404  44.184  34.586  13.466
81178W        W46405  35.371  38.382   5.407
81179W        W46406  40.928  35.234   3.359
81180W        W46407  16.749   1.213   0.351
81181W        W46408  19.872   2.562   3.212
81182W        W46409  39.491  16.233   3.353
81183W        W46410  13.389  40.423  13.887
81184W        W46411  31.460  35.590   1.301
81185W        W46412  39.000  16.260   3.191
81186W        W46413   8.147  35.351  14.967
81187W        W46414  41.787  27.502   2.774
81188W        W46415  12.053  35.962  14.392
81189W        W46416  43.596  32.924  11.097
81190W        W46417   3.002  23.297   1.180
81191W        W46418   6.902  38.801  10.336
81192W        W46419  22.649  27.570  10.456
81193W        W46420  27.181  25.045   3.612
81194W        W46421  35.802  17.685   0.744
81195W        W46422   0.962  10.222   2.260
81196W        W46423   5.914  26.808  13.628
81197W        W46424  12.143  35.181  12.424
81198W        W46425  18.617   0.424  12.038
81199W        W46426  43.770  11.870  11.389
81200W        W46427  36.674  13.553  13.891
81201W        W46428   4.252  24.462   3.636
81202W        W46429   8.284  12.043  11.707
81203W        W46430  16.817  39.930  12.062
81204W        W46431  22.324  32.918  14.046
81205W        W46432   6.370  37.096   2.338
81206W        W46433  21.948  10.284  12.040
81207W        W46434  24.153  14.058   3.022
81208W        W46435  35.216  23.286   2.460
81209W        W46436  30.435   6.303   3.654
81210W        W46437  25.424  11.874  12.055
81211W        W46438   3.775  16.193   4.825
81212W        W46439   4.789  28.407   3.658
81213W        W46440  43.946  43.861  12.284
81214W        W46441  24.614  14.907   4.382
81215W        W46442  27.745   0.732   2.562
81216W        W46443  29.815  28.270   5.028
81217W        W46444  21.251  10.851   1.311
81218W        W46445   0.705  23.248   2.132
81219W        W46446  14.230  24.259  12.811
81220W        W46447  22.003   7.907   3.174
81221W        W46448  11.164   1.669  13.961
81222W        W46449  15.236   2.915   1.355
81223W        W46450  29.409  37.124   3.634
81224W        W46451   0.281  12.371   3.658
81225W        W46452  10.324  32.394  14.204
81226W        W46453   2.197  38.882   0.293
81227W        W46454  22.126  13.685   4.095
81228W        W46455  22.614  13.902  10.804
81229W        W46456  38.266  44.443  14.823
81230W        W46457   6.836   4.473  12.521
81231W        W46458  19.219   5.430   3.636
81232W        W46459  37.442  19.764   4.100
81233W        W46460  33.047   2.546  10.742
81234W        W46461  12.207  37.310   1.175
81235W        W46462  35.848   8.605  13.367
81236W        W46463  39.584  14.391   3.715
81237W        W46464   7.153  12.671   0.358
81238W        W46465  26.106  43.262   3.248
81239W        W46466  36.566  34.554   4.756
81240W        W46467  41.092  17.160   0.353
81241W        W46468  15.212   8.534  12.935
81242W        W46469   8.584   5.868  14.333
81243W        W46470  30.458  43.796   2.732
81244W        W46471  22.538  28.993   0.828
81245W        W46472  35.978  35.422   0.535
81246W        W46473  10.282  11.866   3.095
81247W        W46474   9.330  22.662  14.926
81248W        W46475  19.167  41.422  14.200
81249W        W46476  20.767  15.818   9.924
81250W        W46477  27.514   1.961  14.827
81251W        W46478   2.962  17.587  13.019
81252W        W46479  14.806  27.092  12.190
81253W        W46480  38.845  17.965  14.811
81254W        W46481  40.411  30.781  13.786
81255W        W46482   9.819  43.878   3.397
81256W        W46483   0.342   2.800   2.519
81257W        W46484  36.970  26.427   1.268
81258W        W46485  16.058  28.895  10.821
81259W        W46486  44.289  12.202  13.817
81260W        W46487  12.798  15.693  11.956
81261W        W46488  34.326  20.317  12.044
81262W        W46489  22.145  36.935   1.665
81263W        W46490  42.457  24.161   2.357
81264W        W46491   7.731  40.698   2.176
81265W        W46492  23.459  30.540   4.587
81266W        W46493  29.015   3.224  14.926
81267W        W46494  14.385  38.852  12.898
81268W        W46495  37.565  42.527   2.360
81269W        W46496   0.820  30.440  11.693
81270W        W46497  42.912  24.601   3.131
81271W        W46498  35.963   2.244  13.298
81272W        W46499  31.336   0.367   1.682
81273W        W46500  14.514  15.365  12.501
81274W        W46501  13.062  27.610  14.844
81275W        W46502  36.117  17.007   1.267
81276W        W46503  40.654  34.995   3.747
81277W        W46504   7.159  42.736   1.368
81278W        W46505  28.007   6.022  10.438
81279W        W46506  31.599  32.515   0.197
81280W        W46507   2.364  39.786  14.851
81281W        W46508  25.206  14.887   2.432
81282W        W46509  38.987  36.452   0.284
81283W        W46510  16.079  10.687   0.966
81284W        W46511  35.369  33.560  13.981
81285W        W46512   5.756  11.823   3.929
81286W        W46513  25.707  20.333   1.713
81287W        W46514   2.745  36.438   2.311
81288W        W46515  26.649   3.530  12.160
81289W        W46516  33.299  23.299  14.864
81290W        W46517   2.764  35.072  10.679
81291W        W46518  17.280  10.096   2.350
81292W        W46519  15.567  19.556  13.936
81293W        W46520  19.372  19.840   3.852
81294W        W46521  16.113  15.904  13.002
81295W        W46522  19.047  15.333   3.287
81296W        W46523  33.119  32.887   4.584
81297W        W46524  37.479  40.814   0.292
81298W        W46525   7.150   4.570   1.875
81299W        W46526   3.760  32.597   1.930
81300W        W46527  19.531   3.347  13.348
81301W        W46528   2.662  42.406  11.053
81302W        W46529  25.322   5.707   2.779
81303W        W46530  25.889  37.928  13.715
81304W        W46531   6.634  34.363   2.788
81305W        W46532  36.424  41.802  11.731
81306W        W46533  31.350  35.583   3.233
81307W        W46534  13.085  16.855   1.421
81308W        W46535  25.793  24.972  14.852
81309W        W46536  38.486  27.692  12.993
81310W        W46537  11.986  40.006  11.407
81311W        W46538  17.160  28.902   4.820
81312W        W46539  24.974  26.986   2.880
81313W        W46540  11.025  44.236   3.622
81314W        W46541  44.596  38.890   2.269
81315W        W46542  17.775   6.272  14.793
81316W        W46543  27.699  20.720  14.303
81317W        W46544  43.991  22.185  12.174
81318W        W46545  32.405  21.204  13.473
81319W        W46546   6.747  26.652  13.429
81320W        W46547   1.662  44.966   1.855
81321W        W46548  16.050  13.972   1.494
81322W        W46549  12.202  24.460  13.239
81323W        W46550  41.284  39.389  13.240
81324W        W46551  29.909   8.494  13.377
81325W        W46552  18.239  17.102   0.151
81326W        W46553  20.461  12.888   1.444
81327W        W46554  22.216  26.752   2.331
81328W        W46555  24.104  22.927  14.983
81329W        W46556  22.872  44.287   2.500
81330W        W46557  15.663  43.301   0.450
81331W        W46558  31.544  35.066   0.245
81332W        W46559   8.811  21.179   0.174
81333W        W46560  31.376  10.756   3.302
81334W        W46561   4.798  27.604   2.794
81335W        W46562  12.849  37.515   1.932
81336W        W46563   3.284  40.025   0.863
81337W        W46564  37.468  34.382  14.269
81338W        W46565  29.086  27.711  12.074
81339W        W46566   4.662  20.630   2.405
81340W        W46567  41.360   8.373  14.320
81341W        W46568  38.508  30.212  13.353
81342W        W46569  28.561   4.547  13.975
81343W        W46570  15.122   7.752   2.619
81344W        W46571  13.611  44.151  10.845
81345W        W46572  41.783  39.427   0.424
81346W        W46573  25.713  19.737   3.293
81347W        W46574  18.327   8.215   4.153
81348W        W46575  30.979  22.258   1.985
81349W        W46576  21.778  12.901  14.662
81350W        W46577  12.136  23.428  12.371
81351W        W46578  29.197  32.137   0.825
81352W        W46579  16.623  21.013  12.579
81353W        W46580  29.894  30.199  12.482
81354W        W46581  23.515   6.303  12.152
81355W        W46582   7.633  14.764   2.107
81356W        W46583  13.903  10.649  12.416
81357W        W46584  21.600  28.518  10.900
81358W        W46585  33.253  14.493   2.458
81359W        W46586  37.429  27.751  13.775
81360W        W46587  26.490   7.913  10.615
81361W        W46588   1.180  39.433   1.212
81362W        W46589   6.958  43.903   3.155
81363W        W46590  29.312  40.111  11.099
81364W        W46591  36.127  27.719   2.712
81365W        W46592  19.350  42.776  14.797
81366W        W46593   3.956  38.339  10.588
81367W        W46594  10.188  38.112   4.363
81368W        W46595   0.079  18.243  11.095
81369W        W46596  17.107   9.495  12.126
81370W        W46597  13.387  42.402   4.525
81371W        W46598  14.686   0.361  13.000
81372W        W46599  12.749   9.950  14.009
81373W        W46600  23.679   8.019   0.802
81374W        W46601  19.793  37.831   1.897
81375W        W46602   5.711  11.150   0.533
81376W        W46603  41.656   0.686   1.285
81377W        W46604   2.898  33.140  12.499
81378W        W46605  26.853  17.146  10.248
81379W        W46606  33.508  42.096  11.553
81380W        W46607   4.377   6.948  14.293
81381W        W46608   3.185   7.998  10.967
81382W        W46609  41.857  13.813   4.520
81383W        W46610  44.720  10.911  11.093
81384W        W46611  23.247  42.631   3.389
81385W        W46612  41.363  41.702  14.563
81386W        W46613   8.957  40.831  14.525
81387W        W46614  18.438   2.088  13.089
81388W        W46615   6.540  16.825  14.720
81389W        W46616  37.510  38.447  10.694
81390W        W46617  18.646  14.322  10.756
81391W        W46618  27.743  29.482  14.438
81392W        W46619  43.285  34.855  10.801
81393W        W46620  12.797  39.493   1.940
81394W        W46621  33.463  31.723  13.943
81395W        W46622  27.018  24.839   4.332
81396W        W46623  11.091  38.600   4.178
81397W        W46624  35.317  11.796  13.607
81398W        W46625  21.697  23.766  13.402
81399W        W46626  26.445   3.383  13.944
81400W        W46627  42.133  34.749   1.591
81401W        W46628  24.675   0.824   2.998
81402W        W46629  31.564   5.785   4.099
81403W        W46630  18.598  24.810  13.276
81404W        W46631  37.437  33.009  11.214
81405W        W46632  25.059  24.545  13.856
81406W        W46633  19.068  27.743   4.217
81407W        W46634  44.134  36.875   1.792
81408W        W46635  40.415  25.511  12.075
81409W        W46636  44.974  15.042  13.861
81410W        W46637   0.900   5.209   2.802
81411W        W46638   4.322  14.021   0.873
81412W        W46639   4.899  30.111  11.574
81413W        W46640  36.496   8.115  11.995
81414W        W46641   9.579   3.945   0.013
81415W        W46642  24.539  40.035   5.066
81416W        W46643  24.016  25.216  11.584
81417W        W46644   6.315  33.703   1.638
81418W        W46645  16.074  32.531   2.852
81419W        W46646  17.766   3.209   3.666
81420W        W46647  29.431  36.693   4.564
81421W        W46648  32.080  41.512   3.551
81422W        W46649  13.144  33.928  14.408
81423W        W46650   5.849  19.086  10.404
81424W        W46651  24.940  37.513   2.223
81425W        W46652  31.467  39.898   2.346
81426W        W46653  30.067  37.320  13.795
81427W        W46654  40.451  24.092  11.588
81428W        W46655   4.032  44.325   1.794
81429W        W46656  31.910  24.260   4.241
81430W        W46657  28.472  27.271   3.540
81431W        W46658  44.237  22.614  11.067
81432W        W46659  38.575   1.967  12.852
81433W        W46660   8.400  22.887  12.826
81434W        W46661  14.100  18.209  12.584
81435W        W46662   6.402  25.467   2.828
81436W        W46663  20.965  20.613   4.067
81437W        W46664  14.443   2.645  14.808
81438W        W46665  18.558  26.210  10.979
81439W        W46666  14.537  35.951   2.594
81440W        W46667   2.860  17.121   0.312
81441W        W46668   8.367  39.539   2.800
81442W        W46669  19.140  26.929  11.356
81443W        W46670   7.601  44.460   1.978
81444W        W46671   3.677  17.036   2.422
81445W        W46672  14.619  25.967   3.781
81446W        W46673  19.453  26.221  14.575
81447W        W46674  36.500  31.966  13.907
81448W        W46675  37.975  22.389   4.740
81449W        W46676   9.354  15.048   0.532
81450W        W46677  26.943  32.424  14.843
81451W        W46678  22.342  12.451   1.048
81452W        W46679  33.800  37.903   2.285
81453W        W46680   3.502  36.229   9.772
81454W        W46681  41.361  13.033  12.990
81455W        W46682  42.545  20.427   2.830
81456W        W46683  38.182  11.595  10.263
81457W        W46684  29.478  27.605   1.794
81458W        W46685  24.442  35.500  12.399
81459W        W46686  10.456   4.421  14.260
81460W        W46687   6.405  12.770  12.529
81461W        W46688  13.634  24.591  13.815
81462W        W46689  41.996  22.518  10.229
81463W        W46690  12.806   5.166   1.053
81464W        W46691  26.482  42.453   0.825
81465W        W46692  18.552  43.867  12.801
81466W        W46693  21.285  24.564  11.529
81467W        W46694  13.828   7.758  14.845
81468W        W46695  37.854  34.770  13.489
81469W        W46696  16.472  19.531   4.532
81470W        W46697  35.665   2.314   0.027
81471W        W46698  34.843  38.478   0.091
81472W        W46699  29.995  28.352   2.673
81473W        W46700  36.382  37.343  11.104
81474W        W46701  42.463  34.244   0.783
81475W        W46702  35.838  38.284  14.880
81476W        W46703  40.748  12.053  11.221
81477W        W46704  24.164   1.418   2.707
81478W        W46705  40.783  32.892   0.970
81479W        W46706  31.851  44.206  12.400
81480W        W46707  28.675  42.294  11.980
81481W        W46708  24.057  16.818  13.354
81482W        W46709  14.319  43.443  13.012
81483W        W46710  37.958  19.233   2.149
81484W        W46711  18.513  14.733  13.022
81485W        W46712  31.943   9.845  14.256
81486W        W46713  15.113  18.772   4.109
81487W        W46714  10.890  40.769  13.386
81488W        W46715  24.971  12.119   2.328
81489W        W46716  42.034  39.423  12.462
81490W        W46717   6.368   0.992  10.669
81491W        W46718  23.049   0.337  13.950
81492W        W46719  24.099  37.267  12.085
81493W        W46720  38.842  10.313  13.201
81494W        W46721  21.478  21.998  13.323
81495W        W46722  32.568  39.343   0.931
81496W        W46723  39.535   4.980  13.871
81497W        W46724  14.684  25.046  13.059
81498W        W46725   9.355  18.647   3.860
81499W        W46726   5.194  12.268  14.009
81500W        W46727  33.162  43.939  13.079
81501W        W46728  35.364   1.635   1.886
81502W        W46729  34.137  33.283  10.607
81503W        W46730  33.964   0.537   3.735
81504W        W46731  19.629  42.641   2.225
81505W        W46732  27.997  12.335   0.997
81506W        W46733   1.958  15.120   3.560
81507W        W46734  38.363  28.508   4.143
81508W        W46735  33.877   1.919   1.954
81509W        W46736   2.647  22.999  11.012
81510W        W46737  21.547  12.922  12.344
81511W        W46738  15.964  34.913   0.131
81512W        W46739  34.519  18.296  13.055
81513W        W46740   8.319  35.576  13.470
81514W        W46741  34.060  11.133  12.516
81515W        W46742  44.227  33.351  12.841
81516W        W46743   1.525  36.051   0.149
81517W        W46744  32.939  34.564   0.315
81518W        W46745  27.742   6.610   4.525
81519W        W46746  31.183  35.959   2.007
81520W        W46747  33.739  29.755   1.303
81521W        W46748   9.553  15.186   1.006
81522W        W46749  39.873   9.860  13.834
81523W        W46750  32.149  16.689  11.083
81524W        W46751  37.717  36.738  10.888
81525W        W46752  17.764  37.276   2.225
81526W        W46753  11.303  44.929   0.843
81527W        W46754  21.081  42.385   4.742
81528W        W46755  41.854  30.239  12.520
81529W        W46756  12.797  16.475   3.888
81530W        W46757  19.594   3.860   0.994
81531W        W46758   0.532  28.719  10.766
81532W        W46759  11.168  24.674  11.625
81533W        W46760   1.939   9.832  12.431
81534W        W46761  10.222   9.195  10.974
81535W        W46762  28.992   9.820  12.762
81536W        W46763   6.917   8.227  12.092
81537W        W46764  40.911  23.974  12.361
81538W        W46765  24.131  17.683  11.170
81539W        W46766   4.449  13.268   3.067
81540W        W46767  16.541   1.883  13.274
81541W        W46768  32.667   8.216  14.359
81542W        W46769  32.562   9.825  10.728
81543W        W46770  21.148   3.452   1.020
81544W        W46771   6.774  21.890   4.187
81545W        W46772  41.937  16.351   1.850
81546W        W46773   7.737  17.748   0.217
81547W        W46774  36.501   8.706   0.514
81548W        W46775  29.848  16.469  11.993
81549W        W46776  27.456  33.430   1.236
81550W        W46777  24.275  14.218   0.204
81551W        W46778  11.843   3.175   0.856
81552W        W46779  24.752   7.723   3.283
81553W        W46780  42.321  39.030   2.376
81554W        W46781  39.388   6.952   4.071
81555W        W46782  10.196  12.195   0.736
81556W        W46783  42.609  21.651   1.482
81557W        W46784  19.564   6.186   2.415
81558W        W46785  22.718  35.220   1.330
81559W        W46786  42.025  23.795   1.478
81560W        W46787  18.813  42.700   1.631
81561W        W46788  24.071  25.109  14.411
81562W        W46789  22.048  43.637  12.574
81563W        W46790   4.932   4.412  13.027
81564W        W46791  23.093  14.159  14.573
81565W        W46792   8.443  30.749   0.289
81566W        W46793  42.407  44.997   4.609
81567W        W46794   0.140  43.854  10.578
81568W        W46795   4.246  32.880  12.539
81569W        W46796  11.243  17.775   0.908
81570W        W46797  30.733  16.213  11.996
81571W        W46798  20.603  30.151  11.206
81572W        W46799  12.202  12.783   3.446
81573W        W46800  17.560  17.138   0.587
81574W        W46801  32.547  10.486  12.963
81575W        W46802  43.528  12.197   2.742
81576W        W46803   8.640   6.901   3.280
81577W        W46804  13.057  29.135   2.270
81578W        W46805   9.685   7.763  10.804
81579W        W46806  12.594  19.274   2.048
81580W        W46807   7.803  37.245  10.698
81581W        W46808  33.028   1.003   1.770
81582W        W46809  36.114  17.832   4.256
81583W        W46810  35.535  17.555  12.464
81584W        W46811  34.158  12.031  12.597
81585W        W46812  14.626  41.470  10.730
81586W        W46813   2.296  26.571   2.683
81587W        W46814  23.158  32.536   4.758
81588W        W46815  19.360  44.290   3.986
81589W        W46816  26.070  42.804   1.916
81590W        W46817  33.380  42.402   4.293
81591W        W46818   6.263  33.099   3.435
81592W        W46819   2.263  24.285   0.946
81593W        W46820  33.508  19.545  10.712
81594W        W46821  10.018  16.386  11.587
81595W        W46822   2.506  44.947   2.300
81596W        W46823   0.869  32.019  10.993
81597W        W46824   6.043  18.588  11.084
81598W        W46825  32.858  20.778  10.757
81599W        W46826  14.995   8.187  13.785
81600W        W46827  35.849  20.679  12.249
81601W        W46828  22.783   2.813   0.347
81602W        W46829   9.138   2.820  10.816
81603W        W46830  35.795  44.299   3.403
81604W        W46831  41.772  43.922  10.729
81605W        W46832  37.830  24.117  10.715
81606W        W46833  18.379  39.037   3.118
81607W        W46834  41.814  38.625   4.149
81608W        W46835  29.405  18.483  11.182
81609W        W46836  21.243  33.059   4.064
81610W        W46837  12.847  35.107  10.727
81611W        W46838  31.017  37.663   0.212
81612W        W46839  44.039  44.244   3.719
81613W        W46840  19.583  18.286  14.404
81614W        W46841  21.801  27.207   2.897
81615W        W46842  43.436   9.920  13.913
81616W        W46843  11.795  22.188   2.689
81617W        W46844  23.537   0.248  11.954
81618W        W46845  24.115  38.109  14.305
81619W        W46846  25.998  38.900   1.378
81620W        W46847  42.081  27.014  14.275
81621W        W46848   0.192   0.058   2.092
81622W        W46849  21.566  44.703   2.707
81623W        W46850  30.404  17.840   1.367
81624W        W46851  41.811  20.739  11.528
81625W        W46852  30.491  23.756   2.241
81626W        W46853  43.644  10.638  14.534
81627W        W46854  41.293  17.272  14.894
81628W        W46855  16.016   3.951  12.438
81629W        W46856  29.440   0.208   3.154
81630W        W46857  19.082  31.517   4.079
81631W        W46858  26.622  27.435   3.666
81632W        W46859  24.239   4.532  12.468
81633W        W46860  34.523  37.273   3.678
81634W        W46861  23.651  43.329  14.910
81635W        W46862  14.583  20.387   5.222
81636W        W46863   6.646   9.322  11.087
81637W        W46864  14.851  33.808   3.655
81638W        W46865   1.891  11.661   2.235
81639W        W46866  36.940   6.879  10.780
81640W        W46867  11.782  32.018   2.232
81641W        W46868   6.182  28.945   0.756
81642W        W46869   0.465  37.635   3.174
81643W        W46870  31.015  38.782   4.115
81644W        W46871  16.271  19.087   1.370
81645W        W46872  20.168   6.346  10.779
81646W        W46873  39.492  19.954  10.503
81647W        W46874   2.557  15.423  13.744
81648W        W46875  19.099  15.848  13.553
81649W        W46876  17.580   5.801  13.947
81650W        W46877  21.495  24.051   3.297
81651W        W46878  23.620  24.203  14.836
81652W        W46879  23.510  13.829   1.728
81653W        W46880  37.424  11.489   1.234
81654W        W46881  42.329  37.474  11.407
81655W        W46882  11.868   9.721  10.968
81656W        W46883  34.947  19.404   2.205
81657W        W46884   2.383  23.736   1.803
81658W        W46885   4.289  34.399  14.235
81659W        W46886  39.517  24.133  11.166
81660W        W46887  16.261  29.994   3.661
81661W        W46888   1.476  29.464  11.085
81662W        W46889  18.160  11.377  13.317
81663W        W46890  16.704  38.639   3.209
81664W        W46891  27.665   3.430   4.661
81665W        W46892   4.924  11.860   0.965
81666W        W46893  15.802  13.203   2.387
81667W        W46894  10.843  18.722  10.720
81668W        W46895   6.653  34.297  11.068
81669W        W46896   9.794   4.925  13.346
81670W        W46897  35.220  34.773   0.248
81671W        W46898  42.028   3.372   0.905
81672W        W46899  20.377  38.494  13.098
81673W        W46900  36.002  16.088   3.591
81674W        W46901  40.015  10.873   0.009
81675W        W46902  23.008  24.387  11.225
81676W        W46903  32.755  16.401   4.164
81677W        W46904  23.202   7.911  14.172
81678W        W46905  20.494  36.359   1.631
81679W        W46906   2.450  23.250   2.630
81680W        W46907  20.009  12.619   3.162
81681W        W46908   9.535  23.442   0.351
81682W        W46909  32.664  44.426   0.498
81683W        W46910   0.217   0.984   2.800
81684W        W46911   5.345  27.605  10.871
81685W        W46912  25.150  42.422   2.931
81686W        W46913  14.101   9.821  10.631
81687W        W46914  22.219  25.234  12.063
81688W        W46915   6.489  29.019   4.579
81689W        W46916   9.903   1.895   2.892
81690W        W46917  16.285   2.115   4.248
81691W        W46918  32.797  29.357  12.018
81692W        W46919  15.628  27.890   3.601
81693W        W46920  14.247  30.523   0.872
81694W        W46921   0.529  42.215  11.930
81695W        W46922  39.954  42.406  13.157
81696W        W46923   8.804  40.355   3.230
81697W        W46924  21.680   1.062   0.685
81698W        W46925  35.069  11.704   2.276
81699W        W46926  16.348   8.200   2.151
81700W        W46927  12.484  21.363   5.046
81701W        W46928   2.477   3.274   3.989
81702W        W46929  16.675   2.691   2.964
81703W        W46930  33.636  22.927   1.267
81704W        W46931  17.736  36.357  11.169
81705W        W46932  11.431  16.045   1.202
81706W        W46933  32.677  18.629  10.732
81707W        W46934  16.367  19.975  12.084
81708W        W46935  31.804  38.980  12.643
81709W        W46936  35.388  27.638   1.021
81710W        W46937  24.789  29.180   1.670
81711W        W46938   2.789  31.382   3.661
81712W        W46939  40.068  19.221   2.816
81713W        W46940  13.215  42.841   2.375
81714W        W46941  29.506  35.949  12.817
81715W        W46942  38.449  15.771  10.846
81716W        W46943   9.142  35.803  11.120
81717W        W46944   5.177   0.343   4.041
81718W        W46945  41.679  31.070   3.739
81719W        W46946  21.893  42.276   4.500
81720W        W46947  40.448  12.235   0.879
81721W        W46948  43.259  15.146   3.277
81722W        W46949  41.275  13.598   3.751
81723W        W46950  17.843  31.953  13.301
81724W        W46951  21.907  40.443   1.527
81725W        W46952  32.783  17.339  10.112
81726W        W46953  44.370  27.664   0.803
81727W        W46954  24.602  10.646  10.751
81728W        W46955  36.745  21.632  11.580
81729W        W46956  30.912  44.703  13.998
81730W        W46957  11.502  16.387   5.484
81731W        W46958   3.000  20.857  10.775
81732W        W46959  16.714  10.644   0.171
81733W        W46960  12.641  29.789  11.924
81734W        W46961  26.869   6.753  12.958
81735W        W46962   4.413  16.336  14.462
81736W        W46963  20.457   7.367  13.253
81737W        W46964  42.514  25.575  14.431
81738W        W46965  13.692  18.134  12.916
81739W        W46966  43.994  41.093  14.858
81740W        W46967  41.002  18.314   2.606
81741W        W46968   8.442   9.964  12.119
81742W        W46969  44.673  38.967   3.226
81743W        W46970  17.026  18.128  13.975
81744W        W46971  29.196  10.251  12.942
81745W        W46972  26.405  37.476   3.753
81746W        W46973  39.039  12.042  11.598
81747W        W46974  11.147  21.574  12.838
81748W        W46975  43.106  27.255  11.011
81749W        W46976  19.156  22.412  12.407
81750W        W46977  20.773  18.017   3.633
81751W        W46978  33.926  14.683   0.709
81752W        W46979  10.355  12.741   2.578
81753W        W46980  24.059   6.690   2.798
81754W        W46981   0.426  25.948   4.565
81755W        W46982  36.024  19.003  11.518
81756W        W46983  25.565  34.436  12.091
81757W        W46984   9.902  19.126  14.925
81758W        W46985  23.047  26.990   1.982
81759W        W46986  19.495  12.697   1.971
81760W        W46987  26.302  26.402   0.498
81761W        W46988  10.631  42.741  12.530
81762W        W46989  34.029  25.618  11.531
81763W        W46990  23.272   5.231   1.310
81764W        W46991   7.323  23.224  10.588
81765W        W46992  12.864  36.041  13.763
81766W        W46993   8.463  24.705   0.884
81767W        W46994  16.810  42.965   2.345
81768W        W46995   1.461  21.372   0.909
81769W        W46996  39.581  30.593   1.821
81770W        W46997  35.423  18.656   0.309
81771W        W46998  40.257  30.296   4.054
81772W        W46999  44.786  25.760  12.639
81773W        W47000  34.922  10.163  12.640
81774W        W47001  35.867   9.211   0.687
81775W        W47002  10.167  40.754  10.738
81776W        W47003   4.741  34.514  10.088
81777W        W47004  12.195  13.759   3.924
81778W        W47005   4.339  42.510   0.767
81779W        W47006   6.237  17.030   3.188
81780W        W47007  39.556  38.084   3.726
81781W        W47008  44.791  10.269  14.005
81782W        W47009  35.329  12.611  10.544
81783W        W47010  18.760  14.689   2.770
81784W        W47011  37.903  10.863   1.417
81785W        W47012  15.058   5.415  13.414
81786W        W47013  37.016  40.347   0.078
81787W        W47014   6.380  15.645   3.219
81788W        W47015  26.117   5.886  12.172
81789W        W47016  10.981  21.221   0.533
81790W        W47017   5.182  12.235   2.317
81791W        W47018   3.948  32.551  10.938
81792W        W47019  14.279  26.410  10.660
81793W        W47020   5.158  21.080   2.791
81794W        W47021  32.663   4.238  12.000
81795W        W47022  19.177  43.585   1.798
81796W        W47023  29.778   2.216   1.486
81797W        W47024  25.765  24.681   3.713
81798W        W47025   5.651  36.111  12.514
81799W        W47026   3.866  40.657  11.168
81800W        W47027  37.763  27.464  13.501
81801W        W47028   1.012   4.825  11.242
81802W        W47029  15.583  42.471   3.247
81803W        W47030  16.462  12.788  14.033
81804W        W47031  34.032  12.259   4.378
81805W        W47032  12.095   2.243   4.068
81806W        W47033   2.643  26.286   2.421
81807W        W47034  27.626  18.250   1.517
81808W        W47035  16.403   2.717   3.407
81809W        W47036  37.799  30.500  12.449
81810W        W47037  35.394  19.155   2.162
81811W        W47038  21.594  26.517   0.963
81812W        W47039  40.044   4.879   2.859
81813W        W47040  10.264  23.717  12.880
81814W        W47041   1.600  38.746   4.735
81815W        W47042   2.953  19.028  10.107
81816W        W47043  26.735  13.421  13.915
81817W        W47044  28.892  31.251   0.355
81818W        W47045  12.197  28.433   3.282
81819W        W47046   2.536  19.194   4.731
81820W        W47047  41.127  20.045   0.882
81821W        W47048  16.289  19.597   1.352
81822W        W47049  22.751   3.230   2.907
81823W        W47050  13.157  27.435   0.849
81824W        W47051   4.644   5.398   4.101
81825W        W47052  39.447   0.083  12.374
81826W        W47053  16.018   5.776  11.621
81827W        W47054  10.584  42.791  10.710
81828W        W47055  21.007   1.154   4.932
81829W        W47056  17.212  38.478   1.709
81830W        W47057  17.702  16.737  12.087
81831W        W47058  18.468  27.986   3.314
81832W        W47059  42.194   3.511  11.929
81833W        W47060  29.114  34.177  13.922
81834W        W47061   1.801  21.014   0.760
81835W        W47062  25.213   3.971   2.332
81836W        W47063  11.774  30.608   0.936
81837W        W47064  36.138  41.837  12.138
81838W        W47065  37.017   7.873   3.088
81839W        W47066  22.490  15.862   0.300
81840W        W47067   2.693  22.433   4.197
81841W        W47068  35.521   6.074   2.907
81842W        W47069  19.017  20.755  13.500
81843W        W47070   2.964  24.076  13.513
81844W        W47071  39.313  38.840   1.941
81845W        W47072  39.461  21.539  14.547
81846W        W47073  41.875  33.471   2.316
81847W        W47074  40.800   1.887  10.873
81848W        W47075  32.135  37.956   2.766
81849W        W47076   3.912  41.281  13.709
81850W        W47077  23.255   4.968   3.632
81851W        W47078  30.727   6.988  12.841
81852W        W47079  20.037  11.685   4.952
81853W        W47080  39.357  36.072   3.839
81854W        W47081  35.037  22.133   1.886
81855W        W47082  19.627   0.965   2.648
81856W        W47083   8.338  16.333  14.841
81857W        W47084  30.172  22.037  14.926
81858W        W47085  11.306  30.585   5.209
81859W        W47086  38.503  21.464  11.460
81860W        W47087   5.373  39.987  14.996
81861W        W47088  30.989  12.540   1.840
81862W        W47089   1.697  31.905  13.924
81863W        W47090   9.460  32.952   1.649
81864W        W47091   3.169  13.663  11.171
81865W        W47092  20.645  31.164  12.579
81866W        W47093   0.385   6.428   0.944
81867W        W47094   6.877  38.793   3.274
81868W        W47095  33.020  39.472   4.345
81869W        W47096   5.737  31.911  13.381
81870W        W47097  19.002  30.256  14.412
81871W        W47098  34.038  40.259   3.221
81872W        W47099  15.130  44.455   4.892
81873W        W47100   6.308   2.769   4.262
81874W        W47101  36.797  36.596  11.368
81875W        W47102  37.075   6.907   4.958
81876W        W47103  35.799  13.956  11.213
81877W        W47104  18.030  16.846  11.711
81878W        W47105  19.067  31.180   2.132
81879W        W47106  27.472  39.610   2.284
81880W        W47107   5.065  34.560  13.423
81881W        W47108   3.557  18.773   1.658
81882W        W47109   6.816   2.918   4.371
81883W        W47110  22.704  11.162  10.479
81884W        W47111  39.304  15.206   4.753
81885W        W47112  13.576  23.219   0.796
81886W        W47113  19.469  17.266  10.691
81887W        W47114   6.882   4.786   0.456
81888W        W47115  39.082  10.471   3.153
81889W        W47116  31.864  19.379  14.964
81890W        W47117  26.229  39.899  10.606
81891W        W47118   0.046  18.720   3.618
81892W        W47119  15.375   4.179  11.203
81893W        W47120  29.596  23.744  12.471
81894W        W47121  22.612  24.140   5.055
81895W        W47122  26.566   9.446   3.613
81896W        W47123  35.882  12.781  12.670
81897W        W47124   5.021  42.231   1.180
81898W        W47125  32.064  41.750   0.289
81899W        W47126   3.276  23.598   0.374
81900W        W47127  41.268  21.999   0.369
81901W        W47128  34.361   4.434  13.920
81902W        W47129  32.936  17.842   0.770
81903W        W47130  29.733  39.496  13.522
81904W        W47131  11.943  40.790   5.034
81905W        W47132   6.712  13.977  10.743
81906W        W47133  37.733  35.659   1.840
81907W        W47134  21.112  28.205   4.448
81908W        W47135  35.349  11.249   2.273
81909W        W47136  16.678  15.830  12.022
81910W        W47137  20.125  10.361   3.778
81911W        W47138  28.640  17.916   0.173
81912W        W47139  33.525  14.690   1.524
81913W        W47140   1.144   4.254   3.660
81914W        W47141  39.911  20.491  13.837
81915W        W47142  37.050  31.043  11.697
81916W        W47143  36.893   7.741   3.572
81917W        W47144  24.203  13.065   1.911
81918W        W47145   1.023  17.417  13.850
81919W        W47146  13.207  25.573   3.086
81920W        W47147  17.528  44.372  14.484
81921W        W47148  32.643  10.765  13.541
81922W        W47149  18.660  31.684  14.988
81923W        W47150  42.390  36.904  14.948
81924W        W47151   5.392  43.041  14.292
81925W        W47152  32.129  24.594   2.151
81926W        W47153  40.442  25.876  13.902
81927W        W47154  18.112  21.210   4.687
81928W        W47155  34.389  22.631   2.266
81929W        W47156   6.094  43.040   2.179
81930W        W47157  34.498  20.549   3.837
81931W        W47158   9.155  16.601   0.843
81932W        W47159  38.779   2.651  11.310
81933W        W47160  39.846  37.966   4.559
81934W        W47161  17.910   9.302  13.386
81935W        W47162  13.179  11.871  14.770
81936W        W47163  29.445  26.965   2.380
81937W        W47164  20.507  17.854   2.362
81938W        W47165  17.590  26.879   0.345
81939W        W47166  29.072  36.554   3.232
81940W        W47167   5.185  25.385  10.279
81941W        W47168   2.137  13.851  11.532
81942W        W47169  42.992  35.478   4.393
81943W        W47170   2.444  39.530   2.999
81944W        W47171   2.505  11.575   3.324
81945W        W47172   1.410  38.500   4.294
81946W        W47173   3.713  35.244  11.426
81947W        W47174  29.940  38.130  10.785
81948W        W47175  27.034  20.313   3.221
81949W        W47176  44.778  41.077  12.185
81950W        W47177   4.798  37.465  13.568
81951W        W47178   4.517  11.989   3.318
81952W        W47179  36.618  27.388  11.152
81953W        W47180  39.057  22.172   4.563
81954W        W47181  31.524  18.278  13.758
81955W        W47182   4.331   6.233  10.880
81956W        W47183  10.257  27.565  11.270
81957W        W47184   7.977  33.149   4.896
81958W        W47185  21.732  27.569   3.877
81959W        W47186  42.524  35.216   4.529
81960W        W47187  24.122  27.036  14.412
81961W        W47188  30.772  36.730   2.615
81962W        W47189  18.892  35.601  14.350
81963W        W47190   0.399  26.951  14.671
81964W        W47191  34.380  11.862   4.366
81965W        W47192  36.781  12.820  14.124
81966W        W47193  20.291   7.258  12.045
81967W        W47194  36.885  22.462  12.182
81968W        W47195  37.948  12.752   3.139
81969W        W47196  24.096  44.451   4.948
81970W        W47197   3.424  36.268  14.300
81971W        W47198  39.523  32.078  13.427
81972W        W47199  16.994   0.860  13.444
81973W        W47200   8.183  13.299   1.743
81974W        W47201  41.330   5.169   9.861
81975W        W47202  30.684  31.166   1.733
81976W        W47203  44.878  31.614  12.368
81977W        W47204  16.127   0.547   4.838
81978W        W47205  19.169  32.617   0.975
81979W        W47206   0.043  26.516   0.796
81980W        W47207  20.734  31.050   3.535
81981W        W47208  21.190   3.155  12.797
81982W        W47209   8.756  23.646  12.046
81983W        W47210  23.251  24.642  13.422
81984W        W47211  36.573   0.290   1.612
81985W        W47212  27.431   4.809   2.223
81986W        W47213  34.330  42.523   2.193
81987W        W47214  25.164  19.110  11.936
81988W        W47215  41.872  39.250  13.922
81989W        W47216   4.263  14.813   2.880
81990W        W47217  35.799  44.819  11.572
81991W        W47218   3.350   3.516   3.421
81992W        W47219  24.237  33.066   3.884
81993W        W47220  20.475  15.365  13.979
81994W        W47221  32.113  12.034   2.814
81995W        W47222  27.271  11.290   2.133
81996W        W47223   8.171   5.231  11.135
81997W        W47224   7.237  33.682   0.828
81998W        W47225   5.667   2.725  12.689
81999W        W47226  15.213   2.940   2.834
82000W        W47227  35.841   7.175  13.525
82001W        W47228  28.189  17.953   0.476
82002W        W47229  42.255  23.108  10.461
82003W        W47230  19.217  23.124  13.009
82004W        W47231  26.625  26.145  10.778
82005W        W47232  36.096  41.889   2.333
82006W        W47233  31.135  19.315  11.848
82007W        W47234  33.055   7.169  13.778
82008W        W47235  24.958  18.370   2.511
82009W        W47236  34.935  38.981  11.072
82010W        W47237  15.214   1.368   1.803
82011W        W47238  44.523  25.100  14.796
82012W        W47239  29.158  28.725   0.222
82013W        W47240   0.315  30.448  13.564
82014W        W47241  22.713  16.616   0.804
82015W        W47242  38.849  36.974  11.503
82016W        W47243   0.216  16.352  11.060
82017W        W47244   0.724  14.587  14.904
82018W        W47245  11.378  19.697   2.646
82019W        W47246   3.870  11.293  11.179
82020W        W47247   5.649  17.281   4.299
82021W        W47248  18.900  34.943   4.989
82022W        W47249   9.696  43.433   2.891
82023W        W47250  29.113   8.851   2.781
82024W        W47251  28.624   6.223   1.741
82025W        W47252   6.894  24.787  13.859
82026W        W47253  42.721   3.177  11.028
82027W        W47254  20.084  26.748  13.578
82028W        W47255   1.459  44.397  14.150
82029W        W47256  39.914  12.187   0.326
82030W        W47257  34.446  37.074  10.639
82031W        W47258  44.901  10.868  11.972
82032W        W47259  25.440  44.307  12.193
82033W        W47260  34.160  29.214   4.921
82034W        W47261   9.888  19.366  10.951
82035W        W47262   4.661  19.099   1.181
82036W        W47263   2.080  22.042  14.870
82037W        W47264  33.059  38.949   4.447
82038W        W47265   1.048  30.218   0.998
82039W        W47266  35.128  39.965  14.878
82040W        W47267  37.061  18.667   3.986
82041W        W47268  29.005   6.692  11.366
82042W        W47269   6.334  43.423   0.015
82043W        W47270  26.113   0.208   3.251
82044W        W47271  18.630  10.347   0.703
82045W        W47272  33.951  19.066  13.029
82046W        W47273  32.453  28.074  12.087
82047W        W47274  42.016  40.910   2.177
82048W        W47275   3.867   9.277  11.849
82049W        W47276  12.963  18.971   0.744
82050W        W47277  25.216  28.521   2.407
82051W        W47278  22.823  43.728  10.740
82052W        W47279  25.512  11.402   2.434
82053W        W47280  10.703  10.931  11.570
82054W        W47281  28.690   1.473  12.815
82055W        W47282  11.235  22.977   2.700
82056W        W47283  26.232  30.062   1.376
82057W        W47284   4.713  26.473  13.124
82058W        W47285  13.568  18.442  13.933
82059W        W47286  24.005   8.957   4.074
82060W        W47287  14.071  28.533   1.851
82061W        W47288  22.663  23.646  13.466
82062W        W47289  37.180   2.786   4.801
82063W        W47290  13.671  37.102  12.826
82064W        W47291  27.529  18.828  11.104
82065W        W47292  29.597   0.686   3.079
82066W        W47293  32.034  41.406  11.508
82067W        W47294  36.073  28.208  14.223
82068W        W47295   7.384   4.056  11.497
82069W        W47296  17.179  26.349   4.718
82070W        W47297  32.773  24.455   0.906
82071W        W47298  34.165  23.473   4.317
82072W        W47299  41.073  10.561  11.197
82073W        W47300   0.024   8.347   1.743
82074W        W47301  11.939  12.774   1.009
82075W        W47302  28.452  39.381  13.102
82076W        W47303  44.807  33.996   1.409
82077W        W47304  15.591  35.626  11.468
82078W        W47305  25.509  11.238  14.796
82079W        W47306  30.104  31.061  14.601
82080W        W47307   8.380  10.855  11.689
82081W        W47308   4.731  36.632  12.556
82082W        W47309  32.891  23.170   0.796
82083W        W47310  39.376  35.482  12.646
82084W        W47311  26.464   9.209   4.517
82085W        W47312  39.376  19.225  12.201
82086W        W47313  35.083  24.818  11.123
82087W        W47314  10.128  25.647  13.148
82088W        W47315  10.878  28.708  13.378
82089W        W47316  17.637   3.126  14.215
82090W        W47317  27.984  40.606  13.825
82091W        W47318   7.110  36.887  14.656
82092W        W47319  22.102  14.113  11.967
82093W        W47320  29.692  23.629   4.203
82094W        W47321  17.229  17.285   4.213
82095W        W47322  10.720   7.001   1.902
82096W        W47323  18.793  33.786   2.410
82097W        W47324   6.229  26.668   3.157
82098W        W47325  29.863  18.034   4.863
82099W        W47326  40.014   3.628  13.141
82100W        W47327   6.377  27.429  12.381
82101W        W47328   0.869   2.765   2.702
82102W        W47329  13.596   9.984  11.791
82103W        W47330  14.793  17.006   2.728
82104W        W47331  12.670  16.805  10.575
82105W        W47332   4.376  17.357  14.331
82106W        W47333   7.287  11.725   0.817
82107W        W47334  34.584  41.026  10.622
82108W        W47335   0.798  32.138   3.368
82109W        W47336  10.851  22.277   4.605
82110W        W47337  19.786  22.763  12.979
82111W        W47338  14.369  42.413   4.128
82112W        W47339  31.531  31.566   2.805
82113W        W47340  12.288   5.932   3.841
82114W        W47341   1.919  23.418  13.159
82115W        W47342  23.621  29.731   2.280
82116W        W47343   6.089  22.489   0.233
82117W        W47344  27.200  24.027   0.606
82118W        W47345   4.704  29.729   3.715
82119W        W47346  34.399  16.127   3.265
82120W        W47347  14.803  23.118   0.007
82121W        W47348   0.387   7.026  10.940
82122W        W47349  15.122  37.040  12.029
82123W        W47350   2.446   7.308   3.265
82124W        W47351   0.300  40.519   3.623
82125W        W47352  42.638  24.227   4.203
82126W        W47353   9.022  21.510  14.727
82127W        W47354  38.599   2.612   0.255
82128W        W47355  17.970  28.109  13.592
82129W        W47356  31.691  39.368   9.733
82130W        W47357  10.576  33.621   4.085
82131W        W47358  13.867   1.665   1.303
82132W        W47359   3.757  35.864  10.744
82133W        W47360  40.384  18.344   2.237
82134W        W47361  11.465  28.919   4.896
82135W        W47362  12.389   8.164  12.101
82136W        W47363   9.373  10.349  12.380
82137W        W47364  43.825   2.769   1.301
82138W        W47365   7.529  36.953  14.368
82139W        W47366  12.674  25.409   3.222
82140W        W47367   3.738   0.580   1.261
82141W        W47368   2.324   0.980   3.894
82142W        W47369  26.947  20.210  14.925
82143W        W47370   3.200  38.793  13.985
82144W        W47371  40.561  41.005  12.017
82145W        W47372  13.707   2.909  10.748
82146W        W47373  19.206  23.823   1.393
82147W        W47374  30.948  23.011   2.402
82148W        W47375  42.080  43.905  12.796
82149W        W47376  10.253   7.512  12.537
82150W        W47377  18.297  28.949   2.202
82151W        W47378  44.393  16.261  11.656
82152W        W47379  11.534  11.943  13.038
82153W        W47380  37.015  37.289   3.632
82154W        W47381   3.152   8.340   1.909
82155W        W47382  12.919  27.398  11.968
82156W        W47383  11.200  25.971   4.246
82157W        W47384  12.227  31.003  14.671
82158W        W47385  37.386  44.557  13.948
82159W        W47386  21.084  36.133   0.981
82160W        W47387   1.246  20.077   0.394
82161W        W47388  21.073  29.512   0.477
82162W        W47389  34.917  19.707  12.300
82163W        W47390  23.004  18.504   2.732
82164W        W47391  31.482   3.658  14.017
82165W        W47392  24.137  10.975   4.579
82166W        W47393  37.958   7.383   0.981
82167W        W47394  13.382  41.648   0.619
82168W        W47395  32.563  30.109  14.503
82169W        W47396  38.521  41.773   4.171
82170W        W47397  11.395   4.156   4.056
82171W        W47398  26.520  18.046   3.099
82172W        W47399   0.508  34.633   0.416
82173W        W47400  32.553  44.206  10.636
82174W        W47401   8.332  24.570  13.967
82175W        W47402  36.979  19.486  13.350
82176W        W47403  21.038  39.114  11.360
82177W        W47404  40.345  44.296   3.710
82178W        W47405  21.111  18.785   4.647
82179W        W47406  27.986  44.902   4.007
82180W        W47407  12.619  18.593   0.810
82181W        W47408  22.378  39.632   3.565
82182W        W47409  39.227  31.546   2.429
82183W        W47410   2.342  34.612  13.549
82184W        W47411   8.849   1.480  14.055
82185W        W47412  41.121   0.009  11.073
82186W        W47413   6.410   1.927  14.766
82187W        W47414  34.002  17.051  14.382
82188W        W47415  43.501  22.843   2.428
82189W        W47416  44.445   7.157   0.389
82190W        W47417   5.951  23.938  11.570
82191W        W47418  16.491  36.078  10.797
82192W        W47419  29.490  20.129   3.197
82193W        W47420  33.265   8.752  11.873
82194W        W47421  33.194  28.480  12.862
82195W        W47422  29.720  18.540  14.386
82196W        W47423  44.474  37.969  11.990
82197W        W47424  12.605  23.488  14.949
82198W        W47425   8.322  23.899   3.152
82199W        W47426  19.637  26.116   3.596
82200W        W47427  26.169  19.823   0.899
82201W        W47428  22.319  19.252  13.678
82202W        W47429  25.680  21.992   1.273
82203W        W47430   6.201  37.437  12.404
82204W        W47431  17.793  18.263   4.191
82205W        W47432  34.172  15.424   2.611
82206W        W47433   3.474   6.720  11.695
82207W        W47434  39.113  40.615  13.868
82208W        W47435   6.115  27.198  13.909
82209W        W47436  19.023  36.864  10.628
82210W        W47437  28.451   7.654   0.804
82211W        W47438  13.644  32.630  12.828
82212W        W47439   6.157  13.887  12.011
82213W        W47440  41.289  22.497   0.597
82214W        W47441   2.256  31.133  14.253
82215W        W47442  12.141  19.611  11.567
82216W        W47443  33.670   5.179   4.155
82217W        W47444   7.973  21.748   4.121
82218W        W47445   8.208  40.905  11.673
82219W        W47446   0.886  30.976   3.611
82220W        W47447  34.056  31.043  13.998
82221W        W47448  24.243  13.793   4.190
82222W        W47449  17.303  13.196   9.786
82223W        W47450  14.627   4.283  12.049
82224W        W47451  38.161  19.802  11.119
82225W        W47452  20.493   5.235  11.526
82226W        W47453  26.386   4.767  12.758
82227W        W47454   4.331  25.959   4.434
82228W        W47455   8.282   4.995  13.874
82229W        W47456   5.671  14.267  13.458
82230W        W47457  42.832  38.125   3.642
82231W        W47458  28.154  41.305  10.738
82232W        W47459   0.372  11.868  13.550
82233W        W47460  39.667  27.126  13.907
82234W        W47461  14.608   9.217   4.652
82235W        W47462  40.524   0.935  14.839
82236W        W47463  40.828  37.051   1.408
82237W        W47464  41.940  31.331  11.606
82238W        W47465   8.131  11.429  13.569
82239W        W47466   1.297  27.138  14.613
82240W        W47467  16.815  20.410  11.241
82241W        W47468  26.504  23.484  13.297
82242W        W47469  35.068  41.000  14.774
82243W        W47470  13.696   5.620   4.497
82244W        W47471  15.663  37.284   4.466
82245W        W47472  28.126  26.605   3.180
82246W        W47473  38.563  40.825   1.380
82247W        W47474   6.267  39.236  12.352
82248W        W47475  40.799  14.687   4.100
82249W        W47476  34.088   2.026  11.586
82250W        W47477   4.857  33.363   0.419
82251W        W47478  34.355  25.392  14.846
82252W        W47479  43.510   8.718  14.813
82253W        W47480  30.120  39.618  12.062
82254W        W47481  42.818  34.150  14.361
82255W        W47482  44.662   5.605   1.228
82256W        W47483  12.627  13.272   0.768
82257W        W47484  24.237   3.503   0.869
82258W        W47485  40.055  17.176   0.262
82259W        W47486   6.933  40.507   2.867
82260W        W47487  17.499  40.403   4.716
82261W        W47488  36.848   5.954  13.901
82262W        W47489  39.107   8.448   4.460
82263W        W47490  41.378  13.780   2.391
82264W        W47491   5.903  33.494   1.862
82265W        W47492  44.021  20.580  10.227
82266W        W47493  12.388  33.175  13.306
82267W        W47494  33.986  31.566  12.537
82268W        W47495  44.230  40.382  12.228
82269W        W47496  30.072  13.098   1.323
82270W        W47497  37.850  38.100   4.551
82271W        W47498  40.459  23.972  14.891
82272W        W47499   8.317  33.864  13.961
82273W        W47500  41.766  41.621  12.139
82274W        W47501   0.765  13.777  10.475
82275W        W47502  13.691  22.978   1.810
82276W        W47503   6.371  36.509   0.510
82277W        W47504  22.293   5.872   0.058
82278W        W47505  15.539   3.925  13.404
82279W        W47506  29.456  31.348  12.879
82280W        W47507  20.732   2.560  10.815
82281W        W47508   5.309  29.186   2.779
82282W        W47509  28.044  31.212   3.756
82283W        W47510  33.177  17.067  14.954
82284W        W47511  40.901  16.561   4.518
82285W        W47512   6.309  11.389  11.662
82286W        W47513  33.899  25.215  14.629
82287W        W47514   6.495  34.133  12.842
82288W        W47515  15.899  26.101   1.343
82289W        W47516   6.720  37.454  10.613
82290W        W47517   2.850  14.176   1.691
82291W        W47518  35.371  19.016  13.877
82292W        W47519  22.188   7.312   1.813
82293W        W47520  32.539  27.972   0.271
82294W        W47521  11.075  41.229   1.273
82295W        W47522  24.793   8.797   2.086
82296W        W47523  37.635   1.440   4.412
82297W        W47524  44.447   1.842   2.363
82298W        W47525  10.172  17.231   4.118
82299W        W47526  16.408  13.058   3.743
82300W        W47527  13.637  21.728   3.193
82301W        W47528   3.195  44.314  14.025
82302W        W47529  29.050   6.429   0.746
82303W        W47530  16.139  32.474   9.768
82304W        W47531  21.105  20.158   3.818
82305W        W47532  43.835  18.423   1.816
82306W        W47533   5.872  28.173  13.791
82307W        W47534  17.742  39.914  11.873
82308W        W47535   8.235  39.848  13.973
82309W        W47536  13.441  19.358   1.687
82310W        W47537  15.145  37.632  13.398
82311W        W47538  41.292   4.215  12.399
82312W        W47539  35.030  23.178  11.643
82313W        W47540  43.284   4.480   2.251
82314W        W47541  37.844   0.371   3.248
82315W        W47542  15.884  29.657  12.045
82316W        W47543   1.639  11.549   3.625
82317W        W47544  13.154  31.020   2.566
82318W        W47545  39.058   9.147  11.176
82319W        W47546  34.929  17.752   0.212
82320W        W47547  38.883   0.718   1.060
82321W        W47548  14.157  40.922  13.386
82322W        W47549  37.052   2.538   1.188
82323W        W47550  28.087  15.839  10.657
82324W        W47551   6.728  11.614  11.866
82325W        W47552   5.936  20.197   1.864
82326W        W47553  18.858  32.499   4.289
82327W        W47554  15.365  34.001   1.723
82328W        W47555  44.805  16.950   4.966
82329W        W47556   7.881  24.182   3.173
82330W        W47557  14.889  35.033  12.513
82331W        W47558  25.749  40.419   4.762
82332W        W47559  22.090  28.448  12.536
82333W        W47560  14.346  40.112  10.775
82334W        W47561  33.147  18.487  13.376
82335W        W47562  36.011  13.199  11.820
82336W        W47563  37.311  24.926  13.572
82337W        W47564   3.684  12.815  11.078
82338W        W47565   0.781   3.105   2.307
82339W        W47566  25.115   1.268  11.692
82340W        W47567   8.775  15.740   1.727
82341W        W47568  32.232  41.595  11.043
82342W        W47569  16.551  12.992   0.874
82343W        W47570   1.361  32.748  14.066
82344W        W47571  21.256  29.502  13.377
82345W        W47572  11.820  26.053  10.650
82346W        W47573  15.527  33.067  11.536
82347W        W47574  26.679   7.869  12.573
82348W        W47575  38.788  31.122   3.175
82349W        W47576  28.711  28.705   1.140
82350W        W47577  19.732  11.592  11.468
82351W        W47578  37.232  25.027  12.105
82352W        W47579   2.393  39.442  10.549
82353W        W47580  43.529  42.276  13.527
82354W        W47581  37.122   2.739   0.289
82355W        W47582   5.221  37.561  10.385
82356W        W47583  38.969  38.363  11.474
82357W        W47584  31.086  17.635  14.337
82358W        W47585  44.630   4.120   2.071
82359W        W47586  41.832  21.454  12.014
82360W        W47587  29.051  39.575   2.786
82361W        W47588  43.046  10.011  13.516
82362W        W47589  44.281   7.165   2.309
82363W        W47590  10.627   7.698  12.853
82364W        W47591   3.757  38.891  11.258
82365W        W47592  37.716  15.855   3.164
82366W        W47593   4.380   4.484  10.575
82367W        W47594   4.423  34.536   1.919
82368W        W47595  19.032  28.167   0.525
82369W        W47596  29.000  29.356  11.191
82370W        W47597  15.046  18.485   4.567
82371W        W47598  37.132  39.487  11.111
82372W        W47599  17.748   0.804  13.352
82373W        W47600  19.987  25.358  12.545
82374W        W47601  32.397   0.616  11.692
82375W        W47602  32.451  30.218   3.549
82376W        W47603  42.882  42.905  13.959
82377W        W47604  37.438  29.445   0.551
82378W        W47605  23.068  26.031   0.865
82379W        W47606  17.679  33.712  11.919
82380W        W47607   1.182  10.165   0.401
82381W        W47608  23.378  10.226  13.234
82382W        W47609  29.043  18.306  12.659
82383W        W47610  21.557   8.496  14.291
82384W        W47611  17.024  21.595   2.734
82385W        W47612  14.606  16.852   4.028
82386W        W47613  43.502  26.544   0.801
82387W        W47614  11.791  14.617  13.165
82388W        W47615   5.710   5.431   1.768
82389W        W47616  22.587  23.189  12.403
82390W        W47617  14.734  16.319  14.725
82391W        W47618   1.716  38.600   2.125
82392W        W47619  21.086  30.169  11.508
82393W        W47620  32.018  40.246  11.151
82394W        W47621  42.614  11.091  11.675
82395W        W47622   5.278  26.176  14.562
82396W        W47623  26.991  14.839   3.726
82397W        W47624  36.427  15.601   1.859
82398W        W47625  29.475  14.901  11.900
82399W        W47626  12.197  36.941  12.833
82400W        W47627  34.900  37.316   2.174
82401W        W47628  13.766   7.804   2.128
82402W        W47629   0.261  11.274  12.373
82403W        W47630  15.471  28.106   4.580
82404W        W47631  35.502  33.405   2.625
82405W        W47632  37.160  41.770  12.503
82406W        W47633  43.371  32.045   2.586
82407W        W47634  30.406   1.466   1.969
82408W        W47635  39.442  43.424  13.937
82409W        W47636  22.213  15.717  14.287
82410W        W47637  33.459  35.311  11.841
82411W        W47638  25.601  33.916  12.124
82412W        W47639  24.485  38.612  12.107
82413W        W47640   2.333   9.302  10.788
82414W        W47641   1.845  13.949   1.889
82415W        W47642  24.664   7.276  12.065
82416W        W47643  40.409  26.510   2.635
82417W        W47644   9.463  13.912   4.603
82418W        W47645  19.697  37.867  14.912
82419W        W47646  24.180   0.972  13.864
82420W        W47647   3.142   1.461  11.529
82421W        W47648  12.378  39.309  13.777
82422W        W47649  32.450  43.588  12.615
82423W        W47650  26.073  18.280  13.740
82424W        W47651  41.010  12.804  14.709
82425W        W47652  21.416  17.257   2.062
82426W        W47653  15.876  21.879  13.035
82427W        W47654  19.643  33.089  11.488
82428W        W47655   2.653  12.094  13.994
82429W        W47656  28.733   0.517  14.290
82430W        W47657  36.083   2.933  12.511
82431W        W47658  37.436  15.515  12.963
82432W        W47659   2.102  24.090  13.495
82433W        W47660   8.786  22.590  13.005
82434W        W47661   5.879  18.450   1.706
82435W        W47662  33.611  20.025  13.849
82436W        W47663   7.316  38.242  10.996
82437W        W47664  42.992  25.021   0.760
82438W        W47665  36.965  19.058   3.108
82439W        W47666  38.428  20.430   0.521
82440W        W47667  27.263  32.539   0.948
82441W        W47668  20.213  37.248   2.771
82442W        W47669  12.422   7.212  12.031
82443W        W47670  28.964  23.714  11.502
82444W        W47671  14.292   8.527   4.117
82445W        W47672   6.396   2.341   3.876
82446W        W47673   8.163  13.702   5.287
82447W        W47674   7.434  38.916  14.977
82448W        W47675   0.886  21.204  13.683
82449W        W47676  34.436  19.644  14.585
82450W        W47677  26.056  20.806  13.884
82451W        W47678  34.406   7.252  11.608
82452W        W47679  26.521  31.448  10.858
82453W        W47680  26.671  40.967  13.437
82454W        W47681   8.894  31.592   0.956
82455W        W47682  44.330  14.862   2.570
82456W        W47683  25.547  18.779  11.732
82457W        W47684  10.104  10.549  12.869
82458W        W47685   9.350  18.007   0.440
82459W        W47686  18.554  37.897  13.479
82460W        W47687   9.257  38.359   0.314
82461W        W47688  42.100  37.796   2.737
82462W        W47689  12.511  38.935  10.623
82463W        W47690  24.196   2.496  11.233
82464W        W47691  28.490  32.346  12.324
82465W        W47692  44.065   2.884   3.314
82466W        W47693  10.431   7.182  12.133
82467W        W47694  28.052  35.060  11.514
82468W        W47695  22.205   0.868   2.896
82469W        W47696  24.805  24.005   3.560
82470W        W47697  26.642  23.611  12.401
82471W        W47698  25.708  32.344  13.968
82472W        W47699  30.456   1.519  11.183
82473W        W47700  12.820  34.905   1.860
82474W        W47701   0.779   6.694  11.173
82475W        W47702  26.986  28.509   3.371
82476W        W47703  12.495  27.579   1.386
82477W        W47704  41.553   4.793   2.784
82478W        W47705  14.565  30.509   1.301
82479W        W47706   2.458  30.199  12.347
82480W        W47707  12.184  29.335  10.451
82481W        W47708  22.174  19.296   0.418
82482W        W47709  36.538  34.208  11.414
82483W        W47710  21.739  31.906  11.571
82484W        W47711  36.942  31.616  13.969
82485W        W47712  32.088  16.764  12.533
82486W        W47713   8.608  25.515  13.048
82487W        W47714  41.897  43.774  14.510
82488W        W47715  37.338   7.842   1.913
82489W        W47716  25.631  40.989  13.073
82490W        W47717  24.595  17.711  13.412
82491W        W47718  28.892  20.692   1.885
82492W        W47719  42.457   5.398  13.760
82493W        W47720   1.378   3.395  12.514
82494W        W47721  43.774  19.783   1.240
82495W        W47722  30.826  41.275  13.512
82496W        W47723   3.906   7.719  14.914
82497W        W47724  20.667  31.915   0.031
82498W        W47725  11.268  27.702  12.847
82499W        W47726  25.500  21.160   4.506
82500W        W47727  38.792  10.955   1.520
82501W        W47728   9.438   0.539  14.311
82502W        W47729  24.658  40.753   4.243
82503W        W47730  23.879  27.104  14.885
82504W        W47731  30.444  44.787  12.504
82505W        W47732  41.125  21.066  12.040
82506W        W47733  10.410  27.235   1.913
82507W        W47734   7.824  18.354  12.026
82508W        W47735  23.744  13.255   2.811
82509W        W47736  28.431  14.632  10.543
82510W        W47737  25.715  16.108   1.844
82511W        W47738  24.133  37.382   4.607
82512W        W47739  34.381   9.295   4.753
82513W        W47740  40.303   9.412  14.365
82514W        W47741  30.001  32.089   2.430
82515W        W47742  37.863  32.170   0.256
82516W        W47743   2.179  32.680  14.426
82517W        W47744  26.036  42.511  13.259
82518W        W47745  32.530  25.716  13.662
82519W        W47746  19.266  13.131  10.760
82520W        W47747  31.388  41.346   4.525
82521W        W47748   9.852  42.064   2.748
82522W        W47749   8.029  10.312  11.020
82523W        W47750  40.807  39.234  13.083
82524W        W47751  27.872  41.368   3.383
82525W        W47752  15.397  40.731   2.921
82526W        W47753   6.941   0.700   2.397
82527W        W47754  24.017  31.209  10.788
82528W        W47755   3.978  33.506   2.372
82529W        W47756   7.473  20.043  12.679
82530W        W47757  37.308  17.315   2.334
82531W        W47758   7.452   9.002   0.933
82532W        W47759   3.768   0.667   3.502
82533W        W47760  34.329   2.971  11.142
82534W        W47761  19.660   5.038  10.164
82535W        W47762  23.378  26.027   1.268
82536W        W47763  12.972   0.858  12.168
82537W        W47764  30.703  34.067  12.855
82538W        W47765  14.434  32.193   2.270
82539W        W47766  36.901  24.084   4.582
82540W        W47767  29.537  26.118  14.733
82541W        W47768  20.739  38.558  11.641
82542W        W47769  24.935   6.339   2.373
82543W        W47770   1.804  13.225   3.312
82544W        W47771   2.339  41.111  12.588
82545W        W47772  42.923  24.972   4.284
82546W        W47773  27.632  29.072  13.372
82547W        W47774   6.769  16.016   1.886
82548W        W47775   6.130  30.015  14.875
82549W        W47776  34.613   1.499  12.890
82550W        W47777  17.289  43.067  13.436
82551W        W47778  14.224  10.926  13.907
82552W        W47779  35.480  40.710   3.393
82553W        W47780  44.820  36.118   4.611
82554W        W47781  23.523  21.484   3.599
82555W        W47782  29.005  41.594   2.404
82556W        W47783  37.236  44.467   9.796
82557W        W47784  12.799   8.878   3.666
82558W        W47785  19.851   6.328   2.897
82559W        W47786  17.166  10.691  10.719
82560W        W47787  19.320  29.616  10.941
82561W        W47788  43.398   2.767   1.605
82562W        W47789  11.086  16.948  12.423
82563W        W47790  16.576  37.572   3.552
82564W        W47791  20.463   5.838  13.207
82565W        W47792  39.406  15.453  13.462
82566W        W47793  19.262  14.900   3.535
82567W        W47794   9.744  38.843  12.339
82568W        W47795  21.247  37.299  10.986
82569W        W47796   4.861  43.912  12.634
82570W        W47797  42.000   7.193  12.584
82571W        W47798  35.423  12.140   4.630
82572W        W47799  26.704  23.588   0.231
82573W        W47800   5.390  28.541  14.398
82574W        W47801  25.023  37.519  12.054
82575W        W47802  25.038  18.882   2.300
82576W        W47803   7.389  39.860   0.331
82577W        W47804   7.331  30.969   2.343
82578W        W47805  44.037  11.782   0.983
82579W        W47806  22.707  19.806  11.573
82580W        W47807  44.760   5.000   9.749
82581W        W47808  35.904  11.170   1.682
82582W        W47809  34.798   3.190  11.096
82583W        W47810  41.342  24.157  10.730
82584W        W47811  25.575  11.088   3.756
82585W        W47812   2.371  11.686   1.876
82586W        W47813  44.275  20.675  13.462
82587W        W47814  15.308  44.962   4.115
82588W        W47815   4.184  19.268   0.977
82589W        W47816  10.409  41.578  12.926
82590W        W47817  26.491  17.164  12.089
82591W        W47818  14.137  35.864  12.052
82592W        W47819  30.957  11.077  10.527
82593W        W47820  27.714  33.349   4.737
82594W        W47821   0.694  31.632   1.459
82595W        W47822  12.449  16.844  11.063
82596W        W47823  35.863   9.127   2.196
82597W        W47824  44.345  13.159   0.388
82598W        W47825  23.294   5.857  13.475
82599W        W47826   5.804  24.509   4.550
82600W        W47827   4.153  12.851   3.827
82601W        W47828  10.186  31.146   4.392
82602W        W47829  13.644  26.579  11.879
82603W        W47830   0.714  18.683  12.485
82604W        W47831  22.169  10.329  13.911
82605W        W47832  21.453   6.196  11.991
82606W        W47833  20.626   5.615   3.285
82607W        W47834  12.070   9.824   3.642
82608W        W47835   1.308  40.339  11.235
82609W        W47836   2.729  25.119   3.677
82610W        W47837  34.559  26.224  13.434
82611W        W47838   5.225   9.274   4.495
82612W        W47839   7.726   8.892   1.703
82613W        W47840  16.789  43.193  13.475
82614W        W47841  35.723  27.539  13.710
82615W        W47842   1.164  27.589  14.411
82616W        W47843  43.636   9.755  11.696
82617W        W47844  36.836  30.311   0.761
82618W        W47845  20.545   2.341  12.272
82619W        W47846  15.836  38.299  13.395
82620W        W47847  29.038   8.682  11.630
82621W        W47848  13.376  15.606  13.099
82622W        W47849   4.899  17.261  10.992
82623W        W47850  17.292  21.049  11.955
82624W        W47851  31.177  17.183  10.527
82625W        W47852  23.768  12.841   2.112
82626W        W47853  17.532  20.571  11.888
82627W        W47854  12.254  34.875  14.320
82628W        W47855   4.429  38.960   3.845
82629W        W47856  28.724  44.308  12.999
82630W        W47857  40.978  32.329   2.686
82631W        W47858  37.937  16.575   1.257
82632W        W47859  10.649   8.376   4.941
82633W        W47860   8.392  35.652   0.795
82634W        W47861  14.205  35.753   1.165
82635W        W47862  21.235  30.174   4.654
82636W        W47863  38.645  26.822   2.712
82637W        W47864  39.253  23.268   2.738
82638W        W47865  22.203  39.151   4.616
82639W        W47866  12.210  24.194   3.486
82640W        W47867  34.068  12.896  14.328
82641W        W47868  31.540   2.235   2.723
82642W        W47869  39.915  39.933   3.711
82643W        W47870  40.774  42.876   2.417
82644W        W47871  30.470  32.912   1.444
82645W        W47872  44.662  17.590   9.880
82646W        W47873  32.092  35.372  12.994
82647W        W47874  15.365  35.336   3.164
82648W        W47875  18.093  31.521   2.318
82649W        W47876  25.516   4.436   3.609
82650W        W47877  12.652  33.739   2.646
82651W        W47878   3.879  16.672   3.249
82652W        W47879   3.420   6.695  13.480
82653W        W47880  38.464  42.476   2.371
82654W        W47881  20.244  38.507   0.075
82655W        W47882   3.759  26.432   9.854
82656W        W47883  31.523  10.040   0.183
82657W        W47884  41.567  36.048  12.678
82658W        W47885  35.971  32.984  12.972
82659W        W47886   3.014   9.916   2.748
82660W        W47887  36.315  35.244   4.175
82661W        W47888  22.435  24.087  12.662
82662W        W47889  33.866  33.934  12.729
82663W        W47890  20.075   2.342  11.486
82664W        W47891  11.720   8.770  11.666
82665W        W47892  44.716   5.429   0.350
82666W        W47893  43.232  22.635   1.139
82667W        W47894  11.105  36.710  11.554
82668W        W47895  27.091  27.990  14.302
82669W        W47896  42.169  28.956  13.445
82670W        W47897  12.881  36.420   1.823
82671W        W47898  29.908  35.032  11.169
82672W        W47899   4.750  12.159  12.436
82673W        W47900  37.723  20.750   4.341
82674W        W47901  14.532  25.258  12.039
82675W        W47902   4.461   7.421   1.740
82676W        W47903  18.368  12.732  14.525
82677W        W47904  43.685  15.481  11.425
82678W        W47905  24.928  12.052  12.141
82679W        W47906  14.336  24.724   4.396
82680W        W47907  12.196  12.549   2.981
82681W        W47908  37.904  21.603  10.932
82682W        W47909  17.524  31.321  11.116
82683W        W47910  39.528  22.573   0.558
82684W        W47911  36.602  31.397   3.629
82685W        W47912   8.835   3.915  14.551
82686W        W47913   3.175   0.794  13.731
82687W        W47914  19.173  22.811   2.416
82688W        W47915  29.233  20.561   2.270
82689W        W47916   8.067  29.686   2.902
82690W        W47917  32.343  17.588  12.594
82691W        W47918   7.791  25.866   4.094
82692W        W47919  10.842  42.036   2.769
82693W        W47920  43.883   3.164   0.453
82694W        W47921  41.260   9.238   3.708
82695W        W47922  14.754  29.201  12.951
82696W        W47923  22.174   1.733  14.399
82697W        W47924  43.333  21.024  13.524
82698W        W47925  12.612  17.640  12.566
82699W        W47926  42.511  44.442   1.425
82700W        W47927  31.370  31.458  13.793
82701W        W47928  34.765   1.312  11.215
82702W        W47929  31.644  32.944  14.894
82703W        W47930  35.102  18.315  14.568
82704W        W47931   8.857  42.823   1.847
82705W        W47932  10.585  37.037   0.805
82706W        W47933  12.252  38.663   0.325
82707W        W47934  43.499  29.694   4.102
82708W        W47935  21.518  44.989  14.808
82709W        W47936  21.645   6.741  11.361
82710W        W47937  31.592   0.022   0.808
82711W        W47938   5.353  12.592   3.168
82712W        W47939  11.892  32.622  13.837
82713W        W47940   5.445   8.808  14.740
82714W        W47941  16.240  29.718   0.273
82715W        W47942  16.215  19.508   3.619
82716W        W47943  25.632  19.566  13.343
82717W        W47944  11.737  21.757   0.264
82718W        W47945  28.249  35.776  11.070
82719W        W47946  21.766  36.631  13.301
82720W        W47947   0.043  17.537  13.840
82721W        W47948  39.384  30.203   4.055
82722W        W47949   3.259  26.202  10.193
82723W        W47950   0.855  26.111  14.868
82724W        W47951  22.655  31.492   4.875
82725W        W47952  28.924  31.539  14.012
82726W        W47953  25.475  18.032   3.155
82727W        W47954  24.999  45.000   1.407
82728W        W47955  30.345  10.659   2.501
82729W        W47956  29.659  30.958   1.501
82730W        W47957  43.262  33.609   4.177
82731W        W47958   3.450  39.013  14.389
82732W        W47959   3.747  39.597  12.816
82733W        W47960  20.439  36.820   0.754
82734W        W47961  12.702  31.281  14.042
82735W        W47962  16.087  10.109   4.715
82736W        W47963  21.531  25.676  11.157
82737W        W47964  24.623  39.873   2.725
82738W        W47965  18.213   5.837   0.932
82739W        W47966   5.946  43.965  11.930
82740W        W47967  14.655  43.735   1.299
82741W        W47968  20.633   3.163  11.641
82742W        W47969  16.756  22.086   3.864
82743W        W47970   5.347  23.442  11.257
82744W        W47971  13.006  12.204   0.148
82745W        W47972  14.200   0.272  12.151
82746W        W47973  30.121  25.019  10.752
82747W        W47974   3.919  35.616   4.879
82748W        W47975   3.098  16.334   0.660
82749W        W47976  19.709  19.332  12.939
82750W        W47977  16.177  16.555  14.903
82751W        W47978  25.318  30.502  14.956
82752W        W47979  12.734  41.069   0.959
82753W        W47980  31.294   0.041   3.065
82754W        W47981  42.352  13.678   3.290
82755W        W47982  12.603  15.650  13.318
82756W        W47983   9.029   6.769   1.193
82757W        W47984  40.927  39.447  14.054
82758W        W47985  17.795  27.686  12.400
82759W        W47986  43.539  30.342   3.612
82760W        W47987  34.936  15.527  13.009
82761W        W47988  25.049  31.528  14.961
82762W        W47989  24.175  25.464  13.439
82763W        W47990   3.008   1.711   3.089
82764W        W47991  12.855  43.815  10.857
82765W        W47992   6.215  24.185   1.376
82766W        W47993  12.347  12.279   1.961
82767W        W47994  24.790   5.923   2.758
82768W        W47995   7.948  11.473   3.615
82769W        W47996   0.564   4.142  11.547
82770W        W47997  35.343  22.710   0.665
82771W        W47998  10.470   9.537   0.009
82772W        W47999   7.718  14.647  14.336
82773W        W48000  26.954   0.932   3.882
82774W        W48001  42.086  21.721  13.038
82775W        W48002   2.584  14.234  12.457
82776W        W48003   4.234   8.129  11.926
82777W        W48004  28.856   9.247  10.787
82778W        W48005  19.463  36.084   1.357
82779W        W48006  23.765  17.815   3.712
82780W        W48007  17.383  44.965   0.669
82781W        W48008  24.327  11.790  12.571
82782W        W48009  20.794  34.575  12.470
82783W        W48010  30.028   6.456  11.605
82784W        W48011  23.548  42.242  11.746
82785W        W48012  33.737  14.011  10.662
82786W        W48013  37.478  14.889  13.552
82787W        W48014  25.804  31.920   1.433
82788W        W48015   1.506  15.570   0.212
82789W        W48016   6.685  29.713  13.111
82790W        W48017  12.347  31.444   3.663
82791W        W48018  35.341  38.900   2.247
82792W        W48019   7.500   2.947  13.482
82793W        W48020  31.085  14.201   3.403
82794W        W48021  20.517   7.451   3.391
82795W        W48022  25.258   3.918  10.727
82796W        W48023  43.364   2.944   1.106
82797W        W48024  15.601  25.353   0.407
82798W        W48025   2.485  40.723   2.489
82799W        W48026  43.557  14.820  12.850
82800W        W48027  33.392  38.587   4.168
82801W        W48028  23.075  29.400  13.832
82802W        W48029  35.478  39.765   1.840
82803W        W48030  28.520  11.775  14.415
82804W        W48031  35.364  23.964  12.421
82805W        W48032   8.071  14.199   2.635
82806W        W48033  16.634   9.808   1.116
82807W        W48034  11.538  13.624  13.950
82808W        W48035  26.573  42.707   3.684
82809W        W48036   1.296  36.016  13.415
82810W        W48037   3.717  25.055  13.757
82811W        W48038  29.833  29.231   3.585
82812W        W48039  36.030  19.759   2.353
82813W        W48040  31.032  38.582   3.353
82814W        W48041  30.132  29.290   0.355
82815W        W48042  22.520  14.873   5.088
82816W        W48043  31.048  15.605  11.107
82817W        W48044  38.048  14.212  13.049
82818W        W48045  16.879  30.415   1.765
82819W        W48046   4.888  34.994   1.620
82820W        W48047  12.102  10.093   4.836
82821W        W48048   4.369  16.301   0.413
82822W        W48049  19.346  28.220  12.131
82823W        W48050  16.760   5.650   4.171
82824W        W48051  39.375   5.236  13.448
82825W        W48052  21.818  24.008  10.482
82826W        W48053   4.657  37.596   3.138
82827W        W48054  21.541  33.527   4.017
82828W        W48055  43.899  39.394  13.913
82829W        W48056  44.999  23.596   1.522
82830W        W48057  31.851   0.867   2.366
82831W        W48058  13.672   1.437   2.217
82832W        W48059  40.321  44.389  13.883
82833W        W48060   1.996   9.831   0.625
82834W        W48061  23.960  36.532   4.364
82835W        W48062  28.112  31.238  11.634
82836W        W48063  26.108  43.656  14.065
82837W        W48064  34.025  29.963  10.920
82838W        W48065  12.431   5.295  10.780
82839W        W48066  29.703   5.306  11.528
82840W        W48067  33.449   3.988  14.921
82841W        W48068  33.147  11.739  11.571
82842W        W48069   9.680  29.893   1.435
82843W        W48070   2.844  44.849   0.909
82844W        W48071  27.484  31.702  11.185
82845W        W48072   0.120  38.499  14.732
82846W        W48073  24.507  39.930  14.944
82847W        W48074   1.046  34.086  12.828
82848W        W48075  33.887  24.957  10.323
82849W        W48076  27.063  22.116   4.122
82850W        W48077   0.197  42.480   3.712
82851W        W48078  15.351   2.121  13.566
82852W        W48079  11.292  10.606  10.718
82853W        W48080  38.606   4.793  11.140
82854W        W48081   8.119  23.207  11.614
82855W        W48082  33.690  21.184   2.050
82856W        W48083  18.322  43.475  13.055
82857W        W48084  36.341  27.429   0.950
82858W        W48085  28.043  23.530   4.849
82859W        W48086  37.829  26.132   0.183
82860W        W48087  27.454  35.493  10.516
82861W        W48088   8.301  41.440  12.113
82862W        W48089   3.945  28.089   4.990
82863W        W48090  20.424   7.999  14.935
82864W        W48091  39.744  44.115  11.465
82865W        W48092  41.937  34.654  13.851
82866W        W48093   2.394  23.820   4.378
82867W        W48094  42.267   6.989  14.796
82868W        W48095  28.667  16.128   0.947
82869W        W48096   5.890  21.747  11.052
82870W        W48097  29.737   3.886  11.358
82871W        W48098  22.143  11.150  13.027
82872W        W48099  22.390  22.549   0.854
82873W        W48100  34.279  39.498   3.049
82874W        W48101  16.608   8.808  14.534
82875W        W48102  22.263  44.532  13.532
82876W        W48103  31.896  39.358  14.389
82877W        W48104  15.743  22.456   2.746
82878W        W48105  25.566  44.737  14.517
82879W        W48106   8.797  11.554  12.215
82880W        W48107  13.124  15.648   3.747
82881W        W48108  26.414  20.692   2.130
82882W        W48109  39.351  39.390   4.686
82883W        W48110  39.990  17.230  14.353
82884W        W48111  23.617  17.386   3.388
82885W        W48112  19.486  16.365  14.290
82886W        W48113  26.990  32.921  14.959
82887W        W48114  31.648  40.778   2.383
82888W        W48115  17.145  36.420   2.327
82889W        W48116  12.093  16.201  11.960
82890W        W48117  28.140  33.723   0.018
82891W        W48118  11.285   9.765   3.283
82892W        W48119   6.344   6.107   1.893
82893W        W48120   2.129   1.961   4.709
82894W        W48121  25.019   1.713  13.967
82895W        W48122  26.005  31.069   1.432
82896W        W48123   0.326  16.579   1.467
82897W        W48124   0.717  43.117   3.729
82898W        W48125  39.447  24.712   0.719
82899W        W48126  37.904   4.458   4.112
82900W        W48127  40.102  44.286   5.053
82901W        W48128   0.483  21.670  11.647
82902W        W48129  16.501  42.792  13.625
82903W        W48130   6.867  12.591   2.373
82904W        W48131  22.304  34.114   1.390
82905W        W48132  36.856  36.995   1.452
82906W        W48133  32.399   4.893   0.316
82907W        W48134  39.907  28.488  13.892
82908W        W48135  22.051  14.128  11.449
82909W        W48136   0.308  31.576  10.581
82910W        W48137  12.833   9.165  13.492
82911W        W48138   3.928   9.552   4.553
82912W        W48139  42.421  37.599   2.367
82913W        W48140  27.983   1.808   4.625
82914W        W48141  16.570  27.138  11.662
82915W        W48142  37.834   9.319   0.865
82916W        W48143  23.855  25.706  14.969
82917W        W48144  16.704  44.936  14.581
82918W        W48145  38.538  37.375  14.709
82919W        W48146   3.673  33.332   3.915
82920W        W48147   8.879  17.804   0.341
82921W        W48148  36.409  42.969   3.830
82922W        W48149  18.853  30.646  12.389
82923W        W48150  17.921  36.786   2.243
82924W        W48151  12.589  44.288  11.082
82925W        W48152  16.461  39.594  12.935
82926W        W48153  41.064  12.091   4.623
82927W        W48154  11.490  44.805   4.500
82928W        W48155  38.475  16.628   0.807
82929W        W48156   2.846  32.482  13.859
82930W        W48157  34.617  10.671  14.771
82931W        W48158  11.202  23.758   2.268
82932W        W48159  40.581  20.154  14.309
82933W        W48160  18.667   4.366  10.703
82934W        W48161   1.283  17.556  13.203
82935W        W48162  41.664  40.208  13.899
82936W        W48163  35.905  12.382  13.041
82937W        W48164   5.254  11.481  13.325
82938W        W48165   0.647  19.796  13.927
82939W        W48166  38.498   3.287   4.504
82940W        W48167   6.225  37.181  12.884
82941W        W48168   7.319  41.032   3.834
82942W        W48169  31.325   8.013  11.030
82943W        W48170  33.355  25.130  11.976
82944W        W48171  37.635  32.000  14.434
82945W        W48172  14.160  14.316   3.308
82946W        W48173   3.617   9.743   1.821
82947W        W48174  18.105  20.628   0.542
82948W        W48175  40.697  16.369   2.288
82949W        W48176   7.101  24.656   2.239
82950W        W48177  17.513  15.009   3.363
82951W        W48178  44.039  37.013  13.531
82952W        W48179   6.170  18.415  14.947
82953W        W48180  24.507   0.163  12.115
82954W        W48181  37.059  11.583  14.513
82955W        W48182  32.444   0.584  13.863
82956W        W48183  42.538  42.472  11.576
82957W        W48184  21.094  23.718   0.490
82958W        W48185   4.671   5.170   3.237
82959W        W48186   1.340   1.007  14.883
82960W        W48187  23.258   2.630  13.383
82961W        W48188   9.093  11.722   3.771
82962W        W48189  33.466  19.176  12.867
82963W        W48190   5.216   4.759  10.794
82964W        W48191  26.061  20.075   0.456
82965W        W48192  44.084  32.497   2.245
82966W        W48193  25.764  13.728  11.800
82967W        W48194   6.310   0.935   4.594
82968W        W48195  23.047  31.402  11.165
82969W        W48196  29.062  18.331   0.426
82970W        W48197  40.277   9.408   1.428
82971W        W48198  30.145  44.410  12.846
82972W        W48199  43.780  25.314  10.394
82973W        W48200   0.927  30.876   4.567
82974W        W48201  41.837  37.029   3.430
82975W        W48202  10.727  17.669   0.434
82976W        W48203  29.175   6.420   1.738
82977W        W48204  36.486  22.149  10.715
82978W        W48205   4.016  19.295   2.810
82979W        W48206  21.277  30.544   2.174
82980W        W48207  20.091  11.665  13.027
82981W        W48208   6.419   9.861  13.026
82982W        W48209  32.547  38.077  14.496
82983W        W48210  12.077  25.535  13.390
82984W        W48211  21.879  30.696   3.053
82985W        W48212  41.808  40.378   0.450
82986W        W48213   8.693  25.471   2.503
82987W        W48214  12.808  29.104  14.427
82988W        W48215   6.729  38.090   3.795
82989W        W48216  44.111   0.221   2.578
82990W        W48217  12.472   5.382   4.144
82991W        W48218  33.365  39.271  12.035
82992W        W48219  27.024   5.272  14.815
82993W        W48220  34.597  37.944  13.885
82994W        W48221   1.538  24.298   3.678
82995W        W48222  23.147  11.312   1.902
82996W        W48223  19.644   9.853  12.094
82997W        W48224  38.179  21.965   2.163
82998W        W48225  28.841  40.787  11.950
82999W        W48226  25.557  36.992   1.386
83000W        W48227  16.385  40.060   3.657
83001W        W48228  41.174  16.809  12.115
83002W        W48229  24.924  11.341   3.843
83003W        W48230  15.484  15.100  14.311
83004W        W48231  28.612   2.947  14.585
83005W        W48232  38.283  17.832   1.019
83006W        W48233  27.689   4.658   3.579
83007W        W48234  22.070  19.507  12.102
83008W        W48235  29.003  41.449  14.800
83009W        W48236   0.543  30.228   0.884
83010W        W48237  24.244  39.963   4.636
83011W        W48238  41.679  11.415  12.490
83012W        W48239  24.139  10.232  10.716
83013W        W48240  36.943   1.439   3.185
83014W        W48241  23.951  43.963   1.922
83015W        W48242   7.634  22.739   3.788
83016W        W48243  22.165   3.409   1.872
83017W        W48244  42.103   6.934   2.715
83018W        W48245  24.559  10.919   1.394
83019W        W48246  10.685   7.892  10.602
83020W        W48247  17.632  23.221   3.290
83021W        W48248  19.593  12.056  14.967
83022W        W48249  13.269   9.689  10.575
83023W        W48250  42.200  26.970  13.773
83024W        W48251   2.830  44.860  11.537
83025W        W48252   1.865  35.592   4.620
83026W        W48253  34.390   9.348   3.213
83027W        W48254  20.458  44.972  14.776
83028W        W48255   8.677  36.403  11.182
83029W        W48256  33.652  35.581   3.001
83030W        W48257   4.832  11.895   1.876
83031W        W48258  10.165  32.994  14.901
83032W        W48259  26.456  43.625  12.894
83033W        W48260  10.643  42.143  14.372
83034W        W48261   2.004  37.905   4.032
83035W        W48262   1.262   2.667   1.429
83036W        W48263  14.909  44.069  12.778
83037W        W48264  11.305  21.067   2.367
83038W        W48265  10.567  31.837   3.943
83039W        W48266  33.650  25.966   3.320
83040W        W48267  36.935   5.888  11.532
83041W        W48268  21.161  13.817   1.810
83042W        W48269  29.690  10.016   3.614
83043W        W48270  34.467  13.055  10.145
83044W        W48271   3.357   9.305  11.700
83045W        W48272  14.604  41.376  14.239
83046W        W48273  25.764  35.661  11.146
83047W        W48274  26.222  29.281   4.516
83048W        W48275   0.002  11.146  10.743
83049W        W48276  43.029  41.756   2.401
83050W        W48277  18.053  12.969  12.633
83051W        W48278  21.979  39.483  12.013
83052W        W48279  21.512  33.758  11.063
83053W        W48280  37.079   5.374  14.863
83054W        W48281  15.574  34.042   0.764
83055W        W48282  19.180  12.886   2.328
83056W        W48283  24.252   5.700   3.665
83057W        W48284  37.812  43.485  12.623
83058W        W48285  34.115  29.763  10.441
83059W        W48286  31.650  31.338   2.272
83060W        W48287   9.923  15.583   0.195
83061W        W48288  33.599   3.478   4.250
83062W        W48289  25.479  16.779   2.756
83063W        W48290  35.022   4.278   1.642
83064W        W48291  30.961  44.608  12.359
83065W        W48292  15.489   5.632   1.930
83066W        W48293  40.571  29.431   0.697
83067W        W48294  44.760  12.200  12.871
83068W        W48295  29.472  38.192  14.294
83069W        W48296   0.347  44.733  10.511
83070W        W48297  12.630   3.855   1.301
83071W        W48298  11.097  23.261   2.269
83072W        W48299  42.749  12.784  13.579
83073W        W48300  15.736  43.279   3.653
83074W        W48301   7.242  14.187   9.889
83075W        W48302  16.593   6.959   4.140
83076W        W48303   6.581  35.428  10.413
83077W        W48304   3.380  23.587   1.383
83078W        W48305   8.725  31.569  10.718
83079W        W48306  24.733   2.783   2.682
83080W        W48307  19.638   3.788  13.105
83081W        W48308  28.422   0.781  11.413
83082W        W48309  18.959   7.854   4.650
83083W        W48310  22.145  21.270  14.940
83084W        W48311  27.124  18.488   0.328
83085W        W48312  25.981  17.655   0.509
83086W        W48313   9.360  36.644   4.899
83087W        W48314  29.100  38.226   4.213
83088W        W48315  13.616   4.403  13.169
83089W        W48316  27.883  21.639  12.182
83090W        W48317  32.064  44.266  13.923
83091W        W48318  24.558  30.036  11.608
83092W        W48319  31.109   3.948   3.203
83093W        W48320  14.281  42.254  13.447
83094W        W48321  16.293  15.499   0.111
83095W        W48322  16.616  28.552  12.056
83096W        W48323  19.809  17.843  11.543
83097W        W48324   5.728  11.464   1.453
83098W        W48325   7.655  38.412  13.006
83099W        W48326  25.599  32.856  13.962
83100W        W48327  24.143   0.912   2.822
83101W        W48328  28.649  15.822  11.961
83102W        W48329  15.377  43.559   4.483
83103W        W48330  35.022  26.193  11.745
83104W        W48331  21.566  31.215   0.928
83105W        W48332  26.495  15.544   4.102
83106W        W48333   6.388  21.703   4.558
83107W        W48334   3.344   7.965  13.794
83108W        W48335  39.290  44.880  14.418
83109W        W48336  26.212   5.169  11.483
83110W        W48337  33.674   4.331  10.723
83111W        W48338  36.876  11.204   3.915
83112W        W48339   1.278   9.077  14.377
83113W        W48340  14.072  40.345   2.848
83114W        W48341  27.113  11.664   4.570
83115W        W48342  43.803   9.319   0.961
83116W        W48343  26.269  29.759  14.403
83117W        W48344  10.633   5.733  10.569
83118W        W48345  30.448  19.284   0.019
83119W        W48346   6.120  23.148   2.211
83120W        W48347  16.834   0.342  13.424
83121W        W48348  39.080  12.897  10.296
83122W        W48349   7.727   5.723   4.885
83123W        W48350  35.503  42.208  14.881
83124W        W48351  21.101  38.340   0.257
83125W        W48352  38.853   2.861   2.863
83126W        W48353  10.598  10.661  12.865
83127W        W48354  33.766  43.372  11.872
83128W        W48355  40.352  20.128  12.027
83129W        W48356  42.980  38.685  13.563
83130W        W48357  31.648  33.963   2.777
83131W        W48358  18.954   0.278  10.741
83132W        W48359  14.692  44.822  10.824
83133W        W48360  12.737   8.342   2.791
83134W        W48361  40.660   2.200  12.768
83135W        W48362   1.609   4.387  12.150
83136W        W48363  42.100  35.073   1.176
83137W        W48364   4.012   4.042   3.986
83138W        W48365  39.255  24.529  13.264
83139W        W48366  19.710   2.299  12.141
83140W        W48367  33.479  29.724   3.482
83141W        W48368  19.373  40.996   2.224
83142W        W48369   4.780  43.884  12.124
83143W        W48370   3.175   5.729  12.477
83144W        W48371  41.991  37.008  12.556
83145W        W48372  35.797  21.690  11.227
83146W        W48373  28.592  18.198   4.641
83147W        W48374  36.586  26.829  13.286
83148W        W48375  14.061   3.748  11.125
83149W        W48376  19.784  41.385  12.841
83150W        W48377  20.535  31.380   0.969
83151W        W48378  12.184   1.380   1.810
83152W        W48379  16.588  15.518   1.107
83153W        W48380  40.680  37.112   4.203
83154W        W48381  24.124  10.376   4.122
83155W        W48382   2.009  30.544   3.637
83156W        W48383   7.616  13.673   4.656
83157W        W48384  35.356  18.111   4.467
83158W        W48385  23.076  44.058   0.853
83159W        W48386  20.673  25.425  13.585
83160W        W48387   6.338  15.878  14.297
83161W        W48388  17.606  40.934   1.871
83162W        W48389  25.279  32.809  14.354
83163W        W48390   5.689  25.047   1.295
83164W        W48391  30.850  33.324   2.097
83165W        W48392  32.443  30.518  12.429
83166W        W48393  22.649  40.540  13.532
83167W        W48394  24.053  10.975  13.892
83168W        W48395  39.599  26.436   0.324
83169W        W48396  10.398  38.837   0.434
83170W        W48397  21.826   0.436  11.045
83171W        W48398  23.990  30.852  13.424
83172W        W48399   9.889  32.808   0.948
83173W        W48400  19.283   5.162  14.095
83174W        W48401   1.271   3.850   4.562
83175W        W48402  12.027   4.488  10.577
83176W        W48403  28.614  14.008  10.282
83177W        W48404  29.365  35.458   0.767
83178W        W48405  17.746  43.802   4.573
83179W        W48406  30.306   2.392   2.131
83180W        W48407   6.927  25.056   4.674
83181W        W48408  19.529  36.848   4.615
83182W        W48409  30.263   6.499   4.219
83183W        W48410  20.192  17.953   1.624
83184W        W48411  27.448  20.983  10.270
83185W        W48412  42.009   5.342   1.020
83186W        W48413  40.310  43.882  13.325
83187W        W48414  32.369   4.705   2.172
83188W        W48415   5.712  32.913  13.660
83189W        W48416   1.566  41.945   1.485
83190W        W48417  38.619  12.234  13.325
83191W        W48418  21.578  36.253  12.976
83192W        W48419  29.132   5.496   4.105
83193W        W48420   3.630  14.733  10.928
83194W        W48421  38.403  14.608   3.941
83195W        W48422   9.927   1.323  14.337
83196W        W48423   7.171  24.141   3.925
83197W        W48424  26.165  28.133   0.776
83198W        W48425  38.808   3.291  11.895
83199W        W48426  18.564  13.343   3.149
83200W        W48427  42.985  38.972  12.423
83201W        W48428  32.856   9.420   1.445
83202W        W48429  39.046  13.083  11.657
83203W        W48430  20.733  10.703  12.490
83204W        W48431  14.672   3.128  14.786
83205W        W48432  18.742  40.390   3.799
83206W        W48433  15.320  30.433   3.333
83207W        W48434   7.746  13.948   5.054
83208W        W48435  37.011  42.930   4.631
83209W        W48436  41.368  39.517  13.755
83210W        W48437  24.882  20.767   9.957
83211W        W48438  26.420  25.461  12.930
83212W        W48439  30.056   0.459  13.369
83213W        W48440  44.901  19.013   1.909
83214W        W48441  35.601  14.639   0.427
83215W        W48442  32.315  40.394   2.673
83216W        W48443   6.189  28.617   2.274
83217W        W48444  15.667   0.705   2.770
83218W        W48445   5.847  29.666   2.572
83219W        W48446  23.906   1.739   1.062
83220W        W48447   0.620   4.440  11.949
83221W        W48448  14.606  13.826  13.438
83222W        W48449  33.898  42.287  13.910
83223W        W48450   8.879  33.477  13.191
83224W        W48451  16.510  16.687  13.534
83225W        W48452  43.284   0.363  13.586
83226W        W48453   8.872  23.815  12.508
83227W        W48454  14.841   5.362  14.457
83228W        W48455  34.487   0.352   1.679
83229W        W48456  18.189  19.613  14.995
83230W        W48457  25.446  25.780  12.959
83231W        W48458  16.742   0.483  12.513
83232W        W48459  38.420  37.540   2.299
83233W        W48460  33.818   7.390   1.449
83234W        W48461  10.283  19.897  13.474
83235W        W48462   9.640  44.268   3.697
83236W        W48463   7.114  31.358  14.931
83237W        W48464  27.658  12.832  13.839
83238W        W48465   5.327  10.650   0.545
83239W        W48466  26.166  39.962  12.430
83240W        W48467  36.530  44.983   0.020
83241W        W48468  32.892  33.333   3.980
83242W        W48469  19.572  39.309   0.832
83243W        W48470  26.189  44.990  10.511
83244W        W48471  33.970   1.723   3.032
83245W        W48472  30.086  21.303  12.411
83246W        W48473  24.647  39.484  12.026
83247W        W48474  10.318   2.393  10.599
83248W        W48475  18.090   1.916   0.325
83249W        W48476   8.791  44.761   0.769
83250W        W48477  36.139  22.019   2.321
83251W        W48478  21.998  21.920   4.565
83252W        W48479  39.768  44.100   2.136
83253W        W48480  27.646  16.699   3.296
83254W        W48481  24.331  36.080   1.344
83255W        W48482  16.301  14.680   1.798
83256W        W48483   5.182   2.707  14.469
83257W        W48484  16.710  23.171  12.695
83258W        W48485  39.485   2.312  13.987
83259W        W48486   0.239  36.497   4.149
83260W        W48487  23.540  22.732   2.420
83261W        W48488  38.017  18.572   4.860
83262W        W48489  44.321  44.265  13.944
83263W        W48490  43.327  15.094   4.584
83264W        W48491  35.602  28.007  14.032
83265W        W48492  40.239  15.168  14.068
83266W        W48493  25.009  27.431   3.132
83267W        W48494  21.166  18.070  14.890
83268W        W48495  39.544   2.850   2.183
83269W        W48496  23.444  17.746   0.254
83270W        W48497  43.171  26.453   0.305
83271W        W48498   3.165  31.551  12.826
83272W        W48499  34.053  19.257  12.563
83273W        W48500  30.957  14.428   4.885
83274W        W48501  13.647  41.087   4.085
83275W        W48502  30.843  28.577   1.713
83276W        W48503  37.743   3.847   2.983
83277W        W48504  11.882  35.750   1.787
83278W        W48505  44.888  35.911   1.034
83279W        W48506  28.936  36.829   3.645
83280W        W48507  43.678  13.853  12.028
83281W        W48508  22.735  20.670  14.872
83282W        W48509  32.478  11.694  13.597
83283W        W48510   1.777  10.902   4.136
83284W        W48511   0.021  20.142   2.364
83285W        W48512  31.557  37.574   3.238
83286W        W48513  10.951   6.264   2.342
83287W        W48514  41.706   3.491  12.057
83288W        W48515  35.457  29.954  13.522
83289W        W48516  27.432  31.621  13.995
83290W        W48517  15.745  13.220   0.020
83291W        W48518  44.392   7.967   4.549
83292W        W48519  41.335  38.910   2.343
83293W        W48520  23.567  30.815   3.726
83294W        W48521  27.945  32.596   2.442
83295W        W48522  21.235  35.781   3.975
83296W        W48523  44.230  20.950   0.919
83297W        W48524   0.078  33.593  14.695
83298W        W48525   9.731   4.947  11.088
83299W        W48526  39.027  10.404   0.779
83300W        W48527  16.683  34.108   1.159
83301W        W48528  39.886  27.705   0.838
83302W        W48529  21.889  19.290   0.887
83303W        W48530  11.390  19.168   0.849
83304W        W48531  30.583  10.564   3.628
83305W        W48532  22.118  35.847   2.328
83306W        W48533  43.235  41.429  10.909
83307W        W48534  14.205   7.440  10.719
83308W        W48535   8.175  24.612  13.459
83309W        W48536   3.319   2.808   1.698
83310W        W48537  28.809  23.450   2.231
83311W        W48538  30.583   0.636  14.014
83312W        W48539   4.252  30.066   1.841
83313W        W48540   4.914  12.381   0.974
83314W        W48541  27.579  22.584   4.670
83315W        W48542  39.739  35.855  12.494
83316W        W48543  44.798  36.036  12.564
83317W        W48544  22.252  21.097  11.060
83318W        W48545   6.686   2.853   1.922
83319W        W48546   0.719  42.824  10.738
83320W        W48547  16.461  34.907   4.584
83321W        W48548  33.028  16.197  14.333
83322W        W48549   8.274   4.483  10.599
83323W        W48550  33.390  34.011   1.719
83324W        W48551   4.519  17.884   3.400
83325W        W48552  13.292  39.866  14.718
83326W        W48553   1.158   6.631   1.929
83327W        W48554  18.880   6.351  11.653
83328W        W48555   1.907  19.512   0.874
83329W        W48556   3.482  44.094   0.867
83330W        W48557  43.330   4.821  12.078
83331W        W48558  20.734  13.913   5.033
83332W        W48559  39.330  25.342   4.390
83333W        W48560  26.460  21.557  11.808
83334W        W48561   4.291  33.974  14.976
83335W        W48562  42.312  40.574  14.876
83336W        W48563   8.003  12.659  13.318
83337W        W48564   7.980  33.367  14.819
83338W        W48565  37.818   4.682   1.417
83339W        W48566  42.789  10.649   1.852
83340W        W48567  14.751  42.455  13.430
83341W        W48568   6.672  37.339  14.563
83342W        W48569  10.424  35.558  12.368
83343W        W48570  29.672   4.037  11.884
83344W        W48571  42.804  15.106  11.244
83345W        W48572  41.094  41.819   3.268
83346W        W48573  23.702  14.353   0.811
83347W        W48574  16.317  44.139  12.254
83348W        W48575   6.482   0.432  12.586
83349W        W48576  34.323  42.002  14.388
83350W        W48577  12.938  29.667  11.074
83351W        W48578  30.012  26.933  13.942
83352W        W48579  36.385   8.478   9.769
83353W        W48580  39.179  12.920   3.684
83354W        W48581   4.656  35.279  12.780
83355W        W48582  37.313   1.759  14.313
83356W        W48583   8.236  14.936  12.194
83357W        W48584   9.689   2.939   0.506
83358W        W48585  11.720   1.563   3.996
83359W        W48586  43.733  17.069   0.798
83360W        W48587   7.795  30.503  13.409
83361W        W48588  12.210  39.081   4.699
83362W        W48589  19.020  30.151   0.921
83363W        W48590  39.335  42.332  13.823
83364W        W48591  10.471  27.867   3.323
83365W        W48592  16.775   1.107  13.853
83366W        W48593  26.130  24.251   4.544
83367W        W48594   9.450  13.294  10.603
83368W        W48595  43.360  27.020  12.625
83369W        W48596  27.895  40.917   2.360
83370W        W48597  37.453  26.796   5.057
83371W        W48598  26.795  25.496  10.814
83372W        W48599  41.871  10.223  10.752
83373W        W48600  29.377  15.087   1.314
83374W        W48601  19.094  21.512   2.140
83375W        W48602  38.321  39.465   1.377
83376W        W48603   9.407  22.521   0.441
83377W        W48604  41.791  13.320   4.335
83378W        W48605  27.465  10.722   1.424
83379W        W48606  27.623  28.566   0.174
83380W        W48607   8.301  17.851  12.531
83381W        W48608  21.344  14.064   0.466
83382W        W48609  35.895   2.831  14.892
83383W        W48610  34.654  16.832  14.050
83384W        W48611  20.147   1.680   2.365
83385W        W48612   2.238  33.121  10.994
83386W        W48613  17.811  34.454   3.342
83387W        W48614  38.385  10.607   2.817
83388W        W48615  25.670  15.166   4.639
83389W        W48616  39.443  13.891  12.600
83390W        W48617  44.006  34.599   4.924
83391W        W48618  25.905   0.796   1.522
83392W        W48619  39.360   1.398  10.929
83393W        W48620  18.896   7.221  10.615
83394W        W48621  23.218  38.953   2.680
83395W        W48622  30.635   9.843   2.723
83396W        W48623  11.051  21.265   0.000
83397W        W48624  20.697  42.498   3.736
83398W        W48625  35.603  35.047   0.506
83399W        W48626  15.497  38.056   4.319
83400W        W48627   4.252  29.997  12.778
83401W        W48628  36.139  11.396   1.280
83402W        W48629  27.121  28.864  14.032
83403W        W48630  17.211   2.929  11.227
83404W        W48631  29.695   4.748   2.087
83405W        W48632  18.490  14.861  11.465
83406W        W48633  44.501  33.416  13.472
83407W        W48634  22.467  16.821  12.897
83408W        W48635  34.016  31.684  13.443
83409W        W48636   3.498   3.394  14.014
83410W        W48637   5.941  13.957  14.452
83411W        W48638  26.493  19.115   3.182
83412W        W48639  30.971  21.652   0.798
83413W        W48640  43.999  21.816   3.264
83414W        W48641  41.070   9.872   0.482
83415W        W48642  11.594  21.660  14.379
83416W        W48643  44.097  19.177   1.393
83417W        W48644   7.659  23.776  11.122
83418W        W48645   1.276  22.681   3.264
83419W        W48646   1.168  15.686  12.944
83420W        W48647  42.146  24.219  12.836
83421W        W48648  13.222  30.075  14.109
83422W        W48649  22.884  34.897   5.420
83423W        W48650   7.706  37.118  12.002
83424W        W48651   5.849  30.766  11.051
83425W        W48652   5.482  21.673   2.119
83426W        W48653  11.253  11.915   4.106
83427W        W48654   0.970  12.186   1.410
83428W        W48655  21.554   4.163  13.487
83429W        W48656  39.544  29.194  11.114
83430W        W48657  27.872  44.434   0.373
83431W        W48658   9.181   1.990  11.486
83432W        W48659   6.645  27.931  12.038
83433W        W48660  39.427  41.955   2.284
83434W        W48661  28.870  30.501   3.763
83435W        W48662  34.114  36.469   4.593
83436W        W48663   6.139  43.792  10.388
83437W        W48664  33.586  21.341  13.533
83438W        W48665  39.413  30.173   2.623
83439W        W48666  37.432  41.343   3.188
83440W        W48667  16.678  28.896   2.204
83441W        W48668  15.860  33.580   0.218
83442W        W48669  40.090  41.284  12.681
83443W        W48670  28.852  31.988  11.503
83444W        W48671  24.994  43.268   4.960
83445W        W48672  23.424   4.464  10.800
83446W        W48673  31.796  32.000   5.220
83447W        W48674  23.224  32.430  13.942
83448W        W48675  27.176  10.582  11.190
83449W        W48676  18.068   0.306   3.105
83450W        W48677  17.749  30.574   3.328
83451W        W48678  43.523  42.271  10.653
83452W        W48679  39.098   4.427   1.915
83453W        W48680  43.922  39.813  13.047
83454W        W48681  38.470   2.826   1.166
83455W        W48682   5.501  40.927  14.188
83456W        W48683  28.276  23.189  14.698
83457W        W48684   6.222   9.994   1.793
83458W        W48685  39.788  44.868   2.798
83459W        W48686   7.499  27.156   1.344
83460W        W48687  30.981  20.826  10.454
83461W        W48688  21.826  42.430   2.398
83462W        W48689   7.306  35.555  13.911
83463W        W48690  35.346  21.247  11.066
83464W        W48691  43.478  35.266  14.350
83465W        W48692  24.316  35.904  14.519
83466W        W48693  14.814  19.990  12.879
83467W        W48694  32.195  24.029   4.630
83468W        W48695   4.656   3.344   3.264
83469W        W48696   7.294   2.307  11.981
83470W        W48697  40.520  25.758  12.556
83471W        W48698   1.277  27.091  13.337
83472W        W48699  43.285  15.172   2.341
83473W        W48700  13.308  41.284   1.923
83474W        W48701  13.102  34.470   2.328
83475W        W48702  28.096  11.775  14.047
83476W        W48703  16.139  29.400  12.934
83477W        W48704  43.535   7.297  13.533
83478W        W48705   3.673   1.314   1.721
83479W        W48706  22.727  34.655   1.911
83480W        W48707  18.153  36.647   0.317
83481W        W48708  23.150  15.975  14.793
83482W        W48709   0.665  26.145  12.341
83483W        W48710  32.722   9.815  14.997
83484W        W48711  19.272  40.326   3.499
83485W        W48712   9.251   7.145   0.497
83486W        W48713  18.170  38.112   2.239
83487W        W48714  34.145  20.736   3.081
83488W        W48715  17.737   1.120   1.741
83489W        W48716  27.940  26.137  10.364
83490W        W48717  35.934  35.152   3.064
83491W        W48718   3.331  22.705  13.819
83492W        W48719  23.210  32.856   3.351
83493W        W48720  18.628  30.359  13.240
83494W        W48721  12.551   0.099   0.364
83495W        W48722  18.333  31.573   0.716
83496W        W48723  29.419  29.465   3.886
83497W        W48724   1.923  28.232  10.555
83498W        W48725   8.631  14.518  14.390
83499W        W48726  18.160  41.588   1.996
83500W        W48727  27.686  44.994   0.469
83501W        W48728  33.063   5.882   2.538
83502W        W48729  17.331  29.682   4.215
83503W        W48730  23.708   4.092   2.198
83504W        W48731   2.387  31.585  14.979
83505W        W48732   3.977  11.684  10.816
83506W        W48733  30.094   0.498  10.560
83507W        W48734  12.366  15.789  12.891
83508W        W48735   9.127  11.528   1.309
83509W        W48736  10.203   0.227   4.630
83510W        W48737   6.417  20.290  14.636
83511W        W48738  19.524  16.345  10.716
83512W        W48739  30.153   2.697  12.671
83513W        W48740  25.722   0.555  12.009
83514W        W48741  30.471  41.060   4.497
83515W        W48742  25.700  37.315  11.524
83516W        W48743  36.448  41.239   2.671
83517W        W48744   1.993  11.873  11.633
83518W        W48745  16.327  22.521  13.870
83519W        W48746  27.477   7.697  14.258
83520W        W48747  27.634  10.256   1.226
83521W        W48748  19.315  26.069  11.423
83522W        W48749   3.340  39.311  13.955
83523W        W48750  38.079   4.100   2.669
83524W        W48751  37.602   7.649  13.454
83525W        W48752  42.429  14.708  12.429
83526W        W48753  25.897  11.414   5.091
83527W        W48754  39.508  44.981   1.802
83528W        W48755  13.774  35.886  14.789
83529W        W48756  44.467  17.709   1.966
83530W        W48757  29.281  21.440   2.211
83531W        W48758  10.546  43.288  13.663
83532W        W48759  30.868  35.469  13.781
83533W        W48760  38.957   9.412  10.731
83534W        W48761  15.511  36.989   0.393
83535W        W48762  24.604   0.776  13.546
83536W        W48763  26.846  10.365   2.343
83537W        W48764  12.712  27.253  11.099
83538W        W48765  22.726   5.664  14.732
83539W        W48766  23.904  38.095   0.880
83540W        W48767  22.155  43.418  10.671
83541W        W48768  26.461  23.997  13.398
83542W        W48769  19.803  32.505  14.870
83543W        W48770   5.286  36.465  12.664
83544W        W48771   1.290   2.861  13.453
83545W        W48772  23.101   8.113  11.528
83546W        W48773  11.380  20.294  11.996
83547W        W48774  18.542  43.884   4.172
83548W        W48775  20.153  23.124  12.993
83549W        W48776  40.860   4.476   4.572
83550W        W48777  43.915  43.020  10.935
83551W        W48778  28.475  28.567  12.307
83552W        W48779  15.691   3.369   2.305
83553W        W48780  28.114  39.848   3.634
83554W        W48781  42.581  28.680   2.083
83555W        W48782   7.340  41.523   3.611
83556W        W48783  25.659   6.295   3.250
83557W        W48784  21.085  16.609   3.713
83558W        W48785  36.971  20.042   1.603
83559W        W48786  30.209  32.556   2.544
83560W        W48787   4.673   5.566  14.410
83561W        W48788  37.077  30.616   3.747
83562W        W48789  21.300  44.773   3.742
83563W        W48790  37.882  43.035   2.802
83564W        W48791  17.929  24.014   3.977
83565W        W48792   5.439  14.393   0.305
83566W        W48793  11.500  28.608   2.755
83567W        W48794  26.888  18.285   2.089
83568W        W48795  13.075  31.637  14.021
83569W        W48796  10.243   3.806  10.622
83570W        W48797  32.041  27.767   2.684
83571W        W48798  17.349  13.127   2.235
83572W        W48799   6.208  16.745  11.395
83573W        W48800  16.425  28.949   1.364
83574W        W48801  39.109   7.634   4.165
83575W        W48802  43.776  38.432   0.393
83576W        W48803  33.572  27.986  10.517
83577W        W48804  13.167  39.602   2.283
83578W        W48805  24.718  38.838  14.323
83579W        W48806  25.645  36.522   0.277
83580W        W48807  35.256  29.028   4.728
83581W        W48808  34.998  27.171   2.152
83582W        W48809  10.398  27.997  13.417
83583W        W48810   1.917  12.127  13.620
83584W        W48811   5.327  26.767   1.182
83585W        W48812  28.364  37.785   0.948
83586W        W48813   0.764  17.815   2.985
83587W        W48814   4.857  17.818  10.676
83588W        W48815  28.050  14.748  14.299
83589W        W48816  13.020  14.337   4.270
83590W        W48817  36.359  31.349  13.136
83591W        W48818  33.660  26.782   3.655
83592W        W48819   9.324   9.215   2.690
83593W        W48820  12.715  40.875  11.092
83594W        W48821  14.562   7.207   3.239
83595W        W48822  19.227  34.160   3.598
83596W        W48823  11.901  27.147  14.290
83597W        W48824  16.705  39.936   1.989
83598W        W48825  40.302  14.313   3.317
83599W        W48826  40.066  41.618   0.810
83600W        W48827   7.679  36.835   2.827
83601W        W48828   5.460  43.965   4.413
83602W        W48829  23.262  10.029  14.731
83603W        W48830  29.959  21.550   0.794
83604W        W48831  27.578  37.848   1.905
83605W        W48832   0.262  24.257   3.186
83606W        W48833  43.027   4.472  14.572
83607W        W48834  29.896  10.779  12.568
83608W        W48835  16.379   1.862  14.272
83609W        W48836  31.123  32.048   5.033
83610W        W48837  43.361  11.843   3.688
83611W        W48838  23.116  37.216   3.271
83612W        W48839  39.775  14.983  12.535
83613W        W48840   0.888  31.338   4.813
83614W        W48841  37.968   3.458  14.056
83615W        W48842  21.455  21.728  10.299
83616W        W48843  35.375  31.428  14.973
83617W        W48844   7.150  31.536  12.013
83618W        W48845  15.158   4.752   1.170
83619W        W48846   9.630   5.608  14.323
83620W        W48847   2.559  39.604  14.401
83621W        W48848  26.590  32.979  11.181
83622W        W48849  11.390  22.075  14.087
83623W        W48850  12.851  14.567  11.085
83624W        W48851   5.526  22.233   3.782
83625W        W48852  18.985  42.743  10.731
83626W        W48853  42.061  20.019  14.428
83627W        W48854  41.658  14.792   3.910
83628W        W48855  42.580   1.375  11.593
83629W        W48856  29.151  32.451  13.947
83630W        W48857  33.778  14.406  11.911
83631W        W48858  42.541   0.661  11.183
83632W        W48859  22.136  33.905   3.577
83633W        W48860  33.896  24.036   5.083
83634W        W48861  41.821  35.645   2.325
83635W        W48862  17.514   1.333  11.164
83636W        W48863  31.611  32.365  13.379
83637W        W48864  25.895  34.260   1.255
83638W        W48865  19.210  16.997   2.231
83639W        W48866  14.884  36.817  14.957
83640W        W48867  27.250  31.828   3.374
83641W        W48868  26.199  41.798   1.639
83642W        W48869  28.401  11.423   3.235
83643W        W48870  33.122  22.697   2.749
83644W        W48871   1.493  24.266   1.461
83645W        W48872   7.106   2.776   1.651
83646W        W48873  16.455  38.516   2.764
83647W        W48874  42.855  27.028  10.053
83648W        W48875  16.179  12.394  13.918
83649W        W48876  31.906  33.938   1.689
83650W        W48877   9.295  32.751  14.689
83651W        W48878  30.381  17.706  12.611
83652W        W48879   1.014  25.855   9.715
83653W        W48880  30.499   2.885  11.443
83654W        W48881  43.098   7.086   1.801
83655W        W48882  22.891  26.014  12.988
83656W        W48883  43.028  32.646  14.234
83657W        W48884  29.089  39.402  13.907
83658W        W48885  21.231  29.752   3.780
83659W        W48886  32.697  44.856  14.901
83660W        W48887  15.620  23.228  11.692
83661W        W48888  44.949  19.174  13.424
83662W        W48889  21.683  32.945  12.230
83663W        W48890  12.829  36.517   4.017
83664W        W48891  44.906  36.526  10.822
83665W        W48892  16.604  20.560   3.321
83666W        W48893  44.384  11.569  14.496
83667W        W48894   4.249  12.922  13.448
83668W        W48895  43.866  11.648   4.647
83669W        W48896   4.986  43.061  14.609
83670W        W48897  21.400   5.907   9.857
83671W        W48898   0.228   5.730   2.837
83672W        W48899  26.031  35.742  13.386
83673W        W48900  11.897  17.656   4.908
83674W        W48901  33.887  39.654  11.508
83675W        W48902  13.029  17.075   4.641
83676W        W48903  41.081  14.384   2.687
83677W        W48904  15.632  18.765  11.781
83678W        W48905  42.003  13.427   2.237
83679W        W48906  41.352  22.194  11.829
83680W        W48907  38.284  26.701  13.756
83681W        W48908  11.766  12.252   0.792
83682W        W48909  37.512   7.303  13.067
83683W        W48910   0.895   4.249   1.764
83684W        W48911   7.936  31.277  12.088
83685W        W48912   4.851  16.369  10.767
83686W        W48913  28.605  36.311   3.221
83687W        W48914  23.263  30.120  12.135
83688W        W48915  36.026  21.423  13.088
83689W        W48916   8.284  32.887   3.090
83690W        W48917  18.605  10.475   2.333
83691W        W48918  10.312  13.723  14.866
83692W        W48919  10.292  40.272   1.228
83693W        W48920  36.128  24.078   2.014
83694W        W48921  40.441   6.270  13.750
83695W        W48922  43.395  13.621  12.418
83696W        W48923  26.075   8.855  14.440
83697W        W48924  37.609  39.319  14.491
83698W        W48925  40.423  33.862  13.372
83699W        W48926  16.207   2.262   1.996
83700W        W48927  13.125   1.515  14.293
83701W        W48928  14.122  17.330  11.653
83702W        W48929  43.417  28.982  10.518
83703W        W48930  32.564  34.310   3.108
83704W        W48931  19.006  27.710   2.211
83705W        W48932  40.406  27.143   2.258
83706W        W48933  25.729  40.457   0.427
83707W        W48934  42.451  42.951   1.119
83708W        W48935  13.442  16.035  13.385
83709W        W48936  28.001  35.829   2.718
83710W        W48937   2.687  27.238  11.957
83711W        W48938   3.483  25.124  12.545
83712W        W48939  40.472  41.120  11.506
83713W        W48940  44.206  20.759  10.673
83714W        W48941   1.732  22.919   3.044
83715W        W48942   2.331   7.607  13.450
83716W        W48943  24.312  24.028  12.977
83717W        W48944  13.334  28.684  11.948
83718W        W48945   9.450   6.627  14.354
83719W        W48946   5.939   8.388   2.341
83720W        W48947  20.619  19.080  13.809
83721W        W48948   6.268  23.034   3.431
83722W        W48949   0.345  44.281   3.127
83723W        W48950  43.018  29.015   0.287
83724W        W48951  31.345  30.745   0.746
83725W        W48952   8.352  13.875  13.507
83726W        W48953   1.378  14.928  14.490
83727W        W48954   7.498  16.572   3.240
83728W        W48955  37.575  11.394  13.526
83729W        W48956   2.829  13.974   3.594
83730W        W48957  39.169  17.874  11.353
83731W        W48958  35.089  13.823  11.697
83732W        W48959  34.876  15.158  11.964
83733W        W48960  42.330  31.700  11.586
83734W        W48961  15.183   3.197  11.464
83735W        W48962  28.645  36.606  13.028
83736W        W48963  25.504  37.567   3.374
83737W        W48964  28.953  30.984  14.475
83738W        W48965   3.034  14.148  11.215
83739W        W48966   1.151  39.967  11.838
83740W        W48967   6.789  43.799   2.663
83741W        W48968  41.582   6.837   1.707
83742W        W48969  12.894  25.533   4.103
83743W        W48970  32.352  44.374  11.071
83744W        W48971  39.403   9.214  10.450
83745W        W48972  39.823  42.079   2.608
83746W        W48973   7.873  28.186   4.536
83747W        W48974  15.546  32.880  12.626
83748W        W48975  21.644  17.222   1.604
83749W        W48976   3.900   6.755   4.149
83750W        W48977  26.567  34.553  12.627
83751W        W48978   5.719   9.397  13.072
83752W        W48979  20.297  44.807   1.403
83753W        W48980  21.172   4.461  10.455
83754W        W48981   3.007  25.088  12.316
83755W        W48982  25.603  17.970   2.221
83756W        W48983  23.058  38.899  13.655
83757W        W48984  18.184  15.252  13.572
83758W        W48985  38.032  18.147   2.237
83759W        W48986  11.745  43.286  10.316
83760W        W48987   6.780  33.129  11.918
83761W        W48988  29.307  13.161   0.865
83762W        W48989   7.857  20.666  10.942
83763W        W48990  40.512  20.800   1.355
83764W        W48991  42.768  13.902   3.067
83765W        W48992  44.819  18.643  14.404
83766W        W48993  35.034  20.156  13.129
83767W        W48994  32.887  17.336   0.852
83768W        W48995  21.277  31.634  11.526
83769W        W48996   7.608  43.867  11.947
83770W        W48997  32.481  32.120  14.280
83771W        W48998   8.642  21.088  10.616
83772W        W48999  25.899  31.672  10.176
83773W        W49000  24.760   2.529   5.164
83774W        W49001   7.158   1.380   3.142
83775W        W49002  27.967  27.676  11.040
83776W        W49003  30.899  27.961  14.094
83777W        W49004   9.760   0.664   0.785
83778W        W49005  19.670  11.698   0.337
83779W        W49006  18.214  36.935  14.217
83780W        W49007  29.577  28.939   1.313
83781W        W49008  34.191  44.533   2.266
83782W        W49009  33.005  43.531   2.471
83783W        W49010  22.604  27.992   4.557
83784W        W49011  42.493   8.768   3.725
83785W        W49012  32.536  25.291   3.460
83786W        W49013  14.112   3.794  12.536
83787W        W49014  40.125  39.890  14.345
83788W        W49015  16.308  38.758  13.994
83789W        W49016  11.438  25.354   9.946
83790W        W49017  41.081  12.835   0.742
83791W        W49018  16.600  28.072   2.676
83792W        W49019  28.630  44.626   1.318
83793W        W49020  16.180   2.481   2.939
83794W        W49021   3.823  44.588   1.400
83795W        W49022  19.012  27.663   0.230
83796W        W49023  10.901  34.407   0.685
83797W        W49024  40.112  23.519  12.900
83798W        W49025   3.462  31.108  12.919
83799W        W49026   4.923  35.868  11.982
83800W        W49027  13.563  40.350   2.810
83801W        W49028  25.058   6.630  14.483
83802W        W49029   5.928   0.923   0.968
83803W        W49030  23.660   8.220  12.993
83804W        W49031  36.177  35.954  10.585
83805W        W49032  35.374  18.638  14.267
83806W        W49033  17.544   6.893  13.223
83807W        W49034   7.891  37.894  14.987
83808W        W49035  28.926  26.147   3.943
83809W        W49036  31.304   1.673   1.844
83810W        W49037  36.867   9.193   4.607
83811W        W49038  30.871   3.455  10.976
83812W        W49039  42.366  23.780   3.304
83813W        W49040   0.429  23.678   0.480
83814W        W49041   0.414  10.615   1.472
83815W        W49042   2.487  24.572   3.362
83816W        W49043  42.813  40.571   0.058
83817W        W49044  21.648   5.122  11.634
83818W        W49045  22.459  20.247  14.816
83819W        W49046  38.019  41.628  12.489
83820W        W49047  36.078  11.578   3.580
83821W        W49048  19.113  43.071  13.371
83822W        W49049  28.397  32.205  11.458
83823W        W49050  40.727  41.409   1.482
83824W        W49051  25.233  34.954   2.394
83825W        W49052  43.011   1.475   2.156
83826W        W49053  39.319   5.850  14.914
83827W        W49054   2.747  37.762   2.738
83828W        W49055  21.655  28.510   2.262
83829W        W49056   1.264  42.048   0.002
83830W        W49057   8.046   2.178  13.037
83831W        W49058  25.610   1.950   0.337
83832W        W49059  25.483  32.240   2.339
83833W        W49060  40.203  11.246   2.720
83834W        W49061  37.526  19.823  13.582
83835W        W49062  36.451  19.237   4.894
83836W        W49063  35.286  43.411   3.138
83837W        W49064  38.195  13.146  12.154
83838W        W49065  13.295  44.486  13.791
83839W        W49066  13.287  40.019   1.190
83840W        W49067  20.013  13.753  12.475
83841W        W49068  11.721  11.707   4.036
83842W        W49069  44.976  29.892   0.296
83843W        W49070  22.339   6.312  14.378
83844W        W49071  14.041  21.212   1.504
83845W        W49072   7.460  28.505  12.427
83846W        W49073  15.633  15.352   0.815
83847W        W49074   8.897  35.485   9.839
83848W        W49075   5.807  22.580  13.050
83849W        W49076  40.952   6.708  13.080
83850W        W49077  30.067  18.189   0.273
83851W        W49078  28.523  27.254   2.184
83852W        W49079   3.735   1.418  10.320
83853W        W49080   7.123  13.108  10.387
83854W        W49081   5.851   6.910  10.274
83855W        W49082  38.847   1.383  11.054
83856W        W49083   7.959  22.222   3.344
83857W        W49084  14.794   3.267  14.285
83858W        W49085  10.171  33.435   3.768
83859W        W49086  43.452  31.285  12.505
83860W        W49087  15.214  23.458  14.402
83861W        W49088   9.142   8.335  11.776
83862W        W49089  13.676  25.209   4.877
83863W        W49090   5.791  40.321  14.916
83864W        W49091  43.875  28.273   1.324
83865W        W49092  20.463  43.392   3.323
83866W        W49093  38.821  14.982   4.899
83867W        W49094  14.153  10.886   1.074
83868W        W49095  18.835   5.681   1.271
83869W        W49096   8.202  11.744  10.629
83870W        W49097  13.713  17.878   4.078
83871W        W49098  13.302  11.782  10.183
83872W        W49099  16.105   7.148  11.058
83873W        W49100  10.238  40.822   4.824
83874W        W49101  16.706  14.358   3.612
83875W        W49102  42.900  28.206   1.340
83876W        W49103  40.394  31.458   1.196
83877W        W49104   1.163  18.044   3.279
83878W        W49105  15.346  13.836  11.632
83879W        W49106  31.664  21.962   1.074
83880W        W49107  26.388  23.276   3.736
83881W        W49108   3.782  36.053  12.842
83882W        W49109  27.444   1.935   4.703
83883W        W49110  40.474  32.979  12.824
83884W        W49111  35.942  17.727   3.234
83885W        W49112   2.895  22.973  11.507
83886W        W49113  12.994  39.357   4.243
83887W        W49114  32.062  19.555  14.200
83888W        W49115  19.779  32.406   1.313
83889W        W49116  13.857  26.954   4.927
83890W        W49117  43.443  26.478  13.532
83891W        W49118   4.494   4.447  13.872
83892W        W49119  19.608   5.216   1.729
83893W        W49120  25.185  43.550   1.243
83894W        W49121  30.859   8.387  13.944
83895W        W49122  36.021   5.448  12.458
83896W        W49123  33.558  17.240  12.970
83897W        W49124  25.524  27.942  11.153
83898W        W49125  15.727  20.930   0.388
83899W        W49126  42.950  39.922   2.010
83900W        W49127  22.938   5.243  14.939
83901W        W49128  20.663   3.372   0.747
83902W        W49129  42.979   0.420   1.465
83903W        W49130   6.600  14.744   0.488
83904W        W49131  26.713   8.180  14.828
83905W        W49132  33.612   1.279  12.038
83906W        W49133  37.160  20.266  14.448
83907W        W49134  14.748   8.225  13.304
83908W        W49135   9.631   8.817  10.571
83909W        W49136  42.506  36.501   3.448
83910W        W49137  26.898   5.878   1.394
83911W        W49138  28.218   2.695  13.815
83912W        W49139  29.392  21.728  14.943
83913W        W49140  32.070  14.852   4.522
83914W        W49141  20.521  18.078  14.164
83915W        W49142  31.071  21.536  13.499
83916W        W49143   1.282  24.515  10.387
83917W        W49144  28.700  14.584   0.774
83918W        W49145  25.585  33.711  10.562
83919W        W49146  12.460  17.732   2.352
83920W        W49147  28.234  42.613  11.145
83921W        W49148  33.903   8.888  10.033
83922W        W49149  30.308  31.423  12.842
83923W        W49150  37.006   8.827  14.242
83924W        W49151  32.117  29.814  14.378
83925W        W49152   4.941   7.905   1.243
83926W        W49153  28.999   5.286  13.963
83927W        W49154  44.077  35.423  14.004
83928W        W49155  28.426  15.201   1.232
83929W        W49156  17.024  41.348  14.858
83930W        W49157   6.168  41.820   0.826
83931W        W49158  40.042   9.771  12.476
83932W        W49159  11.407   2.165   2.312
83933W        W49160   9.688   4.830   0.897
83934W        W49161  40.326  19.298   4.153
83935W        W49162  14.155  35.899   4.249
83936W        W49163  34.443  22.953   2.672
83937W        W49164  13.884  39.822   2.035
83938W        W49165   1.075  15.905   2.795
83939W        W49166  33.137  16.758   4.747
83940W        W49167  34.076  26.149  11.560
83941W        W49168  19.723  25.731  11.494
83942W        W49169  20.300  44.312   1.805
83943W        W49170   7.485   0.706  11.555
83944W        W49171   4.329  18.109   2.013
83945W        W49172  19.644  17.197   0.282
83946W        W49173  10.216  27.560   3.756
83947W        W49174  16.292  10.233  11.057
83948W        W49175  41.068  21.319  12.545
83949W        W49176  31.633  10.775   3.753
83950W        W49177  37.115  41.838   0.297
83951W        W49178   1.972  41.037   3.593
83952W        W49179  42.510  30.755   2.949
83953W        W49180  16.749   3.390   3.735
83954W        W49181  40.960   8.398   3.260
83955W        W49182   2.892  23.597   0.764
83956W        W49183  33.509  19.439   2.008
83957W        W49184  44.385  17.712  14.454
83958W        W49185  29.467  21.466  10.797
83959W        W49186   0.240  15.436   3.609
83960W        W49187  26.932  21.581   3.352
83961W        W49188   9.470  13.415   4.529
83962W        W49189  38.349  28.743   0.939
83963W        W49190   7.247  10.260  12.867
83964W        W49191  39.952  14.200  13.092
83965W        W49192  35.377  40.239   1.608
83966W        W49193  10.289  30.692   3.750
83967W        W49194  28.548  26.363   0.852
83968W        W49195  43.325   3.957  10.655
83969W        W49196   7.908  15.557   0.362
83970W        W49197  20.322  33.597  13.531
83971W        W49198  10.982  34.044  10.649
83972W        W49199  14.572  27.176  14.504
83973W        W49200  38.391  19.178  10.905
83974W        W49201  33.176  19.220   1.057
83975W        W49202  12.016  30.100  10.932
83976W        W49203  32.597  25.523   1.944
83977W        W49204  41.241  43.131   5.298
83978W        W49205  36.465  34.920  12.054
83979W        W49206  40.312  40.950  11.060
83980W        W49207  25.470  15.875   2.818
83981W        W49208   1.971  12.848  11.546
83982W        W49209  31.042  38.960  12.904
83983W        W49210  38.207  14.423   5.130
83984W        W49211  23.211   6.448   4.865
83985W        W49212  30.071  44.360  11.849
83986W        W49213  41.997  39.225  10.555
83987W        W49214  15.855   1.410   2.275
83988W        W49215  35.763  21.493   2.341
83989W        W49216  35.013   6.269   2.896
83990W        W49217  18.658  20.108  12.655
83991W        W49218  42.481  29.543   4.626
83992W        W49219  37.969  43.487   1.003
83993W        W49220   6.085  20.268   1.347
83994W        W49221  43.584  35.540   4.188
83995W        W49222  24.689  34.326  12.805
83996W        W49223   6.417  13.714  11.560
83997W        W49224   7.229   2.701   4.727
83998W        W49225  26.671  38.388   1.429
83999W        W49226  44.586  28.160  13.456
84000W        W49227  36.915   2.919  14.838
84001W        W49228  36.856  29.288  12.630
84002W        W49229  44.431  40.746  10.735
84003W        W49230  17.044   9.966   9.916
84004W        W49231   4.431  33.024  14.889
84005W        W49232  22.320  40.376   0.028
84006W        W49233  41.070   6.992   4.505
84007W        W49234  40.897   3.920   0.784
84008W        W49235  10.325  23.769   1.313
84009W        W49236  37.333  21.039   3.607
84010W        W49237  40.452  38.293  13.483
84011W        W49238  12.698   4.882  14.816
84012W        W49239  15.563   2.391   3.203
84013W        W49240  36.309   1.902  10.695
84014W        W49241  11.749   0.738  13.548
84015W        W49242  14.938  12.317   2.776
84016W        W49243  15.542  43.987   1.877
84017W        W49244  20.629  42.061   2.710
84018W        W49245  24.061   7.663   3.662
84019W        W49246  16.017   3.955   1.329
84020W        W49247  39.655  33.436   1.334
84021W        W49248  35.521  42.146  13.880
84022W        W49249   3.027  22.176   4.544
84023W        W49250  10.901   7.720  14.888
84024W        W49251   0.847  42.906   3.060
84025W        W49252  23.652  13.225   4.184
84026W        W49253  17.128  17.762   0.497
84027W        W49254  27.535  13.643  12.574
84028W        W49255  15.319  31.981   5.358
84029W        W49256  24.487  28.035   3.277
84030W        W49257  13.544  16.661  11.571
84031W        W49258  38.670  16.361   4.557
84032W        W49259  21.211  20.971  14.768
84033W        W49260   0.431   6.673  14.596
84034W        W49261   6.436  30.839   2.373
84035W        W49262  12.084   3.249   1.988
84036W        W49263  34.963  26.937   1.281
84037W        W49264  44.886  19.148  14.993
84038W        W49265  20.607  25.964  13.528
84039W        W49266  44.580  33.496  14.673
84040W        W49267  14.600  13.317  11.837
84041W        W49268  17.804  34.198  11.715
84042W        W49269  22.230  30.398  14.029
84043W        W49270  43.894   1.199   2.236
84044W        W49271  36.511  17.850   2.914
84045W        W49272  33.889  21.662  12.967
84046W        W49273  19.623   9.827  13.839
84047W        W49274   3.969   6.216  13.873
84048W        W49275  42.164   8.766   3.326
84049W        W49276   7.715   8.679   5.163
84050W        W49277  24.692  17.227   2.760
84051W        W49278  18.707  27.136   0.776
84052W        W49279  33.924  31.993   1.767
84053W        W49280  21.045  21.573   4.402
84054W        W49281  42.327  31.879  10.728
84055W        W49282   2.397  17.752  11.940
84056W        W49283  10.780  32.414   2.729
84057W        W49284  28.129   0.350   3.806
84058W        W49285  24.833  33.315  12.562
84059W        W49286  42.557  18.010   2.901
84060W        W49287  40.676  18.572   3.828
84061W        W49288   2.207  31.480  12.557
84062W        W49289   4.994   5.852  12.977
84063W        W49290   0.001  38.716   0.287
84064W        W49291  43.307  31.500  14.936
84065W        W49292  40.986  22.640  10.668
84066W        W49293  30.425   0.291   0.619
84067W        W49294  16.321  24.058  11.598
84068W        W49295   0.426  34.862  14.617
84069W        W49296  44.232   4.976  14.726
84070W        W49297  16.130  35.329  13.159
84071W        W49298   3.259  29.996  13.774
84072W        W49299  35.586  15.077  11.250
84073W        W49300  27.567  25.313  14.803
84074W        W49301   8.278  13.359   3.725
84075W        W49302   5.168   7.581   4.121
84076W        W49303  40.271  44.775  13.046
84077W        W49304  27.725  43.033  13.897
84078W        W49305  30.645   4.691   4.143
84079W        W49306   9.811  32.358   3.213
84080W        W49307  36.588  37.363   0.467
84081W        W49308  41.456  14.919   3.451
84082W        W49309  10.663  24.472   2.464
84083W        W49310  40.950  11.555  11.191
84084W        W49311  30.535  39.187  13.641
84085W        W49312  31.936   4.467   3.361
84086W        W49313  28.738  14.386  13.440
84087W        W49314  42.296  11.350   1.670
84088W        W49315  20.172  17.364   1.199
84089W        W49316   8.236  13.658  13.002
84090W        W49317  26.349   0.589   5.175
84091W        W49318  24.970  23.473   3.684
84092W        W49319  37.744  25.040   0.347
84093W        W49320   9.660  28.492   1.346
84094W        W49321  26.514  15.767  13.106
84095W        W49322  41.459  16.081   1.857
84096W        W49323   6.172  25.913  11.452
84097W        W49324  34.728  29.010   9.908
84098W        W49325  13.637  38.037  11.244
84099W        W49326  42.290   2.880   3.158
84100W        W49327  22.980  35.891  14.955
84101W        W49328  41.439  31.920   1.736
84102W        W49329  11.172  40.394   0.900
84103W        W49330  35.874  16.798   1.837
84104W        W49331   6.917  30.615  13.937
84105W        W49332  18.819  29.086  12.712
84106W        W49333  29.472  41.522  10.705
84107W        W49334  44.416  31.079  11.518
84108W        W49335  40.014  10.617  12.041
84109W        W49336   1.436   2.388   3.742
84110W        W49337  40.243  25.085  10.209
84111W        W49338   0.262  27.698   3.490
84112W        W49339  32.645  31.825  10.195
84113W        W49340  41.090  21.490   0.456
84114W        W49341   1.332  25.139  13.185
84115W        W49342  19.562  37.761   0.954
84116W        W49343  11.716  16.804  14.471
84117W        W49344  25.450  28.908  12.072
84118W        W49345  42.438   3.329   2.013
84119W        W49346  18.545  15.344   1.009
84120W        W49347  19.209  32.790  11.609
84121W        W49348   3.793  37.560   2.776
84122W        W49349  24.759  36.169  14.821
84123W        W49350  35.105   6.662  14.280
84124W        W49351  22.986   4.247  12.538
84125W        W49352   1.805  22.366  12.646
84126W        W49353  37.558  31.858  10.544
84127W        W49354  12.682  33.921  13.504
84128W        W49355  17.362  38.566  13.317
84129W        W49356  17.216  23.057   3.614
84130W        W49357  28.085  38.417   2.111
84131W        W49358   2.659   8.348   3.263
84132W        W49359  21.481  42.507  11.514
84133W        W49360  13.486  23.668  10.431
84134W        W49361   8.373  32.505  13.061
84135W        W49362  15.885  20.642   1.885
84136W        W49363   3.929  44.452  13.992
84137W        W49364  35.481  10.439   2.187
84138W        W49365  23.229  44.765  12.750
84139W        W49366  34.528  33.553  12.064
84140W        W49367  30.080   5.296  13.948
84141W        W49368   6.818  16.404   4.980
84142W        W49369  41.061  37.906  12.910
84143W        W49370  34.292  29.967   2.111
84144W        W49371  20.974  16.529  11.229
84145W        W49372  40.796  10.382  10.817
84146W        W49373   8.826   5.855   0.746
84147W        W49374   9.718  26.491   3.758
84148W        W49375  31.434  18.507  11.190
84149W        W49376   9.378  35.080  11.797
84150W        W49377  42.308  24.156  12.358
84151W        W49378  19.120   9.304   0.063
84152W        W49379  38.935  14.418  14.910
84153W        W49380  15.096  37.317   4.151
84154W        W49381  10.356  34.607   3.238
84155W        W49382  12.832  20.926  10.058
84156W        W49383  28.157  41.820  10.789
84157W        W49384  29.951  21.974   2.144
84158W        W49385  34.442  13.184  11.953
84159W        W49386   3.924  44.350  12.191
84160W        W49387   1.939  43.839  13.447
84161W        W49388   7.078  15.405  13.691
84162W        W49389  30.257  43.572  11.122
84163W        W49390   4.404  25.863  14.981
84164W        W49391  34.093  17.031  11.486
84165W        W49392  20.286  30.571   1.203
84166W        W49393   2.915  27.183   0.784
84167W        W49394  14.764  36.273  11.170
84168W        W49395   5.404  17.245  11.682
84169W        W49396  34.334  24.631  12.489
84170W        W49397  19.320  36.680   2.197
84171W        W49398  37.948  37.356  13.871
84172W        W49399   9.022  39.649  11.671
84173W        W49400  20.722  28.007  12.963
84174W        W49401  28.273  30.091   1.290
84175W        W49402  11.172  23.758   1.356
84176W        W49403  11.432  14.647  13.526
84177W        W49404   5.319  34.833   4.438
84178W        W49405  19.567  14.320   0.689
84179W        W49406  22.003   4.813   3.253
84180W        W49407  38.357  17.047  12.930
84181W        W49408  20.596  29.510   0.237
84182W        W49409  34.922  12.053   4.308
84183W        W49410   3.781  18.657  10.938
84184W        W49411  11.362   7.568  12.143
84185W        W49412  22.668  31.938  12.387
84186W        W49413  43.958  22.016   5.065
84187W        W49414   9.150  34.648  11.962
84188W        W49415   3.734  15.227  13.310
84189W        W49416  42.728   8.248   1.377
84190W        W49417   6.311  44.554   2.347
84191W        W49418  30.401  35.928   1.290
84192W        W49419  19.514  18.506   1.431
84193W        W49420  23.305  42.125  13.702
84194W        W49421  10.908  42.260  12.591
84195W        W49422  11.765  41.848  11.548
84196W        W49423  12.828  11.375  11.873
84197W        W49424  29.700  12.201   0.767
84198W        W49425  17.178  13.064   0.108
84199W        W49426  38.725  33.640   3.118
84200W        W49427  28.980  16.598   1.477
84201W        W49428  15.538  42.562   0.806
84202W        W49429  14.242   2.290  13.395
84203W        W49430  33.336  19.689  12.048
84204W        W49431   7.844   5.276   1.340
84205W        W49432  25.249  31.124  11.742
84206W        W49433  16.327  10.655   1.923
84207W        W49434  35.582  41.972  11.171
84208W        W49435  14.784   6.241  14.925
84209W        W49436   3.330  39.580   1.814
84210W        W49437  26.316  44.891   1.364
84211W        W49438  39.323  43.290   1.920
84212W        W49439  37.664  29.015  13.899
84213W        W49440  25.731   6.455  11.521
84214W        W49441  11.163  21.423   1.988
84215W        W49442  20.225  34.803  12.891
84216W        W49443  26.614  26.670  14.664
84217W        W49444  33.343   3.741   0.814
84218W        W49445  26.569  10.076   2.740
84219W        W49446  42.236  31.166   2.276
84220W        W49447  12.028  36.084   4.182
84221W        W49448  23.039   4.720  14.931
84222W        W49449  24.703  29.683   4.619
84223W        W49450  38.063   1.237  14.504
84224W        W49451  33.190  12.473   5.024
84225W        W49452  27.037  21.721   2.284
84226W        W49453  29.000   2.023  11.671
84227W        W49454  36.064  14.410  14.425
84228W        W49455  42.237  18.909   4.924
84229W        W49456  11.425  26.574   5.085
84230W        W49457  35.490  27.708   0.461
84231W        W49458   9.875  31.572  10.998
84232W        W49459   0.354  20.214   2.759
84233W        W49460   2.421  40.318  12.926
84234W        W49461  10.602   5.877   2.285
84235W        W49462  22.604   7.709  14.913
84236W        W49463  42.338  13.129  14.820
84237W        W49464  43.559  40.301   1.157
84238W        W49465   2.309   9.183  11.322
84239W        W49466  12.181  13.555   0.949
84240W        W49467  38.012  14.170  10.501
84241W        W49468  39.749  13.832   0.864
84242W        W49469   5.214  32.974  13.533
84243W        W49470  33.133  24.270   3.685
84244W        W49471  41.169   7.903   4.125
84245W        W49472  13.787   4.172   3.654
84246W        W49473  18.038  42.806  12.457
84247W        W49474  38.905  34.933  12.515
84248W        W49475  17.610   7.314   4.107
84249W        W49476   4.589  40.985  12.952
84250W        W49477  39.859   1.863  10.429
84251W        W49478  27.679  28.093   2.870
84252W        W49479  15.167  27.723   3.823
84253W        W49480   4.791  38.481   4.572
84254W        W49481  38.530   2.693   5.088
84255W        W49482  36.447  26.918   1.807
84256W        W49483  16.189  38.148  13.012
84257W        W49484  36.147  30.541   1.464
84258W        W49485   8.906  12.971  10.365
84259W        W49486  33.713  19.477   3.819
84260W        W49487  11.831  42.848  11.864
84261W        W49488  11.155   5.814  13.016
84262W        W49489  27.463  12.357  13.954
84263W        W49490  20.966  15.324   1.347
84264W        W49491  13.158  43.799   4.482
84265W        W49492  43.607   7.798   2.877
84266W        W49493  21.535   0.990  12.918
84267W        W49494  29.465  18.167   2.831
84268W        W49495  26.381  15.505   0.791
84269W        W49496  18.302  20.347   2.008
84270W        W49497  13.113  16.632   0.050
84271W        W49498  32.801  40.403   0.358
84272W        W49499  25.626   2.818  12.479
84273W        W49500  15.561  34.835   3.372
84274W        W49501   7.464  14.291  12.131
84275W        W49502  17.198   5.401   1.061
84276W        W49503  29.940  13.652   1.341
84277W        W49504  17.369  21.525  12.539
84278W        W49505  41.512  10.344   1.909
84279W        W49506  19.716  34.584  14.212
84280W        W49507  31.203  14.664  11.019
84281W        W49508  20.907   9.352   4.925
84282W        W49509  15.735   3.211   3.543
84283W        W49510  44.035  24.789  14.003
84284W        W49511   2.441  33.076   3.884
84285W        W49512  10.975  30.594  14.521
84286W        W49513   4.813  16.057  13.923
84287W        W49514  39.432  26.471  14.453
84288W        W49515  42.982  38.253  10.650
84289W        W49516  44.021   6.915  10.550
84290W        W49517   5.112   3.966  12.874
84291W        W49518   3.943   0.117   1.354
84292W        W49519  38.014  15.482  12.452
84293W        W49520  21.537   3.843   0.874
84294W        W49521  31.448  11.143  11.442
84295W        W49522  30.211  32.124   0.562
84296W        W49523   4.525  38.638  14.063
84297W        W49524  28.299   3.884   0.275
84298W        W49525  37.888  34.101  12.691
84299W        W49526  15.315  25.720  12.561
84300W        W49527  33.695  35.885   2.583
84301W        W49528   9.871  21.969   0.004
84302W        W49529  22.029   9.333  13.002
84303W        W49530  12.146  14.090  13.411
84304W        W49531  16.600  43.202   1.881
84305W        W49532  27.684   1.741  13.519
84306W        W49533  34.980   7.772  12.016
84307W        W49534   1.246  10.206   4.229
84308W        W49535   6.910  38.919  13.520
84309W        W49536  34.892   4.191  11.195
84310W        W49537  28.075  13.900  13.142
84311W        W49538  39.875   4.098  13.923
84312W        W49539  40.357  16.169  10.540
84313W        W49540  30.852  43.340   0.413
84314W        W49541  10.024  12.844  12.220
84315W        W49542  39.584  34.441  13.410
84316W        W49543  37.241  14.749   0.452
84317W        W49544   2.516  30.223  10.691
84318W        W49545  38.391  41.801   0.801
84319W        W49546   3.184  27.869  11.906
84320W        W49547   7.634  17.319   3.696
84321W        W49548  29.547   2.024  13.878
84322W        W49549  17.338  36.059   3.787
84323W        W49550  42.818  13.071  12.948
84324W        W49551  36.090   7.134  11.122
84325W        W49552  30.549  18.350  14.021
84326W        W49553  14.311  24.117   0.205
84327W        W49554  40.771   8.505   0.941
84328W        W49555   8.892  18.851   4.597
84329W        W49556  11.215  43.552  12.915
84330W        W49557  24.741  21.975   1.839
84331W        W49558  21.773  16.009   2.899
84332W        W49559  34.827  30.170  11.440
84333W        W49560  29.110  21.273  14.289
84334W        W49561   1.793  29.532   0.523
84335W        W49562  15.671  15.275  11.154
84336W        W49563  31.009  40.576   1.980
84337W        W49564  29.120   3.708   0.759
84338W        W49565  41.851  13.260  12.874
84339W        W49566  41.032   3.729  13.949
84340W        W49567   0.280  25.435   0.724
84341W        W49568  36.019  34.493  10.748
84342W        W49569  39.416  15.854  12.568
84343W        W49570  29.422  31.492  12.386
84344W        W49571  19.515  39.871   2.689
84345W        W49572  26.509   4.528  10.678
84346W        W49573  24.752  17.271   0.403
84347W        W49574  17.174  18.836  11.599
84348W        W49575  19.689  38.804  12.022
84349W        W49576  18.202  28.446  12.292
84350W        W49577  37.644   3.757   0.331
84351W        W49578  37.971  36.364  12.978
84352W        W49579  37.836   6.394   1.855
84353W        W49580  27.835  43.545   2.420
84354W        W49581   1.017  36.435  12.029
84355W        W49582   8.810  13.739  12.911
84356W        W49583   1.779   2.000   2.485
84357W        W49584  22.538   6.535   0.819
84358W        W49585   3.562  10.977   3.171
84359W        W49586  14.688   9.676   0.271
84360W        W49587  24.767   7.461  14.413
84361W        W49588  44.627   4.412   3.474
84362W        W49589  43.384  31.659   0.426
84363W        W49590  15.154  43.871   0.400
84364W        W49591   7.879   2.696  13.731
84365W        W49592  21.625   1.993  12.019
84366W        W49593  35.068  26.762   1.792
84367W        W49594  14.118   9.646   1.924
84368W        W49595  31.071  27.650  11.644
84369W        W49596  39.848  28.247  10.694
84370W        W49597   8.432  20.899   1.042
84371W        W49598  11.275  31.028   0.938
84372W        W49599  42.270  39.476  13.389
84373W        W49600   0.331  18.558  14.538
84374W        W49601  17.494  19.282   2.749
84375W        W49602  27.322  34.913   1.690
84376W        W49603  29.226   8.452  12.049
84377W        W49604  44.012  18.631   3.568
84378W        W49605   4.259   6.566  13.180
84379W        W49606  27.047  29.500  12.254
84380W        W49607  15.110  23.550  12.966
84381W        W49608  44.450  25.557   4.868
84382W        W49609  43.830  29.856  11.580
84383W        W49610  18.225   0.810  14.561
84384W        W49611  17.027  30.890   2.223
84385W        W49612  28.481  22.919  12.423
84386W        W49613  32.019  26.019  12.760
84387W        W49614   4.209  34.901  14.440
84388W        W49615  33.577  28.764   2.375
84389W        W49616   9.677  33.041  11.702
84390W        W49617  44.343  10.373  11.689
84391W        W49618   5.310  37.820  12.414
84392W        W49619  30.020  27.460  13.892
84393W        W49620  18.018  41.898  12.443
84394W        W49621  27.064  40.431   0.772
84395W        W49622  17.057  36.384  11.603
84396W        W49623  20.792  39.972  13.484
84397W        W49624  23.394  19.120  11.753
84398W        W49625  17.607  44.861  13.173
84399W        W49626  42.945  40.073   4.581
84400W        W49627  18.122  33.634   3.073
84401W        W49628  18.224  19.041  12.014
84402W        W49629  43.110  14.111  12.426
84403W        W49630  34.874   6.157  13.776
84404W        W49631  36.261  43.325   4.746
84405W        W49632   2.772  33.515   2.979
84406W        W49633  10.842  32.600  14.237
84407W        W49634  13.174   7.362   5.086
84408W        W49635  31.136  18.621   4.650
84409W        W49636  31.099  15.796  10.605
84410W        W49637  36.075   8.876  11.540
84411W        W49638  21.032   4.114  13.268
84412W        W49639   8.702  35.856  10.220
84413W        W49640  17.606   4.912  13.370
84414W        W49641  23.706  29.345   1.414
84415W        W49642  10.584  23.173  10.751
84416W        W49643  37.496  37.064   0.985
84417W        W49644  37.827  18.628   0.994
84418W        W49645  31.588  33.014   1.931
84419W        W49646   9.661   9.704  12.690
84420W        W49647  21.739  35.081  11.101
84421W        W49648   7.632  20.981   5.174
84422W        W49649   9.685  36.036  14.301
84423W        W49650  13.149  14.223   3.066
84424W        W49651  42.263  31.371  12.014
84425W        W49652   7.680  24.509  11.621
84426W        W49653  27.133  20.090  12.432
84427W        W49654   0.226  43.760  10.077
84428W        W49655  19.903  42.604   4.111
84429W        W49656  44.747  38.578   1.143
84430W        W49657  42.739  38.991   2.079
84431W        W49658  41.363  10.622  13.894
84432W        W49659  23.628  35.132  14.841
84433W        W49660   2.175  26.731  14.918
84434W        W49661  38.777   2.448  12.884
84435W        W49662  37.056  10.343   2.803
84436W        W49663  40.395   6.147   0.886
84437W        W49664  43.333  23.719   3.300
84438W        W49665  16.869  38.678  11.981
84439W        W49666   9.852  40.084   0.430
84440W        W49667  36.562   5.662  11.996
84441W        W49668  11.690  15.326  14.253
84442W        W49669  30.563  18.681   0.841
84443W        W49670  18.427  42.856   2.710
84444W        W49671  25.274  33.022  10.868
84445W        W49672  24.017  11.318   0.741
84446W        W49673  23.227   1.851   0.366
84447W        W49674   6.700  42.425   1.471
84448W        W49675  17.229  39.016   1.822
84449W        W49676  31.443  39.834  11.707
84450W        W49677   3.174  11.946   3.740
84451W        W49678  40.328   3.895   0.350
84452W        W49679   3.268   7.927   0.211
84453W        W49680   2.643  14.053   0.712
84454W        W49681   9.237  31.952  11.120
84455W        W49682   5.139   3.165  13.604
84456W        W49683   4.218   7.065  13.036
84457W        W49684  26.066  14.621  11.961
84458W        W49685  21.298  12.732  14.619
84459W        W49686  24.517  21.269  11.689
84460W        W49687   8.332   1.037   1.810
84461W        W49688  21.142  38.003   0.952
84462W        W49689  18.662  21.334  12.032
84463W        W49690  14.727  12.595   0.403
84464W        W49691   7.417  24.994   3.882
84465W        W49692  40.763  32.656   1.752
84466W        W49693  31.461  24.005   0.396
84467W        W49694  23.477  44.964  13.190
84468W        W49695  15.255  25.100   4.826
84469W        W49696   3.836  15.388   3.665
84470W        W49697   2.688  10.450  13.357
84471W        W49698  11.344  35.942   1.278
84472W        W49699   6.334  15.524   0.264
84473W        W49700  32.419  36.658   1.560
84474W        W49701   5.860  38.431  12.713
84475W        W49702  43.083  14.709  11.037
84476W        W49703  26.798  17.306  12.501
84477W        W49704  40.160  13.172   2.615
84478W        W49705  11.286  15.173  13.376
84479W        W49706  36.499   2.753   1.203
84480W        W49707  35.055  10.150  11.533
84481W        W49708  27.055  44.352   9.985
84482W        W49709  27.956   0.982  12.158
84483W        W49710  25.244  37.023  13.560
84484W        W49711  39.839   4.430   4.533
84485W        W49712  14.012  12.070   0.447
84486W        W49713   6.086  10.508  12.525
84487W        W49714  36.420   2.887   3.054
84488W        W49715   0.184  23.156   9.947
84489W        W49716  15.453  44.313  10.470
84490W        W49717   5.990  31.576  13.905
84491W        W49718  19.576  33.006  10.718
84492W        W49719  28.790  42.812  14.961
84493W        W49720  41.839  40.714   3.808
84494W        W49721  10.148   9.859   3.064
84495W        W49722   1.349  39.032  14.483
84496W        W49723  10.043  40.939   3.231
84497W        W49724  17.194  12.539   0.154
84498W        W49725  41.485  12.301  11.886
84499W        W49726  27.166  20.521   4.916
84500W        W49727  15.431  29.899  12.001
84501W        W49728  44.427  12.284   2.698
84502W        W49729  36.889   5.922   3.947
84503W        W49730  30.615  25.940  14.869
84504W        W49731   6.923   7.832   3.953
84505W        W49732   3.922   5.372   2.283
84506W        W49733  44.378  43.927   3.950
84507W        W49734  33.176  40.901  14.722
84508W        W49735   6.768  23.235   0.456
84509W        W49736  32.429   5.759  13.348
84510W        W49737  16.563  43.633   0.438
84511W        W49738  11.545  36.057   4.362
84512W        W49739  31.103  30.213  12.152
84513W        W49740  22.687  26.484   0.310
84514W        W49741  18.135  20.711   0.030
84515W        W49742  23.638  37.852   0.068
84516W        W49743  23.036  12.188  12.185
84517W        W49744  31.985  29.569   4.577
84518W        W49745  29.943  40.427   4.547
84519W        W49746  21.571  18.749  14.972
84520W        W49747   0.530  21.218  11.936
84521W        W49748  33.737   9.840  12.074
84522W        W49749  27.066  15.726  10.005
84523W        W49750  25.488  13.623  12.238
84524W        W49751  42.726  19.964   2.666
84525W        W49752  18.873   7.026  11.082
84526W        W49753  21.287  27.737   3.275
84527W        W49754  42.368  28.044  12.980
84528W        W49755   5.387   9.327  14.710
84529W        W49756   9.926  28.348  11.661
84530W        W49757   6.233  15.798  12.431
84531W        W49758  17.518  39.636   1.933
84532W        W49759  39.298  10.425  14.432
84533W        W49760  13.203   3.133   3.393
84534W        W49761   4.329  38.983  13.127
84535W        W49762  11.890  38.594   0.796
84536W        W49763  40.329  13.379  11.005
84537W        W49764  38.413  22.529   3.273
84538W        W49765  16.747   7.346   0.841
84539W        W49766  26.683  29.033  11.622
84540W        W49767  26.659  40.100  12.427
84541W        W49768   6.641  15.106   2.229
84542W        W49769   8.229  16.177   1.934
84543W        W49770   9.472   1.046  14.328
84544W        W49771  17.248  19.325   3.596
84545W        W49772   8.465  28.613   4.817
84546W        W49773  27.178  13.978   0.696
84547W        W49774   0.252  42.310  13.518
84548W        W49775  18.618  33.821  14.497
84549W        W49776   7.372  24.121   3.061
84550W        W49777  17.173  43.269   0.233
84551W        W49778   3.664  20.763  11.485
84552W        W49779  10.219   9.911   0.278
84553W        W49780  44.924  31.018   4.076
84554W        W49781  29.928   3.923  13.061
84555W        W49782  17.368  33.840   0.707
84556W        W49783   6.885   1.420  11.911
84557W        W49784  13.203   8.268  13.300
84558W        W49785  23.604  43.275   3.130
84559W        W49786   3.328  12.338   4.410
84560W        W49787   5.033  24.198  13.969
84561W        W49788  22.573  43.752  13.810
84562W        W49789  23.855  41.837   3.314
84563W        W49790   2.803  44.333   4.992
84564W        W49791  36.457  19.038  11.200
84565W        W49792  39.912  21.954   1.784
84566W        W49793  17.730  34.107   0.430
84567W        W49794  13.805  19.604   0.820
84568W        W49795  24.923  17.134  14.578
84569W        W49796  22.168  29.333  12.949
84570W        W49797  22.803   4.228  13.766
84571W        W49798  20.315  25.958   1.852
84572W        W49799  31.235  12.801  10.222
84573W        W49800  25.647  40.028   2.889
84574W        W49801   0.016  10.689  14.215
84575W        W49802  27.064   7.732   3.858
84576W        W49803   7.866  25.015  13.384
84577W        W49804  21.147   4.842   0.513
84578W        W49805  33.464  11.268  12.455
84579W        W49806  11.104  23.652   4.391
84580W        W49807  31.189  38.898   1.966
84581W        W49808   2.023   2.919  12.955
84582W        W49809   5.130   7.256   3.116
84583W        W49810   8.371  14.405  10.704
84584W        W49811  41.768  19.090   4.671
84585W        W49812  32.977  21.821  13.923
84586W        W49813  25.432  25.175   1.814
84587W        W49814  10.184  24.005  14.834
84588W        W49815   7.189  23.617  10.896
84589W        W49816  17.463  29.728  11.284
84590W        W49817   5.727  38.900   2.401
84591W        W49818  15.026  36.795   1.230
84592W        W49819  22.676  43.872   4.363
84593W        W49820  13.070  15.693  14.877
84594W        W49821   6.880  40.481   4.830
84595W        W49822  42.567  32.908  14.349
84596W        W49823   1.879   3.946  11.118
84597W        W49824  13.568  38.398  12.444
84598W        W49825  44.785  40.111   2.385
84599W        W49826  18.858  20.750   3.136
84600W        W49827  29.115  22.092   0.881
84601W        W49828  25.605   9.501  14.079
84602W        W49829  17.584  37.270   2.944
84603W        W49830  18.337  16.523   1.308
84604W        W49831  21.121  30.070  11.004
84605W        W49832   3.222  19.046  14.888
84606W        W49833  15.055  34.463  11.926
84607W        W49834  37.988  25.479  12.621
84608W        W49835  15.623  26.405   3.772
84609W        W49836  10.013  20.070   4.241
84610W        W49837   8.766  39.564   1.337
84611W        W49838  15.312  23.046   3.290
84612W        W49839   5.929  17.659  13.913
84613W        W49840   8.710   8.961   4.453
84614W        W49841   7.976  37.980   3.214
84615W        W49842  44.473  15.195   4.402
84616W        W49843   8.358  41.064   3.697
84617W        W49844  32.334   4.059  11.105
84618W        W49845  15.790   5.830  11.179
84619W        W49846  43.445  26.709  14.007
84620W        W49847  17.366  22.776   1.343
84621W        W49848  13.338   7.332   1.251
84622W        W49849  20.002  17.612   3.234
84623W        W49850   4.503  38.661   0.796
84624W        W49851  34.460   9.578  11.222
84625W        W49852  35.851  25.111   0.752
84626W        W49853  24.218  33.407  12.475
84627W        W49854  37.261   8.096   3.716
84628W        W49855  35.496  26.886  10.448
84629W        W49856  37.896  18.733   3.402
84630W        W49857  38.154  11.306  14.893
84631W        W49858  25.434   5.414   4.884
84632W        W49859  10.312  27.044   3.493
84633W        W49860  28.647   5.463  13.029
84634W        W49861   1.569   3.289   3.774
84635W        W49862  19.064  41.886  14.458
84636W        W49863  10.255  11.038   3.725
84637W        W49864  10.247  24.669  14.249
84638W        W49865  40.841  14.106  11.111
84639W        W49866  10.217   1.914  10.728
84640W        W49867  13.263  35.970   5.572
84641W        W49868   7.274  21.548  11.654
84642W        W49869  30.713  12.545  11.822
84643W        W49870  39.122  28.424   1.193
84644W        W49871  19.792   1.180   3.743
84645W        W49872   8.155   4.813  13.393
84646W        W49873  37.159  29.408   2.806
84647W        W49874  28.022  10.912   2.852
84648W        W49875  19.562  38.116   2.271
84649W        W49876  32.567  25.696  13.151
84650W        W49877  31.905  44.836   0.356
84651W        W49878  31.337  13.844  11.766
84652W        W49879   0.943  35.174   4.644
84653W        W49880  37.988   1.961  11.148
84654W        W49881  33.113  32.868   4.068
84655W        W49882   0.419  15.974   0.014
84656W        W49883  43.746  12.880   3.210
84657W        W49884  24.734  42.541   0.101
84658W        W49885  19.768   2.738   4.776
84659W        W49886  25.620  31.431  11.020
84660W        W49887  35.849  21.612   1.205
84661W        W49888  16.326  29.358  13.411
84662W        W49889  25.507   7.405  14.078
84663W        W49890  39.252  32.445   4.213
84664W        W49891  17.558  44.792   1.762
84665W        W49892  38.074  26.225  14.288
84666W        W49893  26.922  29.989   2.217
84667W        W49894  25.057  26.175  11.383
84668W        W49895  43.454  25.583   4.459
84669W        W49896  44.865   7.900   1.917
84670W        W49897  41.999  37.090  13.459
84671W        W49898  23.678   6.288   4.650
84672W        W49899  43.808  12.317   1.649
84673W        W49900  40.008   8.260  11.055
84674W        W49901  26.415  14.121   1.194
84675W        W49902   7.613  10.765  14.424
84676W        W49903  12.592  17.299  14.316
84677W        W49904  44.987  21.673   1.031
84678W        W49905   9.415  19.186   5.636
84679W        W49906   3.222   1.332  14.441
84680W        W49907  10.660  16.307   4.037
84681W        W49908  25.254  35.935  12.583
84682W        W49909  37.550   8.923   2.696
84683W        W49910  27.116  13.689   0.265
84684W        W49911  17.802  30.707   1.236
84685W        W49912   6.785   8.611   0.381
84686W        W49913  34.117  27.644   1.296
84687W        W49914   8.705  37.854  12.359
84688W        W49915  41.601  30.041   1.193
84689W        W49916   7.425  17.459  13.389
84690W        W49917  35.813  21.274   2.808
84691W        W49918  33.528  35.139   1.397
84692W        W49919  14.866   7.317  12.928
84693W        W49920  22.124  20.276   2.273
84694W        W49921  10.931  28.623   3.614
84695W        W49922  12.798  12.116   3.531
84696W        W49923   5.973  29.939  10.702
84697W        W49924   9.238   6.901   2.377
84698W        W49925  25.169  40.877   4.198
84699W        W49926  33.443  27.163  12.078
84700W        W49927  38.832  34.155   4.412
84701W        W49928  43.197  23.678   4.341
84702W        W49929  26.520  24.008   1.805
84703W        W49930  41.962  21.984   2.561
84704W        W49931   4.871   8.675   5.112
84705W        W49932  18.738   4.597  11.163
84706W        W49933  26.626  28.529  11.592
84707W        W49934  31.908  32.966   2.328
84708W        W49935  23.199  28.282  11.554
84709W        W49936   3.102  25.275   1.361
84710W        W49937  24.424  32.880  12.610
84711W        W49938  30.202  29.886  13.423
84712W        W49939  39.015   3.322  13.279
84713W        W49940   4.578   5.054  14.462
84714W        W49941  37.498  32.836   3.084
84715W        W49942  43.079   4.494  13.533
84716W        W49943  31.925  11.667   0.943
84717W        W49944  35.452  22.454   1.726
84718W        W49945  19.655  12.923  12.001
84719W        W49946  19.906  41.032   2.169
84720W        W49947  44.780  36.025  10.752
84721W        W49948   4.898  34.553   3.373
84722W        W49949  11.388  25.693   0.472
84723W        W49950  35.874  20.830   0.367
84724W        W49951  18.231   6.885  13.962
84725W        W49952  33.278  41.009  12.446
84726W        W49953  39.075  42.766  13.908
84727W        W49954  37.793  38.939  10.731
84728W        W49955   8.270  25.727  10.456
84729W        W49956  13.654  22.298  10.482
84730W        W49957  20.374  14.656   4.501
84731W        W49958   5.494  42.030   4.109
84732W        W49959   6.661   6.610   4.153
84733W        W49960  39.311   5.433   0.762
84734W        W49961  24.987   3.884   2.800
84735W        W49962  25.136  33.860  11.946
84736W        W49963  24.625  22.568   0.019
84737W        W49964   3.673  37.702  12.601
84738W        W49965   0.006  37.805   2.718
84739W        W49966  41.527  24.940   0.822
84740W        W49967   8.876   9.455  14.533
84741W        W49968  30.557  20.205   1.236
84742W        W49969  10.308  28.441   1.748
84743W        W49970   2.680  17.062  12.378
84744W        W49971  31.136  23.306  14.409
84745W        W49972   9.842  25.765   0.212
84746W        W49973  36.958   4.828   4.689
84747W        W49974   6.708  12.264  13.525
84748W        W49975  18.250   1.776   4.431
84749W        W49976   0.438  30.394   1.722
84750W        W49977  22.528   4.653  13.888
84751W        W49978   5.652  19.668  13.153
84752W        W49979  12.438   5.961   2.930
84753W        W49980   0.749  35.031   2.051
84754W        W49981   3.468  25.472   3.168
84755W        W49982  13.896  42.435   3.917
84756W        W49983   7.290  36.340   2.639
84757W        W49984   6.915  25.485   2.704
84758W        W49985   2.767  37.254   3.958
84759W        W49986  11.406   0.398  11.234
84760W        W49987   7.926  28.604  10.498
84761W        W49988  16.354  36.919  14.933
84762W        W49989  13.182  33.271   0.328
84763W        W49990  34.781  10.085   4.175
84764W        W49991  19.361   3.414   2.194
84765W        W49992   6.652  34.935  11.142
84766W        W49993  44.242   8.131   1.311
84767W        W49994  38.844  36.447   0.811
84768W        W49995  29.103  29.790   1.785
84769W        W49996  30.338   6.256   3.150
84770W        W49997  32.975  36.686  13.829
84771W        W49998  11.275  12.414  14.627
84772W        W49999  15.219  30.003  11.017
84773W        W50000  37.847  37.653   2.307
84774W        W50001  41.579  23.679  10.708
84775W        W50002  44.717  24.207  13.957
84776W        W50003  41.273  12.798   1.241
84777W        W50004  33.502  39.873   3.681
84778W        W50005  44.563  20.417   2.329
84779W        W50006   2.296  22.762   4.410
84780W        W50007  44.342  19.737   0.755
84781W        W50008  44.395   2.919  14.589
84782W        W50009   8.855  43.570  10.734
84783W        W50010  22.265   3.957  11.317
84784W        W50011  30.982  42.355   4.626
84785W        W50012  29.252  17.536   0.186
84786W        W50013   2.301  13.858   3.756
84787W        W50014  14.693  20.550   3.334
84788W        W50015  28.349  19.125  10.725
84789W        W50016   5.385  13.732  12.446
84790W        W50017   4.604  27.226   0.922
84791W        W50018   6.284  32.663  12.921
84792W        W50019   2.793   3.969   2.885
84793W        W50020   3.214  32.350  11.688
84794W        W50021  17.526   1.909  11.927
84795W        W50022  15.777  16.893   4.665
84796W        W50023   4.769  21.052   4.771
84797W        W50024  30.644  41.962   4.562
84798W        W50025  16.123  29.868  14.173
84799W        W50026   5.782  27.016   3.294
84800W        W50027   7.273  25.990  10.702
84801W        W50028   7.400  20.783   0.306
84802W        W50029  17.655   2.402   4.271
84803W        W50030  16.651  30.725  14.331
84804W        W50031  37.887   8.453   1.690
84805W        W50032  33.896   7.796   2.221
84806W        W50033  15.798  16.168  13.641
84807W        W50034  16.094  26.559   2.887
84808W        W50035  14.156  28.721  12.530
84809W        W50036  44.101  19.101  12.921
84810W        W50037  26.548  23.487   3.263
84811W        W50038  36.424  44.108  13.910
84812W        W50039  41.156  40.539   0.750
84813W        W50040  11.759  10.766   2.161
84814W        W50041  39.330  10.825   0.931
84815W        W50042  43.915  28.477  11.071
84816W        W50043  15.103  11.152  11.645
84817W        W50044   0.243   6.196   0.509
84818W        W50045   9.616  16.753  13.837
84819W        W50046  23.220  28.624  12.999
84820W        W50047  13.147  19.259   1.153
84821W        W50048  26.179  26.596  13.376
84822W        W50049   9.591  32.410  14.393
84823W        W50050  24.902  20.177  11.235
84824W        W50051  43.361  21.252  14.476
84825W        W50052  39.749  29.428  12.443
84826W        W50053   2.955  18.625  13.861
84827W        W50054  18.862  31.052  14.482
84828W        W50055  39.644  42.575   0.621
84829W        W50056  22.198  32.193  14.646
84830W        W50057  40.412  22.694  14.269
84831W        W50058  41.802  29.003  12.623
84832W        W50059   1.632  42.698   2.437
84833W        W50060   4.917  33.338  14.902
84834W        W50061  19.826  18.580  14.768
84835W        W50062  32.170  37.601  12.986
84836W        W50063  21.866  22.342  11.028
84837W        W50064   8.635  18.755  14.039
84838W        W50065  41.886   9.438   0.288
84839W        W50066  25.470  15.756  14.451
84840W        W50067  13.650  15.188   3.409
84841W        W50068   7.561   9.148  12.850
84842W        W50069  39.981  41.106   0.799
84843W        W50070  18.508   2.382  12.483
84844W        W50071   7.220  10.666  13.910
84845W        W50072  38.740  19.724   1.835
84846W        W50073  17.707  26.213   2.138
84847W        W50074  41.474  25.635  13.839
84848W        W50075  39.854  36.109  13.585
84849W        W50076  24.943  43.230  14.975
84850W        W50077  26.790   6.534   1.631
84851W        W50078  15.150  10.199  14.805
84852W        W50079  44.830  31.367  11.566
84853W        W50080  11.005  13.810   4.519
84854W        W50081   9.406  29.653   2.403
84855W        W50082  13.911  38.511  14.803
84856W        W50083  24.924   8.936   2.582
84857W        W50084   3.665  16.975   0.760
84858W        W50085  35.023  40.515   4.444
84859W        W50086  35.027  18.512   4.791
84860W        W50087  19.740   8.397  12.588
84861W        W50088  31.558  15.833  14.783
84862W        W50089  10.235  13.740  11.488
84863W        W50090  15.755  35.408  12.400
84864W        W50091  11.599  30.423   2.696
84865W        W50092  27.427  26.795  11.029
84866W        W50093  13.758  42.034   0.573
84867W        W50094  13.151  28.386   1.613
84868W        W50095  20.120  20.896  12.454
84869W        W50096  16.842   4.185  11.146
84870W        W50097  20.241  14.827   3.719
84871W        W50098  35.905   6.498   5.036
84872W        W50099  31.333  19.081   3.744
84873W        W50100  21.170  12.335  14.948
84874W        W50101  17.591   8.266   2.823
84875W        W50102  24.252  26.915   0.212
84876W        W50103  17.324  12.798   2.624
84877W        W50104  36.900  40.035  11.047
84878W        W50105  20.522  19.686   2.145
84879W        W50106  32.707  28.613  12.965
84880W        W50107   1.696  42.532  13.941
84881W        W50108  29.134  18.060   0.917
84882W        W50109  14.224  26.701   3.637
84883W        W50110  40.483   8.328  11.293
84884W        W50111  44.767   5.320  10.983
84885W        W50112   6.098   1.424  10.813
84886W        W50113  34.634  36.829   2.115
84887W        W50114   2.238   6.762  14.898
84888W        W50115  35.049  10.237   2.435
84889W        W50116  44.417  14.540   4.073
84890W        W50117  15.397  14.649   1.321
84891W        W50118  17.345  13.133  13.141
84892W        W50119  20.419  40.644   3.725
84893W        W50120   0.221  37.004   3.640
84894W        W50121  23.935  14.690  12.858
84895W        W50122  16.749   9.330   2.885
84896W        W50123  30.892  29.602   3.583
84897W        W50124  20.110  22.947   0.780
84898W        W50125  15.322  41.063  14.552
84899W        W50126  15.436  44.833  12.313
84900W        W50127  39.412  42.846  11.732
84901W        W50128   9.383   2.206   0.360
84902W        W50129   2.338  31.932   1.952
84903W        W50130  13.272  40.380  11.599
84904W        W50131  22.008  12.074   1.205
84905W        W50132  37.465   1.480  12.420
84906W        W50133  20.945  40.499  11.100
84907W        W50134   4.928  19.217  10.580
84908W        W50135  20.643  25.213   3.764
84909W        W50136   9.745   0.254  11.568
84910W        W50137  39.008  36.142  11.422
84911W        W50138  33.994  35.894   3.771
84912W        W50139  25.586   8.228  12.943
84913W        W50140   5.757  35.609  12.410
84914W        W50141   2.390  26.778  14.458
84915W        W50142   2.864  10.048  11.937
84916W        W50143  10.467  40.417  12.689
84917W        W50144   6.770  35.036   0.347
84918W        W50145  34.137  32.528   3.165
84919W        W50146  42.564  44.923  11.578
84920W        W50147  37.789  19.133  11.525
84921W        W50148   5.261  28.589   4.650
84922W        W50149  33.802  44.654   3.234
84923W        W50150  41.269  23.531  13.848
84924W        W50151  26.116  39.934   3.132
84925W        W50152  35.342  39.796  11.556
84926W        W50153  34.496  17.308  11.681
84927W        W50154  36.061  36.090  12.013
84928W        W50155   7.790  43.438  13.492
84929W        W50156  30.469  12.401   4.984
84930W        W50157  24.191  13.599   1.880
84931W        W50158  41.697  15.944   3.670
84932W        W50159  22.006  36.861  14.089
84933W        W50160   4.444   3.168   0.668
84934W        W50161   1.197  15.263  13.551
84935W        W50162   0.911   8.599  14.568
84936W        W50163  40.584  38.589   2.175
84937W        W50164  19.690  24.889  14.856
84938W        W50165  38.527  22.771  11.169
84939W        W50166  23.739   8.600  11.269
84940W        W50167   9.790  40.612   3.576
84941W        W50168  31.858  31.959   2.885
84942W        W50169  11.823  17.304   4.105
84943W        W50170  10.924  22.191  14.361
84944W        W50171  20.268  24.505  12.505
84945W        W50172  39.017  10.302  12.205
84946W        W50173  29.995   6.697  10.709
84947W        W50174   0.603  21.085   3.899
84948W        W50175   2.481   6.226   1.944
84949W        W50176  17.558  28.056  13.259
84950W        W50177  12.586  13.218   2.599
84951W        W50178  36.959   0.616   2.762
84952W        W50179   8.750  26.723  12.497
84953W        W50180  22.261  18.238   2.400
84954W        W50181   1.483  27.529   3.244
84955W        W50182   6.411  29.725  10.489
84956W        W50183   1.570  44.320   0.987
84957W        W50184  14.708  28.877  10.318
84958W        W50185  18.018  34.755   0.951
84959W        W50186  21.820   8.303   2.849
84960W        W50187   3.406   7.830   0.715
84961W        W50188  20.118  16.346   3.655
84962W        W50189  39.342   5.121  11.457
84963W        W50190  26.904  28.704  11.182
84964W        W50191  30.916  23.515  13.515
84965W        W50192  33.130  33.618   3.028
84966W        W50193  38.512  21.604   4.022
84967W        W50194  32.414  16.506   2.656
84968W        W50195  25.988  36.944  11.302
84969W        W50196   3.934  22.592   4.743
84970W        W50197  37.787   2.432  13.165
84971W        W50198  14.539   1.613  14.915
84972W        W50199  23.750  42.342   2.787
84973W        W50200  19.803  37.487   4.689
84974W        W50201  14.854  44.831   3.339
84975W        W50202  21.509  41.104  13.935
84976W        W50203  33.161  22.296  11.937
84977W        W50204  36.881   6.768   1.784
84978W        W50205   0.144  25.777  12.259
84979W        W50206  38.584  11.015   0.019
84980W        W50207   4.196  22.616  12.367
84981W        W50208  40.904  22.280  11.009
84982W        W50209  13.249  20.188   3.373
84983W        W50210  23.184  33.389  11.152
84984W        W50211   8.318  12.156  14.972
84985W        W50212  27.498  44.089   0.443
84986W        W50213  36.643  23.252  11.021
84987W        W50214   7.331  21.578   1.850
84988W        W50215  22.610  34.624  12.104
84989W        W50216  31.523  13.113   2.740
84990W        W50217   0.752  22.714   0.778
84991W        W50218  34.977  26.935  10.595
84992W        W50219   5.244   6.341   4.200
84993W        W50220  23.438   4.885  11.157
84994W        W50221  14.672  19.550   2.195
84995W        W50222  39.156  25.761   4.158
84996W        W50223  31.854  15.138   3.355
84997W        W50224  38.282  19.270  11.392
84998W        W50225  43.252   5.642  11.555
84999W        W50226  38.296  23.799   2.142
85000W        W50227   3.296  28.985   0.479
85001W        W50228  19.604  11.349   1.906
85002W        W50229  13.667  13.288   0.812
85003W        W50230  20.204  13.490  14.965
85004W        W50231   8.870  14.612   3.644
85005W        W50232   2.798  38.279   2.889
85006W        W50233  15.853  19.601  10.799
85007W        W50234  23.163  30.591   2.751
85008W        W50235  39.934  35.941   3.740
85009W        W50236   3.846   7.860  12.923
85010W        W50237  41.390  10.708   2.327
85011W        W50238  12.030   8.470   3.810
85012W        W50239   7.851  34.861   3.766
85013W        W50240   7.948  15.773   1.246
85014W        W50241  13.385  31.256  13.836
85015W        W50242  13.456  19.667   1.242
85016W        W50243  32.861  25.980   0.293
85017W        W50244  40.854  15.591   4.559
85018W        W50245  34.864  40.300  14.592
85019W        W50246  21.974  37.391   1.859
85020W        W50247   6.508  36.347  12.545
85021W        W50248  23.025  42.518   2.386
85022W        W50249  25.098  35.159  14.921
85023W        W50250   3.180  44.413  13.521
85024W        W50251  27.202  21.844  13.917
85025W        W50252  32.668  12.843  10.720
85026W        W50253  28.161   3.368   1.027
85027W        W50254  41.395   5.221   0.321
85028W        W50255  12.741  24.871   0.009
85029W        W50256  42.258  24.122   0.644
85030W        W50257  13.603  35.644  13.761
85031W        W50258  14.429  14.330  14.448
85032W        W50259  41.265   7.112  13.870
85033W        W50260   0.847  31.378  12.523
85034W        W50261  19.722  42.877   0.511
85035W        W50262   7.488  12.364  14.699
85036W        W50263  36.903  36.089   4.119
85037W        W50264  22.568  17.230   5.010
85038W        W50265  17.792   2.253  10.624
85039W        W50266   9.875  22.647   0.628
85040W        W50267  33.419   7.121   2.806
85041W        W50268   9.070  28.058  14.989
85042W        W50269   1.439  27.889  11.977
85043W        W50270   5.729   8.239  12.750
85044W        W50271  27.239  25.985   3.294
85045W        W50272  13.896  15.617  14.016
85046W        W50273  38.976  18.203  13.509
85047W        W50274  33.925  22.586  13.389
85048W        W50275   5.960  13.514  14.191
85049W        W50276  42.505  39.479  11.946
85050W        W50277  28.050  34.336  13.375
85051W        W50278  31.687   6.778   4.528
85052W        W50279  24.481  39.531  12.858
85053W        W50280  11.791  11.178  12.057
85054W        W50281  37.865   4.415   0.386
85055W        W50282   6.208  37.507  13.355
85056W        W50283  39.517   1.387   4.546
85057W        W50284  19.177  16.491   2.233
85058W        W50285  36.070  11.952   2.309
85059W        W50286  38.553   2.227  13.836
85060W        W50287   1.937  14.733   2.701
85061W        W50288  39.977  13.767  13.471
85062W        W50289  36.383  28.913   1.425
85063W        W50290  24.710   9.814   2.812
85064W        W50291  39.318   7.147  14.823
85065W        W50292   1.381  11.790  13.785
85066W        W50293  31.621  10.219   0.656
85067W        W50294  41.038   9.408  13.047
85068W        W50295  13.575   4.943   3.210
85069W        W50296   3.510  38.668  14.783
85070W        W50297  30.940   2.693   3.628
85071W        W50298  44.420   6.188  14.335
85072W        W50299  39.686   3.733   2.284
85073W        W50300  13.417  42.364  12.400
85074W        W50301   6.353  43.901  12.277
85075W        W50302  15.821  22.112   0.988
85076W        W50303  20.101  34.024  11.634
85077W        W50304  16.260   9.081  10.558
85078W        W50305  33.646  26.916  11.611
85079W        W50306  32.306  39.877  11.442
85080W        W50307   5.999  38.630   2.790
85081W        W50308  23.751   2.488   5.043
85082W        W50309  30.078  42.465  12.420
85083W        W50310  16.686   8.123   2.857
85084W        W50311  43.429  31.311  14.476
85085W        W50312  16.093   7.874  12.550
85086W        W50313   5.459   9.810  14.925
85087W        W50314  31.353  10.177  11.117
85088W        W50315  32.887  20.660   0.957
85089W        W50316   1.579  16.568  12.214
85090W        W50317   6.665  29.702   0.692
85091W        W50318  10.839  26.168  13.489
85092W        W50319   9.612   5.485  11.115
85093W        W50320   3.169  16.772  11.440
85094W        W50321   2.134   6.471   4.382
85095W        W50322  39.526  34.381   3.194
85096W        W50323  10.429   9.949  14.270
85097W        W50324  31.085  27.085   1.979
85098W        W50325  35.544  37.770  14.918
85099W        W50326  12.385  39.831  14.482
85100W        W50327  29.581  36.951   4.999
85101W        W50328  13.619  42.909  12.965
85102W        W50329   8.445  20.653  12.599
85103W        W50330  41.393   1.902  12.205
85104W        W50331  25.698  38.509  11.740
85105W        W50332  40.331  21.604   1.773
85106W        W50333  28.537  31.123   4.296
85107W        W50334  33.190  21.070  13.320
85108W        W50335  40.694   7.783  13.928
85109W        W50336  20.350  12.172  13.429
85110W        W50337   9.293  26.266  11.655
85111W        W50338  31.098   5.850  12.442
85112W        W50339   3.258  21.539   2.914
85113W        W50340  39.840  10.714  14.288
85114W        W50341  44.812   8.808   1.696
85115W        W50342   5.914  14.621  12.595
85116W        W50343  14.249   1.371   2.815
85117W        W50344  28.074   0.260  14.877
85118W        W50345  34.886  21.720   2.180
85119W        W50346  32.682  43.030   0.055
85120W        W50347   6.190  11.488   3.349
85121W        W50348  42.191  33.099  12.346
85122W        W50349  15.124   2.454  10.585
85123W        W50350   5.859  12.269  12.629
85124W        W50351  34.306  37.242  12.010
85125W        W50352  24.564   1.749  12.866
85126W        W50353   5.042  26.090  12.872
85127W        W50354  23.677  21.574  11.508
85128W        W50355  29.721  27.225   2.047
85129W        W50356  11.765  32.704  11.527
85130W        W50357  40.983  32.428   3.746
85131W        W50358  29.573  18.052  12.066
85132W        W50359   5.788  23.277   3.363
85133W        W50360  30.155  18.141  13.087
85134W        W50361  31.641  16.751  11.164
85135W        W50362  18.108  16.373   1.734
85136W        W50363  38.860  30.913  13.993
85137W        W50364  37.344  31.678  13.314
85138W        W50365  40.799   2.932  13.472
85139W        W50366  22.548  43.483   4.688
85140W        W50367  14.220  15.149  11.139
85141W        W50368  30.840  22.963  14.789
85142W        W50369   7.444  36.054  12.451
85143W        W50370  10.223  29.596  13.462
85144W        W50371  18.542  21.202   5.001
85145W        W50372   8.642  31.495  14.770
85146W        W50373  40.661  17.281  12.654
85147W        W50374  25.901  31.085  13.366
85148W        W50375  11.397  44.294   0.106
85149W        W50376  38.930  24.752   0.535
85150W        W50377   9.089  25.623   4.159
85151W        W50378  43.497  22.258  12.354
85152W        W50379   6.216  19.761  12.477
85153W        W50380   1.816  44.442   5.220
85154W        W50381  21.927  26.529  11.134
85155W        W50382  35.532  40.781  12.864
85156W        W50383  36.658  11.673   4.627
85157W        W50384  13.388  18.899   1.479
85158W        W50385  28.440  25.011   2.123
85159W        W50386   4.408   2.662  13.795
85160W        W50387  16.683   8.685  13.578
85161W        W50388   8.202  39.762   3.660
85162W        W50389  24.959   4.851   0.934
85163W        W50390  43.694   3.849   1.326
85164W        W50391  15.488  34.427  13.492
85165W        W50392  40.379  13.032   0.288
85166W        W50393   0.652   1.650  10.631
85167W        W50394  17.630   4.580   0.871
85168W        W50395  43.835  42.381  11.387
85169W        W50396  30.560  27.446  13.887
85170W        W50397  35.961   7.678  12.473
85171W        W50398  30.095   6.227   2.456
85172W        W50399  28.543  29.161  11.055
85173W        W50400  19.014  13.519   2.898
85174W        W50401   7.798  29.428  10.909
85175W        W50402  21.166   9.662  13.411
85176W        W50403  26.522  13.014  13.079
85177W        W50404  16.278  28.688   2.498
85178W        W50405   7.078  27.239  14.972
85179W        W50406  27.709  29.176  11.911
85180W        W50407   8.428  40.731   0.297
85181W        W50408  14.006  12.716  14.321
85182W        W50409   8.952   4.889  14.493
85183W        W50410  14.168  24.634   0.264
85184W        W50411   8.062  28.849   1.050
85185W        W50412  36.158  22.513  11.533
85186W        W50413   1.281   2.377  14.680
85187W        W50414   5.715   0.440   4.103
85188W        W50415  16.280  32.584  11.555
85189W        W50416  28.163   9.092   4.097
85190W        W50417  20.150  29.591  14.957
85191W        W50418  39.603  14.958  14.351
85192W        W50419  42.406   9.389   1.949
85193W        W50420  28.019  15.578   4.040
85194W        W50421  41.740  42.346   1.497
85195W        W50422  14.726  44.257   4.535
85196W        W50423  15.372   4.515   3.632
85197W        W50424  25.498  13.983   0.091
85198W        W50425  29.704  29.696   2.454
85199W        W50426  33.167  30.108  11.925
85200W        W50427  12.131  12.340  14.124
85201W        W50428  30.046  18.147   2.420
85202W        W50429   8.965  28.534  13.414
85203W        W50430   1.688  29.545  11.789
85204W        W50431   9.764   4.597  10.706
85205W        W50432   6.219   1.325   2.810
85206W        W50433  39.016  32.010  13.397
85207W        W50434  22.383  28.181  14.762
85208W        W50435   3.777  35.792   2.444
85209W        W50436  37.867  31.518   2.289
85210W        W50437  12.889  39.769  13.507
85211W        W50438  27.350  27.239  10.729
85212W        W50439   8.720  38.233  11.625
85213W        W50440  33.933  44.094  11.157
85214W        W50441  10.160  32.143  12.893
85215W        W50442   8.199  28.670  14.048
85216W        W50443  34.051  36.549   0.395
85217W        W50444  26.423  13.557   3.440
85218W        W50445   2.598  11.829  12.016
85219W        W50446  20.438   2.483   2.612
85220W        W50447  17.308  20.983  14.503
85221W        W50448  11.850  41.339   4.945
85222W        W50449  14.694  41.480   0.764
85223W        W50450  18.570  37.533  14.318
85224W        W50451  41.719  23.874   1.900
85225W        W50452  44.776   5.804   3.754
85226W        W50453  12.498  26.672   3.231
85227W        W50454  40.729   1.757  12.523
85228W        W50455  18.616  15.295   4.203
85229W        W50456   5.691  18.865  11.682
85230W        W50457   4.847  19.887  12.847
85231W        W50458  34.490  36.495  14.544
85232W        W50459   9.871  24.430  14.774
85233W        W50460  23.644  35.998  11.525
85234W        W50461  11.791  25.072   3.596
85235W        W50462   4.834  33.988   4.952
85236W        W50463  35.654  14.099   1.708
85237W        W50464  25.131  37.212   5.048
85238W        W50465  39.809  36.511  13.232
85239W        W50466  24.211  24.482   4.544
85240W        W50467  14.741  26.305  12.877
85241W        W50468   1.189  17.767   2.658
85242W        W50469  15.247  28.472  12.918
85243W        W50470   6.392   4.404   1.140
85244W        W50471   7.385   5.355   2.287
85245W        W50472  35.340  12.856  11.519
85246W        W50473  33.860   4.657  13.894
85247W        W50474  21.067  39.259   2.803
85248W        W50475  28.960  37.537  10.773
85249W        W50476  30.900  43.184  14.858
85250W        W50477  33.959   0.261  12.914
85251W        W50478  28.415  42.460  11.581
85252W        W50479  14.255  21.570  12.609
85253W        W50480  18.028  37.283  11.459
85254W        W50481  16.095   7.274   0.297
85255W        W50482  38.353  40.521   4.783
85256W        W50483  16.535  32.353  11.957
85257W        W50484  42.780   0.793  11.751
85258W        W50485  28.841   2.221  10.912
85259W        W50486  25.872  42.128  11.126
85260W        W50487  31.690  44.341  13.574
85261W        W50488   5.534  19.771  10.888
85262W        W50489  13.494  24.206  14.855
85263W        W50490  19.141   0.775  10.792
85264W        W50491   5.890  35.110  14.840
85265W        W50492  31.922   7.169  11.688
85266W        W50493  14.795  14.277   2.649
85267W        W50494   3.408  29.113   0.965
85268W        W50495  23.371  41.364  12.411
85269W        W50496  40.389   7.367  12.999
85270W        W50497  25.882  12.765   4.233
85271W        W50498  20.314  20.161   3.159
85272W        W50499   9.460  21.035  13.281
85273W        W50500  16.090   3.971  13.381
85274W        W50501   4.464  36.859   2.744
85275W        W50502  37.781  33.897   3.721
85276W        W50503   2.747   2.107   3.863
85277W        W50504  23.693  41.211  14.357
85278W        W50505   6.244   0.436  12.086
85279W        W50506  17.114  10.828   4.090
85280W        W50507  28.286  20.739  12.023
85281W        W50508  20.781  20.571   4.788
85282W        W50509  23.196  26.038   2.360
85283W        W50510  15.290  15.562   2.977
85284W        W50511  44.281  16.740   1.386
85285W        W50512   7.840  39.269   0.123
85286W        W50513  14.650  32.085  14.743
85287W        W50514  39.291   5.874   2.997
85288W        W50515  10.801  25.655   4.119
85289W        W50516  26.973  42.493  11.224
85290W        W50517  24.770   6.697   0.936
85291W        W50518  37.862  29.150  11.545
85292W        W50519  44.553  32.296   2.244
85293W        W50520   9.915  42.719   0.931
85294W        W50521  12.694  24.659  14.528
85295W        W50522   4.136  20.652  13.419
85296W        W50523  27.734  10.743   1.865
85297W        W50524  13.832  27.961   1.237
85298W        W50525   8.211  19.727   3.400
85299W        W50526  21.079  22.755   0.657
85300W        W50527   9.307  28.209   4.232
85301W        W50528  29.075  30.899   3.012
85302W        W50529  43.014  35.017   2.287
85303W        W50530  17.599   1.027   3.091
85304W        W50531  30.064  31.879   3.435
85305W        W50532   2.349  38.997  11.459
85306W        W50533  13.098  35.572  13.756
85307W        W50534  12.756  37.269   1.217
85308W        W50535  26.516  33.324  13.996
85309W        W50536   7.632  41.919  12.436
85310W        W50537  32.574  14.319   9.894
85311W        W50538  40.567   2.484  12.330
85312W        W50539  36.850  13.110  14.954
85313W        W50540  14.474  11.323  10.002
85314W        W50541  33.860  12.072  13.030
85315W        W50542  12.226  17.675  14.826
85316W        W50543  42.799  39.265   4.154
85317W        W50544  18.638  34.024   3.405
85318W        W50545  33.262  36.336   3.551
85319W        W50546  22.533  43.760   3.236
85320W        W50547   2.908  37.387   4.447
85321W        W50548  43.153   6.117   0.944
85322W        W50549  42.342  15.840   4.629
85323W        W50550  25.719  38.747   4.703
85324W        W50551  35.323   5.447  13.073
85325W        W50552   6.256  15.637   0.780
85326W        W50553   2.376  35.904   1.650
85327W        W50554   3.321  14.038  10.800
85328W        W50555  22.425  20.305   4.183
85329W        W50556  39.732  26.570   4.211
85330W        W50557  14.718  30.862   1.666
85331W        W50558   4.117  25.810  14.084
85332W        W50559  16.150   7.558   1.683
85333W        W50560  34.984  17.224   4.250
85334W        W50561   6.295  27.643   1.154
85335W        W50562  18.756  23.237  13.262
85336W        W50563  13.161   6.108  14.314
85337W        W50564   9.110  23.968   2.851
85338W        W50565  11.745  35.632  12.937
85339W        W50566  42.102  10.234   4.208
85340W        W50567  15.220  22.591   2.589
85341W        W50568  36.207  38.967   1.913
85342W        W50569  37.950  25.579   1.271
85343W        W50570  39.344  24.057  14.542
85344W        W50571  10.134  31.897  10.159
85345W        W50572  28.586  16.260   1.445
85346W        W50573  33.127   1.689  14.060
85347W        W50574  31.057  21.936   3.255
85348W        W50575  12.307  13.842  14.372
85349W        W50576  40.631  44.337  11.217
85350W        W50577   2.853  26.713   1.011
85351W        W50578   9.428   5.445  12.664
85352W        W50579   0.357  27.795  12.958
85353W        W50580   2.940   8.101  11.499
85354W        W50581   7.855  16.677  12.924
85355W        W50582  42.944  30.968  11.596
85356W        W50583  16.772  17.572  12.422
85357W        W50584  34.313  16.625  14.403
85358W        W50585  25.042  27.749  14.817
85359W        W50586  38.973  42.060  12.545
85360W        W50587   4.725  21.081  12.364
85361W        W50588  31.704  38.392  10.779
85362W        W50589   7.157  10.212  11.401
85363W        W50590  26.797  26.735  12.960
85364W        W50591   7.445  23.188   3.273
85365W        W50592  27.541  40.624  14.365
85366W        W50593  34.184  43.692  10.972
85367W        W50594  20.143  14.064   2.207
85368W        W50595  12.318  38.039   0.021
85369W        W50596  42.027   1.947  11.053
85370W        W50597  18.745  38.284   0.668
85371W        W50598  34.997  32.636  12.235
85372W        W50599  24.355  38.690  11.092
85373W        W50600   6.778  31.706  13.949
85374W        W50601  41.662  32.567   3.251
85375W        W50602  17.678  33.003   1.694
85376W        W50603  44.852  28.625  12.972
85377W        W50604  13.742  32.469   0.533
85378W        W50605  34.726  39.120  12.153
85379W        W50606  12.670  18.321  14.341
85380W        W50607  10.281  13.671   2.302
85381W        W50608  29.017   4.777   2.335
85382W        W50609  12.743  19.839  10.776
85383W        W50610  24.122  43.967   5.106
85384W        W50611  34.736   9.230  12.475
85385W        W50612  30.063  16.426  11.509
85386W        W50613  25.831  41.734   2.126
85387W        W50614   5.454  23.162  12.132
85388W        W50615  10.969  16.267   1.042
85389W        W50616  14.292   3.489  12.950
85390W        W50617  14.243  38.057  11.556
85391W        W50618  37.918  37.764  12.592
85392W        W50619   0.710  36.912  10.458
85393W        W50620  35.781   0.813  13.806
85394W        W50621  44.498  20.273  12.683
85395W        W50622  31.725  23.596  13.179
85396W        W50623  38.208  35.121  11.678
85397W        W50624  15.097  30.924  12.175
85398W        W50625  13.136  15.009   1.101
85399W        W50626  30.149  15.643  11.022
85400W        W50627  26.130  15.780   4.943
85401W        W50628  22.827   0.765   3.081
85402W        W50629   8.828  31.272   2.632
85403W        W50630  36.284  25.135   1.064
85404W        W50631  43.062   6.892   3.678
85405W        W50632  28.315  27.927  13.559
85406W        W50633   0.671   6.244  10.770
85407W        W50634  42.119  14.759  10.970
85408W        W50635  22.222   4.908  10.416
85409W        W50636  25.971  15.837   3.453
85410W        W50637  12.664   0.744   1.376
85411W        W50638  31.496   6.313   4.666
85412W        W50639  13.556  17.299   2.387
85413W        W50640  31.936  16.097  10.304
85414W        W50641  16.903  15.705   0.738
85415W        W50642  32.828  41.486   2.122
85416W        W50643  42.033   3.320   3.292
85417W        W50644  18.042  11.690  12.027
85418W        W50645   4.846  17.225   3.582
85419W        W50646  17.282  42.213  11.133
85420W        W50647  29.389  28.077  13.771
85421W        W50648  30.324  30.867   0.744
85422W        W50649  17.513  32.802  11.889
85423W        W50650  15.234  36.034   0.520
85424W        W50651   9.109  35.338   2.400
85425W        W50652  31.201   3.096   0.436
85426W        W50653   9.153  39.397  13.798
85427W        W50654  30.690   5.477  12.456
85428W        W50655  10.226   7.745   4.566
85429W        W50656  39.120  18.531  12.077
85430W        W50657  42.794  25.162   2.317
85431W        W50658   2.672  21.793   0.500
85432W        W50659  28.584  35.302   2.362
85433W        W50660  43.396   1.986  12.116
85434W        W50661  11.634   8.283  12.587
85435W        W50662   6.989   9.733  12.205
85436W        W50663  35.554   4.861  14.372
85437W        W50664   9.241   3.376  13.896
85438W        W50665   9.660  28.238   0.177
85439W        W50666  22.619  32.905  11.360
85440W        W50667  18.981   4.854  13.798
85441W        W50668  32.993  23.485  11.596
85442W        W50669  42.846  38.506  13.109
85443W        W50670  27.912   8.431  14.311
85444W        W50671  15.057  19.238   4.426
85445W        W50672   0.004  13.047  12.635
85446W        W50673  44.740  33.064  11.598
85447W        W50674  18.818  19.231   3.719
85448W        W50675  18.827  15.086   0.297
85449W        W50676   2.383  30.686   2.686
85450W        W50677  11.734  39.871  10.991
85451W        W50678  30.083  40.133  12.884
85452W        W50679  41.517  37.831   3.293
85453W        W50680   2.832  22.720   3.786
85454W        W50681  38.767  33.746   0.213
85455W        W50682  18.118  23.279  13.882
85456W        W50683   6.788  28.567  13.638
85457W        W50684  26.927  11.619   2.378
85458W        W50685  30.848  11.850  13.367
85459W        W50686  41.525   5.174   0.849
85460W        W50687  20.742  41.993   3.906
85461W        W50688  27.144  12.487   2.849
85462W        W50689  21.096  26.048  10.627
85463W        W50690  44.205   0.605   4.092
85464W        W50691  44.983   5.286  12.015
85465W        W50692  33.640   3.866  14.080
85466W        W50693  32.601  41.609  12.738
85467W        W50694  27.484   2.616  13.633
85468W        W50695  41.622  26.846  11.100
85469W        W50696  36.520   0.816   9.947
85470W        W50697   3.869  22.272   2.839
85471W        W50698  21.064  12.669   1.934
85472W        W50699  33.977  17.580  10.614
85473W        W50700  11.709   4.932  12.989
85474W        W50701  19.480   6.291  14.397
85475W        W50702   9.367  42.002   1.844
85476W        W50703   2.634  40.935  13.258
85477W        W50704  22.641  15.704   2.635
85478W        W50705  41.079  23.800  14.244
85479W        W50706   9.635   6.358   0.556
85480W        W50707  22.250  10.142   0.924
85481W        W50708  20.637  28.116   3.784
85482W        W50709  36.344  41.424   0.343
85483W        W50710  10.367  26.838   5.057
85484W        W50711  22.256   4.758   2.419
85485W        W50712   6.641  17.533   3.661
85486W        W50713   3.774  34.909  11.049
85487W        W50714  11.181  16.537  12.134
85488W        W50715  33.002  23.733   1.818
85489W        W50716  10.302  26.641  14.094
85490W        W50717  25.121  22.978  13.845
85491W        W50718  42.925  23.868  10.666
85492W        W50719  28.592  43.714  14.458
85493W        W50720  23.097   3.856  13.522
85494W        W50721  39.776   0.704  11.665
85495W        W50722  33.636   8.244   2.058
85496W        W50723  10.337  38.881  11.237
85497W        W50724  10.285  39.350   1.252
85498W        W50725  16.832  15.749  14.374
85499W        W50726   9.733  24.758  14.351
85500W        W50727  33.211   0.797  14.912
85501W        W50728  10.340  19.176   3.697
85502W        W50729   4.226  12.343   3.111
85503W        W50730  23.167   4.406   0.894
85504W        W50731  27.380   3.869  13.920
85505W        W50732  31.246  15.632  14.412
85506W        W50733  41.401  34.093  11.072
85507W        W50734  10.943  29.507   4.100
85508W        W50735  32.373  23.074   0.821
85509W        W50736  40.301  23.549   3.819
85510W        W50737   9.457  29.168  12.991
85511W        W50738  43.001  42.585   2.749
85512W        W50739  35.352   0.471   4.622
85513W        W50740  27.865  17.246  13.920
85514W        W50741  28.504  12.631   1.002
85515W        W50742   6.677  38.637   3.726
85516W        W50743  31.945  15.765   0.117
85517W        W50744  26.552   8.360   1.820
85518W        W50745   5.839  44.108   0.936
85519W        W50746  44.599  40.294   4.555
85520W        W50747  44.108  27.617   5.425
85521W        W50748  29.489  13.262  13.455
85522W        W50749   4.035  42.849  14.476
85523W        W50750  39.277   9.688   4.225
85524W        W50751  27.246  15.846  12.071
85525W        W50752  19.225   6.675   2.381
85526W        W50753  18.103  17.589  11.943
85527W        W50754  26.488  31.309  13.907
85528W        W50755  25.015  24.590   2.862
85529W        W50756  23.855  34.182   0.353
85530W        W50757  39.822  39.295  11.433
85531W        W50758  29.951   4.432  13.031
85532W        W50759  28.010  34.958   0.921
85533W        W50760   7.190  35.559   3.746
85534W        W50761  17.748  20.784  10.945
85535W        W50762  20.219  39.086   4.234
85536W        W50763  21.448  32.089  13.080
85537W        W50764  30.403  10.030   0.947
85538W        W50765  24.839  21.191   3.630
85539W        W50766  38.956  31.620   3.686
85540W        W50767  18.643  26.719  13.530
85541W        W50768  17.594   9.712  10.773
85542W        W50769  31.368  33.460   2.813
85543W        W50770   2.874   4.713   3.133
85544W        W50771   7.239  28.425  10.661
85545W        W50772  32.408  42.351   2.142
85546W        W50773  19.521   4.798  14.742
85547W        W50774  32.212  18.155  11.315
85548W        W50775  26.521  41.326   3.369
85549W        W50776   1.750  40.011  10.559
85550W        W50777  38.622  13.292  11.912
85551W        W50778  36.389  25.139  10.494
85552W        W50779  28.251  18.977  14.572
85553W        W50780   4.840  28.177  13.813
85554W        W50781   0.223   4.033  12.509
85555W        W50782  36.952  18.684   0.064
85556W        W50783  43.186   2.320   3.778
85557W        W50784  19.456   6.484  12.499
85558W        W50785  35.508   1.197  11.649
85559W        W50786  24.577  19.785   0.752
85560W        W50787  42.700  37.890  11.380
85561W        W50788  20.157  42.782  14.185
85562W        W50789   6.419   2.866   3.779
85563W        W50790  39.460  19.704   2.339
85564W        W50791  39.432  33.011   3.151
85565W        W50792  11.666  27.868   4.177
85566W        W50793  39.448  29.389   2.255
85567W        W50794  26.082  15.191  10.984
85568W        W50795  29.012  11.995  10.528
85569W        W50796  23.901  39.072   5.164
85570W        W50797  19.540  12.804   1.458
85571W        W50798  30.592  23.629  14.863
85572W        W50799  39.459  30.139  12.936
85573W        W50800  10.761  23.581   2.534
85574W        W50801  35.297  30.864   1.652
85575W        W50802  23.598  41.474   3.081
85576W        W50803  39.847  28.107  12.972
85577W        W50804   7.374  23.216   2.757
85578W        W50805  25.209  33.168   3.868
85579W        W50806  34.174  21.016  14.825
85580W        W50807  31.393  20.842  10.768
85581W        W50808  10.465  13.239   0.116
85582W        W50809  44.306  44.251  11.178
85583W        W50810  34.163  43.756   1.866
85584W        W50811  28.200  16.804  10.760
85585W        W50812  22.700   1.085   2.680
85586W        W50813  34.180  34.491   1.948
85587W        W50814   5.092  40.881  12.491
85588W        W50815  17.960  18.324   2.888
85589W        W50816  29.280  17.725  13.856
85590W        W50817  19.538  33.697  14.443
85591W        W50818  36.879  35.681  13.424
85592W        W50819  38.091  14.878  11.600
85593W        W50820  21.720   5.445   2.101
85594W        W50821  35.261  24.531   1.885
85595W        W50822   4.724   6.088  14.340
85596W        W50823  27.277  13.406   3.528
85597W        W50824  19.458  33.358   3.364
85598W        W50825  29.059  34.776   0.297
85599W        W50826  35.224  31.878  12.008
85600W        W50827   4.259  32.388   2.686
85601W        W50828  44.628  17.963   4.147
85602W        W50829  40.044  20.281  11.642
85603W        W50830  16.428  37.457  14.397
85604W        W50831  40.035  26.193   0.730
85605W        W50832   3.761   0.049   0.431
85606W        W50833  40.959  39.445   3.803
85607W        W50834   4.714  11.073  13.277
85608W        W50835  35.575  40.861   0.735
85609W        W50836   8.197   3.044   2.863
85610W        W50837   6.593  24.634   2.253
85611W        W50838  38.743  36.857   0.521
85612W        W50839  11.570  31.939   1.339
85613W        W50840  40.051  20.109   1.788
85614W        W50841  40.200   0.205  13.833
85615W        W50842  27.250  15.170  14.366
85616W        W50843  14.124   3.750   0.319
85617W        W50844  13.932  12.147  11.972
85618W        W50845  11.067  37.049  14.784
85619W        W50846  16.310  22.758   3.881
85620W        W50847  17.593   4.508  12.070
85621W        W50848   9.872  10.320  12.135
85622W        W50849  25.517  39.151  14.894
85623W        W50850  43.882  18.401   4.412
85624W        W50851   3.410   5.322  13.986
85625W        W50852  23.302  30.835   3.276
85626W        W50853  10.754  18.130   1.134
85627W        W50854   7.859   1.009   4.361
85628W        W50855  12.127  15.890  11.074
85629W        W50856  40.942   2.041   2.173
85630W        W50857   8.322  30.785   0.805
85631W        W50858   0.448  41.583   4.030
85632W        W50859  34.408  19.542   2.205
85633W        W50860  29.692  25.512  13.388
85634W        W50861  19.327   2.958  11.104
85635W        W50862  14.780  24.118  13.451
85636W        W50863  25.068   5.383  13.640
85637W        W50864  32.038   3.907  14.764
85638W        W50865   3.122   1.781   0.300
85639W        W50866  10.013  29.046  11.964
85640W        W50867  37.986  31.618   2.815
85641W        W50868  23.247  38.429   0.830
85642W        W50869   3.185  29.485  14.267
85643W        W50870  24.578  38.595   2.299
85644W        W50871  42.756   0.628   1.925
85645W        W50872  10.330  14.375   3.310
85646W        W50873  18.560  43.357  12.019
85647W        W50874  37.088  27.890   4.940
85648W        W50875   7.525   1.478   3.887
85649W        W50876   0.823  35.648   4.436
85650W        W50877  26.020  39.598  12.815
85651W        W50878  37.470  37.721   4.403
85652W        W50879  36.811  18.731   1.915
85653W        W50880   3.532  36.842   3.271
85654W        W50881  31.391  11.837   1.486
85655W        W50882   4.214  34.463  12.430
85656W        W50883  33.586  31.252  13.799
85657W        W50884  14.819  38.862   0.683
85658W        W50885   4.018  17.314   3.831
85659W        W50886  28.556  37.488   4.101
85660W        W50887  31.938  17.232   1.027
85661W        W50888  10.309  24.268  13.810
85662W        W50889  13.220  41.236  11.862
85663W        W50890  11.007  14.395  12.116
85664W        W50891  12.080  39.355  13.357
85665W        W50892  25.855   7.034  13.860
85666W        W50893  34.900  18.517   2.394
85667W        W50894  14.707  31.891  13.357
85668W        W50895  31.081   0.568  10.626
85669W        W50896  44.399  25.490  14.286
85670W        W50897  14.772  29.647   2.294
85671W        W50898   4.261  40.836  13.558
85672W        W50899  38.043   9.977  13.942
85673W        W50900   6.331   5.671  11.088
85674W        W50901  12.274  42.790  13.405
85675W        W50902   5.761  43.077   3.799
85676W        W50903   7.563  37.366   4.554
85677W        W50904  43.740   3.840  13.535
85678W        W50905  19.177   5.356  12.143
85679W        W50906   2.871  19.003  12.104
85680W        W50907   5.933  36.784   0.334
85681W        W50908   7.943   9.698  13.051
85682W        W50909  27.760  25.090  11.607
85683W        W50910  17.275   1.042  12.072
85684W        W50911  26.737  39.410   2.767
85685W        W50912  32.605   9.369   3.125
85686W        W50913  26.793  18.737  14.990
85687W        W50914  27.449  32.687  13.552
85688W        W50915   7.859  39.570   2.818
85689W        W50916  35.825  29.967   4.467
85690W        W50917  35.102  25.415   1.926
85691W        W50918  30.753  11.970  11.594
85692W        W50919   3.902   6.691   0.428
85693W        W50920  11.178  13.502  13.024
85694W        W50921  20.719   6.145  13.539
85695W        W50922  29.088  39.593   0.305
85696W        W50923   9.058  21.656  14.218
85697W        W50924   5.810   5.200   3.840
85698W        W50925  24.955  28.494  12.422
85699W        W50926  20.096  24.167  11.545
85700W        W50927  22.052  33.359  14.048
85701W        W50928  15.594  41.850  13.430
85702W        W50929  30.421   6.376  11.245
85703W        W50930  31.747  25.955  10.495
85704W        W50931   1.321  29.200  12.595
85705W        W50932  22.659  41.932  11.522
85706W        W50933   5.643  11.946   2.394
85707W        W50934  43.417   2.828   2.126
85708W        W50935  30.982  32.209  10.604
85709W        W50936  28.559  35.741  12.766
85710W        W50937  28.234  26.638  10.114
85711W        W50938  44.714  35.348   0.026
85712W        W50939  15.122  34.982  11.231
85713W        W50940  14.237  30.929   1.355
85714W        W50941   8.456   4.745   1.465
85715W        W50942  30.045   1.761   2.218
85716W        W50943  27.693  38.192   3.579
85717W        W50944   2.139  36.038  11.306
85718W        W50945  19.326  44.846   2.654
85719W        W50946  37.557   5.375   4.477
85720W        W50947   9.117  27.212   2.287
85721W        W50948  13.706  40.633   0.394
85722W        W50949  32.555  21.756   1.598
85723W        W50950  44.235   1.729   3.784
85724W        W50951   2.979  39.555  11.584
85725W        W50952  24.565  18.858   1.281
85726W        W50953  44.339  26.971   4.915
85727W        W50954  30.901  44.844   1.253
85728W        W50955  26.715  21.513  14.344
85729W        W50956   0.507  21.663  13.064
85730W        W50957  31.354  44.738  12.738
85731W        W50958   6.056   0.931  13.872
85732W        W50959  11.296  41.263  10.566
85733W        W50960  32.799  13.863  13.013
85734W        W50961  42.199  35.866   1.145
85735W        W50962   7.644  13.844   4.189
85736W        W50963  13.389  40.389  14.480
85737W        W50964  18.058  29.982   4.229
85738W        W50965  19.240   1.907  12.918
85739W        W50966  35.830   2.912  10.622
85740W        W50967  34.845  27.557   2.879
85741W        W50968  16.462  25.940   2.226
85742W        W50969  33.666   4.143   2.731
85743W        W50970  13.230  18.848  12.182
85744W        W50971   5.508   8.379   3.999
85745W        W50972  36.089  19.338   0.742
85746W        W50973  41.840  25.335  13.474
85747W        W50974  40.972  30.580  10.601
85748W        W50975  36.608  33.089   3.305
85749W        W50976  25.699  38.531   2.858
85750W        W50977  19.132  29.419  13.451
85751W        W50978   1.999  27.275  11.506
85752W        W50979   7.248  22.498   3.543
85753W        W50980  23.243   0.210  14.426
85754W        W50981  35.093  39.957   1.247
85755W        W50982  42.757  36.553  12.938
85756W        W50983  24.078   0.399   3.170
85757W        W50984  13.437   6.643   1.680
85758W        W50985  14.724  35.570  14.391
85759W        W50986  16.087  35.883   0.988
85760W        W50987  39.379   9.155   3.360
85761W        W50988  21.176  41.918  14.980
85762W        W50989  38.966   0.580   4.673
85763W        W50990  17.331  12.698   3.754
85764W        W50991  36.967  42.935  12.969
85765W        W50992  27.953  30.738  11.609
85766W        W50993  17.231  26.034  12.515
85767W        W50994   0.642   3.331   4.356
85768W        W50995   9.635  22.177  13.651
85769W        W50996  29.570   3.711  13.387
85770W        W50997  30.880  27.509   2.227
85771W        W50998  34.133  19.209   3.694
85772W        W50999  11.577  27.941  10.183
85773W        W51000   7.566  26.102  14.390
85774W        W51001  37.511  10.054  10.697
85775W        W51002  40.934  25.228  14.409
85776W        W51003  35.275   3.682  14.902
85777W        W51004  21.787   4.810   4.708
85778W        W51005  24.201  15.210  13.122
85779W        W51006   2.480  21.569   0.922
85780W        W51007  22.073  35.904  10.676
85781W        W51008   1.737  28.709  12.163
85782W        W51009  20.802   9.696   1.739
85783W        W51010  39.956  40.066  10.505
85784W        W51011   8.734  23.448   0.813
85785W        W51012  22.771   6.302   4.069
85786W        W51013  10.657  29.929  11.518
85787W        W51014  13.597  32.995   0.151
85788W        W51015  20.059   2.178   2.278
85789W        W51016  26.136  38.807  11.740
85790W        W51017  25.617  33.195   2.264
85791W        W51018  36.657  44.860   1.915
85792W        W51019  31.447  40.813   4.562
85793W        W51020  27.152  30.924   3.091
85794W        W51021  12.270  30.921  10.412
85795W        W51022  43.462   4.975   2.287
85796W        W51023  35.149  25.074   5.067
85797W        W51024  43.373  42.385   1.904
85798W        W51025  41.383  30.650   0.626
85799W        W51026  26.608  38.923  14.875
85800W        W51027   1.240  36.889  10.398
85801W        W51028  13.637   7.801  13.021
85802W        W51029  21.498  42.786   3.154
85803W        W51030   8.520  18.811   4.201
85804W        W51031  41.415   0.698  13.434
85805W        W51032  41.370  14.016   0.425
85806W        W51033  42.040  42.010   1.775
85807W        W51034  44.691   4.686   2.480
85808W        W51035   1.885   0.207   3.735
85809W        W51036  36.902  20.757   2.743
85810W        W51037   0.220  42.239   1.435
85811W        W51038  31.267  12.029  11.260
85812W        W51039  44.274   4.381   4.500
85813W        W51040  22.960  25.480  12.388
85814W        W51041  37.993  40.346   2.116
85815W        W51042  18.839  39.393  14.420
85816W        W51043  13.611   7.909   0.741
85817W        W51044  37.286  12.767  14.240
85818W        W51045  25.882   2.359  12.582
85819W        W51046  19.639   9.552  14.826
85820W        W51047  22.243   9.631  12.622
85821W        W51048  13.761  20.614   2.380
85822W        W51049   2.243  43.912   3.498
85823W        W51050   3.460  36.560   3.702
85824W        W51051  32.429  23.835   2.506
85825W        W51052  34.950  12.165   2.014
85826W        W51053   1.272   1.080  12.056
85827W        W51054  17.272  28.474  13.394
85828W        W51055   9.872   0.878   1.865
85829W        W51056  35.709  43.839  14.466
85830W        W51057   9.468   7.703  14.872
85831W        W51058   1.195   3.504  11.638
85832W        W51059  33.063   1.512   1.651
85833W        W51060  17.601  18.313   1.213
85834W        W51061   8.852  38.602  11.309
85835W        W51062  38.801  34.147   0.672
85836W        W51063  33.358  28.229  12.003
85837W        W51064  14.138  16.606   2.283
85838W        W51065  39.099   1.834  11.137
85839W        W51066  41.915  31.175  13.422
85840W        W51067   0.765   2.640  12.847
85841W        W51068  30.082  30.650  10.612
85842W        W51069  21.085   3.506  12.440
85843W        W51070  40.078  31.623  13.952
85844W        W51071  23.025  37.890  12.921
85845W        W51072  15.915  36.650   4.243
85846W        W51073   1.784  40.373  14.327
85847W        W51074  36.176  22.188  11.136
85848W        W51075  35.200   4.410  12.459
85849W        W51076  20.675  39.110  13.851
85850W        W51077  12.762  18.831  14.404
85851W        W51078  16.861  33.925   0.707
85852W        W51079  11.378  28.634   0.765
85853W        W51080  11.156  36.196  11.613
85854W        W51081   4.994  21.222   1.787
85855W        W51082  14.653  39.987   3.581
85856W        W51083  32.152  17.014  11.491
85857W        W51084  23.976  43.802   1.069
85858W        W51085  35.756  10.628   3.390
85859W        W51086  37.434  39.530   1.146
85860W        W51087  29.851   2.490  11.142
85861W        W51088  36.474  31.310   0.694
85862W        W51089  25.143  33.762   0.300
85863W        W51090  35.586   5.799   1.522
85864W        W51091  42.062  44.812  12.384
85865W        W51092   7.909   4.656  11.975
85866W        W51093   8.205  38.758   4.523
85867W        W51094  29.046  40.753  10.582
85868W        W51095   2.810   0.422  10.718
85869W        W51096  35.592  35.552  12.892
85870W        W51097  25.477  21.724  10.732
85871W        W51098  28.322  12.952   5.428
85872W        W51099  22.150  17.626  13.912
85873W        W51100  34.931  40.036  11.873
85874W        W51101  14.594  16.193   0.324
85875W        W51102  42.352  20.054  10.169
85876W        W51103  21.479  13.377   1.397
85877W        W51104  34.874  39.667  12.926
85878W        W51105  15.818  13.675  12.010
85879W        W51106  32.101  23.127  10.668
85880W        W51107   5.742   4.778   0.754
85881W        W51108  39.875  29.414   1.501
85882W        W51109  41.440  31.640  13.104
85883W        W51110  38.402  27.553   3.066
85884W        W51111  26.927   5.554  10.696
85885W        W51112   4.292   2.393   1.705
85886W        W51113   0.660  42.451  11.097
85887W        W51114  34.932  43.420  14.757
85888W        W51115  13.655   9.320  11.528
85889W        W51116  41.765  35.542  11.583
85890W        W51117   4.280  16.368   1.818
85891W        W51118  29.363   7.118   3.782
85892W        W51119  13.319  30.845   1.772
85893W        W51120  39.757  19.640   2.788
85894W        W51121   7.421  26.921  13.631
85895W        W51122  37.907  28.244  12.495
85896W        W51123   7.108   6.732  11.991
85897W        W51124  24.625  24.491   3.228
85898W        W51125   5.230  33.610   2.708
85899W        W51126   1.675  23.959  14.597
85900W        W51127  44.642  32.288   0.180
85901W        W51128  25.068  39.750  12.501
85902W        W51129  14.094  30.600  11.052
85903W        W51130  37.579  16.003  13.027
85904W        W51131  25.229  41.036   1.291
85905W        W51132  27.954  24.613  11.617
85906W        W51133  29.503  24.784   2.974
85907W        W51134  10.658  34.593  12.937
85908W        W51135   4.460  31.035   4.708
85909W        W51136  31.220  27.791   5.042
85910W        W51137  24.796  12.887   2.355
85911W        W51138  36.008   4.820   3.042
85912W        W51139  13.830  40.310   3.729
85913W        W51140  17.113  21.078  11.126
85914W        W51141   8.226  27.007   4.513
85915W        W51142  42.456  30.442   1.970
85916W        W51143  36.846  20.666  10.564
85917W        W51144  41.435  44.747  13.451
85918W        W51145  43.289   3.770   3.625
85919W        W51146   0.870  32.867   0.348
85920W        W51147  29.483  33.016  10.684
85921W        W51148  35.532   4.009  14.557
85922W        W51149  21.054  25.249  12.726
85923W        W51150  43.821   7.928  13.934
85924W        W51151  39.327  31.132  11.075
85925W        W51152   8.804  11.424  13.047
85926W        W51153  39.497  17.014   4.591
85927W        W51154  34.139  26.991   0.883
85928W        W51155  18.720  25.090  10.313
85929W        W51156  14.289  42.753   0.455
85930W        W51157  38.212  35.101  14.031
85931W        W51158  41.947  27.484   3.769
85932W        W51159  32.962  16.186  12.887
85933W        W51160  11.888  37.559   3.053
85934W        W51161  22.152  31.149   2.919
85935W        W51162  24.485  11.194  14.974
85936W        W51163  10.675  12.330  13.926
85937W        W51164   0.334  12.091   3.208
85938W        W51165  28.201   8.580  10.300
85939W        W51166  36.843  33.682   2.586
85940W        W51167  22.564  19.251   2.609
85941W        W51168   4.172  16.576  14.073
85942W        W51169  23.799  14.837  12.383
85943W        W51170  19.637  10.723  13.295
85944W        W51171  28.242  43.024   9.671
85945W        W51172  29.869  30.546   1.755
85946W        W51173  40.821  39.302   1.637
85947W        W51174  26.241  31.461  12.428
85948W        W51175  36.382  26.835  10.972
85949W        W51176   1.563  33.547  12.398
85950W        W51177  22.657  37.791  12.316
85951W        W51178   2.497  28.508  13.791
85952W        W51179   0.534  30.691   2.660
85953W        W51180  15.780  19.146  10.519
85954W        W51181  38.642  24.436  11.577
85955W        W51182  27.202   4.097   3.144
85956W        W51183   6.047  30.746   2.891
85957W        W51184  26.630  39.430  14.905
85958W        W51185  35.988  33.961  13.131
85959W        W51186  19.836  31.078   1.419
85960W        W51187  21.087  26.206   3.247
85961W        W51188  27.099  36.753   0.306
85962W        W51189  42.078  15.724  10.842
85963W        W51190  30.834  10.444   2.445
85964W        W51191   9.335  42.041   4.751
85965W        W51192  32.422  40.576  14.990
85966W        W51193   9.089  13.197   3.643
85967W        W51194   5.037  19.077   0.754
85968W        W51195  24.195   7.878  13.942
85969W        W51196   7.278   9.139   1.615
85970W        W51197  18.872   8.543  12.448
85971W        W51198  14.318  44.925  13.418
85972W        W51199  35.958  13.271  10.833
85973W        W51200  12.077  24.676   4.198
85974W        W51201  42.057  10.830  12.586
85975W        W51202  27.195  14.665  13.433
85976W        W51203  17.765  31.608   3.171
85977W        W51204  15.736  42.251   3.698
85978W        W51205  19.184  25.815   0.744
85979W        W51206  33.876  22.112  10.667
85980W        W51207  15.494   4.298  12.951
85981W        W51208  29.782  22.571  11.536
85982W        W51209  17.336  43.868   1.639
85983W        W51210  12.082   1.900  12.954
85984W        W51211   4.436  32.586   3.615
85985W        W51212  21.194  14.377  11.556
85986W        W51213  12.308   5.323  14.017
85987W        W51214  22.873  33.397  10.721
85988W        W51215  41.894  35.105   2.632
85989W        W51216   9.937  29.177  11.097
85990W        W51217  31.558  27.452  11.555
85991W        W51218  22.682  26.210  12.091
85992W        W51219   9.228  35.393  12.159
85993W        W51220  23.811   5.193  12.088
85994W        W51221  13.313  42.064  13.329
85995W        W51222  10.676  36.471  10.843
85996W        W51223  29.929  31.410  11.132
85997W        W51224  26.159   8.441   0.890
85998W        W51225  37.209  31.946   3.236
85999W        W51226  29.721  42.964   2.282
86000W        W51227  44.683  31.372  12.775
86001W        W51228  26.951  23.136   4.776
86002W        W51229  24.591  18.412  12.037
86003W        W51230  27.139  23.392  12.475
86004W        W51231  30.392  42.777   0.876
86005W        W51232  19.998   0.692  11.437
86006W        W51233  10.286  28.415  10.673
86007W        W51234   9.254   4.511   0.849
86008W        W51235  35.972   6.196   3.760
86009W        W51236  28.373  21.522   3.121
86010W        W51237   9.316  20.062  11.410
86011W        W51238  17.502  41.423   0.761
86012W        W51239  24.062  19.050   4.560
86013W        W51240  43.345   3.750  12.165
86014W        W51241   7.847  36.851  12.421
86015W        W51242  13.709  17.767   2.320
86016W        W51243  27.033  42.361   0.540
86017W        W51244   1.078   0.127   9.875
86018W        W51245  21.278  17.651  13.471
86019W        W51246  36.365  19.345   1.195
86020W        W51247  16.628  23.893   0.233
86021W        W51248  39.895  18.155   3.658
86022W        W51249   5.435  16.307   4.239
86023W        W51250  14.963   5.944  11.544
86024W        W51251  36.680  12.316  14.831
86025W        W51252  34.683  18.324  10.748
86026W        W51253  18.813  23.050   0.437
86027W        W51254  13.138  30.365   1.843
86028W        W51255  39.524  36.576   1.520
86029W        W51256  24.336  35.901   2.108
86030W        W51257   3.794   6.358  13.372
86031W        W51258   4.693   7.972  13.551
86032W        W51259  26.089  40.678  10.481
86033W        W51260  43.367   3.241   1.841
86034W        W51261  28.596   9.674  14.532
86035W        W51262  18.607   8.923  10.774
86036W        W51263  41.332   4.878  14.508
86037W        W51264   2.864  42.367   5.680
86038W        W51265  10.313  15.592  12.065
86039W        W51266  22.546  11.816   4.132
86040W        W51267  23.251  28.252  10.712
86041W        W51268  10.758  19.279  14.508
86042W        W51269  40.539  15.138   3.324
86043W        W51270  33.430  11.220   4.405
86044W        W51271  15.621  33.019   1.282
86045W        W51272  43.135  44.570  12.365
86046W        W51273  39.881  34.412   3.750
86047W        W51274  39.592  18.137   4.110
86048W        W51275   3.931  30.516  10.644
86049W        W51276  34.108  36.834   2.193
86050W        W51277  35.188  16.276   4.258
86051W        W51278   8.752  12.120   0.804
86052W        W51279  19.807  38.949   4.473
86053W        W51280  33.907  15.753  11.864
86054W        W51281   4.187   8.361   0.181
86055W        W51282  37.077   6.831   3.133
86056W        W51283   1.302  10.769  11.383
86057W        W51284  26.745   7.614  13.045
86058W        W51285  20.319  18.591  12.020
86059W        W51286  42.195   0.604  14.459
86060W        W51287  14.141  42.935   3.304
86061W        W51288  40.446  35.538  12.840
86062W        W51289  27.258  18.174  12.239
86063W        W51290  44.473  42.273  10.608
86064W        W51291  33.542  42.045   3.126
86065W        W51292   3.367   5.014   0.388
86066W        W51293  24.145   9.381   2.393
86067W        W51294  27.298  41.073   4.080
86068W        W51295  43.765   9.784   3.155
86069W        W51296  37.363  31.932  13.988
86070W        W51297  34.866   8.800   2.723
86071W        W51298  27.241  14.785  11.447
86072W        W51299  34.548  43.503  14.413
86073W        W51300  38.114   0.355  13.017
86074W        W51301  21.529   1.395   2.379
86075W        W51302  37.066   1.250   0.171
86076W        W51303  10.722  31.422  10.580
86077W        W51304  12.719  42.967   3.611
86078W        W51305  38.832   7.348   1.346
86079W        W51306  31.927  18.959   2.859
86080W        W51307   5.555  24.808  13.439
86081W        W51308   4.726   1.366   1.671
86082W        W51309  39.371   5.466  12.150
86083W        W51310   6.611  44.699   1.209
86084W        W51311  34.692  10.687   2.592
86085W        W51312  23.116   1.980   1.643
86086W        W51313  22.673  14.812  13.040
86087W        W51314  17.459   8.358  10.899
86088W        W51315  39.508  14.894  10.884
86089W        W51316  15.880  44.080   1.120
86090W        W51317   9.406  44.005  13.581
86091W        W51318  29.816  24.561  14.491
86092W        W51319  23.092  14.996   2.767
86093W        W51320  23.159  43.093  14.501
86094W        W51321  32.880  39.466   1.937
86095W        W51322  10.916  24.914  13.806
86096W        W51323  33.039  40.297   0.835
86097W        W51324  35.658   0.513   2.324
86098W        W51325  29.917  42.687  11.207
86099W        W51326   2.369  27.562  11.697
86100W        W51327  44.424  36.827  12.598
86101W        W51328  31.075  20.080  13.534
86102W        W51329  33.540   6.149   1.734
86103W        W51330  10.392  22.564   4.585
86104W        W51331  10.161  21.183  10.647
86105W        W51332  34.565  36.393   3.719
86106W        W51333  35.287  17.730   2.575
86107W        W51334  28.529   0.297  11.940
86108W        W51335   4.489   8.198  12.364
86109W        W51336  18.756  14.665   3.759
86110W        W51337  12.232  15.780   4.592
86111W        W51338  31.090  25.275  10.402
86112W        W51339  16.765   5.749  12.805
86113W        W51340  26.244  37.055  13.139
86114W        W51341  40.052  32.555   1.443
86115W        W51342  37.895  36.951   0.142
86116W        W51343   9.834  33.331  12.618
86117W        W51344  29.451  26.962  13.353
86118W        W51345  22.450  37.439  13.641
86119W        W51346   5.305  14.352  13.910
86120W        W51347   6.185  22.918  12.937
86121W        W51348  25.246  25.783   4.616
86122W        W51349   9.219  11.165  12.920
86123W        W51350  30.532  23.453   1.271
86124W        W51351  31.452  17.128   2.716
86125W        W51352  41.718  13.461  11.067
86126W        W51353  32.412  38.642   1.414
86127W        W51354  21.080   5.122  13.385
86128W        W51355  27.678   5.762  14.984
86129W        W51356  44.293   2.007  12.439
86130W        W51357  32.813  10.866  11.745
86131W        W51358  27.095  24.252  11.672
86132W        W51359   4.201  34.163   0.869
86133W        W51360  42.362   9.367  14.472
86134W        W51361   2.957  19.640   3.023
86135W        W51362  15.793  18.300  11.941
86136W        W51363   8.621  15.082   3.604
86137W        W51364   4.650  30.056   4.950
86138W        W51365  22.659  28.321   3.616
86139W        W51366   0.268  37.476   0.453
86140W        W51367  40.493  10.122  14.929
86141W        W51368  28.443  28.422   4.324
86142W        W51369   4.980   6.271  13.918
86143W        W51370  29.079  29.077   1.099
86144W        W51371  13.288  20.983   0.773
86145W        W51372  16.205  40.683   1.939
86146W        W51373  33.464   4.512  14.842
86147W        W51374  25.658  16.550   4.982
86148W        W51375  32.290  41.078  14.982
86149W        W51376  21.844   3.156  13.468
86150W        W51377   2.922   7.259  10.811
86151W        W51378   2.991  37.535   3.580
86152W        W51379  34.989  15.505  11.595
86153W        W51380   8.671  38.856   4.252
86154W        W51381   4.903  26.940  13.321
86155W        W51382   8.805   2.083   4.713
86156W        W51383  19.560  15.063  14.244
86157W        W51384   5.290  36.823   0.945
86158W        W51385  17.355   8.168   0.421
86159W        W51386  35.591  35.057   3.989
86160W        W51387  17.952   3.945   0.421
86161W        W51388  33.114  42.889   5.035
86162W        W51389  24.524  19.921  13.050
86163W        W51390  16.459   1.678   5.109
86164W        W51391  36.615  30.853  13.069
86165W        W51392  38.482   3.474  12.431
86166W        W51393   8.103  30.602   4.142
86167W        W51394   9.773   6.359  14.063
86168W        W51395  32.422  24.289   3.373
86169W        W51396  25.125   8.404   2.179
86170W        W51397  25.176  34.020  10.595
86171W        W51398  30.174  21.717   0.332
86172W        W51399  41.924  16.613   0.300
86173W        W51400  44.141   4.846   4.149
86174W        W51401  42.472  35.705  12.634
86175W        W51402  26.112  24.052  14.774
86176W        W51403  18.980   9.840   3.112
86177W        W51404  23.712  30.517  11.997
86178W        W51405  40.256  42.526  12.730
86179W        W51406  41.200   8.764  12.080
86180W        W51407   1.979  17.782   9.800
86181W        W51408  38.772  33.433  12.622
86182W        W51409  28.134   9.555   3.861
86183W        W51410  25.437  29.369   1.127
86184W        W51411   0.791  44.443  11.902
86185W        W51412   6.674  13.051   3.238
86186W        W51413  14.159  13.475  11.133
86187W        W51414  23.036  15.559   3.865
86188W        W51415  20.216  29.440  10.978
86189W        W51416   3.776  37.761  12.101
86190W        W51417   2.294  44.234  13.520
86191W        W51418   4.950  33.135  13.067
86192W        W51419  17.776  12.685   0.947
86193W        W51420  22.573   6.614  12.834
86194W        W51421  39.937   6.433   9.787
86195W        W51422  38.015   9.740   2.854
86196W        W51423  34.129  18.733  12.518
86197W        W51424   4.812   1.284  14.906
86198W        W51425  23.600  20.534   1.999
86199W        W51426  20.940   9.150   0.861
86200W        W51427   1.953  20.719   0.326
86201W        W51428  17.583  30.083   3.487
86202W        W51429  10.410   7.763   0.802
86203W        W51430  37.389   5.066   2.044
86204W        W51431   7.325  35.643  14.459
86205W        W51432  35.562  14.826   0.929
86206W        W51433  35.001  13.029  10.572
86207W        W51434  29.043  42.453   4.139
86208W        W51435  30.379   2.880   2.748
86209W        W51436   6.089   5.609  11.515
86210W        W51437  26.652  34.899  11.009
86211W        W51438  29.262  22.500   1.573
86212W        W51439  31.594   0.488  13.841
86213W        W51440  10.445  44.957   3.569
86214W        W51441   4.408  37.831  14.355
86215W        W51442   0.976  39.316   2.835
86216W        W51443  15.159  25.671   4.012
86217W        W51444  41.253  13.445   2.031
86218W        W51445   2.340  27.625  10.711
86219W        W51446  34.486   4.006  12.535
86220W        W51447   2.743  15.271   3.218
86221W        W51448  10.555  39.507  14.349
86222W        W51449  32.445  44.727  12.011
86223W        W51450  11.189   7.222  10.682
86224W        W51451   7.695  23.080   0.492
86225W        W51452  10.105  22.331   1.859
86226W        W51453   1.025   2.861   9.951
86227W        W51454  21.829  29.688   1.165
86228W        W51455   8.669  39.359   4.095
86229W        W51456   1.753  18.997  11.141
86230W        W51457  31.942  38.539   3.998
86231W        W51458   9.826  38.445   2.411
86232W        W51459   9.869   4.414  13.412
86233W        W51460  15.802   0.875   5.119
86234W        W51461  44.982   1.387  12.350
86235W        W51462  42.244  28.491  13.226
86236W        W51463  42.076   4.453  12.034
86237W        W51464   7.756  21.580  11.491
86238W        W51465  15.055  15.516  13.443
86239W        W51466  20.623  16.905   0.401
86240W        W51467  27.766  18.614   1.889
86241W        W51468  21.304  27.471  12.658
86242W        W51469  35.999  15.317  11.432
86243W        W51470  37.270  16.156  14.048
86244W        W51471  29.091  41.955  12.847
86245W        W51472   7.628   7.838  12.988
86246W        W51473  39.357  30.366   0.349
86247W        W51474  29.739  34.906  13.698
86248W        W51475  39.922  37.922  12.036
86249W        W51476  26.098  35.807   0.141
86250W        W51477  27.232  41.085  14.849
86251W        W51478  33.399  41.482   4.176
86252W        W51479  24.129  34.772   0.932
86253W        W51480  44.455  16.378  13.060
86254W        W51481  43.869   9.667  10.333
86255W        W51482  22.498  26.652   1.445
86256W        W51483  28.595  32.008  14.508
86257W        W51484   8.237  44.228  13.595
86258W        W51485  34.516   8.173  14.074
86259W        W51486  13.295  38.304  12.920
86260W        W51487  23.550  30.106   3.979
86261W        W51488  15.210   5.701  10.724
86262W        W51489   9.899  19.545  13.213
86263W        W51490  40.869  37.332   0.279
86264W        W51491  43.486   7.886   0.370
86265W        W51492   7.813  35.872  13.238
86266W        W51493  24.221  31.601   4.582
86267W        W51494   2.505  34.399   3.866
86268W        W51495  39.987  37.146   3.827
86269W        W51496  40.303  24.589  11.565
86270W        W51497  42.242   6.520  11.964
86271W        W51498  37.015  16.424   3.536
86272W        W51499  25.320  34.769  13.058
86273W        W51500  10.924  25.942   0.309
86274W        W51501  33.104  38.775   3.764
86275W        W51502   3.270  16.553  13.800
86276W        W51503  11.596   2.966   1.248
86277W        W51504   1.058  34.361  11.596
86278W        W51505  42.360  22.177   2.293
86279W        W51506  18.678  20.699  12.825
86280W        W51507  19.218  39.289   1.240
86281W        W51508  29.683   2.923   4.162
86282W        W51509  13.438  26.195   2.459
86283W        W51510  41.305  29.938   1.926
86284W        W51511  16.852  41.982   0.970
86285W        W51512  39.437  27.930  10.707
86286W        W51513  21.828  21.597  13.423
86287W        W51514  13.192  30.421  11.562
86288W        W51515  25.899  37.736   3.073
86289W        W51516  11.868  16.849  11.949
86290W        W51517   9.262  26.695  13.401
86291W        W51518   0.936  17.238  14.835
86292W        W51519  25.613   5.772   3.196
86293W        W51520  29.647  39.078   1.946
86294W        W51521  22.575   0.468   1.266
86295W        W51522   8.682  23.710   2.675
86296W        W51523   0.069  28.289   4.942
86297W        W51524  40.968   2.375  14.200
86298W        W51525  40.444   7.759  11.935
86299W        W51526  31.479  36.177   4.091
86300W        W51527  43.099  24.252   5.030
86301W        W51528  16.656  36.574  12.386
86302W        W51529  13.108  21.684  12.427
86303W        W51530  41.934   7.209  10.609
86304W        W51531  32.181  12.271  11.108
86305W        W51532  27.127  26.202   0.997
86306W        W51533  23.403  44.773   0.414
86307W        W51534  24.480  14.346   3.354
86308W        W51535  17.000   6.199  12.593
86309W        W51536  41.934  42.012   0.239
86310W        W51537  42.272  43.006   5.058
86311W        W51538  17.474  19.020  13.352
86312W        W51539  26.541  21.745   3.695
86313W        W51540  23.046  27.222   3.949
86314W        W51541  13.812  21.504   2.740
86315W        W51542  12.701  39.145  11.569
86316W        W51543  30.978  22.674   4.537
86317W        W51544  25.858  19.115  13.434
86318W        W51545  29.371  33.160   4.516
86319W        W51546  12.941  40.395   1.379
86320W        W51547  37.036   1.145   2.712
86321W        W51548   8.142  18.041   1.290
86322W        W51549  17.059   8.946   2.732
86323W        W51550  14.241  41.497   2.306
86324W        W51551   7.450  20.277   1.855
86325W        W51552  32.499   1.315  12.089
86326W        W51553  19.172  30.428   2.767
86327W        W51554  37.629   7.141  11.236
86328W        W51555  16.873  31.057  12.422
86329W        W51556  11.573   3.922  14.548
86330W        W51557  18.651  42.836  14.031
86331W        W51558   8.636  35.055   3.392
86332W        W51559   4.893  23.692  11.202
86333W        W51560  13.384  17.119   0.191
86334W        W51561  30.186  44.881  12.080
86335W        W51562  10.575  44.543  10.063
86336W        W51563  15.204  40.327  10.694
86337W        W51564  43.947   1.452  10.694
86338W        W51565   6.901   7.784   0.071
86339W        W51566  21.555  33.621   5.035
86340W        W51567  11.701   4.306  13.806
86341W        W51568  37.831  38.446  11.975
86342W        W51569  31.034  40.843  11.393
86343W        W51570   1.766  32.435   4.854
86344W        W51571  23.122   8.416   4.560
86345W        W51572  25.887  39.471  12.345
86346W        W51573  28.368  12.022  14.927
86347W        W51574  22.010  25.639   1.937
86348W        W51575  37.778  22.117   3.737
86349W        W51576  16.661   7.528  10.875
86350W        W51577   2.926  36.890   0.837
86351W        W51578  41.176  33.661   3.760
86352W        W51579   0.483  28.704  12.950
86353W        W51580  26.937  36.457  14.404
86354W        W51581   0.785  29.975   0.001
86355W        W51582  26.125  32.348  11.544
86356W        W51583  13.928  10.204  12.776
86357W        W51584  34.378   4.919  12.440
86358W        W51585  18.084   4.909   2.421
86359W        W51586  27.581  24.806  14.629
86360W        W51587   4.311  35.818   4.600
86361W        W51588  35.111   1.746  13.396
86362W        W51589  37.585  21.117   3.089
86363W        W51590  33.219  19.716   0.901
86364W        W51591  23.608  37.375  11.919
86365W        W51592  16.227   9.959  11.549
86366W        W51593  18.251  41.587   3.172
86367W        W51594  27.747  41.500  11.555
86368W        W51595   6.907  12.299   2.826
86369W        W51596  42.783  12.898   3.417
86370W        W51597  36.887  22.153   3.496
86371W        W51598  10.314  27.021  13.356
86372W        W51599  43.324   0.349   0.944
86373W        W51600  31.705  26.112   1.331
86374W        W51601  31.336  39.520   1.927
86375W        W51602   1.162  42.493   2.309
86376W        W51603  36.470   4.857  11.438
86377W        W51604  11.419   7.126  13.952
86378W        W51605  21.746  35.573   1.200
86379W        W51606  24.082  42.948  11.748
86380W        W51607  34.896  12.577  12.772
86381W        W51608   0.049  40.256  12.530
86382W        W51609  14.080  39.207   3.598
86383W        W51610   0.200  40.002   3.748
86384W        W51611  27.820  42.900   4.457
86385W        W51612   0.942   2.412  12.395
86386W        W51613  41.254  19.495   1.160
86387W        W51614  29.941  33.052  14.221
86388W        W51615  10.389  20.199  12.217
86389W        W51616  37.363  14.207   0.636
86390W        W51617  40.394  29.519   1.692
86391W        W51618  10.818  39.872   2.247
86392W        W51619   2.680  40.779  12.774
86393W        W51620  36.960  15.208   3.497
86394W        W51621  22.860  30.481  14.777
86395W        W51622  29.300   7.233   1.962
86396W        W51623  36.012  17.750   2.271
86397W        W51624  17.510  27.656  12.837
86398W        W51625  30.946  14.730   3.692
86399W        W51626  12.280   2.147  13.407
86400W        W51627  32.800  40.884   5.037
86401W        W51628  14.218   3.615   4.120
86402W        W51629  38.077   8.189  13.121
86403W        W51630  40.960  25.482  12.486
86404W        W51631  37.713  38.801   2.982
86405W        W51632   1.942  43.315  14.150
86406W        W51633  36.457  15.494  12.972
86407W        W51634  35.576  41.301   2.635
86408W        W51635  29.190  10.727  11.482
86409W        W51636  14.765  20.709  12.563
86410W        W51637  21.278  36.956  14.958
86411W        W51638  20.664  29.278   2.693
86412W        W51639  15.942   6.694  11.221
86413W        W51640  30.444  37.511  12.594
86414W        W51641   8.670  20.688   1.495
86415W        W51642  32.965   0.973   0.369
86416W        W51643  30.483  29.380   0.758
86417W        W51644  36.360  12.913  12.505
86418W        W51645  38.518  36.626   4.034
86419W        W51646  16.335   6.934  12.475
86420W        W51647  25.563  33.957   3.761
86421W        W51648  18.628  35.228  14.078
86422W        W51649  25.621  17.650  13.513
86423W        W51650   7.612  19.631  12.973
86424W        W51651  39.385  32.049   3.900
86425W        W51652  29.726  13.893   0.494
86426W        W51653  20.022  18.399  10.018
86427W        W51654  33.965   0.373  10.815
86428W        W51655   2.215   0.323   0.637
86429W        W51656  28.083   1.454   1.322
86430W        W51657  24.529  39.331  10.769
86431W        W51658   0.637  11.423   2.704
86432W        W51659   1.475  35.715   2.294
86433W        W51660  38.861  27.457   5.177
86434W        W51661  22.498  11.112   1.093
86435W        W51662  42.282  40.638   3.137
86436W        W51663  39.517  18.517   0.273
86437W        W51664   7.381   5.489  13.726
86438W        W51665  36.353   2.251   4.839
86439W        W51666  41.822  18.909  12.566
86440W        W51667  10.664   4.506  11.209
86441W        W51668  30.498  39.548   0.583
86442W        W51669  25.561  28.674   3.340
86443W        W51670  24.121  37.014   4.200
86444W        W51671  30.433  43.719   0.397
86445W        W51672  38.886   3.915   1.838
86446W        W51673   1.860   9.098   5.055
86447W        W51674  33.892  28.079   3.551
86448W        W51675  39.103  37.850  14.400
86449W        W51676  30.821  40.252   0.083
86450W        W51677  37.975  41.556  11.109
86451W        W51678  25.505  21.802   3.062
86452W        W51679  44.295  17.825   3.256
86453W        W51680  21.584  35.535   4.291
86454W        W51681   3.715   0.223  14.834
86455W        W51682  15.360  41.674  11.069
86456W        W51683  18.770  12.303   1.822
86457W        W51684  10.984  29.636   2.664
86458W        W51685  43.578  38.737  11.612
86459W        W51686  40.886  15.667  14.875
86460W        W51687  44.743  23.020  13.267
86461W        W51688  18.777  21.306   3.007
86462W        W51689  42.251  25.199  13.942
86463W        W51690  27.172  33.481   2.636
86464W        W51691  36.339  29.907   4.612
86465W        W51692  37.799  35.506  14.472
86466W        W51693  34.079  41.935  12.071
86467W        W51694  33.366  26.656   0.923
86468W        W51695  43.373  36.739  14.664
86469W        W51696  16.780   4.278   0.305
86470W        W51697  25.459  16.252  13.806
86471W        W51698  27.646  36.376   4.276
86472W        W51699   5.158   3.822   2.698
86473W        W51700   0.948  38.283  12.169
86474W        W51701  11.802  40.998   1.464
86475W        W51702   4.321  27.067  10.710
86476W        W51703  17.027  22.219  14.399
86477W        W51704   9.467  32.495   1.022
86478W        W51705  22.764  31.900   2.149
86479W        W51706   6.464   8.884  10.867
86480W        W51707   0.465  27.324  14.315
86481W        W51708  15.228   1.689  10.311
86482W        W51709  22.113  11.113  11.174
86483W        W51710  22.645  31.025  13.432
86484W        W51711  15.994  35.084  14.158
86485W        W51712  36.294  14.575   3.738
86486W        W51713  19.753  16.160   3.999
86487W        W51714   0.452  44.824   4.011
86488W        W51715  35.394  28.762   4.173
86489W        W51716  35.290  19.499  13.075
86490W        W51717  27.861   9.726   3.475
86491W        W51718  37.894   5.365  10.298
86492W        W51719  39.295   8.854  12.086
86493W        W51720  38.877  15.536  10.660
86494W        W51721  38.532  12.034   2.891
86495W        W51722  30.517  38.295   4.871
86496W        W51723  39.971  24.165  11.407
86497W        W51724  34.588   5.821  14.715
86498W        W51725  14.759  28.034  11.585
86499W        W51726   3.446  13.857  14.960
86500W        W51727  38.390  31.328   2.918
86501W        W51728  18.715  22.771   0.883
86502W        W51729  38.475  40.011   3.641
86503W        W51730  22.984  36.362  10.332
86504W        W51731  31.350   1.413   0.950
86505W        W51732  26.112  21.247  14.866
86506W        W51733   3.747  15.619   0.708
86507W        W51734  17.728   8.858  10.125
86508W        W51735   1.402   2.474   2.621
86509W        W51736  26.998  12.530  14.026
86510W        W51737  42.758  18.604  13.596
86511W        W51738  34.082  24.161   0.089
86512W        W51739  39.036   1.538   4.612
86513W        W51740  42.430  29.253   2.906
86514W        W51741  36.197  34.826   2.208
86515W        W51742  10.242   0.023  11.598
86516W        W51743  32.704  40.994   1.428
86517W        W51744  26.559  31.444   2.838
86518W        W51745  24.078  42.210  14.449
86519W        W51746  18.701  15.167  12.322
86520W        W51747   6.321  18.507  14.372
86521W        W51748   8.191  24.452  11.144
86522W        W51749  42.247  36.027   3.426
86523W        W51750   0.056  34.863  11.976
86524W        W51751  42.494  27.889  13.995
86525W        W51752  10.943  21.953  13.870
86526W        W51753  13.507  18.707   0.443
86527W        W51754  39.991  29.904  12.159
86528W        W51755  35.874  36.660   4.849
86529W        W51756   3.696  38.803  10.189
86530W        W51757   5.842  34.129  13.950
86531W        W51758  26.487  16.510   4.558
86532W        W51759  34.331   8.827   1.405
86533W        W51760  32.697  18.251  13.524
86534W        W51761   8.933  32.548   0.886
86535W        W51762  41.846  16.030   4.635
86536W        W51763  41.886  24.989  12.549
86537W        W51764   6.475   9.246  12.379
86538W        W51765  24.732  28.215   4.237
86539W        W51766   9.417  40.293  13.045
86540W        W51767  10.664  41.488   0.402
86541W        W51768  44.064  10.128   2.638
86542W        W51769  33.923  35.941   1.698
86543W        W51770  19.370  44.860   3.175
86544W        W51771  17.348  39.178  11.242
86545W        W51772  24.152   9.690  12.496
86546W        W51773  36.219  31.946  10.605
86547W        W51774  17.216  44.776  12.244
86548W        W51775  25.241  28.115  11.567
86549W        W51776  44.300   9.755   2.393
86550W        W51777   9.041  39.884   3.218
86551W        W51778   1.540  16.616   0.945
86552W        W51779  17.798   8.371  11.278
86553W        W51780  11.679   6.370   9.697
86554W        W51781  43.290  37.077  12.914
86555W        W51782  25.895  21.098   4.826
86556W        W51783  38.437  26.625   1.640
86557W        W51784  16.163  25.533   3.373
86558W        W51785   8.769   2.756   2.768
86559W        W51786  34.613  41.379  11.006
86560W        W51787  20.503   5.830   0.750
86561W        W51788  40.003  35.432  11.822
86562W        W51789  17.158  13.182  10.637
86563W        W51790  18.764  14.724  12.586
86564W        W51791  39.970  36.167  11.553
86565W        W51792  25.041  17.650   4.512
86566W        W51793  34.407   8.092   1.704
86567W        W51794   0.121   0.134  12.498
86568W        W51795  31.518   1.941  10.594
86569W        W51796   2.304  24.740   4.913
86570W        W51797   3.845  12.093  14.615
86571W        W51798   7.437   4.999  11.590
86572W        W51799  44.493  41.966   2.558
86573W        W51800  31.949  32.530  12.120
86574W        W51801  14.861  26.601   1.494
86575W        W51802  21.065   7.722   0.898
86576W        W51803   3.758   8.077   0.289
86577W        W51804  12.767   4.200   0.895
86578W        W51805  24.341  42.732  11.356
86579W        W51806  30.651  22.614   1.808
86580W        W51807  13.087  39.270   3.749
86581W        W51808  36.875  25.260   3.109
86582W        W51809  40.917  30.893   1.892
86583W        W51810  38.915   7.673  11.119
86584W        W51811  14.045   6.469   3.684
86585W        W51812  32.406  11.228  11.818
86586W        W51813  33.152  19.629   2.808
86587W        W51814  35.248  15.675   4.990
86588W        W51815   3.218  13.512   1.336
86589W        W51816  32.912  21.661   1.209
86590W        W51817  33.160  23.124   1.230
86591W        W51818  33.073  10.668  11.324
86592W        W51819  37.602  25.574  12.956
86593W        W51820  17.915   9.028  11.918
86594W        W51821  36.644   3.322   3.245
86595W        W51822  35.570  13.911  12.559
86596W        W51823  41.309  39.622   1.732
86597W        W51824  26.651  12.948   4.594
86598W        W51825  20.584   8.782  12.684
86599W        W51826  26.970  35.004  14.775
86600W        W51827   3.811  18.011  11.195
86601W        W51828   3.910  24.106   4.666
86602W        W51829   6.474  44.809  12.731
86603W        W51830   9.411  29.879   1.875
86604W        W51831  30.828  34.442   2.867
86605W        W51832  12.345  25.650   1.841
86606W        W51833  18.149  12.201  10.698
86607W        W51834   4.021  24.637  10.828
86608W        W51835   4.533   1.716  11.449
86609W        W51836  30.953  24.680   2.837
86610W        W51837  33.590  34.360  12.142
86611W        W51838  28.866  33.856  14.546
86612W        W51839  31.612  23.731  11.155
86613W        W51840  21.298   2.706  12.581
86614W        W51841   2.651  18.680   2.146
86615W        W51842   3.946   6.262   1.385
86616W        W51843  42.996  10.767  14.023
86617W        W51844  21.649  28.122   4.546
86618W        W51845  28.032  14.960  14.798
86619W        W51846  13.355  24.651  10.940
86620W        W51847  12.256  13.722   1.446
86621W        W51848  13.883   4.729  12.227
86622W        W51849  41.295  17.314  12.094
86623W        W51850  36.552  34.979   0.532
86624W        W51851  34.346  14.065  14.099
86625W        W51852   3.472   8.870  14.845
86626W        W51853   7.949  30.917   0.110
86627W        W51854  13.436  30.157   0.779
86628W        W51855  38.546  31.083  13.325
86629W        W51856  23.547  32.386   3.578
86630W        W51857   9.701  26.244  12.034
86631W        W51858  23.482   7.887   2.828
86632W        W51859  41.316  38.726  14.389
86633W        W51860  42.684  10.927  14.404
86634W        W51861  33.076  30.666  12.015
86635W        W51862  25.682  27.580   1.066
86636W        W51863  29.706  27.505   0.067
86637W        W51864  32.076  16.713   1.901
86638W        W51865  16.226   6.643  14.883
86639W        W51866  38.323  39.051  12.884
86640W        W51867  19.001   1.940   0.677
86641W        W51868  17.667  30.542  14.212
86642W        W51869  16.726  36.703   4.218
86643W        W51870  39.955  19.786  12.531
86644W        W51871  32.495  39.498   1.416
86645W        W51872  13.309  28.241  11.594
86646W        W51873  15.956  30.153   0.151
86647W        W51874  23.657  41.897   3.783
86648W        W51875  42.717  34.557  10.736
86649W        W51876  22.950  28.645  10.569
86650W        W51877  15.568  32.618   2.800
86651W        W51878  35.170  23.790  14.819
86652W        W51879  36.951  27.025   1.970
86653W        W51880   9.640   2.215  11.463
86654W        W51881   0.922  33.044  13.881
86655W        W51882  14.836  40.679  11.834
86656W        W51883  36.545   4.548  13.900
86657W        W51884  44.452  23.011   3.130
86658W        W51885   4.030  15.622   0.259
86659W        W51886  30.335  16.042  12.965
86660W        W51887   5.943  28.964   0.291
86661W        W51888  19.743  21.214  12.537
86662W        W51889  13.201  37.038   0.419
86663W        W51890  21.066  43.282  10.630
86664W        W51891  15.506  25.569  13.026
86665W        W51892  31.094  41.453   3.624
86666W        W51893  38.011  19.536  13.829
86667W        W51894  33.538   1.711   4.683
86668W        W51895  36.076  44.553  13.859
86669W        W51896  27.009  35.072   4.931
86670W        W51897  40.510  22.015  13.529
86671W        W51898   3.943  34.377   1.802
86672W        W51899  17.242  41.092  13.007
86673W        W51900  32.395  12.039   4.103
86674W        W51901  44.833  35.876   2.447
86675W        W51902  32.374   5.378   3.691
86676W        W51903  17.317   2.732  12.492
86677W        W51904  26.192  42.802  14.327
86678W        W51905  44.955  15.152  12.014
86679W        W51906   0.843  42.145   1.746
86680W        W51907  10.695   8.247   2.400
86681W        W51908  36.521  21.033  13.357
86682W        W51909  10.194  41.318  14.496
86683W        W51910  12.127  22.839   3.898
86684W        W51911   3.818  13.256   1.651
86685W        W51912  20.507  14.684   2.856
86686W        W51913  16.434  12.061   1.280
86687W        W51914  19.950  12.921  12.502
86688W        W51915  24.554   6.448  14.523
86689W        W51916  29.212  35.821  10.706
86690W        W51917  33.130   1.762   0.728
86691W        W51918   0.067  22.305   4.107
86692W        W51919  24.063  34.431   2.423
86693W        W51920  17.549  24.389   0.114
86694W        W51921  25.197  18.643   4.202
86695W        W51922  30.697  37.154   0.221
86696W        W51923  21.611  30.985  14.613
86697W        W51924  27.444  42.730  11.184
86698W        W51925  37.183  40.135   4.832
86699W        W51926   6.498   0.687   5.841
86700W        W51927  43.029  18.103   1.782
86701W        W51928  20.564  37.332   3.360
86702W        W51929  18.185  21.958  13.485
86703W        W51930  26.911  12.748   4.171
86704W        W51931  31.598  10.145  12.142
86705W        W51932  36.402  17.928   3.411
86706W        W51933   6.790   2.268  14.668
86707W        W51934  13.281  34.567  14.025
86708W        W51935  21.641  11.686  12.632
86709W        W51936  10.276   1.138   0.292
86710W        W51937  25.933  11.293   0.614
86711W        W51938  36.824  24.139  13.262
86712W        W51939  22.695  41.333  10.764
86713W        W51940   1.203  23.138   3.654
86714W        W51941  31.198  23.696   5.029
86715W        W51942  43.271  34.911  13.808
86716W        W51943  18.006  27.978   4.927
86717W        W51944  39.605  22.603   2.515
86718W        W51945  18.704  41.816  14.094
86719W        W51946  14.176   9.796  14.841
86720W        W51947   9.257  33.642  14.279
86721W        W51948  24.588  37.965   3.069
86722W        W51949  31.894  39.477  11.949
86723W        W51950  35.051  17.756  13.360
86724W        W51951   2.918  37.748   4.048
86725W        W51952   8.714  14.821   0.764
86726W        W51953   3.329  41.397  11.650
86727W        W51954  34.176  37.070  13.426
86728W        W51955  21.126   6.876  10.652
86729W        W51956   1.312  14.711  10.954
86730W        W51957  17.673  13.118   2.829
86731W        W51958  17.267  29.704  14.888
86732W        W51959  20.661  24.920   0.018
86733W        W51960   7.014  43.486   2.262
86734W        W51961  43.927  40.034   1.895
86735W        W51962  19.810   8.825  10.554
86736W        W51963  15.602   3.372  13.630
86737W        W51964  21.772  24.103  13.040
86738W        W51965  24.441  40.282   4.138
86739W        W51966  18.829  36.775   3.354
86740W        W51967  18.755  39.592   1.317
86741W        W51968  39.156  36.041  13.442
86742W        W51969   0.216  42.988  12.233
86743W        W51970  11.068  35.308   2.406
86744W        W51971  22.709  28.369  13.831
86745W        W51972   5.955  14.755  13.543
86746W        W51973   4.712   6.176  12.135
86747W        W51974  14.011  17.119  14.479
86748W        W51975  17.281   5.440   3.854
86749W        W51976  40.074   8.337   1.942
86750W        W51977  36.544   4.926   2.231
86751W        W51978  12.179  26.710   4.669
86752W        W51979  27.191  40.060  14.647
86753W        W51980  22.592  26.088   4.353
86754W        W51981   7.673  40.269  14.836
86755W        W51982  36.869  40.267   3.875
86756W        W51983  13.259  23.857  13.614
86757W        W51984  39.773   9.291  13.329
86758W        W51985  38.383  10.722  14.385
86759W        W51986  36.448  18.757  10.775
86760W        W51987  43.321   6.462  11.897
86761W        W51988  42.462  27.151   0.644
86762W        W51989  19.113  31.542  13.353
86763W        W51990  15.731  40.639   2.191
86764W        W51991  16.199  43.376  14.212
86765W        W51992  31.508  24.959   1.749
86766W        W51993  14.505  43.429  10.787
86767W        W51994  22.557  21.955  12.394
86768W        W51995  37.880  23.579   3.739
86769W        W51996  42.203   8.849  12.171
86770W        W51997  37.512  37.254   0.503
86771W        W51998  32.467  26.730  13.969
86772W        W51999  12.667  31.343   0.323
86773W        W52000  41.065  29.501   0.578
86774W        W52001   2.909   7.714  14.872
86775W        W52002  17.501  31.976  13.689
86776W        W52003  43.724   6.223   2.266
86777W        W52004  30.547  31.877  10.730
86778W        W52005  27.027  39.453  10.860
86779W        W52006  22.767  36.972  14.263
86780W        W52007  11.464  40.123  11.364
86781W        W52008  20.791  41.876  12.371
86782W        W52009  22.709  23.622  10.321
86783W        W52010   6.018  20.702  11.218
86784W        W52011  23.571  40.944   1.803
86785W        W52012  43.605   7.637   5.658
86786W        W52013  28.176   6.233   3.657
86787W        W52014  38.802  30.693   2.225
86788W        W52015  34.035  20.251   0.782
86789W        W52016  27.913  32.929   0.365
86790W        W52017   5.348  29.398  13.923
86791W        W52018  13.123  27.704  13.441
86792W        W52019  21.727  25.637  13.427
86793W        W52020  42.051   8.861  12.918
86794W        W52021  21.800   8.010   1.287
86795W        W52022  19.713   1.392   2.397
86796W        W52023  23.222   3.862   3.145
86797W        W52024  21.399   4.877  12.993
86798W        W52025   8.115   7.097  13.896
86799W        W52026  36.050  23.989   2.888
86800W        W52027  16.546  36.347  14.883
86801W        W52028  31.520   1.051  14.539
86802W        W52029  40.044  18.644  11.054
86803W        W52030  29.497  40.086   0.763
86804W        W52031  44.910  40.577  14.838
86805W        W52032   1.055  23.568   4.126
86806W        W52033  41.146  28.046   4.530
86807W        W52034  12.087  17.548  12.488
86808W        W52035  19.563  21.121  12.059
86809W        W52036  28.437   4.930   0.994
86810W        W52037   3.378  18.000  14.963
86811W        W52038  24.766  42.372   2.581
86812W        W52039  37.603  27.982   3.221
86813W        W52040  28.027  44.487  14.871
86814W        W52041   8.680   1.364  13.464
86815W        W52042  37.611  44.291  13.314
86816W        W52043   9.276   4.264  10.651
86817W        W52044  14.364   1.849  14.467
86818W        W52045   4.398  37.322  14.367
86819W        W52046  40.936  29.003  13.871
86820W        W52047  41.833  10.354   1.401
86821W        W52048   1.805  16.852   2.017
86822W        W52049  15.724  15.807   1.699
86823W        W52050  12.320  16.222   4.919
86824W        W52051  31.686  39.952   1.338
86825W        W52052  42.081  26.407  11.676
86826W        W52053  19.972   7.315   1.352
86827W        W52054   0.844  16.795   0.090
86828W        W52055  34.566  26.515  12.523
86829W        W52056  33.568  18.078  13.458
86830W        W52057  14.813  41.071  13.742
86831W        W52058  13.169  28.063  10.260
86832W        W52059  22.038  16.341   3.193
86833W        W52060  33.602   0.794   0.751
86834W        W52061  30.232  41.702   0.124
86835W        W52062  39.981  34.141  13.339
86836W        W52063  16.590  25.750   0.408
86837W        W52064   8.987  37.392   1.523
86838W        W52065  10.443  18.690   4.276
86839W        W52066   2.170  28.198  14.992
86840W        W52067   3.129   7.424   0.271
86841W        W52068  12.284  15.304   2.800
86842W        W52069  41.874  33.040   3.300
86843W        W52070   9.236  33.857   4.813
86844W        W52071  34.052  32.180  13.351
86845W        W52072  18.857  11.320   0.797
86846W        W52073   0.469   5.767   3.292
86847W        W52074  37.723  38.224   1.297
86848W        W52075  28.893  26.699  13.391
86849W        W52076  19.187  36.082   2.973
86850W        W52077  21.122   5.653   3.992
86851W        W52078  12.021   1.169  13.477
86852W        W52079  21.479  15.650  12.473
86853W        W52080   2.518   2.238   0.854
86854W        W52081  35.165  16.759   0.839
86855W        W52082   6.389  40.566  10.582
86856W        W52083  10.730  38.425  12.947
86857W        W52084  20.558  23.882   3.872
86858W        W52085  34.549  33.061   4.261
86859W        W52086  40.540  31.041   1.486
86860W        W52087  21.308  28.964  10.181
86861W        W52088  40.816  18.987  12.446
86862W        W52089  37.016   7.392  14.899
86863W        W52090  25.014  12.478  11.630
86864W        W52091   2.602  11.841   2.895
86865W        W52092  35.598  12.718  13.373
86866W        W52093  23.718  20.517  13.405
86867W        W52094  26.992   5.197   4.586
86868W        W52095  30.874  33.763   1.778
86869W        W52096  33.623  16.911   4.065
86870W        W52097  26.163  44.367  12.518
86871W        W52098   1.500   9.348   1.402
86872W        W52099  43.695  26.638  10.592
86873W        W52100  24.985   7.736   1.359
86874W        W52101  38.972  26.281  12.873
86875W        W52102  16.605  27.908  12.611
86876W        W52103  42.690  11.168   1.938
86877W        W52104  43.418   9.864   1.824
86878W        W52105  25.479  23.769  11.892
86879W        W52106  14.679  28.833  11.258
86880W        W52107  32.630  11.881   2.726
86881W        W52108  40.935  44.003   3.753
86882W        W52109  29.156  31.432   4.289
86883W        W52110  19.526  21.726   2.977
86884W        W52111   5.044  16.114   1.182
86885W        W52112  17.550  36.809  13.428
86886W        W52113   1.168  19.155   3.688
86887W        W52114   1.299  11.363   0.768
86888W        W52115   8.842  39.824  10.863
86889W        W52116   7.857  28.499  14.682
86890W        W52117  25.952  16.990  14.428
86891W        W52118  26.540   2.914  14.154
86892W        W52119   0.908   4.645   5.050
86893W        W52120  22.177  24.091  13.999
86894W        W52121   3.760  26.174   3.253
86895W        W52122  32.630  39.132   2.246
86896W        W52123  41.275  23.839   4.399
86897W        W52124  41.802  16.063   2.805
86898W        W52125  22.612  12.752  13.585
86899W        W52126  25.544  12.411  11.625
86900W        W52127  28.884  30.126   3.221
86901W        W52128  10.177   3.106   0.565
86902W        W52129  34.371   3.474  11.236
86903W        W52130   1.885   3.857   0.413
86904W        W52131  34.829   3.300   1.151
86905W        W52132  22.191   4.878   4.326
86906W        W52133  42.869  40.134  10.519
86907W        W52134  11.253  33.791   1.346
86908W        W52135  42.311   8.121   2.470
86909W        W52136  33.574  43.898  10.266
86910W        W52137  35.881  43.736   2.197
86911W        W52138   2.807  42.197   9.772
86912W        W52139  39.077   5.673  13.469
86913W        W52140  42.836  36.212   5.168
86914W        W52141  17.041   9.918   1.473
86915W        W52142   2.705  24.618   1.877
86916W        W52143   7.363   4.286   3.114
86917W        W52144  26.441  41.120  13.919
86918W        W52145  21.448  11.372   2.175
86919W        W52146  11.834  23.419  14.254
86920W        W52147  17.263  29.087  14.757
86921W        W52148  35.690   9.207  12.114
86922W        W52149   1.992   6.244   0.934
86923W        W52150   9.666  32.341   4.161
86924W        W52151  41.770  21.393   3.687
86925W        W52152  14.228  12.586  14.834
86926W        W52153  34.404  41.476  14.544
86927W        W52154  36.123  33.337   3.185
86928W        W52155   0.231  13.801  10.706
86929W        W52156  10.546  44.006  14.220
86930W        W52157  34.618   9.061  12.964
86931W        W52158  21.079  26.225  14.891
86932W        W52159  17.789  18.266  13.743
86933W        W52160  43.446   6.152   2.902
86934W        W52161  37.037   9.742  14.899
86935W        W52162  31.796  24.895  14.345
86936W        W52163  44.311  19.568  12.238
86937W        W52164   8.013  13.130  10.595
86938W        W52165   0.712   9.080  14.424
86939W        W52166  38.743  44.544   3.007
86940W        W52167  41.351   4.860   3.268
86941W        W52168  37.019  41.286   1.952
86942W        W52169  11.363  40.766   1.267
86943W        W52170  32.279   2.476   1.442
86944W        W52171  16.725  40.825   4.107
86945W        W52172  22.529   9.427  13.371
86946W        W52173   7.172  30.569  12.852
86947W        W52174   3.557  36.592   1.401
86948W        W52175   7.363  11.894   2.209
86949W        W52176  37.456  17.756   0.214
86950W        W52177  13.450  31.709   5.114
86951W        W52178   4.704  14.335  14.756
86952W        W52179  40.369  33.820   0.682
86953W        W52180  10.586  20.552   3.738
86954W        W52181  33.580  37.886   2.761
86955W        W52182  14.784  19.723  11.601
86956W        W52183  12.632  21.191   1.904
86957W        W52184  15.077  42.575  14.522
86958W        W52185  43.273  42.074  14.417
86959W        W52186   2.687  41.306   1.260
86960W        W52187  37.982  14.644   4.212
86961W        W52188  19.249  39.511  11.094
86962W        W52189  37.604  21.983  12.138
86963W        W52190  36.062  23.769  12.027
86964W        W52191  14.633  37.843  11.179
86965W        W52192   4.886  16.772   1.784
86966W        W52193   2.196  27.221   1.366
86967W        W52194  12.832  12.245   2.176
86968W        W52195   1.501  34.132  13.755
86969W        W52196  23.102  38.909   4.480
86970W        W52197  39.466  37.327  12.568
86971W        W52198  26.363  25.685   0.769
86972W        W52199   2.455  40.169  11.096
86973W        W52200   7.889  42.093   3.353
86974W        W52201  15.245  20.788  12.343
86975W        W52202   8.167   0.450   2.604
86976W        W52203  39.253  33.210  14.455
86977W        W52204  34.027  28.218  14.804
86978W        W52205  12.157  14.551  14.883
86979W        W52206   0.959  34.291   0.336
86980W        W52207   4.656   4.715   0.442
86981W        W52208   5.738  38.058  14.178
86982W        W52209  42.941  29.631   4.172
86983W        W52210  11.783  24.743  14.537
86984W        W52211  15.674  27.113  11.236
86985W        W52212  30.390  26.883   3.317
86986W        W52213  31.887  19.473   1.287
86987W        W52214  32.971  30.525   0.378
86988W        W52215  40.372  15.400   1.344
86989W        W52216  34.295  11.318   4.505
86990W        W52217  29.477  22.210   1.971
86991W        W52218  23.670  32.337   0.989
86992W        W52219  40.716  40.062   4.435
86993W        W52220  21.353  41.458  11.232
86994W        W52221   4.884  39.293   0.821
86995W        W52222  43.952   7.703   3.824
86996W        W52223  25.008  38.935  11.556
86997W        W52224  19.345  10.705   1.228
86998W        W52225   0.723  43.819   2.276
86999W        W52226  41.581  20.760  14.785
87000W        W52227  37.334  13.193   1.876
87001W        W52228  11.306   5.370   3.264
87002W        W52229  14.022  33.434   0.937
87003W        W52230  36.052  32.940   4.272
87004W        W52231  33.407  28.252   3.590
87005W        W52232  23.121  12.677  10.523
87006W        W52233  31.533  20.570  12.065
87007W        W52234  44.344   2.853   4.274
87008W        W52235  20.314  40.562   0.841
87009W        W52236  42.512  34.876   2.263
87010W        W52237   9.854   6.826   0.383
87011W        W52238   5.401  14.372  12.015
87012W        W52239  39.136  17.934  13.940
87013W        W52240  42.719  30.525  12.640
87014W        W52241  20.215   8.118  12.556
87015W        W52242  29.198  28.118   0.887
87016W        W52243  11.630   5.552   2.447
87017W        W52244  23.551  43.441  14.384
87018W        W52245  27.077   8.726   3.944
87019W        W52246  22.634   9.249   1.734
87020W        W52247  42.971   2.764  12.596
87021W        W52248   6.607  37.536  12.965
87022W        W52249   8.794  38.323  12.582
87023W        W52250   3.011  30.223  12.191
87024W        W52251   1.597  28.664   3.964
87025W        W52252  29.210   5.313  11.689
87026W        W52253  27.537  29.582   3.319
87027W        W52254   4.446  32.518  13.453
87028W        W52255   8.758   5.804  11.010
87029W        W52256  10.239  43.799   1.226
87030W        W52257  42.731  43.058   1.824
87031W        W52258  11.239  11.300   1.512
87032W        W52259   9.813  40.261  13.367
87033W        W52260  28.096   9.369  12.064
87034W        W52261  30.707  24.595   3.292
87035W        W52262  37.720  44.881  14.282
87036W        W52263  14.941  10.259   4.997
87037W        W52264  26.925  31.616   2.528
87038W        W52265  14.831   9.696   4.723
87039W        W52266   7.904   9.131   1.245
87040W        W52267  44.413  14.830  10.677
87041W        W52268  13.414  10.425   0.877
87042W        W52269  42.853  14.369   4.793
87043W        W52270  38.930  41.267  12.957
87044W        W52271  12.802   4.718  11.453
87045W        W52272  30.172   9.142   0.449
87046W        W52273  21.847  31.861  14.451
87047W        W52274   7.459  25.624   1.219
87048W        W52275  43.632  27.512   9.615
87049W        W52276   2.955  37.367  10.142
87050W        W52277  12.300  13.227  10.649
87051W        W52278   8.162  34.881   0.227
87052W        W52279  26.632   7.416   1.465
87053W        W52280  25.159  32.571  11.637
87054W        W52281  10.110  22.000   4.172
87055W        W52282  31.071  20.479   1.340
87056W        W52283  37.366  28.204   4.608
87057W        W52284   2.319  42.747   4.042
87058W        W52285  31.667  23.161  12.904
87059W        W52286   1.462   3.972  12.471
87060W        W52287   4.694   2.813   0.377
87061W        W52288   6.222  34.651   2.691
87062W        W52289  38.287  42.236   2.801
87063W        W52290  22.516  17.441   4.113
87064W        W52291  26.632  17.686   1.205
87065W        W52292  22.036   2.404  11.621
87066W        W52293   2.278  12.652   1.356
87067W        W52294  13.826  26.190  13.097
87068W        W52295  41.556  19.353  11.797
87069W        W52296   7.127  17.186   3.579
87070W        W52297  40.122  44.474  10.287
87071W        W52298   3.971   1.822  11.192
87072W        W52299  33.049  10.003   3.723
87073W        W52300   0.724  20.376  12.922
87074W        W52301  25.015  11.141  14.956
87075W        W52302  20.137   0.738  11.930
87076W        W52303   2.934  19.258   1.216
87077W        W52304   0.429  15.798   1.831
87078W        W52305  14.203  12.632   1.306
87079W        W52306  43.063   3.537   3.171
87080W        W52307  38.844  28.402   1.775
87081W        W52308   5.862  19.257  13.370
87082W        W52309   0.973  32.031   0.260
87083W        W52310  35.313  31.596  13.150
87084W        W52311  19.081  28.613   4.444
87085W        W52312  25.538  24.330  14.024
87086W        W52313  23.008  35.881   0.812
87087W        W52314  22.671  19.496  13.402
87088W        W52315  22.548  10.246   0.001
87089W        W52316  44.750  25.884   2.313
87090W        W52317  26.143  26.019   4.117
87091W        W52318   8.824  24.223  12.185
87092W        W52319  32.320  34.330   9.912
87093W        W52320  12.785   6.245   4.521
87094W        W52321  42.598  32.355  12.997
87095W        W52322  30.630   4.472   1.755
87096W        W52323  15.596  34.323   4.619
87097W        W52324  44.058  26.536  12.525
87098W        W52325  37.425   1.931  11.536
87099W        W52326  42.598   8.930  14.274
87100W        W52327  13.148  36.884  10.749
87101W        W52328   4.882  23.000   3.637
87102W        W52329  37.955  14.548  12.020
87103W        W52330  19.030   7.919  11.141
87104W        W52331  14.126   8.382   1.432
87105W        W52332   4.215   4.836  12.319
87106W        W52333  25.570  10.108   1.760
87107W        W52334  12.384  20.718   1.695
87108W        W52335  33.359   1.945  12.827
87109W        W52336  43.500   4.519  14.770
87110W        W52337  38.436  21.175  13.228
87111W        W52338   6.273  29.505   2.368
87112W        W52339   9.189  35.015   4.063
87113W        W52340  26.413  33.612   2.241
87114W        W52341  30.450   4.688   1.260
87115W        W52342  26.926  38.975  11.060
87116W        W52343  25.042  15.363  13.467
87117W        W52344  11.126   3.777  14.299
87118W        W52345   0.577  41.344  14.333
87119W        W52346  42.894  10.243  12.182
87120W        W52347   9.420  43.528   1.779
87121W        W52348  15.387  22.364  10.442
87122W        W52349  29.979  17.112  10.859
87123W        W52350   8.669   4.342   4.749
87124W        W52351  28.899  24.047   0.746
87125W        W52352   2.422  14.960  11.111
87126W        W52353  14.684  35.530   1.212
87127W        W52354  24.497  35.429   3.690
87128W        W52355  13.800   5.575  11.997
87129W        W52356   2.380   0.843   0.797
87130W        W52357  26.385  37.860   4.142
87131W        W52358  34.440  22.711  12.657
87132W        W52359  12.258  21.982  10.734
87133W        W52360   0.887   5.758   4.700
87134W        W52361  42.742   1.224  14.616
87135W        W52362  12.182  30.862  14.182
87136W        W52363  27.026   6.655   0.750
87137W        W52364  13.170  18.767   4.660
87138W        W52365  26.881   8.341   0.341
87139W        W52366  28.441  40.554  14.070
87140W        W52367  19.658  42.347  14.816
87141W        W52368  18.000  18.679  14.630
87142W        W52369  17.109  15.702  10.779
87143W        W52370   7.383  40.037  11.121
87144W        W52371  42.324  18.726  10.748
87145W        W52372  23.203  34.017   1.577
87146W        W52373  22.141  29.910   2.330
87147W        W52374   0.131  36.305  14.507
87148W        W52375  30.968   2.867  11.675
87149W        W52376  29.513  29.451   1.486
87150W        W52377  16.886  42.311  12.540
87151W        W52378  22.389   2.331  13.842
87152W        W52379  40.500  30.542   1.794
87153W        W52380  13.647  15.134  13.338
87154W        W52381  27.042  23.051   4.255
87155W        W52382  41.063  10.028  11.156
87156W        W52383  37.108  20.416  11.585
87157W        W52384   7.697   0.871   0.506
87158W        W52385   3.976   1.810   2.221
87159W        W52386   8.846  34.145   2.222
87160W        W52387  36.842  27.567   3.231
87161W        W52388  27.352  12.320  14.976
87162W        W52389  10.439   2.425   0.776
87163W        W52390  37.909   8.851  11.894
87164W        W52391  27.129  11.820  14.985
87165W        W52392  41.479  41.794   2.304
87166W        W52393  44.518  33.399  11.180
87167W        W52394  21.069   9.086  11.994
87168W        W52395  40.488  12.732  14.781
87169W        W52396  12.166  44.575  10.863
87170W        W52397  34.354  26.486   4.150
87171W        W52398  30.748  32.539   2.722
87172W        W52399  30.112  10.169   0.381
87173W        W52400  37.051   5.305   4.565
87174W        W52401  17.213  21.100   4.530
87175W        W52402   7.157   9.904  10.725
87176W        W52403   8.891  28.637  11.614
87177W        W52404  11.846  40.875   0.263
87178W        W52405  31.431  23.728   2.607
87179W        W52406  17.079  22.175  11.800
87180W        W52407  34.832  35.499   3.707
87181W        W52408  24.742  33.925  11.514
87182W        W52409   3.451  20.219  11.929
87183W        W52410  40.081   6.427  14.542
87184W        W52411  25.229  38.783  11.122
87185W        W52412  27.173  42.621  14.023
87186W        W52413  43.888  42.695  12.413
87187W        W52414  25.655  19.471   5.003
87188W        W52415  41.424   4.280   1.539
87189W        W52416   9.131  13.567   3.279
87190W        W52417   9.911  34.918  14.040
87191W        W52418  26.102  20.052   3.165
87192W        W52419  40.336  25.324   2.327
87193W        W52420  23.057  18.981  10.645
87194W        W52421  26.518  14.794  13.209
87195W        W52422   6.171  20.912  10.766
87196W        W52423  12.725  36.292   3.147
87197W        W52424  11.237  28.479   1.701
87198W        W52425   8.634  37.412  12.086
87199W        W52426  29.069   9.750   0.686
87200W        W52427  13.856  16.294  12.470
87201W        W52428  41.987  31.855   1.753
87202W        W52429  19.853  14.769  13.847
87203W        W52430  17.099   9.366  13.967
87204W        W52431   9.864  26.082  13.862
87205W        W52432  30.945  44.381  14.425
87206W        W52433  10.759  26.455   0.873
87207W        W52434  34.970   4.100  12.132
87208W        W52435   6.428  21.139  12.511
87209W        W52436  22.860   8.855  11.206
87210W        W52437  20.174   5.975   1.165
87211W        W52438  16.280   2.193   4.922
87212W        W52439  43.426  42.610  11.114
87213W        W52440  17.150   9.048   0.188
87214W        W52441  41.622  34.642  12.445
87215W        W52442  11.507  43.335  13.930
87216W        W52443  34.217   7.171   4.216
87217W        W52444  12.341   6.698  14.024
87218W        W52445  28.420  35.504  10.668
87219W        W52446  40.540  32.666   0.528
87220W        W52447  38.838   6.579  13.505
87221W        W52448  15.594  16.054   0.351
87222W        W52449  23.077  28.834   4.382
87223W        W52450  38.283   9.222   1.723
87224W        W52451   3.936   4.392  12.107
87225W        W52452  21.512   6.309  11.088
87226W        W52453  27.950  33.936   5.092
87227W        W52454  36.379   2.422   2.778
87228W        W52455  43.587  35.938   3.837
87229W        W52456   3.830  11.173  13.471
87230W        W52457  13.404  32.593  14.073
87231W        W52458  34.478  33.057   4.888
87232W        W52459  34.908  22.373  14.362
87233W        W52460  41.853  20.634  10.730
87234W        W52461  25.637   7.809  13.793
87235W        W52462  26.219   1.365  10.271
87236W        W52463  26.620  26.333  13.552
87237W        W52464  17.626  36.244  11.991
87238W        W52465  22.215  34.477   1.765
87239W        W52466  14.961  23.634   0.855
87240W        W52467   0.232   5.483   2.128
87241W        W52468   8.788   4.986   2.387
87242W        W52469   6.314  19.185   4.004
87243W        W52470   0.519  32.237   2.192
87244W        W52471  12.100  17.340   2.247
87245W        W52472  32.007  28.123  10.392
87246W        W52473   8.211  29.494  14.378
87247W        W52474   2.363  11.080  10.706
87248W        W52475  10.920  18.726   4.079
87249W        W52476   7.800   5.169  11.973
87250W        W52477  36.481  26.484   0.867
87251W        W52478  32.565  41.652  12.009
87252W        W52479  22.690  41.889   2.949
87253W        W52480  26.699  27.469   4.750
87254W        W52481  16.246  18.674   2.174
87255W        W52482  34.975  24.675   0.415
87256W        W52483  42.888   1.773  11.369
87257W        W52484  22.692  20.738   4.261
87258W        W52485   4.181   3.698  13.002
87259W        W52486  35.649  36.847   2.285
87260W        W52487   3.560   1.016   4.709
87261W        W52488  21.218  12.222   1.693
87262W        W52489  10.873  20.001   4.464
87263W        W52490  35.336  10.519  13.100
87264W        W52491  34.571   7.418   4.524
87265W        W52492  35.521   1.223  10.763
87266W        W52493  13.781  34.115   1.828
87267W        W52494   4.996  19.232  12.067
87268W        W52495  28.642  18.097  12.941
87269W        W52496  11.434  38.082  12.087
87270W        W52497  14.872   9.788   4.197
87271W        W52498   9.741  14.695   2.725
87272W        W52499  19.656  40.330   4.440
87273W        W52500  30.694  26.524   3.095
87274W        W52501  18.480  31.106   3.120
87275W        W52502  43.457  25.597   3.826
87276W        W52503   4.774  30.155   0.959
87277W        W52504  43.357  28.462   1.958
87278W        W52505  14.485  10.764  10.501
87279W        W52506  44.399  43.828  10.060
87280W        W52507  12.598  30.371  10.334
87281W        W52508  17.252   0.952   2.710
87282W        W52509   9.623  43.098   1.460
87283W        W52510  34.293  18.663   0.531
87284W        W52511   0.689  29.970   2.185
87285W        W52512  32.063   1.873   3.161
87286W        W52513  13.842  24.268  11.934
87287W        W52514  37.905   4.427   2.302
87288W        W52515  42.392  40.314  12.030
87289W        W52516   1.476  17.837   0.291
87290W        W52517  31.916  34.373   0.749
87291W        W52518   9.690   5.426  13.769
87292W        W52519  31.694  20.607   2.184
87293W        W52520  30.343  19.966  14.307
87294W        W52521  37.408   5.194  11.552
87295W        W52522   4.193   7.599   3.826
87296W        W52523   7.614  25.756  14.005
87297W        W52524  33.610  23.058  12.243
87298W        W52525  25.598  29.387  12.182
87299W        W52526  34.400  32.173  10.778
87300W        W52527  23.740  24.982  10.636
87301W        W52528  15.103  28.010   0.710
87302W        W52529  16.343  13.607  12.078
87303W        W52530  30.325  27.522   0.164
87304W        W52531  23.045   5.163  12.493
87305W        W52532  42.948  22.552  10.748
87306W        W52533  42.867   3.888   0.959
87307W        W52534   4.422   2.348   2.819
87308W        W52535  29.706  36.518  10.304
87309W        W52536   2.844   7.105   4.503
87310W        W52537  44.587  35.621   0.695
87311W        W52538   4.863  42.187   4.926
87312W        W52539  21.810  25.260  10.741
87313W        W52540  43.600   1.652  13.954
87314W        W52541  25.616  21.755   1.716
87315W        W52542  22.589  28.704   2.231
87316W        W52543  18.151  15.778   2.340
87317W        W52544  26.213  22.002  12.003
87318W        W52545  42.669   1.281   3.303
87319W        W52546  39.918  21.805  14.466
87320W        W52547  35.310  38.235   4.150
87321W        W52548  34.388   1.450  12.418
87322W        W52549  10.339  28.044   1.415
87323W        W52550   2.948  34.140   1.812
87324W        W52551  29.242  22.736   2.759
87325W        W52552  25.460  19.722   3.724
87326W        W52553   2.791  24.226   4.540
87327W        W52554   4.817  10.133  10.647
87328W        W52555  44.070  32.501  13.379
87329W        W52556  10.598  23.723  10.962
87330W        W52557   9.842  43.572   1.443
87331W        W52558   9.697  16.479   3.671
87332W        W52559  39.498  22.644  13.052
87333W        W52560  34.505  20.478  14.860
87334W        W52561  42.324  34.599   3.384
87335W        W52562  39.822   8.297  12.452
87336W        W52563   7.139  16.221   0.273
87337W        W52564   7.625  25.751  12.965
87338W        W52565  37.961  27.863  11.127
87339W        W52566  14.078   0.723  14.728
87340W        W52567   9.980   9.658   0.888
87341W        W52568  33.527  38.927  11.216
87342W        W52569   3.727  36.055  11.999
87343W        W52570  24.055  30.692  11.620
87344W        W52571  20.668   0.290   3.356
87345W        W52572  22.537   5.194  12.452
87346W        W52573  18.397  38.603  11.959
87347W        W52574  10.868  38.439  14.928
87348W        W52575  19.592  41.775   1.867
87349W        W52576  44.095  25.700   0.219
87350W        W52577  11.245  14.657   1.729
87351W        W52578  42.395  11.336   0.655
87352W        W52579   2.415  18.269   1.898
87353W        W52580  40.940  31.493  13.927
87354W        W52581   3.813   5.134  11.080
87355W        W52582  33.684  13.067  10.778
87356W        W52583   6.667  35.056   4.400
87357W        W52584  24.750   8.155   1.156
87358W        W52585  44.531  43.888   0.247
87359W        W52586   4.959  25.081   1.749
87360W        W52587  29.066  17.685   4.912
87361W        W52588  21.269  15.822  12.026
87362W        W52589   7.411   0.565   2.585
87363W        W52590  15.671  28.488  11.534
87364W        W52591  29.602  37.076   1.430
87365W        W52592   8.081   0.073   4.063
87366W        W52593  38.421  43.313   4.263
87367W        W52594  36.164  13.251   4.227
87368W        W52595   9.904   3.688   2.683
87369W        W52596  14.719  39.976  14.980
87370W        W52597   6.421  24.452  13.850
87371W        W52598  24.475  24.941   0.921
87372W        W52599  29.697   1.261  10.681
87373W        W52600  34.951  34.060   4.846
87374W        W52601   5.961  24.637   1.498
87375W        W52602   1.008   8.304   2.116
87376W        W52603  21.598   7.107  14.039
87377W        W52604  14.246   4.909   1.882
87378W        W52605  36.856   2.497  13.513
87379W        W52606  44.969  29.580   1.719
87380W        W52607  16.929   0.877   2.308
87381W        W52608  23.897  16.677  11.557
87382W        W52609  43.735  44.988   0.046
87383W        W52610  34.000  24.151   3.183
87384W        W52611  35.365  40.011  10.645
87385W        W52612   1.397  41.603   2.265
87386W        W52613  25.049  12.872   4.895
87387W        W52614   0.101  43.452   4.033
87388W        W52615  18.327  16.023  11.223
87389W        W52616   0.825  40.655   2.823
87390W        W52617  13.745  29.713  13.903
87391W        W52618   7.062   6.776  14.310
87392W        W52619  44.738  17.510  12.384
87393W        W52620  30.848  15.208  12.970
87394W        W52621   4.013  24.054  13.904
87395W        W52622  40.949   7.139   2.126
87396W        W52623  42.157   1.345   3.382
87397W        W52624  42.152   7.937  12.092
87398W        W52625  34.022  24.998   0.691
87399W        W52626  22.228  18.988  14.155
87400W        W52627  16.016  14.655  13.866
87401W        W52628   2.506  41.410  10.172
87402W        W52629  28.144  15.665   0.323
87403W        W52630  17.670  41.059  11.162
87404W        W52631   1.922  38.548  13.560
87405W        W52632  44.507  31.873  11.104
87406W        W52633  20.283   1.871   0.431
87407W        W52634  38.431   1.242   2.086
87408W        W52635  41.984  31.012   1.745
87409W        W52636  21.712   7.177  14.931
87410W        W52637   5.766  36.825  14.484
87411W        W52638  12.168  32.692   2.389
87412W        W52639  41.227  26.109  11.591
87413W        W52640  29.559  22.227  14.956
87414W        W52641   1.851  18.081  12.573
87415W        W52642  30.349  20.556   3.208
87416W        W52643  31.458  18.151   4.787
87417W        W52644  39.573  18.766  11.233
87418W        W52645  16.914   9.142  13.503
87419W        W52646  40.267   9.291  10.351
87420W        W52647  34.464  27.064   4.445
87421W        W52648  30.558  28.469   0.338
87422W        W52649  16.947  40.863  12.621
87423W        W52650  12.171  10.059  14.816
87424W        W52651   9.723  37.852  10.614
87425W        W52652  39.458  21.576   3.527
87426W        W52653   6.804  41.444  10.726
87427W        W52654   4.155  27.018  12.974
87428W        W52655   0.644  25.636   0.222
87429W        W52656  33.492  10.784  11.023
87430W        W52657  23.508  33.127  13.551
87431W        W52658  27.216  29.047  12.046
87432W        W52659   9.347  11.845  13.949
87433W        W52660  14.794  13.157  14.282
87434W        W52661  43.380  39.723  12.523
87435W        W52662  36.346  38.445  11.936
87436W        W52663  36.488  32.174  12.885
87437W        W52664  20.827   1.439  10.976
87438W        W52665  29.112  11.881  13.957
87439W        W52666  39.351  33.466   1.857
87440W        W52667  26.220  34.454   0.819
87441W        W52668  17.126  32.811  12.676
87442W        W52669  23.427  37.518  13.306
87443W        W52670  10.799   6.678  14.911
87444W        W52671  17.250  38.768  14.010
87445W        W52672   1.939  15.623  14.315
87446W        W52673  31.554   0.356  11.747
87447W        W52674  44.809  38.019  10.680
87448W        W52675  41.462  20.359  11.631
87449W        W52676   8.300  25.948   4.170
87450W        W52677   8.859   3.321  12.360
87451W        W52678  16.146  34.810  13.244
87452W        W52679  22.170   8.607   3.712
87453W        W52680   4.356  14.754   1.450
87454W        W52681  39.739  25.043   4.513
87455W        W52682  39.031  24.045  13.316
87456W        W52683  14.741  38.005   2.295
87457W        W52684   6.648  21.129  14.866
87458W        W52685   6.355  11.182   2.389
87459W        W52686  26.187   7.166  11.686
87460W        W52687   5.133  17.332  10.543
87461W        W52688   6.265  20.778  14.457
87462W        W52689   9.303  20.742  14.176
87463W        W52690   3.828   1.085   1.257
87464W        W52691  28.496  26.173  11.097
87465W        W52692  35.572   5.940  14.391
87466W        W52693   2.430  41.839   0.505
87467W        W52694  16.035  42.977  14.530
87468W        W52695  23.674  21.099   0.567
87469W        W52696  26.601  17.144   3.108
87470W        W52697  33.875   4.290  13.000
87471W        W52698  29.430  29.549  11.924
87472W        W52699  36.856  31.437   4.101
87473W        W52700   2.973   0.922  14.659
87474W        W52701  16.760   0.168   0.031
87475W        W52702  12.757  25.731   0.400
87476W        W52703  12.976  23.221  11.265
87477W        W52704   5.030  39.738  13.435
87478W        W52705  10.940  33.537  13.316
87479W        W52706  16.143  37.686   0.772
87480W        W52707  13.752  44.008  13.358
87481W        W52708  43.849  38.354  12.901
87482W        W52709  29.882  31.111   0.643
87483W        W52710   7.945  40.475   2.649
87484W        W52711  26.401  33.861   0.981
87485W        W52712  23.239  32.891   2.290
87486W        W52713   9.794  43.336   4.265
87487W        W52714   0.982  39.659  13.907
87488W        W52715  36.302  23.361  11.407
87489W        W52716  15.574  41.566   0.888
87490W        W52717  26.539  21.708   1.676
87491W        W52718  39.669  35.761   4.138
87492W        W52719  29.409  28.597  14.795
87493W        W52720  28.057   3.040   1.449
87494W        W52721  20.742  23.983  13.827
87495W        W52722  42.069  37.228   1.232
87496W        W52723   0.565  29.460  13.432
87497W        W52724  15.386  40.708   3.426
87498W        W52725  28.670   1.849  12.431
87499W        W52726  33.495  34.648  14.968
87500W        W52727  36.012  43.208   0.354
87501W        W52728  13.931  31.428   2.510
87502W        W52729   8.111  17.664   3.036
87503W        W52730  27.704  42.678   2.094
87504W        W52731  30.100  24.764  13.042
87505W        W52732  13.486  21.488   1.458
87506W        W52733  14.121   1.295  12.525
87507W        W52734  36.492  17.362   1.446
87508W        W52735  19.396   7.874  10.761
87509W        W52736  24.266  18.146   0.456
87510W        W52737  40.227  22.675   2.823
87511W        W52738  38.792  26.875   4.312
87512W        W52739  15.065  43.004   4.192
87513W        W52740  16.786  33.476  13.326
87514W        W52741   4.650  17.695  12.004
87515W        W52742  17.536  17.669   1.918
87516W        W52743   3.800   6.198   3.408
87517W        W52744  12.578  25.692  10.765
87518W        W52745   5.685  23.897   2.213
87519W        W52746   5.968   5.350  12.697
87520W        W52747  44.318  11.116   1.995
87521W        W52748  31.153  28.341  13.817
87522W        W52749  29.943  28.491  12.031
87523W        W52750  25.617  35.409  14.982
87524W        W52751  40.802  44.266   0.715
87525W        W52752  10.979  26.763  11.999
87526W        W52753  15.139  29.524  12.835
87527W        W52754  16.369  28.607  12.537
87528W        W52755   5.847  15.159  14.361
87529W        W52756  28.139  30.401  11.960
87530W        W52757  11.791   2.499   2.354
87531W        W52758  11.560  44.828   1.286
87532W        W52759  37.987  29.640   4.871
87533W        W52760  36.470  10.580   2.766
87534W        W52761  33.008  41.991  13.612
87535W        W52762  43.957  41.916  11.180
87536W        W52763   4.783  11.649   1.424
87537W        W52764  34.629  27.879  12.328
87538W        W52765  30.693   3.251   0.296
87539W        W52766   2.450  36.416   3.712
87540W        W52767  13.111  29.161  12.519
87541W        W52768  19.138  14.136   1.674
87542W        W52769  22.175  27.647  12.088
87543W        W52770   7.067   9.840  14.432
87544W        W52771   6.319   6.578  11.567
87545W        W52772  20.145  10.333   4.725
87546W        W52773   4.450  12.094  11.162
87547W        W52774  18.668   9.087   3.113
87548W        W52775  24.725  29.494  11.617
87549W        W52776  11.001  19.742   3.535
87550W        W52777  32.020   9.932  11.949
87551W        W52778   5.162   8.409   3.636
87552W        W52779  24.163   6.700  11.572
87553W        W52780  21.060  43.720   1.623
87554W        W52781  37.084  34.322  13.898
87555W        W52782  36.345  25.524   1.443
87556W        W52783   6.175  20.835  13.932
87557W        W52784  32.667  16.569   5.454
87558W        W52785  11.083  23.644  10.769
87559W        W52786  34.455  41.066  14.085
87560W        W52787  31.340  11.861  10.257
87561W        W52788  20.332   6.852  13.420
87562W        W52789  20.739  33.393  13.837
87563W        W52790  22.153   7.954  14.955
87564W        W52791  41.315   9.715  14.694
87565W        W52792  22.115  13.713   3.568
87566W        W52793   4.013  19.465  14.650
87567W        W52794  18.658  33.331   2.228
87568W        W52795  21.615  10.183  12.416
87569W        W52796  21.209  40.005  14.297
87570W        W52797  39.166  13.777  10.244
87571W        W52798   2.449  34.014   3.035
87572W        W52799  31.038  11.791   0.155
87573W        W52800   3.821  17.843   1.309
87574W        W52801   4.751  20.322  14.984
87575W        W52802  23.536  21.316  14.945
87576W        W52803  18.116   1.827  14.424
87577W        W52804   1.040  38.149  14.483
87578W        W52805   0.020  11.353  12.844
87579W        W52806  32.568  37.281  13.481
87580W        W52807  36.304  43.427   3.106
87581W        W52808  14.741  31.110   3.107
87582W        W52809  44.457  26.537  13.349
87583W        W52810  29.737  44.338  13.129
87584W        W52811  30.389   0.146  12.880
87585W        W52812  17.120  41.110   1.859
87586W        W52813   5.376  38.477   0.918
87587W        W52814  15.360   1.131  12.980
87588W        W52815  32.850  33.395  14.177
87589W        W52816  33.112   3.725   4.491
87590W        W52817  26.925  36.158  13.175
87591W        W52818  23.269  37.659   0.370
87592W        W52819  12.503  26.958   1.882
87593W        W52820  25.722  18.735  14.934
87594W        W52821   3.729  31.372   2.701
87595W        W52822  21.623  28.672  11.414
87596W        W52823  18.603  19.105  11.630
87597W        W52824   1.351   8.665  10.573
87598W        W52825  16.248   3.012  13.467
87599W        W52826  15.839   6.989  12.745
87600W        W52827  17.782  33.343  14.737
87601W        W52828  10.578   2.476   4.528
87602W        W52829  26.546  14.169  11.707
87603W        W52830  18.949   5.576   0.486
87604W        W52831   6.547  11.153  10.863
87605W        W52832  16.070  28.914  14.582
87606W        W52833  41.090  37.516   1.429
87607W        W52834  28.435   7.212   4.953
87608W        W52835  25.035  31.953  11.086
87609W        W52836  18.204  29.575   0.973
87610W        W52837   7.391  25.139  11.038
87611W        W52838  16.993  15.711  12.972
87612W        W52839  17.135  25.089   1.002
87613W        W52840  16.364  37.869  12.595
87614W        W52841   5.656  15.148   3.271
87615W        W52842  29.618   1.949  14.796
87616W        W52843  18.209  12.091   3.873
87617W        W52844  43.038  39.173  11.104
87618W        W52845  25.480  44.382   4.232
87619W        W52846  40.056  41.406  13.566
87620W        W52847  41.499   5.195   4.558
87621W        W52848   9.544  12.352  12.875
87622W        W52849  26.245  41.064   0.786
87623W        W52850  39.801   7.184  12.096
87624W        W52851  44.331  18.133   0.891
87625W        W52852   5.396  29.435   4.147
87626W        W52853  41.366  32.092  11.570
87627W        W52854   0.862   6.271   0.798
87628W        W52855   7.683  31.152   4.665
87629W        W52856  17.714  38.954  10.945
87630W        W52857  27.739  14.028   0.858
87631W        W52858   6.713  14.599  14.363
87632W        W52859  20.363  28.403  12.877
87633W        W52860   2.461  24.255   4.126
87634W        W52861   5.251  35.361  13.857
87635W        W52862  19.958   6.398  12.544
87636W        W52863  26.830  16.776   3.351
87637W        W52864   2.665  29.225  13.244
87638W        W52865  25.898   4.005   1.845
87639W        W52866  23.132  32.409  13.003
87640W        W52867  23.069   3.350  11.348
87641W        W52868  10.556   9.408  11.302
87642W        W52869  44.492  13.218  13.552
87643W        W52870  17.507   6.937   0.511
87644W        W52871  29.700  15.140   0.008
87645W        W52872  30.662  34.495   4.239
87646W        W52873  24.926  43.955  14.798
87647W        W52874   2.245  34.079  12.066
87648W        W52875  43.041   9.150   2.712
87649W        W52876  19.976  29.543  14.448
87650W        W52877  39.005  35.539   0.618
87651W        W52878  43.958  33.109   1.232
87652W        W52879  23.513  23.739   4.038
87653W        W52880   9.722   1.252  11.006
87654W        W52881   8.819   4.946   3.271
87655W        W52882   9.708  10.924   2.707
87656W        W52883   9.903  40.570   0.292
87657W        W52884  32.966  29.981   4.120
87658W        W52885  41.989   3.325  10.355
87659W        W52886  33.972   0.073  12.421
87660W        W52887  42.442  23.940  11.906
87661W        W52888   5.257  30.897   3.238
87662W        W52889  23.453  14.320   4.752
87663W        W52890  31.237  12.400  14.287
87664W        W52891  43.591   8.313  11.447
87665W        W52892   4.175  25.725  12.836
87666W        W52893  21.822  19.671   1.340
87667W        W52894  27.944  16.090  10.209
87668W        W52895  11.649  19.193  14.018
87669W        W52896  37.558   1.366   1.573
87670W        W52897  40.937  16.063   4.757
87671W        W52898  38.233  19.740   2.802
87672W        W52899  16.318  11.676  10.553
87673W        W52900  13.150  23.639   4.202
87674W        W52901  34.538   2.244   4.152
87675W        W52902  21.743   9.963   3.925
87676W        W52903  41.286   9.314   4.580
87677W        W52904  22.572  29.648   1.932
87678W        W52905  34.338  21.699  13.962
87679W        W52906  33.083  41.907   2.284
87680W        W52907  34.464  39.546   1.839
87681W        W52908  20.195   9.113  11.482
87682W        W52909  25.028  17.935  12.490
87683W        W52910  32.141  22.649   1.919
87684W        W52911  20.450  20.509   2.358
87685W        W52912  20.198  11.253   3.086
87686W        W52913   8.845   5.993  13.445
87687W        W52914  26.244  16.888  13.982
87688W        W52915  18.300   1.773   0.774
87689W        W52916  12.639   6.242  11.526
87690W        W52917  20.562  37.012  10.684
87691W        W52918  23.077   7.610   0.058
87692W        W52919  43.717  20.217   2.175
87693W        W52920  13.796  44.332   5.104
87694W        W52921  34.916  28.303  11.545
87695W        W52922   1.917  27.072   0.762
87696W        W52923  10.215  34.120   3.243
87697W        W52924  29.195  31.091  14.019
87698W        W52925   3.848   6.332   4.447
87699W        W52926  30.890  23.042  10.895
87700W        W52927  25.853  13.151   3.902
87701W        W52928  22.299  38.580  14.348
87702W        W52929   7.898  38.486  14.305
87703W        W52930   6.544   8.336  12.516
87704W        W52931  18.353  34.421  14.696
87705W        W52932  19.067  12.611  12.670
87706W        W52933  27.622  42.505   4.149
87707W        W52934   6.630   5.789  11.523
87708W        W52935  41.737  10.834   1.125
87709W        W52936  22.789  26.946   2.718
87710W        W52937  37.358  39.101  14.934
87711W        W52938  35.880  30.231  13.395
87712W        W52939  15.081  32.064   1.084
87713W        W52940   6.550  42.879  10.236
87714W        W52941  16.965  20.790  13.547
87715W        W52942  13.821  21.551   0.054
87716W        W52943  27.487  21.063  13.479
87717W        W52944  37.059  13.718  14.206
87718W        W52945  39.311  16.598  13.016
87719W        W52946  40.258   9.228   2.492
87720W        W52947  20.219  27.680  13.706
87721W        W52948  28.141   1.603  11.111
87722W        W52949  24.685   1.587   3.427
87723W        W52950  28.564  24.287   1.436
87724W        W52951   2.586  13.259  13.312
87725W        W52952  36.838   4.877   0.765
87726W        W52953   5.492   3.412  12.071
87727W        W52954   4.626  14.855  11.966
87728W        W52955  34.538   8.751  12.554
87729W        W52956  22.961  42.009   0.157
87730W        W52957  14.177  18.287  13.096
87731W        W52958  40.358  39.939  13.422
87732W        W52959   9.761   9.251   3.473
87733W        W52960  22.492  17.270  13.716
87734W        W52961  24.715  41.201  14.562
87735W        W52962  24.481  20.281   1.226
87736W        W52963   1.031  10.727  11.805
87737W        W52964  14.715  34.884   4.672
87738W        W52965   0.970  33.831  11.668
87739W        W52966  42.055   3.506  13.038
87740W        W52967  35.593  30.499   1.932
87741W        W52968  40.876  11.897  14.729
87742W        W52969  10.972  22.010   3.806
87743W        W52970  12.557  15.091   4.364
87744W        W52971  15.028  44.630   2.176
87745W        W52972  10.600  26.711   3.227
87746W        W52973  19.330   2.296   1.283
87747W        W52974   6.801   5.879   1.791
87748W        W52975   1.268  24.965   4.164
87749W        W52976  20.745  42.373  13.972
87750W        W52977   4.894  18.087   1.240
87751W        W52978  38.277   9.690  12.042
87752W        W52979  40.834   9.160  12.371
87753W        W52980  13.750  11.895  11.567
87754W        W52981  31.524   4.747   3.169
87755W        W52982  35.907   7.623   3.622
87756W        W52983   4.257  43.305  11.497
87757W        W52984   1.644  15.809  10.363
87758W        W52985   4.715  12.243  10.484
87759W        W52986  23.998  19.648   1.597
87760W        W52987  41.546  32.566  10.380
87761W        W52988   3.999  36.575   2.824
87762W        W52989  14.101   8.840  12.195
87763W        W52990   2.572  19.578  10.598
87764W        W52991  31.562  11.128   0.410
87765W        W52992  44.952   1.832  13.986
87766W        W52993   4.494  30.006  12.337
87767W        W52994  22.258  21.297  13.438
87768W        W52995   9.106  29.289  12.099
87769W        W52996  27.667  26.641   2.311
87770W        W52997  33.158   3.376  13.524
87771W        W52998  42.950  19.055   2.617
87772W        W52999   6.876  24.132  10.525
87773W        W53000  32.989   0.207  11.253
87774W        W53001   6.273  31.698   2.678
87775W        W53002  17.166   0.836   3.574
87776W        W53003  20.591  43.987  12.821
87777W        W53004  14.754   0.492  12.494
87778W        W53005   4.155  10.241   0.794
87779W        W53006  39.259  38.291  12.275
87780W        W53007   4.950   3.898  14.339
87781W        W53008  14.234   2.395   2.623
87782W        W53009  10.043  26.998  13.810
87783W        W53010  10.386  34.858   2.783
87784W        W53011  31.525  27.959  11.667
87785W        W53012  42.739  35.571  11.678
87786W        W53013  21.584  26.137  14.849
87787W        W53014  25.386  43.931  10.968
87788W        W53015  22.150  33.016   0.017
87789W        W53016  41.047  42.892   0.017
87790W        W53017  19.567  22.060  12.462
87791W        W53018  37.008  31.248  14.405
87792W        W53019  24.288  27.216   1.520
87793W        W53020  24.078  24.647  11.299
87794W        W53021  40.476   4.913  10.708
87795W        W53022  11.188  12.767  13.493
87796W        W53023  40.739  10.132   2.324
87797W        W53024  11.985  37.692   5.086
87798W        W53025   2.328   0.041  12.886
87799W        W53026   5.049  36.389  14.855
87800W        W53027  11.137  14.132  11.670
87801W        W53028  16.718  43.706  13.576
87802W        W53029  13.397  44.191   2.767
87803W        W53030  19.028  26.038   0.313
87804W        W53031  12.662  39.315  12.827
87805W        W53032  35.089  24.481  12.072
87806W        W53033  11.060  29.710   5.229
87807W        W53034  36.882  38.132   3.877
87808W        W53035   0.475   0.829   2.392
87809W        W53036  10.404   9.303   2.195
87810W        W53037  16.021  19.603  12.152
87811W        W53038   6.693  16.190   1.353
87812W        W53039  21.363  27.448   4.209
87813W        W53040  32.165  25.380  13.426
87814W        W53041  38.347  25.102   2.313
87815W        W53042   3.855  17.217   1.960
87816W        W53043   8.717  31.450  13.927
87817W        W53044  18.069  22.946  11.539
87818W        W53045  25.319   8.895   2.183
87819W        W53046  25.717  29.390  10.827
87820W        W53047  19.860  40.891   1.325
87821W        W53048   7.695   6.325  11.212
87822W        W53049   0.447  16.738  14.212
87823W        W53050  18.247  40.116  11.199
87824W        W53051  17.231  39.907  12.343
87825W        W53052  41.727  40.034   2.986
87826W        W53053  20.709  24.512   4.903
87827W        W53054  37.813  12.282   2.362
87828W        W53055   9.696  17.653  13.802
87829W        W53056  23.149  23.470  11.583
87830W        W53057  12.235  22.015  13.881
87831W        W53058  37.374  28.445   3.287
87832W        W53059   4.133  16.186   3.202
87833W        W53060  39.085  40.363   0.223
87834W        W53061  23.713  16.665   2.575
87835W        W53062   7.173   0.735   4.802
87836W        W53063  18.684   8.245  12.077
87837W        W53064  17.525   7.133   1.379
87838W        W53065  24.286   7.092   0.290
87839W        W53066  29.777  43.755  11.043
87840W        W53067   5.276  20.569   0.025
87841W        W53068  29.884   4.371  10.565
87842W        W53069   1.203  31.408   3.573
87843W        W53070  21.161   9.047  10.208
87844W        W53071  10.696  14.819  12.992
87845W        W53072  16.358  31.363  14.068
87846W        W53073  43.692  26.088   4.406
87847W        W53074  41.774  31.822  14.419
87848W        W53075  16.513  31.591   1.347
87849W        W53076   4.631  29.963  10.425
87850W        W53077  40.274  33.364  12.526
87851W        W53078   7.363  35.665  13.394
87852W        W53079  16.105  37.564  14.859
87853W        W53080  21.294  36.006   1.862
87854W        W53081  22.730   8.354  11.276
87855W        W53082   1.136  39.864   2.641
87856W        W53083   4.894  23.524   3.702
87857W        W53084  36.867  24.938  12.964
87858W        W53085  22.546  18.607   0.683
87859W        W53086  11.758  27.336   2.888
87860W        W53087  32.485   0.422  11.235
87861W        W53088   0.667   1.741  14.934
87862W        W53089  23.184  11.196   4.472
87863W        W53090  24.243  25.163  14.948
87864W        W53091   1.428  34.862  12.570
87865W        W53092  11.559  17.172  12.500
87866W        W53093  29.581  42.555   0.958
87867W        W53094  26.722  34.509  13.667
87868W        W53095  11.956  26.831   2.023
87869W        W53096  13.612  13.708   3.110
87870W        W53097  41.721  25.154  13.948
87871W        W53098   2.407  16.552  14.917
87872W        W53099  33.065   9.206   2.887
87873W        W53100   9.966  34.010   2.128
87874W        W53101  35.822  12.139   2.796
87875W        W53102  25.982   3.647  14.404
87876W        W53103  17.864  25.513   0.813
87877W        W53104  26.491  16.128   3.768
87878W        W53105   1.307  16.677   4.216
87879W        W53106   8.385  41.010  14.813
87880W        W53107  34.763  35.440  10.750
87881W        W53108  42.108  21.653   1.228
87882W        W53109  22.207  31.796  12.110
87883W        W53110  24.799  32.940  14.485
87884W        W53111   6.189   6.419   3.223
87885W        W53112   3.379   2.096  11.887
87886W        W53113   1.348  33.648   2.877
87887W        W53114   8.909   4.407  14.639
87888W        W53115  13.156   1.509   0.918
87889W        W53116  13.250   5.387   0.908
87890W        W53117  35.368  20.533  14.757
87891W        W53118   7.995  36.971  11.105
87892W        W53119  24.669   9.126   3.072
87893W        W53120  18.804  35.868   2.706
87894W        W53121  37.710   7.101   4.444
87895W        W53122  32.921  10.286   1.275
87896W        W53123  31.998   8.607   4.932
87897W        W53124  34.443  22.381   2.716
87898W        W53125  31.702   8.788  10.764
87899W        W53126  10.811  15.096  12.488
87900W        W53127  40.475   0.494  10.760
87901W        W53128  37.486  22.180   2.731
87902W        W53129  17.025  41.497  10.725
87903W        W53130  14.180   0.482  13.156
87904W        W53131  40.601  31.494   2.647
87905W        W53132   7.619  37.445   1.678
87906W        W53133  41.789  27.704   3.309
87907W        W53134  16.827   5.913  11.775
87908W        W53135  11.352  15.618   4.792
87909W        W53136  16.502  29.166  11.558
87910W        W53137  35.024  20.986   0.363
87911W        W53138  25.284  31.869   1.712
87912W        W53139  13.100  12.683   1.442
87913W        W53140  10.340   2.698   0.308
87914W        W53141  32.472  17.826   9.447
87915W        W53142   6.145  26.671  11.099
87916W        W53143  19.493  16.089   2.185
87917W        W53144  33.392   0.515   3.143
87918W        W53145  38.595  39.791  10.537
87919W        W53146   3.496   9.677  13.348
87920W        W53147   2.880  11.709  11.573
87921W        W53148  24.963  28.264  14.901
87922W        W53149  11.621  10.979  11.606
87923W        W53150  38.314  31.187  11.159
87924W        W53151  37.421  25.278   0.025
87925W        W53152  21.811  36.018   1.923
87926W        W53153  30.576   8.681   4.128
87927W        W53154  22.780  40.416  10.626
87928W        W53155  43.529  22.921  14.392
87929W        W53156  40.771  31.062  10.478
87930W        W53157  23.461  29.534  12.912
87931W        W53158  27.896   7.942  14.418
87932W        W53159  15.083  38.762  11.096
87933W        W53160  25.417  35.458  12.438
87934W        W53161  41.746   6.933  14.800
87935W        W53162  33.074  43.479  14.386
87936W        W53163  12.919   5.177  14.425
87937W        W53164  17.301  17.240  14.744
87938W        W53165  16.520  30.691  12.552
87939W        W53166  29.333  37.690   1.777
87940W        W53167  33.685  34.599   3.664
87941W        W53168  19.071  23.671  11.797
87942W        W53169   8.775  30.533  11.519
87943W        W53170  39.121  23.261   9.970
87944W        W53171   4.536   2.479   1.242
87945W        W53172  31.077  23.038  13.401
87946W        W53173   8.065  14.655   2.359
87947W        W53174   8.785  28.760   1.150
87948W        W53175   0.250   5.194  10.787
87949W        W53176  40.898  16.406   0.794
87950W        W53177  15.122  22.011   0.220
87951W        W53178   5.441  32.814   2.068
87952W        W53179   3.668  22.701   4.274
87953W        W53180  41.400  15.597  11.917
87954W        W53181   2.776  37.889  14.845
87955W        W53182  12.326  35.143   0.279
87956W        W53183  17.106  38.528  14.719
87957W        W53184  36.108  10.624   0.304
87958W        W53185  29.489  25.508   0.341
87959W        W53186   1.056  18.102  14.468
87960W        W53187  13.292  35.801  12.216
87961W        W53188  37.404  27.098  11.220
87962W        W53189  31.003  11.160   0.931
87963W        W53190  34.117  19.805   4.710
87964W        W53191  14.633  24.530   2.333
87965W        W53192  11.134  30.532  13.005
87966W        W53193  11.758  10.804   4.522
87967W        W53194   0.707   7.226   4.182
87968W        W53195  15.498  17.265   0.248
87969W        W53196   8.271  22.423  11.910
87970W        W53197  19.142  21.491   1.609
87971W        W53198  25.578  13.051   0.443
87972W        W53199  34.171  40.861  14.946
87973W        W53200   2.471   8.297   2.771
87974W        W53201  24.502  19.120   3.173
87975W        W53202  15.777   2.170   1.725
87976W        W53203   1.462  27.141   1.825
87977W        W53204  24.699  22.102   0.880
87978W        W53205  21.127  41.948   0.504
87979W        W53206   2.519   6.225   0.916
87980W        W53207  14.806  15.180   2.937
87981W        W53208  15.718   0.800   4.618
87982W        W53209  30.588  25.050  11.495
87983W        W53210  35.089  42.060   3.588
87984W        W53211  39.169  44.941   0.438
87985W        W53212   9.329  17.279   3.769
87986W        W53213  37.101   1.672   2.747
87987W        W53214   0.401   0.264   0.181
87988W        W53215  31.054  24.005  13.533
87989W        W53216  24.401  14.154  14.691
87990W        W53217  26.702  33.992  11.385
87991W        W53218  26.789  20.661   0.272
87992W        W53219  37.491  41.771  13.618
87993W        W53220  14.300  26.814  14.226
87994W        W53221  41.929  34.183   1.814
87995W        W53222  44.580  30.864  12.841
87996W        W53223  17.702  31.211   2.215
87997W        W53224  38.291  32.556   2.466
87998W        W53225  16.702   6.635  12.958
87999W        W53226   3.362  11.340  13.603
88000W        W53227   5.435   8.058   1.403
88001W        W53228  22.084  41.373  12.380
88002W        W53229  19.292  27.571  13.400
88003W        W53230  33.490  37.605   3.208
88004W        W53231  44.903  10.211   0.981
88005W        W53232  29.830  22.680  10.626
88006W        W53233  16.366  33.907   0.817
88007W        W53234  35.340  15.453   0.034
88008W        W53235  15.769  28.767  11.976
88009W        W53236  23.942  38.855   4.065
88010W        W53237  13.071  12.725  14.508
88011W        W53238  21.170  15.239  11.427
88012W        W53239  27.654  23.237  11.106
88013W        W53240  19.668  21.419   0.928
88014W        W53241  23.290  13.710   4.259
88015W        W53242  27.517  22.648  14.776
88016W        W53243  35.856  15.085  10.526
88017W        W53244  35.171  38.408   2.383
88018W        W53245  41.042  13.432  11.511
88019W        W53246   5.567  32.338  14.484
88020W        W53247  33.445  10.248   1.337
88021W        W53248  21.842  32.018   4.384
88022W        W53249  20.365  32.135  11.632
88023W        W53250  25.449  42.966   0.044
88024W        W53251   6.553  23.276   4.458
88025W        W53252  17.312   3.565   2.196
88026W        W53253  20.897  38.700   1.743
88027W        W53254  17.081  13.714  13.415
88028W        W53255  27.636  22.128   2.836
88029W        W53256   3.570  23.273  12.744
88030W        W53257  41.342  15.869  14.743
88031W        W53258  37.631  29.752   2.726
88032W        W53259   5.441  33.160  11.609
88033W        W53260  17.067   8.380   3.706
88034W        W53261  30.072   2.900  10.671
88035W        W53262  34.971  14.148  11.290
88036W        W53263  26.535  33.867   3.692
88037W        W53264  33.472  31.605   2.448
88038W        W53265  29.660  25.475   2.772
88039W        W53266  26.215  40.767  13.612
88040W        W53267  27.833  13.383  10.969
88041W        W53268   8.075  15.276  13.485
88042W        W53269  15.814  33.485   2.385
88043W        W53270  17.508  16.511   4.521
88044W        W53271   9.720   3.400  14.879
88045W        W53272  44.707   1.057   2.778
88046W        W53273  37.866  40.760   4.609
88047W        W53274  33.628  19.120   0.680
88048W        W53275  43.260  42.078  12.978
88049W        W53276  36.555   7.341   3.578
88050W        W53277  35.400   8.347  13.495
88051W        W53278  11.863   8.696   3.127
88052W        W53279   1.957  11.129   2.876
88053W        W53280   0.399  35.213   3.773
88054W        W53281  16.915  21.959  13.924
88055W        W53282  43.894  14.763  10.633
88056W        W53283  24.969  26.922  14.480
88057W        W53284  22.946  19.484  14.901
88058W        W53285   9.212  35.181   1.511
88059W        W53286  37.905  36.993  14.310
88060W        W53287  44.079  22.660   3.860
88061W        W53288  15.694  43.440  14.958
88062W        W53289  31.966  18.187   3.994
88063W        W53290  18.549  10.863   0.739
88064W        W53291  17.778  24.136  12.523
88065W        W53292  26.665   6.936  12.523
88066W        W53293  12.367  20.998   4.218
88067W        W53294  16.798   1.380   2.039
88068W        W53295  26.206   4.234   0.940
88069W        W53296  13.887  29.539   3.317
88070W        W53297  19.768  43.861  12.398
88071W        W53298  22.081  30.124  14.454
88072W        W53299  29.130   8.950   1.846
88073W        W53300  34.048   4.405  14.347
88074W        W53301  11.288  11.092   0.504
88075W        W53302  38.826   2.476  11.898
88076W        W53303  26.093  44.359   3.537
88077W        W53304  13.458  32.953   3.378
88078W        W53305  16.882  22.806   1.144
88079W        W53306   5.346   2.701  13.490
88080W        W53307  42.890  44.718   4.537
88081W        W53308  10.510  29.463   2.531
88082W        W53309   8.450  35.176  12.685
88083W        W53310   8.725  20.730  11.154
88084W        W53311   3.775  27.076   0.456
88085W        W53312   7.194   4.563   2.661
88086W        W53313  12.287  16.180  12.576
88087W        W53314   7.698  18.273   1.426
88088W        W53315  32.471  44.037  11.444
88089W        W53316  11.862  29.717  11.226
88090W        W53317  11.336   3.276  14.268
88091W        W53318   8.772  18.567  13.589
88092W        W53319   0.954  42.227   3.638
88093W        W53320   7.915  41.354   2.779
88094W        W53321  27.687  16.776  12.355
88095W        W53322  38.525  33.538  14.029
88096W        W53323  40.345  32.371   1.847
88097W        W53324  33.422  26.461   2.787
88098W        W53325  24.699  27.450   0.781
88099W        W53326  40.833   3.797   3.111
88100W        W53327  29.545  44.262   1.361
88101W        W53328   1.309   3.187  11.234
88102W        W53329  10.783  25.233   4.401
88103W        W53330  12.698   5.859  14.261
88104W        W53331   0.790  36.583   4.098
88105W        W53332  44.466  22.617  13.454
88106W        W53333  21.189  12.394   4.697
88107W        W53334  42.459  18.929   4.150
88108W        W53335  43.257  11.805  14.502
88109W        W53336  31.367  40.408   3.354
88110W        W53337  27.665   2.945   4.465
88111W        W53338   3.737  25.963  14.408
88112W        W53339  42.452   2.839  12.371
88113W        W53340   7.812  26.033   3.076
88114W        W53341  44.135  24.660  12.599
88115W        W53342  36.983  24.679  12.398
88116W        W53343  22.799  10.872  13.544
88117W        W53344   6.772  40.002   4.622
88118W        W53345   0.564  22.664   5.379
88119W        W53346  42.411  35.134   1.823
88120W        W53347   2.194  22.026  12.686
88121W        W53348  36.136  11.747   0.902
88122W        W53349  39.910   7.858   2.648
88123W        W53350  19.615  19.330  11.990
88124W        W53351  24.212   7.271  13.423
88125W        W53352   5.971   1.306   4.742
88126W        W53353   4.448   3.852  14.300
88127W        W53354  34.120  19.026   2.270
88128W        W53355  12.687  10.463  13.920
88129W        W53356  10.506  33.805   3.603
88130W        W53357  24.870  22.237  11.081
88131W        W53358  20.152   9.158  12.569
88132W        W53359  18.551  18.306   1.255
88133W        W53360  23.205  17.206  12.565
88134W        W53361   9.045  32.381  14.434
88135W        W53362  39.424  28.953   0.235
88136W        W53363  13.422  42.385   1.663
88137W        W53364  38.598   4.779  13.509
88138W        W53365  29.531  26.013   0.245
88139W        W53366   4.843  25.425   5.045
88140W        W53367   4.910  42.576  14.899
88141W        W53368  23.808  14.699   4.030
88142W        W53369  40.019   4.953   1.836
88143W        W53370  14.193  37.669  12.503
88144W        W53371  13.037  38.466  11.970
88145W        W53372  27.321  20.692   3.011
88146W        W53373  14.058  24.074   5.022
88147W        W53374  37.354  16.840  10.568
88148W        W53375  23.838  36.489  13.436
88149W        W53376  21.517  31.884  11.062
88150W        W53377  16.602  35.309  12.962
88151W        W53378  20.633  29.978  11.695
88152W        W53379   0.251  15.150   4.061
88153W        W53380  43.190  27.938   5.025
88154W        W53381   3.035  21.702  10.403
88155W        W53382  40.598  22.711   2.187
88156W        W53383  28.400  39.131   2.346
88157W        W53384  37.193  28.975   3.826
88158W        W53385  31.026  13.870   1.284
88159W        W53386  21.257   2.203  10.152
88160W        W53387  24.505  36.993   3.377
88161W        W53388   1.953  36.428   1.963
88162W        W53389  32.981   0.711  13.737
88163W        W53390  40.499  21.590   4.617
88164W        W53391  35.488  34.882   3.496
88165W        W53392  12.746  21.315  11.583
88166W        W53393  10.916   0.942   3.651
88167W        W53394  37.364  23.735  11.113
88168W        W53395   4.709  31.181  13.493
88169W        W53396  38.355   6.355   0.694
88170W        W53397  11.788   9.808   2.244
88171W        W53398  43.387   0.308   2.830
88172W        W53399   4.782  12.358  11.798
88173W        W53400  13.155   7.994   4.682
88174W        W53401  37.017  15.275   4.412
88175W        W53402  15.577  35.111  11.028
88176W        W53403  10.393   9.875  11.142
88177W        W53404  27.639  28.112  14.422
88178W        W53405  33.732  35.516  14.710
88179W        W53406  40.864  33.144  10.558
88180W        W53407  30.356  16.176   4.758
88181W        W53408  19.453  32.062   0.323
88182W        W53409  26.077  26.009  12.125
88183W        W53410  24.751  44.311   3.667
88184W        W53411  10.763  25.412   1.971
88185W        W53412   1.814   7.214   1.059
88186W        W53413  39.094   1.233  13.368
88187W        W53414  41.389  11.088  12.889
88188W        W53415   4.828   8.718  11.193
88189W        W53416  14.675  37.234   1.886
88190W        W53417  10.686  26.743  12.417
88191W        W53418  20.499  12.774   3.212
88192W        W53419  11.091  40.314  13.542
88193W        W53420  27.203  29.405   2.944
88194W        W53421   0.871  23.490  11.032
88195W        W53422  24.516  16.802  14.540
88196W        W53423  43.083  13.273   3.676
88197W        W53424  23.446  27.699  14.338
88198W        W53425  15.186  43.480   4.019
88199W        W53426  43.973  34.141  13.832
88200W        W53427   4.931  44.780   3.311
88201W        W53428  17.710  14.718  12.518
88202W        W53429  23.915  39.567  12.933
88203W        W53430  20.445   0.284  14.319
88204W        W53431  23.353   9.166   1.349
88205W        W53432  20.362   4.848  10.890
88206W        W53433  36.721  17.073  11.992
88207W        W53434   1.981  13.231   0.249
88208W        W53435  31.415  43.849   1.425
88209W        W53436   9.880  41.600  12.932
88210W        W53437  15.687  10.124  12.905
88211W        W53438  35.446  42.941  14.375
88212W        W53439  42.982  30.141  14.089
88213W        W53440  14.626  35.890   0.757
88214W        W53441  25.637  19.385  10.514
88215W        W53442   7.033  21.991   2.837
88216W        W53443  42.768   6.590   3.277
88217W        W53444  41.284  38.906  14.887
88218W        W53445   1.391  18.076   1.448
88219W        W53446  27.682  44.496  13.016
88220W        W53447   4.510   3.979   3.886
88221W        W53448  37.010  18.985  12.018
88222W        W53449  27.973  44.767  11.097
88223W        W53450   7.823  29.344   5.081
88224W        W53451  32.194   0.292   4.118
88225W        W53452   3.893  42.337   0.972
88226W        W53453  23.236  38.888  10.991
88227W        W53454  15.324  39.904  11.951
88228W        W53455  37.261  30.484   3.286
88229W        W53456  33.479   6.868   0.410
88230W        W53457   0.445  32.610  12.859
88231W        W53458  14.090   4.370  11.923
88232W        W53459   6.226  24.464   1.912
88233W        W53460  34.238  12.156  13.890
88234W        W53461  22.567  38.302   3.687
88235W        W53462  16.389   2.415   3.827
88236W        W53463   8.300  22.287  10.507
88237W        W53464  29.835  35.083  11.692
88238W        W53465   8.756  44.788   4.772
88239W        W53466   3.007  21.099  12.891
88240W        W53467   5.043  18.319  13.769
88241W        W53468  28.416  35.389   4.553
88242W        W53469  38.842   2.229   4.206
88243W        W53470  12.904  18.867  11.711
88244W        W53471  18.725  10.433  14.726
88245W        W53472  11.270   3.221   2.471
88246W        W53473  25.201   1.440  14.390
88247W        W53474  16.332  19.134  13.065
88248W        W53475   8.427  37.608   5.003
88249W        W53476  20.265  17.322  13.491
88250W        W53477  42.854  29.328   3.273
88251W        W53478  12.729  36.760   2.279
88252W        W53479  37.849   0.952   3.754
88253W        W53480  37.053  25.090   1.625
88254W        W53481  17.726  41.548  11.837
88255W        W53482  28.876  28.272  11.162
88256W        W53483  15.971  31.060   3.382
88257W        W53484  12.887   9.085  11.229
88258W        W53485  17.518  12.815   3.255
88259W        W53486  42.563  11.810   0.714
88260W        W53487  18.234  15.714  14.894
88261W        W53488   2.484  18.687  13.513
88262W        W53489  11.762   9.618  11.965
88263W        W53490  17.285  41.384  11.599
88264W        W53491  28.395  38.461   3.747
88265W        W53492   5.989   7.501   5.026
88266W        W53493   5.128  23.802  11.653
88267W        W53494  15.828  40.819  12.000
88268W        W53495  26.179   5.638  14.747
88269W        W53496  23.410  11.800  13.254
88270W        W53497  16.294  12.305  12.959
88271W        W53498   4.809  44.807  11.531
88272W        W53499  43.588  36.410   2.810
88273W        W53500  25.083   5.370  10.268
88274W        W53501  41.964  31.948  12.939
88275W        W53502  22.700   3.542   1.238
88276W        W53503   2.909  32.104  12.810
88277W        W53504  10.680  36.159   1.647
88278W        W53505   0.285   3.373  11.964
88279W        W53506   4.594  35.048   0.370
88280W        W53507  38.063  24.515  12.164
88281W        W53508  35.974  26.500   3.698
88282W        W53509  21.122  41.813   2.452
88283W        W53510  17.082  29.205   2.885
88284W        W53511  44.223  33.045   3.450
88285W        W53512  10.893  13.014   4.157
88286W        W53513  31.843  40.319  13.606
88287W        W53514   0.711  12.457   4.485
88288W        W53515  41.218  23.506  13.259
88289W        W53516   1.038   3.785   1.910
88290W        W53517   6.398  36.892  12.485
88291W        W53518  18.582  38.175  13.047
88292W        W53519   1.011  24.521   4.111
88293W        W53520  25.643  19.678  14.356
88294W        W53521  39.984  35.437   3.887
88295W        W53522  19.943  24.896  12.326
88296W        W53523  16.994  24.267   4.119
88297W        W53524  16.764   7.422  14.089
88298W        W53525  29.811  44.476   0.883
88299W        W53526  33.464  11.384  11.162
88300W        W53527   1.935  40.488  14.818
88301W        W53528  41.992   2.595   1.364
88302W        W53529   6.657  18.860  12.878
88303W        W53530   4.906   8.863   1.183
88304W        W53531  30.402   1.260   2.863
88305W        W53532  29.107  35.290   0.356
88306W        W53533   7.154  24.166  13.396
88307W        W53534  31.125  14.117  14.444
88308W        W53535  10.625  31.282   3.243
88309W        W53536  41.396  25.488  14.882
88310W        W53537  34.489  26.636  11.167
88311W        W53538   3.230  21.908   3.319
88312W        W53539  38.980  14.249   2.150
88313W        W53540  35.123  20.056  12.616
88314W        W53541   7.639  39.582   4.191
88315W        W53542  38.890  11.716  14.488
88316W        W53543  14.761  43.455   0.835
88317W        W53544  37.785  34.810  11.649
88318W        W53545  25.616   9.815   4.320
88319W        W53546  27.932  30.217  11.526
88320W        W53547  21.170  12.872  11.693
88321W        W53548  17.538  24.026  13.897
88322W        W53549  29.985   1.795  12.993
88323W        W53550  42.115  32.457  13.119
88324W        W53551  37.887  39.567  14.123
88325W        W53552   8.775  33.464  12.685
88326W        W53553   7.178  30.787   3.371
88327W        W53554  21.659  12.891   1.291
88328W        W53555  23.923  42.594  11.083
88329W        W53556  31.556  21.957   3.075
88330W        W53557  22.925  19.212   0.903
88331W        W53558  17.156  39.788   1.355
88332W        W53559   2.274  33.544   3.754
88333W        W53560   2.324  14.280  11.168
88334W        W53561  25.966  23.316  12.459
88335W        W53562  14.730   3.854  11.603
88336W        W53563  31.129  19.058   2.433
88337W        W53564  38.465  28.516  11.194
88338W        W53565   3.853  14.779   1.286
88339W        W53566  18.261  18.275   0.494
88340W        W53567   1.249  11.782   0.420
88341W        W53568  33.905   2.225  13.592
88342W        W53569  22.984  10.547  13.211
88343W        W53570   6.233  11.226   4.373
88344W        W53571  17.988  15.727  13.020
88345W        W53572  13.837   2.844   1.708
88346W        W53573   6.014  36.505  12.585
88347W        W53574  25.109   3.971  13.556
88348W        W53575  19.374  43.822   3.781
88349W        W53576   2.290   5.434  13.044
88350W        W53577  23.112  28.929  14.003
88351W        W53578  15.779  16.607   3.741
88352W        W53579   3.973  30.986   0.306
88353W        W53580  12.797  34.179   4.578
88354W        W53581   2.851   5.434  11.638
88355W        W53582  42.743  38.496  14.424
88356W        W53583  32.370  30.916  11.486
88357W        W53584  26.646   0.533   3.979
88358W        W53585  44.153  38.617   5.039
88359W        W53586   5.498  12.273   4.681
88360W        W53587  36.595   5.188   2.801
88361W        W53588  41.891  38.940   4.541
88362W        W53589  40.949  34.338  11.183
88363W        W53590  11.782  38.963  12.438
88364W        W53591  20.570  22.816   0.607
88365W        W53592  27.490  29.328   1.848
88366W        W53593   7.698  17.266   0.380
88367W        W53594  11.197  37.410   4.619
88368W        W53595  32.719  23.210  12.919
88369W        W53596  10.320  17.657  12.957
88370W        W53597  31.987  39.123   3.976
88371W        W53598   6.516   1.293   0.320
88372W        W53599  24.687  32.401  11.723
88373W        W53600   5.054   1.522  11.490
88374W        W53601  22.745  10.673   0.279
88375W        W53602  23.440  19.187   0.883
88376W        W53603  26.287  40.476  12.530
88377W        W53604  28.884  36.880   2.809
88378W        W53605  40.452   4.192   0.782
88379W        W53606   8.737   0.449  11.950
88380W        W53607  32.888  41.771   3.766
88381W        W53608  35.582   9.630  12.417
88382W        W53609  30.474   5.294  12.989
88383W        W53610  32.387  22.065  11.585
88384W        W53611  41.327  24.118  12.657
88385W        W53612   8.462   3.768  10.686
88386W        W53613  41.545   1.514   4.170
88387W        W53614  37.935  22.774   1.838
88388W        W53615  44.231  12.648   0.449
88389W        W53616   8.856   7.406  12.356
88390W        W53617  23.471  41.346  11.903
88391W        W53618  34.716  34.500  14.428
88392W        W53619  15.817  14.600   2.329
88393W        W53620  31.185  12.369   4.517
88394W        W53621  26.682  16.047  13.580
88395W        W53622   9.461  20.123  10.926
88396W        W53623  15.788  21.976  12.152
88397W        W53624  23.772  31.618  10.585
88398W        W53625   9.743  30.906   4.486
88399W        W53626   8.466  42.869   0.700
88400W        W53627  41.256   4.794  14.008
88401W        W53628   5.721  29.537  11.614
88402W        W53629  32.884   9.265  10.927
88403W        W53630  28.549  23.106   3.333
88404W        W53631  21.212   9.659  11.076
88405W        W53632   4.116  39.063   4.235
88406W        W53633  25.564  42.319  13.274
88407W        W53634  24.155  32.883   2.375
88408W        W53635  20.591  30.660  11.159
88409W        W53636   3.829  30.469   0.371
88410W        W53637  38.280  10.961  13.547
88411W        W53638  32.877  11.979  12.151
88412W        W53639  27.564   4.961  11.204
88413W        W53640   9.573   5.913   2.218
88414W        W53641   0.429   7.925  11.231
88415W        W53642  20.480  38.774   0.880
88416W        W53643  35.657  31.204  13.090
88417W        W53644  28.005   2.197   2.783
88418W        W53645  29.545  18.525  12.573
88419W        W53646   5.462  13.410   1.725
88420W        W53647  33.039  35.114   1.171
88421W        W53648   7.849  25.568  14.452
88422W        W53649  14.116   3.249   2.330
88423W        W53650  26.023  16.864  12.099
88424W        W53651  33.107   5.786  12.640
88425W        W53652  34.903  38.088   3.256
88426W        W53653  44.129  27.246   9.574
88427W        W53654  16.631  14.474  14.004
88428W        W53655  31.575  39.456   5.021
88429W        W53656   2.962  12.127  12.211
88430W        W53657   5.273  39.566  14.073
88431W        W53658  18.617  41.016   0.961
88432W        W53659  44.168  14.151  13.350
88433W        W53660  43.813  17.283  14.021
88434W        W53661   9.853  29.138  14.793
88435W        W53662  32.774   2.735   0.981
88436W        W53663   7.473   4.873   4.042
88437W        W53664  14.681  13.273  13.272
88438W        W53665  33.685  12.517   9.757
88439W        W53666  19.100   5.344   3.121
88440W        W53667  29.250  37.173   1.836
88441W        W53668  44.333   2.441  10.648
88442W        W53669  34.936  36.893  10.602
88443W        W53670  34.038  27.124   3.070
88444W        W53671  23.913  35.410   4.079
88445W        W53672  42.965  25.713   3.733
88446W        W53673   4.354  35.460  14.582
88447W        W53674  42.323  34.108  13.431
88448W        W53675  41.702   4.411  13.339
88449W        W53676   4.978  36.079   2.724
88450W        W53677  20.028  14.870   2.840
88451W        W53678  34.618   3.324   3.213
88452W        W53679  21.545  11.259   3.788
88453W        W53680  27.702  35.509  12.965
88454W        W53681  32.509  20.542  14.875
88455W        W53682  23.788  42.453   1.168
88456W        W53683  25.572  43.463  14.878
88457W        W53684  40.605   3.765   2.211
88458W        W53685  24.390  41.946   2.610
88459W        W53686   1.971  42.353  14.713
88460W        W53687  42.981  34.023  11.395
88461W        W53688  29.497  22.501   4.605
88462W        W53689  11.422  28.722   3.656
88463W        W53690  24.567  16.348  14.800
88464W        W53691  28.725  12.638   1.494
88465W        W53692  11.063  33.878   3.478
88466W        W53693   2.879  32.800  13.371
88467W        W53694  15.300  11.297   2.794
88468W        W53695  26.535  26.155  11.297
88469W        W53696   0.925   4.331  11.078
88470W        W53697  14.610  40.116  12.460
88471W        W53698  10.162  16.332   3.897
88472W        W53699  31.107  22.128  10.837
88473W        W53700  13.699   7.565  12.552
88474W        W53701   1.730  10.104   1.030
88475W        W53702  44.182   2.239   3.718
88476W        W53703  21.801  26.057  13.802
88477W        W53704  40.377  17.969   4.601
88478W        W53705  43.297   2.275  14.321
88479W        W53706  10.741  11.040   2.265
88480W        W53707  35.624  31.575   0.404
88481W        W53708   3.753  38.857  10.723
88482W        W53709  15.293   3.688  11.641
88483W        W53710  21.705   3.370  13.926
88484W        W53711   5.923   9.424   1.376
88485W        W53712   7.179  27.380   2.732
88486W        W53713  34.036  30.707  12.161
88487W        W53714  19.841  24.096  10.805
88488W        W53715  33.441  18.206  11.010
88489W        W53716  26.680  33.036   4.176
88490W        W53717  41.165  13.052   2.741
88491W        W53718  29.918   7.673  14.826
88492W        W53719  16.176   5.781   3.244
88493W        W53720   7.970  26.773  13.007
88494W        W53721   0.969   7.164  11.103
88495W        W53722   3.756  38.817  11.767
88496W        W53723  19.152   8.892   3.311
88497W        W53724  37.106   2.511  13.979
88498W        W53725   9.290  12.881   2.595
88499W        W53726  44.280  11.230   5.253
88500W        W53727   7.924  38.121   4.174
88501W        W53728  16.559  30.868  12.038
88502W        W53729  11.183   4.813  14.923
88503W        W53730  26.996   5.390  12.402
88504W        W53731  26.643  22.016  10.686
88505W        W53732  39.292  26.652  11.093
88506W        W53733  20.370   6.861   3.151
88507W        W53734  17.680   6.771  11.243
88508W        W53735   7.955   8.184   0.893
88509W        W53736  10.233  30.904  14.772
88510W        W53737  27.403   3.597   1.934
88511W        W53738  40.756   9.407  10.554
88512W        W53739  17.230  42.656  12.898
88513W        W53740   3.427   9.332  10.644
88514W        W53741  42.752   8.818  10.657
88515W        W53742  33.548   0.020  14.291
88516W        W53743  27.540  44.387  14.575
88517W        W53744  33.997  17.837   3.269
88518W        W53745  26.152  42.815  10.277
88519W        W53746   5.351  34.206   0.683
88520W        W53747   0.896  40.872  10.753
88521W        W53748  38.009  16.482  14.346
88522W        W53749  36.605  24.170  11.151
88523W        W53750  25.619   0.287  12.439
88524W        W53751  15.852  19.125  12.218
88525W        W53752  22.661   7.356   1.644
88526W        W53753  20.194  14.187  11.787
88527W        W53754  19.252  21.015   3.273
88528W        W53755  32.781   9.820   4.142
88529W        W53756  23.506  27.829   1.141
88530W        W53757   3.336  35.545  13.200
88531W        W53758  34.881  25.346  13.883
88532W        W53759  18.733  42.445  12.147
88533W        W53760  38.385  19.085  11.868
88534W        W53761  33.524   5.951  14.996
88535W        W53762  22.632  34.948   3.213
88536W        W53763   2.333  36.190  10.291
88537W        W53764  40.373  22.490   0.703
88538W        W53765  39.157  44.836   0.977
88539W        W53766  27.526  12.943   1.757
88540W        W53767  42.602   3.317   4.514
88541W        W53768  18.802  24.545   1.754
88542W        W53769  21.226  39.103   1.818
88543W        W53770  36.994  11.152   1.288
88544W        W53771   0.756  21.622   1.722
88545W        W53772   4.432  44.001   1.724
88546W        W53773  11.614   7.601  10.990
88547W        W53774  24.241  17.674   0.720
88548W        W53775  33.207   9.730  11.507
88549W        W53776   3.945  10.770   4.130
88550W        W53777  11.258  24.959  13.386
88551W        W53778  34.946  31.047  10.432
88552W        W53779  21.815  32.112   4.897
88553W        W53780  39.845   8.336   4.979
88554W        W53781  38.852  13.762   1.440
88555W        W53782  42.953  31.562  10.513
88556W        W53783  40.917  44.459   4.658
88557W        W53784  15.344  25.939   1.239
88558W        W53785  27.219  23.674   0.248
88559W        W53786   9.624  22.610   2.396
88560W        W53787  29.088  14.735   1.773
88561W        W53788   1.945  19.312  14.384
88562W        W53789  31.378  38.296  11.600
88563W        W53790  42.877  27.039  11.451
88564W        W53791   4.400  33.520   0.238
88565W        W53792  15.191  29.480  10.807
88566W        W53793  13.229   3.920   4.768
88567W        W53794  35.071   7.720  13.015
88568W        W53795   1.963   8.392   3.608
88569W        W53796  21.119  43.954  11.233
88570W        W53797  28.456  17.587   3.239
88571W        W53798  28.660  20.290   0.443
88572W        W53799  23.576  17.617  11.444
88573W        W53800   4.094  33.329   4.235
88574W        W53801  40.691  25.968  10.615
88575W        W53802  24.928  18.134   3.004
88576W        W53803  42.353  13.313  12.233
88577W        W53804  17.740   9.956  11.608
88578W        W53805  14.199  30.054   4.354
88579W        W53806  39.753   7.060  11.205
88580W        W53807  15.329  36.031   1.859
88581W        W53808  42.250  36.658   0.391
88582W        W53809   6.184  43.184   2.669
88583W        W53810  43.859   0.423   3.761
88584W        W53811  18.095   5.654   1.815
88585W        W53812  28.735  39.465   0.839
88586W        W53813  26.873  12.145   4.547
88587W        W53814   4.524   9.385  14.200
88588W        W53815  18.657  11.355   2.217
88589W        W53816  32.523  24.736  12.414
88590W        W53817  36.610  21.602  14.772
88591W        W53818  23.287   5.684   2.921
88592W        W53819  44.898  42.551  10.584
88593W        W53820  26.675   4.888   1.249
88594W        W53821  16.530  25.555   4.003
88595W        W53822  11.475  17.979   9.950
88596W        W53823   6.251  33.162   0.286
88597W        W53824  35.414  23.748   2.334
88598W        W53825  24.723  44.361  14.542
88599W        W53826  37.066   7.427   0.735
88600W        W53827  28.057  35.175  10.518
88601W        W53828   2.019  24.034   2.244
88602W        W53829  38.944  16.395  11.063
88603W        W53830  12.192   7.656  12.896
88604W        W53831  31.309   2.442  14.793
88605W        W53832  13.087  37.589   1.483
88606W        W53833  32.651  42.046  11.688
88607W        W53834  20.047   9.807   4.634
88608W        W53835  42.053  28.014  10.803
88609W        W53836  35.700  43.375   1.787
88610W        W53837   8.292   0.919   4.098
88611W        W53838  35.419  41.172  13.876
88612W        W53839  43.218   7.337   2.227
88613W        W53840  27.559  29.200  12.881
88614W        W53841  27.080  41.826   0.803
88615W        W53842  31.521   4.696  13.866
88616W        W53843  10.741  14.841  14.926
88617W        W53844  17.007  44.762   0.251
88618W        W53845   1.740   8.913  12.351
88619W        W53846  37.342  23.847   0.710
88620W        W53847  10.470  14.386   1.092
88621W        W53848  24.009   2.938   5.082
88622W        W53849  19.568  27.184  12.112
88623W        W53850  22.649  22.801  14.443
88624W        W53851  28.899  21.035   3.696
88625W        W53852  26.992  28.575  12.612
88626W        W53853  28.540  39.156  13.785
88627W        W53854   1.312  30.078   3.835
88628W        W53855  13.310  35.818  14.551
88629W        W53856  20.908  19.722  11.453
88630W        W53857  14.148  16.410  13.990
88631W        W53858  11.787  43.718   0.713
88632W        W53859  41.482   0.211   5.058
88633W        W53860  26.930  20.614   1.259
88634W        W53861  23.353   8.366   4.095
88635W        W53862  38.847  30.884   4.111
88636W        W53863   1.616  39.087  11.497
88637W        W53864   4.235  39.498   1.900
88638W        W53865  40.088   6.178   0.096
88639W        W53866  22.178   7.754  13.107
88640W        W53867  42.496  43.447  10.640
88641W        W53868  25.473  37.553  11.133
88642W        W53869  10.848   7.781  13.377
88643W        W53870  16.234   8.383   2.893
88644W        W53871  22.505  23.826   2.413
88645W        W53872   6.630  41.375  11.220
88646W        W53873   8.131  20.191   3.197
88647W        W53874  42.396   0.416  11.610
88648W        W53875   2.804   4.723   0.205
88649W        W53876  20.499   2.813   3.146
88650W        W53877   6.649  17.824  12.860
88651W        W53878  35.166  26.095   1.142
88652W        W53879   6.977  13.208  12.759
88653W        W53880  37.462  22.994  11.929
88654W        W53881   6.604   9.011  11.750
88655W        W53882  10.675  16.648   2.225
88656W        W53883  37.138  17.753  11.642
88657W        W53884  33.030  29.237  12.464
88658W        W53885   1.494  26.219  14.536
88659W        W53886  20.258  43.114  13.409
88660W        W53887   9.579  33.631  10.245
88661W        W53888  34.038   3.978  10.528
88662W        W53889  20.084  24.072   2.568
88663W        W53890  22.482  17.695  12.634
88664W        W53891  35.564  27.721   1.547
88665W        W53892   1.460  17.827  11.559
88666W        W53893   7.336   7.524  14.875
88667W        W53894  20.080   1.783  14.410
88668W        W53895  29.873  23.664   4.721
88669W        W53896  26.050  37.234   1.270
88670W        W53897  36.382  23.069  10.581
88671W        W53898   7.213  26.722   3.643
88672W        W53899  31.822  33.774  14.433
88673W        W53900  16.256  22.241   2.764
88674W        W53901  44.924   7.381   0.397
88675W        W53902  19.476   1.754  11.048
88676W        W53903  44.028   8.988  13.870
88677W        W53904  25.645  16.042  10.587
88678W        W53905  12.023   8.729  10.428
88679W        W53906  29.560  40.271   1.284
88680W        W53907  29.363  35.543   2.687
88681W        W53908  31.866  35.293  10.811
88682W        W53909  16.921   0.823   4.073
88683W        W53910  30.319   3.722  12.614
88684W        W53911  12.232  22.340   4.755
88685W        W53912  10.431  24.766  13.786
88686W        W53913   7.220  40.787   2.397
88687W        W53914  44.963  26.793   2.697
88688W        W53915  19.347  25.069   2.277
88689W        W53916  13.794  12.300  11.045
88690W        W53917  26.482  37.475  10.989
88691W        W53918  39.375   9.940   1.712
88692W        W53919   1.227  35.443  13.917
88693W        W53920  22.615  29.641   2.477
88694W        W53921  11.746  28.155  10.672
88695W        W53922  38.715  17.668  11.486
88696W        W53923  44.273  34.008   1.372
88697W        W53924   2.839  12.301   3.005
88698W        W53925  16.466  11.709  11.064
88699W        W53926   7.847  27.499  14.738
88700W        W53927  26.942   3.999  13.002
88701W        W53928  36.014  22.587  13.273
88702W        W53929   3.152   0.229   1.085
88703W        W53930  16.406  29.848  12.779
88704W        W53931   5.714  44.719   1.721
88705W        W53932  13.826  11.376  11.603
88706W        W53933  35.441  36.436   4.596
88707W        W53934  22.067  11.209   3.769
88708W        W53935   2.149  13.131   1.672
88709W        W53936  27.206  12.229  12.619
88710W        W53937  21.117  22.056  11.056
88711W        W53938  16.324  22.263   0.875
88712W        W53939  44.405  15.324  12.882
88713W        W53940  22.706  15.886  14.477
88714W        W53941  40.078  35.174   3.036
88715W        W53942  32.067   0.056  11.971
88716W        W53943  39.704  37.374  12.077
88717W        W53944  37.022   8.122   1.542
88718W        W53945  11.823  23.982  10.630
88719W        W53946  23.687  33.677   1.961
88720W        W53947  10.263  21.992   2.664
88721W        W53948  17.140  15.902   2.850
88722W        W53949   3.779  33.009   0.652
88723W        W53950  40.702  30.477   4.245
88724W        W53951  31.122  32.363   2.390
88725W        W53952  29.690   9.189  11.215
88726W        W53953  25.532  16.748  13.106
88727W        W53954  32.129  12.350   1.470
88728W        W53955  15.768  43.011  14.053
88729W        W53956   9.855  29.465   2.627
88730W        W53957  12.846   3.712   1.790
88731W        W53958  19.189  23.149   4.570
88732W        W53959  31.205   1.148   3.800
88733W        W53960  10.670  30.806   1.378
88734W        W53961  26.722  27.926  10.577
88735W        W53962   9.281  28.743   4.237
88736W        W53963  33.031  19.720  12.511
88737W        W53964   7.659   5.693  14.748
88738W        W53965   3.052   2.850  10.671
88739W        W53966   3.188   8.909  11.405
88740W        W53967  40.068  30.599  11.618
88741W        W53968  10.246  26.085   1.411
88742W        W53969   6.341  39.538   4.224
88743W        W53970  22.496  20.649  11.693
88744W        W53971  27.970  16.361  10.651
88745W        W53972  18.138   3.887  11.065
88746W        W53973  18.538   5.747  10.676
88747W        W53974  42.787  28.443  10.601
88748W        W53975  30.768  39.112   2.243
88749W        W53976  12.710  14.538  12.397
88750W        W53977  41.671  21.260  11.516
88751W        W53978  28.388  30.374   2.634
88752W        W53979  20.813  37.462   1.254
88753W        W53980  30.215  16.710  12.406
88754W        W53981  20.260  43.588  10.625
88755W        W53982  21.700  13.635   4.903
88756W        W53983  10.056  20.918   1.549
88757W        W53984   0.363  39.394  12.982
88758W        W53985   7.166  19.332  14.556
88759W        W53986  27.712   8.722  11.685
88760W        W53987   6.165  25.034  14.836
88761W        W53988  28.005  28.076  11.749
88762W        W53989  32.837  30.483  14.804
88763W        W53990  16.031   4.311  13.819
88764W        W53991  11.257  40.537  13.085
88765W        W53992  11.803  37.565  14.475
88766W        W53993  43.362   7.343  14.515
88767W        W53994  43.301  29.308   2.969
88768W        W53995  27.040  37.553  12.862
88769W        W53996  25.165   0.098   2.423
88770W        W53997   2.053   1.420  13.712
88771W        W53998  18.545  30.958   3.635
88772W        W53999  32.398  41.158  11.248
88773W        W54000  37.726  13.114  11.344
88774W        W54001  38.610  27.406  11.659
88775W        W54002  15.241  30.848  10.271
88776W        W54003  44.879  17.526   4.159
88777W        W54004  11.752   1.305  11.517
88778W        W54005   4.429  39.611   0.893
88779W        W54006  42.856   6.320  10.710
88780W        W54007  38.447  21.765   0.682
88781W        W54008  35.459   5.530  10.244
88782W        W54009  27.076  40.372  14.196
88783W        W54010  10.500  41.948   5.091
88784W        W54011  21.332  16.332   2.857
88785W        W54012  26.094  15.730   4.444
88786W        W54013  20.289  41.427  12.953
88787W        W54014  15.607  14.160   3.232
88788W        W54015  43.935  23.117  12.614
88789W        W54016  19.388  27.985   1.334
88790W        W54017  12.329  24.787   4.639
88791W        W54018  19.183  12.126   0.922
88792W        W54019  12.280  35.608   0.519
88793W        W54020  37.356  16.803   3.098
88794W        W54021  22.594  41.415  13.042
88795W        W54022   6.405  13.653  12.443
88796W        W54023  33.372  23.512  14.370
88797W        W54024  26.584  34.618  14.823
88798W        W54025  34.613  41.949   1.921
88799W        W54026   6.199  44.005   3.364
88800W        W54027   3.377   4.188  13.366
88801W        W54028  26.907   9.392  14.387
88802W        W54029  36.606  16.118  13.471
88803W        W54030  32.954  12.854  12.499
88804W        W54031  34.055  31.253   4.549
88805W        W54032  19.682  18.305  11.719
88806W        W54033  14.717   1.644   2.681
88807W        W54034  44.809  41.477  10.304
88808W        W54035   4.188  39.826   3.655
88809W        W54036  43.582  32.599   2.190
88810W        W54037  17.576  21.673   1.843
88811W        W54038  27.225   9.573  12.610
88812W        W54039   7.377  11.847   4.450
88813W        W54040   1.191  40.963   4.055
88814W        W54041  22.545  18.228   3.671
88815W        W54042  20.526  25.985  14.423
88816W        W54043  32.306  31.438  11.993
88817W        W54044  17.189  20.796  11.535
88818W        W54045  10.642   7.858   4.243
88819W        W54046  20.678  37.637  12.117
88820W        W54047  30.605  26.824   4.020
88821W        W54048   4.764  13.698  11.425
88822W        W54049  39.589  11.409   3.763
88823W        W54050  35.661  20.112  14.718
88824W        W54051  19.649   4.849   0.794
88825W        W54052   8.814   9.342   4.820
88826W        W54053   7.880  15.755   3.065
88827W        W54054  23.007  13.809  11.220
88828W        W54055   6.673  35.139   4.912
88829W        W54056  23.588  38.875   0.019
88830W        W54057   1.835  36.117   1.556
88831W        W54058  17.652  36.441   0.203
88832W        W54059  40.876  24.209  10.472
88833W        W54060  36.409   1.831  13.947
88834W        W54061  35.485  19.204   1.606
88835W        W54062   4.166  21.139  10.737
88836W        W54063  11.248  40.780  10.785
88837W        W54064   5.250  36.760  14.500
88838W        W54065   7.871  24.978  12.556
88839W        W54066   1.883   8.514  12.030
88840W        W54067  26.251  17.105  12.562
88841W        W54068  26.589   3.395   1.328
88842W        W54069  42.219  33.866   4.536
88843W        W54070  23.036  31.934   0.478
88844W        W54071  32.939  44.556  11.994
88845W        W54072  10.652  44.307  12.938
88846W        W54073  16.118  34.443  10.480
88847W        W54074  26.667  28.825  10.584
88848W        W54075  16.465  33.847   9.599
88849W        W54076  17.779  36.721  12.084
88850W        W54077  12.630  40.388  10.979
88851W        W54078  32.080  23.020   0.391
88852W        W54079  20.592  21.022   2.260
88853W        W54080  16.775  11.749  11.488
88854W        W54081  32.979   4.483   3.305
88855W        W54082  41.394  10.083   1.431
88856W        W54083  43.633  25.948   0.301
88857W        W54084  26.208  30.871   2.225
88858W        W54085   6.837  27.415  11.213
88859W        W54086  18.252   9.257  11.106
88860W        W54087  43.694  25.519  13.469
88861W        W54088  13.797   3.436  12.050
88862W        W54089  29.347   8.193  12.508
88863W        W54090   8.635   0.445   1.262
88864W        W54091  36.917  34.634  14.878
88865W        W54092   1.276  44.832  14.478
88866W        W54093  41.433   4.622   3.732
88867W        W54094  20.575  34.886  11.434
88868W        W54095  10.566  28.934  12.022
88869W        W54096  41.776  41.331   2.310
88870W        W54097  42.530  39.312  14.571
88871W        W54098  35.518  21.322  11.934
88872W        W54099  30.374  35.534  13.922
88873W        W54100  20.158  11.787   0.478
88874W        W54101  26.749  21.333   0.592
88875W        W54102  43.462  22.962   0.771
88876W        W54103  24.931  43.532   4.527
88877W        W54104   6.393  40.944   1.493
88878W        W54105  15.235  38.980   4.532
88879W        W54106  40.876  35.123   4.271
88880W        W54107  39.608  21.790  11.202
88881W        W54108  38.891  21.681  12.230
88882W        W54109  40.564  11.349   0.367
88883W        W54110   6.173  32.674  14.416
88884W        W54111   5.459  27.226  11.206
88885W        W54112  13.522   7.253   4.651
88886W        W54113  10.520   1.442  11.146
88887W        W54114  14.101   6.777   4.082
88888W        W54115  24.848   1.226  14.733
88889W        W54116   2.559   6.459  13.221
88890W        W54117  42.645  21.674  13.467
88891W        W54118   4.451  26.577  11.538
88892W        W54119  24.738  12.609   0.699
88893W        W54120  44.021   8.199  13.541
88894W        W54121  31.138  33.854  12.772
88895W        W54122  23.659  42.430   3.864
88896W        W54123   9.397  35.177   2.825
88897W        W54124   0.590  19.623   0.230
88898W        W54125  42.475   5.231  11.154
88899W        W54126  19.678  22.706   2.270
88900W        W54127  28.403  11.603   2.747
88901W        W54128  21.630   6.715   0.776
88902W        W54129   2.285  37.012   2.491
88903W        W54130  40.448  10.607  12.593
88904W        W54131  34.404  12.826  13.963
88905W        W54132  32.611  14.754  14.828
88906W        W54133  25.555  10.153   4.782
88907W        W54134  40.130  24.547   3.690
88908W        W54135  23.957  44.259  10.008
88909W        W54136  15.630  44.268  12.323
88910W        W54137  31.511   5.940   0.238
88911W        W54138  19.597  34.642  11.149
88912W        W54139   7.210   5.745  12.638
88913W        W54140   8.110  35.018   4.183
88914W        W54141  20.640   0.632   4.310
88915W        W54142  10.218  37.968   0.331
88916W        W54143   5.734  28.623  13.548
88917W        W54144   1.707   8.758   1.100
88918W        W54145  18.543  43.922  11.104
88919W        W54146  41.478   9.742  10.985
88920W        W54147  13.361  33.893  12.416
88921W        W54148  28.869  40.981   4.102
88922W        W54149  12.195  21.125   4.701
88923W        W54150  19.782  41.311   1.715
88924W        W54151  11.673  42.513   0.020
88925W        W54152   9.117  28.522  13.900
88926W        W54153  37.154  11.565  11.096
88927W        W54154   5.541  39.347  14.824
88928W        W54155  23.563   1.000   0.046
88929W        W54156   9.885  22.017   3.449
88930W        W54157  23.395  39.517  12.901
88931W        W54158  44.102   4.424   0.819
88932W        W54159  31.929  26.298  11.777
88933W        W54160   7.758  44.739   2.432
88934W        W54161  37.652   3.686  10.789
88935W        W54162   3.850  18.132   2.237
88936W        W54163  34.582  23.283   2.306
88937W        W54164  29.115  33.476  11.960
88938W        W54165  41.499  22.074   1.242
88939W        W54166  44.378  15.999   3.735
88940W        W54167  34.877  38.486   4.390
88941W        W54168  15.452  25.076  12.837
88942W        W54169  42.067   6.742  10.797
88943W        W54170   3.216   5.194  14.499
88944W        W54171  17.638  20.198  13.530
88945W        W54172   0.476  31.361   3.018
88946W        W54173   8.435   6.267  13.686
88947W        W54174  43.865   1.345  13.623
88948W        W54175  35.082  15.014   4.927
88949W        W54176  21.824  29.635  11.525
88950W        W54177  19.783  32.510  10.800
88951W        W54178  36.112  15.592   2.852
88952W        W54179  31.584  26.221   2.046
88953W        W54180  12.247  18.163  13.518
88954W        W54181   2.309  27.655   3.586
88955W        W54182  34.960   3.966  10.745
88956W        W54183  32.740  40.097   4.006
88957W        W54184  28.028  43.816   1.671
88958W        W54185  33.577  33.688  10.742
88959W        W54186   3.697  32.060   9.863
88960W        W54187   3.091  10.400  10.738
88961W        W54188  24.557  18.644   2.325
88962W        W54189  34.149  38.993   0.232
88963W        W54190  30.470   9.255  12.932
88964W        W54191   8.063  31.704   2.547
88965W        W54192   5.739  13.209   4.199
88966W        W54193  39.900  33.045  11.670
88967W        W54194  17.401   9.275  13.455
88968W        W54195  21.177  10.173  13.578
88969W        W54196  14.775  33.923  12.705
88970W        W54197  13.109  16.531  10.610
88971W        W54198  40.248  28.073   0.964
88972W        W54199  15.184   7.702   1.744
88973W        W54200  36.815  24.289   2.222
88974W        W54201  19.162  40.752   2.637
88975W        W54202  16.878  34.830  11.131
88976W        W54203  35.538  20.979  14.511
88977W        W54204  28.414   1.455   1.804
88978W        W54205  32.373  40.386  13.079
88979W        W54206  31.080  16.743  14.043
88980W        W54207  18.556   7.367  14.501
88981W        W54208  30.173  17.189   0.522
88982W        W54209  42.933  40.593   1.567
88983W        W54210  38.864  29.330   1.925
88984W        W54211   1.722  42.573  12.517
88985W        W54212   0.895  31.069  14.794
88986W        W54213  28.648  31.067   1.276
88987W        W54214  30.898  16.875  11.933
88988W        W54215  10.712  12.553   1.333
88989W        W54216  32.095  36.305   2.459
88990W        W54217  14.160   5.920  13.852
88991W        W54218  23.636  36.568  12.960
88992W        W54219  11.725   8.782  12.590
88993W        W54220   1.843  30.183  11.478
88994W        W54221  30.481  27.910   3.520
88995W        W54222  30.714  34.388  14.381
88996W        W54223  34.594  35.463  14.336
88997W        W54224  28.519  43.663   1.563
88998W        W54225  29.724  18.199   3.298
88999W        W54226   7.954  41.300  14.858
89000W        W54227  30.363  17.076   4.819
89001W        W54228  26.930  32.492   1.307
89002W        W54229  11.977  35.689  11.605
89003W        W54230  40.701  22.119  10.565
89004W        W54231  25.785   4.680   3.229
89005W        W54232  40.144  24.304  13.406
89006W        W54233   2.465  42.230  14.608
89007W        W54234  26.786   1.554   0.667
89008W        W54235   9.365  25.949   4.437
89009W        W54236  38.387  36.817   1.887
89010W        W54237  18.259  21.412   3.159
89011W        W54238   4.299  39.108   0.977
89012W        W54239  10.956   0.755   0.741
89013W        W54240  18.598   4.849   3.274
89014W        W54241  40.869  14.776   0.464
89015W        W54242  19.802  11.429   0.798
89016W        W54243  25.618  32.650   1.805
89017W        W54244   5.796  19.166   2.298
89018W        W54245   5.728  33.963  11.769
89019W        W54246  10.215   8.745  11.208
89020W        W54247  23.767  15.132   0.387
89021W        W54248  10.945  25.715   2.848
89022W        W54249  10.538  27.118   3.947
89023W        W54250  30.020   5.367  12.750
89024W        W54251  18.658  28.617   3.373
89025W        W54252  40.756  38.565   1.005
89026W        W54253   1.012   3.313   3.880
89027W        W54254  20.628  16.325   2.397
89028W        W54255   6.925   9.862  13.065
89029W        W54256  17.018   3.608   0.403
89030W        W54257  11.857  21.263  11.230
89031W        W54258   1.359  21.636  12.932
89032W        W54259  37.511   4.276   1.608
89033W        W54260  28.497   9.914  10.598
89034W        W54261  19.467  31.113   4.091
89035W        W54262  16.164  13.368   2.791
89036W        W54263  13.789   2.629   2.824
89037W        W54264  23.268   5.062   0.329
89038W        W54265  24.188  30.692  12.119
89039W        W54266  29.837   8.432   3.730
89040W        W54267  23.993  15.210  13.629
89041W        W54268  32.533  16.207  14.123
89042W        W54269  36.657   6.325  12.398
89043W        W54270   7.379  36.984  10.520
89044W        W54271  10.885   5.699   3.235
89045W        W54272  32.453  17.079   2.771
89046W        W54273  16.076   9.474   2.668
89047W        W54274  35.114  32.557   0.384
89048W        W54275  16.566   1.645  11.087
89049W        W54276  24.502  39.633   2.270
89050W        W54277  23.109  32.589   3.814
89051W        W54278  34.598  20.991  13.284
89052W        W54279   6.428  37.378  13.858
89053W        W54280  21.178   5.848   2.022
89054W        W54281  18.203   2.317  11.426
89055W        W54282   2.823   8.587  11.566
89056W        W54283  41.801  35.477   3.871
89057W        W54284   9.452  12.270  14.260
89058W        W54285   5.787  39.842   0.948
89059W        W54286  41.781  33.317  14.385
89060W        W54287  12.588  11.799   3.877
89061W        W54288  17.398  21.186   3.474
89062W        W54289   1.500  37.008  12.377
89063W        W54290  38.899   0.400  13.828
89064W        W54291  24.861  25.023   4.531
89065W        W54292  21.423   3.880   1.392
89066W        W54293  35.039  14.737   2.699
89067W        W54294  24.052   2.806  12.694
89068W        W54295   0.138  20.973   1.746
89069W        W54296   1.470  21.409  10.609
89070W        W54297   5.605  12.628   0.903
89071W        W54298  13.178   5.897  10.817
89072W        W54299  43.446  29.505  10.606
89073W        W54300  43.962   1.340   1.726
89074W        W54301   1.473   3.818   2.230
89075W        W54302  23.917  41.584  11.828
89076W        W54303  35.313  27.529  11.636
89077W        W54304   4.661  26.343   9.645
89078W        W54305  27.926  42.909   1.686
89079W        W54306  20.763  34.924  12.064
89080W        W54307  20.487  13.837  13.482
89081W        W54308  41.677  22.060   3.543
89082W        W54309  22.505  14.197  11.663
89083W        W54310  28.981  39.669  11.709
89084W        W54311  19.869  40.901  13.067
89085W        W54312  11.153  36.380  10.657
89086W        W54313  32.589  34.570  11.017
89087W        W54314  41.318  18.999  12.408
89088W        W54315  19.714  15.235  12.919
89089W        W54316  43.904  20.663   2.727
89090W        W54317  20.762   7.116   1.595
89091W        W54318   9.412  16.868   2.176
89092W        W54319  30.579  26.993   1.866
89093W        W54320  40.107  37.482  13.297
89094W        W54321   9.179   7.886  11.515
89095W        W54322   0.858  13.603   1.360
89096W        W54323  29.625  10.617  13.634
89097W        W54324   4.804   4.849   0.935
89098W        W54325  40.517  11.837   3.771
89099W        W54326  23.557   3.922   3.740
89100W        W54327  14.089  11.479   3.285
89101W        W54328  18.994  41.339   2.274
89102W        W54329  41.921  36.572  13.463
89103W        W54330   8.346  39.459  12.003
89104W        W54331  35.811   8.842  13.813
89105W        W54332   1.095  40.324  13.532
89106W        W54333   2.898  36.855  14.362
89107W        W54334  43.305  14.577   4.412
89108W        W54335   7.193  24.601   4.157
89109W        W54336  41.091  42.664  13.789
89110W        W54337  38.244  15.279  14.033
89111W        W54338  33.058  30.946   3.145
89112W        W54339  39.326  14.204  13.941
89113W        W54340  38.742   4.744   2.217
89114W        W54341  28.175  24.440  12.051
89115W        W54342  36.780  38.913  10.513
89116W        W54343   3.496  43.607   1.059
89117W        W54344   7.540  23.509  12.875
89118W        W54345  18.844   5.731  11.930
89119W        W54346  25.962  17.581  13.114
89120W        W54347  32.900   6.457  11.315
89121W        W54348   3.348  27.734  12.800
89122W        W54349  39.323  31.700   0.520
89123W        W54350  17.198  30.463  10.746
89124W        W54351  27.807  32.090   1.215
89125W        W54352  40.795   8.027  11.634
89126W        W54353  37.374  10.341  12.668
89127W        W54354  35.457   7.336   2.327
89128W        W54355  15.324  23.016   2.239
89129W        W54356  29.148  30.800   0.429
89130W        W54357  32.659   6.441   2.831
89131W        W54358  30.221   4.963  14.434
89132W        W54359  23.679  33.047  10.428
89133W        W54360  41.719  29.064   0.837
89134W        W54361   7.273  22.116  14.955
89135W        W54362  40.984  43.971  12.026
89136W        W54363   1.528  14.761   0.913
89137W        W54364  31.462  40.475   0.655
89138W        W54365  35.546   5.572   2.801
89139W        W54366  33.941   5.888  13.498
89140W        W54367   5.943  23.438   2.664
89141W        W54368  33.735  12.868   1.695
89142W        W54369  31.184  29.589   5.203
89143W        W54370  42.871   0.440  14.050
89144W        W54371   0.816  32.297   4.447
89145W        W54372  44.581  37.262  12.896
89146W        W54373  27.609  22.055  12.508
89147W        W54374  35.678  28.882  14.608
89148W        W54375  34.103  33.414   0.055
89149W        W54376  27.010  35.830   0.728
89150W        W54377  31.101  17.215   4.273
89151W        W54378  31.108   4.165  14.412
89152W        W54379  23.060  39.557   1.291
89153W        W54380  21.855  44.458  11.102
89154W        W54381  18.651   4.861  10.708
89155W        W54382  21.815  22.777   3.845
89156W        W54383  37.345  13.586   1.481
89157W        W54384  15.270  18.357   3.822
89158W        W54385  24.310  44.362   2.922
89159W        W54386   1.496  38.083   1.735
89160W        W54387  38.281   3.720  12.808
89161W        W54388   8.898   6.471   3.167
89162W        W54389  29.080  36.362   4.361
89163W        W54390   1.686   0.299   2.330
89164W        W54391  30.706  24.096   3.711
89165W        W54392  34.901  27.267  11.554
89166W        W54393  15.205  23.485   0.405
89167W        W54394  30.928  14.258   3.883
89168W        W54395  35.589  10.800   0.929
89169W        W54396  15.575  22.302  12.605
89170W        W54397   3.825  21.759   2.827
89171W        W54398  22.703  14.386   4.153
89172W        W54399  30.395  18.144  12.334
89173W        W54400   5.276  33.293   0.993
89174W        W54401   4.053  16.024  12.949
89175W        W54402   0.414   3.459  14.439
89176W        W54403  38.013  25.889  12.908
89177W        W54404  37.350  36.849   3.556
89178W        W54405  38.925  39.155   2.140
89179W        W54406  35.935  20.210   3.329
89180W        W54407  26.654  40.388   4.579
89181W        W54408   3.911  13.200  11.753
89182W        W54409  16.329  30.195  11.532
89183W        W54410  25.610  28.705   0.482
89184W        W54411  44.793  12.459   3.792
89185W        W54412  18.040  32.627   4.540
89186W        W54413  30.932  33.046   1.176
89187W        W54414  43.026  22.163   0.912
89188W        W54415  30.679   8.203   0.727
89189W        W54416  30.237  40.602  11.917
89190W        W54417  44.843  16.667   2.605
89191W        W54418   2.427  44.643   5.197
89192W        W54419  39.525  14.347  10.868
89193W        W54420  12.327  37.880  10.475
89194W        W54421  10.455   4.062  13.856
89195W        W54422  18.222   0.871  13.558
89196W        W54423  11.467  37.425  12.633
89197W        W54424  25.119  34.726  11.949
89198W        W54425  14.868  42.533   4.219
89199W        W54426   2.207   6.872  11.717
89200W        W54427  23.353  18.665  12.765
89201W        W54428   1.988  16.162  14.354
89202W        W54429  32.915   7.188   1.967
89203W        W54430  44.392  32.657  10.722
89204W        W54431  41.067  40.468   4.486
89205W        W54432  16.758  13.814  13.015
89206W        W54433  11.758  44.462  13.589
89207W        W54434   3.037   6.768   4.163
89208W        W54435  33.464  33.820   4.433
89209W        W54436   8.832  36.416  13.547
89210W        W54437  27.467  26.959  11.905
89211W        W54438  15.117  20.453  14.426
89212W        W54439  22.827  44.846  14.431
89213W        W54440  40.964  44.910   3.905
89214W        W54441  44.828  10.743   4.164
89215W        W54442  18.782   9.998   4.154
89216W        W54443  39.858  23.497  14.359
89217W        W54444  28.088   9.819   4.757
89218W        W54445  34.043  25.588   2.184
89219W        W54446  24.004  40.856  14.090
89220W        W54447  37.157  41.296  11.520
89221W        W54448  31.091   3.928  10.742
89222W        W54449  38.773  19.174  11.554
89223W        W54450  21.328  35.101  12.441
89224W        W54451   8.880  27.778  13.036
89225W        W54452  21.178  19.792  11.007
89226W        W54453  38.075  19.235   2.648
89227W        W54454  16.778   6.572   1.204
89228W        W54455  21.086  18.704  12.391
89229W        W54456  17.821  12.631  11.884
89230W        W54457  37.101  41.038  11.072
89231W        W54458   7.172  13.613   1.396
89232W        W54459  24.189  25.325  10.616
89233W        W54460  15.858   8.249  11.649
89234W        W54461  11.227  26.901   1.352
89235W        W54462  41.329  16.565  13.410
89236W        W54463  32.638  31.505  13.524
89237W        W54464   2.620  41.078   3.831
89238W        W54465   4.893   5.837   4.231
89239W        W54466   6.233  28.035   0.435
89240W        W54467  15.817   8.252   4.137
89241W        W54468  14.542   6.841   1.520
89242W        W54469  37.644  32.938  12.084
89243W        W54470   6.325  35.378   9.865
89244W        W54471  14.586  14.470   1.065
89245W        W54472  35.959  22.044   4.596
89246W        W54473  36.868  25.319   2.614
89247W        W54474  43.833  31.972   4.921
89248W        W54475  42.629  15.586  10.873
89249W        W54476  17.195  24.724  12.970
89250W        W54477  10.927  20.960   3.750
89251W        W54478   0.923   3.726  13.288
89252W        W54479  20.078  23.623  11.603
89253W        W54480  43.338  44.029  12.070
89254W        W54481   1.348  41.883   3.584
89255W        W54482  35.932  10.183   2.238
89256W        W54483  24.827   8.687   4.219
89257W        W54484  26.087  33.364  11.556
89258W        W54485  37.987  38.635   4.573
89259W        W54486   7.768  36.320   3.792
89260W        W54487  40.972  11.301   1.047
89261W        W54488  44.405   8.417  12.494
89262W        W54489  13.239  20.824   4.571
89263W        W54490  18.573  29.373  14.231
89264W        W54491   9.829   5.687  12.427
89265W        W54492   3.282  27.193   2.243
89266W        W54493  28.919  19.312   0.835
89267W        W54494   0.302  17.792   3.263
89268W        W54495  38.376  35.602   4.034
89269W        W54496  29.049   8.935  12.071
89270W        W54497  27.286   8.505   1.165
89271W        W54498  39.051  10.445  13.994
89272W        W54499  40.382  35.370  13.327
89273W        W54500   7.165  31.170  10.834
89274W        W54501  36.022   2.833   0.844
89275W        W54502   9.228  28.792   1.438
89276W        W54503   3.463  13.050  14.013
89277W        W54504  19.142  10.073  13.851
89278W        W54505   6.966  25.121   4.130
89279W        W54506   9.187  27.635   1.472
89280W        W54507  22.673  39.615   0.958
89281W        W54508  11.670  19.174   3.692
89282W        W54509  24.680  44.877  14.437
89283W        W54510   7.450  30.690  11.711
89284W        W54511  33.891  37.968  14.371
89285W        W54512  15.551  32.663   0.577
89286W        W54513  15.707  31.966   4.668
89287W        W54514  19.312  37.537   4.860
89288W        W54515  25.737   9.347   0.415
89289W        W54516  38.684  25.961   4.014
89290W        W54517   1.796  14.811   3.193
89291W        W54518  21.545  19.259  14.215
89292W        W54519  40.382  19.643   3.635
89293W        W54520   0.921  36.832   1.169
89294W        W54521  17.506  12.654   2.014
89295W        W54522  24.688  43.010  12.261
89296W        W54523  40.575  23.557  10.669
89297W        W54524  29.727  12.854  11.911
89298W        W54525  34.776  37.380   0.782
89299W        W54526  14.677   5.178   1.990
89300W        W54527  22.777  42.720   5.181
89301W        W54528  42.222  38.008  11.142
89302W        W54529  23.575  19.690   0.414
89303W        W54530   5.919  19.087  10.917
89304W        W54531  44.804   0.059   4.556
89305W        W54532  18.297  19.329   1.925
89306W        W54533  31.098  33.479  13.942
89307W        W54534  22.298   6.384   4.571
89308W        W54535   4.979  44.081   3.802
89309W        W54536  17.761  42.347   4.588
89310W        W54537  34.356  32.356  11.608
89311W        W54538  39.930  20.993  10.997
89312W        W54539  11.349  24.718   2.287
89313W        W54540  35.887  10.134  14.418
89314W        W54541  16.873   8.487   4.190
89315W        W54542  42.122   3.914  11.194
89316W        W54543  15.292  31.387  11.821
89317W        W54544  10.665  38.491   3.876
89318W        W54545  13.171  31.365  14.489
89319W        W54546   1.397   3.526   4.181
89320W        W54547  23.239  36.062   0.387
89321W        W54548  14.107  40.414   4.153
89322W        W54549  43.498  14.111   4.203
89323W        W54550  18.189  25.140  12.048
89324W        W54551  29.869   1.515   4.140
89325W        W54552  28.090  21.586   1.282
89326W        W54553  11.899  39.475  12.458
89327W        W54554  33.026   2.692   2.868
89328W        W54555  29.850  40.100  14.873
89329W        W54556  25.016  39.488  12.935
89330W        W54557   6.953  43.724  13.955
89331W        W54558  34.044  27.200  12.429
89332W        W54559   6.361   5.624   1.660
89333W        W54560  34.945  28.047  11.084
89334W        W54561  24.281  10.488   4.599
89335W        W54562  30.914   2.990   2.677
89336W        W54563   9.344   8.112   3.170
89337W        W54564  44.757   0.511  12.436
89338W        W54565  10.250  24.571  13.343
89339W        W54566   4.776  32.563   1.350
89340W        W54567  10.001  39.391  13.456
89341W        W54568  37.324  31.406   2.207
89342W        W54569  15.216  30.526   0.720
89343W        W54570  16.271  13.125   0.301
89344W        W54571   9.361   7.260  14.042
89345W        W54572   9.357  28.165  14.295
89346W        W54573  21.556  29.657  13.795
89347W        W54574  24.509  39.109   2.303
89348W        W54575  18.093  28.498  11.782
89349W        W54576  12.339  37.455  11.690
89350W        W54577  41.497  22.557  10.405
89351W        W54578  20.150  34.891  14.231
89352W        W54579  37.265  38.910  10.695
89353W        W54580  27.475  16.224  10.008
89354W        W54581  31.837  32.138  12.537
89355W        W54582  29.544  12.305   5.144
89356W        W54583  28.438  34.461   4.715
89357W        W54584   2.854  12.093   2.531
89358W        W54585  29.362  25.026   3.974
89359W        W54586  38.027  26.593  11.611
89360W        W54587  13.791  17.054   2.774
89361W        W54588  30.177  35.048  13.486
89362W        W54589   8.606   9.843   4.152
89363W        W54590  34.416  17.648  14.993
89364W        W54591   8.496  19.212   2.625
89365W        W54592   3.505  10.386  14.842
89366W        W54593  41.753  41.907  13.335
89367W        W54594  43.957   9.112  11.655
89368W        W54595  15.876  37.842   1.513
89369W        W54596  14.017  40.920  12.357
89370W        W54597   1.353  23.689  10.997
89371W        W54598  27.696  44.997  10.630
89372W        W54599  30.525  37.855   2.287
89373W        W54600  19.082  23.289  11.464
89374W        W54601  11.255  41.582  14.886
89375W        W54602  32.343   5.339  14.442
89376W        W54603  32.383  40.269  14.418
89377W        W54604  30.464  14.812  13.484
89378W        W54605  12.664  25.085  12.148
89379W        W54606  16.790  22.664  12.604
89380W        W54607  21.020   5.236   4.872
89381W        W54608   8.754  44.718  12.338
89382W        W54609  44.442  32.359  13.050
89383W        W54610  28.401  11.356  14.089
89384W        W54611  19.820  34.906   5.104
89385W        W54612  32.917  41.338  11.792
89386W        W54613  28.372  44.802   2.027
89387W        W54614  21.706  38.932   3.762
89388W        W54615  41.794  31.474  13.871
89389W        W54616   7.910   7.742   4.349
89390W        W54617  19.186  10.728  13.010
89391W        W54618  40.459   6.403   0.393
89392W        W54619   1.114  36.748   1.623
89393W        W54620  16.572  19.635  13.913
89394W        W54621  28.901  42.883   1.831
89395W        W54622  39.097  21.023  12.634
89396W        W54623   4.026  24.661   4.636
89397W        W54624  19.813  13.339  12.223
89398W        W54625  11.927  34.055   2.265
89399W        W54626  27.375   0.821   3.632
89400W        W54627  22.563  41.885   1.933
89401W        W54628  29.406  16.835   0.183
89402W        W54629   1.939  26.012  12.979
89403W        W54630  12.215  21.581  12.768
89404W        W54631   4.251   9.777   1.785
89405W        W54632  38.435  22.298   0.350
89406W        W54633  40.113  34.592   0.197
89407W        W54634   2.180  32.694   3.105
89408W        W54635  15.006  19.625  12.081
89409W        W54636  18.078  11.377  14.203
89410W        W54637  42.272  23.657  12.545
89411W        W54638   5.969  22.562   1.889
89412W        W54639  41.969   1.794   3.558
89413W        W54640  22.123  14.118  10.947
89414W        W54641  42.871   5.898   2.234
89415W        W54642  32.099  19.229   3.272
89416W        W54643   6.752   8.129   1.404
89417W        W54644   0.840  20.942   2.678
89418W        W54645   6.920  34.431  11.511
89419W        W54646   8.032  12.311  12.144
89420W        W54647   4.362   4.481   3.958
89421W        W54648  44.711  38.120   1.429
89422W        W54649  20.215  23.547  10.742
89423W        W54650  37.044  13.213  12.040
89424W        W54651  37.542  43.317   1.725
89425W        W54652  41.948  18.674   2.606
89426W        W54653  26.530  23.030   4.163
89427W        W54654   9.235   1.322  12.583
89428W        W54655  24.222  38.250   2.191
89429W        W54656  27.752   3.530   0.677
89430W        W54657   4.880  39.907  10.556
89431W        W54658  42.464   7.826   3.729
89432W        W54659  42.411  14.694   3.193
89433W        W54660   2.759  27.225   2.226
89434W        W54661   3.715   4.232   0.449
89435W        W54662  44.769  32.839   4.739
89436W        W54663  29.653  38.455  14.683
89437W        W54664   9.095   2.495  14.960
89438W        W54665  41.844  23.018   1.729
89439W        W54666  16.540   1.187   2.896
89440W        W54667  32.033  12.644   0.026
89441W        W54668  20.011   3.842  13.970
89442W        W54669  35.569  33.931  11.606
89443W        W54670   6.028  19.610   4.469
89444W        W54671  19.980  13.045  14.820
89445W        W54672   0.471  38.050   2.804
89446W        W54673   2.742  22.874   1.372
89447W        W54674  41.047  12.370   1.500
89448W        W54675  16.963  39.449  12.938
89449W        W54676  35.904  24.171  11.077
89450W        W54677   1.483  18.139   2.855
89451W        W54678   9.619  20.153   0.479
89452W        W54679   3.935  28.376  12.428
89453W        W54680  34.630  15.905   0.338
89454W        W54681  22.588   9.815   3.451
89455W        W54682  28.947  39.110  13.473
89456W        W54683  19.667   4.876  11.534
89457W        W54684  34.051  30.914  14.498
89458W        W54685  29.429  41.897  13.751
89459W        W54686  43.133  27.390  12.933
89460W        W54687  12.053  16.398  10.174
89461W        W54688  33.541  14.531   4.165
89462W        W54689  43.262  21.568   1.907
89463W        W54690   0.476  16.800  13.144
89464W        W54691  30.368   5.420   0.259
89465W        W54692  40.517  27.089   1.168
89466W        W54693  21.567   0.319   3.471
89467W        W54694  17.071   5.094   1.637
89468W        W54695  12.710  22.466   3.141
89469W        W54696  42.011  17.785  13.534
89470W        W54697   9.019   3.382   4.135
89471W        W54698  35.093  14.241   2.443
89472W        W54699  30.654  12.356   0.259
89473W        W54700  37.716  14.551   0.362
89474W        W54701  44.401   3.589  11.173
89475W        W54702  19.089  32.636   0.415
89476W        W54703   7.047  11.148  14.065
89477W        W54704  35.423   7.450   3.660
89478W        W54705   0.440   2.700   3.000
89479W        W54706  37.116   7.386  12.697
89480W        W54707  34.411   6.377  13.880
89481W        W54708  30.226  42.851  11.679
89482W        W54709  14.343   0.233   2.409
89483W        W54710  38.729  21.789  10.642
89484W        W54711   4.973  28.945   1.300
89485W        W54712   5.769  32.119   2.758
89486W        W54713   1.270   8.735   3.491
89487W        W54714  22.043   9.892  13.001
89488W        W54715  43.370   4.083  14.480
89489W        W54716  30.951  26.567  14.830
89490W        W54717  15.095  21.741  13.886
89491W        W54718  38.839  21.769  14.448
89492W        W54719  13.747  41.323  13.071
89493W        W54720   8.864  27.603  14.743
89494W        W54721  29.097  21.050   9.927
89495W        W54722  35.130  14.402   0.342
89496W        W54723  23.968   4.284  11.658
89497W        W54724  12.427  27.057   3.631
89498W        W54725  22.746  37.666   1.487
89499W        W54726  27.974  34.313   3.758
89500W        W54727   0.414  39.544   2.194
89501W        W54728  34.973  24.706  14.890
89502W        W54729  30.982  14.094  12.101
89503W        W54730  39.432   5.232   1.731
89504W        W54731  19.100  12.268  12.298
89505W        W54732   2.322  41.434  10.661
89506W        W54733  17.600  28.180   0.879
89507W        W54734  10.196  11.340  14.930
89508W        W54735   8.248   4.890  12.869
89509W        W54736  37.504  44.145  14.222
89510W        W54737  44.849  28.704   0.535
89511W        W54738  33.159  31.957  11.093
89512W        W54739  20.984  41.416  10.251
89513W        W54740  36.273  28.871   1.936
89514W        W54741  29.891  17.790  11.553
89515W        W54742  38.472  26.674  10.701
89516W        W54743   7.189  40.394  12.012
89517W        W54744  13.587  18.206   3.083
89518W        W54745  15.348  36.503   3.018
89519W        W54746  31.875  15.268   2.355
89520W        W54747  27.842  25.858  13.925
89521W        W54748  31.399   1.566  14.487
89522W        W54749  11.559  36.149  14.412
89523W        W54750  23.589  17.178  10.730
89524W        W54751  43.403  32.967  10.635
89525W        W54752   7.388  38.836   3.364
89526W        W54753  16.750  12.089   0.876
89527W        W54754  15.668   6.333  10.968
89528W        W54755  36.541  16.080  11.687
89529W        W54756  23.700  35.851  13.858
89530W        W54757  22.318  41.790  12.547
89531W        W54758   2.804   2.989   1.795
89532W        W54759  20.975   5.935   0.409
89533W        W54760  23.698  18.530   2.407
89534W        W54761  31.034  13.351   4.023
89535W        W54762  33.144   6.836   3.134
89536W        W54763  40.835   1.192   1.342
89537W        W54764   6.298   4.454  12.376
89538W        W54765  40.614   2.883   2.309
89539W        W54766   3.312  34.879  10.797
89540W        W54767  33.901   7.966  12.418
89541W        W54768   5.681  16.165  14.781
89542W        W54769  40.409  37.410   0.543
89543W        W54770  41.125   8.580  12.942
89544W        W54771  18.067  39.887   1.484
89545W        W54772  36.798  31.654   3.218
89546W        W54773  44.949  25.534  14.006
89547W        W54774  17.543  37.635  12.243
89548W        W54775  16.860   5.343  14.885
89549W        W54776   0.163  12.697   2.917
89550W        W54777   9.683  41.914   0.936
89551W        W54778   4.435  19.951   0.364
89552W        W54779  42.459  11.911   3.776
89553W        W54780  33.447  22.823  13.327
89554W        W54781  40.484  18.791   9.964
89555W        W54782   3.955  35.520   4.373
89556W        W54783   1.335  10.907   1.021
89557W        W54784  14.662  11.211   0.507
89558W        W54785  12.121   4.979   4.050
89559W        W54786  31.853  29.649  10.862
89560W        W54787  21.445   9.206   0.745
89561W        W54788  17.801  34.116   3.728
89562W        W54789  24.083  30.873  13.981
89563W        W54790  25.322   2.749  12.975
89564W        W54791   9.486  28.917  11.103
89565W        W54792  30.625   6.402  14.388
89566W        W54793   4.718  11.628  12.500
89567W        W54794  22.977  25.107  11.131
89568W        W54795   5.292  23.375   4.548
89569W        W54796  22.915  20.641  10.124
89570W        W54797  38.624  20.128  11.499
89571W        W54798  28.681   5.402  11.660
89572W        W54799  30.965   7.825   4.179
89573W        W54800   1.135   8.079  11.652
89574W        W54801  11.365  17.972   3.197
89575W        W54802  36.007  15.064   0.703
89576W        W54803   7.988  27.941  11.668
89577W        W54804  10.320  39.109  13.878
89578W        W54805  40.843  20.112   0.448
89579W        W54806  35.335   3.326   1.332
89580W        W54807   8.582  10.973   1.997
89581W        W54808   9.905  28.128   4.906
89582W        W54809  14.859  24.077   4.049
89583W        W54810  21.510   9.121   4.204
89584W        W54811  24.718  42.101  11.182
89585W        W54812  34.121  25.357   1.721
89586W        W54813  34.136   3.352  12.596
89587W        W54814  26.282  10.354   4.015
89588W        W54815  43.350   5.194   0.944
89589W        W54816   9.140  22.007   0.476
89590W        W54817  23.254  20.030   1.057
89591W        W54818  11.303  11.132  12.661
89592W        W54819  29.566  33.091   2.411
89593W        W54820  21.512  44.253  11.451
89594W        W54821   2.535  43.958  11.709
89595W        W54822   0.034  39.338   3.179
89596W        W54823  15.378  17.631   3.203
89597W        W54824   8.751  41.946   1.415
89598W        W54825  24.208  36.552  13.864
89599W        W54826  16.104  39.172   0.758
89600W        W54827  32.453  21.296  12.933
89601W        W54828  26.073  38.811  14.991
89602W        W54829   9.227  21.541   3.960
89603W        W54830  35.814  28.691   1.791
89604W        W54831  28.084   1.919   2.266
89605W        W54832   7.559  33.886  14.234
89606W        W54833  32.601  20.335   3.400
89607W        W54834  13.553   1.348   4.108
89608W        W54835  37.770  44.992   3.787
89609W        W54836  29.906  20.622   1.758
89610W        W54837  28.051   2.107  13.485
89611W        W54838  32.589  17.880   1.956
89612W        W54839  33.252  17.059   3.141
89613W        W54840  21.196  14.184  14.893
89614W        W54841   0.763  35.799  12.560
89615W        W54842  37.013   4.004   3.632
89616W        W54843   6.080  33.619  10.005
89617W        W54844   4.797   0.716  11.214
89618W        W54845  24.720  36.691  13.906
89619W        W54846  10.520   8.874   3.067
89620W        W54847  41.739  30.381   0.332
89621W        W54848  37.936   4.889   3.770
89622W        W54849  40.285  28.688   4.374
89623W        W54850  39.849  38.345   0.322
89624W        W54851  37.318  29.563  14.634
89625W        W54852  11.867  22.973   4.732
89626W        W54853  23.799  29.477  11.182
89627W        W54854  13.457   6.836   4.323
89628W        W54855  15.121  23.152  11.968
89629W        W54856   2.481  14.063   0.207
89630W        W54857   4.176  43.533   2.246
89631W        W54858  12.819  19.189  13.013
89632W        W54859  10.073   4.438   2.583
89633W        W54860  29.501  17.736  14.749
89634W        W54861  37.619  20.638   0.804
89635W        W54862  41.960  14.256   0.753
89636W        W54863  26.092  12.603  13.588
89637W        W54864  44.303  17.280  14.161
89638W        W54865  42.602  44.164  11.085
89639W        W54866  14.562  23.657   0.015
89640W        W54867  36.964  33.174  12.709
89641W        W54868   3.925  37.814  10.751
89642W        W54869  39.380  37.766  12.302
89643W        W54870  27.330  15.481  12.933
89644W        W54871  27.412  15.075   4.226
89645W        W54872  32.196   6.370   0.036
89646W        W54873   2.902  18.184   1.741
89647W        W54874  33.540  18.166   0.518
89648W        W54875  40.087   3.249   3.184
89649W        W54876  32.108  25.530   0.226
89650W        W54877  30.655   3.891  14.322
89651W        W54878   8.722  31.153   3.161
89652W        W54879  24.048  41.609   1.939
89653W        W54880  14.325  20.448   1.176
89654W        W54881  36.268   7.598   1.754
89655W        W54882   8.282   8.159   4.931
89656W        W54883  26.398   0.806   2.161
89657W        W54884  30.122  25.038  11.246
89658W        W54885  16.993  20.604  10.383
89659W        W54886  15.271  31.736   1.972
89660W        W54887   1.263  39.317  14.924
89661W        W54888  22.521  16.696   4.066
89662W        W54889  12.695   5.550   3.193
89663W        W54890  15.798   7.316  10.691
89664W        W54891   4.134  44.343  13.037
89665W        W54892  16.848  22.496  13.885
89666W        W54893  39.981  14.123  12.458
89667W        W54894  26.660  32.542   2.919
89668W        W54895  22.072  44.719   4.110
89669W        W54896  10.359  13.571  14.372
89670W        W54897   2.646  13.815  11.157
89671W        W54898  40.097  35.546   2.686
89672W        W54899  14.970  30.865   4.200
89673W        W54900  41.399  11.590   2.693
89674W        W54901  21.206   7.702   4.134
89675W        W54902  33.936  27.527   3.382
89676W        W54903  33.513  11.147   2.392
89677W        W54904  15.324  37.823   3.636
89678W        W54905  25.991  29.017   4.135
89679W        W54906  24.728   6.789  12.692
89680W        W54907  21.155   6.749  12.104
89681W        W54908  31.600   7.127  13.834
89682W        W54909  39.875  18.164   2.281
89683W        W54910  37.300  35.520  12.405
89684W        W54911  12.960  18.717   1.221
89685W        W54912  24.842  44.798  11.992
89686W        W54913  10.315   5.470  12.544
89687W        W54914  34.868  33.765   0.968
89688W        W54915  11.880  38.693   2.600
89689W        W54916  19.796  40.311   1.767
89690W        W54917  14.325  10.201  13.325
89691W        W54918   1.732  27.089   3.116
89692W        W54919  44.388  43.009   4.190
89693W        W54920  37.973  37.559  13.396
89694W        W54921  30.383   1.938  11.521
89695W        W54922  14.857  40.460   3.633
89696W        W54923  19.587  10.294   0.365
89697W        W54924  11.841  15.514   4.909
89698W        W54925  32.395  36.987   3.327
89699W        W54926   1.381  16.062   0.123
89700W        W54927  16.665  29.040   4.615
89701W        W54928  10.769  16.336  13.005
89702W        W54929  39.203  38.941  12.385
89703W        W54930  12.692  17.183  12.961
89704W        W54931  28.509   3.312   1.417
89705W        W54932  42.973   9.652  13.913
89706W        W54933  29.165   8.102  13.168
89707W        W54934  30.279   2.932   0.344
89708W        W54935  34.208  38.116  12.416
89709W        W54936   0.663  28.203  12.009
89710W        W54937  12.746   3.620   4.668
89711W        W54938   7.842  29.305   2.591
89712W        W54939   8.900  40.824  13.427
89713W        W54940  39.412   4.646  12.842
89714W        W54941  38.777  19.307  10.023
89715W        W54942  44.459  19.131   4.235
89716W        W54943   4.999   0.523   0.347
89717W        W54944  12.064  14.803   0.332
89718W        W54945  31.087  15.739  10.076
89719W        W54946  33.869  32.861  10.424
89720W        W54947  28.441  36.510  14.201
89721W        W54948  41.809   4.970   0.147
89722W        W54949   1.000  25.565   4.968
89723W        W54950  29.969  18.834   1.369
89724W        W54951  23.249  17.217   3.077
89725W        W54952  24.656  28.136  12.958
89726W        W54953  44.388  32.952   1.482
89727W        W54954  43.452  19.763   2.335
89728W        W54955  13.328  23.494  14.429
89729W        W54956  23.052  27.599  12.040
89730W        W54957  40.054  43.976   1.707
89731W        W54958  36.702  39.923   4.706
89732W        W54959  29.516   8.665   0.956
89733W        W54960  28.573  18.380  11.057
89734W        W54961  38.296  41.285  10.747
89735W        W54962   1.288  41.501  12.977
89736W        W54963   4.801  26.404   4.982
89737W        W54964   3.196  11.206   2.292
89738W        W54965  41.783  33.049  10.445
89739W        W54966  42.990  43.437   3.604
89740W        W54967  41.654  39.603  10.669
89741W        W54968  30.988  24.989   1.853
89742W        W54969  12.436  27.159  13.797
89743W        W54970  34.942   1.361  13.826
89744W        W54971  37.982  21.779   1.495
89745W        W54972  36.441  39.643  12.060
89746W        W54973  31.509   9.064   0.368
89747W        W54974   8.631  28.618  13.005
89748W        W54975  18.123  13.092   0.942
89749W        W54976  43.556  26.531   3.487
89750W        W54977   2.182   2.337  14.520
89751W        W54978  27.967   8.423   3.617
89752W        W54979  14.269   4.388   3.592
89753W        W54980  31.126  44.958   3.550
89754W        W54981  30.225   1.896  13.451
89755W        W54982   1.528   6.351  11.997
89756W        W54983  20.513  11.163  14.268
89757W        W54984  38.616  25.214  14.772
89758W        W54985  20.768   3.949  14.868
89759W        W54986   9.902  30.717  12.084
89760W        W54987   0.829   2.897   3.630
89761W        W54988  43.745   5.816  11.573
89762W        W54989  31.186   1.217   4.517
89763W        W54990  32.034   5.080  11.075
89764W        W54991   8.414  13.070  10.263
89765W        W54992  38.343  43.383  12.549
89766W        W54993  17.342  19.743   1.795
89767W        W54994  26.100  22.799  11.557
89768W        W54995  14.242  41.462   0.081
89769W        W54996  27.239  36.667  12.910
89770W        W54997   8.689  42.051   2.271
89771W        W54998  32.374  18.334   1.141
89772W        W54999   7.943  23.118   3.158
89773W        W55000  24.281  35.962   4.599
89774W        W55001  31.978  26.910  13.092
89775W        W55002  33.371  26.033  13.338
89776W        W55003  20.643  20.053   4.663
89777W        W55004  20.234  32.938   3.657
89778W        W55005  16.647  27.146   4.620
89779W        W55006   2.644  28.135   2.308
89780W        W55007   6.656  42.977   2.241
89781W        W55008  15.567  21.531  13.962
89782W        W55009   4.242  22.666  11.848
89783W        W55010  25.944   3.724   3.414
89784W        W55011  42.058  41.303  12.887
89785W        W55012  25.012  29.933  10.448
89786W        W55013  36.393  30.103   4.124
89787W        W55014  15.019  26.045  11.203
89788W        W55015  38.399  29.130  12.383
89789W        W55016  15.722  12.407   3.490
89790W        W55017   4.741  19.432  13.041
89791W        W55018   9.216  23.887  12.123
89792W        W55019   7.428  14.074   5.461
89793W        W55020  13.973  35.608   1.857
89794W        W55021  44.515  18.450   4.920
89795W        W55022  31.361  14.421   1.862
89796W        W55023  31.330  23.944  13.089
89797W        W55024  36.156  37.217   4.088
89798W        W55025   7.827  24.760  13.838
89799W        W55026   8.968  42.860   2.771
89800W        W55027  40.460  30.466  10.672
89801W        W55028  39.395  28.434  13.487
89802W        W55029  33.445  28.146  13.146
89803W        W55030  28.635   0.012  14.509
89804W        W55031   7.247  31.433   1.183
89805W        W55032   3.658  29.430   3.683
89806W        W55033  44.334   2.796   2.465
89807W        W55034  22.976  17.487   2.760
89808W        W55035  12.771  30.149   2.315
89809W        W55036  40.328  22.125   4.268
89810W        W55037   2.516  26.038   1.952
89811W        W55038  17.009  31.477   2.907
89812W        W55039   2.715  29.885   4.595
89813W        W55040   5.270  29.949  11.223
89814W        W55041  31.885  34.627   1.187
89815W        W55042   3.525  12.785   0.829
89816W        W55043  35.861  21.169   0.782
89817W        W55044  15.055  40.384   0.037
89818W        W55045  27.368  31.488  10.738
89819W        W55046   8.362  12.459  13.633
89820W        W55047  42.423  42.152   4.105
89821W        W55048  30.060  42.864  13.582
89822W        W55049  44.630  28.261   4.619
89823W        W55050   5.566  18.727   1.390
89824W        W55051  14.127  32.947   2.787
89825W        W55052  27.236  33.062  12.712
89826W        W55053  32.793  26.604   0.806
89827W        W55054  44.844  15.655  12.122
89828W        W55055  30.435  16.765   3.554
89829W        W55056  35.408  24.748   1.373
89830W        W55057  18.191   5.386  12.115
89831W        W55058  11.278  14.084   0.721
89832W        W55059  21.724   7.297   1.587
89833W        W55060  32.801   1.319  14.317
89834W        W55061   3.345  25.652  12.842
89835W        W55062  26.672  21.764  13.907
89836W        W55063  24.880   8.142   0.410
89837W        W55064  32.486  31.513   1.678
89838W        W55065  33.885   3.425  13.041
89839W        W55066  17.272   2.890  14.864
89840W        W55067  25.932   7.653  11.743
89841W        W55068   3.641  25.617   4.851
89842W        W55069   0.945   7.961   3.765
89843W        W55070   0.369  12.650   4.112
89844W        W55071  28.462   6.652   1.992
89845W        W55072  27.602   4.635  11.617
89846W        W55073  42.242   8.264   1.248
89847W        W55074  43.984  32.533   3.077
89848W        W55075  10.338  29.066  10.716
89849W        W55076  23.988  36.677   2.696
89850W        W55077  12.344   4.893  11.675
89851W        W55078   1.666   5.900  14.086
89852W        W55079  43.995  14.396   0.936
89853W        W55080  43.717  36.029   3.351
89854W        W55081  41.580   4.452  14.195
89855W        W55082  29.214   6.520   1.244
89856W        W55083  27.515   5.392  14.618
89857W        W55084  14.340   4.213  11.099
89858W        W55085   1.585  19.452   5.445
89859W        W55086  20.651  24.188  14.380
89860W        W55087  11.524  29.051   2.335
89861W        W55088  28.880  28.942   3.823
89862W        W55089  38.067  20.921  14.483
89863W        W55090  35.019   9.315   1.361
89864W        W55091  41.892   2.248   1.742
89865W        W55092   8.150  38.127   1.293
89866W        W55093  38.125   4.979  12.927
89867W        W55094  33.837   3.843   3.977
89868W        W55095  44.423  26.635   0.826
89869W        W55096  24.605  30.091  14.606
89870W        W55097  37.431  28.710   0.994
89871W        W55098  21.926  32.674  13.816
89872W        W55099  33.962  27.235  10.092
89873W        W55100  33.329  11.353   1.857
89874W        W55101   7.140  40.808  13.501
89875W        W55102  19.485  11.336  14.454
89876W        W55103   4.389  21.615  13.996
89877W        W55104  38.272  18.294   1.805
89878W        W55105   2.801  39.738   1.213
89879W        W55106  37.869   0.712  13.315
89880W        W55107  12.629  25.535  13.509
89881W        W55108  43.952   7.328  12.663
89882W        W55109  28.645  43.538  11.960
89883W        W55110  41.477   1.765   0.302
89884W        W55111   1.224  17.627   1.711
89885W        W55112  40.526  33.554   2.190
89886W        W55113  34.985   8.900   1.760
89887W        W55114  31.142  40.840   3.233
89888W        W55115   5.623  15.524   4.525
89889W        W55116  38.436  42.280   4.169
89890W        W55117  44.736   3.646   4.367
89891W        W55118  34.881  14.159   0.749
89892W        W55119  22.751  34.341  14.045
89893W        W55120  42.784  37.462  11.646
89894W        W55121  35.088  14.278   3.844
89895W        W55122  44.729  21.714   1.788
89896W        W55123  23.868   4.223  10.791
89897W        W55124  40.781  44.841  11.474
89898W        W55125  26.628  30.932   1.874
89899W        W55126   0.364  16.238   0.466
89900W        W55127  24.581  13.368   0.367
89901W        W55128  42.073   9.135   1.186
89902W        W55129  25.501  37.890  14.074
89903W        W55130  30.145  14.258   2.690
89904W        W55131  18.322  31.189  12.469
89905W        W55132   2.786  33.004  14.713
89906W        W55133   1.606  35.682  14.236
89907W        W55134  31.995   8.821  11.209
89908W        W55135  34.739  34.981  10.517
89909W        W55136  25.638  17.347   0.933
89910W        W55137  14.294  26.800  11.492
89911W        W55138  25.689  36.696  12.950
89912W        W55139  35.134  28.661  13.847
89913W        W55140  10.704  11.334   5.223
89914W        W55141  30.726  11.287  14.429
89915W        W55142  40.348  21.777   2.799
89916W        W55143   1.428  41.189  13.355
89917W        W55144  20.696  37.292  11.110
89918W        W55145  33.496  40.546  14.420
89919W        W55146  16.354  16.220  10.573
89920W        W55147  16.158  35.115   2.730
89921W        W55148  43.645  16.156  14.365
89922W        W55149   5.896  13.679  12.422
89923W        W55150  30.644   3.730   2.232
89924W        W55151  32.478  39.475   4.970
89925W        W55152  29.948  26.192   1.926
89926W        W55153   3.864  32.630   2.429
89927W        W55154  21.497  38.110   0.558
89928W        W55155  37.802  11.169   2.414
89929W        W55156  44.218   7.291  11.799
89930W        W55157  13.957   0.298   1.455
89931W        W55158  34.988  43.059   2.770
89932W        W55159  32.113   4.288   2.904
89933W        W55160  32.217  34.776   0.745
89934W        W55161  39.512  32.195   2.920
89935W        W55162  25.274  13.537  11.479
89936W        W55163  18.327  36.825  12.071
89937W        W55164  35.034   0.007  13.464
89938W        W55165  32.704  32.945  11.966
89939W        W55166  25.809  11.956  12.557
89940W        W55167   3.164  25.082   2.721
89941W        W55168  19.638   0.497  14.968
89942W        W55169   7.017  12.976  11.401
89943W        W55170   4.304  41.083  14.008
89944W        W55171  12.710   2.632   0.864
89945W        W55172  36.188   3.909   2.654
89946W        W55173  25.555  42.609  10.907
89947W        W55174   0.978  13.168   2.432
89948W        W55175  36.847   3.815   4.698
89949W        W55176  44.285  17.740   1.272
89950W        W55177  27.173  38.798  13.067
89951W        W55178   0.322  42.495  14.033
89952W        W55179   1.070  10.282   1.297
89953W        W55180  44.547  30.513   3.479
89954W        W55181   4.980   1.781   0.770
89955W        W55182  14.243  31.429  10.691
89956W        W55183  17.184  11.432  13.766
89957W        W55184  27.623  28.370  10.586
89958W        W55185  38.128  14.992   1.276
89959W        W55186  22.198  21.260  12.463
89960W        W55187  22.682  36.975   2.141
89961W        W55188  30.869  20.197  11.754
89962W        W55189  40.433  13.412  11.530
89963W        W55190  33.108   1.218   3.539
89964W        W55191  18.631  30.091  14.081
89965W        W55192  17.515  35.928   0.291
89966W        W55193   3.711  42.493  10.075
89967W        W55194  42.038  39.584   0.842
89968W        W55195   6.038  33.673   1.220
89969W        W55196  12.686   9.642  12.086
89970W        W55197  32.683  31.506  10.635
89971W        W55198  37.438  36.744  14.277
89972W        W55199  26.628  14.112  13.587
89973W        W55200  16.355  13.746  10.679
89974W        W55201  39.233  21.678   0.317
89975W        W55202   0.332  30.612  12.387
89976W        W55203  30.442  42.536  13.440
89977W        W55204  18.070   8.779   3.138
89978W        W55205  25.081  18.131   4.347
89979W        W55206   5.791  33.264   3.625
89980W        W55207  42.337   5.774   3.854
89981W        W55208  20.155  31.434  14.288
89982W        W55209  26.516  13.079  12.521
89983W        W55210  34.916  41.885   4.596
89984W        W55211  22.748  30.032  12.351
89985W        W55212   9.650  22.345  14.651
89986W        W55213  23.065  44.786  11.471
89987W        W55214   4.239  32.164  11.197
89988W        W55215   3.732  34.467  10.762
89989W        W55216   2.033  11.494  12.940
89990W        W55217  42.794  28.960   0.746
89991W        W55218  27.023   2.889  12.350
89992W        W55219  20.960  39.008   0.933
89993W        W55220  24.277  13.311   1.395
89994W        W55221  22.927   2.540  11.160
89995W        W55222  16.094  39.705   0.781
89996W        W55223  13.781  44.855  13.443
89997W        W55224  31.484   6.265   2.319
89998W        W55225  41.525  33.872   1.368
89999W        W55226  25.090  25.100   2.672
90000W        W55227  18.298  29.386  11.831
90001W        W55228  23.530   9.268  12.064
90002W        W55229  21.052   5.020   4.236
90003W        W55230   8.397  17.179  11.128
90004W        W55231  14.394  29.635   3.308
90005W        W55232  28.797  27.064  14.531
90006W        W55233  43.368   1.330   2.902
90007W        W55234   8.790  27.477  11.847
90008W        W55235  28.432  21.349  11.273
90009W        W55236   4.065  31.533   3.097
90010W        W55237  16.740  13.733   2.848
90011W        W55238  26.583  19.073  13.797
90012W        W55239  18.701  38.861   3.774
90013W        W55240  37.298  22.922  13.853
90014W        W55241  13.999  40.375  12.052
90015W        W55242  41.253  21.168  14.728
90016W        W55243  27.437   7.095  11.163
90017W        W55244  38.035   4.277   1.736
90018W        W55245  36.647  26.077   1.485
90019W        W55246  19.530  20.070   1.423
90020W        W55247  20.556  11.560   2.472
90021W        W55248   9.750   3.406   3.101
90022W        W55249  14.221   2.635   4.032
90023W        W55250  27.037  41.486   3.934
90024W        W55251  13.223  10.309   1.337
90025W        W55252   1.553  19.340   9.879
90026W        W55253  33.674  43.721  14.836
90027W        W55254   5.435   4.785  14.249
90028W        W55255  10.162  12.767  14.898
90029W        W55256   1.921  33.265   5.040
90030W        W55257   2.383  16.553   3.879
90031W        W55258   9.777  16.740  13.340
90032W        W55259  19.071  21.708   4.289
90033W        W55260   2.168  27.700  12.153
90034W        W55261   0.899  23.073   4.182
90035W        W55262  22.610   7.399   2.161
90036W        W55263  27.430  40.850   0.737
90037W        W55264  43.037  20.017  13.724
90038W        W55265  19.330  38.781  13.937
90039W        W55266   5.365   9.778   3.116
90040W        W55267  36.054  42.570   1.598
90041W        W55268  40.916  14.745   3.175
90042W        W55269  25.182  23.957   2.256
90043W        W55270  29.144   0.365  10.815
90044W        W55271  17.050   7.765   0.930
90045W        W55272  23.968  15.794   2.149
90046W        W55273   2.962   5.402   2.455
90047W        W55274  36.824  34.838   1.719
90048W        W55275  25.095  27.845   5.147
90049W        W55276  43.181  42.859   3.173
90050W        W55277  26.077  21.172   4.370
90051W        W55278  32.388  37.542  14.376
90052W        W55279  19.746   4.904   3.735
90053W        W55280  34.833  32.429   2.143
90054W        W55281  27.414   0.345   2.643
90055W        W55282  38.378  31.991  11.660
90056W        W55283  31.923  21.065  14.447
90057W        W55284  30.647  12.606   2.223
90058W        W55285  18.924  35.232   2.102
90059W        W55286  10.424  40.922  13.527
90060W        W55287   9.150   1.399   1.625
90061W        W55288   7.370   7.549  11.654
90062W        W55289  14.645  43.220   1.301
90063W        W55290   1.466  19.665   4.976
90064W        W55291  16.246  32.309   3.708
90065W        W55292  22.491  19.699  10.700
90066W        W55293  42.051  43.700   3.259
90067W        W55294   4.794  35.463   3.801
90068W        W55295   7.201  19.471  10.850
90069W        W55296   1.805  35.834  10.958
90070W        W55297  29.155  13.333  14.818
90071W        W55298  42.950   1.510   2.672
90072W        W55299  31.884  16.575   1.381
90073W        W55300  12.306  36.985  11.065
90074W        W55301  18.981  37.467  13.490
90075W        W55302  24.492  36.299  14.242
90076W        W55303  18.627  25.751  13.113
90077W        W55304  41.451   7.830  13.410
90078W        W55305  23.747   3.413   0.764
90079W        W55306  40.768  24.485  13.004
90080W        W55307  35.020  10.888  13.833
90081W        W55308  25.476  37.040   3.271
90082W        W55309  43.193   6.600   1.136
90083W        W55310  26.716  34.031   2.343
90084W        W55311   4.163   5.279   3.217
90085W        W55312  13.161   5.608  14.255
90086W        W55313  11.407  37.819  10.604
90087W        W55314   1.938  44.220  14.699
90088W        W55315  29.556   7.439  14.501
90089W        W55316   6.430   4.123  12.753
90090W        W55317  30.488  38.393   0.991
90091W        W55318  21.726   1.773  14.064
90092W        W55319  16.295  21.777  12.349
90093W        W55320   7.186  10.401   0.481
90094W        W55321  43.273  22.100  11.415
90095W        W55322   3.103  25.381  11.874
90096W        W55323  19.069   2.917  14.404
90097W        W55324  44.995  33.225   3.723
90098W        W55325   2.536  25.516  13.106
90099W        W55326  21.224  20.642   0.762
90100W        W55327  36.502   2.862  13.394
90101W        W55328  38.003  32.544  11.683
90102W        W55329  10.978   1.927  13.558
90103W        W55330  43.276  13.105   3.225
90104W        W55331  42.830  43.831   1.394
90105W        W55332   2.651   1.344   0.776
90106W        W55333  21.656   4.473  10.235
90107W        W55334  11.470  44.693   3.579
90108W        W55335  32.048  34.108   4.189
90109W        W55336   1.525  34.533  14.437
90110W        W55337  34.060  19.131   2.801
90111W        W55338   1.204  27.577  14.949
90112W        W55339  40.829  44.426  13.914
90113W        W55340  44.471  39.953  10.329
90114W        W55341   5.584  40.454  11.463
90115W        W55342  10.197  11.702  11.563
90116W        W55343  29.662   3.217   3.518
90117W        W55344  34.478  43.235  10.726
90118W        W55345  23.874   9.101  11.232
90119W        W55346  28.444   5.752   3.829
90120W        W55347   6.637  17.154   4.449
90121W        W55348  42.735  20.410   2.043
90122W        W55349  17.595  38.872  12.420
90123W        W55350  16.666   3.235  14.482
90124W        W55351  42.010  28.423   3.790
90125W        W55352   3.664  19.212  13.848
90126W        W55353  26.504  32.727  14.870
90127W        W55354   0.042   0.488  12.897
90128W        W55355  44.735  12.623  12.523
90129W        W55356   6.793  31.920  11.248
90130W        W55357   0.254  19.092   0.365
90131W        W55358  44.887  34.944   2.351
90132W        W55359  26.606  29.575   3.342
90133W        W55360  11.047  25.105  14.266
90134W        W55361  33.844  26.498   4.169
90135W        W55362  33.932  34.000   1.745
90136W        W55363  28.489   9.932  12.611
90137W        W55364  27.605   4.665  13.924
90138W        W55365  14.744  22.323   3.237
90139W        W55366   7.329  19.453  11.325
90140W        W55367  30.880  19.701  11.544
90141W        W55368  40.027  33.144   3.094
90142W        W55369  29.225  15.601   2.337
90143W        W55370   4.304  42.061   2.648
90144W        W55371   4.192   5.428  14.412
90145W        W55372  18.244  32.760   2.732
90146W        W55373   6.760  33.041   0.293
90147W        W55374  41.094  22.539   2.325
90148W        W55375  28.163  28.688   3.965
90149W        W55376  33.953  32.577  11.915
90150W        W55377  37.426  34.746   4.634
90151W        W55378  38.845   8.900   4.475
90152W        W55379  42.123  17.097   2.733
90153W        W55380  37.743  22.444  13.332
90154W        W55381   9.181  34.134  12.094
90155W        W55382  21.607  41.277  14.453
90156W        W55383  30.213  40.982  12.853
90157W        W55384  44.739  36.521  11.832
90158W        W55385  37.985  36.475  13.520
90159W        W55386  37.396  15.171  14.467
90160W        W55387  20.587  39.413   4.146
90161W        W55388  36.038   9.291   3.668
90162W        W55389  39.499  43.965  10.558
90163W        W55390  34.678  38.232  12.232
90164W        W55391  33.385  25.394  11.509
90165W        W55392  21.083  25.454   4.082
90166W        W55393  23.779  36.936   0.049
90167W        W55394  19.119  34.403  10.658
90168W        W55395   5.782  20.804  11.849
90169W        W55396  13.841  23.616  12.578
90170W        W55397  33.409  37.547   2.315
90171W        W55398   4.034  23.209  10.617
90172W        W55399   2.532  13.707   4.799
90173W        W55400  43.866  15.248  12.913
90174W        W55401   6.490  23.057  12.520
90175W        W55402   8.550   5.910   1.209
90176W        W55403  18.525  10.902  14.741
90177W        W55404  12.073  35.628  10.683
90178W        W55405  34.662  21.569   0.334
90179W        W55406  19.940  40.398  11.264
90180W        W55407  38.088  17.413  12.114
90181W        W55408  28.469  14.600   2.556
90182W        W55409  21.260  20.964   2.041
90183W        W55410  32.408  10.285  13.418
90184W        W55411  18.588  44.834   3.816
90185W        W55412  39.825  18.051   1.413
90186W        W55413  38.581  18.241   0.781
90187W        W55414  32.636   5.671   3.366
90188W        W55415  30.025   4.936   4.726
90189W        W55416  15.264  12.076  11.387
90190W        W55417   3.001  42.832   3.307
90191W        W55418  34.081  30.583   1.534
90192W        W55419  22.318   9.948   2.107
90193W        W55420  29.893  23.175   3.937
90194W        W55421  39.049  31.045   1.832
90195W        W55422   8.707  36.118   4.166
90196W        W55423  14.615   8.071  12.012
90197W        W55424  26.054  41.931  13.073
90198W        W55425  21.329  33.642  13.254
90199W        W55426  20.758   7.872  14.482
90200W        W55427  40.537  33.067   4.239
90201W        W55428   0.061   4.317   2.242
90202W        W55429  14.871  17.814   0.834
90203W        W55430  21.265   1.185   0.993
90204W        W55431  35.599  44.553   0.362
90205W        W55432  30.769  37.963   0.784
90206W        W55433  15.469  16.451   2.575
90207W        W55434  30.821  21.672  10.999
90208W        W55435   9.470  22.312   3.308
90209W        W55436  22.432   9.385   2.211
90210W        W55437  30.893  41.269  11.115
90211W        W55438  21.149  32.085  14.931
90212W        W55439   2.346  21.749   3.238
90213W        W55440  26.482  13.471  11.219
90214W        W55441  21.781  17.625   1.939
90215W        W55442  40.040  19.036  11.902
90216W        W55443  27.747  22.161  12.029
90217W        W55444   5.267  15.211  13.639
90218W        W55445  24.737  19.160  11.574
90219W        W55446  41.187  17.308   3.679
90220W        W55447  40.961  22.292  13.522
90221W        W55448   3.217  31.038   0.867
90222W        W55449  36.202   8.214  11.216
90223W        W55450  13.683  28.878   4.361
90224W        W55451  23.952  33.616   0.335
90225W        W55452  42.079  25.500   3.712
90226W        W55453  42.728  22.354  14.567
90227W        W55454  31.129  11.390  10.096
90228W        W55455  20.802  22.487   0.302
90229W        W55456   9.991  26.062   2.753
90230W        W55457  38.066  30.124  14.424
90231W        W55458   3.242  22.878  12.838
90232W        W55459  26.105  30.018   0.814
90233W        W55460  34.545   9.834   4.583
90234W        W55461  24.400  28.072   4.601
90235W        W55462  37.921  40.034  11.157
90236W        W55463  23.126  16.820  11.985
90237W        W55464  38.774  26.947  13.914
90238W        W55465   8.956  39.594  13.320
90239W        W55466  24.356  28.031   3.804
90240W        W55467  39.867  20.123  10.862
90241W        W55468   7.322   5.894   4.228
90242W        W55469  19.128   3.977  12.383
90243W        W55470  22.400   2.541  11.157
90244W        W55471  39.597  44.726   1.300
90245W        W55472   1.460  12.485   2.656
90246W        W55473  29.208  30.236  13.734
90247W        W55474   4.753  25.263   2.180
90248W        W55475  36.280  14.583  11.720
90249W        W55476  11.703  30.705  12.043
90250W        W55477  36.985  29.480   2.327
90251W        W55478  30.218  26.983   0.895
90252W        W55479  26.153   9.748  14.284
90253W        W55480  26.165  40.819   3.143
90254W        W55481  14.136  11.292   1.441
90255W        W55482  44.428  20.734   0.381
90256W        W55483  18.160   3.736  11.576
90257W        W55484  32.494  17.854   1.322
90258W        W55485  43.537  41.771   3.509
90259W        W55486  31.449  21.304   2.706
90260W        W55487  37.513  39.919   2.643
90261W        W55488   4.407  37.140   3.215
90262W        W55489  10.158  39.099  12.129
90263W        W55490  13.238  16.500  13.509
90264W        W55491  31.085   4.953  13.973
90265W        W55492  13.606  11.348  11.144
90266W        W55493  26.075   9.243  13.491
90267W        W55494  31.599  33.590   4.622
90268W        W55495  32.099  44.026   2.600
90269W        W55496  18.537  11.315  12.462
90270W        W55497   4.218  30.567   3.930
90271W        W55498  31.283  25.530   9.726
90272W        W55499  13.189   5.978   4.746
90273W        W55500  43.924  39.279  13.031
90274W        W55501  15.752  36.042  13.872
90275W        W55502  39.670   1.004  10.773
90276W        W55503  14.837  21.675  10.408
90277W        W55504   2.984  28.583  12.550
90278W        W55505  24.692   0.331  12.912
90279W        W55506  25.883  26.099  14.044
90280W        W55507  20.348  41.761  12.092
90281W        W55508  33.004   0.701   3.595
90282W        W55509  42.736  27.503  11.605
90283W        W55510  22.437  41.838  14.284
90284W        W55511   8.674  37.945  13.547
90285W        W55512  34.450  17.841   4.698
90286W        W55513  35.951  23.227  14.420
90287W        W55514  26.458  26.928  11.990
90288W        W55515   2.811  39.571   1.740
90289W        W55516  31.399  20.974  14.421
90290W        W55517  21.507  20.077   1.378
90291W        W55518  15.329  37.131  12.919
90292W        W55519  14.185  28.729   4.456
90293W        W55520   3.962  32.961  11.671
90294W        W55521   7.408  18.117  13.976
90295W        W55522  12.768  39.886  12.574
90296W        W55523   2.507  32.030  11.922
90297W        W55524  23.759  34.915  11.673
90298W        W55525  29.137  41.257   3.727
90299W        W55526  26.590  43.489   9.889
90300W        W55527  21.082   8.445   4.682
90301W        W55528   0.247  21.606  12.144
90302W        W55529  28.100  41.225  13.404
90303W        W55530  41.730  39.015  12.639
90304W        W55531  24.742  34.441   3.639
90305W        W55532  31.975  26.205  12.282
90306W        W55533  42.351  39.050   4.305
90307W        W55534   5.506  37.992   0.342
90308W        W55535  11.081   6.158  12.002
90309W        W55536  36.463  24.381   3.779
90310W        W55537  13.183   2.909  11.540
90311W        W55538  26.288  40.377  10.854
90312W        W55539  20.954  16.826  13.864
90313W        W55540  14.059  37.971   0.864
90314W        W55541  35.114  15.038  13.090
90315W        W55542  27.059  13.341   4.635
90316W        W55543  19.027   7.863  12.061
90317W        W55544  27.104  32.197   0.263
90318W        W55545  39.511  18.338  12.806
90319W        W55546  16.619  36.515  11.851
90320W        W55547  31.943   2.999  12.952
90321W        W55548   3.985  32.504  10.435
90322W        W55549   5.473   7.206   1.881
90323W        W55550  14.080  18.760  14.516
90324W        W55551  24.127  43.528   2.938
90325W        W55552   7.120  30.054   0.861
90326W        W55553   4.065  27.188   1.836
90327W        W55554   4.847  44.785   0.752
90328W        W55555  12.173  26.733  14.031
90329W        W55556  18.250  34.561   0.177
90330W        W55557  21.631  19.512  10.499
90331W        W55558  14.184  26.114  13.449
90332W        W55559  21.046  35.111  13.286
90333W        W55560   6.680  21.095  13.008
90334W        W55561  36.801  29.049   4.825
90335W        W55562  13.865  28.258   0.345
90336W        W55563  19.270  36.906   1.723
90337W        W55564  26.170  27.644   2.400
90338W        W55565  32.903  23.986   0.717
90339W        W55566  34.337  41.312   1.908
90340W        W55567  29.621  43.499  11.579
90341W        W55568  34.916  20.046   4.642
90342W        W55569  28.773   3.689  13.993
90343W        W55570  39.338  34.011   0.696
90344W        W55571  19.761  26.491   1.254
90345W        W55572  35.427  29.583   1.340
90346W        W55573  32.184   8.423  11.986
90347W        W55574  28.802  14.321  10.743
90348W        W55575  25.633  40.779   2.398
90349W        W55576  35.914   2.504   0.420
90350W        W55577  41.905   1.321   3.831
90351W        W55578  28.037   1.735  14.925
90352W        W55579  23.558  19.577   2.375
90353W        W55580  37.853  13.781  14.853
90354W        W55581  38.486  25.115   4.150
90355W        W55582  13.625  42.900   3.256
90356W        W55583  33.435  33.664  12.838
90357W        W55584   9.643   8.942  14.350
90358W        W55585  35.658   7.664  13.572
90359W        W55586  27.407  28.233   0.485
90360W        W55587  12.281  10.428  12.055
90361W        W55588   0.901   2.482   0.508
90362W        W55589   7.224  17.135   2.744
90363W        W55590  18.602  27.377   2.192
90364W        W55591  33.905   7.205   3.785
90365W        W55592  40.948  28.769  11.081
90366W        W55593  26.750   3.374  14.365
90367W        W55594  21.226  41.601   1.989
90368W        W55595  25.675  42.758   3.575
90369W        W55596  14.327   5.284  14.048
90370W        W55597  37.143  24.080  14.613
90371W        W55598  17.178  12.288   1.876
90372W        W55599  34.381  19.572   4.022
90373W        W55600  16.176  24.732   1.348
90374W        W55601  17.502  40.583   1.061
90375W        W55602  22.234   3.236  13.947
90376W        W55603  19.429  31.764   2.680
90377W        W55604  23.162  44.904  11.954
90378W        W55605  39.048  28.788  13.323
90379W        W55606  14.136  38.127   0.377
90380W        W55607  29.710  13.177  14.034
90381W        W55608  15.798  12.781   0.315
90382W        W55609   8.840  15.828   3.552
90383W        W55610  41.489  13.071  10.657
90384W        W55611  28.649  37.332   3.214
90385W        W55612  39.976  36.901   1.495
90386W        W55613   1.451   2.793  10.323
90387W        W55614  27.649   0.383  13.744
90388W        W55615  37.118  24.685   1.964
90389W        W55616  28.497  30.566  14.336
90390W        W55617  38.389  16.218  14.021
90391W        W55618  28.995  12.348   5.056
90392W        W55619  33.924  39.568  12.941
90393W        W55620  36.975   0.949  12.136
90394W        W55621  15.189  22.589   3.102
90395W        W55622  12.945  29.602  14.345
90396W        W55623  21.022  21.401   1.282
90397W        W55624  11.204  42.577  14.776
90398W        W55625  13.814  42.773  11.957
90399W        W55626  44.337  44.261  10.686
90400W        W55627  25.420   4.360  11.588
90401W        W55628  20.063  44.789   2.514
90402W        W55629   4.496   6.886   2.719
90403W        W55630  19.088  22.019   2.363
90404W        W55631  37.305  34.560   2.307
90405W        W55632   7.392  42.794  13.999
90406W        W55633  32.169  29.044  11.980
90407W        W55634   4.634   4.342  14.364
90408W        W55635  29.532   0.559  11.142
90409W        W55636  31.567  28.718   4.720
90410W        W55637  22.307  23.753   3.661
90411W        W55638  12.966  38.005  13.167
90412W        W55639   9.243  39.306  14.823
90413W        W55640  44.201  23.862   1.758
90414W        W55641  30.092  33.625   4.127
90415W        W55642   9.270  38.132  10.697
90416W        W55643  33.801   1.725  11.118
90417W        W55644  26.019  30.662  13.069
90418W        W55645   3.898  34.332   3.399
90419W        W55646  26.109  33.164  12.045
90420W        W55647  20.362  31.916   4.775
90421W        W55648  28.556  18.663  10.626
90422W        W55649  36.330  16.356   0.259
90423W        W55650  42.135  43.423  12.618
90424W        W55651  36.980  23.077  13.020
90425W        W55652   8.862   7.268   2.899
90426W        W55653   3.942  25.720   0.850
90427W        W55654  36.324  11.138   3.737
90428W        W55655  13.173  42.442  14.946
90429W        W55656  14.880  44.301   0.490
90430W        W55657  11.693  12.714  13.397
90431W        W55658   3.018  36.869   4.196
90432W        W55659   6.417  20.784  13.432
90433W        W55660  22.412  44.002  12.437
90434W        W55661   5.279  36.103   2.304
90435W        W55662  19.945  33.082   2.794
90436W        W55663   9.290   7.382  11.606
90437W        W55664   5.371  30.229   9.896
90438W        W55665  32.975  35.736   3.671
90439W        W55666  40.014  13.254  12.622
90440W        W55667  37.506  13.199  13.740
90441W        W55668  34.371  26.566   2.243
90442W        W55669  28.822   4.805  13.353
90443W        W55670  24.243  16.909  13.824
90444W        W55671  25.617  40.082   1.919
90445W        W55672  24.647  13.310  12.071
90446W        W55673   0.139   5.153   0.279
90447W        W55674   1.825  40.509   1.814
90448W        W55675  39.485  19.714   3.296
90449W        W55676  41.235   1.279   4.504
90450W        W55677   2.231  13.356   3.661
90451W        W55678   9.345  35.809   0.249
90452W        W55679  29.047  41.470  11.031
90453W        W55680   1.364  31.839   2.213
90454W        W55681  11.684  31.580  12.343
90455W        W55682  41.383  23.895   2.263
90456W        W55683   6.380  31.477  10.503
90457W        W55684   0.523  35.817  11.118
90458W        W55685  26.190  37.232   3.095
90459W        W55686   3.403  43.937  13.430
90460W        W55687  12.233  43.072   3.433
90461W        W55688   7.926  17.399  11.092
90462W        W55689  20.032  20.019   0.950
90463W        W55690  37.967  27.430  11.992
90464W        W55691  20.315  11.662  14.422
90465W        W55692  34.910  19.212  12.110
90466W        W55693  43.456  38.018  11.247
90467W        W55694  27.658  23.631   1.327
90468W        W55695  26.716  34.549  13.137
90469W        W55696  18.560  13.825   4.194
90470W        W55697   5.876  20.179  11.098
90471W        W55698  14.214  35.083   2.654
90472W        W55699  17.613  25.133   3.248
90473W        W55700   0.781  35.376  13.628
90474W        W55701  14.828  44.919  14.479
90475W        W55702  18.783  29.518   0.633
90476W        W55703   5.438   4.869   3.683
90477W        W55704  27.545  25.695   4.628
90478W        W55705  11.176   4.850  10.686
90479W        W55706  23.241  32.661   0.917
90480W        W55707  25.508  42.357  14.781
90481W        W55708  30.877  18.502   0.477
90482W        W55709  34.344  39.805  10.250
90483W        W55710   6.365  24.028  12.258
90484W        W55711  35.835   6.164  11.943
90485W        W55712  27.238  21.371   0.744
90486W        W55713  21.482  17.541  11.091
90487W        W55714   1.377  44.416  13.635
90488W        W55715  44.766  42.919  12.514
90489W        W55716  31.406  20.765   1.069
90490W        W55717  16.060   5.012   2.754
90491W        W55718  18.173  27.448   2.486
90492W        W55719   1.241  20.146   5.015
90493W        W55720  24.071  34.100   4.143
90494W        W55721  28.166  18.078  12.126
90495W        W55722  27.029  19.256   4.112
90496W        W55723  15.904  28.835   1.946
90497W        W55724  32.214   3.417  11.666
90498W        W55725  41.829  15.105  14.814
90499W        W55726  30.369  32.141   1.840
90500W        W55727  12.282  30.058   4.216
90501W        W55728  36.816   4.841  14.881
90502W        W55729  39.183   3.818   2.251
90503W        W55730  41.980  10.108  11.654
90504W        W55731  33.110  42.849  14.066
90505W        W55732  27.518  30.474  11.351
90506W        W55733  32.846  10.246  11.083
90507W        W55734  17.557  36.994   0.809
90508W        W55735  19.486   1.525  12.453
90509W        W55736  16.436  34.859  14.841
90510W        W55737  16.203  43.146   5.014
90511W        W55738  34.653  28.244   0.349
90512W        W55739   8.279  26.727  13.446
90513W        W55740  27.854   0.654  14.611
90514W        W55741  22.195  33.571   2.288
90515W        W55742  36.732   9.453   1.684
90516W        W55743   6.730  24.037  14.958
90517W        W55744  34.043   7.769  12.940
90518W        W55745  44.540  19.133  11.998
90519W        W55746  42.069  13.678  12.001
90520W        W55747  35.235  27.966  13.073
90521W        W55748  16.248  34.551   0.426
90522W        W55749  41.495  21.782  13.970
90523W        W55750  35.974   9.860  13.946
90524W        W55751   6.886  42.861  12.678
90525W        W55752  25.093  14.867  11.175
90526W        W55753   5.985  31.467   4.686
90527W        W55754  11.234  17.504   1.352
90528W        W55755  19.525  38.069  13.173
90529W        W55756  44.994  42.984   3.422
90530W        W55757  41.062   4.106   4.057
90531W        W55758  22.025   5.342  13.324
90532W        W55759   7.517  25.894   2.135
90533W        W55760  24.343  42.289  13.794
90534W        W55761   1.827   9.368  11.520
90535W        W55762  10.733  31.566  14.445
90536W        W55763  13.107  21.738   2.668
90537W        W55764  38.525   9.486   2.108
90538W        W55765  17.653  27.468   2.492
90539W        W55766  30.438   0.274   0.116
90540W        W55767  39.616  23.820  11.579
90541W        W55768   5.528  42.635   1.683
90542W        W55769  26.646  36.230  13.955
90543W        W55770   9.358  42.217   4.132
90544W        W55771  10.266  33.928   2.774
90545W        W55772   7.910   1.266  10.801
90546W        W55773  24.540   0.737  12.056
90547W        W55774  34.862   7.807  12.532
90548W        W55775  35.882  14.250   4.825
90549W        W55776  34.833   5.623  13.751
90550W        W55777  30.678   0.977  12.455
90551W        W55778  14.633  14.603  11.516
90552W        W55779   4.330  26.332   5.207
90553W        W55780   4.981  32.566   4.544
90554W        W55781  30.378  15.083   3.241
90555W        W55782  35.137  36.980  11.917
90556W        W55783   9.754  10.882   3.618
90557W        W55784   3.230  32.385   0.359
90558W        W55785  18.842  44.613   4.848
90559W        W55786  36.919  17.268   1.781
90560W        W55787   1.230  14.183   3.192
90561W        W55788  11.834  44.544  12.440
90562W        W55789   4.403   2.667   0.783
90563W        W55790  22.548  13.987  10.263
90564W        W55791  27.359  13.448   1.672
90565W        W55792  43.980   0.566   0.402
90566W        W55793  17.767  36.020  13.828
90567W        W55794  20.171  42.256  14.810
90568W        W55795  18.046  26.627   0.352
90569W        W55796  10.757  25.247  11.103
90570W        W55797  33.841   8.713   3.627
90571W        W55798  10.288  28.236   0.918
90572W        W55799   2.462  27.275  14.586
90573W        W55800  15.607   9.566  12.874
90574W        W55801  33.580  38.682  10.745
90575W        W55802  25.468  26.096  11.058
90576W        W55803  34.656  23.576   3.440
90577W        W55804   3.710  32.226   4.185
90578W        W55805  29.764  18.019   0.678
90579W        W55806  22.342  28.923  11.204
90580W        W55807  36.416  27.575  13.959
90581W        W55808  16.620   6.582   0.230
90582W        W55809  20.133  25.202   1.175
90583W        W55810  13.137  30.886  14.707
90584W        W55811   9.307  43.003   4.541
90585W        W55812  29.007  23.246   3.580
90586W        W55813  44.312  25.982  10.800
90587W        W55814  36.053  22.253   0.355
90588W        W55815  20.012  15.731   1.885
90589W        W55816  25.917  15.647   1.996
90590W        W55817   5.587   9.933  13.399
90591W        W55818   1.213  25.226  12.052
90592W        W55819  27.297   3.301   4.045
90593W        W55820  29.440  25.256   3.189
90594W        W55821  33.640  15.248   0.917
90595W        W55822   5.397  37.378   2.720
90596W        W55823   0.964   3.599   0.974
90597W        W55824  38.341  33.533  12.884
90598W        W55825  21.191  10.904   4.493
90599W        W55826   5.676  35.345   2.603
90600W        W55827  21.047  19.259   4.364
90601W        W55828  41.008  12.142  12.068
90602W        W55829   8.248  30.047   2.561
90603W        W55830   1.293  30.367  11.485
90604W        W55831  16.736  22.979   3.396
90605W        W55832  28.567  36.878   4.910
90606W        W55833  44.007   1.244  12.630
90607W        W55834  43.506  25.557   3.325
90608W        W55835  44.295  26.721   4.199
90609W        W55836  13.131  44.701   4.915
90610W        W55837  30.825   6.897   2.361
90611W        W55838  35.975  23.000  14.888
90612W        W55839  43.040  25.217  12.015
90613W        W55840  15.058   8.806  12.378
90614W        W55841  12.163  22.812  11.100
90615W        W55842  35.654  37.770   3.345
90616W        W55843  43.783  44.290  12.031
90617W        W55844  36.113  38.260   2.072
90618W        W55845  25.943  21.261  13.010
90619W        W55846  10.865   1.831   1.853
90620W        W55847  14.656  11.260   1.404
90621W        W55848  10.526  28.962   3.755
90622W        W55849  44.306  42.759  10.712
90623W        W55850  40.540  40.589   3.784
90624W        W55851  25.802  18.693  12.581
90625W        W55852  14.729  18.460  13.286
90626W        W55853  36.070  12.284  12.548
90627W        W55854   9.362  43.327   0.381
90628W        W55855  21.508   8.439   1.150
90629W        W55856  31.993  29.685   5.098
90630W        W55857  20.798  22.486   4.143
90631W        W55858  42.946  22.934  12.544
90632W        W55859  33.473  43.984  14.448
90633W        W55860  32.357   3.723   1.645
90634W        W55861  44.500  30.773  13.336
90635W        W55862   5.543  43.626   5.606
90636W        W55863   2.894   8.320  11.995
90637W        W55864  39.028  37.628  12.682
90638W        W55865  42.545  27.488  12.108
90639W        W55866  40.451  12.802   3.327
90640W        W55867  40.818  40.863  12.516
90641W        W55868  17.383  29.923  13.525
90642W        W55869   1.295  21.569   0.055
90643W        W55870  33.100   6.574   0.674
90644W        W55871   7.157   3.328   3.602
90645W        W55872   3.501  10.854   0.822
90646W        W55873  17.677  31.680   3.675
90647W        W55874  39.562   7.426  12.480
90648W        W55875  19.042  44.429   3.575
90649W        W55876  12.163  10.101  10.780
90650W        W55877  26.540  18.700  13.122
90651W        W55878   1.554  30.035  11.881
90652W        W55879   9.618  34.460  12.133
90653W        W55880  11.991   3.247   2.805
90654W        W55881  18.566  20.753   2.218
90655W        W55882   9.756  17.767  12.852
90656W        W55883   8.083  29.916   2.075
90657W        W55884  31.583   1.686   1.400
90658W        W55885  13.798  28.785  12.150
90659W        W55886  42.977   3.347   3.655
90660W        W55887  30.029   2.295  14.851
90661W        W55888  39.240   1.425  11.420
90662W        W55889   2.790  22.308   1.362
90663W        W55890  10.202  10.656  10.731
90664W        W55891  19.333  35.906  13.038
90665W        W55892  37.489   1.086   4.758
90666W        W55893  20.104  17.057   2.260
90667W        W55894   8.951  31.153  10.930
90668W        W55895  39.233  13.075   4.174
90669W        W55896  35.664  10.319  10.679
90670W        W55897  16.258   7.966   2.608
90671W        W55898  43.107   0.995   1.964
90672W        W55899  24.565  37.299  14.301
90673W        W55900   1.132   3.199  10.338
90674W        W55901  15.548  36.298  10.762
90675W        W55902  38.520  19.102  12.359
90676W        W55903   7.112  41.320  11.115
90677W        W55904  18.666  33.352   4.092
90678W        W55905  39.973  32.949  12.668
90679W        W55906  31.376  19.463   2.217
90680W        W55907  41.346  29.556  14.836
90681W        W55908  44.440  26.455   3.784
90682W        W55909  11.128  12.604   4.865
90683W        W55910  32.956  37.643  13.510
90684W        W55911  23.955   4.973   3.180
90685W        W55912  21.099   1.742  10.315
90686W        W55913   8.592  37.051   3.276
90687W        W55914  25.700  28.367   0.883
90688W        W55915  23.556   4.775  12.943
90689W        W55916   0.928  13.970   1.723
90690W        W55917   2.241   2.063  14.966
90691W        W55918   7.570  33.401  10.816
90692W        W55919  40.136  19.311   1.924
90693W        W55920  43.474   8.285   4.928
90694W        W55921   4.618  18.554   4.144
90695W        W55922  27.900  23.734   2.612
90696W        W55923  44.608  15.516   4.831
90697W        W55924  32.512  43.385   3.266
90698W        W55925  23.214   6.032   1.781
90699W        W55926   7.801   2.321  10.451
90700W        W55927  18.129  24.525  10.760
90701W        W55928   4.412   5.729  12.139
90702W        W55929  10.736  24.738  11.109
90703W        W55930  21.302  14.086  14.332
90704W        W55931  31.763  22.098   1.783
90705W        W55932  35.390   6.671   0.502
90706W        W55933  42.215  21.214  11.322
90707W        W55934  41.185  28.863  14.290
90708W        W55935  12.765   3.798  13.137
90709W        W55936   3.081  40.798  11.533
90710W        W55937  18.131   9.759   4.582
90711W        W55938  39.488  25.982  10.734
90712W        W55939  19.706   1.932   4.800
90713W        W55940  16.969  26.751  14.397
90714W        W55941  39.273  22.017  14.474
90715W        W55942  25.244  38.078   4.878
90716W        W55943  41.566  29.646  13.892
90717W        W55944  31.566  18.391  14.286
90718W        W55945   6.980  17.494  14.858
90719W        W55946  34.997   4.143   3.161
90720W        W55947  16.465  20.864   0.092
90721W        W55948   0.303  41.465   2.566
90722W        W55949  10.727   5.909  13.307
90723W        W55950  11.327  35.589   0.900
90724W        W55951  41.748  31.816   1.272
90725W        W55952  24.806  42.516   1.529
90726W        W55953  44.897   3.283  12.448
90727W        W55954   7.316  18.267   0.722
90728W        W55955  29.382   8.561  13.291
90729W        W55956   1.740  17.580  14.930
90730W        W55957  17.773  35.916   2.261
90731W        W55958  11.651   1.376   1.713
90732W        W55959  20.818  35.948  11.239
90733W        W55960   0.402  10.001  12.054
90734W        W55961  17.287  33.979  13.321
90735W        W55962  18.676  13.249   3.641
90736W        W55963  29.462  30.481  14.503
90737W        W55964  10.239  24.129   3.631
90738W        W55965  21.277  32.046  12.055
90739W        W55966   6.693  12.038  12.142
90740W        W55967  44.318  35.622  12.001
90741W        W55968   9.325  39.024   0.755
90742W        W55969  27.477  31.179  11.880
90743W        W55970  43.636  31.257   2.823
90744W        W55971  42.022  14.652   1.256
90745W        W55972  26.605  23.658  13.800
90746W        W55973   4.774  23.209  11.341
90747W        W55974  14.085  10.003   0.925
90748W        W55975  30.076  25.112   2.254
90749W        W55976  21.508  17.654   1.329
90750W        W55977  16.327  29.659   4.051
90751W        W55978  34.000  19.592  14.301
90752W        W55979  40.135   2.425  14.910
90753W        W55980   4.854  16.191   2.480
90754W        W55981  26.481  25.389   2.919
90755W        W55982  12.593  23.036   0.977
90756W        W55983  40.958  11.609   4.756
90757W        W55984  33.625  14.298  11.085
90758W        W55985   3.743  33.421   1.412
90759W        W55986  35.294  42.495   3.371
90760W        W55987  43.877  32.510  11.940
90761W        W55988   1.864  14.960  13.064
90762W        W55989  39.012  20.187   2.726
90763W        W55990  13.168   2.926  14.828
90764W        W55991  33.101   1.955  12.400
90765W        W55992  28.890   8.098   3.316
90766W        W55993   5.899  43.075  14.183
90767W        W55994   1.858  17.542   0.479
90768W        W55995  27.115  26.667  14.908
90769W        W55996  34.086  30.332  13.136
90770W        W55997  41.818  10.989  14.703
90771W        W55998  41.469  44.066   2.458
90772W        W55999  24.031  20.952  12.552
90773W        W56000  31.895  29.966   4.266
90774W        W56001  18.839  22.452   0.028
90775W        W56002  23.192  24.951  14.360
90776W        W56003  11.203  28.478  13.937
90777W        W56004  34.444  42.698   1.242
90778W        W56005  39.913  23.081  11.081
90779W        W56006  38.363  44.085  12.949
90780W        W56007  13.513   5.397   1.436
90781W        W56008  17.085  42.817   2.803
90782W        W56009  40.949  18.731  11.979
90783W        W56010   0.418  29.888   1.734
90784W        W56011  18.514  20.382   3.237
90785W        W56012  32.629  44.984   0.837
90786W        W56013  10.764  18.846  11.215
90787W        W56014  17.126  35.822  14.518
90788W        W56015  20.353  33.690   1.439
90789W        W56016  12.731  30.613  10.801
90790W        W56017   7.222  30.920   1.809
90791W        W56018   8.357  26.246  14.787
90792W        W56019  31.408  10.065  13.560
90793W        W56020   9.792  42.930   3.155
90794W        W56021  11.729  33.053  14.101
90795W        W56022   5.166  17.650  11.898
90796W        W56023  16.042  38.440  11.149
90797W        W56024  41.653   7.856  14.959
90798W        W56025  38.079  11.636  11.180
90799W        W56026  14.216  16.332  14.996
90800W        W56027   3.448   5.340   4.899
90801W        W56028   1.386  25.312  14.027
90802W        W56029   3.087  13.160  13.441
90803W        W56030  28.155  10.972  14.421
90804W        W56031   3.424  26.270   4.090
90805W        W56032  20.261   0.404  10.205
90806W        W56033  40.978  36.360   2.008
90807W        W56034   3.971   9.728  12.634
90808W        W56035  38.838   8.620  12.136
90809W        W56036  41.982  14.144   1.769
90810W        W56037  39.162  35.627  14.656
90811W        W56038  11.332  24.659   3.178
90812W        W56039  33.554  42.415   3.784
90813W        W56040   1.820  19.452   4.185
90814W        W56041  23.783   3.707   4.728
90815W        W56042  28.128  17.110   0.891
90816W        W56043   5.234  25.394   4.692
90817W        W56044  42.778   7.820  11.424
90818W        W56045  13.766  20.023  14.524
90819W        W56046  36.988  10.809   4.233
90820W        W56047  38.830  23.993  11.825
90821W        W56048  10.624   6.704  12.541
90822W        W56049  28.402   3.971  13.024
90823W        W56050  19.761  36.348  12.795
90824W        W56051  31.404  30.641  11.559
90825W        W56052  28.187  21.377   4.081
90826W        W56053  44.039   9.844  14.729
90827W        W56054  16.941  27.247   1.688
90828W        W56055  38.115  21.118   3.119
90829W        W56056  16.861  28.537   4.526
90830W        W56057  32.978  31.944  14.224
90831W        W56058  43.345  24.630   3.416
90832W        W56059  30.515   8.643   3.247
90833W        W56060  41.735   0.834   2.225
90834W        W56061  44.449  25.438   3.757
90835W        W56062  17.112   0.606   1.276
90836W        W56063   4.865  26.203  11.473
90837W        W56064   1.937  18.026   2.179
90838W        W56065   1.322  19.037   1.441
90839W        W56066  32.444  37.955   1.030
90840W        W56067  25.437  17.488   2.266
90841W        W56068  25.152  37.418   3.716
90842W        W56069  22.338  16.234   4.308
90843W        W56070  26.232   2.518  12.956
90844W        W56071   4.322  17.296  10.095
90845W        W56072  36.052  10.870  12.129
90846W        W56073  33.973  19.200  13.908
90847W        W56074   5.843  21.567  14.790
90848W        W56075  31.565  11.407   1.286
90849W        W56076   8.926  25.548  10.798
90850W        W56077  34.963  33.514  14.964
90851W        W56078  19.790  37.027   3.368
90852W        W56079  36.373  26.394   1.873
90853W        W56080  17.095  19.372   4.102
90854W        W56081  36.719  34.556   2.751
90855W        W56082  11.115  14.145  14.744
90856W        W56083  32.677  36.948   2.415
90857W        W56084  39.417   4.319   1.487
90858W        W56085  13.823  28.602   2.307
90859W        W56086   1.990  11.184   3.748
90860W        W56087  21.742  38.688   1.369
90861W        W56088   7.704   0.192   2.814
90862W        W56089   9.428  40.652  11.762
90863W        W56090  13.116  38.484  13.377
90864W        W56091  19.596  40.022  12.053
90865W        W56092  13.125  19.399   3.560
90866W        W56093  20.587   6.054  10.806
90867W        W56094  32.390  44.543  14.565
90868W        W56095  34.924  31.209  13.289
90869W        W56096  16.535  14.442  11.693
90870W        W56097   4.319  32.908   4.015
90871W        W56098   3.838  16.614   1.704
90872W        W56099  18.012  18.230  11.453
90873W        W56100  43.815  14.830   0.718
90874W        W56101  12.159  15.384  13.123
90875W        W56102  35.861  34.045   2.786
90876W        W56103   3.939   8.245   1.172
90877W        W56104   6.701  21.674   3.162
90878W        W56105  30.525  38.207  10.761
90879W        W56106  41.800  22.086   4.796
90880W        W56107   2.302  17.056  14.916
90881W        W56108  11.222  36.600  14.989
90882W        W56109   1.415  13.427   2.571
90883W        W56110  25.939  35.302   1.847
90884W        W56111  27.961  13.038   2.078
90885W        W56112  19.828  18.731  11.165
90886W        W56113  40.494  34.459   3.160
90887W        W56114   4.699  14.684   3.640
90888W        W56115  43.015  31.077   1.738
90889W        W56116  26.964  22.227   1.203
90890W        W56117  27.526  16.793   1.857
90891W        W56118  20.712  26.515  13.259
90892W        W56119  23.944  25.170   4.815
90893W        W56120  27.685  37.298   4.072
90894W        W56121  26.694  17.484   4.519
90895W        W56122   2.614  31.775  11.167
90896W        W56123  43.558  35.979   1.611
90897W        W56124  22.298   0.404   0.708
90898W        W56125  38.980  39.253  11.715
90899W        W56126  13.336  37.322   1.879
90900W        W56127  41.410  11.424  13.857
90901W        W56128  22.977   1.218  13.055
90902W        W56129  23.597  39.765  10.645
90903W        W56130   0.788  36.580  12.897
90904W        W56131  35.745  38.405   5.053
90905W        W56132  17.607  18.270  11.152
90906W        W56133   5.865  24.657  13.048
90907W        W56134  23.218  37.326  11.564
90908W        W56135  36.167  24.586   4.615
90909W        W56136   3.019  17.672  14.138
90910W        W56137  25.282  29.644   0.317
90911W        W56138  20.602  11.390  11.025
90912W        W56139  42.771  10.605  14.834
90913W        W56140  40.959  42.002   1.797
90914W        W56141  21.523   6.004   4.108
90915W        W56142  11.948  42.956  14.998
90916W        W56143  27.715   3.680  14.264
90917W        W56144   5.567  11.853   4.396
90918W        W56145  21.881  25.634  12.106
90919W        W56146  16.496  42.715   1.952
90920W        W56147  23.947  28.166  14.046
90921W        W56148  21.998  17.202  11.944
90922W        W56149  38.582  20.061  10.084
90923W        W56150  42.962  23.679  11.366
90924W        W56151  32.414  22.460  14.059
90925W        W56152  15.686   7.265  11.911
90926W        W56153  22.986  28.753   0.419
90927W        W56154   6.865  34.925  12.895
90928W        W56155  32.117  17.752  12.134
90929W        W56156  25.208  40.711  12.507
90930W        W56157  19.414  22.513   3.334
90931W        W56158   7.830  22.067  10.683
90932W        W56159   0.193  23.224   3.652
90933W        W56160  16.305  12.851   2.906
90934W        W56161  30.124  24.991  12.167
90935W        W56162  28.542  14.705  11.064
90936W        W56163  24.218  37.325   0.487
90937W        W56164  11.573  34.406   3.942
90938W        W56165   8.064  40.271   1.600
90939W        W56166  44.887  41.134  13.856
90940W        W56167   3.441   2.699   0.823
90941W        W56168   8.812   1.982  11.132
90942W        W56169  37.551   1.525   2.500
90943W        W56170  31.454  42.272  14.421
90944W        W56171   5.432   7.639  11.745
90945W        W56172  10.711   0.555   5.061
90946W        W56173   7.316   5.437   0.896
90947W        W56174  26.095  37.910   3.703
90948W        W56175  24.006   5.780  10.446
90949W        W56176   4.700  29.397  12.672
90950W        W56177  42.966   4.943   2.192
90951W        W56178  35.810  35.214  13.192
90952W        W56179   7.571   8.111  11.409
90953W        W56180  32.489   8.784  12.205
90954W        W56181  20.736   1.298  11.835
90955W        W56182  34.477  18.258  11.227
90956W        W56183  23.154  17.744  11.704
90957W        W56184  40.867  28.241   4.924
90958W        W56185  38.592  28.873   1.798
90959W        W56186  44.862  13.078   2.701
90960W        W56187  43.860  12.470  13.781
90961W        W56188  16.293  13.139  12.791
90962W        W56189  18.115   7.712   2.413
90963W        W56190   6.472  10.758   2.685
90964W        W56191  32.310  31.198   0.725
90965W        W56192  24.142  13.810   1.260
90966W        W56193   6.132  15.903  10.825
90967W        W56194  23.560  32.094  10.502
90968W        W56195   0.959  15.580  10.302
90969W        W56196  14.837  11.210  14.087
90970W        W56197  34.198  30.264  14.802
90971W        W56198  35.424  28.031  11.666
90972W        W56199   4.650  10.236  13.599
90973W        W56200  31.234  29.224   3.727
90974W        W56201   9.399  41.478   2.759
90975W        W56202  25.025  14.090   4.270
90976W        W56203   3.148  26.230   1.442
90977W        W56204  43.537  40.384  11.221
90978W        W56205  12.310  22.162   3.801
90979W        W56206   6.409  31.596  13.597
90980W        W56207  27.395  14.719   2.676
90981W        W56208  30.719  12.311  14.353
90982W        W56209   3.843  15.593  14.250
90983W        W56210  22.507  39.569  11.127
90984W        W56211   4.729  24.673  11.559
90985W        W56212  20.062  36.016  13.452
90986W        W56213  21.810  33.925   4.678
90987W        W56214  17.033  43.448   1.745
90988W        W56215  43.995   5.675   3.334
90989W        W56216  21.255  40.774  11.992
90990W        W56217   7.253   2.697   0.337
90991W        W56218  29.747  25.810   3.747
90992W        W56219  37.770  26.368   4.927
90993W        W56220  10.264  31.936  11.058
90994W        W56221  27.197   8.099  13.489
90995W        W56222  44.464   0.322  14.150
90996W        W56223   0.415  39.517   0.541
90997W        W56224  26.577  33.124  12.763
90998W        W56225  16.488  44.983  11.075
90999W        W56226  13.638   0.015  11.113
91000W        W56227  20.215  41.564  10.758
91001W        W56228  34.373  14.094  13.581
91002W        W56229  42.478  21.511  13.945
91003W        W56230  43.475  28.619  14.531
91004W        W56231  41.137   4.967  11.161
91005W        W56232  22.493  41.079  11.168
91006W        W56233  33.446  20.616   0.309
91007W        W56234  35.474  42.436  14.426
91008W        W56235  35.022   1.465  11.632
91009W        W56236  12.488  24.000  14.779
91010W        W56237  28.479  26.652   0.421
91011W        W56238  20.797  33.301   0.032
91012W        W56239  36.971   1.671  11.614
91013W        W56240   1.553  19.206   4.568
91014W        W56241   3.150  20.834   0.883
91015W        W56242   6.242   7.911  11.124
91016W        W56243  41.547  40.318   4.595
91017W        W56244  14.917  10.883  10.776
91018W        W56245   6.512  20.193  12.493
91019W        W56246   9.385  30.368  10.480
91020W        W56247  13.820  37.596   2.787
91021W        W56248  16.808  21.740  11.637
91022W        W56249  20.522  39.905  11.172
91023W        W56250  17.590  27.064   4.606
91024W        W56251   7.241   0.782   0.762
91025W        W56252  14.239  41.980  14.311
91026W        W56253  30.478  14.882   0.452
91027W        W56254  30.031  14.108  12.187
91028W        W56255  29.240  28.968   4.204
91029W        W56256  38.592  16.884   2.730
91030W        W56257  37.110  42.492   1.238
91031W        W56258  12.323  20.750  14.928
91032W        W56259  23.361  44.688  11.070
91033W        W56260  11.317  42.028   1.749
91034W        W56261  13.890  37.128  10.905
91035W        W56262   4.415  39.373   3.548
91036W        W56263  35.857  44.068  13.938
91037W        W56264  20.728  16.371   0.215
91038W        W56265   7.427  32.334   2.294
91039W        W56266  36.314  34.573  11.709
91040W        W56267  16.405  15.491   0.609
91041W        W56268  32.905  22.104   4.117
91042W        W56269  30.044  44.784  14.921
91043W        W56270   6.496  19.259   2.704
91044W        W56271  15.656   9.802   2.710
91045W        W56272  39.796  11.751  11.687
91046W        W56273  25.065  23.417   2.120
91047W        W56274  16.487  41.077  12.510
91048W        W56275   9.825   8.839   1.814
91049W        W56276  44.014  18.717   2.215
91050W        W56277  19.038   6.874  12.063
91051W        W56278  32.280   6.301   0.933
91052W        W56279  10.175   9.886  14.714
91053W        W56280  11.883   7.603  13.472
91054W        W56281   3.065  40.294   4.104
91055W        W56282   2.211  30.871   0.771
91056W        W56283  23.815  17.181  13.660
91057W        W56284  29.020  32.119   1.808
91058W        W56285  40.509  13.426   0.591
91059W        W56286  16.766  26.277  13.420
91060W        W56287  12.178  17.779   1.454
91061W        W56288   1.699  17.400   3.263
91062W        W56289  42.895  43.740  11.985
91063W        W56290  18.347  29.755   2.824
91064W        W56291  42.043  42.538  11.602
91065W        W56292  26.586  39.830   4.506
91066W        W56293  37.963  41.870  11.505
91067W        W56294  29.402  14.870   2.217
91068W        W56295  43.764  21.613   4.135
91069W        W56296  41.440   3.937  11.968
91070W        W56297   4.475  39.328   4.528
91071W        W56298  40.568  28.260  10.269
91072W        W56299  41.523  32.092   3.078
91073W        W56300  13.935  26.891  13.769
91074W        W56301  40.457  35.652  11.859
91075W        W56302  38.182   7.241  11.014
91076W        W56303   4.178  25.124  10.912
91077W        W56304   9.218   9.852  12.482
91078W        W56305   3.781  16.313   3.608
91079W        W56306  43.529  11.576  14.897
91080W        W56307  19.324   2.136   3.694
91081W        W56308  13.830  20.919   0.670
91082W        W56309  25.004  34.333  14.317
91083W        W56310  37.785  13.324  10.760
91084W        W56311  23.141  24.741   1.691
91085W        W56312   5.435  13.895   0.187
91086W        W56313  33.701  25.361   0.441
91087W        W56314  20.689  43.098   2.616
91088W        W56315  30.549  44.942  14.295
91089W        W56316  14.942  20.283  13.862
91090W        W56317  26.406   7.773   0.854
91091W        W56318  36.648  25.531  11.982
91092W        W56319  34.638  24.067  12.669
91093W        W56320  10.642  34.291   3.519
91094W        W56321   5.148  29.495  12.931
91095W        W56322  21.451  38.805  14.483
91096W        W56323  36.631   3.080  11.531
91097W        W56324  27.444  38.432  12.856
91098W        W56325  29.693  13.218  12.808
91099W        W56326  27.583   3.487   2.746
91100W        W56327  40.397  38.008  13.038
91101W        W56328  40.863  37.330   1.875
91102W        W56329  30.684  17.871  13.946
91103W        W56330  39.368  16.302   1.495
91104W        W56331  41.861   8.906   0.118
91105W        W56332  31.948  22.056   2.285
91106W        W56333  14.962  16.765  11.134
91107W        W56334  29.444  30.643   2.694
91108W        W56335  28.866  19.379  11.177
91109W        W56336   1.438  34.480   0.382
91110W        W56337  28.145   0.681   1.851
91111W        W56338  20.263  12.251   2.721
91112W        W56339  28.713  30.250  13.045
91113W        W56340   7.595  26.095  11.886
91114W        W56341  42.614  43.763   3.314
91115W        W56342  41.365  35.911   3.378
91116W        W56343  35.651  33.330   4.354
91117W        W56344  10.275  12.902   1.311
91118W        W56345  35.872  41.815  14.830
91119W        W56346  15.796  35.838  14.345
91120W        W56347  18.315  13.811   0.422
91121W        W56348  10.749  40.344  13.123
91122W        W56349  33.898  29.651   2.803
91123W        W56350  14.093  15.530   3.513
91124W        W56351   4.047  42.518   0.210
91125W        W56352  31.444  20.012   3.746
91126W        W56353  12.823  43.252   0.514
91127W        W56354  24.446   7.351  13.882
91128W        W56355  14.707  24.509  11.023
91129W        W56356  36.342  12.691  10.359
91130W        W56357   5.524  44.463   0.729
91131W        W56358  28.002   5.527  12.450
91132W        W56359   0.463  33.385   0.825
91133W        W56360  36.625   2.242  10.971
91134W        W56361  37.783  43.903   1.268
91135W        W56362  40.111  42.346   3.685
91136W        W56363  27.040  39.930  12.765
91137W        W56364  35.928   6.273  13.083
91138W        W56365  20.263  19.706   4.733
91139W        W56366  28.877  37.450   4.870
91140W        W56367  39.290   0.716  14.886
91141W        W56368  41.825   6.892  13.082
91142W        W56369  37.339  11.863  13.529
91143W        W56370  34.578  28.542   5.449
91144W        W56371  19.767  20.530   4.592
91145W        W56372   4.053   0.457  12.584
91146W        W56373  37.481   4.216   2.123
91147W        W56374  41.032   7.894   0.688
91148W        W56375   9.814  20.737  14.343
91149W        W56376  35.986  25.579   1.048
91150W        W56377  43.767   1.806   1.592
91151W        W56378  10.906  31.349   1.947
91152W        W56379  27.760  14.074  14.423
91153W        W56380  34.631  11.499  12.007
91154W        W56381  21.292  27.486  10.875
91155W        W56382  25.772  27.218  11.585
91156W        W56383  39.254  14.813   3.750
91157W        W56384  22.234  43.604   2.854
91158W        W56385  18.155  39.336  14.413
91159W        W56386  22.954   4.232  11.646
91160W        W56387  18.720  28.226   3.725
91161W        W56388   1.417  35.051  12.023
91162W        W56389   8.625   9.432   1.772
91163W        W56390  36.518  24.672   3.329
91164W        W56391   1.767  36.543  13.961
91165W        W56392  17.300  19.156  12.863
91166W        W56393  22.040  42.919   2.275
91167W        W56394  36.075  37.829  11.641
91168W        W56395   4.380  12.787   2.918
91169W        W56396  23.447  41.366  12.935
91170W        W56397  23.928  27.517  14.377
91171W        W56398   7.771  22.943  13.815
91172W        W56399  22.058  26.213  11.629
91173W        W56400  38.168   0.886   4.167
91174W        W56401  11.457   5.439  11.571
91175W        W56402  14.587   8.900  14.829
91176W        W56403  34.879   5.952   0.965
91177W        W56404  28.628  20.012  13.331
91178W        W56405   6.694  11.633   3.623
91179W        W56406  27.082  37.936   2.773
91180W        W56407  20.875  42.476   0.722
91181W        W56408  11.162  23.516   1.815
91182W        W56409  11.699   6.147   0.062
91183W        W56410  14.135  14.066  11.216
91184W        W56411   2.815  20.488   4.152
91185W        W56412  11.700  18.731  11.947
91186W        W56413  39.767  42.962   4.663
91187W        W56414   7.648  35.912   5.072
91188W        W56415  33.495  44.777   0.861
91189W        W56416   5.215  34.557  14.320
91190W        W56417   0.246  21.925   3.772
91191W        W56418  10.787  12.951   2.342
91192W        W56419   4.776  28.744  14.674
91193W        W56420  44.851   9.637  12.921
91194W        W56421  39.609   5.493  13.930
91195W        W56422  10.470   9.693   1.594
91196W        W56423  18.633   2.652   2.780
91197W        W56424  38.793   0.271   5.359
91198W        W56425  17.506  19.050   3.225
91199W        W56426   2.498  25.110   3.230
91200W        W56427  18.115   9.794   4.045
91201W        W56428  33.100  12.539  10.699
91202W        W56429  12.718  21.825  13.914
91203W        W56430  10.324   3.652  11.099
91204W        W56431  14.310  15.914  14.027
91205W        W56432   1.476  42.508  14.811
91206W        W56433  42.468  41.232   0.271
91207W        W56434  11.025  27.431  13.816
91208W        W56435  17.361  15.109  13.113
91209W        W56436  41.530   9.708   3.710
91210W        W56437   3.307  34.977  13.402
91211W        W56438   6.125   4.128  11.412
91212W        W56439   4.447  28.495   3.258
91213W        W56440  15.694  42.779  10.524
91214W        W56441  10.255  13.085  14.246
91215W        W56442   7.925  10.909   2.792
91216W        W56443  25.709  10.402   0.371
91217W        W56444  33.894  13.528  10.771
91218W        W56445  43.832  36.793  10.713
91219W        W56446   6.819   3.012  12.826
91220W        W56447  16.530  20.561  12.795
91221W        W56448  43.323   8.781   4.165
91222W        W56449  37.688  28.592   1.411
91223W        W56450  39.018  12.805  12.924
91224W        W56451   4.353   6.755   4.401
91225W        W56452  11.848  40.438   3.588
91226W        W56453  14.557  10.265   2.289
91227W        W56454  32.706  31.508   4.750
91228W        W56455   2.873  14.491   2.672
91229W        W56456   9.185  17.711  14.917
91230W        W56457   9.278  37.906   3.914
91231W        W56458  20.605  16.548  12.939
91232W        W56459  11.641  20.570   2.748
91233W        W56460  32.456   7.337  12.429
91234W        W56461   0.093  28.959  11.609
91235W        W56462  13.797  43.340  12.534
91236W        W56463   4.935   4.569  11.201
91237W        W56464  34.448  24.116  11.945
91238W        W56465  40.070   4.351  11.150
91239W        W56466   0.728  16.298  14.327
91240W        W56467  42.812  37.503   0.620
91241W        W56468  23.168  39.854  11.480
91242W        W56469   9.467  35.150  13.920
91243W        W56470  23.685  27.135   0.428
91244W        W56471   8.728   3.742   1.754
91245W        W56472  31.116  21.105  13.173
91246W        W56473  34.617  17.283   1.871
91247W        W56474  36.390   6.164   2.585
91248W        W56475   8.459  37.164   1.490
91249W        W56476  41.973  17.035   1.275
91250W        W56477  12.816  44.207   4.174
91251W        W56478  43.557  40.799   3.726
91252W        W56479   0.133  35.878   2.012
91253W        W56480  41.334  29.093   2.088
91254W        W56481   0.803   7.978  13.039
91255W        W56482   6.678  14.835  12.220
91256W        W56483   2.080  43.338  13.406
91257W        W56484  22.723  38.365  11.528
91258W        W56485  37.840  18.299   3.125
91259W        W56486   9.301  11.177  11.606
91260W        W56487   0.308  39.109  14.583
91261W        W56488  42.247   2.468   4.080
91262W        W56489  41.420  21.668  14.806
91263W        W56490  21.682  27.666  11.161
91264W        W56491  12.578  36.011   0.719
91265W        W56492  28.283   1.274  14.239
91266W        W56493  26.610  25.896  12.767
91267W        W56494  41.222  21.415  13.248
91268W        W56495  20.539  22.471   3.633
91269W        W56496  13.654  36.994   4.193
91270W        W56497  17.370   8.321  12.519
91271W        W56498   6.660  27.151  14.019
91272W        W56499  12.945  23.187   4.121
91273W        W56500  27.007   4.951  13.467
91274W        W56501  17.160   1.151  12.957
91275W        W56502   7.746  40.451  10.654
91276W        W56503  29.682   4.664   3.647
91277W        W56504  44.814  19.045  13.913
91278W        W56505   7.605  16.467  13.326
91279W        W56506  44.533  22.497   2.909
91280W        W56507  18.630  26.920  12.174
91281W        W56508   5.345  30.605   3.677
91282W        W56509  14.178  34.038   2.147
91283W        W56510  37.304  34.797  14.035
91284W        W56511  28.679  27.091  14.037
91285W        W56512  40.098  25.063   2.732
91286W        W56513   2.452  40.431  14.857
91287W        W56514  28.634  31.110   2.235
91288W        W56515   6.252  10.244   2.564
91289W        W56516  12.290  44.244  12.356
91290W        W56517  35.151   3.508  11.652
91291W        W56518  34.934   7.915   3.688
91292W        W56519  34.384  38.872  13.474
91293W        W56520  27.917  21.670   2.837
91294W        W56521   6.539  11.140  12.085
91295W        W56522  33.030  21.488  13.004
91296W        W56523  17.059  40.948   3.293
91297W        W56524  38.993   2.372  12.412
91298W        W56525  25.577  31.357  14.778
91299W        W56526  25.225  20.045  10.561
91300W        W56527  39.945   9.726   3.674
91301W        W56528  17.265  32.201   4.439
91302W        W56529   0.608  18.910   4.018
91303W        W56530   7.393  19.206   3.238
91304W        W56531  31.634  13.279   2.253
91305W        W56532  29.373  11.851  14.823
91306W        W56533  28.616  28.447   3.829
91307W        W56534  27.606  43.018   1.206
91308W        W56535  24.805   6.439   3.665
91309W        W56536  30.547  17.789   3.673
91310W        W56537  16.049  23.075   1.211
91311W        W56538   2.607  20.014   3.117
91312W        W56539  37.103  24.232  11.076
91313W        W56540  39.901  15.873  11.554
91314W        W56541  14.727   9.870   2.806
91315W        W56542  18.859   3.949   1.825
91316W        W56543  31.423  42.803  13.748
91317W        W56544  34.152   0.689  14.512
91318W        W56545  13.908  24.880  12.546
91319W        W56546   4.219  12.796   4.625
91320W        W56547   9.713   1.039   2.838
91321W        W56548  23.873   2.881  11.104
91322W        W56549  28.648  10.343   0.366
91323W        W56550   8.687  22.741   2.234
91324W        W56551  25.634  13.965   2.294
91325W        W56552   4.340  26.401   4.705
91326W        W56553  41.413  30.304  12.813
91327W        W56554   1.917  29.907   1.909
91328W        W56555  25.764  38.639   4.185
91329W        W56556  43.824   1.568   2.783
91330W        W56557  29.906  42.925   3.176
91331W        W56558   9.125  18.240  12.082
91332W        W56559  44.432  29.779  11.097
91333W        W56560  30.560  14.175   0.165
91334W        W56561   2.326   3.873  12.827
91335W        W56562  16.425   0.819  12.140
91336W        W56563  15.503   6.659   0.833
91337W        W56564  36.727  25.415  14.383
91338W        W56565   4.278  23.741  11.014
91339W        W56566  33.913  25.036  13.302
91340W        W56567  11.172  41.931   4.697
91341W        W56568   1.009  22.625   3.720
91342W        W56569   9.469  19.290   5.006
91343W        W56570   5.802  37.339  14.538
91344W        W56571  43.366  24.524  11.577
91345W        W56572  19.384   2.403   4.604
91346W        W56573  23.947   5.802  11.683
91347W        W56574  40.987  28.376   1.751
91348W        W56575  32.613  33.178   1.771
91349W        W56576  41.498   7.292  10.343
91350W        W56577  44.017  39.941  14.021
91351W        W56578   1.846  33.436   2.699
91352W        W56579  39.963  21.141   4.068
91353W        W56580  35.808  15.049   4.586
91354W        W56581  26.636  44.024   1.337
91355W        W56582  15.524  12.860   2.108
91356W        W56583  41.636  44.747  11.136
91357W        W56584   0.325  26.106   2.641
91358W        W56585  30.090   0.787  13.879
91359W        W56586   6.819   0.124  10.309
91360W        W56587  26.880   6.345  13.401
91361W        W56588  24.245  31.831   1.857
91362W        W56589  19.163  37.995  12.212
91363W        W56590  15.251  25.238  12.398
91364W        W56591  37.076  11.789   1.774
91365W        W56592  42.477  21.645  14.901
91366W        W56593  16.714  35.830   1.839
91367W        W56594  31.935   2.257   1.065
91368W        W56595  33.843  26.603   3.057
91369W        W56596  32.904  34.899   4.661
91370W        W56597  34.933  20.718   0.798
91371W        W56598  20.700  15.109   3.776
91372W        W56599  15.117  30.127   2.958
91373W        W56600  31.693  31.016  13.569
91374W        W56601  23.845  39.373  14.383
91375W        W56602  29.085  33.819  10.641
91376W        W56603  30.850   5.596  11.965
91377W        W56604   9.181   2.439   2.740
91378W        W56605  28.900  28.443  14.879
91379W        W56606  17.766  26.839  11.169
91380W        W56607  37.230   5.020  11.075
91381W        W56608  27.453  20.539   4.027
91382W        W56609   9.985  33.890   3.635
91383W        W56610  39.125   5.363  12.997
91384W        W56611  30.945   3.380  11.523
91385W        W56612  37.007   0.464   1.382
91386W        W56613   8.087  37.373   4.576
91387W        W56614  27.133   6.320  11.977
91388W        W56615   9.510   4.825  14.432
91389W        W56616  10.326  22.183   3.714
91390W        W56617  37.852  32.972   2.216
91391W        W56618  37.449  22.711   4.143
91392W        W56619  26.042  31.046  12.162
91393W        W56620  25.674  32.575  11.604
91394W        W56621   4.664  26.748  14.922
91395W        W56622  18.140  31.410  14.774
91396W        W56623  20.657  19.282   1.727
91397W        W56624   3.021  23.501  14.923
91398W        W56625  37.955  27.044   4.477
91399W        W56626  21.608   5.734  14.035
91400W        W56627  43.152  16.608   2.345
91401W        W56628  29.451  24.048   4.401
91402W        W56629  35.207   4.967   2.130
91403W        W56630  26.733  17.068  11.629
91404W        W56631  32.479  24.263  13.364
91405W        W56632  33.422  10.150   2.437
91406W        W56633   3.810  23.901   4.059
91407W        W56634  35.809  16.862  14.436
91408W        W56635   9.333  39.620  12.504
91409W        W56636  35.830  34.102  11.037
91410W        W56637  31.508  31.223  12.909
91411W        W56638   8.503  29.759   3.875
91412W        W56639  22.759   5.310   1.408
91413W        W56640  10.744  20.295  10.499
91414W        W56641   9.241   7.670   4.346
91415W        W56642  40.188  22.081  10.713
91416W        W56643  32.554  38.881  14.014
91417W        W56644   3.469  30.479  14.529
91418W        W56645  43.550   4.682  12.539
91419W        W56646   8.283   4.047   2.647
91420W        W56647  15.859  42.828   0.507
91421W        W56648  21.952   7.202   4.000
91422W        W56649  20.131  32.610   2.146
91423W        W56650   2.690   3.674  12.124
91424W        W56651  20.058  22.422   0.928
91425W        W56652  28.276  22.686   4.007
91426W        W56653  36.535  37.572  10.668
91427W        W56654  33.129  10.853   4.076
91428W        W56655   9.793  42.797  12.211
91429W        W56656  30.876  39.457  12.777
91430W        W56657  22.015   8.420  14.061
91431W        W56658  13.370  41.979  11.355
91432W        W56659  17.257   5.979  12.082
91433W        W56660  11.764   7.880   3.101
91434W        W56661   8.847  16.880  13.041
91435W        W56662   4.720  23.905  12.539
91436W        W56663   6.694  30.729  11.968
91437W        W56664  27.767  17.740  11.140
91438W        W56665  28.947  30.436   2.785
91439W        W56666  34.937  21.108  10.290
91440W        W56667  27.853  15.930  14.936
91441W        W56668  28.758  30.897  14.968
91442W        W56669  20.689  26.286   5.050
91443W        W56670   4.638  35.475   0.018
91444W        W56671  16.880  29.418  14.672
91445W        W56672  27.914  25.220   4.153
91446W        W56673  44.892  30.335  11.598
91447W        W56674  19.112  38.368  12.981
91448W        W56675  35.961   9.323  13.953
91449W        W56676  44.908   6.295  13.586
91450W        W56677  26.739  11.791   0.476
91451W        W56678   9.808   4.316   0.899
91452W        W56679  16.614  37.725   2.444
91453W        W56680   5.636  19.434  11.734
91454W        W56681  33.066  22.530  13.525
91455W        W56682  35.788  24.238  13.510
91456W        W56683  23.561  41.306  13.852
91457W        W56684  24.690   2.710  14.375
91458W        W56685  33.043  13.390   2.783
91459W        W56686   3.839  34.224   1.297
91460W        W56687  19.503  37.355   1.858
91461W        W56688  24.722   4.307  11.054
91462W        W56689  29.263  30.784  14.894
91463W        W56690  21.965  29.893  12.882
91464W        W56691  31.493   3.170   3.184
91465W        W56692  21.020  22.139   3.825
91466W        W56693  15.126   0.897  12.354
91467W        W56694  22.257  24.933  10.697
91468W        W56695  35.108  42.044   3.074
91469W        W56696  13.611   5.264  11.537
91470W        W56697  38.406  37.833  10.944
91471W        W56698   5.666  42.239   2.872
91472W        W56699  42.441  20.024   0.467
91473W        W56700  37.442  28.141  14.722
91474W        W56701  18.281   2.304   5.011
91475W        W56702  32.628  36.954   1.912
91476W        W56703  41.443  14.020  14.338
91477W        W56704   9.741   1.705  10.771
91478W        W56705  19.691  28.065  12.511
91479W        W56706   5.025   4.524  14.063
91480W        W56707  43.392  25.088   3.109
91481W        W56708   7.716  33.174   2.344
91482W        W56709  14.837  39.201   4.222
91483W        W56710  35.017   0.996  10.464
91484W        W56711  35.419  13.128   3.687
91485W        W56712  44.714  16.390  10.900
91486W        W56713  22.586   3.701   1.974
91487W        W56714  41.224  16.062  13.322
91488W        W56715  27.623  20.535   2.226
91489W        W56716   1.451  24.578   3.259
91490W        W56717  28.548  13.633  13.431
91491W        W56718  26.199   3.429   0.865
91492W        W56719  35.527   0.986   1.523
91493W        W56720  33.122   3.882   1.262
91494W        W56721  39.533  27.669  12.957
91495W        W56722  33.206  10.660   2.666
91496W        W56723  16.543   9.994  13.118
91497W        W56724  35.865  15.393  10.942
91498W        W56725  16.567  12.156  11.709
91499W        W56726  32.218  15.568   1.374
91500W        W56727  28.774  31.866   0.969
91501W        W56728  30.024  32.116  11.559
91502W        W56729  29.960  20.232   3.424
91503W        W56730  14.131  26.971   2.774
91504W        W56731  28.471  39.344   1.824
91505W        W56732  32.114  13.028  12.915
91506W        W56733  29.036  11.405  14.870
91507W        W56734  43.780   4.619  10.441
91508W        W56735  41.025  13.763  14.501
91509W        W56736   4.361  34.134  12.054
91510W        W56737  32.782  20.967  14.834
91511W        W56738  13.137  19.441  14.829
91512W        W56739   3.658   3.713   0.563
91513W        W56740  16.769  33.529   3.324
91514W        W56741  35.374   7.089  14.068
91515W        W56742  22.999  34.488   2.419
91516W        W56743  38.116   1.474  14.960
91517W        W56744   7.054  11.236  11.944
91518W        W56745  12.206  29.673  14.934
91519W        W56746  35.832  39.988  13.494
91520W        W56747  38.120  39.184  11.058
91521W        W56748  32.897   5.470   3.768
91522W        W56749   3.824   8.636  13.935
91523W        W56750  40.531   8.356   2.208
91524W        W56751  30.107  29.604   2.096
91525W        W56752  41.111  34.993   0.834
91526W        W56753  23.705  15.633   4.904
91527W        W56754  33.826  33.823  14.917
91528W        W56755  21.057  22.340   2.546
91529W        W56756   5.974  21.964   3.628
91530W        W56757   8.953   0.738  11.541
91531W        W56758   1.433   5.456  13.548
91532W        W56759   0.769  40.720   3.795
91533W        W56760  12.093  27.721   1.944
91534W        W56761  39.487  22.200  13.326
91535W        W56762   7.954  10.131   1.427
91536W        W56763  28.897  34.048   4.132
91537W        W56764   7.965  19.613   3.846
91538W        W56765  43.827   0.566   2.836
91539W        W56766  30.380  20.216  11.569
91540W        W56767  39.918  22.606  10.803
91541W        W56768  42.221  14.134  14.913
91542W        W56769  26.604   6.427  14.950
91543W        W56770  14.605  36.542   1.371
91544W        W56771  17.263  14.582   4.893
91545W        W56772   5.092   8.670   2.484
91546W        W56773   5.963   8.209  14.593
91547W        W56774  37.892  42.206  11.875
91548W        W56775  20.112  39.352   1.362
91549W        W56776   2.270   9.782  14.838
91550W        W56777  14.751   9.051  12.030
91551W        W56778  36.000  17.477  13.839
91552W        W56779   7.262   9.424   3.640
91553W        W56780  10.402  37.799  12.086
91554W        W56781  24.162  24.230  14.718
91555W        W56782  40.321  18.057  12.190
91556W        W56783  11.587  32.111  12.191
91557W        W56784  23.370  27.199   0.029
91558W        W56785  43.587   5.492  11.944
91559W        W56786  30.548  35.307   3.796
91560W        W56787  15.990   1.308   4.369
91561W        W56788   2.749  13.157  14.826
91562W        W56789  19.623  27.146   2.603
91563W        W56790  22.637  32.273  11.516
91564W        W56791  43.038  30.937  12.524
91565W        W56792   6.393  15.712  14.790
91566W        W56793   0.947  28.014  13.721
91567W        W56794  39.802  27.363  11.925
91568W        W56795  44.809  25.188   3.378
91569W        W56796  31.111  13.222  12.314
91570W        W56797   3.709  39.737  11.180
91571W        W56798  13.870  11.591   2.228
91572W        W56799  11.184  21.398   3.586
91573W        W56800   6.471   1.425   4.693
91574W        W56801  11.904  23.662  13.361
91575W        W56802  11.356  36.632   1.765
91576W        W56803  33.559  12.885  11.248
91577W        W56804   7.938  37.965  13.082
91578W        W56805  22.476  29.040   3.979
91579W        W56806  27.192   3.023  11.433
91580W        W56807   9.826  34.633   3.272
91581W        W56808  33.639  12.694   5.013
91582W        W56809  29.097  28.151  10.682
91583W        W56810  33.473  43.918   1.394
91584W        W56811  40.705  27.442   4.165
91585W        W56812  12.754  11.176  14.411
91586W        W56813  36.978  35.320  12.013
91587W        W56814  22.115   8.500   4.454
91588W        W56815  42.557  14.951   4.985
91589W        W56816  42.663   7.697  12.743
91590W        W56817   7.786   4.470   0.344
91591W        W56818  24.254  19.232  14.032
91592W        W56819  40.726  19.621   4.024
91593W        W56820  12.835   1.607   3.576
91594W        W56821  37.544  16.836  11.497
91595W        W56822  22.112  20.006  12.992
91596W        W56823  24.146   3.435   1.368
91597W        W56824  28.940  22.164   0.394
91598W        W56825  12.488  24.099   4.467
91599W        W56826  12.789  38.458  12.959
91600W        W56827  30.384   5.058  12.497
91601W        W56828   5.262  44.912  13.048
91602W        W56829  23.184  36.378   0.870
91603W        W56830  42.624  42.934  14.859
91604W        W56831   3.927  27.320  11.686
91605W        W56832  22.390   3.315   3.315
91606W        W56833  33.381  42.440   4.912
91607W        W56834  23.606  29.218  11.615
91608W        W56835  27.166  28.665  10.634
91609W        W56836  36.099   4.652   2.143
91610W        W56837  33.281   7.464   1.424
91611W        W56838  32.997  12.214   2.871
91612W        W56839   7.745  19.680   1.567
91613W        W56840   9.361   5.715  14.783
91614W        W56841  27.909  44.863   4.515
91615W        W56842  41.972  13.719   1.411
91616W        W56843  38.889  34.815   2.366
91617W        W56844   5.196   3.262  11.667
91618W        W56845  28.468  18.531  14.365
91619W        W56846  25.388   1.247   2.100
91620W        W56847   0.025   2.525   0.116
91621W        W56848  36.083  34.488   3.692
91622W        W56849   1.402  14.171   1.754
91623W        W56850   8.817   7.174  12.797
91624W        W56851  29.597  20.487  13.421
91625W        W56852  33.432  28.785   1.004
91626W        W56853   2.567  19.256   9.603
91627W        W56854  25.589  28.218   2.693
91628W        W56855  35.294   1.458   0.805
91629W        W56856  19.148   9.800  11.432
91630W        W56857  36.867  23.716  11.140
91631W        W56858  41.467  26.635  13.943
91632W        W56859  21.355  32.876   5.073
91633W        W56860   9.139  20.578   2.779
91634W        W56861  40.003   6.938  14.356
91635W        W56862  42.937   8.621   0.479
91636W        W56863   6.790  41.844   3.612
91637W        W56864   9.100   7.737  13.056
91638W        W56865   2.339  18.625   3.392
91639W        W56866   3.262   3.694  14.808
91640W        W56867   6.936   1.809  14.470
91641W        W56868  41.595   5.194  11.141
91642W        W56869  22.873  44.328   4.141
91643W        W56870  31.580   2.309   1.837
91644W        W56871  17.226   5.857  14.316
91645W        W56872  34.207   2.310   1.821
91646W        W56873  21.816  36.414   3.688
91647W        W56874  33.078  12.608  14.354
91648W        W56875  19.558  23.007  11.342
91649W        W56876  10.361  11.202  13.353
91650W        W56877   3.251  40.165   3.622
91651W        W56878  23.100  24.532   4.039
91652W        W56879  43.555  34.181   3.217
91653W        W56880   5.658  27.688   3.792
91654W        W56881  12.390  35.106   1.373
91655W        W56882  43.695  34.367  14.801
91656W        W56883   7.705   2.610   4.959
91657W        W56884   0.859   3.442  11.214
91658W        W56885  13.614  34.040  14.628
91659W        W56886  10.664  13.674  11.185
91660W        W56887  37.355  32.433   2.145
91661W        W56888  27.691  41.033  12.558
91662W        W56889   2.678  44.559   4.036
91663W        W56890  40.378  10.342   1.355
91664W        W56891  32.362  21.478   2.042
91665W        W56892   3.920  12.569   3.473
91666W        W56893   3.498  39.374   5.068
91667W        W56894   6.167   1.095  14.382
91668W        W56895   2.986  30.400   3.741
91669W        W56896   6.929  23.835  11.631
91670W        W56897  13.581   4.548  11.865
91671W        W56898  29.040  24.756   3.576
91672W        W56899  32.557  11.871   3.632
91673W        W56900  32.409  41.331   0.775
91674W        W56901   1.978   7.277  13.644
91675W        W56902  20.585  32.848  13.822
91676W        W56903  12.580  40.727  10.560
91677W        W56904   3.855  39.450   2.889
91678W        W56905   2.321  10.159  12.623
91679W        W56906   6.411  10.859  11.666
91680W        W56907  20.499  11.342  12.863
91681W        W56908  24.042  15.761   4.132
91682W        W56909  11.403  27.463  12.409
91683W        W56910  10.772  33.962   2.633
91684W        W56911  15.719  42.369   0.303
91685W        W56912  30.644  19.621   3.582
91686W        W56913  41.518  24.610   2.815
91687W        W56914  30.249   3.435  14.513
91688W        W56915  21.860  21.005  10.715
91689W        W56916   5.122  11.845   2.677
91690W        W56917  36.827   7.168   0.327
91691W        W56918  24.194   7.590   0.175
91692W        W56919  14.404  37.184  10.256
91693W        W56920  31.967   6.591  11.089
91694W        W56921  30.605  23.740  12.429
91695W        W56922   8.897   4.351   9.986
91696W        W56923   3.854  21.749  11.683
91697W        W56924  15.781  11.520   4.521
91698W        W56925  17.798  20.631  13.853
91699W        W56926   9.674  41.465   2.301
91700W        W56927  32.912  14.615  10.173
91701W        W56928   2.977  14.288  14.832
91702W        W56929  13.418  27.537   2.274
91703W        W56930  41.237  33.754   0.552
91704W        W56931  16.284  25.210   5.135
91705W        W56932  31.659   7.565   0.514
91706W        W56933  26.566  38.465  11.654
91707W        W56934  38.913   3.962   3.630
91708W        W56935  43.592  10.419   0.929
91709W        W56936  37.518  42.351   0.938
91710W        W56937  32.226   6.742  14.351
91711W        W56938  11.026  44.023  12.027
91712W        W56939   6.839  42.239  11.442
91713W        W56940  34.991  42.277  10.644
91714W        W56941  35.595  13.397  12.580
91715W        W56942  15.663  32.856  13.553
91716W        W56943  36.885  35.438   0.520
91717W        W56944  24.956  17.161   1.016
91718W        W56945   9.903  35.058  12.560
91719W        W56946  13.904  15.340  11.510
91720W        W56947  13.076  38.055   3.608
91721W        W56948  41.626  16.115  12.528
91722W        W56949   7.377  12.921   2.117
91723W        W56950   9.833  39.156   0.821
91724W        W56951  32.077  29.532   4.058
91725W        W56952  38.447   9.269   2.569
91726W        W56953  16.999  21.271  11.590
91727W        W56954  27.357  22.951   3.818
91728W        W56955   1.565  20.548   4.977
91729W        W56956  36.490  11.339   4.228
91730W        W56957  38.262  27.773  12.415
91731W        W56958  20.522  18.314   1.805
91732W        W56959  12.336   0.032   0.844
91733W        W56960  18.335  33.085   4.391
91734W        W56961   1.645  13.968  11.626
91735W        W56962  14.882   4.474   2.917
91736W        W56963  12.586  15.663  11.481
91737W        W56964  12.730  26.257   0.370
91738W        W56965  26.716  36.921  14.504
91739W        W56966  20.478  35.420   1.756
91740W        W56967  22.978  39.291  14.843
91741W        W56968  14.975   5.253   0.419
91742W        W56969  22.187  27.742   4.733
91743W        W56970  11.358  16.565  14.150
91744W        W56971  33.265  21.479   0.401
91745W        W56972  44.817  35.456  12.621
91746W        W56973   1.415  32.859   2.308
91747W        W56974   4.251  14.547  10.821
91748W        W56975   2.691   9.415   1.858
91749W        W56976  19.871  26.250  12.969
91750W        W56977  15.632  30.975   2.984
91751W        W56978  16.782  29.155   4.099
91752W        W56979  14.081  41.989   3.262
91753W        W56980  11.917  19.610   3.813
91754W        W56981  17.841  18.534   2.352
91755W        W56982  29.567  35.644  13.257
91756W        W56983  19.640  21.087  13.940
91757W        W56984  16.896  19.126  12.017
91758W        W56985  42.878  21.117  10.727
91759W        W56986  10.408   9.946  10.302
91760W        W56987  30.032  12.108   1.398
91761W        W56988  11.850  41.403  11.245
91762W        W56989  31.698  28.725   4.212
91763W        W56990   3.786  14.697  14.774
91764W        W56991  39.939   3.004  12.429
91765W        W56992   9.959  27.163   4.587
91766W        W56993   5.932  18.649   2.189
91767W        W56994  13.951  32.202  11.622
91768W        W56995   3.389  12.455  12.570
91769W        W56996  19.269  18.613   2.617
91770W        W56997  29.649  19.434  11.996
91771W        W56998  34.200  15.109   3.540
91772W        W56999  44.591  35.372   4.067
91773W        W57000  10.676  31.336   3.780
91774W        W57001  19.575  44.006  14.464
91775W        W57002  31.805   9.233  14.333
91776W        W57003  35.064  36.046   4.168
91777W        W57004  31.958   4.421  13.808
91778W        W57005   0.424  19.580   1.726
91779W        W57006  33.679  36.703   3.658
91780W        W57007   3.958  36.333   1.178
91781W        W57008   6.842  37.105   4.098
91782W        W57009  28.412   0.791   0.440
91783W        W57010  35.035  12.533   0.069
91784W        W57011  36.616  11.650   1.943
91785W        W57012  39.925  18.200  14.567
91786W        W57013  32.373  10.090   1.739
91787W        W57014  30.531  29.364   5.408
91788W        W57015  36.019  30.151   0.126
91789W        W57016  10.923  12.640   0.789
91790W        W57017  22.013  16.562   1.337
91791W        W57018   2.873  42.018  10.718
91792W        W57019  44.509  33.730  10.780
91793W        W57020  20.235  27.935   1.710
91794W        W57021   7.945  20.040  12.428
91795W        W57022  40.893  19.108   1.204
91796W        W57023  20.735  34.110   0.383
91797W        W57024  27.327  32.998  13.943
91798W        W57025  43.870  43.563   0.724
91799W        W57026   0.124  17.275   0.385
91800W        W57027   6.773   1.987   4.334
91801W        W57028  14.714  12.698   1.176
91802W        W57029  26.779  26.427   2.662
91803W        W57030  19.566  37.990   4.858
91804W        W57031  10.964  13.185   3.232
91805W        W57032  18.038   1.786  13.374
91806W        W57033  41.966   7.699   0.460
91807W        W57034  21.764   6.457   4.173
91808W        W57035   1.630   2.830   4.718
91809W        W57036  32.387   7.425   0.189
91810W        W57037   1.310   3.327   0.671
91811W        W57038  14.146  34.340  12.064
91812W        W57039  13.550  44.681   2.991
91813W        W57040   6.597  24.500   0.207
91814W        W57041  25.985  31.614  12.012
91815W        W57042   9.520   6.750   1.352
91816W        W57043   9.727  44.982  10.459
91817W        W57044  38.515  35.336   4.566
91818W        W57045   4.215   0.296  13.078
91819W        W57046  11.457  35.429   3.224
91820W        W57047  44.338  28.759  11.115
91821W        W57048  27.988  19.540   1.323
91822W        W57049  12.591  35.566  10.679
91823W        W57050  16.836  16.946   3.473
91824W        W57051  30.032  10.844  10.569
91825W        W57052  41.722   1.960   0.708
91826W        W57053  11.539  17.656  14.765
91827W        W57054  20.221  12.495   2.269
91828W        W57055   9.350  16.043   3.441
91829W        W57056  29.086  43.574  11.661
91830W        W57057  15.175  21.676   4.697
91831W        W57058  17.726  32.836  14.831
91832W        W57059  27.381   9.393  14.960
91833W        W57060  38.564  29.498   2.646
91834W        W57061  34.365  42.740   4.139
91835W        W57062  40.018  40.813  12.900
91836W        W57063  40.445  22.505  10.794
91837W        W57064  16.647  21.095  10.467
91838W        W57065  44.581   4.879   3.229
91839W        W57066  37.011   8.179  14.993
91840W        W57067  21.807  14.505   2.621
91841W        W57068  43.745  12.042  11.898
91842W        W57069   5.900  38.868   0.795
91843W        W57070  29.914  34.626  14.071
91844W        W57071  15.962  40.401  13.309
91845W        W57072   1.552  17.512  10.723
91846W        W57073   7.917  35.819  14.989
91847W        W57074   3.787  26.098  11.979
91848W        W57075  25.524  30.107  11.671
91849W        W57076  38.664  28.961  11.065
91850W        W57077  41.439  24.684  13.889
91851W        W57078  14.376   5.314  12.479
91852W        W57079   4.854  11.385   1.907
91853W        W57080  19.202   6.639   4.166
91854W        W57081  13.129  37.535   2.352
91855W        W57082  30.476  15.753  11.744
91856W        W57083  42.022  44.373   1.197
91857W        W57084  33.374  10.341  14.804
91858W        W57085  15.738  42.926  12.117
91859W        W57086   2.186  18.127   3.231
91860W        W57087  15.279  23.767   4.115
91861W        W57088  40.897  10.332  14.009
91862W        W57089  31.572   8.688   2.307
91863W        W57090  13.790   7.786  13.948
91864W        W57091  31.826  33.073   4.891
91865W        W57092   6.587   8.172   4.199
91866W        W57093  39.596  36.171   2.239
91867W        W57094  31.144  23.147   4.371
91868W        W57095   5.294  44.979  13.804
91869W        W57096   8.390  32.472  11.615
91870W        W57097   3.070  22.723   2.784
91871W        W57098  15.276   6.407  13.302
91872W        W57099  24.088  32.126  11.735
91873W        W57100  29.989  41.647   4.047
91874W        W57101  41.839  13.932   2.222
91875W        W57102  12.239  16.271   1.806
91876W        W57103  41.874  40.788   1.300
91877W        W57104  29.985  40.600   1.302
91878W        W57105   0.533  12.711  12.943
91879W        W57106   4.297  24.787  13.906
91880W        W57107  41.973  16.654  12.087
91881W        W57108  32.132  17.248   2.042
91882W        W57109  10.525  37.554  13.069
91883W        W57110  18.685  12.377  12.967
91884W        W57111  14.202  33.972   2.660
91885W        W57112  10.674   4.412   3.782
91886W        W57113  31.124  24.195   2.651
91887W        W57114  12.802  38.063   4.087
91888W        W57115   3.635  31.494  10.703
91889W        W57116  17.543  11.798  12.970
91890W        W57117  22.543   6.663  14.001
91891W        W57118  23.630   6.156  14.112
91892W        W57119   9.957  43.937  10.707
91893W        W57120  28.827  27.434   1.043
91894W        W57121  20.520  19.560  11.139
91895W        W57122   1.134  34.389  10.673
91896W        W57123   5.126  18.153  11.987
91897W        W57124  15.249  38.607   1.861
91898W        W57125  12.304  26.015   3.656
91899W        W57126  17.288   3.416  13.108
91900W        W57127  22.503  11.753  13.811
91901W        W57128  17.199  41.631  14.457
91902W        W57129   7.829   7.768  11.685
91903W        W57130  16.826  17.469   4.517
91904W        W57131  36.051  40.770  12.959
91905W        W57132   2.290  40.582  12.507
91906W        W57133  15.038  24.682  14.852
91907W        W57134  17.835  25.107  13.855
91908W        W57135   3.210  40.634   2.798
91909W        W57136   1.524  30.187  12.749
91910W        W57137  43.859  26.021   2.842
91911W        W57138  30.129   4.784  10.780
91912W        W57139  17.203   6.293   3.725
91913W        W57140   7.398  35.575  11.104
91914W        W57141   6.921  32.316   0.923
91915W        W57142  20.029  23.967   0.655
91916W        W57143  21.235  23.764  13.788
91917W        W57144  27.960  10.659   3.766
91918W        W57145  30.273  40.543  11.093
91919W        W57146   9.112  13.796  13.868
91920W        W57147  22.078   5.411  14.732
91921W        W57148   3.251  15.530   0.917
91922W        W57149  37.414  12.190   0.346
91923W        W57150  17.019  42.698   4.897
91924W        W57151   4.672  37.924  14.910
91925W        W57152  16.640  34.424   0.768
91926W        W57153  34.200  17.121   2.131
91927W        W57154  43.812  34.624  12.473
91928W        W57155   2.810   0.289  10.210
91929W        W57156  21.797  36.879  14.931
91930W        W57157   1.208   8.982   3.967
91931W        W57158  15.745  21.004  10.902
91932W        W57159   4.473  29.403   2.859
91933W        W57160  14.129  16.171   0.561
91934W        W57161  18.034  21.040   0.928
91935W        W57162  40.530  38.809  10.454
91936W        W57163  33.615  44.574   0.345
91937W        W57164  39.235   9.916  13.028
91938W        W57165   4.439  26.894   2.786
91939W        W57166  15.710  34.128  10.620
91940W        W57167  17.280   8.633  14.267
91941W        W57168   7.853  40.512   1.144
91942W        W57169  24.905   4.604   3.337
91943W        W57170  30.479   5.929  12.191
91944W        W57171  27.405  24.289   3.382
91945W        W57172  26.248  23.279  11.524
91946W        W57173  30.176  30.967   1.664
91947W        W57174  24.952  10.417  13.307
91948W        W57175  10.291  41.182  11.085
91949W        W57176  41.481  38.551  10.606
91950W        W57177   4.492  44.764  14.973
91951W        W57178  16.051  24.469  10.726
91952W        W57179  44.297   9.838  13.470
91953W        W57180  43.787  11.788   0.319
91954W        W57181  33.820  29.841  12.714
91955W        W57182  10.612  36.382   1.205
91956W        W57183  22.755  29.464   4.112
91957W        W57184   6.865   4.710  12.051
91958W        W57185  20.784  15.381   4.208
91959W        W57186   1.518  15.304   4.805
91960W        W57187  32.972  19.466   4.222
91961W        W57188  19.521  32.018  10.735
91962W        W57189  42.560  24.990  11.955
91963W        W57190  38.591  40.554   0.302
91964W        W57191  21.287  16.574  10.829
91965W        W57192  42.061  35.784  14.434
91966W        W57193  42.769   0.539   4.153
91967W        W57194  37.850  38.396  13.913
91968W        W57195  29.093  19.703   2.004
91969W        W57196  32.443  34.820  14.911
91970W        W57197  27.034  25.905   0.287
91971W        W57198  33.520   2.088   5.012
91972W        W57199  12.044  21.658  12.298
91973W        W57200   2.240  17.439   4.449
91974W        W57201  43.002  37.478   0.156
91975W        W57202  16.561  35.586   2.378
91976W        W57203   6.923  36.997  10.781
91977W        W57204  19.556  21.691   1.926
91978W        W57205  20.157  42.554   4.896
91979W        W57206  37.883  21.620   3.194
91980W        W57207  21.442  43.316   1.725
91981W        W57208   4.426  14.453  11.610
91982W        W57209   8.287  40.585  10.745
91983W        W57210  30.662   1.275   4.562
91984W        W57211   9.179  20.887  11.968
91985W        W57212  14.023  16.862  14.949
91986W        W57213   2.979  32.587  12.550
91987W        W57214  17.356  22.202   2.578
91988W        W57215   4.491  24.504  13.469
91989W        W57216  25.552  31.410   1.738
91990W        W57217  23.585  41.351   4.117
91991W        W57218  29.031   2.876  11.691
91992W        W57219  14.640  29.683  11.682
91993W        W57220  42.009  36.493   2.844
91994W        W57221  12.651  29.571   3.705
91995W        W57222  40.840  27.715  11.118
91996W        W57223  23.621  17.675   4.197
91997W        W57224  16.814  44.971  12.524
91998W        W57225  44.583   3.386  14.799
91999W        W57226   9.221   8.012   3.716
92000W        W57227  41.188   9.191  13.921
92001W        W57228  42.861  14.553   1.662
92002W        W57229  28.812  37.563  12.590
92003W        W57230  14.188  18.287   1.747
92004W        W57231  15.557   7.343  12.410
92005W        W57232  16.761   3.007  13.424
92006W        W57233  35.198  43.772  10.785
92007W        W57234  17.177  30.948   3.777
92008W        W57235  19.487  26.991   3.091
92009W        W57236  34.083  14.626   4.867
92010W        W57237  40.943  39.687   2.862
92011W        W57238   5.986   1.853   4.967
92012W        W57239   0.523  13.790   2.819
92013W        W57240  29.454  20.044   2.306
92014W        W57241  39.362  16.727   0.777
92015W        W57242  40.384  16.015  13.959
92016W        W57243  25.222  11.608   0.092
92017W        W57244   4.936  42.208  13.489
92018W        W57245  38.831  27.686   0.161
92019W        W57246  19.441  22.796  13.367
92020W        W57247   6.508   6.851  13.500
92021W        W57248  36.394  26.968   0.727
92022W        W57249   7.158  17.372  12.959
92023W        W57250   2.310   4.755  14.517
92024W        W57251  13.697  12.199   0.938
92025W        W57252   6.040  31.475   1.744
92026W        W57253  36.792  14.550   5.101
92027W        W57254   6.638  43.284  12.796
92028W        W57255  16.574  17.396   2.136
92029W        W57256  39.635  44.559   3.220
92030W        W57257  12.632  34.594   5.579
92031W        W57258  14.291   4.447   2.676
92032W        W57259  41.496   0.165  13.147
92033W        W57260  21.009  31.896  10.621
92034W        W57261  14.943   8.665   3.161
92035W        W57262  36.055  34.453  12.598
92036W        W57263  20.043   9.303  13.536
92037W        W57264   8.669  12.828   3.272
92038W        W57265  22.145  29.615   2.742
92039W        W57266  27.841  13.284  10.244
92040W        W57267  13.223  24.619  11.429
92041W        W57268  32.678  33.529   4.718
92042W        W57269  27.504  12.589  10.656
92043W        W57270  20.712  29.673  13.307
92044W        W57271  26.619  13.667  11.663
92045W        W57272  37.052   1.238  13.460
92046W        W57273   7.961  21.520  11.950
92047W        W57274  27.525   1.978   2.729
92048W        W57275  38.850   6.417  12.986
92049W        W57276  11.188  38.984  13.737
92050W        W57277   1.272  27.907   4.082
92051W        W57278  23.681  41.416   3.600
92052W        W57279  20.147   0.425   4.172
92053W        W57280  12.902  20.555   3.231
92054W        W57281  43.929  36.544   4.344
92055W        W57282   6.165  40.301   3.682
92056W        W57283  41.962  23.970   3.654
92057W        W57284  27.176  21.979   1.609
92058W        W57285  32.771   4.344  11.148
92059W        W57286   6.533  26.148   3.786
92060W        W57287  18.062  19.697   3.643
92061W        W57288  24.997  42.793   5.236
92062W        W57289  41.847  27.005  12.878
92063W        W57290   9.245  33.021   2.675
92064W        W57291  26.511   2.321  13.382
92065W        W57292  32.120  35.002  13.463
92066W        W57293  10.546   0.942  14.704
92067W        W57294  25.174  18.600   2.915
92068W        W57295  44.408  38.306  11.612
92069W        W57296  28.457  15.978  11.495
92070W        W57297  41.060  17.901   0.610
92071W        W57298   7.449  30.134   1.291
92072W        W57299  21.178   7.880  10.519
92073W        W57300  35.175   7.667   3.261
92074W        W57301  15.125  39.804   3.119
92075W        W57302   2.257   3.153  11.927
92076W        W57303  41.955  33.341   3.731
92077W        W57304  19.517  21.752  14.590
92078W        W57305  18.634  38.452  11.144
92079W        W57306  44.136  20.608  14.423
92080W        W57307  38.289  22.056   3.739
92081W        W57308  44.462   9.584   3.729
92082W        W57309  26.076   7.369  12.148
92083W        W57310  26.111  44.868   3.648
92084W        W57311  39.050  14.757  12.956
92085W        W57312   9.882  40.560  11.535
92086W        W57313  32.961  24.180  10.570
92087W        W57314  16.521  34.527  13.483
92088W        W57315  33.426  26.962  13.397
92089W        W57316  27.193  32.157   1.935
92090W        W57317  23.790  29.132  10.798
92091W        W57318  30.221  11.325   0.669
92092W        W57319  39.767  22.208   2.221
92093W        W57320  28.572   0.324   0.253
92094W        W57321  39.621  43.365   2.355
92095W        W57322   2.788  22.097  13.848
92096W        W57323   7.945  14.612   0.347
92097W        W57324  16.650   7.323  12.284
92098W        W57325  43.304  32.924   1.292
92099W        W57326  41.485  16.617   1.928
92100W        W57327  21.526  21.280   4.115
92101W        W57328  31.288  17.671  12.502
92102W        W57329  10.103  37.138  14.672
92103W        W57330  21.167  16.613   1.026
92104W        W57331  31.424  23.459  13.577
92105W        W57332   4.457  12.579  10.772
92106W        W57333  41.383  26.388  11.183
92107W        W57334  12.041  21.742   2.490
92108W        W57335  27.966  36.012   4.114
92109W        W57336  18.156  31.597   1.406
92110W        W57337  24.169  39.563   2.672
92111W        W57338  17.868   6.529   1.891
92112W        W57339   6.918   8.198  14.207
92113W        W57340   2.042  37.294  14.485
92114W        W57341   8.780  13.049   1.073
92115W        W57342  37.541  16.564   0.910
92116W        W57343  27.184  13.055  13.870
92117W        W57344  31.032  22.556   0.025
92118W        W57345  18.541   2.329   1.794
92119W        W57346  12.237  25.086  10.861
92120W        W57347  10.768  29.187   1.896
92121W        W57348  18.385  36.666   3.635
92122W        W57349   1.439  29.013  13.059
92123W        W57350  42.548  21.147  13.556
92124W        W57351   9.350  15.114   2.756
92125W        W57352  39.336  38.023   4.667
92126W        W57353  26.159   1.374  11.849
92127W        W57354  29.470   0.762  10.671
92128W        W57355   3.132  17.624  14.675
92129W        W57356   0.348  18.267   0.029
92130W        W57357  38.004  39.157   2.723
92131W        W57358  22.926  27.703  14.268
92132W        W57359  29.940  32.380  12.028
92133W        W57360   9.662  16.991  14.594
92134W        W57361  11.796  12.770   0.507
92135W        W57362  36.514  22.538  14.903
92136W        W57363  11.118  41.590   3.580
92137W        W57364   9.636  26.121   3.098
92138W        W57365  24.890  19.725   2.128
92139W        W57366  28.402   0.776  10.541
92140W        W57367  31.029  39.350   1.270
92141W        W57368  23.462  43.198  11.492
92142W        W57369  44.016  32.360   4.613
92143W        W57370  14.217  19.769   2.818
92144W        W57371  23.514  21.033  11.381
92145W        W57372  17.477  40.489  11.655
92146W        W57373  20.124   1.367   0.981
92147W        W57374  20.107  12.108  12.108
92148W        W57375  20.124  29.348   3.344
92149W        W57376   2.521  33.916  13.880
92150W        W57377  20.991   7.559   1.421
92151W        W57378  37.311  13.677   0.017
92152W        W57379  21.722  25.049   2.929
92153W        W57380   0.421   6.791   3.143
92154W        W57381  20.674  38.060   2.861
92155W        W57382  20.749  37.477   4.348
92156W        W57383  13.893  23.904  14.711
92157W        W57384  34.091  28.050   1.613
92158W        W57385   7.422   3.738  14.480
92159W        W57386   9.743  38.595   2.916
92160W        W57387  37.449  28.050  14.217
92161W        W57388  12.792  24.053  13.277
92162W        W57389  11.931  26.492   4.215
92163W        W57390  29.044  41.277   0.771
92164W        W57391  37.564   3.033   0.786
92165W        W57392  23.548  38.162   0.487
92166W        W57393   1.350  16.652  12.672
92167W        W57394  10.341   3.057   3.327
92168W        W57395   4.280   9.224   2.691
92169W        W57396  42.298  20.602  11.656
92170W        W57397   0.227  39.090  14.074
92171W        W57398  30.664  35.342  11.399
92172W        W57399  34.357  33.033   0.372
92173W        W57400  36.365  16.644  13.538
92174W        W57401  18.436   0.518   3.779
92175W        W57402  29.463  35.650   4.582
92176W        W57403  33.832  16.514  14.235
92177W        W57404  30.555  11.332   4.954
92178W        W57405   7.269   9.057  14.945
92179W        W57406  23.593  18.334  14.962
92180W        W57407  36.040  13.285  12.325
92181W        W57408  30.402   9.600  13.418
92182W        W57409  44.991  43.368   2.096
92183W        W57410  44.504  27.142   2.823
92184W        W57411  27.277  32.721  14.538
92185W        W57412  25.112  23.227  14.298
92186W        W57413  32.499   7.445   2.657
92187W        W57414  13.747  16.236   4.062
92188W        W57415   2.402  41.933  10.903
92189W        W57416   0.107  28.126   1.283
92190W        W57417  29.138  14.850   2.869
92191W        W57418  19.897  21.487   2.677
92192W        W57419  24.286  19.275  10.662
92193W        W57420  37.398   5.746   0.565
92194W        W57421  27.935  38.849  14.895
92195W        W57422  43.996  22.516  10.614
92196W        W57423  18.967  40.335   1.506
92197W        W57424  15.654  20.217  14.960
92198W        W57425  12.173  30.728  13.311
92199W        W57426  43.872   7.248  12.189
92200W        W57427  25.492  41.855  13.467
92201W        W57428  20.288  21.693  11.307
92202W        W57429  39.825  32.365   2.506
92203W        W57430  16.962  26.023   3.854
92204W        W57431   3.903  14.703  10.478
92205W        W57432  26.679   3.769  12.604
92206W        W57433   2.934   9.722   0.984
92207W        W57434  43.028  13.622   2.720
92208W        W57435  25.014  38.268   3.132
92209W        W57436  19.116  16.019  10.705
92210W        W57437  42.044  31.386  14.350
92211W        W57438   7.385  17.953  13.504
92212W        W57439  27.208  28.850   0.342
92213W        W57440   3.373  15.400   4.613
92214W        W57441  25.401  32.730   2.262
92215W        W57442   0.342  10.014  12.595
92216W        W57443  43.430  30.175  11.753
92217W        W57444   4.713  39.730  11.947
92218W        W57445  35.891  19.940   2.880
92219W        W57446  20.190  44.512   4.194
92220W        W57447  20.839  19.457   0.388
92221W        W57448   1.421   4.099  11.761
92222W        W57449  17.144   2.048  10.267
92223W        W57450  23.289  24.964  12.975
92224W        W57451   8.903   0.974  10.711
92225W        W57452  28.144   5.409  11.561
92226W        W57453  21.047  41.917  14.046
92227W        W57454   6.873  42.813   2.698
92228W        W57455   6.145  13.202  12.372
92229W        W57456  44.972  35.923  13.853
92230W        W57457  41.222   7.640  13.970
92231W        W57458  23.466  36.533   4.552
92232W        W57459  35.338  10.159  11.047
92233W        W57460  19.329  37.379   1.262
92234W        W57461   1.830  26.869  14.097
92235W        W57462  11.547  22.989  13.361
92236W        W57463   7.792  36.188  10.776
92237W        W57464   4.355  17.567  13.779
92238W        W57465   8.400   0.698  14.023
92239W        W57466  34.451  30.517   1.933
92240W        W57467   4.858  37.724  13.121
92241W        W57468  35.390  23.226   0.299
92242W        W57469  26.055   6.511   2.965
92243W        W57470   8.400  26.553   1.466
92244W        W57471  33.056   4.186   0.866
92245W        W57472   1.687   1.920   1.998
92246W        W57473  33.525  27.419  11.624
92247W        W57474  18.759  42.950  11.148
92248W        W57475  38.533  27.057   3.162
92249W        W57476  33.133  37.335  13.155
92250W        W57477   4.159  26.560  13.240
92251W        W57478  33.681  18.707   1.552
92252W        W57479  16.983  30.127   0.644
92253W        W57480  36.935  21.696   3.238
92254W        W57481  44.663  39.187  13.436
92255W        W57482  10.828   8.313   4.444
92256W        W57483  10.929  13.316  14.881
92257W        W57484  10.946  11.444  12.489
92258W        W57485   8.419  31.067   1.230
92259W        W57486  21.511  28.901  11.875
92260W        W57487  28.641  34.119  14.179
92261W        W57488  33.493  34.661   5.357
92262W        W57489  17.776  33.313  13.212
92263W        W57490   7.282  27.994  12.611
92264W        W57491  13.417   8.983  14.328
92265W        W57492  16.177  17.072  14.473
92266W        W57493   6.342  17.295   0.769
92267W        W57494  40.369  43.037   5.001
92268W        W57495  35.886  29.333   5.105
92269W        W57496  38.987   3.754  11.677
92270W        W57497  21.935  21.409   4.726
92271W        W57498  20.526  20.668  12.634
92272W        W57499  35.535  17.502   1.522
92273W        W57500  22.263  43.265   1.481
92274W        W57501   6.766  24.185  13.007
92275W        W57502   6.250  35.618  11.692
92276W        W57503  17.289  11.739   4.489
92277W        W57504  22.557  20.790  14.400
92278W        W57505  17.758  21.248  14.380
92279W        W57506   6.949  21.221   3.035
92280W        W57507  15.434  17.064   4.129
92281W        W57508   6.970   0.074  10.828
92282W        W57509  35.953  31.931   2.249
92283W        W57510  44.903  41.014  10.569
92284W        W57511  23.374  37.021   1.399
92285W        W57512   4.302  21.621  13.066
92286W        W57513  17.410  26.835  12.745
92287W        W57514  38.049  14.613  11.115
92288W        W57515  27.024  26.422   0.359
92289W        W57516   6.503  34.417  11.839
92290W        W57517   2.903   4.447   1.692
92291W        W57518  30.138  25.711  14.712
92292W        W57519  20.395  16.076  12.898
92293W        W57520   9.400  28.882  14.837
92294W        W57521  23.198  31.415  14.432
92295W        W57522  41.427   9.170   0.365
92296W        W57523  24.733  28.684  14.558
92297W        W57524  30.987  26.454  13.058
92298W        W57525  39.897   3.812  11.780
92299W        W57526   8.258  34.684  13.478
92300W        W57527   5.094  24.037   2.697
92301W        W57528  21.183  33.507   2.604
92302W        W57529  42.810   9.841   2.190
92303W        W57530   2.136  16.096   4.011
92304W        W57531  23.110  10.257  10.713
92305W        W57532   2.091  20.035   3.150
92306W        W57533  21.311  26.018  13.930
92307W        W57534  13.320   0.514  12.327
92308W        W57535  11.563   9.310   3.428
92309W        W57536  20.686  14.287  10.732
92310W        W57537   5.378   0.745  14.556
92311W        W57538  21.095  27.230  13.443
92312W        W57539  19.127   9.115  13.671
92313W        W57540  14.824  41.769   4.594
92314W        W57541  42.065  22.449   2.793
92315W        W57542   8.038  34.020  14.411
92316W        W57543  43.340   4.710  13.130
92317W        W57544  39.794  21.337  11.362
92318W        W57545  32.426  32.948  10.650
92319W        W57546  11.668  27.456  11.658
92320W        W57547  26.850   0.096  13.364
92321W        W57548  22.555  10.233   0.521
92322W        W57549  13.217  15.309  11.248
92323W        W57550  20.759  22.573   1.630
92324W        W57551  34.094  11.850   0.765
92325W        W57552  23.514  21.131  12.463
92326W        W57553   9.012  24.579  13.373
92327W        W57554  21.695  42.043   0.797
92328W        W57555   0.450  26.043  10.198
92329W        W57556  21.984   4.492  13.484
92330W        W57557   2.370  29.878  14.325
92331W        W57558  21.318  36.310   0.553
92332W        W57559  31.830   7.926  11.109
92333W        W57560  13.620   9.357  12.049
92334W        W57561  41.038  26.591  13.508
92335W        W57562  23.076  10.079   2.609
92336W        W57563   7.604  30.463  12.543
92337W        W57564  30.942   9.211   1.555
92338W        W57565  36.823  18.287  14.758
92339W        W57566  15.505  44.516  10.970
92340W        W57567  23.609   0.143   1.378
92341W        W57568   0.339  13.917  13.070
92342W        W57569  38.404   6.234  14.317
92343W        W57570  23.447  21.171   4.234
92344W        W57571  18.096   4.827   0.874
92345W        W57572  15.395  34.463  12.983
92346W        W57573  13.108  31.594   2.149
92347W        W57574  21.641  41.005   4.553
92348W        W57575  13.656  36.101   4.269
92349W        W57576  14.803  23.206  13.623
92350W        W57577   5.831   0.138  10.651
92351W        W57578   8.781  10.987  10.937
92352W        W57579  26.188  12.816   2.275
92353W        W57580   9.164   8.936   4.743
92354W        W57581  23.509  22.219  11.391
92355W        W57582  39.062  26.914   0.351
92356W        W57583  17.613  36.440   4.003
92357W        W57584   7.347  21.255  13.563
92358W        W57585  16.122  20.370  12.430
92359W        W57586  17.156  34.431  14.400
92360W        W57587   0.248  17.626  14.677
92361W        W57588   0.469   7.821   3.193
92362W        W57589  14.210  13.465   2.391
92363W        W57590  25.205   2.827   1.296
92364W        W57591  18.547  33.862  12.881
92365W        W57592  23.961  13.818  10.787
92366W        W57593  44.515  27.342   5.246
92367W        W57594  28.157  42.040  12.994
92368W        W57595  13.035  27.519   1.380
92369W        W57596   2.447   0.112  11.280
92370W        W57597  15.544  30.663   1.491
92371W        W57598  35.489   1.935   3.298
92372W        W57599  30.062  44.928   4.765
92373W        W57600  19.306  37.051  12.501
92374W        W57601  28.597  31.115   3.101
92375W        W57602  13.740  43.241   4.261
92376W        W57603   5.277  28.561  10.520
92377W        W57604   4.264   8.897  11.637
92378W        W57605  31.468  14.557  11.982
92379W        W57606  25.284  37.088  14.104
92380W        W57607  18.921  17.422  12.791
92381W        W57608  38.126  21.226   4.036
92382W        W57609  12.216   8.469  13.298
92383W        W57610  20.017  16.759   1.853
92384W        W57611  17.362   7.879  10.721
92385W        W57612  33.532  21.274  10.282
92386W        W57613  10.643  36.068   4.052
92387W        W57614  34.200  34.510  14.465
92388W        W57615  18.775  14.176   2.576
92389W        W57616  28.899  38.978   1.260
92390W        W57617  43.921  41.339   0.343
92391W        W57618  41.131  30.560   3.212
92392W        W57619  30.576  14.652  12.547
92393W        W57620   9.865  28.115   1.646
92394W        W57621   7.267  10.661   3.222
92395W        W57622  32.508  39.102   3.163
92396W        W57623  34.107  15.519   4.317
92397W        W57624  41.935   5.453  14.975
92398W        W57625  21.717  43.415  13.971
92399W        W57626  14.092   0.850   4.706
92400W        W57627  16.252  13.848   1.026
92401W        W57628  34.628  28.257   5.013
92402W        W57629   9.838  14.167   3.330
92403W        W57630  12.272  11.344  10.982
92404W        W57631  22.982  30.431   3.201
92405W        W57632   0.950  16.075  13.849
92406W        W57633  19.215   5.745   0.921
92407W        W57634  25.326  43.820   2.478
92408W        W57635   0.880  11.368   1.766
92409W        W57636   9.461  33.133  14.348
92410W        W57637  22.596  32.417  13.160
92411W        W57638   6.919  19.753   4.346
92412W        W57639  15.144  39.148  13.439
92413W        W57640  24.140   8.631  14.356
92414W        W57641   6.401  42.308  14.506
92415W        W57642  13.702  42.447   4.950
92416W        W57643  10.404  20.440   2.329
92417W        W57644   6.656  18.158   2.630
92418W        W57645  37.777  13.521   0.286
92419W        W57646  24.735  30.367   0.410
92420W        W57647   1.923  37.042  13.726
92421W        W57648  43.504   2.828  12.604
92422W        W57649  41.070  37.422   4.546
92423W        W57650   4.864  20.200  13.782
92424W        W57651  20.236   4.920   4.656
92425W        W57652   8.367  39.103  12.517
92426W        W57653   0.034  36.238  12.144
92427W        W57654  38.060   7.176   2.270
92428W        W57655  19.086  23.237   3.197
92429W        W57656  38.249  36.459  11.749
92430W        W57657   3.814  33.651  12.423
92431W        W57658  40.798  12.521   4.755
92432W        W57659  20.747  10.010  13.381
92433W        W57660   4.792  41.302  12.573
92434W        W57661  10.391  17.025  13.466
92435W        W57662  29.902  30.568  11.542
92436W        W57663  32.856   6.264   0.275
92437W        W57664  42.328  24.119   4.598
92438W        W57665  13.907  19.639   0.242
92439W        W57666   7.565   0.584  14.984
92440W        W57667  41.707  21.534   2.744
92441W        W57668  28.410  13.012  10.250
92442W        W57669  28.214   9.549  11.591
92443W        W57670  12.049   0.199   0.431
92444W        W57671  17.911   5.461  13.735
92445W        W57672  12.424  44.604  10.421
92446W        W57673  12.866  27.910   2.836
92447W        W57674   8.307  12.803   2.547
92448W        W57675  34.238  28.608   5.025
92449W        W57676  36.905  23.623  13.128
92450W        W57677   4.409  27.106  11.555
92451W        W57678  41.368  44.951  11.513
92452W        W57679  16.617   7.384   3.313
92453W        W57680   7.628  26.716   1.858
92454W        W57681   9.737   2.220   0.818
92455W        W57682  23.114  26.176  13.427
92456W        W57683  31.111   0.867   1.767
92457W        W57684  13.160  34.641  12.807
92458W        W57685  20.056  18.012   0.689
92459W        W57686   8.590  39.198   0.464
92460W        W57687  22.565  29.973   4.808
92461W        W57688  43.384  22.076   1.691
92462W        W57689  24.486  25.453   0.752
92463W        W57690  19.984  15.589  10.333
92464W        W57691  16.572  41.882  12.455
92465W        W57692  14.083  16.762   3.102
92466W        W57693  13.103  28.433   4.241
92467W        W57694   3.783   1.006   3.073
92468W        W57695  35.959  39.119   1.478
92469W        W57696   2.688   7.256   0.064
92470W        W57697  31.004  10.732   1.716
92471W        W57698  43.550  44.069   3.738
92472W        W57699  38.757  37.526   5.100
92473W        W57700  15.201  32.078  14.764
92474W        W57701   6.713  23.506  12.591
92475W        W57702  29.427   1.038  10.242
92476W        W57703  42.941  14.791  13.590
92477W        W57704  21.334   7.183  13.051
92478W        W57705  14.059  36.474  14.701
92479W        W57706  32.847  44.486  14.297
92480W        W57707   6.180   3.840  14.964
92481W        W57708  34.980  12.894   0.438
92482W        W57709  42.163  11.911  14.647
92483W        W57710  27.264  35.455   4.011
92484W        W57711   1.688  29.239  14.332
92485W        W57712   5.761   0.252  12.575
92486W        W57713  23.715   2.680   1.362
92487W        W57714  22.944  21.616   0.368
92488W        W57715   1.068  31.128  10.547
92489W        W57716  26.009   6.935   1.689
92490W        W57717  40.618  29.153  13.387
92491W        W57718  34.577  36.305  12.611
92492W        W57719  37.077  28.572  11.565
92493W        W57720   3.480  25.420  13.507
92494W        W57721  32.589  29.150  12.824
92495W        W57722  32.681  16.197  11.645
92496W        W57723  10.703   7.204   3.330
92497W        W57724  20.986  29.900   3.318
92498W        W57725  19.092  41.405  14.698
92499W        W57726   2.873  31.883   3.649
92500W        W57727   7.082  42.387  13.839
92501W        W57728   3.945   2.497   2.693
92502W        W57729  14.108  19.112  12.806
92503W        W57730  15.585  39.935  13.948
92504W        W57731  25.738  28.124   4.115
92505W        W57732  17.699  12.120   2.750
92506W        W57733  21.288  27.951   1.286
92507W        W57734   4.889   0.540   1.269
92508W        W57735  26.028  25.554   3.151
92509W        W57736  41.126   7.461  12.499
92510W        W57737   6.412  39.861  11.174
92511W        W57738  22.306  34.072   0.842
92512W        W57739   8.352  35.911   3.843
92513W        W57740  29.584  35.998  10.260
92514W        W57741  36.851  42.081  13.361
92515W        W57742  38.030  33.410   4.924
92516W        W57743   6.700   1.066   5.549
92517W        W57744  35.891  36.745   4.071
92518W        W57745  26.429  39.567   1.867
92519W        W57746  14.025  35.816   0.270
92520W        W57747  35.149  16.546  13.023
92521W        W57748  21.716   4.251   0.580
92522W        W57749  41.753  28.146  11.188
92523W        W57750  14.349  19.791  13.035
92524W        W57751  32.612  43.929  14.805
92525W        W57752  44.319  20.568  14.912
92526W        W57753  37.559  34.791   3.366
92527W        W57754  17.227  10.790   4.607
92528W        W57755   8.657   7.843   1.730
92529W        W57756  35.370  39.774   2.838
92530W        W57757  23.095  12.709   4.511
92531W        W57758  36.411   1.948   0.948
92532W        W57759  29.421  18.134   3.702
92533W        W57760  40.542   5.682   1.775
92534W        W57761  40.578   1.884   1.346
92535W        W57762  28.456  43.914  11.042
92536W        W57763  13.134  21.183   3.927
92537W        W57764  35.034   9.849  14.700
92538W        W57765  13.737   8.314   2.940
92539W        W57766  10.874  43.828  14.789
92540W        W57767  18.535  28.502   2.272
92541W        W57768  17.189  35.504   3.689
92542W        W57769  35.111  38.466  13.625
92543W        W57770  27.861  27.616  13.612
92544W        W57771  11.105  40.418   2.721
92545W        W57772  19.149  11.260   2.404
92546W        W57773  30.745   6.431   4.033
92547W        W57774   1.305  15.608  13.928
92548W        W57775  15.660  28.413   1.775
92549W        W57776  25.616  23.786  14.028
92550W        W57777   5.906  25.049  12.738
92551W        W57778   6.241  31.702  13.080
92552W        W57779  32.397  28.571  12.157
92553W        W57780  28.627  17.018   3.255
92554W        W57781  30.064  43.813   2.079
92555W        W57782  22.049   4.526   2.825
92556W        W57783  39.552  19.799   1.389
92557W        W57784  37.176  28.035   2.763
92558W        W57785  33.073  35.555  12.982
92559W        W57786  30.923   7.839   4.968
92560W        W57787   3.760  30.490  13.991
92561W        W57788   0.217   0.821  11.656
92562W        W57789  32.599  40.228  13.939
92563W        W57790  28.044  12.963   1.582
92564W        W57791  26.730  41.073  12.510
92565W        W57792  11.245  36.337   0.440
92566W        W57793  31.462  30.833  12.591
92567W        W57794  33.400  19.790   2.374
92568W        W57795  14.450  26.713   0.517
92569W        W57796  34.447  41.769   2.868
92570W        W57797  14.501  15.150   4.588
92571W        W57798  11.304   9.429   1.589
92572W        W57799  12.854   6.665   3.629
92573W        W57800  17.469  40.722   0.353
92574W        W57801  29.049  16.573   4.026
92575W        W57802  19.338  32.652  14.454
92576W        W57803  41.961  35.092  13.524
92577W        W57804  17.110  20.333  11.675
92578W        W57805  13.274  25.414  14.308
92579W        W57806  19.328   0.961   0.777
92580W        W57807  19.712  22.933   3.274
92581W        W57808   7.302  44.545   1.552
92582W        W57809   1.730   1.948   0.964
92583W        W57810  12.162  26.730  13.507
92584W        W57811   1.810  24.461  14.577
92585W        W57812   5.387   9.325   3.995
92586W        W57813  10.794  31.535  12.516
92587W        W57814  19.615  29.266   4.457
92588W        W57815  12.682  13.072  14.348
92589W        W57816   5.369   1.914  12.985
92590W        W57817  31.299   5.242   3.217
92591W        W57818  31.406  32.910  14.446
92592W        W57819  24.283  39.669  11.082
92593W        W57820  33.022  31.530   3.376
92594W        W57821  38.849  11.352  13.708
92595W        W57822  14.497  15.181  14.522
92596W        W57823  19.506  31.148   1.842
92597W        W57824   8.190  18.584  13.786
92598W        W57825  17.616  22.113  10.592
92599W        W57826  26.586   4.106   4.170
92600W        W57827  17.973   7.689  12.815
92601W        W57828  31.118   1.900   0.837
92602W        W57829   8.756  30.190  13.404
92603W        W57830  15.832  33.629  14.719
92604W        W57831  44.916  13.999  13.942
92605W        W57832  15.294  37.038   0.869
92606W        W57833  36.272  39.966   2.727
92607W        W57834   4.480  33.126   3.579
92608W        W57835  25.736  30.123   1.534
92609W        W57836  37.936  41.264   3.351
92610W        W57837  36.082  38.918   0.442
92611W        W57838   7.859   5.487   3.281
92612W        W57839  16.672  44.483   2.150
92613W        W57840  22.968  20.560   0.319
92614W        W57841  31.224  37.999   0.527
92615W        W57842   7.865   5.021   2.393
92616W        W57843   7.774  26.976  12.154
92617W        W57844  30.489   2.846   4.625
92618W        W57845   2.759  39.250  11.245
92619W        W57846  43.335   4.413  10.887
92620W        W57847  38.140   3.971   0.308
92621W        W57848  36.325  10.258   4.523
92622W        W57849  41.473   0.373  11.222
92623W        W57850  34.362  13.760   0.480
92624W        W57851   2.507  25.609   2.761
92625W        W57852  40.169  25.151  14.873
92626W        W57853   0.236  16.864  12.659
92627W        W57854  36.815  29.084  10.707
92628W        W57855  26.188  13.688   4.920
92629W        W57856  18.770  40.915   2.939
92630W        W57857  39.286  41.962  11.535
92631W        W57858  33.622   2.424  11.600
92632W        W57859  21.696  18.600  10.993
92633W        W57860  44.853  30.582  11.151
92634W        W57861  34.265  40.591   3.576
92635W        W57862  13.538  15.366   1.888
92636W        W57863  27.583  36.834  14.001
92637W        W57864  15.791  40.926  10.497
92638W        W57865  38.750   5.134   2.792
92639W        W57866  18.114  42.634   3.906
92640W        W57867   5.453  40.347   2.684
92641W        W57868  37.368  17.680   2.709
92642W        W57869  29.985   6.655   2.168
92643W        W57870  10.679   7.894   2.799
92644W        W57871  39.105  16.681   4.630
92645W        W57872  38.631  29.927  13.822
92646W        W57873  19.786  39.071   3.946
92647W        W57874  41.490  14.048   3.804
92648W        W57875   4.707   2.184  12.085
92649W        W57876  13.283   2.920   3.847
92650W        W57877  18.229   7.224  12.779
92651W        W57878  44.800  37.334   1.842
92652W        W57879  38.060  12.401  11.662
92653W        W57880   1.870  40.566  13.838
92654W        W57881  18.655  21.239  14.426
92655W        W57882  36.103   7.833  13.836
92656W        W57883  15.594   5.023   1.263
92657W        W57884   4.498   3.181  11.195
92658W        W57885  31.072  31.717  10.626
92659W        W57886  33.379   0.207  12.454
92660W        W57887  40.820  29.024   4.206
92661W        W57888   8.459  14.087  10.320
92662W        W57889   8.936  43.006   4.141
92663W        W57890  22.119  36.386   1.040
92664W        W57891  28.741  44.873   3.500
92665W        W57892  33.927  24.936   2.586
92666W        W57893  43.955   7.231   4.623
92667W        W57894  32.355  25.035  12.037
92668W        W57895  10.104  26.659   0.797
92669W        W57896  13.825  37.736  10.685
92670W        W57897  37.837  44.540   2.644
92671W        W57898  16.217   1.057   3.400
92672W        W57899  44.945  10.045  10.129
92673W        W57900  36.047   9.406  12.425
92674W        W57901  41.826  40.462   2.294
92675W        W57902  24.115  41.214   3.818
92676W        W57903  37.066  14.044  14.674
92677W        W57904  16.446  20.718   2.852
92678W        W57905   7.942  34.096   3.093
92679W        W57906   3.907  34.852  12.630
92680W        W57907  40.499  43.864   1.949
92681W        W57908  29.879   8.231  12.575
92682W        W57909   4.991  23.289   0.006
92683W        W57910  30.287  17.524  13.922
92684W        W57911   9.950  32.039   0.530
92685W        W57912  37.279  33.849   3.862
92686W        W57913   3.855  30.702  14.856
92687W        W57914  17.688  26.603  14.911
92688W        W57915  19.331  29.935   0.070
92689W        W57916  44.923  14.211   0.468
92690W        W57917   3.590  26.754   4.139
92691W        W57918  37.181   5.095  11.997
92692W        W57919  16.278  10.681  10.748
92693W        W57920  41.613  14.437   3.524
92694W        W57921  43.999  20.492   3.579
92695W        W57922  25.975   6.384   2.428
92696W        W57923  38.094  44.012   1.687
92697W        W57924  40.524  17.823   3.300
92698W        W57925   7.555   9.360   2.576
92699W        W57926  29.171  38.489  14.877
92700W        W57927  22.253  35.817   1.766
92701W        W57928  12.641  40.922   3.872
92702W        W57929  27.388  12.042  11.415
92703W        W57930   4.736  10.408  11.961
92704W        W57931  12.778  42.924  13.400
92705W        W57932  15.594   0.510  13.910
92706W        W57933  41.247  10.218   2.395
92707W        W57934   3.368  41.578   4.745
92708W        W57935  12.523  32.849   3.063
92709W        W57936  40.582  37.333   9.857
92710W        W57937  20.510  26.931  11.798
92711W        W57938  41.622  17.003  12.366
92712W        W57939  44.227  11.366   0.418
92713W        W57940  34.446  30.270   0.273
92714W        W57941  15.766  40.109   2.194
92715W        W57942   6.193  28.750   3.252
92716W        W57943   5.786   9.409  13.570
92717W        W57944  35.120  11.746   0.785
92718W        W57945  42.562  23.447  14.336
92719W        W57946   6.923  35.844  11.123
92720W        W57947  27.527  13.067  11.492
92721W        W57948  17.830  32.744  12.299
92722W        W57949  27.979   6.690   5.029
92723W        W57950  23.542   3.872   1.721
92724W        W57951  22.716  34.696  14.562
92725W        W57952  30.711   3.685  12.973
92726W        W57953  40.759   9.185   4.588
92727W        W57954  44.400  33.703   4.677
92728W        W57955  39.464  35.291   1.864
92729W        W57956  14.104   0.289  14.975
92730W        W57957   5.543  33.092  12.112
92731W        W57958   8.485  21.572  11.688
92732W        W57959   5.261  35.374  12.439
92733W        W57960   0.325  41.976   3.699
92734W        W57961  20.278   0.868  13.436
92735W        W57962   4.753  29.080  12.008
92736W        W57963  16.387  36.302  14.056
92737W        W57964  36.906  10.832   2.740
92738W        W57965  35.828   5.401  12.945
92739W        W57966  21.306   7.598  13.395
92740W        W57967   3.155  33.187   4.596
92741W        W57968  27.913   2.712  10.660
92742W        W57969  33.668  23.197  12.730
92743W        W57970  40.079  30.949   3.722
92744W        W57971  44.217  42.373  12.159
92745W        W57972  29.048  21.760  14.010
92746W        W57973  39.309  33.000  13.010
92747W        W57974  40.535  39.478   3.221
92748W        W57975  19.662  14.251  11.806
92749W        W57976  44.946  34.109  14.619
92750W        W57977  29.311  14.373  11.374
92751W        W57978  16.096  14.511  13.361
92752W        W57979  38.507  20.551  10.197
92753W        W57980  42.477   9.286   1.463
92754W        W57981   5.172  28.120  10.217
92755W        W57982  29.016  35.523   1.734
92756W        W57983  44.995  31.635   2.703
92757W        W57984  27.339  18.068   3.691
92758W        W57985  28.425  40.688  10.257
92759W        W57986  21.456  11.449  14.492
92760W        W57987  34.034  29.971   0.328
92761W        W57988  30.654  19.323   0.847
92762W        W57989   4.945  39.889   2.208
92763W        W57990   0.985  22.337   2.698
92764W        W57991   6.407  43.023  14.322
92765W        W57992   8.883  24.396  13.871
92766W        W57993   9.468  29.219   4.100
92767W        W57994  11.817  11.183  11.178
92768W        W57995   0.743   9.704   0.977
92769W        W57996  19.053  32.618   4.749
92770W        W57997   4.954  37.026   2.460
92771W        W57998  12.049  30.053  13.637
92772W        W57999  30.188  18.689   1.798
92773W        W58000   9.300  41.931  11.418
92774W        W58001   9.737  13.345   3.685
92775W        W58002   4.061   4.290  13.067
92776W        W58003  27.889  44.638   0.856
92777W        W58004  42.434  29.471   0.909
92778W        W58005  36.947  15.382  14.284
92779W        W58006  41.535   4.080   2.866
92780W        W58007  23.432  33.921   2.826
92781W        W58008   0.731  26.940   3.025
92782W        W58009  31.657   6.240  14.601
92783W        W58010  26.630  32.307  13.789
92784W        W58011  23.852  36.822  10.802
92785W        W58012   7.121  21.476  14.416
92786W        W58013  33.738  33.942   1.280
92787W        W58014  35.676  29.404  11.989
92788W        W58015  42.404  42.227  12.008
92789W        W58016  20.683   9.870  14.705
92790W        W58017  32.017  29.096   4.387
92791W        W58018   3.253  33.660   3.159
92792W        W58019  28.442  44.578   0.813
92793W        W58020  36.191  23.111   2.009
92794W        W58021  38.575  29.180   0.791
92795W        W58022  15.033   0.954  13.350
92796W        W58023   6.519  22.015   2.818
92797W        W58024  24.596  33.475  13.802
92798W        W58025  41.472  11.642  11.689
92799W        W58026  38.731   7.403  12.445
92800W        W58027  14.561   4.054  12.515
92801W        W58028  31.315  22.373  14.627
92802W        W58029  23.557  31.053   0.330
92803W        W58030  40.899  34.658   2.349
92804W        W58031  35.585  21.712  13.065
92805W        W58032   9.859  20.694  13.377
92806W        W58033  13.040  12.628   4.318
92807W        W58034  33.037  10.116  10.628
92808W        W58035  14.948  23.011  14.505
92809W        W58036  32.061  30.968  11.932
92810W        W58037  40.236  40.164  11.728
92811W        W58038  21.216   8.269  12.581
92812W        W58039  15.657   3.680   3.731
92813W        W58040  42.375   8.379   1.729
92814W        W58041   7.936  32.665  11.561
92815W        W58042  36.430  34.914   3.784
92816W        W58043  15.708  26.053   0.865
92817W        W58044   0.386  43.519  11.569
92818W        W58045  16.059  27.366  12.952
92819W        W58046  29.676  38.853   4.005
92820W        W58047  40.239  23.023  12.833
92821W        W58048   3.188  34.038   0.776
92822W        W58049  20.866  27.177  12.632
92823W        W58050  30.911  15.170   1.393
92824W        W58051   1.895  14.342   0.224
92825W        W58052  39.446  42.444   2.458
92826W        W58053  32.223  21.191   1.447
92827W        W58054  26.810  16.317   2.745
92828W        W58055  18.269  12.573   1.051
92829W        W58056  29.370   6.423   2.894
92830W        W58057  14.530  16.982  11.685
92831W        W58058  13.232   3.466   0.986
92832W        W58059  31.726  39.828  13.530
92833W        W58060   8.574  35.077   9.721
92834W        W58061  24.151  33.606  14.832
92835W        W58062  15.067  20.526  10.775
92836W        W58063  18.671   5.680   2.619
92837W        W58064  42.472  28.814   3.881
92838W        W58065   5.517  22.052  10.781
92839W        W58066  44.874   8.135  12.667
92840W        W58067  33.972  15.152   3.992
92841W        W58068   5.972  19.359   2.762
92842W        W58069  43.294  37.613  10.652
92843W        W58070  43.308   8.672  10.592
92844W        W58071  38.258   2.924  14.349
92845W        W58072  32.771  24.590  10.837
92846W        W58073  31.949   5.170   0.375
92847W        W58074   9.667   7.228   2.256
92848W        W58075  12.720  15.768   0.718
92849W        W58076  38.117  38.216   3.692
92850W        W58077  20.534  44.205   0.415
92851W        W58078   1.279  23.784  14.326
92852W        W58079  30.093  19.629   1.771
92853W        W58080  40.623  11.318   3.013
92854W        W58081   3.435  35.139   1.452
92855W        W58082  33.939  27.438  12.866
92856W        W58083  22.228  22.099   3.277
92857W        W58084   4.467  36.576  13.003
92858W        W58085  27.548  40.493   2.550
92859W        W58086  24.184  10.765   2.056
92860W        W58087  13.320   7.854  10.938
92861W        W58088  34.419  18.328  11.733
92862W        W58089  29.188   7.675   3.282
92863W        W58090  42.930  35.494  10.794
92864W        W58091  31.381   0.724   1.299
92865W        W58092  27.501   6.882   4.906
92866W        W58093  35.388  32.088  11.532
92867W        W58094  17.809  33.309  11.070
92868W        W58095  42.632  18.807   1.207
92869W        W58096  44.549  40.057  11.957
92870W        W58097  26.055  16.555  13.036
92871W        W58098  43.471  39.117   0.802
92872W        W58099  17.885   7.294  11.930
92873W        W58100  20.347  23.239   0.357
92874W        W58101  31.017  10.123   1.460
92875W        W58102  38.318   4.143   4.567
92876W        W58103   5.012   7.146  10.196
92877W        W58104   8.509  44.770  11.346
92878W        W58105  32.076   4.902  12.068
92879W        W58106  23.023  26.133   3.197
92880W        W58107  12.779  19.386  14.445
92881W        W58108  22.747  33.472   0.047
92882W        W58109   9.349  35.913  13.789
92883W        W58110  31.694  33.180   3.156
92884W        W58111   7.425  38.866   1.844
92885W        W58112   1.803  19.506  11.152
92886W        W58113  44.863  39.863  13.559
92887W        W58114  26.025   8.790  10.681
92888W        W58115   2.936   8.138  14.362
92889W        W58116  26.097  14.104  11.949
92890W        W58117  18.519  24.929   3.368
92891W        W58118  37.421  15.242   3.750
92892W        W58119  42.385  43.041   2.620
92893W        W58120  20.280  24.545   1.764
92894W        W58121  43.493  33.962  12.132
92895W        W58122  12.288  14.099   2.173
92896W        W58123  34.797  36.999   5.011
92897W        W58124  17.003  32.242  10.468
92898W        W58125  30.959   2.400   4.041
92899W        W58126   5.547  42.529   3.273
92900W        W58127  18.055  25.486  10.705
92901W        W58128  19.071  20.231   1.024
92902W        W58129  11.127   2.764   1.247
92903W        W58130  27.092  40.871  14.361
92904W        W58131  25.551  23.721   2.771
92905W        W58132  11.241  13.580   0.824
92906W        W58133   9.631  14.201   3.807
92907W        W58134   0.886  24.122   2.282
92908W        W58135  16.042  31.611   2.602
92909W        W58136  13.116  18.468  14.566
92910W        W58137  31.221  25.975   4.993
92911W        W58138   2.678  22.976  13.377
92912W        W58139   5.917  28.080   0.880
92913W        W58140   3.876  35.027   1.753
92914W        W58141   5.455  37.558   4.193
92915W        W58142   9.688  23.571  12.118
92916W        W58143   4.978  19.859   2.150
92917W        W58144  31.695  27.646  12.647
92918W        W58145   3.470  21.012   5.024
92919W        W58146  22.831  17.486  12.216
92920W        W58147  34.123  11.728   1.961
92921W        W58148  10.325   5.043   0.312
92922W        W58149  43.277  11.302  12.181
92923W        W58150  42.859   9.670   4.134
92924W        W58151  21.301  21.451   1.826
92925W        W58152  28.142  14.273   2.817
92926W        W58153  27.183   6.730   1.922
92927W        W58154   1.542  23.368   3.975
92928W        W58155  38.864  20.430  14.752
92929W        W58156  16.132   6.134  13.051
92930W        W58157  25.167  28.593   1.185
92931W        W58158  44.401  34.463   4.150
92932W        W58159   8.301  17.124   1.708
92933W        W58160  22.613  16.804  10.623
92934W        W58161   9.321  17.545  14.193
92935W        W58162   6.145  42.077  11.935
92936W        W58163  43.940  24.407  12.162
92937W        W58164  27.632  31.602   3.119
92938W        W58165  15.871  16.687  11.007
92939W        W58166  26.821  34.177  14.575
92940W        W58167  11.069   0.813  14.815
92941W        W58168  41.590  20.401   2.705
92942W        W58169  39.534  36.971   4.068
92943W        W58170  39.583   1.877  12.982
92944W        W58171   7.952  12.354   3.720
92945W        W58172  42.083  20.042  13.016
92946W        W58173   0.698  18.983   3.507
92947W        W58174   7.997  38.680  13.833
92948W        W58175  39.425   8.599  14.760
92949W        W58176   4.760   4.634   3.234
92950W        W58177  27.401  27.654  14.544
92951W        W58178  42.393  43.411   4.686
92952W        W58179  17.477  42.516   1.876
92953W        W58180  28.967  12.093  12.928
92954W        W58181  16.139  24.537   3.073
92955W        W58182   4.249  33.386  13.320
92956W        W58183  27.376  35.529   0.922
92957W        W58184  13.306   5.299  12.770
92958W        W58185   8.607  44.717   0.294
92959W        W58186  17.945   1.862  11.441
92960W        W58187  11.317  27.445   4.126
92961W        W58188  25.254  17.568  10.760
92962W        W58189  25.018  36.908   1.247
92963W        W58190  43.541  14.298   1.826
92964W        W58191  36.698  42.677   4.155
92965W        W58192  17.865   8.213   2.364
92966W        W58193   2.680   3.238  10.718
92967W        W58194  20.059  42.058  13.504
92968W        W58195   8.222  44.642  12.259
92969W        W58196  35.247  31.572   2.391
92970W        W58197   6.774  22.965  11.232
92971W        W58198  28.706  25.773  10.807
92972W        W58199   3.646  29.634   0.823
92973W        W58200   0.059   0.901   1.219
92974W        W58201  21.575  43.501   5.072
92975W        W58202  25.245  33.071   4.875
92976W        W58203  38.647   5.162  12.967
92977W        W58204  28.145  23.693   0.736
92978W        W58205   9.281  11.702  10.521
92979W        W58206  26.508  18.579  14.485
92980W        W58207   3.354  12.333   4.962
92981W        W58208  25.647  35.917  14.873
92982W        W58209  40.009   4.363  12.672
92983W        W58210  10.342  41.531   1.726
92984W        W58211  21.489  19.921   4.492
92985W        W58212  26.444  26.853   2.621
92986W        W58213  18.840  11.739  12.434
92987W        W58214  22.059  18.243  11.442
92988W        W58215  28.126  19.026   1.293
92989W        W58216  42.974   7.647  14.709
92990W        W58217  18.723  23.633  12.489
92991W        W58218  17.119  33.749  13.776
92992W        W58219  14.155   9.811  11.146
92993W        W58220   9.995  26.993  14.910
92994W        W58221  23.129  40.603  11.405
92995W        W58222  34.163  39.326   0.620
92996W        W58223  30.903  17.896  13.448
92997W        W58224   5.779  14.095   4.320
92998W        W58225  44.679  28.601   2.613
92999W        W58226  42.354  43.995   4.606
93000W        W58227  42.538  28.764  11.116
93001W        W58228  42.327  16.619  14.912
93002W        W58229   8.428  31.212  13.252
93003W        W58230   9.823   8.814  12.452
93004W        W58231  34.617   4.687  12.834
93005W        W58232  35.399  41.257  13.059
93006W        W58233  40.232   6.159   2.657
93007W        W58234  37.974  34.136   3.226
93008W        W58235  10.265  31.903  14.399
93009W        W58236  33.743  14.623   2.271
93010W        W58237   3.975  32.056  12.924
93011W        W58238  29.376  25.997  12.458
93012W        W58239  42.815  15.648  14.837
93013W        W58240   3.694   5.378  14.423
93014W        W58241  13.261  13.088  13.221
93015W        W58242  18.764  27.649   0.707
93016W        W58243  17.906  19.605   1.006
93017W        W58244  12.170  13.264  11.679
93018W        W58245  37.440  28.201   1.106
93019W        W58246  32.360   5.430  12.966
93020W        W58247  42.120  42.962   0.725
93021W        W58248  15.761  38.974   1.084
93022W        W58249  29.353  11.733  11.281
93023W        W58250  18.269  21.767  14.012
93024W        W58251  33.799  32.022   4.769
93025W        W58252  17.821  29.551  12.036
93026W        W58253  41.352  41.879  12.429
93027W        W58254  26.854  26.317  12.616
93028W        W58255   6.291  24.537   4.736
93029W        W58256  12.119  27.244   1.677
93030W        W58257   9.675  11.268  12.053
93031W        W58258  18.747   7.640   3.169
93032W        W58259   3.792  18.637   4.472
93033W        W58260  24.468  40.314  11.677
93034W        W58261  24.190  28.684   2.252
93035W        W58262  15.749  33.839   4.583
93036W        W58263  43.417  28.141  11.900
93037W        W58264  36.322  34.857   2.878
93038W        W58265  38.877   7.105  13.494
93039W        W58266  37.316  24.248  13.362
93040W        W58267  34.167   6.208  12.113
93041W        W58268  35.435   7.967  14.459
93042W        W58269  37.405  18.245  11.521
93043W        W58270  14.433  16.101   3.817
93044W        W58271   1.244  39.245   3.814
93045W        W58272  17.960  39.622   1.004
93046W        W58273  35.424  27.232   2.450
93047W        W58274  25.672  36.536  11.217
93048W        W58275  12.319  16.643   3.800
93049W        W58276  10.471  18.255  12.882
93050W        W58277  15.567   4.237  12.105
93051W        W58278  21.632   0.271   2.950
93052W        W58279  17.653  18.534   4.623
93053W        W58280  11.716   7.759  13.002
93054W        W58281   3.334   6.725  12.608
93055W        W58282  43.500  16.061   0.857
93056W        W58283  25.110   4.706   3.816
93057W        W58284  13.868   5.463  13.894
93058W        W58285  10.686  42.866   3.883
93059W        W58286  41.976  17.997  14.941
93060W        W58287  30.461  38.520  11.200
93061W        W58288  21.421  19.834  11.440
93062W        W58289  13.789  42.924   3.746
93063W        W58290  30.533  13.617   0.019
93064W        W58291   5.493  35.023   0.207
93065W        W58292  17.180  36.942   4.620
93066W        W58293  18.438  14.395  10.273
93067W        W58294  30.486  20.924   1.959
93068W        W58295  22.248  40.632  11.272
93069W        W58296  37.257  11.328  12.620
93070W        W58297   2.923  29.091   1.255
93071W        W58298   9.459  24.354  13.003
93072W        W58299   1.445  18.181   1.944
93073W        W58300   3.352   4.710   0.848
93074W        W58301  23.393  34.046   0.564
93075W        W58302  40.523  44.049   4.127
93076W        W58303   1.473  29.642  14.077
93077W        W58304  10.099   9.181  11.479
93078W        W58305  27.515  39.515  11.533
93079W        W58306   5.626  13.905  12.039
93080W        W58307  30.633  29.171  12.881
93081W        W58308  36.296  26.695   2.322
93082W        W58309  11.411   5.136   2.797
93083W        W58310   6.792  21.569   4.842
93084W        W58311   4.030  38.907   1.394
93085W        W58312  39.176  27.279  13.904
93086W        W58313  16.820  28.529   2.594
93087W        W58314  28.162  27.779   2.405
93088W        W58315  10.627  40.010  11.879
93089W        W58316   1.417  21.779  14.593
93090W        W58317  39.590  16.679   1.233
93091W        W58318  24.470   6.094   2.351
93092W        W58319  43.495  30.285  13.012
93093W        W58320   0.103  38.878   2.342
93094W        W58321  32.379   2.496  11.095
93095W        W58322  17.569  36.230  14.255
93096W        W58323  13.324  37.565   4.461
93097W        W58324   3.951   1.777   0.881
93098W        W58325  28.960   3.044   1.360
93099W        W58326   9.139  36.541   1.927
93100W        W58327  35.699   4.224  12.435
93101W        W58328  30.035  12.113   5.167
93102W        W58329  25.193  18.992  11.436
93103W        W58330  21.064  18.180  10.637
93104W        W58331  28.714  38.899  14.215
93105W        W58332  40.120  29.098  13.517
93106W        W58333   1.215   4.357   2.768
93107W        W58334  15.235  23.534   4.567
93108W        W58335  31.465  39.627  12.178
93109W        W58336  39.709   4.854  12.039
93110W        W58337  43.242   8.303  11.818
93111W        W58338  11.772  12.161  11.079
93112W        W58339  27.955  21.533  10.795
93113W        W58340   1.211  13.374  11.176
93114W        W58341  41.276  41.788  11.084
93115W        W58342  40.610  21.729   4.141
93116W        W58343  41.012  38.971   3.603
93117W        W58344  43.468  37.594   0.924
93118W        W58345   5.858  18.841   2.695
93119W        W58346  19.095  31.006  11.154
93120W        W58347  21.608   7.425  14.442
93121W        W58348  15.147  36.592  14.131
93122W        W58349  22.109  25.500  12.977
93123W        W58350   9.028  42.621   0.856
93124W        W58351  19.222   7.438   3.766
93125W        W58352  10.748  25.682   3.299
93126W        W58353  31.574  11.636  14.040
93127W        W58354  20.589  16.730   4.527
93128W        W58355  10.520  18.120   2.831
93129W        W58356  40.604   3.502  12.443
93130W        W58357  18.927  13.040  12.448
93131W        W58358  38.752  37.471  10.898
93132W        W58359  13.375  38.026   1.509
93133W        W58360  21.303   5.403   2.746
93134W        W58361   3.795  29.935  12.544
93135W        W58362  40.202  40.243   4.170
93136W        W58363  31.492  39.017   4.127
93137W        W58364  20.882   4.029  10.401
93138W        W58365  35.065  42.496  14.796
93139W        W58366   6.781  18.567  13.426
93140W        W58367  37.806  30.923  13.910
93141W        W58368  39.323   0.598  12.504
93142W        W58369  14.885  24.101   3.128
93143W        W58370  18.284   7.401   0.993
93144W        W58371  23.116   7.377  13.304
93145W        W58372  28.519  31.659   0.476
93146W        W58373  38.357   3.855   1.818
93147W        W58374  23.837   5.867  11.185
93148W        W58375  26.145   4.731  13.569
93149W        W58376   1.181  44.439  12.644
93150W        W58377  44.772   9.313  12.504
93151W        W58378  25.729  21.410  14.553
93152W        W58379  11.392   6.300  10.677
93153W        W58380   9.853  28.332   2.677
93154W        W58381  32.549   2.857   2.747
93155W        W58382  34.986   7.609  11.099
93156W        W58383   1.751  23.947   1.801
93157W        W58384  33.593  29.612   0.611
93158W        W58385  30.970  35.585   1.507
93159W        W58386   5.934  38.158   0.087
93160W        W58387   6.334  30.653   3.895
93161W        W58388  32.871   7.890  12.243
93162W        W58389  30.583  22.491  13.514
93163W        W58390  44.890  40.656   4.832
93164W        W58391   4.790  10.241   1.501
93165W        W58392  42.977   8.284   4.124
93166W        W58393  29.199  23.224   1.889
93167W        W58394  36.468  38.535  10.624
93168W        W58395  36.671  17.101  13.396
93169W        W58396   9.732   1.616  13.945
93170W        W58397   6.237  42.329   0.850
93171W        W58398  38.936  10.483   1.374
93172W        W58399  36.307  16.539   1.851
93173W        W58400   1.417  26.651   0.361
93174W        W58401  38.043   7.138  14.537
93175W        W58402  24.662   6.957  14.452
93176W        W58403   0.211  16.937  12.074
93177W        W58404  43.759  20.744  13.350
93178W        W58405  18.605  36.328  14.787
93179W        W58406  35.472  21.751  11.623
93180W        W58407  14.546  33.518   0.965
93181W        W58408  31.952  20.515  12.944
93182W        W58409   6.194  14.674  13.035
93183W        W58410   0.158  40.571  10.694
93184W        W58411  41.945  21.572   1.735
93185W        W58412  15.270  13.751  10.729
93186W        W58413   7.259  18.762   2.326
93187W        W58414  27.668  38.279  14.926
93188W        W58415  28.428   4.365   2.885
93189W        W58416  24.220   7.062  11.932
93190W        W58417  41.383  27.039   0.704
93191W        W58418  37.988   4.469  13.792
93192W        W58419  15.851  14.659   3.205
93193W        W58420  36.507  32.436   4.665
93194W        W58421  21.033  32.847   0.212
93195W        W58422  31.065  44.216   2.748
93196W        W58423  20.529  26.803  12.698
93197W        W58424   9.140   9.414   3.801
93198W        W58425  32.969  25.124  14.892
93199W        W58426  16.125  18.062  14.311
93200W        W58427  14.287  27.827  11.601
93201W        W58428  23.593   5.682  10.764
93202W        W58429   7.299   4.642   4.471
93203W        W58430   2.436  17.685  10.568
93204W        W58431  17.794  13.372  13.135
93205W        W58432  41.875  33.895  10.835
93206W        W58433  32.054   2.492   1.898
93207W        W58434  13.070   8.381  12.811
93208W        W58435  22.668  19.449  10.217
93209W        W58436  19.736  38.922  12.519
93210W        W58437  44.212  30.965  14.714
93211W        W58438  17.371  27.293  14.459
93212W        W58439  16.809  35.048  13.939
93213W        W58440  25.076  39.031  13.212
93214W        W58441  39.129  24.272   0.840
93215W        W58442  41.964  43.146   4.632
93216W        W58443   2.972  21.466   0.775
93217W        W58444   2.823  23.292   0.342
93218W        W58445  37.986  16.833   0.794
93219W        W58446  19.718   0.087  13.902
93220W        W58447   3.409  41.974   1.236
93221W        W58448  23.990  30.103   3.632
93222W        W58449  31.566   3.425  13.110
93223W        W58450   8.875  31.064  12.993
93224W        W58451  13.083  25.837  14.024
93225W        W58452  41.739  29.986  12.081
93226W        W58453  25.627   5.552  12.866
93227W        W58454  15.161   5.640   0.701
93228W        W58455  20.603  32.333   2.685
93229W        W58456   7.832  33.515  11.248
93230W        W58457  44.442  31.886  14.231
93231W        W58458  29.211   8.692  10.810
93232W        W58459  16.154  25.245   1.249
93233W        W58460  43.544  22.427   5.748
93234W        W58461  20.189  40.074  14.837
93235W        W58462  20.763  15.323  10.648
93236W        W58463   7.344  37.435   4.068
93237W        W58464  22.476  34.467   2.333
93238W        W58465  12.795  37.036   0.750
93239W        W58466  17.788  22.353  13.051
93240W        W58467  25.052  42.676  12.451
93241W        W58468  26.276   3.892  12.306
93242W        W58469  38.807  10.860   0.996
93243W        W58470  15.341  19.770  14.905
93244W        W58471   4.366   7.508  14.367
93245W        W58472  36.679  29.040  13.850
93246W        W58473  10.355  20.563   0.709
93247W        W58474  12.775  17.274  10.408
93248W        W58475   0.330  10.496   0.936
93249W        W58476  30.544  15.557  14.986
93250W        W58477  20.256  11.388   4.593
93251W        W58478  22.722  12.224  13.597
93252W        W58479  32.647   5.548   2.344
93253W        W58480  14.599  41.933   2.403
93254W        W58481   4.606  11.921   2.821
93255W        W58482   6.699  23.702   2.249
93256W        W58483   2.071  18.070  11.161
93257W        W58484   3.865  37.565  13.057
93258W        W58485  11.870  14.858   4.996
93259W        W58486  18.837  39.770  10.564
93260W        W58487  40.110  40.729   4.082
93261W        W58488   2.344  24.705  13.528
93262W        W58489  33.132   5.384   2.261
93263W        W58490  28.670  40.332   0.960
93264W        W58491   3.920  43.325  11.900
93265W        W58492  31.369  17.586  14.786
93266W        W58493  17.476   8.671   1.242
93267W        W58494  21.051   1.582  14.129
93268W        W58495  43.755  23.499  14.832
93269W        W58496  32.589  11.383   1.388
93270W        W58497  14.051  21.036   4.951
93271W        W58498  23.635  25.492   2.721
93272W        W58499  10.816  27.164   4.398
93273W        W58500  31.131  32.444   1.191
93274W        W58501  23.970  16.206   1.379
93275W        W58502  19.980   9.835  10.788
93276W        W58503  31.854  11.152   0.896
93277W        W58504   6.235   0.513   0.928
93278W        W58505   3.782   2.199   3.101
93279W        W58506   5.088  42.709   3.195
93280W        W58507  18.994  44.614  13.754
93281W        W58508  27.938  31.919  10.290
93282W        W58509  14.679   0.793   0.420
93283W        W58510   4.443  29.898  10.899
93284W        W58511  38.083  17.271   4.085
93285W        W58512  15.565  44.481  14.298
93286W        W58513  20.016  11.284   0.341
93287W        W58514  13.669   0.937   0.282
93288W        W58515   6.264   9.363  13.359
93289W        W58516  41.407  31.854  13.592
93290W        W58517  21.166  20.465  14.857
93291W        W58518  22.304  31.885   4.593
93292W        W58519  33.817   9.392   3.219
93293W        W58520  33.016   4.392  12.665
93294W        W58521  15.999  42.940  13.587
93295W        W58522  16.541  23.187   1.294
93296W        W58523  31.878  12.664   2.811
93297W        W58524  41.809  24.655   2.382
93298W        W58525  24.264  19.803  10.626
93299W        W58526   0.649   7.927   2.220
93300W        W58527  23.650  15.352  13.251
93301W        W58528  20.052  39.810  13.906
93302W        W58529  15.838  29.738   4.198
93303W        W58530  16.300  43.888  11.309
93304W        W58531  43.417  39.459   2.402
93305W        W58532   9.653  36.657   1.882
93306W        W58533  40.682  31.484   3.142
93307W        W58534  22.100  29.368  11.175
93308W        W58535  23.611  31.145   1.237
93309W        W58536  44.319   0.278  13.616
93310W        W58537  39.233  22.240   2.297
93311W        W58538  31.322  20.040   4.675
93312W        W58539  28.108  25.485  14.207
93313W        W58540   3.323  27.563  14.851
93314W        W58541   3.673  32.068  14.651
93315W        W58542   0.285  37.215  12.132
93316W        W58543  20.400  27.715   1.190
93317W        W58544  42.668  44.557  13.601
93318W        W58545  38.736  19.751   2.778
93319W        W58546  24.661  22.938  14.429
93320W        W58547   2.063  37.432  11.981
93321W        W58548   2.281  18.166  10.464
93322W        W58549   2.158  33.283  13.030
93323W        W58550  42.257  13.613   4.286
93324W        W58551  23.459  42.252   2.334
93325W        W58552  22.066  31.032   0.925
93326W        W58553  33.423  24.279   5.062
93327W        W58554   5.743  18.451   3.011
93328W        W58555  39.398  35.588  14.173
93329W        W58556  21.657  35.819  12.684
93330W        W58557   6.240  31.967   0.439
93331W        W58558  26.899  20.886  12.380
93332W        W58559  15.679  37.859   0.060
93333W        W58560   7.269  13.441  14.890
93334W        W58561  17.099  27.225   4.339
93335W        W58562  17.727  42.533  12.794
93336W        W58563  39.879  36.178   0.942
93337W        W58564   0.644   8.940  14.925
93338W        W58565  38.271  27.089   1.801
93339W        W58566  16.139  15.522  11.136
93340W        W58567   6.694  29.734  11.663
93341W        W58568  41.380  22.657  13.904
93342W        W58569  13.188  37.668   0.455
93343W        W58570  17.265  25.785  12.022
93344W        W58571  44.392  44.755   4.461
93345W        W58572  38.810  25.551  12.566
93346W        W58573  15.207   4.849   0.138
93347W        W58574   3.316  24.204   2.020
93348W        W58575   8.219  12.639  12.833
93349W        W58576  32.696  34.575   0.779
93350W        W58577  26.023  44.794   4.649
93351W        W58578  38.964  20.774   4.616
93352W        W58579  23.478   9.430  13.804
93353W        W58580   6.840  24.128   0.482
93354W        W58581   3.051  19.092   4.711
93355W        W58582  41.854  18.059  13.979
93356W        W58583  15.731  24.461   2.774
93357W        W58584  15.082  33.515   0.916
93358W        W58585   1.970  18.727   1.506
93359W        W58586   1.405   5.905   0.296
93360W        W58587   4.424  27.221  12.489
93361W        W58588  25.164  39.395  13.577
93362W        W58589  41.495   8.281   3.454
93363W        W58590   3.585  29.085  10.564
93364W        W58591  13.993  35.666   3.705
93365W        W58592  28.843  27.186   9.458
93366W        W58593  28.153   8.443  11.793
93367W        W58594   4.218  28.572   2.370
93368W        W58595  34.229  34.748  12.437
93369W        W58596   7.452  13.838   1.761
93370W        W58597  35.081  36.039  14.719
93371W        W58598   5.935  36.266   0.336
93372W        W58599  17.649   5.095   3.714
93373W        W58600  44.873  29.517  11.095
93374W        W58601  31.129  17.220  11.605
93375W        W58602  31.104  36.858   0.317
93376W        W58603   7.686   8.592  11.246
93377W        W58604  14.458   3.109   4.768
93378W        W58605  22.251  11.599   1.232
93379W        W58606  12.362  33.374   3.120
93380W        W58607  32.654  32.326   1.425
93381W        W58608   6.080  11.818  11.513
93382W        W58609  23.706  41.713   0.448
93383W        W58610  42.581  16.039   3.845
93384W        W58611  33.827  35.963   1.162
93385W        W58612  31.376   6.414   1.826
93386W        W58613  39.882   6.677   3.298
93387W        W58614  13.633   4.685   4.503
93388W        W58615  30.214  19.455  14.591
93389W        W58616   7.816  41.423  12.444
93390W        W58617  26.999  23.599  12.029
93391W        W58618  24.254  13.535  14.629
93392W        W58619   4.255   8.808   2.375
93393W        W58620  26.754  13.244   4.184
93394W        W58621  17.293  27.742  14.200
93395W        W58622   0.687  38.504  13.036
93396W        W58623  20.584   3.873   0.804
93397W        W58624  34.895  37.045   1.720
93398W        W58625  24.696  30.496  12.833
93399W        W58626  24.565   2.245   2.685
93400W        W58627  23.410  40.908  14.831
93401W        W58628  23.413  31.227   2.442
93402W        W58629  37.016  29.008   4.331
93403W        W58630  18.124  17.150  14.087
93404W        W58631   4.862  37.137   2.952
93405W        W58632  23.953  17.241   0.765
93406W        W58633   4.371  31.729  14.241
93407W        W58634  37.485   3.771   2.385
93408W        W58635  15.268  10.421  12.979
93409W        W58636  19.136   6.450  13.853
93410W        W58637   4.984  33.680  13.982
93411W        W58638  35.438   8.228  14.936
93412W        W58639  22.468  40.429  12.056
93413W        W58640   6.673  42.003  13.950
93414W        W58641  14.740  38.854  13.692
93415W        W58642  10.571  27.737  10.486
93416W        W58643  14.561  28.802  13.612
93417W        W58644  32.468  37.891   0.065
93418W        W58645  32.114   3.703   4.669
93419W        W58646  23.320  38.559  12.436
93420W        W58647  11.865  39.018   0.366
93421W        W58648   5.853  42.439  13.267
93422W        W58649  23.913  40.842  14.681
93423W        W58650  27.006  22.679   2.872
93424W        W58651  25.569  31.625   0.752
93425W        W58652   6.232  27.943  10.026
93426W        W58653  33.691   7.708   3.295
93427W        W58654  33.491  17.774  10.682
93428W        W58655  11.579  36.968   4.101
93429W        W58656  41.827  19.140   3.441
93430W        W58657  34.795  35.053   1.473
93431W        W58658  39.825   4.837  12.559
93432W        W58659  43.750  32.644   0.410
93433W        W58660  28.121  21.196  14.825
93434W        W58661  36.339  19.129   4.230
93435W        W58662   3.743  13.861  13.965
93436W        W58663   7.897   7.434   2.831
93437W        W58664  28.192   1.291  10.682
93438W        W58665  30.986  25.150   3.148
93439W        W58666  27.875  21.199  12.545
93440W        W58667  13.883   1.601  13.185
93441W        W58668  43.395  11.816  13.069
93442W        W58669   5.001  10.068  14.996
93443W        W58670   8.105  17.456   1.304
93444W        W58671  43.926  27.236   1.398
93445W        W58672  22.555  42.836   2.232
93446W        W58673   7.247  17.553   0.362
93447W        W58674  32.557   6.045   2.433
93448W        W58675   7.303  28.718  12.852
93449W        W58676  11.180  13.079   0.832
93450W        W58677  36.037  13.794  13.458
93451W        W58678  35.581  33.931  13.456
93452W        W58679  34.856  29.644   2.705
93453W        W58680  15.293  32.488   3.677
93454W        W58681  36.582   4.706   0.348
93455W        W58682  40.919  32.886  11.000
93456W        W58683  13.096  14.400   1.087
93457W        W58684  24.976  44.517   3.240
93458W        W58685  34.354  24.585   3.112
93459W        W58686  35.850  40.760  10.670
93460W        W58687  38.849  23.509   0.916
93461W        W58688  15.626  20.346  14.456
93462W        W58689   9.230  38.123  11.565
93463W        W58690   8.186  42.932  10.639
93464W        W58691  28.532   5.037  13.826
93465W        W58692  11.705  40.884  11.920
93466W        W58693  26.076  21.516   2.153
93467W        W58694   4.458  11.422  12.942
93468W        W58695   4.720   7.905   2.666
93469W        W58696  40.485  10.009   4.523
93470W        W58697  19.837  23.995  11.945
93471W        W58698  40.849  41.777  12.340
93472W        W58699   1.255   9.270   4.418
93473W        W58700  42.128  22.424   0.485
93474W        W58701  19.470  33.093  13.347
93475W        W58702  14.523   2.848   3.652
93476W        W58703  24.889   2.422  12.378
93477W        W58704  18.850  17.834   1.272
93478W        W58705  15.379   4.653  10.393
93479W        W58706  41.015  44.292   2.644
93480W        W58707  31.001  27.941  13.023
93481W        W58708  17.236  28.932  11.650
93482W        W58709  36.863  21.210  10.429
93483W        W58710  27.406   3.876   4.630
93484W        W58711   4.310  36.112  12.853
93485W        W58712  16.156  25.289  14.856
93486W        W58713   7.179  12.735  12.967
93487W        W58714  11.786   5.935   1.347
93488W        W58715  19.665   6.147   0.424
93489W        W58716  31.889  38.113  14.907
93490W        W58717  25.052  31.242  12.197
93491W        W58718  39.035  10.217  11.265
93492W        W58719  19.103  13.598  10.782
93493W        W58720  17.191  31.711   0.024
93494W        W58721  26.154  44.462  13.846
93495W        W58722  44.522  31.091  13.754
93496W        W58723  29.348  17.822   2.456
93497W        W58724  39.387   5.563   2.590
93498W        W58725  19.894  27.920   1.322
93499W        W58726  21.261  10.659   1.805
93500W        W58727  16.090   1.691  13.100
93501W        W58728   4.809  19.214   4.702
93502W        W58729  30.583  21.959  13.471
93503W        W58730  17.631  16.498   0.779
93504W        W58731   4.320  14.451   0.090
93505W        W58732  18.073  43.889  14.745
93506W        W58733  40.406   6.452   2.265
93507W        W58734  34.613  27.379   1.369
93508W        W58735  28.166  26.326  13.888
93509W        W58736   2.801  34.356  13.966
93510W        W58737  33.638  39.973  10.956
93511W        W58738  10.360  25.598  11.189
93512W        W58739  25.916   3.652   4.411
93513W        W58740  42.858  32.560   4.032
93514W        W58741  20.083   6.970   0.240
93515W        W58742  36.812   5.352  10.250
93516W        W58743  28.215  28.180  12.578
93517W        W58744  29.426  34.110  10.344
93518W        W58745  37.065   2.527  12.111
93519W        W58746  10.346  28.841  11.162
93520W        W58747  24.256  18.948  11.519
93521W        W58748  40.330   4.366  13.985
93522W        W58749  41.713  23.449  13.457
93523W        W58750  33.535   3.597  11.203
93524W        W58751  16.666  36.839   4.751
93525W        W58752  39.498  38.474  13.074
93526W        W58753  12.047  11.284  11.627
93527W        W58754  12.801  27.724  12.951
93528W        W58755  33.402  37.091  14.969
93529W        W58756  38.745  42.615  14.827
93530W        W58757   1.308  36.251  11.212
93531W        W58758  12.137  40.364  13.468
93532W        W58759  19.862  40.069  13.500
93533W        W58760  38.615  38.973  12.023
93534W        W58761  23.029  28.072   3.344
93535W        W58762   0.294  12.273   1.805
93536W        W58763  37.707  25.563   4.489
93537W        W58764  14.177  22.032   0.226
93538W        W58765  13.260  36.057  11.257
93539W        W58766  42.919   8.788  11.159
93540W        W58767  11.650  33.022  12.638
93541W        W58768  16.537   0.009   4.070
93542W        W58769  15.499  11.828  14.201
93543W        W58770  18.157  14.034  14.878
93544W        W58771   3.758  13.693  13.443
93545W        W58772  39.954  28.763  10.860
93546W        W58773  29.433  37.640   2.654
93547W        W58774  21.294  30.615   4.925
93548W        W58775  14.746  18.026  13.677
93549W        W58776  29.035   2.457   4.541
93550W        W58777  21.631  16.422   0.441
93551W        W58778  41.576  13.746  12.029
93552W        W58779  43.782  26.163   2.358
93553W        W58780  41.490  13.069   0.346
93554W        W58781   2.570  12.620  13.925
93555W        W58782  17.142  37.314  14.951
93556W        W58783   0.627   7.178  10.106
93557W        W58784  28.663  33.155   1.280
93558W        W58785  30.559  38.523   4.001
93559W        W58786   0.778  42.843  13.496
93560W        W58787   6.704  35.594  11.949
93561W        W58788  41.412  21.792   3.200
93562W        W58789  24.033  36.844   0.518
93563W        W58790  28.427  39.088   3.186
93564W        W58791  35.218  29.953  12.109
93565W        W58792  29.166   3.920  11.522
93566W        W58793  30.573   0.743   3.082
93567W        W58794  35.586  43.621  11.906
93568W        W58795  22.482   4.678   1.975
93569W        W58796  42.576   1.903  10.756
93570W        W58797  21.457  42.368  13.455
93571W        W58798  40.137  32.137  12.039
93572W        W58799  43.660  36.853   1.999
93573W        W58800  17.579  33.577   4.464
93574W        W58801   1.923  25.215  12.316
93575W        W58802  26.496  32.085  12.920
93576W        W58803  14.341  16.173  13.565
93577W        W58804  34.179  15.477   1.275
93578W        W58805  16.332   4.424  13.415
93579W        W58806  18.064  12.300  11.539
93580W        W58807  12.858  21.854   4.230
93581W        W58808  38.209   1.490  11.175
93582W        W58809  43.313   6.179   1.939
93583W        W58810  39.774  39.732   3.112
93584W        W58811  32.740  15.214   2.613
93585W        W58812   9.371  20.724  14.671
93586W        W58813  10.366  13.224  11.033
93587W        W58814  15.004   4.251   3.361
93588W        W58815   7.153  12.520  11.205
93589W        W58816  20.007  36.884  13.818
93590W        W58817  31.400   7.119  12.941
93591W        W58818   4.949  27.369  11.107
93592W        W58819  30.908   1.010  11.572
93593W        W58820  31.547  33.459  10.744
93594W        W58821  42.382  30.288   4.284
93595W        W58822  31.943  13.609  14.734
93596W        W58823  43.028  17.239  14.412
93597W        W58824  35.158  38.521   3.414
93598W        W58825  38.077  21.450   2.730
93599W        W58826  37.049  22.719  11.589
93600W        W58827  29.165   0.629   2.730
93601W        W58828  42.131   9.601  11.541
93602W        W58829  32.475  27.562  12.036
93603W        W58830   9.348  24.930   2.915
93604W        W58831  15.136  44.452   0.933
93605W        W58832  35.518  23.061  12.915
93606W        W58833   4.808  40.981   1.639
93607W        W58834  26.681  24.936  10.811
93608W        W58835   6.444  41.470  14.817
93609W        W58836  15.643  19.523  12.494
93610W        W58837  28.723  34.499  11.957
93611W        W58838   9.440   3.495  13.413
93612W        W58839   3.756  31.719  13.477
93613W        W58840  41.450  18.157   3.306
93614W        W58841  41.945   1.469  14.447
93615W        W58842  23.046  24.514  12.980
93616W        W58843  21.731  14.352  12.214
93617W        W58844  44.648   7.505   4.287
93618W        W58845  21.042  23.549  12.077
93619W        W58846  44.516  27.892   2.410
93620W        W58847  26.429  15.629   1.842
93621W        W58848  43.443   6.230   1.422
93622W        W58849  34.998   5.603   4.213
93623W        W58850  16.211  36.813   3.286
93624W        W58851  16.777  30.568   1.249
93625W        W58852  24.284   0.418   3.959
93626W        W58853   3.074  24.755   2.267
93627W        W58854  37.428  13.293  12.355
93628W        W58855  36.256  42.969   2.409
93629W        W58856   9.353  36.050  11.561
93630W        W58857   1.994  17.030   3.704
93631W        W58858   2.764  35.498  12.489
93632W        W58859  41.541  11.208   4.345
93633W        W58860  14.072  27.182  14.569
93634W        W58861   9.824  14.618   1.693
93635W        W58862  10.979  40.364  12.626
93636W        W58863  42.011  41.804   2.261
93637W        W58864  25.129   9.165  10.647
93638W        W58865  30.500   1.923  14.191
93639W        W58866  31.683  17.781   1.879
93640W        W58867   5.205  24.345   3.530
93641W        W58868  29.454  33.558  11.557
93642W        W58869  24.780   5.405  12.876
93643W        W58870  10.929  18.643  13.612
93644W        W58871  32.647  10.424  11.515
93645W        W58872  17.194  23.506  14.634
93646W        W58873  13.136   5.226   3.312
93647W        W58874  34.818   7.395   1.638
93648W        W58875  23.232  27.671   4.120
93649W        W58876  27.223  10.733   0.979
93650W        W58877   5.041  38.291   3.579
93651W        W58878  29.503  16.529  10.749
93652W        W58879  44.869   6.744  13.309
93653W        W58880   4.241  37.692   0.736
93654W        W58881  16.516  28.086   0.952
93655W        W58882  33.642  25.438   4.263
93656W        W58883  17.851  12.108  13.876
93657W        W58884   9.040  17.740  12.001
93658W        W58885   4.404  36.846   3.666
93659W        W58886   7.698  42.855   1.365
93660W        W58887  43.410  40.823   1.724
93661W        W58888  17.826   4.367  14.836
93662W        W58889  35.877  25.887   2.419
93663W        W58890  34.972  12.360   3.887
93664W        W58891  16.066  19.571   4.160
93665W        W58892  33.930   7.523  10.709
93666W        W58893   5.352  40.947  12.023
93667W        W58894  37.106  19.740  11.021
93668W        W58895   2.925   5.291   4.834
93669W        W58896   0.475  13.638   4.835
93670W        W58897  23.425  34.715   3.738
93671W        W58898   8.493  44.475  12.686
93672W        W58899  13.250  12.231   0.619
93673W        W58900  44.344  29.311  11.982
93674W        W58901   8.113  27.105  14.946
93675W        W58902   8.829  26.242   1.466
93676W        W58903   3.331  44.237   3.222
93677W        W58904  42.235  39.587   4.452
93678W        W58905  16.130   9.840  12.069
93679W        W58906   4.995  33.500   9.978
93680W        W58907  41.620  22.173  13.563
93681W        W58908  37.956  41.734   2.381
93682W        W58909   9.924  21.324  10.205
93683W        W58910  17.708  20.479  12.893
93684W        W58911  22.358  11.482   0.750
93685W        W58912  43.575   5.740   1.968
93686W        W58913  34.494  15.298  13.151
93687W        W58914   8.111  32.644   4.069
93688W        W58915  28.157  33.515   0.504
93689W        W58916  24.448  33.979  13.088
93690W        W58917  31.286  14.616   0.637
93691W        W58918  38.556  35.110  13.015
93692W        W58919   1.110  44.771   4.129
93693W        W58920  30.707  30.483  11.959
93694W        W58921  40.537  18.004  14.789
93695W        W58922  20.171  21.799  13.987
93696W        W58923  10.416  41.726   2.711
93697W        W58924  20.239  39.407   1.853
93698W        W58925  31.224  43.874   2.365
93699W        W58926  39.848  37.016  13.352
93700W        W58927   4.885  22.519  13.474
93701W        W58928  44.026  19.777   3.198
93702W        W58929  16.887   9.694   2.508
93703W        W58930  33.679  32.324  12.500
93704W        W58931   0.191  18.550  10.711
93705W        W58932   3.888   9.514   0.576
93706W        W58933  11.257  30.486  14.052
93707W        W58934  27.886  11.272  14.026
93708W        W58935  34.880  11.039   0.043
93709W        W58936  28.174   2.203  14.007
93710W        W58937  31.607   8.288   4.761
93711W        W58938  29.109  39.397  10.424
93712W        W58939  36.396  39.561   4.454
93713W        W58940  23.622  16.915  14.652
93714W        W58941  21.572  11.427  12.146
93715W        W58942  15.188   1.619   4.808
93716W        W58943  32.613   8.752   0.864
93717W        W58944   3.784  44.396  10.480
93718W        W58945  28.345  16.173  14.837
93719W        W58946  31.111  31.156  12.366
93720W        W58947  40.926  25.813   2.851
93721W        W58948  16.537  18.258  14.052
93722W        W58949  29.463  36.334   9.881
93723W        W58950  32.305  16.276  11.329
93724W        W58951  41.534   3.139   5.230
93725W        W58952  17.912  34.364  13.894
93726W        W58953  33.631  20.041  11.731
93727W        W58954  42.335  32.925  13.877
93728W        W58955  14.481   0.288  14.558
93729W        W58956  33.045   5.002  14.344
93730W        W58957  24.722   5.275  14.808
93731W        W58958   3.187  24.173   3.666
93732W        W58959  20.557  42.078   4.530
93733W        W58960  12.927  41.824   0.467
93734W        W58961  35.600  39.765  14.849
93735W        W58962  31.622  38.939   0.251
93736W        W58963   0.694  24.609   3.703
93737W        W58964  16.599  25.007  14.882
93738W        W58965   8.781  40.906   2.434
93739W        W58966  34.806   7.695  14.001
93740W        W58967   7.924  29.033   0.572
93741W        W58968  21.847  15.164   0.024
93742W        W58969  22.996  44.475  14.942
93743W        W58970  31.133   2.481  12.970
93744W        W58971  38.066   1.241   0.833
93745W        W58972  16.585  23.533  10.787
93746W        W58973   2.256  32.634  11.364
93747W        W58974  27.708  11.644  12.765
93748W        W58975   3.416  17.228   5.106
93749W        W58976   1.213  17.335   2.351
93750W        W58977  28.134  36.518  12.984
93751W        W58978  32.147   3.393  10.785
93752W        W58979  14.777  38.393   1.908
93753W        W58980   3.263  15.109   3.134
93754W        W58981  26.547   1.475   2.720
93755W        W58982  27.783  28.902   1.800
93756W        W58983  19.278  29.446  13.970
93757W        W58984  32.647   7.369  14.737
93758W        W58985  33.514  34.066   3.981
93759W        W58986  38.815  23.059   2.425
93760W        W58987  44.341   4.592   0.377
93761W        W58988  40.181  21.186  11.639
93762W        W58989  30.617  41.735   3.758
93763W        W58990  16.990  16.554   4.639
93764W        W58991   8.870  15.830  13.086
93765W        W58992  14.195   5.476   4.533
93766W        W58993  17.604  24.110   0.892
93767W        W58994  28.956  34.764   2.653
93768W        W58995  38.029  35.327   0.809
93769W        W58996  37.372  11.797   5.010
93770W        W58997   8.651  33.911  13.484
93771W        W58998  36.560   0.904  11.005
93772W        W58999  42.902  42.559   1.868
93773W        W59000  37.572   1.142  12.014
93774W        W59001  36.115  38.307  11.458
93775W        W59002  39.419  41.372   4.277
93776W        W59003  14.602  22.986  13.198
93777W        W59004  40.812  36.526  12.560
93778W        W59005  27.314  40.568  13.370
93779W        W59006  31.699  38.265   4.520
93780W        W59007   8.186  31.019   4.673
93781W        W59008  10.366  26.900   4.403
93782W        W59009  17.072  25.237  14.866
93783W        W59010  35.832  24.010   2.425
93784W        W59011  39.871   6.879  10.737
93785W        W59012  15.710  14.604   4.504
93786W        W59013  28.640  24.118  11.423
93787W        W59014  20.441  38.086  14.386
93788W        W59015  21.638  28.178  12.443
93789W        W59016  43.869  19.077   3.317
93790W        W59017  36.236   8.809   3.545
93791W        W59018  17.794  16.707   2.326
93792W        W59019  32.165  21.166   0.907
93793W        W59020  29.101  14.281  14.958
93794W        W59021  10.832  33.569  14.402
93795W        W59022  23.448  27.624  13.438
93796W        W59023  17.621  22.328   1.270
93797W        W59024  40.419  10.509   4.614
93798W        W59025   1.808  18.875   4.872
93799W        W59026  11.753  17.156   0.373
93800W        W59027   1.997  44.045   2.623
93801W        W59028  36.800  20.128  13.833
93802W        W59029  23.951  22.205  12.946
93803W        W59030  36.435   5.911   1.760
93804W        W59031  41.570  28.179   1.682
93805W        W59032  36.991  22.515  14.048
93806W        W59033  33.906  38.899   3.320
93807W        W59034   8.397   1.883  10.845
93808W        W59035  28.651  42.255  12.916
93809W        W59036  32.984  15.335  12.755
93810W        W59037  39.113  34.609   2.901
93811W        W59038  26.972  22.574   2.376
93812W        W59039   5.162  19.697   1.691
93813W        W59040   5.795  41.454  11.069
93814W        W59041   7.597   9.020   3.559
93815W        W59042  37.733  18.343   1.721
93816W        W59043  14.600  27.202   0.380
93817W        W59044  12.483   5.750  13.796
93818W        W59045  21.696  10.130   2.910
93819W        W59046  25.928  35.390   3.235
93820W        W59047  31.565  42.757  14.254
93821W        W59048  18.145  21.245  13.204
93822W        W59049  20.107  21.998  13.473
93823W        W59050  12.825   4.334   1.394
93824W        W59051   4.967  26.638   9.921
93825W        W59052  36.925  15.738  12.944
93826W        W59053   7.378  30.138   2.674
93827W        W59054  13.337  13.306  11.138
93828W        W59055   0.533  18.524   3.696
93829W        W59056  20.179   6.489   1.133
93830W        W59057  13.614  33.452  13.008
93831W        W59058  15.054  17.483   2.806
93832W        W59059   8.674  32.713  10.742
93833W        W59060  19.142  42.044  13.393
93834W        W59061  25.708  43.974  14.086
93835W        W59062   2.567   0.312   2.659
93836W        W59063  23.117  41.614  13.758
93837W        W59064  38.809  22.296  14.473
93838W        W59065   8.890  28.011  12.535
93839W        W59066  39.404  32.108  10.971
93840W        W59067  29.505  40.766   1.439
93841W        W59068  31.532   4.990   2.713
93842W        W59069  21.086  43.034   3.324
93843W        W59070  43.729  26.736  14.459
93844W        W59071  12.323  36.047  10.891
93845W        W59072   1.006  38.878   4.633
93846W        W59073  34.716  16.111   2.844
93847W        W59074   8.369  26.098  12.013
93848W        W59075  14.555   5.795   3.293
93849W        W59076  22.029  30.659  12.357
93850W        W59077   2.865  21.952   0.954
93851W        W59078  39.257  41.351   1.661
93852W        W59079  17.952  27.052   3.256
93853W        W59080   2.351  28.569  14.308
93854W        W59081   9.263  18.026  11.634
93855W        W59082  19.067  10.275  14.356
93856W        W59083   8.725  17.936  10.995
93857W        W59084  37.511  37.801   1.645
93858W        W59085   4.602  44.570   2.991
93859W        W59086   2.064  44.361   3.036
93860W        W59087  36.560  41.461  12.622
93861W        W59088  22.994  44.890   2.772
93862W        W59089  13.078  15.098   2.116
93863W        W59090  10.313   9.892   4.961
93864W        W59091  24.055  42.488  13.425
93865W        W59092  26.394   0.566   2.733
93866W        W59093  36.619  32.391  12.108
93867W        W59094  34.975  15.831   4.067
93868W        W59095  44.340  18.878   3.168
93869W        W59096  36.966   6.250   1.918
93870W        W59097   3.111  44.066  12.537
93871W        W59098  27.105   1.514  13.499
93872W        W59099  15.109  29.190   1.278
93873W        W59100   0.472  25.573  10.476
93874W        W59101  20.834  19.155  12.514
93875W        W59102  10.915  15.452   4.074
93876W        W59103  11.757  18.706  10.401
93877W        W59104  16.347   8.288  13.369
93878W        W59105  43.733  10.293   1.827
93879W        W59106  19.305   1.348   1.417
93880W        W59107  14.824  16.296   1.724
93881W        W59108  28.372  13.480   4.552
93882W        W59109  43.327  27.232  10.027
93883W        W59110  43.218  12.774  12.730
93884W        W59111   2.822  41.543   3.603
93885W        W59112  13.704  38.709   1.165
93886W        W59113   4.143  40.915  12.085
93887W        W59114  11.196  20.227   3.602
93888W        W59115   3.266  37.913  12.121
93889W        W59116  33.097   5.822  11.447
93890W        W59117   0.249  30.981  14.521
93891W        W59118  36.106  22.941   0.777
93892W        W59119   5.990  27.454  12.920
93893W        W59120   7.373  34.729  14.533
93894W        W59121  13.822  11.934   3.203
93895W        W59122  34.671  20.120  11.706
93896W        W59123  29.876  21.410   4.183
93897W        W59124  42.529   6.644   9.945
93898W        W59125  22.737  38.810   2.462
93899W        W59126  16.138  42.414   4.676
93900W        W59127  34.283  41.928  13.846
93901W        W59128  29.091  37.272  14.426
93902W        W59129   8.089  30.626  12.657
93903W        W59130  40.535  23.457   2.731
93904W        W59131   1.094   9.748   3.467
93905W        W59132  13.247  18.247   4.578
93906W        W59133  38.401  16.350   1.230
93907W        W59134   5.679  19.735   1.723
93908W        W59135  27.489  37.100   2.615
93909W        W59136  31.981  14.468   0.738
93910W        W59137  13.862   3.734   1.868
93911W        W59138  23.846  21.656  14.695
93912W        W59139  36.032   8.572   0.706
93913W        W59140  36.180  28.253  13.474
93914W        W59141  35.112  37.357  14.396
93915W        W59142   8.427  43.073  13.108
93916W        W59143  25.188  34.941   3.338
93917W        W59144  30.524  14.567   2.838
93918W        W59145   1.388  24.610  13.282
93919W        W59146   4.421   3.264  14.828
93920W        W59147  18.340  29.493  11.338
93921W        W59148  42.397   0.976   2.716
93922W        W59149  24.476  42.146   3.961
93923W        W59150  12.035   0.280  13.473
93924W        W59151  34.479   6.212   4.043
93925W        W59152   5.453   4.401  12.856
93926W        W59153  19.556  41.318   0.913
93927W        W59154  32.003  31.827  11.593
93928W        W59155   9.428  25.126  12.921
93929W        W59156  21.764  22.249   4.213
93930W        W59157   2.725  44.826   3.572
93931W        W59158   2.928  26.081   2.795
93932W        W59159  13.573  27.108   3.468
93933W        W59160  33.061  35.139  13.827
93934W        W59161  13.638   0.987  14.771
93935W        W59162   3.483  15.223  14.102
93936W        W59163  31.768  35.348  14.852
93937W        W59164  19.481  33.447  12.933
93938W        W59165   1.851  33.089   0.804
93939W        W59166  44.101  30.997  13.059
93940W        W59167  22.287   4.828   4.862
93941W        W59168  25.654  35.363  13.990
93942W        W59169  27.625  31.068  11.404
93943W        W59170  18.703  24.215   0.405
93944W        W59171  20.522  26.295  12.726
93945W        W59172   5.084  41.367   1.986
93946W        W59173  11.820   8.738   1.582
93947W        W59174  28.014   8.739  14.711
93948W        W59175   7.981  28.948  14.928
93949W        W59176  28.784  44.447  12.105
93950W        W59177  41.532  23.053   0.333
93951W        W59178   4.827  42.502   4.506
93952W        W59179   3.750  41.706  10.742
93953W        W59180   2.590  13.163  13.826
93954W        W59181  21.388  19.246   0.694
93955W        W59182  21.695  40.577  13.830
93956W        W59183  10.435   7.814   3.724
93957W        W59184  29.407   0.991  12.942
93958W        W59185  39.011  13.616  12.516
93959W        W59186   6.048  19.128  11.939
93960W        W59187  16.801  28.876  12.434
93961W        W59188  17.175   8.688   2.258
93962W        W59189  10.690  43.054   4.502
93963W        W59190  10.201  26.922   2.958
93964W        W59191  25.308   1.765  10.279
93965W        W59192  30.062  28.881   2.652
93966W        W59193  20.105  26.427   9.988
93967W        W59194  26.521  37.183   4.878
93968W        W59195   0.756  22.356  14.502
93969W        W59196  19.582   0.720   3.091
93970W        W59197  19.703   5.096  14.378
93971W        W59198   6.773  30.098  13.987
93972W        W59199  14.562  39.104   3.737
93973W        W59200   5.408  25.066   0.235
93974W        W59201   2.012  13.098  11.107
93975W        W59202  25.699  37.428   2.327
93976W        W59203  25.684   0.225  14.446
93977W        W59204  27.465  31.653  12.099
93978W        W59205  44.938  29.404  14.984
93979W        W59206  32.345   7.369  13.069
93980W        W59207  21.798  21.825  12.946
93981W        W59208   1.579  29.295  10.606
93982W        W59209  25.851  18.676   0.883
93983W        W59210  44.251  13.257   1.849
93984W        W59211  44.482  29.005   1.213
93985W        W59212   0.974  12.562  11.534
93986W        W59213  13.133  15.093  10.795
93987W        W59214  20.552  40.595   2.843
93988W        W59215  34.358  43.381  12.251
93989W        W59216   8.419  12.496   3.990
93990W        W59217  15.810  13.782   1.928
93991W        W59218  24.123  36.341   3.409
93992W        W59219  30.048  17.044   3.332
93993W        W59220  26.943   7.681   4.885
93994W        W59221  13.097   6.245  11.316
93995W        W59222  20.882  14.348   1.225
93996W        W59223   8.707  33.498   1.734
93997W        W59224  41.889  22.749   1.273
93998W        W59225   1.219  17.559   4.550
93999W        W59226  18.803  44.099   1.482
94000W        W59227  34.727  12.746   4.329
94001W        W59228  31.980   5.916  14.870
94002W        W59229  17.190  35.796  10.225
94003W        W59230  21.468  17.264   4.572
94004W        W59231  17.055   0.006  10.539
94005W        W59232   5.439  41.351   0.218
94006W        W59233   4.075   6.349  12.752
94007W        W59234   0.029  41.879   1.113
94008W        W59235  42.815  31.944  11.604
94009W        W59236  23.024   9.381   0.885
94010W        W59237  13.418  41.341   9.874
94011W        W59238  41.809  18.653  10.685
94012W        W59239  30.947  28.508   5.437
94013W        W59240  42.867  37.501   2.101
94014W        W59241  12.430  38.214   4.472
94015W        W59242   7.642  35.327   3.781
94016W        W59243   3.261  13.799  14.169
94017W        W59244  37.015  11.281   1.814
94018W        W59245  22.651  37.068   1.634
94019W        W59246  21.693  23.957  13.873
94020W        W59247  41.202  24.762   1.758
94021W        W59248  33.912  27.579  13.892
94022W        W59249   6.970  31.049  12.961
94023W        W59250  42.988  35.979   4.612
94024W        W59251  37.039  17.037  12.414
94025W        W59252  10.378   0.945  13.003
94026W        W59253   4.694   2.195   4.651
94027W        W59254  15.534  40.699  12.434
94028W        W59255  43.845  33.162  14.246
94029W        W59256  10.258  13.672   0.839
94030W        W59257  19.550  37.486   3.222
94031W        W59258  40.415  44.774  11.110
94032W        W59259  41.918   0.322   3.858
94033W        W59260  20.063  34.025  12.473
94034W        W59261  22.316   2.019   5.003
94035W        W59262  19.621  17.792   2.304
94036W        W59263  13.317   2.704   4.301
94037W        W59264   1.192   6.112   3.663
94038W        W59265  39.039  21.161  10.078
94039W        W59266  31.514   9.351   0.895
94040W        W59267  27.666  36.842   2.175
94041W        W59268  14.608  17.652  13.350
94042W        W59269  43.409  27.833  10.424
94043W        W59270  15.365  44.694   1.354
94044W        W59271  44.523  28.755  14.399
94045W        W59272  28.989  17.281  13.818
94046W        W59273   3.669   1.379  11.637
94047W        W59274  14.280  15.646   4.514
94048W        W59275   1.869  16.897   3.224
94049W        W59276  25.032  18.368   9.946
94050W        W59277  11.580  33.965  14.082
94051W        W59278  24.776   9.581  13.846
94052W        W59279  13.262   7.617  11.377
94053W        W59280  38.308  37.632   0.634
94054W        W59281   5.249   8.833  10.898
94055W        W59282   3.419  11.207  12.060
94056W        W59283  44.804  10.165  13.029
94057W        W59284   3.563  16.107   0.813
94058W        W59285   0.220  10.868   4.513
94059W        W59286  21.766  30.478  11.947
94060W        W59287  37.429  31.369   0.669
94061W        W59288  43.255  43.191   0.198
94062W        W59289  38.862  12.355   1.972
94063W        W59290  16.884  26.622   1.266
94064W        W59291  31.006  17.398  13.385
94065W        W59292  16.550   2.056  12.329
94066W        W59293  44.361  29.010  11.566
94067W        W59294  24.937   5.728   1.879
94068W        W59295  27.434  20.066  14.474
94069W        W59296   8.371   8.846  13.449
94070W        W59297  30.449  43.988  13.589
94071W        W59298   8.371  22.711   1.816
94072W        W59299  41.312  35.634   2.236
94073W        W59300   6.692   5.875  14.361
94074W        W59301  28.583  40.362  13.167
94075W        W59302  12.784   4.961  13.308
94076W        W59303   2.291  14.055   1.149
94077W        W59304  37.384   0.929  14.045
94078W        W59305  35.713  10.827   0.007
94079W        W59306   6.294  26.176  11.022
94080W        W59307  17.185   4.941  13.691
94081W        W59308  31.704   3.693   1.377
94082W        W59309  26.628  42.479  11.605
94083W        W59310   7.839   9.335   4.505
94084W        W59311  19.627  25.959  14.176
94085W        W59312  35.376   2.221   4.464
94086W        W59313  41.402  14.080  10.669
94087W        W59314  15.203   2.263  14.040
94088W        W59315  20.566  14.179   4.612
94089W        W59316  31.568  24.227   3.476
94090W        W59317  29.475  11.876  10.790
94091W        W59318   4.344  35.052  14.913
94092W        W59319  17.283  15.482  13.462
94093W        W59320  16.779  14.335  14.493
94094W        W59321  10.825  28.615   2.049
94095W        W59322  33.633  38.807   3.736
94096W        W59323  37.609  29.180  10.195
94097W        W59324   5.064  43.620   5.414
94098W        W59325  35.073  42.348  12.024
94099W        W59326   2.263  20.250  13.442
94100W        W59327   6.090  30.358   0.257
94101W        W59328  27.704  10.712  14.331
94102W        W59329  14.174  34.349  12.597
94103W        W59330  11.667  20.678  10.796
94104W        W59331  19.152   9.367   2.355
94105W        W59332  38.817  22.644  12.093
94106W        W59333  41.945  23.862   2.793
94107W        W59334  19.963  29.160   0.939
94108W        W59335  36.000  10.275  11.492
94109W        W59336  20.115  42.849   1.494
94110W        W59337   1.698  29.739  10.361
94111W        W59338   5.755  27.573   1.034
94112W        W59339   5.910  12.896  13.480
94113W        W59340   4.180  26.995  12.048
94114W        W59341  13.211   9.437   0.756
94115W        W59342  10.433  27.872  12.384
94116W        W59343   8.063  31.933  14.251
94117W        W59344  33.279  26.566  10.006
94118W        W59345  12.812  34.658   4.679
94119W        W59346  11.105  10.917  14.932
94120W        W59347   3.763  14.869   3.608
94121W        W59348  13.172  36.622   3.099
94122W        W59349  25.673   6.824   2.324
94123W        W59350  25.704  31.787  10.669
94124W        W59351  11.206  32.687   2.683
94125W        W59352   2.666  12.859   1.612
94126W        W59353  15.743  13.709   4.607
94127W        W59354  17.747  38.394  11.130
94128W        W59355  26.208  27.200   1.242
94129W        W59356   8.141  23.714   1.985
94130W        W59357  26.943  32.883   2.649
94131W        W59358  29.610  19.069   2.397
94132W        W59359   9.213  42.158  13.845
94133W        W59360   0.173   7.426   4.270
94134W        W59361   2.894  11.208  11.364
94135W        W59362  36.817   1.922  10.590
94136W        W59363  34.155  34.379   2.800
94137W        W59364   7.836   6.895   2.874
94138W        W59365  18.200  15.216  14.078
94139W        W59366   0.952  10.999   2.723
94140W        W59367   2.176   6.306  12.874
94141W        W59368  10.940  41.418   4.707
94142W        W59369  22.497   1.146   3.199
94143W        W59370   1.060  23.076  13.978
94144W        W59371  15.652  17.768   0.425
94145W        W59372  41.281  25.860   4.654
94146W        W59373  41.420  11.405   4.787
94147W        W59374  39.867   5.283  12.270
94148W        W59375  44.734   7.986   0.833
94149W        W59376  39.403   7.799   5.165
94150W        W59377  36.748  30.994  14.794
94151W        W59378  25.064  21.100  14.596
94152W        W59379  43.379  37.100   0.055
94153W        W59380  31.485  35.366   3.671
94154W        W59381  40.465  43.798   3.684
94155W        W59382  44.991   3.147  10.517
94156W        W59383  10.633  25.683   2.442
94157W        W59384  39.345  41.976  13.390
94158W        W59385  40.860  22.833  14.460
94159W        W59386  42.975  18.462  11.454
94160W        W59387  33.308  31.478   2.925
94161W        W59388   3.786  26.595  12.190
94162W        W59389   1.780  22.010   4.176
94163W        W59390  37.884  27.948  12.076
94164W        W59391   5.238  37.055   3.284
94165W        W59392  16.300  20.771  10.921
94166W        W59393  25.787  21.374   0.256
94167W        W59394  19.328  37.794   1.639
94168W        W59395  16.167  24.541   3.595
94169W        W59396  24.812   5.896   0.917
94170W        W59397  17.796  11.540   4.476
94171W        W59398  17.827  41.273   2.220
94172W        W59399  18.783  36.702  13.899
94173W        W59400  25.345  24.695   0.788
94174W        W59401  38.748  31.459  11.197
94175W        W59402  14.625  33.764   2.852
94176W        W59403  41.264  35.780  14.002
94177W        W59404  19.164  28.383   1.570
94178W        W59405   3.255  30.607  10.320
94179W        W59406   2.892  19.620   2.138
94180W        W59407   1.250   2.783  14.976
94181W        W59408   6.948  29.115  12.930
94182W        W59409  21.209   6.382  11.556
94183W        W59410   5.924   3.821  11.825
94184W        W59411  31.413   2.809   2.821
94185W        W59412  21.255  15.178   2.873
94186W        W59413  22.713  14.466  10.121
94187W        W59414  13.715  29.061   0.225
94188W        W59415  15.285  28.142  12.513
94189W        W59416  29.859   6.189   2.950
94190W        W59417  40.560  12.557  13.283
94191W        W59418  15.067  32.688  12.440
94192W        W59419  29.496   3.190  12.637
94193W        W59420  20.456  44.654   2.200
94194W        W59421  37.196  11.829  11.584
94195W        W59422  21.130  23.921  11.075
94196W        W59423   1.993  18.675   3.837
94197W        W59424   4.517  41.608   2.445
94198W        W59425  32.974  29.058   1.013
94199W        W59426  38.758  22.812  14.322
94200W        W59427  24.584  27.548   3.389
94201W        W59428  35.965  22.703  14.010
94202W        W59429  10.220  29.415  12.969
94203W        W59430  28.063  37.618  12.925
94204W        W59431   7.148  23.026   1.378
94205W        W59432  32.859  22.349  10.684
94206W        W59433  34.104   4.147  11.009
94207W        W59434   4.465  16.365  13.669
94208W        W59435  19.556  37.354  14.828
94209W        W59436  17.615   1.288  13.903
94210W        W59437  34.165   0.938   1.532
94211W        W59438  10.759  13.923   0.851
94212W        W59439   5.662  37.513   0.516
94213W        W59440  35.913  43.563   1.293
94214W        W59441  16.133  36.561  13.112
94215W        W59442  10.339   5.931   0.531
94216W        W59443  40.729  28.474   0.428
94217W        W59444   4.349  37.520  14.881
94218W        W59445  14.612  37.006  12.902
94219W        W59446  18.846  38.370   3.685
94220W        W59447  16.937   0.342  14.360
94221W        W59448  24.237  44.969  12.530
94222W        W59449  25.450  43.810   0.332
94223W        W59450   5.436  14.552  11.100
94224W        W59451   9.887   6.339   3.373
94225W        W59452  41.657  39.452   3.195
94226W        W59453  37.951  31.381   0.691
94227W        W59454   2.737   7.111   3.939
94228W        W59455  15.744  42.461  12.369
94229W        W59456  23.949  31.646  11.915
94230W        W59457   1.479  35.986  12.921
94231W        W59458  30.697  24.557  11.587
94232W        W59459  32.930  10.348   4.089
94233W        W59460  32.414  21.090  11.626
94234W        W59461  42.648  16.163  12.514
94235W        W59462  31.762  42.097  13.054
94236W        W59463  29.721  14.891   3.563
94237W        W59464  32.974  28.658  14.718
94238W        W59465  33.849  27.460  12.017
94239W        W59466  30.213  42.832  10.400
94240W        W59467  34.004  26.480  14.971
94241W        W59468  22.926  14.557   3.677
94242W        W59469  28.974  39.989   4.183
94243W        W59470   0.357  15.933   3.591
94244W        W59471  24.319   1.594   4.910
94245W        W59472  43.847  44.459  10.656
94246W        W59473  17.025  11.693  11.952
94247W        W59474   9.989  39.964   3.274
94248W        W59475   7.205  31.397   4.163
94249W        W59476  32.994   3.208   2.731
94250W        W59477   3.417   2.269  12.363
94251W        W59478  26.127   1.775  10.883
94252W        W59479   9.600  44.386  14.875
94253W        W59480  40.810  10.230   3.344
94254W        W59481  21.883   6.052   2.746
94255W        W59482   5.954  25.565   0.024
94256W        W59483   6.890  36.639   0.245
94257W        W59484  35.582  42.053   3.391
94258W        W59485  44.585  38.502   1.810
94259W        W59486  34.417  41.437   0.560
94260W        W59487   6.936   5.631  13.965
94261W        W59488  29.625   1.734  14.300
94262W        W59489  37.057   5.949   2.918
94263W        W59490   5.517  41.995   3.282
94264W        W59491  18.493  40.258  13.366
94265W        W59492  22.452  36.371  11.570
94266W        W59493  39.655   7.756   5.631
94267W        W59494   3.654   8.706  12.481
94268W        W59495   1.253  24.143  10.764
94269W        W59496  12.793  35.595  12.014
94270W        W59497  42.997   4.128   0.506
94271W        W59498  32.320  34.484   2.140
94272W        W59499  38.036  44.448  14.215
94273W        W59500  18.740  24.168  12.524
94274W        W59501  34.072  33.788  13.167
94275W        W59502  38.182  40.175   3.017
94276W        W59503  22.034  20.370   0.111
94277W        W59504  10.523  30.221  12.887
94278W        W59505  14.487  22.484  12.491
94279W        W59506  15.968  23.462   0.886
94280W        W59507   2.515   2.844   2.227
94281W        W59508  43.937  22.567   2.398
94282W        W59509  40.549  43.330   1.296
94283W        W59510   4.015  30.211  12.133
94284W        W59511  17.366   5.883   1.188
94285W        W59512  12.875  29.622   2.370
94286W        W59513   6.870  39.619   2.884
94287W        W59514  40.505   8.074   3.701
94288W        W59515   7.369  10.328  10.946
94289W        W59516   7.331   3.154   1.978
94290W        W59517   2.754   4.744  10.559
94291W        W59518  11.830  26.652  14.416
94292W        W59519  32.862  14.406   5.302
94293W        W59520  43.310  11.901  10.660
94294W        W59521  39.390   6.403   4.014
94295W        W59522  17.095  44.372   2.822
94296W        W59523   4.399  32.352  10.735
94297W        W59524  27.494   4.288   0.493
94298W        W59525  24.170  34.649  14.044
94299W        W59526  36.954  36.863  14.897
94300W        W59527  20.210   2.304   0.725
94301W        W59528  23.236  25.196  12.065
94302W        W59529  11.824  24.542  11.500
94303W        W59530   8.834  27.553   0.791
94304W        W59531  38.104  31.353  13.895
94305W        W59532  35.540  44.344  11.598
94306W        W59533  26.914  23.516  10.728
94307W        W59534  43.927   9.422   0.132
94308W        W59535  32.005   7.894  13.884
94309W        W59536   0.523   4.411  14.787
94310W        W59537  10.207  37.325   3.671
94311W        W59538   9.343  44.235  14.019
94312W        W59539  31.011  34.823  14.297
94313W        W59540  19.699  32.007  14.865
94314W        W59541   3.264   5.780   2.670
94315W        W59542   7.085   3.764  11.107
94316W        W59543  34.455   0.333  11.070
94317W        W59544  24.243   3.777  14.854
94318W        W59545  11.175  32.872   1.638
94319W        W59546   1.375  33.701   0.030
94320W        W59547   1.822  34.689  13.401
94321W        W59548   7.803   7.370  12.841
94322W        W59549  35.808   8.522  11.286
94323W        W59550  15.358   6.190  13.754
94324W        W59551  14.037  18.332   3.363
94325W        W59552  18.453  22.181  11.178
94326W        W59553  40.207  13.217   4.114
94327W        W59554   2.356  21.558   0.026
94328W        W59555  38.569  10.076   3.722
94329W        W59556  29.263  43.090  12.484
94330W        W59557  18.228  17.551  14.864
94331W        W59558  36.032  13.086  11.315
94332W        W59559  10.240  44.990  14.114
94333W        W59560  17.795   7.397  12.430
94334W        W59561  29.326  13.075   1.693
94335W        W59562  28.183  17.215  11.608
94336W        W59563  21.736  32.606   3.678
94337W        W59564  26.076  41.927  12.548
94338W        W59565  43.751  38.010   0.043
94339W        W59566   3.781   1.182   3.575
94340W        W59567  38.566  14.602  13.070
94341W        W59568  38.962  32.228  11.724
94342W        W59569  23.472  29.015   4.099
94343W        W59570   0.796  44.609  12.960
94344W        W59571  42.386  33.431   2.150
94345W        W59572  36.965  20.240   0.797
94346W        W59573  35.942  13.035  10.351
94347W        W59574  10.199  29.545   4.481
94348W        W59575  12.540  33.931  12.041
94349W        W59576  42.933  32.820   4.477
94350W        W59577  15.167  21.999  11.648
94351W        W59578  35.291  13.507  12.994
94352W        W59579  10.411  44.616   0.043
94353W        W59580   6.394  32.370   5.150
94354W        W59581   2.134  20.713   9.828
94355W        W59582  18.573   2.726  11.130
94356W        W59583  25.629  13.176  11.468
94357W        W59584  35.589  34.156   1.908
94358W        W59585  20.753  31.748   2.836
94359W        W59586   5.814   7.629  11.072
94360W        W59587  16.102  30.636  14.427
94361W        W59588  10.274  38.899   0.945
94362W        W59589  39.094  27.659  12.583
94363W        W59590  41.919  34.661   3.093
94364W        W59591  31.165  16.759   4.541
94365W        W59592  25.110  12.790   2.773
94366W        W59593  35.813  10.256   4.571
94367W        W59594   7.894  35.492   3.309
94368W        W59595  30.364  28.508   1.902
94369W        W59596  34.759  44.508   1.619
94370W        W59597  26.455  10.725   1.449
94371W        W59598  31.741  31.659   5.646
94372W        W59599   0.658   3.898  12.782
94373W        W59600   7.450  32.653  11.404
94374W        W59601  20.202  17.849   2.808
94375W        W59602  37.423  35.966   0.915
94376W        W59603  26.626  30.824  14.011
94377W        W59604   1.497   2.947  12.975
94378W        W59605  43.530  13.364   4.038
94379W        W59606  26.574  15.277  13.374
94380W        W59607  17.779  16.091  13.374
94381W        W59608  38.526   0.625  12.947
94382W        W59609  27.895  13.888   4.207
94383W        W59610  25.427  43.885  14.610
94384W        W59611  44.746  40.257  10.653
94385W        W59612  20.152  11.110  11.164
94386W        W59613  42.514  15.785   2.368
94387W        W59614   5.201  38.823   3.090
94388W        W59615  43.361  43.836   1.504
94389W        W59616  31.030  24.773  13.081
94390W        W59617  13.239  13.775  13.423
94391W        W59618  40.252   0.931  11.594
94392W        W59619  14.690  19.134   0.734
94393W        W59620  17.445  18.531  10.690
94394W        W59621   0.962  25.654   1.200
94395W        W59622  43.376  32.407   4.106
94396W        W59623  44.196  40.329   4.870
94397W        W59624   7.018  21.187   1.730
94398W        W59625   7.259   5.027   4.840
94399W        W59626  42.702  14.361  11.119
94400W        W59627  39.109   9.205   4.125
94401W        W59628   2.064  19.790   0.432
94402W        W59629  38.433  11.337   1.500
94403W        W59630  27.535   7.265  14.536
94404W        W59631  35.449  23.991  10.938
94405W        W59632  40.652  13.744   0.985
94406W        W59633  18.695  44.729   3.291
94407W        W59634  18.553   0.568   2.399
94408W        W59635  44.968  28.486  13.510
94409W        W59636  37.005  22.089  10.817
94410W        W59637  10.428  31.164  12.758
94411W        W59638  31.914  39.887  10.362
94412W        W59639  34.920   4.794   1.695
94413W        W59640  18.268  40.470  12.001
94414W        W59641  44.724  41.874   4.394
94415W        W59642  44.703  36.608   4.545
94416W        W59643  17.185  41.702   2.187
94417W        W59644  32.449  16.630  13.342
94418W        W59645  10.905  37.986  14.710
94419W        W59646  33.516  14.574  12.319
94420W        W59647  44.440  34.297   5.088
94421W        W59648   3.749  27.702   1.658
94422W        W59649  10.337   1.653   2.734
94423W        W59650  25.207  14.779  12.634
94424W        W59651   1.383  21.116   0.405
94425W        W59652  44.781   7.294  10.794
94426W        W59653  24.363  21.612  12.323
94427W        W59654  16.255   1.957   1.432
94428W        W59655  20.987  10.169   0.438
94429W        W59656  44.110  33.208  13.782
94430W        W59657  18.720  44.334  12.957
94431W        W59658  22.727  10.100   4.196
94432W        W59659  32.321  15.281  12.977
94433W        W59660  36.083  14.188   3.431
94434W        W59661  33.108   5.059  10.961
94435W        W59662  21.547  36.542  11.818
94436W        W59663  33.312  44.489  11.298
94437W        W59664  44.902  22.050  14.051
94438W        W59665   8.343   5.760  13.695
94439W        W59666  32.599  19.673  11.099
94440W        W59667  16.737   1.452  14.258
94441W        W59668  14.356  31.659   4.655
94442W        W59669  23.285  23.196  12.904
94443W        W59670  29.565  21.997  12.953
94444W        W59671  40.425  11.470  12.873
94445W        W59672  43.711  30.472   0.688
94446W        W59673  32.531  30.908  14.884
94447W        W59674  19.500  13.634  12.461
94448W        W59675  15.642  18.779  13.212
94449W        W59676  43.525  20.647   2.354
94450W        W59677   9.342  39.995  13.457
94451W        W59678   3.182  41.687   4.279
94452W        W59679  35.193  26.465  10.527
94453W        W59680  25.727  17.775  11.183
94454W        W59681   4.706  16.659   4.643
94455W        W59682  11.479  16.838  11.173
94456W        W59683   3.275  23.616   4.045
94457W        W59684  29.222  19.237  13.037
94458W        W59685  11.309  13.309   1.289
94459W        W59686  19.658  13.226   4.816
94460W        W59687  12.398  39.512   0.667
94461W        W59688  13.661  26.570  14.065
94462W        W59689  19.449  27.353  14.909
94463W        W59690  14.977   3.399  12.881
94464W        W59691   4.922  17.318   1.765
94465W        W59692   3.373  37.120  14.827
94466W        W59693  41.797  34.196  12.054
94467W        W59694  27.567  43.812   4.470
94468W        W59695  12.562  38.899  14.017
94469W        W59696   7.571  39.060   4.059
94470W        W59697  19.209  11.187  12.684
94471W        W59698   9.612  11.867   3.691
94472W        W59699   0.320   2.373  13.888
94473W        W59700  21.025   1.930   0.797
94474W        W59701  30.472   2.095  14.671
94475W        W59702  18.160  28.974   4.672
94476W        W59703   8.876  28.065  14.490
94477W        W59704  13.186  35.452   2.356
94478W        W59705  20.080  37.504  13.129
94479W        W59706  22.669  24.680   0.924
94480W        W59707  39.325  37.072  11.387
94481W        W59708   1.618  17.731   1.154
94482W        W59709  12.896  22.933  12.039
94483W        W59710  32.767   6.195   0.795
94484W        W59711  35.383  12.616   4.819
94485W        W59712  36.765  16.692   2.578
94486W        W59713  29.622  31.255  14.797
94487W        W59714  18.200   3.744   1.296
94488W        W59715  22.846   6.820   4.881
94489W        W59716   9.828  42.848   4.436
94490W        W59717  24.790  26.157   1.202
94491W        W59718   7.175  28.018   3.941
94492W        W59719  12.128  31.963   3.520
94493W        W59720  34.304  43.864  11.454
94494W        W59721  42.853   5.784   4.782
94495W        W59722  28.111  25.626   1.148
94496W        W59723  40.455  15.903   4.871
94497W        W59724  26.062  24.889  11.952
94498W        W59725  39.803  17.727   4.404
94499W        W59726   0.961  36.011  12.983
94500W        W59727  31.579  28.038  12.294
94501W        W59728   3.145  23.078  11.073
94502W        W59729   4.444  39.428  11.516
94503W        W59730  15.884   1.065  11.627
94504W        W59731  21.731  10.168  11.579
94505W        W59732  43.192  15.784   4.856
94506W        W59733  30.544  32.394   4.092
94507W        W59734  36.000  20.131  10.681
94508W        W59735  18.282  11.215  11.182
94509W        W59736  28.215  15.076   2.444
94510W        W59737  28.939  17.603  11.659
94511W        W59738  15.171  31.495   0.354
94512W        W59739   1.141   7.361   3.190
94513W        W59740   1.950   7.700   4.655
94514W        W59741  30.012  29.443   3.147
94515W        W59742  18.903   0.973  14.766
94516W        W59743  18.483   9.423   0.834
94517W        W59744  21.991  27.378  13.288
94518W        W59745   2.592  41.288   4.984
94519W        W59746  22.462  31.430   0.772
94520W        W59747  22.446  43.501   1.933
94521W        W59748  32.953   2.479   0.131
94522W        W59749  24.239  12.825  13.077
94523W        W59750  36.347  13.822   0.918
94524W        W59751  35.580  28.442  14.312
94525W        W59752  34.340  10.244  14.837
94526W        W59753  16.552  23.025  10.856
94527W        W59754  27.222  16.195  11.267
94528W        W59755  30.103  16.079   2.362
94529W        W59756  24.542  28.927  14.105
94530W        W59757  28.444  23.768  14.317
94531W        W59758  26.862  22.767  13.979
94532W        W59759  26.997  11.747  11.168
94533W        W59760  15.218  35.489  11.126
94534W        W59761   0.218  10.391   1.913
94535W        W59762  44.965   2.976   1.274
94536W        W59763  21.279   9.418   1.187
94537W        W59764  31.625   1.259   1.831
94538W        W59765  12.405  12.889  12.983
94539W        W59766  41.627  33.819  11.429
94540W        W59767  22.893  32.365   2.373
94541W        W59768  22.700  25.919  12.516
94542W        W59769   2.900  29.989   1.088
94543W        W59770  31.865  31.920  13.413
94544W        W59771  38.602  22.957   3.723
94545W        W59772  32.410  20.297  11.235
94546W        W59773   9.319  27.584  14.972
94547W        W59774  16.602   2.512  13.335
94548W        W59775   2.645  10.775  14.882
94549W        W59776   1.406  11.166  13.971
94550W        W59777  20.439   0.436   4.991
94551W        W59778  17.780  12.254  12.944
94552W        W59779  30.498  25.950   5.520
94553W        W59780  20.253  22.502  13.585
94554W        W59781  11.124  29.860   0.299
94555W        W59782  21.337  39.948   2.101
94556W        W59783  14.191  20.537  14.261
94557W        W59784  36.418  35.438   1.354
94558W        W59785  39.292  28.464   0.059
94559W        W59786  24.578  30.870   0.364
94560W        W59787  33.353  30.147  14.546
94561W        W59788  40.958  25.759   0.619
94562W        W59789  29.401  34.049   4.683
94563W        W59790  27.530   8.122  11.932
94564W        W59791  39.996   3.326  13.573
94565W        W59792  31.674  11.088  11.001
94566W        W59793  33.060  15.272  14.236
94567W        W59794  33.615  15.589  13.188
94568W        W59795  14.815  39.873  12.016
94569W        W59796  12.845   7.155   1.349
94570W        W59797  31.527   4.748   2.248
94571W        W59798  17.695  31.425   4.101
94572W        W59799  24.108   3.471   5.137
94573W        W59800   8.219  20.636   1.766
94574W        W59801  31.061  28.240  10.618
94575W        W59802  42.908  21.134  14.797
94576W        W59803  41.182  36.464  10.622
94577W        W59804   3.944  14.630   4.526
94578W        W59805  13.530  27.912  11.227
94579W        W59806   2.024  43.411   0.155
94580W        W59807   0.248  22.648   0.824
94581W        W59808  23.134   9.715   3.399
94582W        W59809   5.803  27.193  11.615
94583W        W59810  20.462  24.899   3.059
94584W        W59811  19.080  16.336  13.063
94585W        W59812   3.878  11.578  10.327
94586W        W59813  14.478  21.086  13.402
94587W        W59814  25.615  37.522   1.262
94588W        W59815   8.234  32.040  12.319
94589W        W59816   8.702  15.284  11.510
94590W        W59817  33.511  38.671  14.801
94591W        W59818  16.418  24.846  11.990
94592W        W59819  21.568  39.381   2.111
94593W        W59820   7.345  34.151   1.058
94594W        W59821  24.229  30.722   2.754
94595W        W59822  22.634  43.855  11.203
94596W        W59823   8.372  18.523  13.278
94597W        W59824   6.978  29.014   2.209
94598W        W59825  28.904  33.704  13.968
94599W        W59826  12.373  32.891   3.582
94600W        W59827  21.051  41.367   4.103
94601W        W59828  24.651  21.953  12.971
94602W        W59829  27.237   4.417   0.904
94603W        W59830  29.862  25.977  14.356
94604W        W59831  23.561   6.512  13.192
94605W        W59832  12.310   6.492  10.756
94606W        W59833  16.332  37.324   4.631
94607W        W59834   0.193  40.296  13.512
94608W        W59835  34.578  14.173   3.766
94609W        W59836   7.272  13.602   0.838
94610W        W59837  13.580  40.539   4.129
94611W        W59838  38.745  36.017   1.813
94612W        W59839   9.371  37.776  13.175
94613W        W59840   4.990  28.045   2.608
94614W        W59841  13.247   1.803   0.440
94615W        W59842   9.534  39.752   3.256
94616W        W59843  22.129  30.704  12.859
94617W        W59844  39.389  38.993  11.494
94618W        W59845   3.269  28.718   4.040
94619W        W59846  18.868   3.081  10.875
94620W        W59847  18.853  33.010   4.436
94621W        W59848  26.497  44.773  14.569
94622W        W59849  33.627  20.530   3.710
94623W        W59850  14.339  26.002  11.970
94624W        W59851   8.654  36.923  11.899
94625W        W59852  43.087   5.957  14.871
94626W        W59853   3.231  31.648   0.378
94627W        W59854  42.977  11.117   2.830
94628W        W59855  38.322  31.718   1.524
94629W        W59856  20.054  43.917   0.634
94630W        W59857  11.968  30.460   4.077
94631W        W59858   9.291  20.113   4.165
94632W        W59859  12.208   0.902   3.616
94633W        W59860  25.156  44.003   3.729
94634W        W59861  30.464  36.781  14.417
94635W        W59862  40.507  38.859   0.390
94636W        W59863  30.281  33.790  12.872
94637W        W59864   2.065  36.698   2.875
94638W        W59865  31.485  13.047  12.039
94639W        W59866   1.730  26.946  11.798
94640W        W59867  23.294  22.303   2.281
94641W        W59868   2.697  29.715  13.387
94642W        W59869   6.966  28.681  11.636
94643W        W59870  16.345  21.724   0.275
94644W        W59871   1.135   3.017   4.605
94645W        W59872  16.657  18.275   4.649
94646W        W59873  14.485  32.856   3.581
94647W        W59874  33.451  43.262   0.760
94648W        W59875   4.790  13.792  14.063
94649W        W59876  36.577  29.829  12.191
94650W        W59877  15.354  31.132   2.216
94651W        W59878  29.650  44.187   0.183
94652W        W59879  43.241  17.148  14.886
94653W        W59880   7.682  41.817  11.533
94654W        W59881  20.145  44.417   0.710
94655W        W59882  16.263  38.679   0.857
94656W        W59883   3.681   3.943  14.604
94657W        W59884   1.134  42.313   4.101
94658W        W59885  27.601  23.995   0.965
94659W        W59886  36.639  18.855   2.697
94660W        W59887  16.731  29.145  10.724
94661W        W59888   7.769  28.645   0.265
94662W        W59889   2.534  32.825   2.064
94663W        W59890  30.348  11.800  13.330
94664W        W59891   8.487  26.240  12.615
94665W        W59892   9.819  21.036  11.951
94666W        W59893   2.257  19.602   1.332
94667W        W59894  40.355  44.789   1.191
94668W        W59895  28.501  25.907  13.239
94669W        W59896  34.758   2.182   2.473
94670W        W59897   9.100  44.386  11.077
94671W        W59898  34.800  31.095  11.818
94672W        W59899  29.994  18.211   1.914
94673W        W59900  12.778  43.555  11.707
94674W        W59901  28.614   4.462   1.843
94675W        W59902   4.275  41.421   3.396
94676W        W59903   6.165   7.680  10.249
94677W        W59904  31.593  25.546   0.290
94678W        W59905  16.077  43.030   1.887
94679W        W59906   1.341  12.656  12.398
94680W        W59907  29.039  40.960  13.024
94681W        W59908  37.039  41.243   1.429
94682W        W59909  22.820  32.315   1.794
94683W        W59910  12.899  41.578  12.071
94684W        W59911  44.011   4.137  13.079
94685W        W59912  41.802   2.958  11.190
94686W        W59913   3.908  19.796   0.521
94687W        W59914  18.979  34.293   1.352
94688W        W59915   8.276  44.237  13.087
94689W        W59916  28.962  25.041   3.149
94690W        W59917  38.654   4.303  10.543
94691W        W59918  22.211  31.877   0.905
94692W        W59919   0.943   9.049  10.634
94693W        W59920  12.342  42.812   0.931
94694W        W59921  33.414  33.852   0.887
94695W        W59922  20.696   5.131  10.617
94696W        W59923  11.128  42.068   3.745
94697W        W59924  13.631  43.939   3.751
94698W        W59925  37.520  38.810  14.508
94699W        W59926  31.482  44.008  12.088
94700W        W59927  20.624   8.222   4.511
94701W        W59928  29.983   0.749   1.269
94702W        W59929  44.880  17.766  11.950
94703W        W59930   6.627  18.768   1.948
94704W        W59931  15.357  17.822  12.019
94705W        W59932  39.505  26.581   2.406
94706W        W59933  12.796  38.888   4.957
94707W        W59934  41.431  16.633   2.446
94708W        W59935  24.140   3.877  13.561
94709W        W59936  21.725  10.413   0.304
94710W        W59937   0.389  37.949  10.693
94711W        W59938  42.216  31.982  14.231
94712W        W59939   2.005  25.925   4.445
94713W        W59940  16.711  30.574   0.713
94714W        W59941  20.069  21.145  14.240
94715W        W59942  27.487  25.664   0.459
94716W        W59943  12.839  32.474  12.794
94717W        W59944  17.572  37.892  12.674
94718W        W59945  43.014   2.209   0.295
94719W        W59946   8.244  36.415   4.083
94720W        W59947  34.452  43.671   1.454
94721W        W59948  16.288  20.970   1.155
94722W        W59949  22.535  23.935   1.047
94723W        W59950  16.609  29.134   0.335
94724W        W59951  35.924  40.352  10.980
94725W        W59952   0.773  37.489   1.274
94726W        W59953   5.391  23.665   0.420
94727W        W59954   0.759  19.000  11.252
94728W        W59955  44.395  44.249   4.668
94729W        W59956   6.719  11.667  13.428
94730W        W59957  23.582  30.259   2.199
94731W        W59958  27.582  38.349  13.766
94732W        W59959  20.036  39.064   0.923
94733W        W59960  18.590  35.250   3.941
94734W        W59961  26.689  36.472  11.120
94735W        W59962   1.334  13.132  12.593
94736W        W59963  42.492   8.543  11.052
94737W        W59964  11.859  14.636  11.613
94738W        W59965  24.677   6.693   3.211
94739W        W59966  35.934  29.781  11.537
94740W        W59967  29.678  44.327  13.939
94741W        W59968  44.258   4.361   3.975
94742W        W59969  16.738   1.464  12.917
94743W        W59970  14.214  29.917  11.554
94744W        W59971  36.989  44.707   0.337
94745W        W59972  28.996  26.123  14.522
94746W        W59973  28.812  38.464  13.882
94747W        W59974  12.779  38.896   0.286
94748W        W59975  29.748   5.836  12.847
94749W        W59976  39.906  34.029   1.867
94750W        W59977   8.136  34.520   4.354
94751W        W59978  20.705   3.702   0.326
94752W        W59979  20.048  41.409  14.697
94753W        W59980  31.184   7.016   2.755
94754W        W59981  29.555   5.246   3.940
94755W        W59982  13.559  27.161  10.466
94756W        W59983  35.417  11.339   1.774
94757W        W59984  32.154  29.101  11.052
94758W        W59985  11.637  12.394  10.628
94759W        W59986  15.863  41.638   2.777
94760W        W59987  16.368   0.710  14.030
94761W        W59988  25.490  38.761   0.727
94762W        W59989  44.699  28.140   1.647
94763W        W59990  12.294   0.343   4.356
94764W        W59991  22.616  44.876  10.563
94765W        W59992  43.400  36.386  13.437
94766W        W59993   9.953   6.171   0.929
94767W        W59994  30.550  31.582   2.684
94768W        W59995  20.494   9.725   3.261
94769W        W59996  10.199   3.209   1.277
94770W        W59997  15.614   6.391  12.897
94771W        W59998   9.174  35.554   3.862
94772W        W59999   5.427  37.025  13.743
94773W        W60000  29.922  44.924  11.168
94774W        W60001   0.446  32.881   0.655
94775W        W60002  28.151  21.507   9.963
94776W        W60003  27.062  29.744   0.881
94777W        W60004  31.583  13.905   0.858
94778W        W60005  28.852  25.544   3.289
94779W        W60006  17.320  12.206   4.227
94780W        W60007  26.612  20.024   3.218
94781W        W60008  16.539  38.518  12.932
94782W        W60009  44.246   2.462   1.227
94783W        W60010  23.684   2.852   4.674
94784W        W60011  28.934  15.350   4.519
94785W        W60012  39.788  15.788  13.416
94786W        W60013  37.038  37.386  12.406
94787W        W60014  43.892  15.100  11.044
94788W        W60015   0.895  41.177   0.690
94789W        W60016   5.258  38.007  14.010
94790W        W60017  26.959  33.412  13.007
94791W        W60018  38.496  33.048  11.083
94792W        W60019  40.257  36.300   2.755
94793W        W60020   7.691  37.277  13.514
94794W        W60021  33.291  24.077   3.214
94795W        W60022   6.393  36.312   4.485
94796W        W60023  36.772  41.383  11.863
94797W        W60024  37.801  32.183   4.604
94798W        W60025  38.169  32.842  12.084
94799W        W60026  24.516  34.916   3.703
94800W        W60027   8.305  10.650  13.047
94801W        W60028  38.495  14.247  14.698
94802W        W60029  39.317  44.467  13.842
94803W        W60030  16.170  15.944   0.420
94804W        W60031  34.569  36.604  11.334
94805W        W60032  27.775  34.832   0.287
94806W        W60033  33.554  17.726  13.873
94807W        W60034   8.178   5.434   3.720
94808W        W60035  37.823  36.493  14.546
94809W        W60036  19.741  41.971   2.761
94810W        W60037   5.319  39.116   2.119
94811W        W60038   7.727  41.803  13.843
94812W        W60039  25.745  14.189  10.474
94813W        W60040  37.019  10.856  12.937
94814W        W60041  44.874   8.161  10.633
94815W        W60042  14.101  41.409   4.107
94816W        W60043  35.569   9.316  14.494
94817W        W60044  10.166  30.699  11.606
94818W        W60045  32.590  35.906   2.377
94819W        W60046  11.043  10.167   0.288
94820W        W60047  38.992  27.908   4.247
94821W        W60048  13.393  18.978  11.691
94822W        W60049  44.688  31.911  12.895
94823W        W60050   4.739  41.153   0.253
94824W        W60051  23.713  20.053   1.885
94825W        W60052  23.164  29.495   3.744
94826W        W60053  44.171  29.075   3.231
94827W        W60054   6.742  32.604  11.916
94828W        W60055   3.187  12.409  14.946
94829W        W60056  39.888  13.286  13.118
94830W        W60057   6.349  35.889  13.779
94831W        W60058  14.661  21.358  12.908
94832W        W60059  31.533  43.129   4.022
94833W        W60060  17.636  11.519   2.764
94834W        W60061  24.999  31.389  10.392
94835W        W60062  40.289  36.922   2.160
94836W        W60063  21.993  42.471  11.475
94837W        W60064  37.572  13.767  12.457
94838W        W60065  28.414  26.738   1.171
94839W        W60066  21.916  41.491   0.826
94840W        W60067  29.459   8.583   4.579
94841W        W60068  43.689   5.889  13.775
94842W        W60069  11.809  28.963   4.054
94843W        W60070  21.880   2.954   4.049
94844W        W60071   5.380   6.245  12.934
94845W        W60072   8.762  43.669   1.524
94846W        W60073   8.648  26.455   1.011
94847W        W60074   5.702  26.411   4.674
94848W        W60075  43.689  27.560   5.093
94849W        W60076  25.094  36.274  12.208
94850W        W60077  29.551  36.310   3.197
94851W        W60078   5.929  31.503  11.382
94852W        W60079  22.004  16.153   2.475
94853W        W60080  26.133  37.431  13.497
94854W        W60081  17.549  15.594   2.905
94855W        W60082  26.875  23.606   1.926
94856W        W60083  20.660   9.164  12.349
94857W        W60084  16.057  12.240  14.800
94858W        W60085  25.085  44.842  11.528
94859W        W60086  34.819  21.463  11.917
94860W        W60087  11.303   8.300  10.682
94861W        W60088  23.246  39.090  11.909
94862W        W60089  39.393  21.113   1.952
94863W        W60090   8.940  14.102   4.484
94864W        W60091  21.005  35.099   0.843
94865W        W60092  40.726  10.194   2.840
94866W        W60093  15.829  10.708   1.814
94867W        W60094   6.767   9.604   0.367
94868W        W60095  13.950  41.064  11.088
94869W        W60096  32.354  20.580  10.817
94870W        W60097  37.603  34.428   3.770
94871W        W60098   2.881  29.291  14.690
94872W        W60099  41.611  25.478   4.505
94873W        W60100  40.503  11.874  10.004
94874W        W60101   2.851  38.636   1.801
94875W        W60102  27.746  35.350  11.860
94876W        W60103  29.480  20.012  11.185
94877W        W60104  40.610   1.257  12.164
94878W        W60105  43.348  36.403   4.616
94879W        W60106  27.525  29.676  14.004
94880W        W60107  29.225   5.943   0.812
94881W        W60108  19.519  40.866  14.951
94882W        W60109  11.712  26.375  11.617
94883W        W60110  40.907  13.538   4.589
94884W        W60111  21.694   3.400  14.841
94885W        W60112  10.353   4.825   2.393
94886W        W60113  15.654   2.321  14.290
94887W        W60114  14.279  24.688  14.424
94888W        W60115  15.232  36.960   2.751
94889W        W60116  17.299   0.616  11.722
94890W        W60117  28.004  40.211   4.663
94891W        W60118  22.589  42.711  13.424
94892W        W60119  30.006   9.373   4.836
94893W        W60120  16.821  20.107   3.162
94894W        W60121  39.440  44.415   0.825
94895W        W60122  23.503  11.380   3.685
94896W        W60123  24.793  11.410   1.889
94897W        W60124   4.707  41.800  10.760
94898W        W60125  15.314  10.559  10.799
94899W        W60126  33.096  12.374   4.136
94900W        W60127   7.907  40.012   2.408
94901W        W60128   4.893  32.390  11.971
94902W        W60129   6.009  41.418   2.670
94903W        W60130  14.992   9.300   1.694
94904W        W60131  33.953  30.189  12.321
94905W        W60132  30.372   5.406  13.516
94906W        W60133  25.005  17.292   1.733
94907W        W60134  10.650  22.128   0.823
94908W        W60135  19.882  10.530  11.568
94909W        W60136   2.860  25.467  12.704
94910W        W60137  20.471  34.823   0.031
94911W        W60138   5.971  14.332  11.179
94912W        W60139  33.111  42.363  11.293
94913W        W60140  10.287   3.379   2.887
94914W        W60141  19.665  16.684   4.679
94915W        W60142  24.701  14.379  13.445
94916W        W60143  28.118  43.803   1.167
94917W        W60144  43.574  27.154  14.214
94918W        W60145  33.738   4.110   0.344
94919W        W60146  14.026   4.785   2.344
94920W        W60147  24.683   5.144   1.392
94921W        W60148  39.225  14.821  14.819
94922W        W60149   9.662  31.446  10.533
94923W        W60150   5.665  18.079  10.229
94924W        W60151  19.683  11.151  12.390
94925W        W60152  19.288  11.078  11.364
94926W        W60153   7.797  33.343  13.390
94927W        W60154   1.654  40.490  10.860
94928W        W60155  33.701  40.793  13.377
94929W        W60156  44.318  31.565  12.443
94930W        W60157  44.561   6.921  11.971
94931W        W60158  34.600  14.040   1.874
94932W        W60159  20.072  12.328  10.444
94933W        W60160  20.734   8.345  14.306
94934W        W60161   3.881   6.895  13.398
94935W        W60162  13.701  37.204   5.043
94936W        W60163  43.126  44.448   3.653
94937W        W60164  36.114   6.589   1.392
94938W        W60165  35.015  44.899   4.285
94939W        W60166   5.682  24.686   0.498
94940W        W60167  25.122   7.403   4.421
94941W        W60168  18.401   1.432   2.182
94942W        W60169   3.781  38.820   4.613
94943W        W60170   9.868  32.361  13.919
94944W        W60171  33.296  44.827   0.004
94945W        W60172  15.604   8.831  14.398
94946W        W60173  29.931   4.330  14.812
94947W        W60174  12.440  30.954  13.730
94948W        W60175  25.091  23.668   0.694
94949W        W60176   4.854  24.528   0.517
94950W        W60177  37.733  29.183   5.083
94951W        W60178   0.763  25.839   3.333
94952W        W60179   7.768  34.035   2.598
94953W        W60180  32.196   9.715  13.256
94954W        W60181  40.041   3.296   4.976
94955W        W60182  13.319   7.358  13.796
94956W        W60183  20.723  20.777   2.713
94957W        W60184  43.908  23.121   2.239
94958W        W60185  23.509  26.939  11.409
94959W        W60186  16.537  31.038   2.153
94960W        W60187  31.849  43.057   1.728
94961W        W60188  43.291  17.484   3.280
94962W        W60189   4.445  39.150   2.265
94963W        W60190  15.274  38.293   3.354
94964W        W60191  36.626  43.946   0.993
94965W        W60192  28.920  10.265   3.026
94966W        W60193  41.212   1.542  12.573
94967W        W60194  25.735  12.943   1.414
94968W        W60195   5.718  15.201   4.918
94969W        W60196  28.097   1.106  11.157
94970W        W60197  28.074   8.065   2.139
94971W        W60198   1.826  17.620   3.709
94972W        W60199  41.562  10.017   2.752
94973W        W60200  14.515   4.920  10.679
94974W        W60201  20.189  12.234   1.793
94975W        W60202   7.105  44.882   1.210
94976W        W60203   0.666  15.569   2.759
94977W        W60204  43.794  22.173  14.824
94978W        W60205  40.745  36.581  11.538
94979W        W60206  13.046  44.446   1.793
94980W        W60207   2.506  22.206   3.758
94981W        W60208  13.860  40.516   2.378
94982W        W60209  11.555  25.563  10.566
94983W        W60210  31.527  14.030  13.102
94984W        W60211  35.704  38.567  14.381
94985W        W60212   9.841  35.460  14.093
94986W        W60213  21.031  11.820  10.629
94987W        W60214  11.764  44.691  11.160
94988W        W60215   4.964  18.382   3.401
94989W        W60216  15.878  22.905  12.978
94990W        W60217  14.602  34.642  12.036
94991W        W60218   5.459   6.730   4.944
94992W        W60219  35.367  36.975   2.779
94993W        W60220  34.939   3.358   3.807
94994W        W60221  42.471  21.472   9.476
94995W        W60222  22.509  40.833  13.997
94996W        W60223  29.277  28.246   5.040
94997W        W60224  36.784   7.691   1.672
94998W        W60225  34.665   1.878  12.477
94999W        W60226   5.737  19.731  12.648
95000W        W60227  21.094  22.916   4.121
95001W        W60228  11.917  20.495   3.931
95002W        W60229   1.977  24.524   3.279
95003W        W60230   3.010  14.098   0.330
95004W        W60231  12.347   0.389  14.104
95005W        W60232  26.467   9.932   1.858
95006W        W60233   3.646   1.604  13.811
95007W        W60234  42.688  19.800  14.975
95008W        W60235  17.303  13.740  14.483
95009W        W60236  16.314   5.268   2.335
95010W        W60237  15.275  25.405   1.247
95011W        W60238   7.636   0.252   1.783
95012W        W60239  30.335  19.060  12.134
95013W        W60240  18.310  39.554   3.247
95014W        W60241   8.277  44.297   1.229
95015W        W60242   9.247  30.914  13.555
95016W        W60243  40.366  18.382  11.366
95017W        W60244   5.934   6.290   0.968
95018W        W60245  37.660  16.118  14.918
95019W        W60246  32.337  34.437  12.183
95020W        W60247  26.457  29.037   1.329
95021W        W60248  21.491  39.268  14.745
95022W        W60249  28.879  27.648   2.951
95023W        W60250  31.810  39.775  11.370
95024W        W60251  34.695  12.388  13.865
95025W        W60252  38.868  17.183  10.797
95026W        W60253  20.081  27.018  10.413
95027W        W60254  27.224  28.344  13.943
95028W        W60255   3.077   1.472   4.429
95029W        W60256  37.801  19.642  12.351
95030W        W60257  27.194  36.075   2.252
95031W        W60258  14.828  35.784  10.235
95032W        W60259  26.459  28.088  13.820
95033W        W60260  20.184  30.708   4.108
95034W        W60261  38.411  23.594  12.147
95035W        W60262  31.112  32.501  11.003
95036W        W60263  28.089  10.678  12.532
95037W        W60264  34.901   3.813  13.497
95038W        W60265  23.703  39.717   0.419
95039W        W60266  20.873  41.011   3.678
95040W        W60267  24.671  25.604  13.464
95041W        W60268  25.172  21.734  11.992
95042W        W60269  33.114  17.033  10.368
95043W        W60270   4.360  41.338  13.462
95044W        W60271  29.536  32.784   1.969
95045W        W60272  19.742   6.621  10.703
95046W        W60273  27.147  42.733  10.747
95047W        W60274   6.453  16.343  14.580
95048W        W60275  25.510   9.224  12.600
95049W        W60276   3.256   0.571  10.159
95050W        W60277  16.136   5.300  12.171
95051W        W60278  25.061  16.090   4.079
95052W        W60279  36.810  22.080  13.086
95053W        W60280   6.152  15.231   3.046
95054W        W60281   3.463  32.199   2.066
95055W        W60282  40.390  23.574   4.369
95056W        W60283  44.813   1.900  12.468
95057W        W60284   4.472  33.523  14.732
95058W        W60285  15.417  30.839  12.559
95059W        W60286  20.983  13.008   3.256
95060W        W60287   0.765  11.975   0.495
95061W        W60288  28.101  36.474   0.886
95062W        W60289  27.433  39.203  12.899
95063W        W60290  36.931  34.072   1.284
95064W        W60291  19.346  28.981   2.171
95065W        W60292  21.295  26.427   4.137
95066W        W60293  37.013  36.215  13.409
95067W        W60294  24.975   8.702   3.057
95068W        W60295  39.291  18.025  12.067
95069W        W60296  40.856  21.363  11.148
95070W        W60297  28.290  20.961   1.223
95071W        W60298  37.808  28.545   0.333
95072W        W60299  13.661  25.320  12.706
95073W        W60300  43.432   9.065  12.435
95074W        W60301  36.977  17.308  14.883
95075W        W60302  19.829   8.839  12.830
95076W        W60303  37.820  26.148  13.352
95077W        W60304  19.121  29.055   0.515
95078W        W60305  15.681   7.818  10.756
95079W        W60306  40.947  25.767  13.645
95080W        W60307  26.676   3.239  13.343
95081W        W60308  12.751  22.285  13.060
95082W        W60309  27.597  32.879  13.016
95083W        W60310   9.995  33.024   9.819
95084W        W60311  38.441  15.710  10.347
95085W        W60312   1.429  35.389   1.888
95086W        W60313  36.440  15.828   2.359
95087W        W60314   0.239  31.503  13.294
95088W        W60315  31.960  38.429   2.218
95089W        W60316  41.000   6.987  12.644
95090W        W60317   5.173  39.618   1.331
95091W        W60318  30.312  17.584   4.964
95092W        W60319  11.929  11.566  12.347
95093W        W60320   8.271  33.143  13.499
95094W        W60321  31.812   9.355   4.388
95095W        W60322  35.904  36.439   3.237
95096W        W60323  32.317  37.415   1.129
95097W        W60324   7.785  16.048   1.683
95098W        W60325  13.521   5.242  14.253
95099W        W60326  41.457   3.218  10.270
95100W        W60327  21.370  36.791  11.052
95101W        W60328  39.034  29.331  10.997
95102W        W60329   3.364   7.928  11.926
95103W        W60330  26.803  34.938   3.187
95104W        W60331  39.472  19.455  10.691
95105W        W60332  11.710  42.045  12.119
95106W        W60333   6.671  15.724   1.071
95107W        W60334   0.384  16.692  13.643
95108W        W60335  38.876  29.970   1.000
95109W        W60336   3.759  28.144  11.998
95110W        W60337   7.111   8.961   3.373
95111W        W60338   0.783  24.537  12.034
95112W        W60339   0.526   6.715  14.095
95113W        W60340   1.253  21.343  12.530
95114W        W60341  26.986  10.289  14.305
95115W        W60342  18.744  40.784  11.521
95116W        W60343  20.214  21.834   4.182
95117W        W60344  33.474   2.127   2.199
95118W        W60345  37.387   1.876   1.527
95119W        W60346  35.786  23.898   3.667
95120W        W60347   8.280   3.647  11.537
95121W        W60348  15.397  19.532  12.954
95122W        W60349  40.900  35.632   4.921
95123W        W60350  43.625  20.584  14.325
95124W        W60351  20.897  42.353   4.253
95125W        W60352   1.141  38.441   3.330
95126W        W60353  15.017   5.364   3.380
95127W        W60354   9.907  39.394  11.379
95128W        W60355  15.934  44.234  11.053
95129W        W60356  31.875  11.802  10.784
95130W        W60357  40.102  19.554  11.270
95131W        W60358   0.546  15.522  12.325
95132W        W60359  35.137   5.264   2.734
95133W        W60360   0.982   5.836  14.951
95134W        W60361  32.596  41.444   2.592
95135W        W60362  21.093  40.624   1.861
95136W        W60363  18.701  43.297   1.871
95137W        W60364  19.824  42.945   5.002
95138W        W60365  42.752  33.972  14.848
95139W        W60366  32.661  25.609   2.719
95140W        W60367  27.502   4.925   3.177
95141W        W60368  23.456  15.196   2.147
95142W        W60369  33.473  26.648   5.230
95143W        W60370  23.880  18.574  11.074
95144W        W60371  35.241  44.691   1.744
95145W        W60372   1.813   2.452   0.330
95146W        W60373  36.537  35.021  14.954
95147W        W60374  41.362  25.804  12.413
95148W        W60375  40.868  26.083   3.758
95149W        W60376  17.883  41.797  13.948
95150W        W60377  13.835   3.665   2.769
95151W        W60378   5.489  21.606  11.336
95152W        W60379   6.667   4.861   1.851
95153W        W60380  17.194  26.424  14.718
95154W        W60381   3.547  17.603   3.283
95155W        W60382  33.784  30.482  14.564
95156W        W60383  36.929  24.852   2.409
95157W        W60384  24.654   3.730  13.586
95158W        W60385   3.088  35.022   2.379
95159W        W60386   3.397   4.213   1.663
95160W        W60387  23.993  38.968  14.020
95161W        W60388  25.360  28.973   1.498
95162W        W60389  17.877  38.303  14.941
95163W        W60390  34.190  23.035  11.616
95164W        W60391   1.347  14.823   4.781
95165W        W60392  17.362  42.543  13.495
95166W        W60393  24.611   9.403  12.440
95167W        W60394  16.304  35.561  10.733
95168W        W60395  15.502  28.689   3.595
95169W        W60396  28.489   3.501  10.557
95170W        W60397  44.426  39.416  10.400
95171W        W60398  25.314  41.107   0.783
95172W        W60399  29.720  10.095  10.820
95173W        W60400   6.455   0.049  10.670
95174W        W60401   6.198  25.951   2.854
95175W        W60402  42.489   7.406  13.468
95176W        W60403   0.569  36.387   2.839
95177W        W60404   9.083  36.965  14.909
95178W        W60405  25.988  29.227   0.572
95179W        W60406   4.322  35.837   2.374
95180W        W60407  26.108   2.709   0.492
95181W        W60408  32.765  20.526   2.952
95182W        W60409  17.714  40.765  10.745
95183W        W60410  18.121  10.083   0.017
95184W        W60411   1.206  35.904   1.129
95185W        W60412   1.364  35.357  12.425
95186W        W60413  20.477   8.109   0.752
95187W        W60414  15.713  10.918  12.420
95188W        W60415  19.223  44.507   0.245
95189W        W60416  21.278  32.596   4.271
95190W        W60417   3.463  16.634  14.800
95191W        W60418   7.847   2.464   3.630
95192W        W60419  17.392  12.915  10.226
95193W        W60420  44.113   0.174  10.306
95194W        W60421   1.765  33.579  14.138
95195W        W60422   2.309  32.109  11.469
95196W        W60423   9.334  26.538   2.762
95197W        W60424  33.335   1.961   1.731
95198W        W60425   9.127  22.575   3.028
95199W        W60426  40.822  29.637  13.372
95200W        W60427  39.405   3.743   4.183
95201W        W60428  14.932  22.088   4.377
95202W        W60429   1.929  42.827   1.452
95203W        W60430  42.698  39.940   3.327
95204W        W60431  26.200  37.930  14.749
95205W        W60432  29.294   6.734   5.074
95206W        W60433  12.448  30.553   2.252
95207W        W60434   9.553  26.620   3.260
95208W        W60435   6.773  31.541   2.870
95209W        W60436  44.046  17.787  14.020
95210W        W60437  34.637  38.503   3.459
95211W        W60438   3.404  18.377   2.030
95212W        W60439  21.572  21.678  12.053
95213W        W60440  13.760  30.469  12.518
95214W        W60441   6.976  36.763   1.369
95215W        W60442  14.591  22.718   1.880
95216W        W60443  40.055  30.812   1.686
95217W        W60444   7.455  40.073   4.044
95218W        W60445  34.625  33.653   1.407
95219W        W60446  21.446  27.960   4.097
95220W        W60447  44.818  26.023   3.660
95221W        W60448  28.588  28.059  13.067
95222W        W60449  15.671   1.305   1.185
95223W        W60450  16.533  32.449  11.130
95224W        W60451  36.750  10.378   4.028
95225W        W60452  29.129  26.105   2.580
95226W        W60453   0.004  34.514  11.590
95227W        W60454  10.795   3.354   2.300
95228W        W60455  30.085  29.893   2.908
95229W        W60456  21.737  44.651   1.591
95230W        W60457  23.997   7.150   3.680
95231W        W60458  11.883   6.775  13.797
95232W        W60459  23.192   4.020  10.645
95233W        W60460   0.758  15.073   4.047
95234W        W60461  28.599   6.220   3.299
95235W        W60462  18.261   9.433  12.620
95236W        W60463   6.596  10.132   2.150
95237W        W60464  17.118  18.088   1.395
95238W        W60465  13.005   8.359  11.046
95239W        W60466  28.547  40.354   2.017
95240W        W60467  21.623  38.459   4.697
95241W        W60468  17.879  30.184  12.564
95242W        W60469  32.558  14.757  12.107
95243W        W60470   3.039   1.977   2.010
95244W        W60471  24.331   1.475  12.428
95245W        W60472  32.005  43.960  10.986
95246W        W60473  32.532  11.264  12.820
95247W        W60474  34.005   6.097   1.509
95248W        W60475  10.461  11.962   2.133
95249W        W60476  20.037   7.455   0.407
95250W        W60477  40.871  38.364  13.090
95251W        W60478  43.729  19.892  12.559
95252W        W60479   4.926  43.704  13.520
95253W        W60480  37.986  13.637   1.186
95254W        W60481   7.736  37.980  14.466
95255W        W60482  32.127   3.699   0.260
95256W        W60483  32.087  21.648  13.791
95257W        W60484  37.991  19.710  13.345
95258W        W60485   6.863  20.644   2.415
95259W        W60486  11.463   3.992   3.272
95260W        W60487  17.204  24.601   0.441
95261W        W60488   6.367   3.320  12.930
95262W        W60489  22.220  29.676   1.507
95263W        W60490   7.605   6.912  12.902
95264W        W60491  16.736   4.777  14.992
95265W        W60492  14.596  20.083   1.924
95266W        W60493  15.319  40.980   4.357
95267W        W60494   6.318   5.913   5.034
95268W        W60495   4.708  40.531   3.227
95269W        W60496   6.798  25.564  12.528
95270W        W60497  28.330  11.014   3.775
95271W        W60498  28.073  15.219   4.427
95272W        W60499  26.132   6.012  13.939
95273W        W60500  29.510  43.782   0.463
95274W        W60501  17.291   0.886  13.859
95275W        W60502  17.236   9.435   3.630
95276W        W60503  44.515  39.888  14.188
95277W        W60504  12.581   7.278   4.666
95278W        W60505   6.941  30.300   1.308
95279W        W60506  35.614  25.160   4.128
95280W        W60507  31.829  33.455   2.587
95281W        W60508  34.985  37.575   1.219
95282W        W60509  12.385  27.068   0.897
95283W        W60510  27.009  15.927  12.948
95284W        W60511   1.011   4.895  13.030
95285W        W60512  40.775  36.129  10.719
95286W        W60513   5.018  22.049   3.977
95287W        W60514  17.532  21.975   0.421
95288W        W60515  15.133  44.127   2.189
95289W        W60516  23.948  37.914  11.522
95290W        W60517  18.204  29.052  11.050
95291W        W60518  13.802  44.402  13.683
95292W        W60519  27.597  28.001  13.901
95293W        W60520  32.375  33.650  11.054
95294W        W60521  10.341  20.076  10.720
95295W        W60522  18.091  38.043  13.329
95296W        W60523   8.172  19.534  13.763
95297W        W60524   0.028  22.930  11.882
95298W        W60525  41.547  22.250   2.695
95299W        W60526   5.924  21.228  12.552
95300W        W60527  39.217  42.589   2.883
95301W        W60528  43.432  28.645  11.972
95302W        W60529  21.736   7.242   2.109
95303W        W60530   7.407  24.214   2.223
95304W        W60531  14.211   2.911   2.715
95305W        W60532  43.392  18.148  13.548
95306W        W60533  25.238  18.486  11.438
95307W        W60534  19.017  40.913   0.030
95308W        W60535  44.782  15.215  13.405
95309W        W60536  36.104   4.279   3.781
95310W        W60537  42.111  14.641   4.117
95311W        W60538  38.375  31.001   2.215
95312W        W60539  39.352   7.622  13.977
95313W        W60540  25.008  36.503   2.767
95314W        W60541   2.786   5.083  11.990
95315W        W60542  13.613  28.351   4.300
95316W        W60543   8.945  37.501   3.295
95317W        W60544  35.071  18.357  12.490
95318W        W60545  44.941  30.983  12.475
95319W        W60546  42.654  17.396  12.979
95320W        W60547   2.241  15.589   3.319
95321W        W60548   7.524  32.172  12.921
95322W        W60549   5.922   6.016  12.089
95323W        W60550  11.530  21.828   1.802
95324W        W60551  39.684  22.745  14.544
95325W        W60552   1.701  16.366  13.035
95326W        W60553   4.236  31.355  10.783
95327W        W60554  16.197  23.605   1.334
95328W        W60555  35.401  15.961  14.815
95329W        W60556  19.771  32.760   4.145
95330W        W60557  11.926  39.618   0.880
95331W        W60558   5.367   2.394  10.609
95332W        W60559  28.990  39.241   3.210
95333W        W60560  11.716  38.907  13.491
95334W        W60561   8.729  19.270  12.452
95335W        W60562  15.634  21.253  14.980
95336W        W60563  12.798   7.648  14.840
95337W        W60564   2.120  40.117   0.161
95338W        W60565  33.971  26.921   2.193
95339W        W60566   8.297   5.342  14.609
95340W        W60567  40.587  15.058  14.454
95341W        W60568   6.888  15.599   3.146
95342W        W60569   1.539  14.692   1.824
95343W        W60570   4.894  37.129  12.621
95344W        W60571  27.399  23.156  14.748
95345W        W60572   0.334  14.575  14.576
95346W        W60573  42.016  32.392   3.583
95347W        W60574   2.957  44.773  14.852
95348W        W60575  41.482  36.927  14.899
95349W        W60576  37.201  44.643  12.582
95350W        W60577   3.175  15.029  12.454
95351W        W60578  30.362  10.107  13.606
95352W        W60579  19.053   8.291  14.284
95353W        W60580   4.206  17.083   2.325
95354W        W60581  14.866  21.017  11.117
95355W        W60582   2.943  35.261   0.005
95356W        W60583  14.806  23.862  11.629
95357W        W60584  33.576  42.891   3.505
95358W        W60585  16.293  10.296   4.278
95359W        W60586  30.913  25.876   1.904
95360W        W60587  13.396  39.278  12.487
95361W        W60588  30.649  27.994  12.158
95362W        W60589  33.515  43.856   4.469
95363W        W60590  27.141  42.227  10.797
95364W        W60591  19.206   2.677  13.970
95365W        W60592  42.958  21.500  12.383
95366W        W60593  13.383  35.163  10.731
95367W        W60594  28.930  26.958  12.474
95368W        W60595  30.629  40.116  14.181
95369W        W60596   5.779  13.778   2.995
95370W        W60597  32.869  38.933  12.602
95371W        W60598   0.412  44.276  14.304
95372W        W60599  44.875  35.221  11.226
95373W        W60600  30.040  31.096  11.527
95374W        W60601   4.478  34.583   3.817
95375W        W60602  16.374  33.213   3.461
95376W        W60603  40.239  11.707  10.556
95377W        W60604  41.879   0.181  12.761
95378W        W60605  26.437  13.439   1.841
95379W        W60606   4.922  31.537  14.878
95380W        W60607  13.841  41.539   0.433
95381W        W60608   5.846  35.051  13.432
95382W        W60609  32.472  33.368   3.662
95383W        W60610  41.417  29.581  12.038
95384W        W60611  34.976  31.859  14.351
95385W        W60612  25.041   7.689  10.802
95386W        W60613  42.963  17.220  12.379
95387W        W60614  25.992  38.007  14.238
95388W        W60615   7.404  37.142  11.034
95389W        W60616  26.093  24.528   4.112
95390W        W60617  44.111  43.520  13.444
95391W        W60618  12.891   3.083  12.315
95392W        W60619  33.120   8.913   4.366
95393W        W60620  36.551  19.623   2.274
95394W        W60621  37.509  38.155  11.152
95395W        W60622  29.495  10.144  13.429
95396W        W60623  16.329  30.303  13.824
95397W        W60624   3.756  25.439   0.289
95398W        W60625  37.237  30.500  11.574
95399W        W60626  42.373   2.172  14.295
95400W        W60627  32.482  39.926   3.577
95401W        W60628  23.425  38.952   0.781
95402W        W60629  14.895  17.216  13.461
95403W        W60630  10.233  27.460  10.760
95404W        W60631  42.942  27.636   4.646
95405W        W60632  21.587  33.285  13.009
95406W        W60633  21.003  37.728   2.650
95407W        W60634  10.208  22.096  10.590
95408W        W60635  17.579  41.489   2.686
95409W        W60636   5.552  20.547   3.840
95410W        W60637  35.464   9.486  12.908
95411W        W60638  20.097   6.653  12.973
95412W        W60639  44.764  11.210  14.424
95413W        W60640  43.042  21.988  14.351
95414W        W60641  41.997  31.612   2.212
95415W        W60642   9.740  31.120   2.251
95416W        W60643   8.463  21.159   3.317
95417W        W60644   3.345  12.939  12.420
95418W        W60645  39.477  27.429  13.455
95419W        W60646  42.867  39.786  11.719
95420W        W60647  26.136  37.534   2.670
95421W        W60648  38.460  24.247   2.603
95422W        W60649  18.781  23.836  14.338
95423W        W60650   7.156  27.642   0.804
95424W        W60651  42.431  31.210   3.181
95425W        W60652  15.154   6.032   4.683
95426W        W60653  29.257  40.564  13.812
95427W        W60654  29.805  12.289  10.677
95428W        W60655  40.997   1.597  12.118
95429W        W60656  13.084  13.754   3.258
95430W        W60657  36.340  36.887   1.325
95431W        W60658  33.161  32.070  13.738
95432W        W60659  35.973  35.074  11.985
95433W        W60660   5.385  32.809   4.912
95434W        W60661   7.881  17.603  14.202
95435W        W60662  25.992  27.918   2.823
95436W        W60663  38.547  31.425  12.079
95437W        W60664   8.719  10.458  11.616
95438W        W60665  10.601  19.422  12.601
95439W        W60666  13.971  17.803   3.278
95440W        W60667  38.395   7.163  13.758
95441W        W60668  28.209  27.009  11.268
95442W        W60669  24.984  35.686   0.860
95443W        W60670  25.080  18.016   0.718
95444W        W60671  20.101  12.713  12.963
95445W        W60672  24.087  37.610  14.491
95446W        W60673   6.045   1.827  14.369
95447W        W60674   4.751  42.653   1.055
95448W        W60675   5.502  17.711  11.475
95449W        W60676  30.988  44.751   2.680
95450W        W60677  18.304  43.962  14.248
95451W        W60678  26.638  37.590   1.884
95452W        W60679  19.236  37.858  10.809
95453W        W60680   7.767  18.138   0.931
95454W        W60681  34.840  18.116   4.010
95455W        W60682  40.035  25.403  12.417
95456W        W60683  18.816  21.417  10.321
95457W        W60684   4.700  33.592   2.649
95458W        W60685  19.812  13.706   4.611
95459W        W60686  36.374  34.354   2.363
95460W        W60687   5.890  44.190  11.115
95461W        W60688   0.058   7.537   3.338
95462W        W60689  22.207  40.268  11.607
95463W        W60690  33.076  42.529  14.472
95464W        W60691  10.093   5.816   2.238
95465W        W60692   0.037   8.639  12.987
95466W        W60693  36.482   6.252   4.523
95467W        W60694  37.478   8.099   3.228
95468W        W60695   8.796   5.756   2.787
95469W        W60696  39.547  41.166  14.603
95470W        W60697  33.851  33.760  14.096
95471W        W60698  36.938  40.972   4.478
95472W        W60699   7.279  40.998   1.051
95473W        W60700  26.679  42.231   3.852
95474W        W60701   9.256  44.918   4.568
95475W        W60702  17.749  18.938   0.012
95476W        W60703  21.597  15.881   0.377
95477W        W60704  24.099   1.286  10.294
95478W        W60705  40.863   6.337   1.618
95479W        W60706  42.315  18.100   3.872
95480W        W60707  25.565  13.670  14.075
95481W        W60708  11.411   8.107  14.043
95482W        W60709  26.498  39.253   2.328
95483W        W60710  34.356   8.764   3.674
95484W        W60711  34.075  42.904   3.301
95485W        W60712  41.760  35.403   4.414
95486W        W60713   9.193  17.390  12.496
95487W        W60714   6.221  29.252   3.318
95488W        W60715  35.138  33.050  10.816
95489W        W60716  44.818  15.549  13.870
95490W        W60717  10.571  20.058  13.874
95491W        W60718   4.952  22.198  11.459
95492W        W60719  27.527  35.058   0.691
95493W        W60720   2.959  38.792  14.480
95494W        W60721  26.400   1.918  13.025
95495W        W60722  38.031  39.370   0.451
95496W        W60723   6.643  25.924  11.711
95497W        W60724   6.949  43.486   0.929
95498W        W60725   4.848  44.158   2.789
95499W        W60726  40.508  16.828  13.559
95500W        W60727  18.986  18.185   2.647
95501W        W60728  37.615  29.624  11.510
95502W        W60729  18.312  12.059   1.163
95503W        W60730  18.506  27.167  11.722
95504W        W60731  28.428  40.053  13.987
95505W        W60732   2.981  43.775  10.803
95506W        W60733  11.163   4.681   0.411
95507W        W60734  28.182  19.366   3.672
95508W        W60735   6.870  25.901   0.745
95509W        W60736  17.881   7.660  13.965
95510W        W60737  32.485  29.833   3.868
95511W        W60738  15.415  23.410   3.647
95512W        W60739  24.586  33.042  13.494
95513W        W60740  22.666  34.630   2.801
95514W        W60741   4.383   5.472  10.439
95515W        W60742   9.701  17.763   0.007
95516W        W60743   7.690  37.480  13.037
95517W        W60744  44.050  24.945  14.727
95518W        W60745  13.795  40.821  10.660
95519W        W60746  40.092  44.409   1.425
95520W        W60747  28.061  37.416  11.917
95521W        W60748  13.148   1.443   3.103
95522W        W60749  26.044  40.562   2.181
95523W        W60750  10.269   5.739  13.082
95524W        W60751   6.693  39.997   0.841
95525W        W60752  18.691  43.422   4.344
95526W        W60753   7.234   5.236  12.790
95527W        W60754  24.146  25.821   1.912
95528W        W60755  10.758  27.436  14.900
95529W        W60756  35.632  11.314   4.502
95530W        W60757   1.931   5.322  10.706
95531W        W60758  43.925  32.530   4.110
95532W        W60759  30.539  38.632  13.812
95533W        W60760  19.117   5.173  14.591
95534W        W60761  25.290  20.626  14.554
95535W        W60762  35.285  26.481  11.363
95536W        W60763   7.755  11.874  13.375
95537W        W60764  11.412   4.776  14.468
95538W        W60765  15.345   8.627   2.823
95539W        W60766  23.736  21.255   2.913
95540W        W60767  43.505  10.661   0.482
95541W        W60768  42.930  14.254  10.679
95542W        W60769  27.059  16.238  10.782
95543W        W60770  30.899   5.932  11.531
95544W        W60771  18.050  16.494   3.693
95545W        W60772  42.456  12.476   0.968
95546W        W60773  35.078  12.319  11.602
95547W        W60774  40.937  24.057  14.652
95548W        W60775  41.934  32.439   1.210
95549W        W60776  44.687  26.982  12.162
95550W        W60777   1.885   8.856   3.384
95551W        W60778   4.157  13.271   1.242
95552W        W60779  29.503  17.668   0.992
95553W        W60780  25.083  14.214   0.314
95554W        W60781  32.500  12.750   0.931
95555W        W60782  37.388  44.726  10.598
95556W        W60783   5.620   3.881  12.884
95557W        W60784  11.861   9.264  12.601
95558W        W60785   8.165  16.316  12.685
95559W        W60786  28.227  15.620   2.273
95560W        W60787  15.226  41.340  12.918
95561W        W60788  34.858   4.897  10.692
95562W        W60789   2.419  14.793   3.377
95563W        W60790   9.160  12.408   2.775
95564W        W60791  23.406  12.077  12.560
95565W        W60792  38.017  16.078  11.105
95566W        W60793  41.233  26.462  12.998
95567W        W60794  30.410   0.633  13.009
95568W        W60795  35.802   1.630   0.753
95569W        W60796  16.743  14.197  12.080
95570W        W60797   2.732  37.004   3.499
95571W        W60798  41.839  17.038  14.938
95572W        W60799  15.695  42.733   4.527
95573W        W60800  22.044  24.424  14.820
95574W        W60801  44.186  27.963  10.754
95575W        W60802  11.800   8.376  10.730
95576W        W60803  39.413   8.649   1.320
95577W        W60804  13.036  32.102   3.297
95578W        W60805  32.434   6.471   0.472
95579W        W60806  18.166   1.673   3.179
95580W        W60807  43.273  24.092  11.890
95581W        W60808  25.610  32.820   4.546
95582W        W60809  17.462  42.794   4.589
95583W        W60810   4.281  15.028   3.754
95584W        W60811  24.720  27.512  12.031
95585W        W60812  15.908  14.597   4.979
95586W        W60813  26.088  21.957   1.806
95587W        W60814  38.875  37.008  14.521
95588W        W60815  27.996  30.614   2.414
95589W        W60816   6.387  36.107   0.832
95590W        W60817  28.021  19.060   1.788
95591W        W60818  43.075  24.786  13.987
95592W        W60819   5.897  23.004   0.874
95593W        W60820   3.764   3.037  13.733
95594W        W60821   6.801   5.371  14.492
95595W        W60822  14.695   0.798   1.308
95596W        W60823  25.050  22.002  10.655
95597W        W60824  43.813   2.673   0.278
95598W        W60825  23.465   6.447  12.698
95599W        W60826   3.519   2.818   2.193
95600W        W60827   4.756  26.224  14.905
95601W        W60828  29.775   9.249  11.712
95602W        W60829   0.763  16.482   3.734
95603W        W60830  20.107  13.387   4.100
95604W        W60831  11.104  38.826  10.372
95605W        W60832  38.091  20.713  11.169
95606W        W60833  22.225  32.231  12.376
95607W        W60834  11.660  33.062  13.579
95608W        W60835   1.025  43.653   0.164
95609W        W60836  19.018  31.063   3.832
95610W        W60837  17.141   4.260   3.281
95611W        W60838  44.251  28.085  13.051
95612W        W60839  15.318  11.731   1.782
95613W        W60840  14.055   1.773  14.902
95614W        W60841  39.505  21.651  11.673
95615W        W60842  43.844  32.349   0.843
95616W        W60843  20.675  18.703  14.952
95617W        W60844  11.257  31.924   3.260
95618W        W60845  26.393  26.008  14.004
95619W        W60846  23.200  27.728   0.716
95620W        W60847  18.574  12.846   0.740
95621W        W60848   6.147  14.065   0.731
95622W        W60849  27.335   0.126   9.655
95623W        W60850  24.121  23.389  13.683
95624W        W60851   3.561  44.445   1.940
95625W        W60852  34.617  14.054  11.731
95626W        W60853  15.890  14.013  13.309
95627W        W60854  39.402   9.428   1.848
95628W        W60855  21.031  33.256  10.106
95629W        W60856   6.854  41.812   2.562
95630W        W60857  20.539   9.730   4.834
95631W        W60858   2.321  22.544   1.323
95632W        W60859  29.959  28.603   2.215
95633W        W60860   5.740  14.600   4.087
95634W        W60861   4.205  36.198  10.594
95635W        W60862  26.020   9.933   0.812
95636W        W60863  34.219  34.341  10.464
95637W        W60864  23.819  42.873  13.158
95638W        W60865  19.914  44.605  13.918
95639W        W60866   1.311  38.487   2.434
95640W        W60867  11.372  43.827  11.001
95641W        W60868  11.366  42.338  14.330
95642W        W60869   5.722  35.902   4.146
95643W        W60870  12.375  28.890  12.134
95644W        W60871   3.017  41.898   2.333
95645W        W60872  35.058  34.422  11.978
95646W        W60873  30.966   6.794  13.685
95647W        W60874  20.601  37.552   2.910
95648W        W60875  35.575  28.062  12.681
95649W        W60876  16.222   5.642  12.951
95650W        W60877  24.299  43.034   3.040
95651W        W60878  10.254  39.971   0.795
95652W        W60879  24.395  14.700  11.543
95653W        W60880  24.452  42.986  10.657
95654W        W60881  15.985  20.825  10.481
95655W        W60882  40.580  36.714  13.810
95656W        W60883  37.904  22.978  14.969
95657W        W60884  10.570   6.262  12.935
95658W        W60885  31.989  13.920   2.102
95659W        W60886  21.766  25.099   0.473
95660W        W60887  17.678  38.359   1.501
95661W        W60888   2.468  16.848   4.612
95662W        W60889  35.384  36.433   5.615
95663W        W60890  31.976   0.545  11.991
95664W        W60891  25.933  22.199  13.323
95665W        W60892   4.657  25.971   1.281
95666W        W60893  28.445  25.185   1.625
95667W        W60894  21.275  41.785   3.941
95668W        W60895  17.303  35.340  14.333
95669W        W60896  41.551   9.389  10.247
95670W        W60897  20.485  24.429   3.262
95671W        W60898  40.844  27.977  10.664
95672W        W60899   2.233  13.609   1.928
95673W        W60900  28.949  32.505   4.572
95674W        W60901  13.300  39.942  13.744
95675W        W60902  39.113  32.524   2.844
95676W        W60903  40.869   5.432   2.818
95677W        W60904  42.944  30.688   2.664
95678W        W60905  36.461  17.263  10.483
95679W        W60906   8.234  20.771   2.377
95680W        W60907  14.331  37.516  13.845
95681W        W60908  38.291  18.575   0.466
95682W        W60909  16.570  22.157  11.759
95683W        W60910  31.007  13.865   0.080
95684W        W60911   0.303  19.972  14.299
95685W        W60912  36.272  44.441  12.501
95686W        W60913   0.606  16.078   2.802
95687W        W60914  11.699  30.176   3.759
95688W        W60915  24.260  28.520  13.815
95689W        W60916  12.360   6.294   4.222
95690W        W60917  19.219  30.608   1.234
95691W        W60918  29.099   8.177  10.756
95692W        W60919  11.719  42.963   3.296
95693W        W60920  17.779  30.435   2.655
95694W        W60921   0.864  30.423  14.739
95695W        W60922  22.109  23.172  11.928
95696W        W60923  43.084   7.833   2.327
95697W        W60924  36.443  37.087   1.806
95698W        W60925  34.920   8.639   2.209
95699W        W60926  29.359  12.845  10.535
95700W        W60927  39.807   7.328  14.924
95701W        W60928  17.427  20.603   4.556
95702W        W60929  29.803  16.077  13.133
95703W        W60930  35.388   4.522   4.524
95704W        W60931  23.697  39.922  11.505
95705W        W60932  32.112  11.379  13.375
95706W        W60933  15.192  39.987  14.308
95707W        W60934  32.893   7.629   1.727
95708W        W60935  20.224  44.141  12.452
95709W        W60936  25.149  40.782  11.381
95710W        W60937  32.559   3.013   3.675
95711W        W60938  19.113  31.584   4.580
95712W        W60939  34.390   8.582  11.233
95713W        W60940  31.042   6.449  14.073
95714W        W60941  33.938   1.416  13.745
95715W        W60942  35.399  41.356   0.796
95716W        W60943  32.457  29.919   0.416
95717W        W60944  11.883  18.520  13.421
95718W        W60945  25.367  20.304   4.516
95719W        W60946  28.492  37.536  12.180
95720W        W60947  33.199   6.394   1.369
95721W        W60948   7.626  33.848  11.590
95722W        W60949  19.619  41.365   0.017
95723W        W60950  38.096  27.115   0.251
95724W        W60951  21.522  12.787   2.206
95725W        W60952  39.399  11.038   2.982
95726W        W60953  37.658  15.980  10.748
95727W        W60954  38.820  41.832   1.142
95728W        W60955  11.366   9.419   2.229
95729W        W60956   5.326   2.324  13.955
95730W        W60957  25.970  32.412  13.262
95731W        W60958  21.451   4.511   5.011
95732W        W60959  24.420  41.946   4.449
95733W        W60960   9.184  43.376   2.792
95734W        W60961  21.265  35.620  12.413
95735W        W60962  33.126  41.319   3.712
95736W        W60963  35.617  11.470   1.314
95737W        W60964  21.474  33.106  10.468
95738W        W60965  26.993  14.598  12.446
95739W        W60966  41.579  12.080   4.600
95740W        W60967  33.971  13.121  14.854
95741W        W60968   4.448   7.836   1.425
95742W        W60969  34.856  35.200  11.565
95743W        W60970  15.707  35.962   0.259
95744W        W60971   0.660  44.816   2.010
95745W        W60972  23.860  22.996  11.956
95746W        W60973   0.206  18.054  12.927
95747W        W60974  37.513  43.642  14.067
95748W        W60975  20.083  43.265  11.581
95749W        W60976  37.859  32.459   2.211
95750W        W60977   3.731   6.749  10.980
95751W        W60978  27.245  29.256   0.948
95752W        W60979  18.519  26.887   0.346
95753W        W60980  42.973  11.831   5.028
95754W        W60981  36.411  32.542   3.587
95755W        W60982  34.346  32.771  13.964
95756W        W60983  24.744  20.063   1.734
95757W        W60984   6.960  42.206  14.349
95758W        W60985  35.613   6.831   4.140
95759W        W60986  30.950  10.499   4.250
95760W        W60987   5.588  12.884   0.340
95761W        W60988  36.738   0.047   3.625
95762W        W60989  38.947  35.594   4.462
95763W        W60990  10.812  39.456   3.506
95764W        W60991  22.270  26.027   2.679
95765W        W60992  31.393  33.281   2.328
95766W        W60993  40.863  11.582   2.066
95767W        W60994  26.596  25.894  13.269
95768W        W60995  15.231  32.391  13.839
95769W        W60996  14.520  44.344  10.959
95770W        W60997  21.978  35.478   2.789
95771W        W60998  10.456   9.643   0.672
95772W        W60999  14.802   4.990   2.958
95773W        W61000  20.191  44.106  10.260
95774W        W61001  35.374  41.322   1.641
95775W        W61002  17.725  28.956   2.226
95776W        W61003   9.354  13.103  11.069
95777W        W61004  28.115   4.808  12.898
95778W        W61005  33.836  17.375   4.056
95779W        W61006  39.926  16.444  12.802
95780W        W61007   2.158   1.356  13.053
95781W        W61008  17.314  15.062   0.353
95782W        W61009  40.438  29.174  10.683
95783W        W61010   3.280  40.682   3.766
95784W        W61011  26.191  36.079   3.649
95785W        W61012   3.773  28.562   4.272
95786W        W61013  29.846   2.551  13.103
95787W        W61014  28.562  29.699   3.146
95788W        W61015   0.500   4.892   4.851
95789W        W61016   1.299  16.226   4.489
95790W        W61017   8.606  16.241   3.770
95791W        W61018  36.993  38.370  14.734
95792W        W61019  43.544  22.442   2.073
95793W        W61020   4.383  24.872   0.838
95794W        W61021  32.938  43.930   2.803
95795W        W61022  29.956   4.222  11.050
95796W        W61023  37.137  39.307   0.746
95797W        W61024  11.269   2.574   3.110
95798W        W61025  39.502  19.208  12.732
95799W        W61026  31.125  26.654   1.664
95800W        W61027   6.770  11.869   0.956
95801W        W61028   4.374  17.265  10.988
95802W        W61029  44.225  28.180   9.838
95803W        W61030  10.711  30.163   2.950
95804W        W61031   5.223  17.737   1.424
95805W        W61032  43.619  18.723  13.269
95806W        W61033  34.258  13.801  12.900
95807W        W61034  34.947  25.951   4.467
95808W        W61035  15.803   2.097  10.911
95809W        W61036   4.832  16.329   0.718
95810W        W61037  34.109  39.885  14.965
95811W        W61038  43.873   6.684  13.348
95812W        W61039  15.100   7.167   3.220
95813W        W61040  44.664  24.316   4.038
95814W        W61041  27.714  22.901   1.716
95815W        W61042  37.093   9.806   1.747
95816W        W61043  31.899   6.780   2.324
95817W        W61044  16.784  38.563  14.315
95818W        W61045   8.450  34.984   2.930
95819W        W61046   5.321  44.498   2.160
95820W        W61047  11.208   2.233   1.324
95821W        W61048  44.861  43.459  11.720
95822W        W61049   9.676  11.142   3.180
95823W        W61050  20.855  20.857  11.248
95824W        W61051  27.522  25.038   5.075
95825W        W61052  16.204  43.970   0.265
95826W        W61053   4.776  20.108  14.309
95827W        W61054  28.526   2.703   5.035
95828W        W61055   1.320  11.384  14.425
95829W        W61056  35.271  28.297   3.964
95830W        W61057  25.533  23.488  14.463
95831W        W61058  17.023  26.908  11.544
95832W        W61059  30.775  11.902   4.115
95833W        W61060   0.581   4.122  13.266
95834W        W61061  35.533  18.651  12.319
95835W        W61062   2.262  20.639   1.342
95836W        W61063  42.250  35.343   3.635
95837W        W61064  15.672  42.233   4.714
95838W        W61065  26.033  35.169   3.752
95839W        W61066   9.134  19.460   4.054
95840W        W61067  15.243  28.552  10.875
95841W        W61068  34.170  24.877   4.996
95842W        W61069  22.949  39.206   4.066
95843W        W61070  20.682  38.967   1.354
95844W        W61071  21.573  24.595   2.228
95845W        W61072  26.477  38.963   2.782
95846W        W61073   8.207  34.675  14.386
95847W        W61074  32.388  40.429   3.183
95848W        W61075  11.332  28.853   4.157
95849W        W61076  42.409  34.744   4.336
95850W        W61077  30.908  11.180   3.756
95851W        W61078   6.503  40.483   2.511
95852W        W61079  35.745  21.021   5.079
95853W        W61080   8.756   1.531   2.431
95854W        W61081   2.843  20.703   3.681
95855W        W61082  38.889  31.488   0.745
95856W        W61083  42.643  30.073   1.466
95857W        W61084  18.276  25.850   0.762
95858W        W61085  12.020  14.553  13.614
95859W        W61086  30.660  44.786   0.784
95860W        W61087  34.470   5.067   3.193
95861W        W61088  13.578   5.098  12.039
95862W        W61089  35.871  41.405  12.196
95863W        W61090  32.909  25.386   4.752
95864W        W61091  28.500  37.832   4.929
95865W        W61092   0.460  13.266  12.490
95866W        W61093   1.740  15.166   1.715
95867W        W61094  34.792  39.174  11.600
95868W        W61095  11.590  23.537   1.527
95869W        W61096   1.358  24.700  14.707
95870W        W61097   1.437  38.999  12.626
95871W        W61098  36.308  18.705  12.589
95872W        W61099  21.515  30.207   0.094
95873W        W61100  41.398  39.425  14.489
95874W        W61101  20.158  15.445  13.561
95875W        W61102  38.441  19.570  12.086
95876W        W61103  23.769  32.357  13.925
95877W        W61104  33.528  15.406  11.699
95878W        W61105  43.877   7.739   4.723
95879W        W61106  40.812   3.393  12.914
95880W        W61107   3.293  43.177  12.210
95881W        W61108  12.097  30.221   1.355
95882W        W61109  31.487  34.210  12.484
95883W        W61110   3.479   3.278   1.513
95884W        W61111  27.856  12.275   0.477
95885W        W61112  17.251  16.223   3.300
95886W        W61113  28.079  30.872   4.161
95887W        W61114  12.969  30.475   3.151
95888W        W61115  40.502  13.170  13.919
95889W        W61116   7.023  20.702  12.989
95890W        W61117  25.531   9.082   0.820
95891W        W61118   3.762  19.641   3.705
95892W        W61119  27.610  13.204  14.769
95893W        W61120  27.208  38.012  13.011
95894W        W61121  27.337  30.410   0.030
95895W        W61122  27.475  12.287   1.036
95896W        W61123   6.437  16.133   0.895
95897W        W61124  23.909  16.108  12.739
95898W        W61125   0.280   1.319   2.262
95899W        W61126  20.192  37.834   2.744
95900W        W61127   1.273  16.542   0.012
95901W        W61128  40.917  26.963  10.664
95902W        W61129  31.445  24.530   0.234
95903W        W61130  21.270   4.476  11.252
95904W        W61131  12.707  32.924  13.004
95905W        W61132  15.349   5.306  14.273
95906W        W61133  33.198  33.657  11.557
95907W        W61134   3.823   2.989   1.795
95908W        W61135  44.981   4.344  14.703
95909W        W61136  42.754  21.228   0.781
95910W        W61137  27.403  15.671   0.866
95911W        W61138   5.799   8.339  11.924
95912W        W61139   8.754   1.013   2.399
95913W        W61140  34.886  10.409   1.997
95914W        W61141   4.453  36.116  13.334
95915W        W61142  21.758  25.889  12.919
95916W        W61143  22.532  37.909   2.251
95917W        W61144  13.406  16.261  14.423
95918W        W61145  42.569  40.205   1.256
95919W        W61146  43.953  44.073   3.247
95920W        W61147   4.065  17.647   3.431
95921W        W61148  44.579  42.063  11.945
95922W        W61149   1.381  43.411   1.867
95923W        W61150  27.593   5.965   0.783
95924W        W61151  30.973   9.407   3.347
95925W        W61152  32.150   6.615   2.808
95926W        W61153  11.553  41.580  12.238
95927W        W61154  41.773  31.664   0.533
95928W        W61155  38.099  18.603   1.449
95929W        W61156  38.324   7.560   3.377
95930W        W61157  44.504  12.902   5.001
95931W        W61158   8.743   9.893   2.650
95932W        W61159  39.870  38.155  12.478
95933W        W61160   0.484  26.983  12.527
95934W        W61161  38.004   7.707   2.282
95935W        W61162  11.677  40.724   1.883
95936W        W61163  37.993  11.110  12.332
95937W        W61164  37.602  17.823   3.166
95938W        W61165  10.157  34.939   0.870
95939W        W61166  23.678  24.501   3.630
95940W        W61167  27.257  36.092  13.574
95941W        W61168  16.288  27.513   0.791
95942W        W61169  28.460  28.288  11.512
95943W        W61170  39.856  27.778   0.213
95944W        W61171   0.544   5.351  14.048
95945W        W61172   0.754  12.276  11.158
95946W        W61173   0.011  34.938  12.495
95947W        W61174  22.444   4.242  11.681
95948W        W61175  26.060  43.827   3.808
95949W        W61176  34.479  32.486   2.741
95950W        W61177  11.987   8.771   2.609
95951W        W61178   9.068   6.901  13.816
95952W        W61179  41.915  37.244  11.180
95953W        W61180   7.953  33.579   0.346
95954W        W61181  15.023   3.851   4.589
95955W        W61182  22.130  40.832  12.352
95956W        W61183  12.427  24.263   1.809
95957W        W61184  29.087  39.773   3.246
95958W        W61185  23.464  21.936   0.734
95959W        W61186  22.542  18.727   3.711
95960W        W61187  30.370  25.107   4.075
95961W        W61188  42.947  25.985   1.852
95962W        W61189  29.152  22.467   2.317
95963W        W61190  22.031  26.980  14.883
95964W        W61191  42.936  27.267   2.331
95965W        W61192  20.661  30.037   0.189
95966W        W61193  11.088  36.348  14.555
95967W        W61194  28.531  17.755   1.438
95968W        W61195  44.848  13.567   1.040
95969W        W61196  11.356  32.956   0.506
95970W        W61197  22.866  15.530  10.030
95971W        W61198   9.084  34.371  10.748
95972W        W61199  15.018  23.996  13.903
95973W        W61200   5.952   3.974  14.519
95974W        W61201  30.958  26.194   0.242
95975W        W61202  12.198  29.279   1.849
95976W        W61203  10.392   8.235  11.927
95977W        W61204  25.507  14.355   3.112
95978W        W61205  42.502  21.566  12.607
95979W        W61206  37.815  32.320   0.891
95980W        W61207  25.870   5.963  13.065
95981W        W61208  10.602  28.696  10.357
95982W        W61209  23.131  25.563  13.415
95983W        W61210  12.998   4.209   1.876
95984W        W61211   6.268  28.471   0.968
95985W        W61212  34.085  25.652  12.468
95986W        W61213   4.999  26.400   1.353
95987W        W61214  41.781  36.862   0.338
95988W        W61215  32.875  19.061   0.112
95989W        W61216  28.739  17.405  11.199
95990W        W61217  22.177  13.213   3.755
95991W        W61218  14.564   8.873  12.479
95992W        W61219   9.198  34.992  14.348
95993W        W61220  18.742  42.522  13.064
95994W        W61221  44.687  29.397  14.489
95995W        W61222  37.972  12.213   0.384
95996W        W61223  31.418  17.195   4.695
95997W        W61224  24.956  32.043  14.769
95998W        W61225  43.762   6.082  13.100
95999W        W61226  11.996  12.573   4.681
96000W        W61227  20.340   3.307   3.088
96001W        W61228  40.585  34.615  13.856
96002W        W61229   7.893  14.868   1.249
96003W        W61230  15.104   7.828  11.635
96004W        W61231  23.673  18.568  13.168
96005W        W61232  21.285   5.741  12.178
96006W        W61233  42.124  25.851  11.344
96007W        W61234  39.242  40.125  12.615
96008W        W61235   7.346   0.904  10.747
96009W        W61236  40.520  11.394   4.611
96010W        W61237  33.999   4.406   3.550
96011W        W61238  11.652   0.534   0.494
96012W        W61239  11.439  27.085  12.018
96013W        W61240  11.765  13.584   4.545
96014W        W61241  13.362   0.968  12.564
96015W        W61242  29.472  36.984  12.026
96016W        W61243  26.718  41.275   2.355
96017W        W61244  40.910  21.754   1.295
96018W        W61245   3.359  37.565  13.954
96019W        W61246  24.516  32.492  14.534
96020W        W61247  10.123  32.351  14.675
96021W        W61248  18.713  36.200  13.838
96022W        W61249  23.186  21.600   1.357
96023W        W61250  39.584  22.766   0.074
96024W        W61251  18.738  29.590  12.584
96025W        W61252  17.147  19.847  11.751
96026W        W61253  19.496  35.801   0.010
96027W        W61254  34.050  29.035   1.702
96028W        W61255  23.578  13.748  12.065
96029W        W61256  22.664  41.763   2.444
96030W        W61257  16.979  13.861   0.486
96031W        W61258  39.077  10.329   4.878
96032W        W61259  25.888  24.030  11.741
96033W        W61260  33.114  28.933   4.186
96034W        W61261   8.526  24.001   0.785
96035W        W61262  43.221  18.330   0.455
96036W        W61263  41.520  35.032   0.449
96037W        W61264  26.116   0.597  11.207
96038W        W61265   7.518  20.251  12.200
96039W        W61266  40.312  30.134   0.455
96040W        W61267   5.236   6.942   0.552
96041W        W61268  31.473  30.757   0.027
96042W        W61269   3.873   3.001  10.237
96043W        W61270   8.137  39.955  12.673
96044W        W61271  43.988  40.576   3.890
96045W        W61272   8.711   5.992  11.487
96046W        W61273  22.079  26.205   1.667
96047W        W61274  41.280  10.321  11.594
96048W        W61275  40.729  24.684   0.418
96049W        W61276  31.519  29.626  13.237
96050W        W61277  41.255  15.101   1.259
96051W        W61278  27.165   3.416  10.547
96052W        W61279  29.076  10.664  13.796
96053W        W61280  10.771  43.809   3.438
96054W        W61281  27.730  13.502  13.074
96055W        W61282   3.313   4.157   2.184
96056W        W61283  15.248  26.100  10.712
96057W        W61284  20.275  10.232  13.405
96058W        W61285  25.676  15.356   1.247
96059W        W61286  28.380   8.392  12.307
96060W        W61287   0.916  42.054   0.810
96061W        W61288  43.596  21.558   2.333
96062W        W61289  41.950  22.564   4.538
96063W        W61290   0.533  24.251  10.025
96064W        W61291   9.097  43.197  14.959
96065W        W61292  27.705  22.488  13.808
96066W        W61293   5.879  20.663  14.786
96067W        W61294  27.123  28.720  11.651
96068W        W61295  42.161  18.190  13.030
96069W        W61296  36.023  22.892   3.359
96070W        W61297  11.182  16.661  13.129
96071W        W61298  32.920   1.215  12.419
96072W        W61299  26.195  21.994   2.325
96073W        W61300  20.993   7.316   9.998
96074W        W61301   7.281  27.645  11.350
96075W        W61302   2.693   5.172  12.878
96076W        W61303   6.395  35.813  11.221
96077W        W61304  44.352  24.722  13.072
96078W        W61305  18.577  10.694  11.127
96079W        W61306  37.433   1.869  10.677
96080W        W61307  21.623  44.490   4.022
96081W        W61308  41.002  39.639   0.810
96082W        W61309   5.705  21.785  12.306
96083W        W61310  39.771  15.631   4.625
96084W        W61311  42.364   4.953   1.048
96085W        W61312  35.736  29.302  13.827
96086W        W61313   8.282  19.612  14.544
96087W        W61314  29.964   2.273   2.515
96088W        W61315  37.671   0.853  14.475
96089W        W61316  42.945  10.722  11.424
96090W        W61317  39.950  31.427   0.867
96091W        W61318  12.159  12.078   4.588
96092W        W61319   5.138  44.341  13.017
96093W        W61320   3.407  15.716   3.818
96094W        W61321  43.459  15.163   0.471
96095W        W61322   3.738  37.018   3.736
96096W        W61323  24.280  31.789  13.437
96097W        W61324  30.629  22.036  10.667
96098W        W61325  40.825  27.653   4.625
96099W        W61326  30.111  28.211  14.319
96100W        W61327  37.247   4.731   1.690
96101W        W61328   0.285  36.600  12.987
96102W        W61329  40.155   7.388   1.467
96103W        W61330  26.648  40.060   0.476
96104W        W61331  31.420   7.797   4.802
96105W        W61332  24.707  14.899   0.787
96106W        W61333  43.337  19.502  11.898
96107W        W61334  39.469  18.338  13.313
96108W        W61335  33.256  32.709   1.989
96109W        W61336   8.391  21.609  10.777
96110W        W61337  29.086   8.609  14.936
96111W        W61338   1.263  34.567  12.055
96112W        W61339  35.012   0.675  12.013
96113W        W61340  25.433  18.712  12.222
96114W        W61341  34.366  28.521  14.519
96115W        W61342  21.023  38.133  11.335
96116W        W61343   4.893  26.551  12.148
96117W        W61344  14.428   6.880  12.435
96118W        W61345   8.251  30.085   1.196
96119W        W61346  26.438  34.877  13.903
96120W        W61347  29.571   6.987   4.271
96121W        W61348  23.774  28.212  10.740
96122W        W61349   9.396  12.578  13.358
96123W        W61350  43.224  12.602   3.334
96124W        W61351  36.024  21.449  13.988
96125W        W61352  41.374  16.097  11.756
96126W        W61353  12.684  30.997   3.844
96127W        W61354   4.662  40.739   2.602
96128W        W61355  12.563  28.238  13.905
96129W        W61356  20.520   7.678   0.345
96130W        W61357  39.372  44.462  11.572
96131W        W61358  31.354  11.886  10.775
96132W        W61359  21.974  15.795  12.485
96133W        W61360   4.915  19.669   4.477
96134W        W61361   5.981  23.088  12.447
96135W        W61362  25.161  32.576   2.799
96136W        W61363  11.019  20.301   4.880
96137W        W61364   6.841  28.958  14.265
96138W        W61365   6.477  28.453   2.906
96139W        W61366  19.666  42.159  11.154
96140W        W61367   7.168   5.081   1.880
96141W        W61368  16.812   8.414  14.278
96142W        W61369  28.885  21.551   0.072
96143W        W61370  15.336  27.716   2.599
96144W        W61371  14.162   7.132  13.395
96145W        W61372   2.149   8.307  13.810
96146W        W61373  14.314   1.791   0.361
96147W        W61374  40.419   8.322  11.836
96148W        W61375  40.899  15.082   4.778
96149W        W61376  19.243  29.381   2.862
96150W        W61377  10.832  16.681   0.371
96151W        W61378  12.613  28.272   4.112
96152W        W61379  42.475  28.547   4.362
96153W        W61380   2.501   5.231   1.867
96154W        W61381  27.072   8.803  11.450
96155W        W61382  14.792  32.701  11.747
96156W        W61383  26.310  18.799   2.718
96157W        W61384  12.552  43.100  11.557
96158W        W61385  23.443  25.536  11.705
96159W        W61386  20.056  25.041  14.350
96160W        W61387   2.956  42.058  14.502
96161W        W61388   1.245  35.511  13.407
96162W        W61389  41.393   0.846   2.685
96163W        W61390  25.599   7.804   0.463
96164W        W61391  40.639   7.128   0.765
96165W        W61392  27.206  20.138   1.984
96166W        W61393  25.056   6.416  12.066
96167W        W61394   7.781  18.226   0.420
96168W        W61395  26.134  19.782  12.635
96169W        W61396  31.464  31.930  11.758
96170W        W61397  19.164  42.409   1.166
96171W        W61398  44.756  31.200  12.040
96172W        W61399  19.188  26.501  11.651
96173W        W61400  20.296  26.455  14.536
96174W        W61401  20.201  36.873   1.633
96175W        W61402   9.244  22.885  11.125
96176W        W61403  12.131  12.041   2.887
96177W        W61404  32.549  40.763   4.544
96178W        W61405  29.181  10.728   4.090
96179W        W61406  43.738   3.539  13.998
96180W        W61407   2.344  21.556  13.059
96181W        W61408  26.512  35.056  12.988
96182W        W61409   9.089  37.004   3.148
96183W        W61410  19.177  21.513   3.319
96184W        W61411   8.587  16.716   1.907
96185W        W61412  24.137   6.228   1.891
96186W        W61413  33.238   9.624  14.252
96187W        W61414  16.345   5.960   4.100
96188W        W61415   8.960   5.240  12.546
96189W        W61416   0.356  38.926   3.311
96190W        W61417   3.449  31.069  11.983
96191W        W61418  20.528  35.802  13.522
96192W        W61419  26.524  24.280   3.932
96193W        W61420   7.600  23.101  11.513
96194W        W61421  11.466  18.742   1.206
96195W        W61422  30.402  40.537  14.409
96196W        W61423  22.323   5.107   0.506
96197W        W61424   9.458  11.461  11.163
96198W        W61425  19.764  44.187   4.303
96199W        W61426  43.362  11.128  11.071
96200W        W61427   1.174  42.901  13.169
96201W        W61428  34.018  35.102  13.448
96202W        W61429  36.329   4.471   4.245
96203W        W61430  42.007  36.504   3.348
96204W        W61431  30.687  14.545   3.306
96205W        W61432  10.777  16.840  12.838
96206W        W61433  32.864  14.126   1.310
96207W        W61434  33.140  33.244   1.711
96208W        W61435   2.611  40.313  13.396
96209W        W61436  43.565  22.515  10.184
96210W        W61437  44.986  24.664   4.235
96211W        W61438  20.618  32.178   3.179
96212W        W61439  26.660  11.231  10.032
96213W        W61440   0.055   3.369  12.935
96214W        W61441  38.897  31.624  14.710
96215W        W61442  39.810  43.735   1.304
96216W        W61443   1.357   7.130   4.583
96217W        W61444  14.927  24.920  12.631
96218W        W61445  34.231  43.893  13.109
96219W        W61446  33.480  35.499  10.838
96220W        W61447  12.197  44.185  14.466
96221W        W61448  29.375  14.723   4.394
96222W        W61449  21.204   6.335  13.519
96223W        W61450  21.883   9.764   4.799
96224W        W61451  35.154  12.681   3.038
96225W        W61452  24.166  11.989   4.446
96226W        W61453   6.258  13.363   4.406
96227W        W61454  23.335  38.201   2.216
96228W        W61455  30.956  12.325  13.878
96229W        W61456  12.082   7.780  10.366
96230W        W61457  18.517  29.877   4.507
96231W        W61458  42.553  19.291  12.053
96232W        W61459  19.767  42.861   3.691
96233W        W61460  36.325  39.423  12.961
96234W        W61461  26.470  18.017  11.585
96235W        W61462  36.055  42.325   3.259
96236W        W61463  29.614   1.828  12.395
96237W        W61464  28.954  33.649   0.889
96238W        W61465  23.337  44.691  14.532
96239W        W61466  32.946  28.114   2.723
96240W        W61467   6.175  16.981   0.060
96241W        W61468   7.713  42.800   3.758
96242W        W61469   3.664  33.479   2.845
96243W        W61470  13.666  44.569   0.005
96244W        W61471  43.010   5.974  11.056
96245W        W61472   0.469  11.783   0.885
96246W        W61473   9.897  28.121  13.238
96247W        W61474  40.937  17.618  11.883
96248W        W61475  11.550  26.964   3.285
96249W        W61476  27.688  32.388  14.602
96250W        W61477  17.202  28.456   2.283
96251W        W61478  29.909  22.129  11.759
96252W        W61479  27.632   3.304   3.630
96253W        W61480  10.845  19.165  13.380
96254W        W61481  22.047  43.555   3.354
96255W        W61482  10.624  31.147   2.328
96256W        W61483  42.683  39.785   4.243
96257W        W61484  25.776  18.312  11.170
96258W        W61485  20.042  17.086   3.216
96259W        W61486   9.896   7.343  11.053
96260W        W61487  22.500  23.574  12.850
96261W        W61488  13.873  39.374  14.097
96262W        W61489  10.561  28.495   3.944
96263W        W61490  37.508  44.555   3.676
96264W        W61491  28.536  11.430  12.523
96265W        W61492   4.465  32.975  11.589
96266W        W61493  21.618  44.890  12.045
96267W        W61494  20.853  14.770  11.494
96268W        W61495   7.627  44.572  14.329
96269W        W61496  13.132  32.033  12.141
96270W        W61497  42.202  23.658   0.869
96271W        W61498  10.316  26.736   1.775
96272W        W61499  31.352  16.601   1.305
96273W        W61500  26.029  24.279  12.407
96274W        W61501  20.951  33.941  14.452
96275W        W61502  20.064  17.561   2.411
96276W        W61503  44.928  15.342   1.212
96277W        W61504   5.735   1.101   1.444
96278W        W61505  30.905  29.900   2.885
96279W        W61506  17.735  31.463   1.770
96280W        W61507  39.749  23.077  10.596
96281W        W61508  17.727  34.617   4.471
96282W        W61509  42.902  16.517  11.956
96283W        W61510  35.395  14.844  10.406
96284W        W61511  42.959   4.505  11.717
96285W        W61512  19.430   0.937  14.728
96286W        W61513  25.263  23.736   4.592
96287W        W61514  35.948   5.187   3.891
96288W        W61515  44.730   4.160  12.324
96289W        W61516  27.279  27.310   1.819
96290W        W61517  37.814  16.156   4.719
96291W        W61518  24.873  25.929   2.130
96292W        W61519  18.169  25.117   4.560
96293W        W61520  15.231  15.118   2.665
96294W        W61521  27.741  23.998   4.188
96295W        W61522   7.607  24.112  13.053
96296W        W61523  27.734  12.870  11.031
96297W        W61524  36.501  14.026   1.801
96298W        W61525   9.789  24.759   0.400
96299W        W61526   8.469  24.667   2.774
96300W        W61527  43.554  40.349   4.032
96301W        W61528  13.046  44.924  13.934
96302W        W61529   5.865  15.396   1.011
96303W        W61530  25.733  17.100   4.817
96304W        W61531  38.983   2.512  13.775
96305W        W61532  15.195  30.786   1.858
96306W        W61533  22.923  18.970  14.967
96307W        W61534  10.669  27.622  10.979
96308W        W61535   3.492  32.288   2.609
96309W        W61536  21.311   0.033  10.605
96310W        W61537  16.149  41.492   3.784
96311W        W61538   5.261  38.627   4.416
96312W        W61539  26.092   6.297  11.847
96313W        W61540  12.120  33.697  11.651
96314W        W61541  39.796  39.299   0.550
96315W        W61542  14.240  44.570   1.808
96316W        W61543  21.520  14.665   3.108
96317W        W61544  25.585  42.289   4.659
96318W        W61545  43.722  39.539  13.441
96319W        W61546  36.599  10.626   0.184
96320W        W61547  31.023  17.358  12.095
96321W        W61548  27.179   2.827   4.236
96322W        W61549  20.187  12.612  11.159
96323W        W61550  43.975   7.894   2.478
96324W        W61551  39.979  16.192   2.758
96325W        W61552  27.063   1.262  13.985
96326W        W61553  13.261  35.517  10.028
96327W        W61554  34.005  42.790  13.936
96328W        W61555  44.317  10.515   5.135
96329W        W61556  35.971   1.939   1.769
96330W        W61557  15.301  42.041   0.352
96331W        W61558  23.054  10.210  10.199
96332W        W61559  31.861  33.458  13.219
96333W        W61560   9.698  35.183   0.846
96334W        W61561  21.671   3.820  14.309
96335W        W61562  39.939  42.560   2.414
96336W        W61563  28.854  33.032   4.627
96337W        W61564  26.490   3.393  11.170
96338W        W61565  10.854  23.769   0.048
96339W        W61566   8.868  12.513   5.520
96340W        W61567   2.735  34.968   0.941
96341W        W61568  12.610  34.088  14.479
96342W        W61569  36.318  15.763  14.341
96343W        W61570   6.705  33.939  12.432
96344W        W61571  42.667  16.759   3.183
96345W        W61572  13.350  21.481  11.969
96346W        W61573  32.106  35.317   2.804
96347W        W61574  38.091  23.091   3.633
96348W        W61575  15.841  17.078  13.430
96349W        W61576  34.886   3.451   5.210
96350W        W61577  11.717  15.830  12.060
96351W        W61578   1.740   2.426  11.399
96352W        W61579  27.412  12.147   4.575
96353W        W61580  29.846  33.183  12.824
96354W        W61581  41.712  34.376  12.883
96355W        W61582  21.154  22.056   2.992
96356W        W61583  35.998   2.755   2.416
96357W        W61584   4.264  39.267  10.650
96358W        W61585  40.923  20.202  14.685
96359W        W61586   6.520  38.640   2.881
96360W        W61587  43.831   8.830   0.239
96361W        W61588  39.527   5.554  10.196
96362W        W61589   6.202   1.809   4.521
96363W        W61590  16.022  37.045   1.200
96364W        W61591   0.748   0.053  12.687
96365W        W61592  12.741  20.781  13.788
96366W        W61593  43.349  36.562  10.724
96367W        W61594  20.134   4.036   1.035
96368W        W61595  14.591   7.822  10.740
96369W        W61596  36.127  39.089   4.617
96370W        W61597   2.340  15.181   2.551
96371W        W61598  24.332  11.729  14.091
96372W        W61599  26.921  20.158  14.395
96373W        W61600  42.480   9.601   3.358
96374W        W61601  43.549  31.190   0.282
96375W        W61602  19.064  23.020  13.609
96376W        W61603   6.695  31.714  11.838
96377W        W61604  17.096  24.502  10.746
96378W        W61605  25.634  42.515  11.411
96379W        W61606  24.709  10.698  14.905
96380W        W61607   8.026  43.532   0.894
96381W        W61608  44.449   1.298   3.631
96382W        W61609  44.378   2.202  11.953
96383W        W61610  24.684  24.741   2.271
96384W        W61611  15.553  19.750  13.418
96385W        W61612  20.580   9.844  12.939
96386W        W61613  30.696  34.100   1.035
96387W        W61614  43.292   3.180  14.037
96388W        W61615  22.223  34.335  13.855
96389W        W61616   1.514  29.721   4.153
96390W        W61617  12.670  37.590  12.090
96391W        W61618  41.438  37.338  12.427
96392W        W61619  29.266  10.680   1.383
96393W        W61620   9.771  38.432  11.459
96394W        W61621  16.518  38.789  11.584
96395W        W61622  12.307  32.277   4.272
96396W        W61623  10.825  40.957   2.896
96397W        W61624  41.759   0.678  12.632
96398W        W61625  16.463   7.110   2.257
96399W        W61626   1.240  11.860   3.531
96400W        W61627  42.707  31.104  13.873
96401W        W61628  15.272   8.990   0.378
96402W        W61629  22.926  20.684   3.697
96403W        W61630  37.802  32.528  12.347
96404W        W61631  13.738  41.428  14.934
96405W        W61632  34.848   6.144  11.151
96406W        W61633  17.647  39.697   0.298
96407W        W61634  10.341  28.635  11.636
96408W        W61635  11.807  12.513  11.476
96409W        W61636  32.381  13.423  14.457
96410W        W61637  31.735   4.695  11.208
96411W        W61638  20.739   1.451   3.565
96412W        W61639  20.593  40.315  14.615
96413W        W61640  11.118  25.114   4.775
96414W        W61641  19.747  38.370  14.703
96415W        W61642  37.795   9.829  11.989
96416W        W61643   5.875   9.871   2.314
96417W        W61644   6.647  11.507   3.135
96418W        W61645  17.269  18.948   4.835
96419W        W61646  31.603  16.971  12.962
96420W        W61647  16.162  37.372  12.577
96421W        W61648  30.503  42.764   1.418
96422W        W61649   3.729  42.379  14.486
96423W        W61650  19.868  36.677   0.788
96424W        W61651   2.859   0.764   9.863
96425W        W61652  44.176   2.322  11.493
96426W        W61653  44.070   2.331   2.707
96427W        W61654  42.453  10.583   4.419
96428W        W61655   8.384  20.701   5.010
96429W        W61656  16.307  11.654  12.411
96430W        W61657  31.038  21.723  10.511
96431W        W61658  43.687  34.903  11.688
96432W        W61659  22.362  37.366  12.407
96433W        W61660   6.971  38.459  12.420
96434W        W61661  22.655  40.484   3.645
96435W        W61662  10.872  35.331  12.483
96436W        W61663  27.118  27.628  10.479
96437W        W61664  44.245  25.235   1.705
96438W        W61665  11.189  37.886  11.067
96439W        W61666  34.302  37.793   2.238
96440W        W61667  11.628  28.158   0.706
96441W        W61668  36.840  29.632   1.862
96442W        W61669   9.611  16.395   5.140
96443W        W61670  26.941  16.262   4.534
96444W        W61671  16.252  18.154   3.341
96445W        W61672  23.869  39.210   3.666
96446W        W61673  32.566  43.574   0.262
96447W        W61674  42.310   7.732  11.641
96448W        W61675  12.759   4.649   2.931
96449W        W61676   5.903  11.075  11.698
96450W        W61677  39.486  12.607  11.080
96451W        W61678  42.801   7.426   4.063
96452W        W61679  24.487  29.498  12.930
96453W        W61680  40.442   4.537  12.407
96454W        W61681  16.560  44.279   2.636
96455W        W61682  21.347   5.508  10.498
96456W        W61683   0.717  42.970   9.875
96457W        W61684  13.884   6.364  13.888
96458W        W61685   5.648  39.011   2.895
96459W        W61686  29.974  37.101  12.044
96460W        W61687  44.508   9.137   1.411
96461W        W61688   2.189  38.064   0.905
96462W        W61689  13.358  42.915  11.208
96463W        W61690  40.008  41.063  11.706
96464W        W61691  11.461  13.740  11.650
96465W        W61692  13.148  24.854  12.157
96466W        W61693  29.529   9.614  11.475
96467W        W61694  26.447  22.708  10.672
96468W        W61695  32.627  31.665   2.133
96469W        W61696  32.616  29.468   2.385
96470W        W61697   8.373  25.266  10.694
96471W        W61698  38.245  38.811  10.196
96472W        W61699  22.790  31.462  12.555
96473W        W61700   4.452  36.821   4.531
96474W        W61701  40.969  39.319  11.949
96475W        W61702   7.650  37.865   2.811
96476W        W61703  37.670  20.247  12.628
96477W        W61704  44.466  34.776   3.682
96478W        W61705  30.493  31.861  11.502
96479W        W61706  44.347  31.341   3.863
96480W        W61707  39.154   6.110  11.729
96481W        W61708  20.949  32.421   1.063
96482W        W61709  14.677   9.972  14.860
96483W        W61710   9.944   2.753   2.597
96484W        W61711  27.477  33.642  12.002
96485W        W61712   9.186  36.334  11.176
96486W        W61713  19.542  35.512  12.795
96487W        W61714  27.526  14.781   3.645
96488W        W61715  12.385   4.870   2.155
96489W        W61716  25.658  12.904   2.228
96490W        W61717  14.119   4.144  14.006
96491W        W61718  14.303   6.423  14.950
96492W        W61719  30.670  13.993  14.688
96493W        W61720   5.295   3.649  12.497
96494W        W61721  35.303  12.753   0.818
96495W        W61722  23.072  20.687  14.451
96496W        W61723  25.961  28.124  13.970
96497W        W61724  13.704  16.688  14.307
96498W        W61725  13.708  26.591   3.593
96499W        W61726  20.372  33.908  12.075
96500W        W61727  26.499  26.942   3.583
96501W        W61728   2.034   6.462  12.019
96502W        W61729  19.269  39.962  10.765
96503W        W61730  39.870   9.944  10.796
96504W        W61731  17.081  38.212  11.858
96505W        W61732   3.485  16.098  13.512
96506W        W61733   2.494  43.046   3.197
96507W        W61734  12.076  15.600  11.492
96508W        W61735  14.737  30.278   0.841
96509W        W61736  39.834  28.924  14.513
96510W        W61737  12.383  29.682   3.248
96511W        W61738  21.716  26.139   1.311
96512W        W61739  17.402  26.543   1.204
96513W        W61740   3.762  23.016   2.367
96514W        W61741   3.891  40.543  13.337
96515W        W61742  39.705  42.528  10.848
96516W        W61743  30.010  34.669   3.584
96517W        W61744  44.418  29.882  12.805
96518W        W61745   3.909  14.715  12.473
96519W        W61746  15.311  29.691   2.175
96520W        W61747  15.376   9.484   1.362
96521W        W61748  44.969  40.618  13.870
96522W        W61749  21.844  22.505  11.496
96523W        W61750   1.432  31.312   2.134
96524W        W61751  33.079  43.055   4.216
96525W        W61752  33.415   1.521   1.097
96526W        W61753  20.965  11.020  14.030
96527W        W61754  38.870  33.933  12.450
96528W        W61755  10.479  15.364   0.089
96529W        W61756  18.515  10.589  14.244
96530W        W61757  24.063  27.389   4.156
96531W        W61758  14.837  26.924   4.817
96532W        W61759   6.949  27.363   1.246
96533W        W61760  18.280   0.860   0.877
96534W        W61761  22.080  10.059   0.367
96535W        W61762  20.987   8.787   2.696
96536W        W61763   5.409  41.451   3.256
96537W        W61764  29.003  38.334  13.054
96538W        W61765  30.066  25.699  10.245
96539W        W61766  23.024  20.671   1.713
96540W        W61767  12.894  39.858   4.381
96541W        W61768  44.463   8.672  13.885
96542W        W61769  38.367  37.111  12.002
96543W        W61770  32.551  41.101  12.057
96544W        W61771  44.938  31.889   0.401
96545W        W61772  17.939   3.981  12.040
96546W        W61773  31.516  13.933  10.781
96547W        W61774  34.511  40.448   3.110
96548W        W61775   3.548   9.357  14.303
96549W        W61776  35.374  23.508   1.884
96550W        W61777   1.399  22.579  14.700
96551W        W61778  20.116  44.770  12.964
96552W        W61779  27.620  18.606  11.586
96553W        W61780  29.673  44.704  12.140
96554W        W61781  37.926   3.014   3.314
96555W        W61782  44.873  39.354  12.207
96556W        W61783  34.085  32.122   2.712
96557W        W61784   1.839   4.391   4.569
96558W        W61785   2.753  24.620   2.652
96559W        W61786  43.283  26.821  10.832
96560W        W61787   1.965  17.341   1.141
96561W        W61788  23.107  14.528   2.539
96562W        W61789  15.534  44.914   1.805
96563W        W61790  10.079  20.857   9.936
96564W        W61791  10.782  42.852  13.882
96565W        W61792   5.861  15.669   3.188
96566W        W61793  21.593  40.437  12.799
96567W        W61794   2.978  25.573   3.630
96568W        W61795  28.874  43.364   2.349
96569W        W61796  15.519  25.211   4.082
96570W        W61797  38.731  41.952   2.779
96571W        W61798   3.336   1.866   3.864
96572W        W61799   9.760  13.167   0.839
96573W        W61800   7.435  14.369   1.831
96574W        W61801  17.860  37.880   2.865
96575W        W61802  33.493  34.744   0.488
96576W        W61803  37.639  23.268  11.089
96577W        W61804  29.542  16.398   2.327
96578W        W61805  18.239   0.282  14.749
96579W        W61806  17.919  24.156   2.421
96580W        W61807  36.047  25.840  13.889
96581W        W61808   7.550  26.131  11.375
96582W        W61809  15.370   6.145   0.758
96583W        W61810   5.160  20.782   3.598
96584W        W61811   5.507  33.671   2.282
96585W        W61812  12.649  27.512   0.896
96586W        W61813  18.551   4.703   4.646
96587W        W61814   4.006  42.793  12.391
96588W        W61815  21.791   3.412   0.734
96589W        W61816  34.046  24.608   0.340
96590W        W61817  37.959  35.575  13.958
96591W        W61818   9.859  34.930   2.772
96592W        W61819   7.323   0.033   2.430
96593W        W61820  32.467   0.822   0.462
96594W        W61821  26.731  24.977   2.726
96595W        W61822  35.059   1.945   1.240
96596W        W61823  24.147  26.670  12.099
96597W        W61824  34.394  28.014  13.299
96598W        W61825  20.503  32.262   1.284
96599W        W61826  36.402  41.194  10.444
96600W        W61827  22.112  25.686  11.649
96601W        W61828  44.610   0.404   2.493
96602W        W61829   6.112   9.129  13.888
96603W        W61830   1.306  43.889   0.942
96604W        W61831  42.156  28.116   2.648
96605W        W61832  37.489  20.452  14.873
96606W        W61833  30.621   0.804  14.496
96607W        W61834   8.373  40.832  11.206
96608W        W61835  29.949  24.455  12.060
96609W        W61836   9.159   6.141   2.816
96610W        W61837  17.113   9.863   3.382
96611W        W61838  27.090  19.706  14.203
96612W        W61839   0.561   4.436   0.844
96613W        W61840  11.831  22.105   2.162
96614W        W61841  10.857   0.975   1.604
96615W        W61842   1.204   2.099  12.049
96616W        W61843   5.259  18.240   2.853
96617W        W61844  44.853  14.600  14.810
96618W        W61845  11.727  36.500   1.238
96619W        W61846  26.667  26.446  14.076
96620W        W61847  31.464  22.076  11.218
96621W        W61848  23.183  21.368  13.471
96622W        W61849  17.223   1.722  14.347
96623W        W61850  30.085  28.276  12.990
96624W        W61851  35.640  44.898  12.444
96625W        W61852   6.128  19.580  12.963
96626W        W61853   4.617  14.889  10.759
96627W        W61854   3.813  27.594   2.635
96628W        W61855  43.888  39.617  11.653
96629W        W61856  35.494   4.300   1.352
96630W        W61857  42.982  36.450   2.726
96631W        W61858  44.831  15.600  14.874
96632W        W61859  42.322  16.190   1.495
96633W        W61860   9.849   6.953  14.336
96634W        W61861  28.627  18.308   2.155
96635W        W61862  38.983  21.530  13.919
96636W        W61863  37.943  34.657  13.994
96637W        W61864  12.617  41.758  11.192
96638W        W61865   4.942  28.521   3.171
96639W        W61866  16.216   1.366   0.318
96640W        W61867   9.940   7.469  12.985
96641W        W61868  18.369  21.512   3.657
96642W        W61869  14.566  28.948  14.940
96643W        W61870  31.934  34.882   1.623
96644W        W61871  20.654   0.492  12.786
96645W        W61872  30.847  22.121  11.261
96646W        W61873  29.314  39.118  14.304
96647W        W61874  10.241  22.935   2.633
96648W        W61875  15.308   3.782  12.140
96649W        W61876  25.682  23.118  11.615
96650W        W61877  31.552   7.640  13.862
96651W        W61878  31.148  24.792  11.692
96652W        W61879  12.441  42.289  14.211
96653W        W61880  26.623   3.812   2.628
96654W        W61881   4.886  44.940  13.391
96655W        W61882  41.004  24.473  12.503
96656W        W61883  39.595  14.973  13.467
96657W        W61884   7.280  44.512   2.396
96658W        W61885   8.787  13.877   2.132
96659W        W61886  30.502  23.235  11.633
96660W        W61887  16.409   2.881   1.749
96661W        W61888  34.028   4.172   3.095
96662W        W61889  35.985   9.141  11.116
96663W        W61890  14.023  10.739  10.717
96664W        W61891  13.236  29.655  12.349
96665W        W61892  35.517  35.492   4.238
96666W        W61893  15.535   6.378   1.727
96667W        W61894  27.031   7.771   4.375
96668W        W61895  24.764  24.160   4.067
96669W        W61896  40.446  35.552   3.089
96670W        W61897  17.220  33.913   4.347
96671W        W61898   9.159  32.511   4.185
96672W        W61899  12.075  10.575   0.722
96673W        W61900   5.349  41.876   0.316
96674W        W61901  41.932  15.841   1.876
96675W        W61902  32.810  29.605  13.892
96676W        W61903  16.699  37.369  11.369
96677W        W61904  34.011  37.594   2.647
96678W        W61905  42.544   5.359  14.299
96679W        W61906  12.619  14.873  11.990
96680W        W61907   4.295  42.504   2.334
96681W        W61908   8.351  34.006   1.309
96682W        W61909  29.237  35.263  13.130
96683W        W61910  31.669  41.393   1.197
96684W        W61911  37.645  22.083   2.234
96685W        W61912  14.280  22.736  12.868
96686W        W61913  41.530  37.327   4.344
96687W        W61914  16.641  34.399  12.349
96688W        W61915  34.298  26.910  12.829
96689W        W61916  43.529  15.751  13.044
96690W        W61917  41.070  37.903   2.738
96691W        W61918  27.625  34.563  14.322
96692W        W61919  37.093  43.049   3.195
96693W        W61920  30.920   9.671  12.568
96694W        W61921   4.288   2.170   0.819
96695W        W61922   6.336  35.467   1.473
96696W        W61923  36.349  33.930  11.017
96697W        W61924  10.686   1.207   4.290
96698W        W61925  30.983  40.511  13.076
96699W        W61926  16.222  12.987   1.439
96700W        W61927   2.722   2.977  10.280
96701W        W61928   5.471   3.836  14.328
96702W        W61929  32.062  31.328  11.561
96703W        W61930  21.452  30.198  12.230
96704W        W61931   0.959  36.173   4.540
96705W        W61932   5.301  40.973   4.183
96706W        W61933  44.478   6.781   3.134
96707W        W61934  23.851  13.058   3.274
96708W        W61935  38.527  18.704   4.129
96709W        W61936   6.189  35.955   5.371
96710W        W61937  37.536  15.638   1.152
96711W        W61938   9.134  18.192   0.926
96712W        W61939  39.937  35.624  12.896
96713W        W61940  23.719  30.113  14.494
96714W        W61941  15.127  20.032  10.676
96715W        W61942  39.568   6.307   1.806
96716W        W61943  34.551   7.932   4.485
96717W        W61944  12.695  36.512  13.899
96718W        W61945  32.057  22.276  11.030
96719W        W61946  10.884  22.740  10.647
96720W        W61947  42.684  37.243  11.140
96721W        W61948  21.101  19.562  12.344
96722W        W61949  15.704  11.599  12.909
96723W        W61950   1.364   1.462   3.890
96724W        W61951  34.863  36.435   5.645
96725W        W61952  43.061   9.332  11.307
96726W        W61953  31.995  20.196  11.537
96727W        W61954   2.978  21.173   5.044
96728W        W61955   9.308  35.549  11.593
96729W        W61956  34.042   7.514  14.424
96730W        W61957  39.827  29.207   1.014
96731W        W61958  10.247   7.929   1.768
96732W        W61959  31.679  33.013  14.000
96733W        W61960   2.088  16.132   1.297
96734W        W61961  10.231  35.973   0.444
96735W        W61962  20.911  30.757  13.517
96736W        W61963  36.890  33.072   0.460
96737W        W61964  44.596   3.433  10.726
96738W        W61965  43.823  32.337   2.640
96739W        W61966  43.406  38.601  10.663
96740W        W61967   9.450   2.761   2.438
96741W        W61968  11.272  25.639   3.260
96742W        W61969  39.420   3.169  14.825
96743W        W61970  15.551  20.307   4.146
96744W        W61971  37.334  10.628  14.480
96745W        W61972  11.163   9.729  13.760
96746W        W61973  14.316  14.113   0.781
96747W        W61974  31.370   9.570   4.640
96748W        W61975   4.209  32.692  12.031
96749W        W61976  43.362  29.515  14.077
96750W        W61977  20.055  16.475  11.420
96751W        W61978  33.261  28.776   1.921
96752W        W61979  22.986  10.542  11.443
96753W        W61980  17.596   4.266   2.631
96754W        W61981  32.339  33.112   4.791
96755W        W61982  29.922  41.450  10.431
96756W        W61983  41.774  11.815   0.208
96757W        W61984  11.514   3.290  12.841
96758W        W61985  29.212   0.422  14.014
96759W        W61986  38.901   9.176   1.957
96760W        W61987   1.977  12.548  12.801
96761W        W61988  21.660   4.373   4.063
96762W        W61989  17.280  32.889   3.347
96763W        W61990   8.185  33.460   2.413
96764W        W61991   3.012  40.626  13.444
96765W        W61992  35.027  36.828  11.449
96766W        W61993  22.044   7.684   0.388
96767W        W61994  36.557  11.347  14.480
96768W        W61995  21.750  10.600   2.659
96769W        W61996  18.673  21.037   3.982
96770W        W61997  12.847  14.728  11.565
96771W        W61998  18.808  42.224  11.667
96772W        W61999  30.879   7.377  11.743
96773W        W62000   8.761  28.865   0.356
96774W        W62001  44.388   9.852  12.935
96775W        W62002  21.679  15.373   3.743
96776W        W62003  14.687  36.416   4.618
96777W        W62004   2.205   8.199  14.761
96778W        W62005  44.422  42.018  12.454
96779W        W62006  23.872   2.923   1.794
96780W        W62007  37.016  44.744  13.634
96781W        W62008  11.104  41.878  14.401
96782W        W62009  19.349  11.586   4.101
96783W        W62010  33.016  43.814  12.459
96784W        W62011  29.483  18.557  12.056
96785W        W62012  21.203  30.712   4.299
96786W        W62013   6.863   6.364   1.664
96787W        W62014  39.223  31.108   4.981
96788W        W62015  25.439  29.040  13.846
96789W        W62016  17.085   8.648  14.767
96790W        W62017  27.519  15.660   4.982
96791W        W62018   2.345  43.219  13.827
96792W        W62019   6.335  18.879  14.756
96793W        W62020  27.520  23.925  12.564
96794W        W62021  44.381  43.748  13.913
96795W        W62022   6.881  31.053  14.283
96796W        W62023  23.402  44.294   4.153
96797W        W62024  15.673   4.108   0.949
96798W        W62025  25.207   9.627   3.591
96799W        W62026  37.897  40.917  14.957
96800W        W62027  43.622   5.413  13.508
96801W        W62028  38.090  25.029  10.968
96802W        W62029  11.601  38.440  12.597
96803W        W62030  24.646  41.929   3.525
96804W        W62031  23.067  13.678  10.734
96805W        W62032  33.534   6.996  13.945
96806W        W62033  19.623  35.374  12.305
96807W        W62034  40.583  41.777   3.268
96808W        W62035  24.099  21.203  14.937
96809W        W62036  35.835  41.568   3.682
96810W        W62037  35.081  10.075  13.188
96811W        W62038  42.400   5.008  10.690
96812W        W62039  43.421  36.299   0.626
96813W        W62040  27.500  26.126  11.152
96814W        W62041  24.127   1.295   4.389
96815W        W62042   3.350  33.998   2.785
96816W        W62043  12.332  11.873  12.378
96817W        W62044  10.832  35.626  12.913
96818W        W62045  43.302  11.719   2.773
96819W        W62046  13.593  39.545  12.065
96820W        W62047  21.567  24.772  10.822
96821W        W62048   5.808  34.058   0.959
96822W        W62049  33.854  33.925  12.077
96823W        W62050  17.810  29.638   3.288
96824W        W62051  40.030  21.994  13.958
96825W        W62052  41.204  21.839  13.555
96826W        W62053  37.615   3.420  14.918
96827W        W62054   4.943  23.842   0.025
96828W        W62055  15.389  25.606  10.455
96829W        W62056  30.744  16.590  12.339
96830W        W62057  14.595  22.794   3.382
96831W        W62058  42.874  20.221   0.258
96832W        W62059  20.999   2.249  14.150
96833W        W62060  14.172  32.929  12.667
96834W        W62061  43.770  41.863   0.325
96835W        W62062  25.091  11.988  11.661
96836W        W62063   0.976  38.854   2.591
96837W        W62064  34.886  25.292  11.249
96838W        W62065  23.880   7.919   3.189
96839W        W62066  44.677  18.759   0.304
96840W        W62067  19.639  18.774  11.996
96841W        W62068  44.369  39.977  13.649
96842W        W62069   3.709  30.875   4.182
96843W        W62070  24.549  13.286  12.616
96844W        W62071  31.701   8.855  13.871
96845W        W62072  31.510  26.027   2.571
96846W        W62073  27.531  41.947  11.708
96847W        W62074  44.714  15.246  12.459
96848W        W62075  19.241   1.900   4.558
96849W        W62076  25.969  14.675  11.082
96850W        W62077  40.802  22.246  12.562
96851W        W62078  25.187  33.610   1.654
96852W        W62079  30.817   5.843   2.779
96853W        W62080  16.728  33.086  14.013
96854W        W62081  31.477   9.492   1.755
96855W        W62082  31.268  44.914  10.750
96856W        W62083  36.069   0.445  13.985
96857W        W62084  20.544  39.809   3.330
96858W        W62085  17.612  32.555   3.929
96859W        W62086  20.600  43.766  11.118
96860W        W62087   8.908  22.825  12.552
96861W        W62088  40.446   8.099  14.864
96862W        W62089  36.035  39.289  14.872
96863W        W62090   1.141   8.528   1.688
96864W        W62091  34.980  43.355   1.299
96865W        W62092  21.617  38.409   3.786
96866W        W62093   2.964   4.091  12.047
96867W        W62094  40.378  11.857  12.507
96868W        W62095  25.529   9.561   2.973
96869W        W62096  25.163  12.218  13.475
96870W        W62097  29.893   8.722   1.347
96871W        W62098  25.108  32.321  14.342
96872W        W62099  28.292  38.321  11.168
96873W        W62100  28.599  11.935  12.326
96874W        W62101  25.533   4.871  11.530
96875W        W62102  29.232  30.166  11.094
96876W        W62103   9.102  34.858  10.952
96877W        W62104   0.935   6.852   3.215
96878W        W62105  33.004   9.756  11.037
96879W        W62106  30.689  33.712  10.571
96880W        W62107  34.956  35.858  14.244
96881W        W62108   6.499   0.938  12.697
96882W        W62109  29.216   6.587   2.428
96883W        W62110  39.475  17.520  11.568
96884W        W62111  24.939  28.074  13.753
96885W        W62112  14.997  37.371   0.022
96886W        W62113  13.500  40.086  11.012
96887W        W62114  43.426  14.684   3.098
96888W        W62115  14.252  12.265  14.409
96889W        W62116   3.285   5.252   0.847
96890W        W62117  22.891  41.458  10.314
96891W        W62118   8.613  25.576   4.372
96892W        W62119  28.934  12.196  11.005
96893W        W62120  34.517  44.954   2.998
96894W        W62121   6.671  14.483  10.787
96895W        W62122  10.232  19.652  10.430
96896W        W62123  43.637  10.956   0.965
96897W        W62124  16.552  34.946   0.814
96898W        W62125  23.156  37.323  14.847
96899W        W62126  14.806  43.338  13.943
96900W        W62127  19.683   6.923   4.854
96901W        W62128   9.300  21.022   4.581
96902W        W62129  44.345  39.904   2.182
96903W        W62130  42.759  10.147  13.924
96904W        W62131   1.529   2.304  12.402
96905W        W62132  12.890  12.816   0.800
96906W        W62133  24.097  42.528   3.196
96907W        W62134   1.903  19.489  12.644
96908W        W62135  37.418  22.401   3.477
96909W        W62136  20.538  34.943  13.282
96910W        W62137   1.187   5.312  11.215
96911W        W62138  14.003  14.243  12.975
96912W        W62139  42.030  31.425   3.525
96913W        W62140  24.932  19.267  14.930
96914W        W62141  36.094  13.603   4.662
96915W        W62142  21.762  41.580  14.085
96916W        W62143  40.101   7.499   5.535
96917W        W62144   4.078  40.872  12.586
96918W        W62145  23.298  37.597  13.855
96919W        W62146   1.544  34.131  10.845
96920W        W62147  23.309  14.688   2.106
96921W        W62148  15.214   2.891   0.324
96922W        W62149  24.109  26.210  11.780
96923W        W62150  42.621  27.429  13.006
96924W        W62151  14.252  19.149   0.366
96925W        W62152  32.456  20.347  12.133
96926W        W62153  11.355  27.033   2.787
96927W        W62154  41.948   4.892   2.432
96928W        W62155  15.252  39.971  12.936
96929W        W62156  27.209  17.224  11.560
96930W        W62157  34.387   4.409   2.364
96931W        W62158  21.796  13.442  11.663
96932W        W62159  18.151  11.839   4.730
96933W        W62160  21.274  33.902   3.208
96934W        W62161   6.682  39.837  13.578
96935W        W62162  15.649  30.220   4.134
96936W        W62163   7.428  10.363   2.308
96937W        W62164  30.718  18.772  13.570
96938W        W62165  34.071  15.657  14.369
96939W        W62166  41.788  43.370  14.837
96940W        W62167   0.161  20.098   0.275
96941W        W62168  12.128  29.489   3.642
96942W        W62169  25.153   1.498  13.493
96943W        W62170  22.920   5.380   4.377
96944W        W62171  35.077  22.213  13.032
96945W        W62172   8.320  36.656  12.415
96946W        W62173  15.374  32.071  12.386
96947W        W62174   8.216  16.502   3.563
96948W        W62175   8.716   9.951  11.617
96949W        W62176  33.467  32.180  12.948
96950W        W62177  35.272  30.840  11.973
96951W        W62178  19.698  40.000   3.631
96952W        W62179  36.265  34.941  12.964
96953W        W62180  22.700  31.447   2.465
96954W        W62181  36.635  25.629   4.637
96955W        W62182  34.470  38.497  11.504
96956W        W62183  36.448  17.238   4.102
96957W        W62184  40.571  20.106   1.882
96958W        W62185   5.965  31.085   2.312
96959W        W62186  31.044  26.723  11.571
96960W        W62187  38.467   4.861   5.130
96961W        W62188  13.193  37.033   2.289
96962W        W62189  28.897  10.222  13.984
96963W        W62190  28.982  43.047  11.065
96964W        W62191   5.219  28.424  12.910
96965W        W62192   1.917  34.880  14.313
96966W        W62193  36.749  18.791  14.589
96967W        W62194  12.563  12.710   2.210
96968W        W62195  15.832  19.114  13.941
96969W        W62196  34.510   9.307   1.267
96970W        W62197  12.448  33.216  11.523
96971W        W62198  31.944  14.182   1.264
96972W        W62199  37.210   4.885   5.137
96973W        W62200  36.449  34.090   1.095
96974W        W62201  34.727  26.437  14.429
96975W        W62202   1.071  37.155   2.869
96976W        W62203  19.422  20.446  14.832
96977W        W62204   8.348  22.704  13.318
96978W        W62205   8.112  35.350   0.476
96979W        W62206   6.197  16.727   2.778
96980W        W62207   8.732  37.169  10.745
96981W        W62208  32.660  16.541   3.633
96982W        W62209  36.435  29.041  14.334
96983W        W62210  39.740  31.632  13.564
96984W        W62211  39.763  41.133   1.817
96985W        W62212   3.161  19.530  10.307
96986W        W62213   5.688  18.592  10.226
96987W        W62214   4.288  43.602   3.077
96988W        W62215  32.865  34.359  12.841
96989W        W62216   9.798  10.662   2.250
96990W        W62217  14.243  33.455   1.395
96991W        W62218   9.377  44.374  11.555
96992W        W62219  20.108  26.893   1.303
96993W        W62220  39.516   8.626   9.836
96994W        W62221  38.460   5.366  12.298
96995W        W62222  26.467  24.095   0.193
96996W        W62223   5.784  25.523  12.865
96997W        W62224   2.619  27.705  14.344
96998W        W62225   8.471  39.615  12.487
96999W        W62226  23.976  12.206   0.790
97000W        W62227  11.281   5.757   1.504
97001W        W62228  14.536  22.517  11.991
97002W        W62229   5.956  24.093  14.456
97003W        W62230  32.411  12.708   1.945
97004W        W62231  21.307  28.931  11.053
97005W        W62232  34.158  21.572  11.414
97006W        W62233  27.090  18.687   4.716
97007W        W62234   7.622  41.221  11.115
97008W        W62235   3.944  27.010  12.494
97009W        W62236  44.364  26.106  12.497
97010W        W62237   0.321  10.939  13.556
97011W        W62238  16.272  25.054  11.551
97012W        W62239   3.763  13.860   2.334
97013W        W62240  11.358  36.914  12.756
97014W        W62241  33.683  36.564  11.678
97015W        W62242  10.623  20.651  12.130
97016W        W62243  16.287   6.513   2.736
97017W        W62244   0.212  26.579  11.707
97018W        W62245  44.510  44.263   5.178
97019W        W62246  16.158  16.045  11.019
97020W        W62247  10.734  43.231   1.586
97021W        W62248  39.618  22.666  11.246
97022W        W62249  25.012  36.410   1.441
97023W        W62250  21.076  31.649   0.210
97024W        W62251  33.089  39.468  12.420
97025W        W62252   1.938  38.861  12.825
97026W        W62253  25.664  43.362  13.307
97027W        W62254  44.372  27.652   1.673
97028W        W62255   2.719   8.857   3.807
97029W        W62256  17.951   5.697  11.383
97030W        W62257  20.484  41.385   0.480
97031W        W62258  33.589  16.905  10.188
97032W        W62259  12.440  23.258  11.147
97033W        W62260  12.633  43.397  13.545
97034W        W62261  10.340   3.036   2.357
97035W        W62262  27.999  33.631  12.219
97036W        W62263   9.891  30.974  10.406
97037W        W62264   4.936  21.024   0.400
97038W        W62265   6.439  42.553   3.186
97039W        W62266  36.342  17.684  14.509
97040W        W62267  42.015  44.328  13.062
97041W        W62268   3.568  29.796  13.394
97042W        W62269   1.588  25.152  14.467
97043W        W62270  10.390  10.913  11.161
97044W        W62271   5.300  13.077   3.951
97045W        W62272  19.119  41.499   0.696
97046W        W62273  15.649  37.206  10.094
97047W        W62274  21.516  25.550   1.729
97048W        W62275  29.037  19.732   0.514
97049W        W62276  33.769  32.127   0.459
97050W        W62277  19.127   2.065   2.197
97051W        W62278   6.805  16.588  10.284
97052W        W62279  37.466  37.630  11.042
97053W        W62280  28.438  38.875   1.495
97054W        W62281  44.784   5.487   2.819
97055W        W62282  40.871  17.593  14.697
97056W        W62283   6.231   6.076  11.675
97057W        W62284  40.324   0.527  12.398
97058W        W62285  39.194   5.241   4.572
97059W        W62286  19.152  31.253   0.806
97060W        W62287  30.116   4.857  12.090
97061W        W62288  31.668  31.949   3.368
97062W        W62289  18.218   6.380  13.822
97063W        W62290  23.153  10.876   4.062
97064W        W62291  40.952  35.106   4.804
97065W        W62292   8.600  30.482   1.875
97066W        W62293  40.314  13.038   1.888
97067W        W62294  18.637  30.553  13.752
97068W        W62295   5.183  23.727  12.570
97069W        W62296   9.402  11.952  10.011
97070W        W62297  17.107  21.094  12.418
97071W        W62298  16.668  33.826  14.962
97072W        W62299  27.081  17.619   3.669
97073W        W62300   8.937  17.524   0.774
97074W        W62301  22.155  35.916  12.874
97075W        W62302  14.047  16.795  11.608
97076W        W62303  27.084  40.368   2.806
97077W        W62304  38.631  23.750  10.560
97078W        W62305  11.344  10.064  14.427
97079W        W62306  42.041  33.479   0.727
97080W        W62307  34.043  40.884   1.880
97081W        W62308  13.175   8.224   0.512
97082W        W62309  42.648  12.143   4.187
97083W        W62310   7.815  26.134  14.835
97084W        W62311  22.614   9.735  11.253
97085W        W62312  34.720   8.061   0.487
97086W        W62313  29.939  18.704   3.161
97087W        W62314  15.841  32.546   2.353
97088W        W62315   4.260  28.891  11.908
97089W        W62316  25.742  40.913   1.279
97090W        W62317  42.547   4.211  11.119
97091W        W62318  12.623  33.720   4.487
97092W        W62319  22.963  20.558   2.802
97093W        W62320   3.497  22.525  10.036
97094W        W62321  32.826  33.793  14.980
97095W        W62322  35.567  26.628  14.097
97096W        W62323  21.784  24.215   1.879
97097W        W62324  42.861  22.203  13.038
97098W        W62325   5.857  43.579   0.949
97099W        W62326  18.582  43.236   2.383
97100W        W62327   0.881   1.717  11.955
97101W        W62328  15.818  35.489   1.217
97102W        W62329  11.728  16.980  10.701
97103W        W62330  10.935   0.314  13.862
97104W        W62331   0.198  18.532   4.107
97105W        W62332  35.105  41.197   2.422
97106W        W62333  27.637  31.117   4.333
97107W        W62334  13.263  44.207  14.996
97108W        W62335  21.056  27.316  10.447
97109W        W62336  14.116   2.737   2.209
97110W        W62337  30.702  33.045  12.667
97111W        W62338  21.681  34.839   4.863
97112W        W62339   7.344  29.560  12.453
97113W        W62340  31.843  44.768  12.484
97114W        W62341  18.567  26.981  10.808
97115W        W62342  15.689   1.062  11.143
97116W        W62343  43.204  30.442  12.478
97117W        W62344  26.439  21.149  13.125
97118W        W62345  41.126  31.648  14.923
97119W        W62346  17.836  31.066  14.502
97120W        W62347  39.767   6.281   3.644
97121W        W62348   0.237  34.985   3.325
97122W        W62349  42.656  43.493  12.593
97123W        W62350  43.590  26.526  11.579
97124W        W62351  44.095  40.560  12.698
97125W        W62352  19.619   7.551  13.843
97126W        W62353   7.877   7.337  10.892
97127W        W62354  21.274  31.084  11.402
97128W        W62355  23.675  36.827   1.025
97129W        W62356  25.708  35.578   1.381
97130W        W62357  33.920   4.221  14.857
97131W        W62358   6.894  37.718   4.137
97132W        W62359  43.995   7.629  14.318
97133W        W62360   0.559  33.776   3.980
97134W        W62361   9.785  25.265   0.317
97135W        W62362  41.260  36.452   3.739
97136W        W62363  38.754  14.598   9.687
97137W        W62364  17.094  35.039   2.931
97138W        W62365  37.980  38.876   0.213
97139W        W62366  44.792  38.548  10.384
97140W        W62367  44.861   3.098  11.011
97141W        W62368  14.620  32.088  12.895
97142W        W62369  40.349  38.378   0.478
97143W        W62370  17.129  43.401  13.799
97144W        W62371  25.212   4.889   1.371
97145W        W62372   6.441  12.325   2.227
97146W        W62373  29.090  29.335  13.813
97147W        W62374  26.384  12.391   4.539
97148W        W62375   2.703  29.906   3.681
97149W        W62376  38.889  30.924  10.344
97150W        W62377  30.142  34.628   1.258
97151W        W62378  23.439   3.953   0.889
97152W        W62379  42.552   2.892   4.199
97153W        W62380  39.972  32.150  11.109
97154W        W62381  19.318   7.950  14.010
97155W        W62382  11.179   6.789   3.699
97156W        W62383   9.605   1.505   3.110
97157W        W62384  44.855   7.870  14.178
97158W        W62385  25.185  23.509  13.868
97159W        W62386  32.919   3.650   3.678
97160W        W62387  40.327  20.650  12.126
97161W        W62388   8.392   1.634   3.684
97162W        W62389  42.275  41.654   4.050
97163W        W62390  35.746  23.683  14.086
97164W        W62391   8.396  33.090   1.637
97165W        W62392  29.579  30.679   2.189
97166W        W62393  34.190  28.511  13.977
97167W        W62394  18.728  14.206  11.285
97168W        W62395  34.954  28.766  13.328
97169W        W62396  36.061  44.250   0.302
97170W        W62397   2.204  41.566   2.785
97171W        W62398  32.729  12.701   1.525
97172W        W62399  44.290   4.526  14.479
97173W        W62400  22.829  26.147  11.228
97174W        W62401  13.407  43.830  13.029
97175W        W62402  42.969  20.710   0.107
97176W        W62403  44.078  15.859  14.331
97177W        W62404  23.329  29.654  11.912
97178W        W62405  37.658  36.045  13.796
97179W        W62406  17.100  38.164  11.179
97180W        W62407   7.849  27.708   0.349
97181W        W62408  37.390   6.801  11.554
97182W        W62409   8.602  39.900  13.537
97183W        W62410   9.680  14.559  14.869
97184W        W62411  28.536  11.843  12.823
97185W        W62412  32.743  11.550  14.555
97186W        W62413   8.785  31.571  13.071
97187W        W62414  41.878  17.147  13.644
97188W        W62415  27.412  19.154  12.486
97189W        W62416  10.660   0.315   2.870
97190W        W62417  34.040  31.455   1.766
97191W        W62418   6.611  37.488  11.492
97192W        W62419  36.118  42.988   1.914
97193W        W62420  18.832  30.088   3.660
97194W        W62421   7.175  11.765   0.298
97195W        W62422  40.594  19.117   3.751
97196W        W62423  27.049  36.312   2.724
97197W        W62424  16.336  27.528  11.955
97198W        W62425   8.150  12.169  14.040
97199W        W62426  34.804   2.689  11.077
97200W        W62427  25.692   1.257   1.638
97201W        W62428   9.223  18.718   1.724
97202W        W62429  27.455  44.461   0.086
97203W        W62430  31.119   5.316   1.390
97204W        W62431  35.546  44.043   0.348
97205W        W62432  41.248  21.276  13.750
97206W        W62433   5.762  16.883  11.622
97207W        W62434  26.608  33.108  12.178
97208W        W62435  21.500   9.979  14.422
97209W        W62436  23.208  23.166  13.893
97210W        W62437  19.335  24.918  10.925
97211W        W62438  17.066  42.513   3.625
97212W        W62439  34.764  39.417   0.612
97213W        W62440  27.267  11.463  13.997
97214W        W62441  21.517  38.971  11.525
97215W        W62442  39.062  37.264   3.705
97216W        W62443  28.615   7.636   4.656
97217W        W62444  10.158   4.380   3.874
97218W        W62445  11.739  25.919   3.308
97219W        W62446  22.097   1.039  13.415
97220W        W62447  31.826  22.699   3.309
97221W        W62448   2.023  24.765  12.046
97222W        W62449  10.150  18.545   1.834
97223W        W62450  39.930   6.683  12.116
97224W        W62451  29.961   2.903   4.621
97225W        W62452  41.819  26.965   2.720
97226W        W62453  18.123  27.567   1.986
97227W        W62454  10.407  42.939   0.018
97228W        W62455   1.420  27.913  12.498
97229W        W62456  44.311  41.845   4.682
97230W        W62457   8.652  24.194   2.794
97231W        W62458  37.678  20.691  12.313
97232W        W62459  26.174   8.747   5.392
97233W        W62460   5.703   8.789   3.331
97234W        W62461  36.522  11.068  12.032
97235W        W62462   5.375  39.523   4.049
97236W        W62463  44.687   4.526  11.354
97237W        W62464   1.092  28.617   4.047
97238W        W62465  32.687  20.111   0.145
97239W        W62466  10.233  25.564   3.346
97240W        W62467   8.448  33.438  12.070
97241W        W62468  44.407  38.708  13.474
97242W        W62469  24.155  28.552   3.707
97243W        W62470  12.777  21.995  14.780
97244W        W62471  10.944  22.249  11.346
97245W        W62472  11.079  10.737  12.936
97246W        W62473  24.037  22.410   1.393
97247W        W62474  35.480  22.131  13.387
97248W        W62475   7.407  38.407   4.366
97249W        W62476  31.386  41.304  14.791
97250W        W62477  37.793  27.471  14.021
97251W        W62478   9.620  14.774  14.033
97252W        W62479   5.959  18.557  12.009
97253W        W62480  16.831  33.147  12.918
97254W        W62481   2.938  22.158   2.377
97255W        W62482  36.562  10.579  12.947
97256W        W62483  14.679  30.212  11.574
97257W        W62484   5.134  15.579   4.653
97258W        W62485   7.227  13.106  11.834
97259W        W62486  21.545  10.465  11.202
97260W        W62487  13.569  42.298  11.901
97261W        W62488  32.671  32.225  11.132
97262W        W62489  27.627   2.253  11.460
97263W        W62490  15.970  39.542  13.055
97264W        W62491  19.002   9.399   3.370
97265W        W62492  24.565  22.279  10.662
97266W        W62493  32.088   1.671   1.333
97267W        W62494  34.976  10.797   4.674
97268W        W62495  29.797  13.883   2.724
97269W        W62496  27.436   3.918   0.936
97270W        W62497  32.297   2.511   3.125
97271W        W62498  32.053  18.627  14.350
97272W        W62499  13.360   5.579  11.162
97273W        W62500  34.922  22.162   2.751
97274W        W62501   9.208  24.274   3.792
97275W        W62502  25.518  21.920  14.577
97276W        W62503  40.460  22.619   3.381
97277W        W62504   0.653  17.843  14.968
97278W        W62505  31.544  37.638   0.728
97279W        W62506  26.478  19.837  10.953
97280W        W62507  29.832   4.953  12.517
97281W        W62508   2.760   2.622   3.832
97282W        W62509   1.961  13.644   0.929
97283W        W62510  28.447  41.985   1.750
97284W        W62511  16.347  23.740  11.187
97285W        W62512  28.172  14.724  11.421
97286W        W62513  29.038  40.237   1.940
97287W        W62514  33.117  16.663  13.769
97288W        W62515   9.208  41.724   2.298
97289W        W62516  10.932  38.915   1.920
97290W        W62517  44.009  13.141   3.599
97291W        W62518   4.420  41.109  14.854
97292W        W62519   0.750  44.874  14.613
97293W        W62520  22.943   3.040   0.827
97294W        W62521  41.747  32.576   4.218
97295W        W62522  16.055  35.510   4.331
97296W        W62523   6.972  31.029   1.287
97297W        W62524   7.905  40.134  12.045
97298W        W62525  39.015  25.653  11.623
97299W        W62526   6.689  30.480   3.300
97300W        W62527   9.254  14.313   4.844
97301W        W62528   8.806  24.020   3.274
97302W        W62529  42.017  36.632   4.184
97303W        W62530  20.582  12.735  13.968
97304W        W62531  38.496  19.313   2.933
97305W        W62532  29.993  39.212  12.990
97306W        W62533  23.892  36.713   2.167
97307W        W62534  34.031   5.507  10.667
97308W        W62535  16.688   6.863  12.034
97309W        W62536  40.125   2.377   1.699
97310W        W62537  42.150  18.521   4.092
97311W        W62538  13.642  34.830  12.895
97312W        W62539   9.775  23.837  10.771
97313W        W62540   0.280  40.991  11.543
97314W        W62541  26.453  24.066   1.258
97315W        W62542  34.540  10.861   1.194
97316W        W62543  18.092  36.314   2.172
97317W        W62544  42.261  35.387  11.594
97318W        W62545  42.727   5.387   2.297
97319W        W62546   1.729   5.092   3.189
97320W        W62547  28.941  38.037  11.628
97321W        W62548  22.965  14.665  14.456
97322W        W62549  33.598  33.903  13.276
97323W        W62550  40.558  37.460   4.570
97324W        W62551   8.319  10.330  12.488
97325W        W62552  38.721  22.563   4.958
97326W        W62553  28.864  14.833   4.555
97327W        W62554   5.412  33.308   1.884
97328W        W62555   2.874  23.566   1.676
97329W        W62556  44.353  42.525  12.633
97330W        W62557  38.751  24.498  12.519
97331W        W62558  14.327   2.109  11.599
97332W        W62559  44.055  19.025  10.516
97333W        W62560  43.658  30.022  10.466
97334W        W62561  43.211   9.407   0.204
97335W        W62562  15.853  43.736  11.094
97336W        W62563   4.000  20.973   1.912
97337W        W62564   4.195  31.079   3.310
97338W        W62565  17.118  31.437   0.450
97339W        W62566  23.217  18.006  14.873
97340W        W62567  17.213  37.586   2.763
97341W        W62568  15.382   3.391   0.450
97342W        W62569  30.917  31.940   2.152
97343W        W62570  42.030  12.652   0.730
97344W        W62571  14.811  11.400  12.565
97345W        W62572  41.121   3.136   1.149
97346W        W62573  41.045  13.183  13.840
97347W        W62574  22.454  14.467  13.418
97348W        W62575  12.248  19.285   3.601
97349W        W62576  36.896  43.401  14.340
97350W        W62577  21.632  13.513   0.490
97351W        W62578   1.953  32.366  11.720
97352W        W62579   8.860  25.033  13.166
97353W        W62580   7.713  42.288   3.821
97354W        W62581  25.918   9.462  12.400
97355W        W62582  28.472  22.352  14.132
97356W        W62583  14.617  29.523  13.598
97357W        W62584  43.942   3.265   1.286
97358W        W62585  26.664  15.171   4.874
97359W        W62586  26.078  38.360  10.952
97360W        W62587  35.621  15.195  13.084
97361W        W62588  19.409  35.132   4.288
97362W        W62589  24.161  24.051  14.228
97363W        W62590  26.448  11.881   4.378
97364W        W62591   8.168  20.245   2.370
97365W        W62592  31.021  29.677   2.109
97366W        W62593  12.394  19.165   3.081
97367W        W62594  39.961  22.344   5.019
97368W        W62595  20.703   5.357   3.751
97369W        W62596  19.715  29.622   2.762
97370W        W62597  40.958   6.525   0.247
97371W        W62598  19.840  14.280   0.266
97372W        W62599  38.445   0.686  13.932
97373W        W62600  15.503  32.833  10.326
97374W        W62601   9.428  31.129  14.840
97375W        W62602  38.777   7.769  11.626
97376W        W62603  24.005  21.185  13.835
97377W        W62604   1.827  36.961  12.810
97378W        W62605  24.996  25.693  10.931
97379W        W62606  38.966  39.368  10.623
97380W        W62607  32.662  26.587  13.476
97381W        W62608  31.846  21.471   1.205
97382W        W62609  22.241  28.658  12.980
97383W        W62610  29.025  33.272  11.458
97384W        W62611  19.877  43.325  12.399
97385W        W62612   6.260   3.251   2.412
97386W        W62613  11.427   7.438   2.234
97387W        W62614  26.669  26.004  14.442
97388W        W62615  31.380  37.986  13.870
97389W        W62616  15.085  32.793   0.329
97390W        W62617  42.690  18.582   1.707
97391W        W62618  36.519  39.920   3.704
97392W        W62619  34.198  27.389   5.153
97393W        W62620  22.944  10.249   4.632
97394W        W62621  20.108   3.464  10.086
97395W        W62622  31.833  29.614   2.577
97396W        W62623   1.365  26.618  11.985
97397W        W62624   0.298   2.254   1.320
97398W        W62625  40.451  43.236   2.143
97399W        W62626   9.634  25.515   0.759
97400W        W62627   4.150  13.684  13.044
97401W        W62628  12.639  24.631   2.800
97402W        W62629  39.425  29.862   0.319
97403W        W62630  24.289  44.147   0.823
97404W        W62631  33.126  14.294   3.972
97405W        W62632  39.506  12.819  10.592
97406W        W62633  26.736  17.515  11.005
97407W        W62634   5.030  44.181   4.717
97408W        W62635  44.005  19.857  11.400
97409W        W62636  22.170  14.107   0.498
97410W        W62637  37.829  36.161   1.879
97411W        W62638  32.934  43.287  12.436
97412W        W62639  35.911  33.877   2.305
97413W        W62640   6.400   8.224  14.273
97414W        W62641  44.017   9.843   3.625
97415W        W62642  15.103  29.481   2.647
97416W        W62643  41.697  34.656  13.356
97417W        W62644  22.251  32.022  14.162
97418W        W62645  11.317  32.411   1.192
97419W        W62646   0.770  39.927   4.666
97420W        W62647  37.705  11.206   0.231
97421W        W62648  44.921  23.984  10.491
97422W        W62649  28.464  25.208   3.299
97423W        W62650  19.693  10.053  14.922
97424W        W62651   9.875  44.217  11.626
97425W        W62652  38.832  40.489  14.795
97426W        W62653  12.871  18.748   2.730
97427W        W62654   7.195  20.887   0.773
97428W        W62655  20.227  21.859   0.389
97429W        W62656  31.064  33.655   4.786
97430W        W62657  23.337   6.580  11.708
97431W        W62658  20.079  25.463   0.330
97432W        W62659  38.601   9.301   4.019
97433W        W62660   4.860  43.145  12.487
97434W        W62661  36.045  23.441   3.624
97435W        W62662  13.138   9.226  13.004
97436W        W62663  39.711  10.215  13.510
97437W        W62664  18.026  21.881   3.421
97438W        W62665  28.943  34.959  12.137
97439W        W62666  26.045   1.990  14.974
97440W        W62667  41.027  14.312  14.424
97441W        W62668  20.886   4.685  10.807
97442W        W62669  14.251  12.879  12.555
97443W        W62670  26.504   1.312   3.230
97444W        W62671  27.076  13.888  11.459
97445W        W62672  22.574  13.579   3.770
97446W        W62673  42.367  15.861  12.153
97447W        W62674  29.389  14.629  12.358
97448W        W62675  44.114   9.946  12.499
97449W        W62676  17.812  42.285  13.761
97450W        W62677  30.162  14.102  14.839
97451W        W62678   9.219  10.923   3.335
97452W        W62679   3.266   6.753   0.766
97453W        W62680   6.219   4.887  13.608
97454W        W62681  33.044   2.974   1.360
97455W        W62682  33.882  40.318  13.476
97456W        W62683  36.425  39.039  13.599
97457W        W62684   6.988  36.534  14.296
97458W        W62685  19.894   8.169   3.550
97459W        W62686   8.869   0.656   5.080
97460W        W62687  34.780  42.383  11.593
97461W        W62688  36.128  23.699   0.401
97462W        W62689   2.664  22.704  10.587
97463W        W62690  15.294  30.908  13.077
97464W        W62691   9.444  24.936   5.173
97465W        W62692  13.274  29.573  11.852
97466W        W62693  12.382  27.941  14.295
97467W        W62694  39.935  32.356   4.626
97468W        W62695  34.415  12.686  12.133
97469W        W62696  39.219  31.799  14.217
97470W        W62697  26.597  26.413   1.104
97471W        W62698   8.396  43.803   3.941
97472W        W62699  22.744  36.058   1.952
97473W        W62700  17.554  10.411  12.924
97474W        W62701   2.019  21.619  13.477
97475W        W62702  17.198   9.097  11.212
97476W        W62703  39.363   4.881  14.781
97477W        W62704   4.170  38.797  10.427
97478W        W62705  11.111  18.550  12.401
97479W        W62706  16.514  27.498  13.839
97480W        W62707  16.209  33.397   1.141
97481W        W62708   1.799  22.524  11.781
97482W        W62709  13.804  10.860  11.161
97483W        W62710  25.742  16.669  12.633
97484W        W62711  42.407  25.014   1.206
97485W        W62712  10.651  23.592  10.448
97486W        W62713  37.383  24.310  12.493
97487W        W62714  12.776   5.400  11.946
97488W        W62715  37.103  23.489  10.749
97489W        W62716  22.224  43.977  12.939
97490W        W62717  10.869  26.800  12.884
97491W        W62718   7.633  30.130   1.930
97492W        W62719  11.555  25.552   3.678
97493W        W62720  26.472  44.142   3.804
97494W        W62721  17.637  11.107  14.405
97495W        W62722  18.282   9.751   0.416
97496W        W62723  33.619  30.007   1.813
97497W        W62724  42.279  30.606   3.887
97498W        W62725  12.769  26.489   2.278
97499W        W62726  33.868  20.713  12.952
97500W        W62727  27.519  28.981   1.329
97501W        W62728   5.318   4.996   0.974
97502W        W62729  28.568  35.546  14.285
97503W        W62730  25.227  11.641  12.476
97504W        W62731   5.284  10.094   2.685
97505W        W62732  26.201  19.741  12.066
97506W        W62733  14.298  25.821  10.758
97507W        W62734  38.578  26.927  12.535
97508W        W62735   4.709  30.133  13.545
97509W        W62736  29.759   4.416   2.788
97510W        W62737   4.607  36.617   4.080
97511W        W62738  26.891   5.219  11.942
97512W        W62739  13.045  40.844   1.960
97513W        W62740   3.947   5.236  13.451
97514W        W62741   6.808  35.548  14.086
97515W        W62742  22.506  20.493   4.816
97516W        W62743   9.798  33.556  11.609
97517W        W62744   4.188  27.569  10.668
97518W        W62745  35.817   2.404  14.554
97519W        W62746  32.992   6.388   3.340
97520W        W62747   1.706   2.935   0.196
97521W        W62748  14.893   0.018   0.910
97522W        W62749  32.882   3.335  13.073
97523W        W62750  31.209  42.743   4.147
97524W        W62751  20.054   2.185  10.990
97525W        W62752  37.113   8.323   2.300
97526W        W62753  32.990  24.435   0.438
97527W        W62754   3.014   6.060  14.471
97528W        W62755  15.351   7.651  13.805
97529W        W62756  21.661   6.218  13.288
97530W        W62757  27.461  21.917   0.680
97531W        W62758  23.028  14.233  10.934
97532W        W62759  31.879   9.255   2.683
97533W        W62760  17.158  24.997   4.654
97534W        W62761  15.405  18.726  14.926
97535W        W62762  22.210  10.681  12.687
97536W        W62763  19.287  44.140  11.525
97537W        W62764  40.509  32.622   3.772
97538W        W62765  28.866  20.208  11.797
97539W        W62766   8.309  13.735   2.291
97540W        W62767  11.171  24.520   0.642
97541W        W62768  28.021  10.139  13.949
97542W        W62769  16.082  28.596  11.248
97543W        W62770  21.523   9.852  13.037
97544W        W62771  27.900  17.712  14.639
97545W        W62772  23.639   3.699  13.586
97546W        W62773  19.634   5.415  11.407
97547W        W62774  17.101  21.245  13.376
97548W        W62775  24.307   0.328  13.330
97549W        W62776  29.149  43.496   3.231
97550W        W62777  32.372   7.739   1.715
97551W        W62778  39.105   0.997   2.391
97552W        W62779  16.556  12.244  13.533
97553W        W62780  15.570  32.507  14.547
97554W        W62781  20.499   0.929  14.820
97555W        W62782  19.342   4.111   4.359
97556W        W62783  32.187  17.214   4.171
97557W        W62784  21.485  13.056   4.212
97558W        W62785  30.691  19.610  14.317
97559W        W62786  29.104  23.044  11.101
97560W        W62787  25.128  32.634   4.555
97561W        W62788  28.077   5.030   1.396
97562W        W62789  18.504  44.433  10.406
97563W        W62790  25.812  28.419  11.126
97564W        W62791  13.647   6.179   1.704
97565W        W62792  11.314  24.502  14.804
97566W        W62793   3.847  14.728  13.345
97567W        W62794  37.072  20.555  13.956
97568W        W62795  23.780  37.090   3.705
97569W        W62796   8.302  14.201   3.129
97570W        W62797  24.500  17.501   1.257
97571W        W62798  17.366  26.602  12.243
97572W        W62799   5.860  44.258   4.670
97573W        W62800  17.595  33.710  12.935
97574W        W62801   3.189   7.910  12.451
97575W        W62802   9.816  37.302   0.078
97576W        W62803  12.622   4.103  12.254
97577W        W62804  43.723  36.008  13.518
97578W        W62805  33.691  32.446   2.920
97579W        W62806  15.520  33.303  14.455
97580W        W62807  13.184  36.515   2.234
97581W        W62808   8.359  21.214  12.015
97582W        W62809  40.280  26.474  13.054
97583W        W62810  32.677  20.586  12.523
97584W        W62811  14.158  16.668  13.503
97585W        W62812  39.973  11.907   2.957
97586W        W62813  30.325  21.473  11.099
97587W        W62814  38.436  22.133  14.824
97588W        W62815  29.409  16.637   1.875
97589W        W62816  17.987   4.381   1.655
97590W        W62817  25.524   1.977  13.018
97591W        W62818  35.544  15.072  14.495
97592W        W62819  23.641   2.289  13.918
97593W        W62820  34.750  43.070   5.042
97594W        W62821  30.605  29.002  14.878
97595W        W62822  29.162   6.633   3.322
97596W        W62823  20.242  40.078  14.307
97597W        W62824   9.418  11.311   0.340
97598W        W62825   9.297   6.481   3.761
97599W        W62826  42.486  11.241   4.551
97600W        W62827  35.029  21.855  14.373
97601W        W62828  36.492  29.078  12.303
97602W        W62829  25.099  29.866  10.948
97603W        W62830   6.086   7.217  11.146
97604W        W62831  15.657  41.829  10.622
97605W        W62832  23.522  37.645   1.708
97606W        W62833   6.193  44.924   3.677
97607W        W62834   2.475  43.306  12.537
97608W        W62835  12.307   9.881  11.248
97609W        W62836  28.649  19.502   4.669
97610W        W62837  33.518   6.105   4.474
97611W        W62838  42.102  27.459  12.371
97612W        W62839  37.897  32.995  14.454
97613W        W62840   2.162  15.917  10.236
97614W        W62841  10.683  34.872  13.428
97615W        W62842  35.880  42.321   4.162
97616W        W62843   1.047  35.821   0.185
97617W        W62844  11.413  14.840   4.134
97618W        W62845  18.298  15.368  14.539
97619W        W62846   9.219  14.995  12.148
97620W        W62847  43.875  36.221   4.751
97621W        W62848   5.030  14.050  11.129
97622W        W62849  25.995  23.517   0.866
97623W        W62850  30.011  17.817  13.476
97624W        W62851  24.462   9.059   4.310
97625W        W62852  22.161  22.580   4.193
97626W        W62853  24.107   2.832  12.155
97627W        W62854  21.161  14.238   3.861
97628W        W62855  30.801  34.173  11.467
97629W        W62856   2.299   1.368  10.435
97630W        W62857  13.504  20.508   0.636
97631W        W62858  31.993  38.503  12.765
97632W        W62859  14.617   7.874   2.710
97633W        W62860  21.331  21.171   4.573
97634W        W62861  42.072  30.395  12.037
97635W        W62862  42.071  22.526  11.086
97636W        W62863  22.875   8.570  10.381
97637W        W62864   8.207   4.497   0.762
97638W        W62865  25.406  28.093   1.210
97639W        W62866  21.164  13.663  12.125
97640W        W62867  20.617  19.619   4.334
97641W        W62868   3.868  40.821  13.921
97642W        W62869  44.331   0.680   2.826
97643W        W62870   0.395  22.921  14.464
97644W        W62871  39.968  13.111   1.199
97645W        W62872  14.055   0.404   3.823
97646W        W62873  14.698   8.605  12.939
97647W        W62874  21.563  18.330  14.188
97648W        W62875  27.105  10.635  13.899
97649W        W62876  23.787  25.236   3.161
97650W        W62877  26.390  38.337   3.640
97651W        W62878  37.606  23.726   2.212
97652W        W62879   1.523  40.903  11.604
97653W        W62880   2.443   6.223   3.676
97654W        W62881  28.914  44.142  14.542
97655W        W62882  25.389  27.176  12.912
97656W        W62883  29.076  38.405   2.412
97657W        W62884  32.376  19.798   1.262
97658W        W62885  34.060  17.555   4.874
97659W        W62886  43.440  12.823  11.738
97660W        W62887  29.111  35.597  14.001
97661W        W62888  41.815   9.411  10.715
97662W        W62889  33.038  13.808   0.929
97663W        W62890  20.967  12.922  10.227
97664W        W62891  35.589  42.982   3.235
97665W        W62892  21.199  39.466  14.338
97666W        W62893  19.217  44.996  14.576
97667W        W62894  39.216  27.930  12.064
97668W        W62895  17.535  41.885  13.536
97669W        W62896  25.082   9.369  12.851
97670W        W62897  29.751   0.928  14.993
97671W        W62898  30.635  11.382   1.264
97672W        W62899  35.546  30.239  13.950
97673W        W62900  34.103  12.715   2.677
97674W        W62901  44.759  21.141  12.996
97675W        W62902  10.726  39.371  10.310
97676W        W62903  21.699  13.518   3.843
97677W        W62904  39.375  28.249   4.221
97678W        W62905   0.313  43.832  14.784
97679W        W62906  41.279  24.855   3.206
97680W        W62907  21.533  42.942   2.337
97681W        W62908   7.859  30.477  11.537
97682W        W62909  21.598  18.333  13.672
97683W        W62910  34.701  31.193  11.313
97684W        W62911  41.747   6.450  12.136
97685W        W62912  39.532  36.597   3.262
97686W        W62913  20.987  15.604  13.322
97687W        W62914  20.903  10.075   4.973
97688W        W62915  18.767  24.043  11.675
97689W        W62916  40.890  36.531   1.512
97690W        W62917  32.148  31.091  14.009
97691W        W62918  44.195   4.452  11.461
97692W        W62919  10.193  15.635  13.954
97693W        W62920  23.783  10.564   4.599
97694W        W62921  28.453  37.132  14.754
97695W        W62922  14.911  34.005   0.848
97696W        W62923  10.961  27.271  11.944
97697W        W62924  28.473  11.646  13.288
97698W        W62925  12.197   1.635  13.382
97699W        W62926   9.623  22.751   1.377
97700W        W62927   8.501  21.904   1.325
97701W        W62928  21.550  40.285  11.835
97702W        W62929   6.192  39.100  12.874
97703W        W62930  28.778   7.174  13.095
97704W        W62931  31.044  26.653  11.023
97705W        W62932  18.305  29.457   2.381
97706W        W62933  39.575  22.184  11.542
97707W        W62934  14.806  17.048  13.944
97708W        W62935  27.048   1.984   0.556
97709W        W62936  11.136  29.489  14.039
97710W        W62937   0.953  39.325   3.365
97711W        W62938  31.394  21.215   3.620
97712W        W62939  29.644  10.617  11.751
97713W        W62940  35.742  15.846  13.439
97714W        W62941  31.382  40.990   0.418
97715W        W62942  25.668   6.871  12.626
97716W        W62943  44.799  17.285   5.413
97717W        W62944  24.022  35.948  14.955
97718W        W62945  36.597  20.625   0.761
97719W        W62946  30.146   1.615  14.440
97720W        W62947  16.319  34.101   3.915
97721W        W62948  19.617  35.045   0.113
97722W        W62949  34.137  43.723  11.922
97723W        W62950  30.998  14.223   0.431
97724W        W62951  40.492   6.373  12.347
97725W        W62952  25.046  30.489  13.214
97726W        W62953  36.529  39.600   0.021
97727W        W62954  29.532   1.569  11.063
97728W        W62955  32.455   0.075  11.623
97729W        W62956  22.264  33.596  13.416
97730W        W62957  36.046   5.769  14.246
97731W        W62958  18.231  28.912   1.492
97732W        W62959  19.352  31.182  14.552
97733W        W62960  34.842  14.903  11.522
97734W        W62961  30.564   6.833  13.301
97735W        W62962  12.548  42.273  11.143
97736W        W62963  18.564  30.032   1.376
97737W        W62964  24.086  10.845   3.232
97738W        W62965  37.213  14.329   0.126
97739W        W62966  26.668  27.041   5.085
97740W        W62967  34.109  13.005   5.021
97741W        W62968  34.533  28.522   4.575
97742W        W62969  20.626  14.812   3.365
97743W        W62970  43.977  18.402  11.570
97744W        W62971  23.067  10.574   3.655
97745W        W62972  39.624  40.557  13.815
97746W        W62973   9.206  14.123  13.480
97747W        W62974  10.855   5.991  14.303
97748W        W62975  25.813  12.286  11.182
97749W        W62976  44.513  41.403  11.277
97750W        W62977   5.847  36.000   0.834
97751W        W62978  42.877   0.499   2.860
97752W        W62979  22.809   8.656   0.983
97753W        W62980  27.578   3.199  14.375
97754W        W62981  37.474   5.140   3.633
97755W        W62982   2.920  11.119  11.852
97756W        W62983  42.417   9.711   3.862
97757W        W62984  32.071  15.229  12.520
97758W        W62985  30.703  44.948  12.058
97759W        W62986  14.889  27.788  11.069
97760W        W62987  31.787  18.153  13.274
97761W        W62988  34.870  14.777   4.473
97762W        W62989  35.054  12.558  14.551
97763W        W62990  44.793   0.494   2.012
97764W        W62991  10.236  36.991   0.343
97765W        W62992  12.852  28.130   0.256
97766W        W62993   7.425   8.178   3.725
97767W        W62994  29.511   1.196   0.457
97768W        W62995  23.037  44.619  13.205
97769W        W62996  24.140  15.670  12.847
97770W        W62997  16.122  35.764  12.354
97771W        W62998   1.789   8.209   1.470
97772W        W62999  44.180   7.635  12.995
97773W        W63000  30.758  24.082  11.375
97774W        W63001  19.858  35.061   1.378
97775W        W63002  37.361  41.247   2.671
97776W        W63003   8.165  17.186   4.442
97777W        W63004  15.720  15.540   1.269
97778W        W63005  12.186  43.594  10.631
97779W        W63006  38.084  12.679   2.146
97780W        W63007  28.628   4.057   0.837
97781W        W63008  35.393  43.339  11.030
97782W        W63009  22.615   3.967   0.552
97783W        W63010  39.361  15.337  12.552
97784W        W63011  39.505  40.083  11.715
97785W        W63012  21.782  15.630   1.348
97786W        W63013   3.979  23.962  13.014
97787W        W63014  25.901  36.997   0.018
97788W        W63015  19.275   5.891  11.056
97789W        W63016  37.973  15.064  13.443
97790W        W63017  21.475  30.129  12.748
97791W        W63018  15.211  42.962  10.520
97792W        W63019  40.664  22.664   4.945
97793W        W63020  15.652   9.383   0.478
97794W        W63021  31.507  30.887   3.605
97795W        W63022  19.575   2.044  14.799
97796W        W63023  25.957  44.841   2.220
97797W        W63024  26.061  18.297   3.220
97798W        W63025  35.467  16.079   4.692
97799W        W63026  31.046   8.108  14.360
97800W        W63027  44.545  32.026  12.399
97801W        W63028   6.789  33.962   0.898
97802W        W63029  15.293  15.612   1.969
97803W        W63030  17.645  33.976   3.170
97804W        W63031  41.808   1.741  14.894
97805W        W63032  29.409  22.713  14.828
97806W        W63033  26.962  24.120   0.113
97807W        W63034  38.141   2.480  13.550
97808W        W63035  29.141  22.718  14.384
97809W        W63036   8.415  34.653   0.626
97810W        W63037  34.008  20.281  13.635
97811W        W63038  23.900  42.510   2.311
97812W        W63039  14.119  37.021  13.133
97813W        W63040  42.377   8.272   3.472
97814W        W63041  36.945   7.426   2.787
97815W        W63042  14.700  26.568  14.027
97816W        W63043  23.847  19.107  11.984
97817W        W63044  44.411  12.189  11.476
97818W        W63045  31.331   6.761   2.296
97819W        W63046  43.887  42.513   1.287
97820W        W63047  28.471   5.385  11.169
97821W        W63048   0.940  17.239   1.387
97822W        W63049  13.312  33.371  12.429
97823W        W63050  32.111  41.732   1.264
97824W        W63051   9.142  42.759   3.674
97825W        W63052   8.261  17.264   9.941
97826W        W63053   6.695  43.271   4.548
97827W        W63054   5.825  13.682   1.972
97828W        W63055   2.613  16.743  10.640
97829W        W63056  18.301  27.451  10.741
97830W        W63057  29.303  23.534   2.306
97831W        W63058  33.128  31.684  10.384
97832W        W63059  37.504  21.971  14.235
97833W        W63060  42.258  17.019  12.942
97834W        W63061  32.128   4.829  11.553
97835W        W63062   5.407  39.425   0.317
97836W        W63063  27.395  16.121   0.147
97837W        W63064  32.050  27.587  11.708
97838W        W63065  40.532  38.050   3.353
97839W        W63066  22.428   1.284  13.089
97840W        W63067  26.205  35.407   2.783
97841W        W63068  17.746  41.409  14.404
97842W        W63069  16.099   6.198  12.190
97843W        W63070  23.182  20.179   3.724
97844W        W63071  36.986  42.807  14.699
97845W        W63072  26.997   8.077  13.007
97846W        W63073  27.719   8.317  14.838
97847W        W63074  11.607  34.851  11.867
97848W        W63075  23.911  28.237   4.605
97849W        W63076  32.697  36.342   1.220
97850W        W63077   8.737  11.776   2.213
97851W        W63078  27.416   7.011   2.738
97852W        W63079  26.481   7.436   4.124
97853W        W63080   6.378   2.229   3.363
97854W        W63081  24.673  41.373   0.126
97855W        W63082  10.347   0.036   1.704
97856W        W63083  36.319  19.244  12.113
97857W        W63084  37.903  38.904  11.406
97858W        W63085  28.625  40.463  10.673
97859W        W63086  18.468  37.994  12.578
97860W        W63087  31.910  10.153  13.382
97861W        W63088   6.669  23.139  13.020
97862W        W63089  23.204  26.499  11.159
97863W        W63090  21.559  19.703   0.009
97864W        W63091  36.798   0.707  11.689
97865W        W63092  23.021   7.960  14.655
97866W        W63093  26.765   7.194  13.406
97867W        W63094  31.164  34.382   4.228
97868W        W63095  18.278  34.899   1.358
97869W        W63096  24.035   6.295   0.796
97870W        W63097  21.171  12.886   3.790
97871W        W63098  24.081   9.239  10.761
97872W        W63099  34.611   0.349  12.010
97873W        W63100  10.074  37.064   0.850
97874W        W63101  17.028   8.987   4.257
97875W        W63102  12.894  20.725   1.829
97876W        W63103  43.273  12.534   2.378
97877W        W63104  10.755  18.484   2.550
97878W        W63105  18.042  39.939   0.526
97879W        W63106  35.009  11.073   2.939
97880W        W63107  20.804  25.544  14.473
97881W        W63108   3.762  24.575  13.956
97882W        W63109  21.057  38.223   1.771
97883W        W63110  29.981  19.847   0.473
97884W        W63111  39.965  18.668   2.177
97885W        W63112  30.013  14.267   1.768
97886W        W63113  30.440  43.512   2.294
97887W        W63114  38.884  16.969   0.006
97888W        W63115  26.536  13.957   3.719
97889W        W63116  40.280  15.220  12.613
97890W        W63117  29.574  40.250  11.527
97891W        W63118   0.975  30.178  10.523
97892W        W63119   8.971  14.336   2.273
97893W        W63120  17.133  27.109   0.402
97894W        W63121  40.264  17.167   3.742
97895W        W63122  44.156   8.369   2.273
97896W        W63123  11.894   9.365   3.866
97897W        W63124  17.343  13.792  13.883
97898W        W63125   3.271  40.468   1.479
97899W        W63126  14.430  20.493  12.046
97900W        W63127   1.430  42.878   1.665
97901W        W63128   2.315  37.208   1.012
97902W        W63129  17.799  42.751   2.462
97903W        W63130  42.747  23.530   0.867
97904W        W63131  13.237  39.768  12.407
97905W        W63132   2.983   9.696   4.049
97906W        W63133  31.641  43.106  12.824
97907W        W63134  38.413  31.622   0.023
97908W        W63135   1.475   0.602  10.890
97909W        W63136  30.442  23.527   0.351
97910W        W63137   6.792  36.407   3.366
97911W        W63138  30.687  24.595   2.399
97912W        W63139  22.772  21.874   1.524
97913W        W63140  20.482   4.703   1.847
97914W        W63141  44.818  21.790  11.635
97915W        W63142  38.838   4.387  13.320
97916W        W63143  37.349  12.272   2.946
97917W        W63144   6.722  28.447  14.128
97918W        W63145  29.997   2.107  14.364
97919W        W63146  29.708  22.629   1.792
97920W        W63147  29.316  13.851   0.147
97921W        W63148  27.679   3.317   1.204
97922W        W63149   2.421  29.886   0.841
97923W        W63150  16.119  38.883  11.915
97924W        W63151  37.862  36.732   1.195
97925W        W63152   8.137  18.256   4.987
97926W        W63153  43.475  11.291  13.160
97927W        W63154   1.892  28.522   4.401
97928W        W63155  40.846  30.561   0.518
97929W        W63156   2.220  25.518   4.208
97930W        W63157  42.695  11.167   1.389
97931W        W63158  12.781   3.694  11.554
97932W        W63159  23.876  11.631  13.353
97933W        W63160  28.137  40.292  10.645
97934W        W63161  25.082   2.116   5.139
97935W        W63162  41.139  15.179  11.555
97936W        W63163   1.474  39.883  10.971
97937W        W63164   7.084  12.830   3.498
97938W        W63165  38.753  44.936  14.580
97939W        W63166   6.993   6.231  12.087
97940W        W63167  27.496  12.859   2.881
97941W        W63168  11.466  14.871  14.345
97942W        W63169  31.202  39.898   4.110
97943W        W63170  43.028  44.998   2.693
97944W        W63171  14.991   3.524  14.967
97945W        W63172  34.972  37.969   1.562
97946W        W63173  43.075   1.456   1.628
97947W        W63174  41.426  29.152  13.900
97948W        W63175  14.632   1.088  10.752
97949W        W63176  42.614  21.023  11.612
97950W        W63177  33.113  38.056   1.320
97951W        W63178  44.753  32.091  13.398
97952W        W63179  38.124   5.552  13.904
97953W        W63180  28.319   8.826   4.501
97954W        W63181  14.797  27.713   0.335
97955W        W63182   4.767  11.594   4.649
97956W        W63183  43.014  33.502   3.693
97957W        W63184  12.654  11.664   3.347
97958W        W63185  44.535  23.760   2.646
97959W        W63186  31.333  38.801  12.508
97960W        W63187  24.445  21.423   4.531
97961W        W63188   9.145  31.588  14.882
97962W        W63189  11.859   0.570   4.164
97963W        W63190  40.551  44.198   1.536
97964W        W63191  15.201   5.348   2.290
97965W        W63192  19.561  15.382  12.452
97966W        W63193  38.425  11.574  11.919
97967W        W63194  17.037  10.290  14.894
97968W        W63195  16.048  24.166  11.168
97969W        W63196  26.001  31.067  11.220
97970W        W63197  33.656  24.697   2.932
97971W        W63198   3.821  33.473   0.906
97972W        W63199  34.068  12.779   0.259
97973W        W63200   1.733  17.095  11.093
97974W        W63201  40.820  22.222   4.092
97975W        W63202   5.656  40.586   2.292
97976W        W63203   5.435  20.875   0.408
97977W        W63204  36.225  29.935  12.795
97978W        W63205  20.288  38.671  11.393
97979W        W63206  25.472   1.473  13.048
97980W        W63207   4.940  32.459   0.867
97981W        W63208  40.330  34.583   2.370
97982W        W63209  16.842  20.310   3.723
97983W        W63210   3.178  33.399   2.094
97984W        W63211  11.626  34.214   1.824
97985W        W63212  16.208  24.403   4.115
97986W        W63213  20.365  30.424   4.515
97987W        W63214  24.043  40.273   3.358
97988W        W63215  19.783  15.473   0.222
97989W        W63216  13.751  38.861   4.702
97990W        W63217  42.026   7.891   2.820
97991W        W63218  40.851  21.002   3.513
97992W        W63219  40.641  20.345  12.380
97993W        W63220   5.690  11.393   3.235
97994W        W63221  27.224  29.579  11.075
97995W        W63222  28.204  41.174   0.859
97996W        W63223  10.168  18.907  12.512
97997W        W63224  36.407  44.249  12.973
97998W        W63225  39.890  23.225   3.858
97999W        W63226  42.899  20.068   0.753
98000W        W63227  44.254  34.241   4.608
98001W        W63228  24.359  31.546  14.952
98002W        W63229  14.113   5.321   0.063
98003W        W63230  23.394  14.056  13.779
98004W        W63231  13.588  29.404  12.611
98005W        W63232   0.427  40.562  14.925
98006W        W63233  42.199   6.830   4.981
98007W        W63234   0.687  20.774  13.953
98008W        W63235  32.180  25.531  12.851
98009W        W63236  38.425  24.873  12.111
98010W        W63237  11.724  30.901  10.183
98011W        W63238  37.880  12.267  13.896
98012W        W63239  41.395   7.291   2.378
98013W        W63240  15.286  15.298  13.879
98014W        W63241   4.857  25.861   9.755
98015W        W63242  43.744  11.143  14.673
98016W        W63243  15.809  33.863   1.963
98017W        W63244  21.967  42.001   3.242
98018W        W63245   5.868  11.316   4.016
98019W        W63246   4.903  11.213   9.964
98020W        W63247   1.716  35.962   4.938
98021W        W63248  36.891  43.992  12.976
98022W        W63249   4.456  40.098   3.311
98023W        W63250  27.487  30.276   4.578
98024W        W63251  34.451  16.387  13.855
98025W        W63252  28.888  42.816   2.732
98026W        W63253   8.801   5.620  11.825
98027W        W63254  44.365   7.384  12.367
98028W        W63255  44.891  32.529   2.725
98029W        W63256  40.018  33.988  10.907
98030W        W63257  38.338  36.061  13.157
98031W        W63258  38.520  17.908   2.790
98032W        W63259  38.376  32.738  10.692
98033W        W63260  18.062  43.855   3.057
98034W        W63261   2.328  12.049   4.164
98035W        W63262   6.557  30.913   0.812
98036W        W63263  20.733   4.821   3.853
98037W        W63264  33.961  13.968   9.877
98038W        W63265  12.852  31.978  12.588
98039W        W63266  35.915   1.712   2.578
98040W        W63267  39.888  16.706   0.566
98041W        W63268   8.929  24.119   1.712
98042W        W63269  11.382   7.147   2.740
98043W        W63270   7.912  20.233   1.655
98044W        W63271  31.414   9.914  12.592
98045W        W63272  36.374  16.904   3.285
98046W        W63273  13.558  16.697   0.439
98047W        W63274  30.879   4.275  11.455
98048W        W63275  14.609  16.304  14.220
98049W        W63276  13.017  14.524  12.946
98050W        W63277  25.261  11.085  11.201
98051W        W63278  27.874  15.328  12.967
98052W        W63279  20.605  27.977   0.796
98053W        W63280  38.113  19.522  10.636
98054W        W63281  40.935   5.951   2.763
98055W        W63282  28.307  11.333   0.313
98056W        W63283  39.417  29.273   3.197
98057W        W63284  18.933   8.826  12.015
98058W        W63285  39.085  27.738  14.203
98059W        W63286  43.459  38.097  10.752
98060W        W63287  44.436   4.393  13.251
98061W        W63288  41.644  18.303  12.906
98062W        W63289  36.065  31.498  11.868
98063W        W63290  24.451  36.610   4.157
98064W        W63291  28.906  30.526   4.347
98065W        W63292   0.810  39.575  14.838
98066W        W63293  16.193  38.831  10.544
98067W        W63294  38.622  34.745   4.195
98068W        W63295  24.192  10.653   1.147
98069W        W63296  43.182  34.854   3.826
98070W        W63297  27.829  26.712   4.573
98071W        W63298  44.260  22.173   0.116
98072W        W63299  21.988  30.644  14.433
98073W        W63300  10.365  26.575   1.247
98074W        W63301  29.140   3.341  14.029
98075W        W63302   8.828   3.476   1.294
98076W        W63303  24.556  23.078   4.542
98077W        W63304  30.282  25.547  10.706
98078W        W63305  32.152  23.671  14.933
98079W        W63306   4.426   4.342   1.536
98080W        W63307  30.816  39.011  12.454
98081W        W63308   8.193  12.744   1.640
98082W        W63309  32.099  26.272   1.855
98083W        W63310  33.854  33.022   0.377
98084W        W63311  41.076  25.840   0.107
98085W        W63312  42.562  43.234  12.066
98086W        W63313  44.703  44.711  14.916
98087W        W63314  32.079  21.583  14.355
98088W        W63315  39.061  42.029   1.883
98089W        W63316  42.232   8.768   4.203
98090W        W63317  33.294  14.508  14.286
98091W        W63318  24.638  18.011   4.559
98092W        W63319   4.285  20.091  14.878
98093W        W63320  19.995  34.681  10.825
98094W        W63321  22.228   9.352  10.725
98095W        W63322  18.621  42.004  13.154
98096W        W63323  15.675  27.458  13.587
98097W        W63324  30.627  14.153   2.519
98098W        W63325   9.230  26.126   1.161
98099W        W63326  26.180  22.076  14.032
98100W        W63327  14.701   0.806  12.083
98101W        W63328   1.872  28.162  12.120
98102W        W63329  35.655   6.415   3.312
98103W        W63330   4.879  40.342   4.251
98104W        W63331  37.301  30.998  12.143
98105W        W63332  36.157   2.407  10.806
98106W        W63333   4.861  20.654  14.040
98107W        W63334  20.720  12.132   1.758
98108W        W63335  18.206  23.482  10.678
98109W        W63336  32.439  40.767   1.842
98110W        W63337  17.747  26.064  14.919
98111W        W63338   2.939  41.761   1.317
98112W        W63339   1.863  25.642  12.614
98113W        W63340  18.804  39.254   4.102
98114W        W63341  38.973  43.980  11.224
98115W        W63342   5.661  22.686  14.477
98116W        W63343  20.499   3.237  10.294
98117W        W63344  37.764  30.470  11.555
98118W        W63345   2.509  19.538   0.358
98119W        W63346  10.732  26.662  13.371
98120W        W63347   3.548  12.343  11.203
98121W        W63348  33.346   1.115   1.401
98122W        W63349  20.529  20.140  12.621
98123W        W63350  40.895  26.970   1.971
98124W        W63351   4.902  24.925   4.027
98125W        W63352  20.153  29.692   2.373
98126W        W63353   1.196   3.850   2.693
98127W        W63354  13.832  36.379  13.301
98128W        W63355   2.828   6.332  12.220
98129W        W63356   0.054  24.435   0.370
98130W        W63357  19.230  43.359   1.248
98131W        W63358  34.124  33.409   2.949
98132W        W63359  24.213  27.964  14.435
98133W        W63360   0.833   3.628   2.373
98134W        W63361  10.919  15.856  10.181
98135W        W63362   6.306  36.360   3.523
98136W        W63363  13.806  13.074   4.579
98137W        W63364  12.330   4.179   3.037
98138W        W63365  31.091  40.357  11.197
98139W        W63366   7.762  14.629  12.898
98140W        W63367  10.544  41.991   1.406
98141W        W63368  36.662  35.453   4.962
98142W        W63369  41.382   4.609   4.644
98143W        W63370  18.586  30.800   4.531
98144W        W63371   2.264  35.599  11.084
98145W        W63372  31.357  34.927   0.807
98146W        W63373  28.934   3.407  13.553
98147W        W63374  27.683   6.914  12.539
98148W        W63375  27.231  41.088  11.282
98149W        W63376  26.516  13.286   5.074
98150W        W63377   7.452  43.449   0.773
98151W        W63378  38.440  35.365   0.504
98152W        W63379  37.534  31.391   3.682
98153W        W63380  20.566  22.700   3.175
98154W        W63381   3.935  30.928   3.719
98155W        W63382  24.470  34.974   1.326
98156W        W63383  30.004  37.122   2.247
98157W        W63384  14.810  43.567  12.606
98158W        W63385   0.227   7.918   3.670
98159W        W63386  12.996   4.730   5.115
98160W        W63387  10.207  36.793  14.275
98161W        W63388  20.420   4.558  14.548
98162W        W63389  26.956  14.198   4.960
98163W        W63390  15.821  44.688  13.367
98164W        W63391   7.512  18.738  12.162
98165W        W63392  27.643  26.260  13.645
98166W        W63393  11.940  37.007  13.837
98167W        W63394  10.574  40.381  13.622
98168W        W63395   0.695  14.071   5.017
98169W        W63396   8.876  19.752  12.440
98170W        W63397  43.619  30.679  10.412
98171W        W63398  33.912  31.732   3.712
98172W        W63399  10.325  34.972  13.077
98173W        W63400  37.514  12.811   4.577
98174W        W63401  43.562  10.100   3.646
98175W        W63402  43.343  29.513  14.600
98176W        W63403  16.337   3.204   4.693
98177W        W63404  15.929  18.470   5.055
98178W        W63405  30.965  40.999   4.635
98179W        W63406  18.187  27.512  12.088
98180W        W63407  23.607  24.486  11.503
98181W        W63408   0.866  17.960  12.430
98182W        W63409  21.617  37.669  11.127
98183W        W63410   2.766  43.947  12.176
98184W        W63411  44.307   9.390   1.004
98185W        W63412  28.034  21.792  13.442
98186W        W63413  20.645  39.847  12.066
98187W        W63414  15.772  12.830   1.215
98188W        W63415  20.515  23.152   2.453
98189W        W63416   0.823  16.756   1.559
98190W        W63417  40.107   1.399  12.140
98191W        W63418  38.514  12.714  13.079
98192W        W63419   1.036   7.068   5.055
98193W        W63420   3.764  12.944   2.403
98194W        W63421  35.221  11.040   4.266
98195W        W63422  28.042  18.330   4.124
98196W        W63423  35.424  25.751   3.636
98197W        W63424   1.747  26.301  12.136
98198W        W63425   0.702  30.624   4.149
98199W        W63426  30.104  40.749   2.720
98200W        W63427  28.973   6.816  12.788
98201W        W63428  44.701  36.545   5.035
98202W        W63429   4.230  35.984   0.911
98203W        W63430  18.471  41.201   4.945
98204W        W63431  10.710  11.944  10.690
98205W        W63432  10.567  25.976  14.506
98206W        W63433  23.819  11.575   0.256
98207W        W63434   1.525   3.204  14.780
98208W        W63435  16.104  37.874   2.462
98209W        W63436  14.143  43.077   4.675
98210W        W63437  19.995  18.425   1.732
98211W        W63438  43.571  31.944  13.987
98212W        W63439  32.378   1.954  12.987
98213W        W63440  29.565  31.554   2.175
98214W        W63441  43.036   7.749   5.118
98215W        W63442  29.229   4.807   3.910
98216W        W63443  31.368  29.363  11.563
98217W        W63444  14.583   6.898   4.024
98218W        W63445   4.327  22.581  10.973
98219W        W63446  14.647  19.924  14.752
98220W        W63447  33.902  25.833   0.459
98221W        W63448   1.286  20.065   2.704
98222W        W63449   4.235  33.008   0.388
98223W        W63450  36.289   5.011   1.791
98224W        W63451  13.318  16.596   4.409
98225W        W63452   2.242  14.082   2.220
98226W        W63453   4.681   4.828  10.805
98227W        W63454  31.525   9.388  13.032
98228W        W63455  37.633  31.969  10.036
98229W        W63456  28.248  32.188   3.517
98230W        W63457  20.497  32.468  11.988
98231W        W63458  10.967  15.112  13.796
98232W        W63459  39.098  41.387  12.096
98233W        W63460  12.276   7.476   3.699
98234W        W63461  21.580  37.895   3.785
98235W        W63462   1.189   9.555   1.768
98236W        W63463  36.107   8.370  11.719
98237W        W63464  14.788  13.488   0.406
98238W        W63465  14.260  19.830   0.589
98239W        W63466  21.790  29.421  13.372
98240W        W63467  22.153   7.200  12.428
98241W        W63468  38.979  24.726   1.031
98242W        W63469  38.991  12.362   4.570
98243W        W63470  12.049  28.339   0.968
98244W        W63471  21.504   5.672   0.989
98245W        W63472  22.150  26.948   0.957
98246W        W63473  29.466  36.166   4.601
98247W        W63474  43.894   0.931  10.873
98248W        W63475   1.729   2.917  11.102
98249W        W63476  24.693   7.067  11.202
98250W        W63477  34.401  17.794  14.482
98251W        W63478   9.514  13.947   5.150
98252W        W63479  18.265   8.793  13.400
98253W        W63480  37.967  43.086  11.839
98254W        W63481  14.112  28.780   3.104
98255W        W63482  31.878  12.732   0.520
98256W        W63483   3.206  44.399   0.120
98257W        W63484  11.290  35.129  12.238
98258W        W63485  32.912  17.515  14.853
98259W        W63486   2.475  44.570  10.552
98260W        W63487  27.416   6.780  12.973
98261W        W63488  27.771  39.584   2.804
98262W        W63489  21.544   0.467   0.437
98263W        W63490  41.477  29.512   3.783
98264W        W63491  37.432  35.124   0.514
98265W        W63492  34.839  36.572   0.895
98266W        W63493  41.838  37.562  10.212
98267W        W63494  15.596   6.898   1.780
98268W        W63495  18.253  42.752  11.265
98269W        W63496   1.276  16.290   3.856
98270W        W63497   1.273  16.165  12.834
98271W        W63498  44.411  18.192   5.376
98272W        W63499  25.402  40.985  14.859
98273W        W63500  18.307  14.293   4.037
98274W        W63501  19.652  39.562   1.303
98275W        W63502   4.862   3.073  10.805
98276W        W63503  40.243  37.577   1.010
98277W        W63504  14.782  25.875  12.601
98278W        W63505  10.418   5.795  14.099
98279W        W63506  22.856  10.592  14.308
98280W        W63507  15.823  22.688   4.589
98281W        W63508  40.401  39.824  10.662
98282W        W63509  13.218  28.718   4.660
98283W        W63510  27.996   0.312   3.296
98284W        W63511  44.947  30.940   0.497
98285W        W63512  28.929  23.719   2.664
98286W        W63513   6.357  15.112  13.789
98287W        W63514  13.526  38.345   3.599
98288W        W63515  33.543  36.342  13.520
98289W        W63516  11.093  31.390  13.592
98290W        W63517  14.776  21.519  13.422
98291W        W63518  30.058  23.006   2.392
98292W        W63519  18.125  14.715  11.810
98293W        W63520   8.494  13.139   0.352
98294W        W63521  29.326  30.705   5.107
98295W        W63522   5.752   5.809   1.033
98296W        W63523  19.124  30.548  11.379
98297W        W63524   0.342  12.655   0.091
98298W        W63525   0.474   3.900   0.895
98299W        W63526  39.941   1.884   2.165
98300W        W63527  28.410  16.548  12.804
98301W        W63528  32.358  42.455  10.597
98302W        W63529  10.691   4.810  12.871
98303W        W63530  16.079   0.466   4.063
98304W        W63531  25.012  13.772  11.851
98305W        W63532  17.075   1.813   1.791
98306W        W63533  29.152  38.875  13.030
98307W        W63534   2.490  17.477   1.193
98308W        W63535  38.122  34.639   4.096
98309W        W63536  40.714  26.273  13.752
98310W        W63537  26.363   8.964   1.698
98311W        W63538  23.547  16.407   3.309
98312W        W63539  38.499  35.934  14.160
98313W        W63540   6.688  38.871   2.392
98314W        W63541   4.720  38.361   2.198
98315W        W63542  32.073  16.050  11.739
98316W        W63543  20.205  14.894   1.731
98317W        W63544   4.996  25.594   3.402
98318W        W63545  13.143  30.938  14.180
98319W        W63546  18.296  42.818   1.254
98320W        W63547   4.353  14.549   2.451
98321W        W63548  32.592  35.271  12.146
98322W        W63549   0.884  34.960  14.323
98323W        W63550  26.216   2.693   1.371
98324W        W63551  38.451  39.029   0.427
98325W        W63552  17.387  27.674   3.740
98326W        W63553   0.667  33.961  12.489
98327W        W63554  38.460  20.575  14.463
98328W        W63555   5.625   8.814   2.387
98329W        W63556  29.685   7.711   1.300
98330W        W63557   1.372  35.411   2.705
98331W        W63558  30.356  32.064  11.963
98332W        W63559  19.094  18.482  13.625
98333W        W63560  36.869  19.110   4.154
98334W        W63561  40.552  44.865  14.036
98335W        W63562  11.785  43.047  13.559
98336W        W63563   9.091  26.703   0.886
98337W        W63564  10.833  32.551   1.435
98338W        W63565  41.365  18.749  12.845
98339W        W63566  28.564  26.074   1.830
98340W        W63567  13.819  39.358   1.818
98341W        W63568  14.586   4.548  14.981
98342W        W63569  28.091   2.481   3.303
98343W        W63570  36.477   6.434  14.669
98344W        W63571  18.319  26.609  13.007
98345W        W63572  17.548  33.115  10.673
98346W        W63573  15.190  26.022  13.477
98347W        W63574  37.346  43.461  10.708
98348W        W63575  33.111   1.990   0.040
98349W        W63576  16.351  32.469   1.213
98350W        W63577  26.537  40.614  14.025
98351W        W63578  17.098  20.078  14.704
98352W        W63579  27.153   5.821   1.892
98353W        W63580  16.521  22.210   0.377
98354W        W63581  36.229   9.822  12.632
98355W        W63582  14.196  21.772  14.762
98356W        W63583  13.532   4.102  14.089
98357W        W63584  12.109   1.929   1.481
98358W        W63585  40.700  44.490   0.264
98359W        W63586  21.105  31.874   1.210
98360W        W63587  27.872  15.099  12.047
98361W        W63588  22.582  12.338  13.086
98362W        W63589  14.144  26.211   3.810
98363W        W63590  22.594  44.896   3.247
98364W        W63591  43.345  33.673  11.280
98365W        W63592   5.473   4.007   2.231
98366W        W63593  14.468  19.291  13.102
98367W        W63594  19.036   2.566   2.013
98368W        W63595   6.395  26.130   0.708
98369W        W63596  23.439  19.440  10.813
98370W        W63597   0.436  14.351   2.768
98371W        W63598   0.375  29.024   2.651
98372W        W63599   1.543  11.396  13.091
98373W        W63600   5.889  35.190  11.500
98374W        W63601   5.208  21.793  12.199
98375W        W63602  14.468   0.791  14.391
98376W        W63603  44.209  37.570  11.136
98377W        W63604  43.632   5.349   4.981
98378W        W63605  43.822  17.603   3.191
98379W        W63606  18.756  35.646  12.142
98380W        W63607  33.595  16.088   1.322
98381W        W63608   1.774   1.491  11.322
98382W        W63609   5.708  23.151  12.870
98383W        W63610   8.869  19.520  10.677
98384W        W63611  31.157  25.137   1.383
98385W        W63612  41.924  30.650  13.358
98386W        W63613  32.447  19.222   4.585
98387W        W63614  39.874   1.023  14.370
98388W        W63615  29.119   7.262  14.737
98389W        W63616  36.570  23.332   2.304
98390W        W63617   1.966  38.386   4.918
98391W        W63618  22.410  40.331   4.548
98392W        W63619  31.572  39.336  11.571
98393W        W63620  24.625  21.019  13.419
98394W        W63621   0.276  14.317  10.637
98395W        W63622  37.304   5.831  14.087
98396W        W63623   6.761  29.605   1.611
98397W        W63624  39.660  17.250   4.147
98398W        W63625   0.611  18.996  14.503
98399W        W63626   9.658  13.688   3.256
98400W        W63627  18.692  25.682   4.998
98401W        W63628  18.130  36.365  11.919
98402W        W63629  33.813  23.046  13.612
98403W        W63630  28.691  37.092  12.336
98404W        W63631  11.199   3.138   1.970
98405W        W63632  14.125  17.379  14.028
98406W        W63633  38.884  43.834   2.291
98407W        W63634  39.622  42.044  14.702
98408W        W63635  32.937   9.106  13.001
98409W        W63636  28.466   5.290   3.554
98410W        W63637  38.352   7.923   3.021
98411W        W63638  43.612  19.338   1.424
98412W        W63639  20.080  27.422   3.697
98413W        W63640   4.712  35.908   0.762
98414W        W63641  31.581   5.097   1.223
98415W        W63642  16.820  44.816  13.513
98416W        W63643  25.013  41.261   1.883
98417W        W63644  38.866  22.539   1.178
98418W        W63645  37.689   3.412  11.540
98419W        W63646   1.926  16.416   1.758
98420W        W63647  39.474   5.556   0.305
98421W        W63648   7.980  30.414   0.431
98422W        W63649  26.301   6.692   1.300
98423W        W63650  44.680  20.973  14.948
98424W        W63651  36.464  18.080  13.515
98425W        W63652   9.426  19.101  13.118
98426W        W63653  37.934  23.001   2.837
98427W        W63654  44.664   1.986  13.421
98428W        W63655  18.827  29.602  11.115
98429W        W63656  22.100  22.076  12.118
98430W        W63657  44.015  39.389  14.728
98431W        W63658   3.594  30.223  10.896
98432W        W63659   6.763  13.919  13.869
98433W        W63660   8.924   7.616   1.328
98434W        W63661   3.148   3.253  11.487
98435W        W63662   1.915  39.604   3.143
98436W        W63663  23.584  32.872   1.744
98437W        W63664  28.029  14.553   3.749
98438W        W63665  11.103  27.571  10.709
98439W        W63666   2.088  38.469   1.234
98440W        W63667   2.641  34.471   3.358
98441W        W63668   1.850  32.970   4.591
98442W        W63669  33.836  12.263   3.399
98443W        W63670  16.922  35.012  14.943
98444W        W63671  19.570   8.762   1.355
98445W        W63672   7.818   9.484  12.584
98446W        W63673   0.590  29.041   1.385
98447W        W63674  32.969  14.380  14.776
98448W        W63675   4.481  16.191  13.186
98449W        W63676  22.523  39.494  12.046
98450W        W63677  23.982  38.810  13.527
98451W        W63678  30.038  38.169   4.597
98452W        W63679  27.409   0.251   1.730
98453W        W63680  17.215  34.709   2.161
98454W        W63681  28.267  17.563  13.810
98455W        W63682  32.655  28.884  11.852
98456W        W63683  23.425  43.413  11.987
98457W        W63684  15.637  40.763  14.261
98458W        W63685   4.678  13.657  11.936
98459W        W63686  32.326  28.935  13.202
98460W        W63687   4.548  13.345  14.357
98461W        W63688  32.522  33.627  10.564
98462W        W63689  27.818   8.894   4.513
98463W        W63690  19.091  15.096  14.840
98464W        W63691  25.122  13.047  11.330
98465W        W63692  31.106  34.567  11.475
98466W        W63693   0.409  26.620   0.408
98467W        W63694  27.123   3.487  13.475
98468W        W63695  18.098   2.613   1.657
98469W        W63696  17.461  22.654   0.090
98470W        W63697  35.006  39.495   4.079
98471W        W63698  10.074   6.620   4.379
98472W        W63699   0.264  33.007  11.565
98473W        W63700  20.139  20.658  13.369
98474W        W63701   7.351   6.120   3.747
98475W        W63702  34.523  26.657   0.705
98476W        W63703  34.391  14.835  10.234
98477W        W63704  32.756  22.009   1.989
98478W        W63705  19.663  17.767  14.399
98479W        W63706   4.980  30.966   3.789
98480W        W63707  25.878   2.418   2.275
98481W        W63708  37.391  19.090  11.203
98482W        W63709  42.717  13.112   1.762
98483W        W63710  30.310  43.529  13.388
98484W        W63711  36.109   6.367  12.356
98485W        W63712  17.230  13.679   0.914
98486W        W63713   6.821  21.651  14.781
98487W        W63714   6.222  21.989   0.785
98488W        W63715  10.876   9.608   1.292
98489W        W63716  21.974  30.692  10.727
98490W        W63717   3.863  35.145  11.906
98491W        W63718   4.018   9.702  11.142
98492W        W63719  40.874   7.240  13.070
98493W        W63720  10.832  31.237  11.838
98494W        W63721  29.030   9.801  14.278
98495W        W63722  40.377  12.827   4.726
98496W        W63723  18.179   9.091  12.989
98497W        W63724  19.434   8.103   2.133
98498W        W63725  26.422  10.752   2.328
98499W        W63726   8.890  23.899  13.621
98500W        W63727  12.356  13.575  14.823
98501W        W63728  21.550  23.997  12.589
98502W        W63729  31.574  16.906  13.871
98503W        W63730  44.288  26.155   0.981
98504W        W63731  18.321  23.117   3.638
98505W        W63732   5.431  41.085  14.736
98506W        W63733  29.941  43.933  11.527
98507W        W63734  37.060  36.836  12.989
98508W        W63735  38.494  14.160  11.376
98509W        W63736  20.432  21.050   5.064
98510W        W63737   4.460  40.968   3.242
98511W        W63738  17.767  22.746   0.963
98512W        W63739  42.875  18.052   0.823
98513W        W63740  34.480  41.306   3.619
98514W        W63741  30.441  32.142   3.200
98515W        W63742  44.136   7.606   4.292
98516W        W63743  23.507  13.328   0.751
98517W        W63744  19.961   6.286  14.210
98518W        W63745  18.205  36.630   4.540
98519W        W63746   2.947  14.187   4.554
98520W        W63747  32.927  24.758  14.527
98521W        W63748  19.622  12.994  10.403
98522W        W63749  30.647   9.199  14.782
98523W        W63750  33.998   4.322  11.515
98524W        W63751  12.108   9.471  13.034
98525W        W63752  21.577  43.388  12.485
98526W        W63753  13.664  38.306  14.376
98527W        W63754  15.484   3.893   1.365
98528W        W63755  17.346  18.524  13.866
98529W        W63756  18.786  30.237  11.025
98530W        W63757  25.632   0.805  12.492
98531W        W63758  33.903  19.087  14.411
98532W        W63759  11.875  41.357   3.795
98533W        W63760  18.838  40.314  14.765
98534W        W63761   1.099  40.371   2.476
98535W        W63762  32.176  36.372   1.225
98536W        W63763  41.188  19.177  11.007
98537W        W63764  35.140  43.824   0.578
98538W        W63765   3.627  12.836  11.994
98539W        W63766  27.376  43.268  13.248
98540W        W63767   1.479  33.020   1.329
98541W        W63768  15.392  23.001   0.394
98542W        W63769  11.714  44.812  12.002
98543W        W63770   1.277   9.802   2.210
98544W        W63771  14.242  28.127   3.674
98545W        W63772  10.759   7.434  10.883
98546W        W63773  19.652  43.566  12.805
98547W        W63774  18.450  22.186   3.388
98548W        W63775  29.458   1.668   4.452
98549W        W63776  15.463  11.653  13.379
98550W        W63777   7.446  30.011   3.338
98551W        W63778   4.786  41.935   2.773
98552W        W63779  41.368   6.408   0.781
98553W        W63780   1.195   9.363   3.129
98554W        W63781  25.486  29.219   0.564
98555W        W63782   2.406  35.367   3.742
98556W        W63783  10.581  43.082   0.484
98557W        W63784   3.383  14.152   1.889
98558W        W63785  13.374  36.440  13.028
98559W        W63786  41.281  33.366  13.484
98560W        W63787  11.741  32.399   2.592
98561W        W63788  37.170   6.233  12.382
98562W        W63789  44.302   8.947   4.105
98563W        W63790  12.395  34.706   4.976
98564W        W63791  29.227  37.413   1.331
98565W        W63792  30.405  40.102   4.396
98566W        W63793  25.618  11.616   1.951
98567W        W63794   4.288  19.497   3.756
98568W        W63795  36.176  41.287  13.493
98569W        W63796   6.803  26.219   2.076
98570W        W63797  21.331  24.112   1.390
98571W        W63798  12.823  34.919  13.076
98572W        W63799  34.859   4.224  12.786
98573W        W63800  20.261  34.162   4.637
98574W        W63801  23.779  25.931  10.473
98575W        W63802  23.036   4.785  12.972
98576W        W63803  40.876  34.132  10.718
98577W        W63804  14.295  29.137  14.399
98578W        W63805   1.689  16.548  14.085
98579W        W63806  32.164  44.295  13.377
98580W        W63807   2.270  14.684   4.386
98581W        W63808  38.818  44.451  14.782
98582W        W63809  36.879  38.077   4.923
98583W        W63810  39.011  20.614  13.441
98584W        W63811   1.280  43.676   1.411
98585W        W63812   8.323  37.399   4.106
98586W        W63813   5.707  11.620  14.850
98587W        W63814  34.499  31.106  14.244
98588W        W63815  31.504  25.216  12.441
98589W        W63816  24.499  12.697  14.371
98590W        W63817  23.046  19.519  13.828
98591W        W63818   9.853  35.970   2.723
98592W        W63819  21.104  29.810  11.890
98593W        W63820  13.813  41.198   1.975
98594W        W63821  41.289  32.175  10.639
98595W        W63822  10.715   4.871  10.464
98596W        W63823   3.965  33.074   2.693
98597W        W63824  38.842  19.774  11.810
98598W        W63825  31.417  24.200   4.287
98599W        W63826  34.458  13.993  11.249
98600W        W63827  41.875  33.838  12.409
98601W        W63828   2.227  32.880  13.915
98602W        W63829  25.044  27.441   2.599
98603W        W63830  18.077  10.223   3.272
98604W        W63831  43.729  41.886  11.648
98605W        W63832  30.989  39.453  12.271
98606W        W63833   1.641  21.696   0.473
98607W        W63834  40.047  18.360   1.070
98608W        W63835  15.299  29.540   4.596
98609W        W63836  39.978   4.471   1.568
98610W        W63837  40.876  27.702   2.761
98611W        W63838   6.230   3.966  12.244
98612W        W63839  32.096   3.974   1.174
98613W        W63840  38.943  30.017  14.598
98614W        W63841   2.381  34.912  14.036
98615W        W63842  33.948  23.993  10.684
98616W        W63843  16.305  11.362  13.187
98617W        W63844  10.655  14.785   9.703
98618W        W63845   4.725  20.998   1.381
98619W        W63846   5.515   5.724   4.903
98620W        W63847  42.766  34.434  11.601
98621W        W63848   8.417  22.297   0.973
98622W        W63849   4.825  40.804   4.488
98623W        W63850  40.918   3.467  11.056
98624W        W63851  35.829  36.312  10.546
98625W        W63852  36.905   0.036  10.773
98626W        W63853   1.263  26.919   1.397
98627W        W63854  34.401  44.157  10.866
98628W        W63855  10.144   9.133   0.010
98629W        W63856   0.245  41.225  10.219
98630W        W63857   5.403  25.305  13.495
98631W        W63858   4.240   7.854   0.341
98632W        W63859  43.512  11.869   4.981
98633W        W63860   6.316  31.484   4.249
98634W        W63861  11.742  15.507  13.770
98635W        W63862  30.507  23.963   1.354
98636W        W63863  27.990   1.175  14.659
98637W        W63864  19.109  35.944  14.020
98638W        W63865  27.551  38.050   0.384
98639W        W63866  26.705   1.483  12.114
98640W        W63867  42.446  29.878  12.900
98641W        W63868   2.730   4.788  13.746
98642W        W63869  24.772  41.956   2.259
98643W        W63870  41.278  39.470   0.398
98644W        W63871  20.323  13.393  11.572
98645W        W63872  37.816  19.222   0.296
98646W        W63873  27.194  23.623  12.915
98647W        W63874  25.449  17.278  11.164
98648W        W63875  12.909  22.629  10.660
98649W        W63876  30.359  11.813   1.647
98650W        W63877  11.310  29.110   2.801
98651W        W63878  24.219  22.589  13.762
98652W        W63879  28.470  22.401   3.316
98653W        W63880  23.941   1.640   2.274
98654W        W63881   2.878   7.822  12.056
98655W        W63882   1.862  18.790  12.927
98656W        W63883   0.773   5.656  13.392
98657W        W63884  33.949  27.966   2.092
98658W        W63885  13.723   8.874  10.943
98659W        W63886  10.925   2.731   1.771
98660W        W63887  19.173  18.755  14.057
98661W        W63888  38.378  11.310  11.473
98662W        W63889  44.752  11.745  12.595
98663W        W63890  26.852  38.501   0.656
98664W        W63891  11.741  34.843  12.375
98665W        W63892  16.225   4.822  12.379
98666W        W63893  39.762   8.307   2.885
98667W        W63894  32.824  31.156  12.587
98668W        W63895  19.644  30.574  11.248
98669W        W63896  17.830  34.734  12.566
98670W        W63897  26.172  31.779   4.896
98671W        W63898  35.297  32.241  14.461
98672W        W63899  32.919  44.279  11.556
98673W        W63900  14.791  44.697   4.200
98674W        W63901  25.195  13.303  11.932
98675W        W63902  44.306  16.552   1.867
98676W        W63903  20.569  29.642   1.166
98677W        W63904   0.057   8.679   4.806
98678W        W63905  31.003  33.570  13.445
98679W        W63906  29.642   6.314   1.450
98680W        W63907  16.418   7.035  13.902
98681W        W63908  10.667  15.108   3.764
98682W        W63909  43.985  43.336  14.771
98683W        W63910   9.389  11.308   4.689
98684W        W63911  44.450  24.628   4.387
98685W        W63912  34.392  18.744   1.013
98686W        W63913  36.324  14.204  12.084
98687W        W63914  44.716  25.992   1.381
98688W        W63915  29.099   3.213   3.654
98689W        W63916  20.334  13.144  13.789
98690W        W63917  40.758  33.687   0.327
98691W        W63918  43.208  34.218   4.681
98692W        W63919  40.964  28.487  14.599
98693W        W63920  23.472  19.293   2.785
98694W        W63921   2.300  37.012   1.510
98695W        W63922   5.062  29.076  10.680
98696W        W63923   6.915  28.542   0.091
98697W        W63924  17.648  37.039   1.777
98698W        W63925  16.307  18.017   0.025
98699W        W63926  30.409   2.463  12.286
98700W        W63927  23.039   3.627   2.674
98701W        W63928  26.568  15.582  10.087
98702W        W63929  43.289  22.119  14.768
98703W        W63930  24.658  31.354   1.180
98704W        W63931  13.582  30.494   4.005
98705W        W63932   0.449   3.352  10.361
98706W        W63933  32.335  37.619   0.659
98707W        W63934  32.088  11.120  10.710
98708W        W63935   7.819  31.917  13.293
98709W        W63936  32.520  18.820  14.448
98710W        W63937  27.009  32.147  10.321
98711W        W63938  19.993  33.892  14.334
98712W        W63939  31.625  23.219   4.569
98713W        W63940   3.698   4.311   3.675
98714W        W63941  13.722  14.665  11.662
98715W        W63942  20.667   3.790  12.302
98716W        W63943  10.887  15.126   1.324
98717W        W63944  27.981  38.765  11.786
98718W        W63945  17.633  30.563  10.456
98719W        W63946   8.170   6.069  14.082
98720W        W63947  29.479  41.591   4.170
98721W        W63948   7.409  24.422  13.875
98722W        W63949  28.571  40.667   3.293
98723W        W63950   5.309  20.122   3.970
98724W        W63951  34.831   0.981  11.651
98725W        W63952   5.357  43.049  13.750
98726W        W63953  38.429  15.102  13.137
98727W        W63954  12.318   5.899   1.097
98728W        W63955  21.243   3.649   1.893
98729W        W63956  28.727   9.025  13.755
98730W        W63957  42.421  13.978  13.577
98731W        W63958   3.427   6.466   4.176
98732W        W63959  23.497  43.936  14.211
98733W        W63960  24.971  41.504  14.080
98734W        W63961  13.616  40.044   3.252
98735W        W63962  12.982  27.145  14.572
98736W        W63963  41.816  36.324   0.285
98737W        W63964  20.145  19.383   4.367
98738W        W63965  31.424   2.056  12.982
98739W        W63966  40.933  40.948   4.344
98740W        W63967  19.370  38.402  11.964
98741W        W63968  22.589  26.192   0.740
98742W        W63969  11.394  15.010   4.873
98743W        W63970  30.712  22.265  13.068
98744W        W63971  44.843   6.823   3.766
98745W        W63972   1.126  23.412  10.225
98746W        W63973  15.256  43.418  14.694
98747W        W63974   1.780  19.222   3.696
98748W        W63975  41.999  35.244  12.013
98749W        W63976  21.634  10.205   5.023
98750W        W63977   8.522  42.387  13.887
98751W        W63978  24.808   9.303   3.764
98752W        W63979  26.722  38.106   0.983
98753W        W63980  32.610  35.752   4.212
98754W        W63981  24.944  18.447   0.944
98755W        W63982  34.666  11.774  10.738
98756W        W63983  19.638  30.736   2.850
98757W        W63984   7.749   3.351  11.232
98758W        W63985  27.232  34.899   0.262
98759W        W63986  44.535  26.376   0.401
98760W        W63987   7.853  38.465  10.307
98761W        W63988  30.228  34.492   0.263
98762W        W63989  18.308   7.878  12.477
98763W        W63990  19.791   3.389  11.908
98764W        W63991  38.996  19.111   1.218
98765W        W63992  23.178  16.717   4.831
98766W        W63993  26.051   6.202  14.425
98767W        W63994  34.493   9.543  12.144
98768W        W63995  18.763  44.251   3.155
98769W        W63996  29.315  31.242   0.659
98770W        W63997  38.530  43.773   4.071
98771W        W63998  10.295  40.885   4.309
98772W        W63999  10.267  10.248  12.489
98773W        W64000  38.570  20.474  13.189
98774W        W64001  15.381  11.888   1.253
98775W        W64002  14.146  34.102  11.508
98776W        W64003  34.511  29.687   4.363
98777W        W64004   5.325  17.957   2.399
98778W        W64005  10.229  41.867  11.542
98779W        W64006  18.659  28.185   2.853
98780W        W64007  20.983   1.797   3.227
98781W        W64008  37.937   7.902  14.042
98782W        W64009   4.921  21.521   1.320
98783W        W64010  11.089   9.661   2.817
98784W        W64011  18.859  37.327  12.658
98785W        W64012  22.245  20.959   4.816
98786W        W64013  38.761  38.937  10.416
98787W        W64014  12.323  37.489   2.078
98788W        W64015  42.224  10.943   1.284
98789W        W64016   4.200  17.682  13.306
98790W        W64017  40.529  20.614   1.834
98791W        W64018  32.543  14.610   3.195
98792W        W64019  24.197  19.902   3.119
98793W        W64020   8.460  25.259   3.875
98794W        W64021  26.505  11.869   3.327
98795W        W64022  44.024  28.192   0.426
98796W        W64023  21.736  37.311   2.377
98797W        W64024   6.136  24.788  11.847
98798W        W64025  40.514  18.277  13.527
98799W        W64026  33.971  28.812   0.473
98800W        W64027   1.684  20.103   1.776
98801W        W64028  14.064  26.636   0.851
98802W        W64029   0.141  41.720   4.678
98803W        W64030  12.877  29.572   3.257
98804W        W64031  11.365  30.117   5.453
98805W        W64032  39.022  12.871   4.591
98806W        W64033  27.491  22.572  11.477
98807W        W64034  29.437   1.257   1.309
98808W        W64035  33.436  28.882   2.869
98809W        W64036  32.395  32.083   1.827
98810W        W64037  36.005  33.527   2.694
98811W        W64038  38.024  12.905  13.765
98812W        W64039   6.412  22.910  10.761
98813W        W64040   8.103  22.574   3.977
98814W        W64041  31.153  14.138  11.133
98815W        W64042  24.226  29.377  14.301
98816W        W64043  21.166  34.342   2.470
98817W        W64044  25.055  42.757  14.760
98818W        W64045   8.131  26.034   0.230
98819W        W64046  11.350  41.530  12.950
98820W        W64047  35.506  10.605   4.362
98821W        W64048   3.395  19.268  14.302
98822W        W64049   3.826  15.814   1.200
98823W        W64050  42.058  36.037  12.474
98824W        W64051  19.465  44.740  13.614
98825W        W64052  21.437  38.611   1.814
98826W        W64053   1.876   8.288   2.249
98827W        W64054  30.731  26.135   5.073
98828W        W64055  27.507  19.611  11.626
98829W        W64056  39.416  39.406  12.132
98830W        W64057  11.177  33.547  13.799
98831W        W64058  31.871  11.721   4.796
98832W        W64059  13.181  43.364  11.387
98833W        W64060  29.146   5.666  12.841
98834W        W64061   5.635  26.828  14.955
98835W        W64062  29.836  44.255   3.724
98836W        W64063  27.491  33.997   1.832
98837W        W64064  33.632  13.537  13.982
98838W        W64065  44.007  33.412   2.849
98839W        W64066   0.693  35.727   3.110
98840W        W64067   7.184  13.315  12.272
98841W        W64068  30.196  21.059   0.846
98842W        W64069  37.404  15.515   2.305
98843W        W64070  40.228  24.540   1.806
98844W        W64071  18.707  23.311  10.183
98845W        W64072  26.693  37.901   3.698
98846W        W64073  11.695  37.457  13.973
98847W        W64074  34.077   6.991  14.369
98848W        W64075  29.812  15.393   1.437
98849W        W64076  32.328  28.270  13.004
98850W        W64077   0.377  15.908   0.897
98851W        W64078  19.991  11.266  14.412
98852W        W64079  38.508  33.436  14.899
98853W        W64080  39.730  18.710   0.741
98854W        W64081  25.003  10.719   2.287
98855W        W64082  19.327  33.039   4.640
98856W        W64083  22.028   9.784  12.159
98857W        W64084  37.962   1.507  12.121
98858W        W64085  33.590  19.016   2.330
98859W        W64086  27.077   0.699   0.776
98860W        W64087   6.680  42.273  12.624
98861W        W64088  30.908   7.868  14.789
98862W        W64089  19.205  39.982   2.224
98863W        W64090   1.592   6.345  11.069
98864W        W64091  14.731  22.879  11.681
98865W        W64092  29.998  15.629  11.893
98866W        W64093  36.173  42.884  11.090
98867W        W64094  33.790  28.069   5.041
98868W        W64095  38.992  17.211   4.640
98869W        W64096   4.832  44.695  13.833
98870W        W64097  23.659  32.900   3.598
98871W        W64098  31.470  26.735   0.738
98872W        W64099  33.656  43.047   3.009
98873W        W64100  18.649  36.028   0.709
98874W        W64101  34.609  16.815   2.156
98875W        W64102  29.932  39.705  13.098
98876W        W64103  15.713  11.337   0.380
98877W        W64104  26.258  28.184  11.588
98878W        W64105  44.971  15.282   4.511
98879W        W64106  28.626   3.550   0.818
98880W        W64107  41.971   3.666   1.365
98881W        W64108   2.760  39.112  11.744
98882W        W64109  29.983  33.906  12.084
98883W        W64110  16.531  38.943  13.555
98884W        W64111   7.056   2.220   0.355
98885W        W64112  33.143  39.923  13.523
98886W        W64113  37.964  27.455   2.787
98887W        W64114  21.651  25.121   1.012
98888W        W64115  30.562  15.095   0.934
98889W        W64116  16.313  20.298  11.201
98890W        W64117  26.359  19.609   3.402
98891W        W64118   1.960  39.008  13.334
98892W        W64119  18.382  15.372   0.358
98893W        W64120  11.102  34.270   1.177
98894W        W64121  31.596  31.571   0.274
98895W        W64122  26.193  36.616  13.918
98896W        W64123  40.988  25.202   4.100
98897W        W64124   0.788  28.232  14.923
98898W        W64125  34.930  25.153  13.032
98899W        W64126  24.312  42.431  12.057
98900W        W64127  23.480   8.746   0.112
98901W        W64128  11.883  40.812  13.394
98902W        W64129   7.830  34.338   4.747
98903W        W64130   6.387  37.359   1.466
98904W        W64131  25.995  13.243  11.127
98905W        W64132  19.644  21.732   3.502
98906W        W64133  12.149   6.993  13.407
98907W        W64134  24.204   2.867  13.544
98908W        W64135  11.616  21.333  13.046
98909W        W64136  39.072  24.396   2.294
98910W        W64137  40.983  27.238   0.975
98911W        W64138  28.992   8.885   4.625
98912W        W64139  12.210   9.235  13.918
98913W        W64140  40.804  35.162  13.564
98914W        W64141   0.207  30.775   5.175
98915W        W64142  18.682  13.661  13.850
98916W        W64143  38.118   2.415   0.099
98917W        W64144  21.640  21.973   0.499
98918W        W64145   3.438  17.711  12.880
98919W        W64146  19.613  41.438   2.368
98920W        W64147   8.269  21.296   0.690
98921W        W64148  26.228   7.371   0.082
98922W        W64149  29.476  38.805  12.621
98923W        W64150   4.252  17.311   1.389
98924W        W64151   9.184   9.686   2.884
98925W        W64152   6.666  40.549   0.785
98926W        W64153  36.041  41.485  11.221
98927W        W64154   3.234  20.271  14.472
98928W        W64155   1.085  19.867   3.165
98929W        W64156   8.145  11.486   4.081
98930W        W64157  42.229  11.083  13.851
98931W        W64158  22.762  20.785   0.726
98932W        W64159   6.384  23.572   0.293
98933W        W64160  41.278  23.939   0.498
98934W        W64161  38.989  33.868  13.886
98935W        W64162  20.579  13.733   0.438
98936W        W64163   9.726  31.655   1.318
98937W        W64164  15.375  17.261  10.567
98938W        W64165  15.316  40.858  10.712
98939W        W64166  35.143  28.892   0.703
98940W        W64167  14.665  28.929   3.660
98941W        W64168  18.041  36.015  10.678
98942W        W64169  41.794  28.133  10.356
98943W        W64170   5.959  34.469   2.132
98944W        W64171  36.001  39.393  11.918
98945W        W64172  10.267  20.243  10.231
98946W        W64173  16.354  39.874   4.223
98947W        W64174  17.530  21.629   0.808
98948W        W64175  16.047  16.821   3.322
98949W        W64176  22.984  10.201   2.102
98950W        W64177  15.214  15.141   2.154
98951W        W64178  14.103  12.020  13.398
98952W        W64179   4.252  18.797  11.456
98953W        W64180  19.918  38.241  11.344
98954W        W64181  43.064  43.935  13.983
98955W        W64182  20.505   2.822   1.797
98956W        W64183   6.246   6.963   2.206
98957W        W64184  15.645  44.548   4.163
98958W        W64185  35.026  20.405   3.216
98959W        W64186  44.214   6.776   1.198
98960W        W64187   8.432  18.073   0.349
98961W        W64188   9.177  18.395   3.433
98962W        W64189  34.027  43.448  11.449
98963W        W64190  15.187  24.040  13.077
98964W        W64191  38.588  26.136   3.124
98965W        W64192  27.051  39.546   4.506
98966W        W64193  16.594  30.354   3.471
98967W        W64194  38.407  36.405   3.584
98968W        W64195  32.905  24.418   3.218
98969W        W64196  14.632  41.964   4.139
98970W        W64197  25.084  17.108   2.206
98971W        W64198  44.930  11.548  13.586
98972W        W64199  19.912  26.682   4.166
98973W        W64200  20.259  17.326   2.822
98974W        W64201  43.290  39.250  11.589
98975W        W64202  31.669  15.920   3.715
98976W        W64203   0.940  23.271   2.593
98977W        W64204   1.699  15.263   0.839
98978W        W64205  10.061  31.199   3.597
98979W        W64206  37.379  44.329  11.879
98980W        W64207  29.017  27.411   1.974
98981W        W64208  44.100   4.179   1.279
98982W        W64209  40.631  26.195   2.247
98983W        W64210  41.723  33.682  13.655
98984W        W64211  13.045  27.401   1.931
98985W        W64212   9.844   2.414  12.057
98986W        W64213  40.036   6.527  13.556
98987W        W64214  33.899   7.840  14.837
98988W        W64215  33.194  39.977  12.483
98989W        W64216   4.499  36.589   1.801
98990W        W64217   8.160  30.898  10.736
98991W        W64218  20.559  21.097   1.280
98992W        W64219   7.323  36.592   1.716
98993W        W64220  34.988  15.597   2.093
98994W        W64221   8.322  25.716   0.729
98995W        W64222  42.749  27.463   4.218
98996W        W64223  20.059  39.909   3.188
98997W        W64224  27.042   0.462  12.383
98998W        W64225  16.507  10.915  13.410
98999W        W64226   2.430   9.651  12.538
99000W        W64227   5.224  36.516  13.673
99001W        W64228  35.982  17.886  12.457
99002W        W64229  40.602  18.826   2.135
99003W        W64230  34.940  23.568  11.974
99004W        W64231  36.414  38.381  13.838
99005W        W64232  40.384   4.310   3.657
99006W        W64233  13.960   9.366   1.494
99007W        W64234  17.062  15.432   3.734
99008W        W64235  20.695  39.386  14.277
99009W        W64236  38.545  34.583   1.742
99010W        W64237  23.681   9.458  12.517
99011W        W64238   5.935  40.802  10.669
99012W        W64239  12.035  36.535  10.786
99013W        W64240  40.859  37.347  14.741
99014W        W64241  11.527  34.638   2.777
99015W        W64242  42.530   6.411  13.634
99016W        W64243  28.931  33.360  12.972
99017W        W64244  31.449  34.172   2.285
99018W        W64245  15.595  34.155   2.886
99019W        W64246  18.634  25.706  13.614
99020W        W64247   9.600   1.900   2.281
99021W        W64248   1.235  39.603   0.366
99022W        W64249  25.452  22.677  10.399
99023W        W64250  22.046  44.884   5.508
99024W        W64251  43.952  27.646  13.133
99025W        W64252  33.494  39.993   0.734
99026W        W64253   3.310  17.951  13.782
99027W        W64254  38.400   5.435   2.579
99028W        W64255  38.071  17.105  11.230
99029W        W64256   8.305  32.431   4.479
99030W        W64257   7.375  41.494   3.027
99031W        W64258  31.666   4.475   2.680
99032W        W64259  22.527  12.662   1.508
99033W        W64260   6.855   0.962  10.471
99034W        W64261  43.048  39.487   3.300
99035W        W64262  40.943   7.032   5.363
99036W        W64263  19.188  22.303  11.724
99037W        W64264  44.889  42.344   4.525
99038W        W64265  12.734  10.433   4.472
99039W        W64266  44.513   2.927  10.641
99040W        W64267  17.744  16.754   0.304
99041W        W64268  12.651  14.886   1.881
99042W        W64269  41.579  43.232  11.990
99043W        W64270  39.086  17.694  14.428
99044W        W64271   1.897   3.787   2.944
99045W        W64272  38.085   3.867  11.037
99046W        W64273  12.727   2.977   3.239
99047W        W64274   3.876  28.103  13.936
99048W        W64275  26.971  19.580  12.394
99049W        W64276  25.783  30.997   2.515
99050W        W64277  12.940  31.578  12.290
99051W        W64278   7.118  37.575  11.540
99052W        W64279  24.373  39.431   3.518
99053W        W64280   2.682  38.857   4.657
99054W        W64281  20.865  27.926   0.346
99055W        W64282  30.949   9.650   3.827
99056W        W64283  11.495   7.164  11.870
99057W        W64284  37.855  32.071  11.891
99058W        W64285  31.641  28.613   1.208
99059W        W64286  35.065  25.039  11.662
99060W        W64287  18.759  16.454  13.873
99061W        W64288  32.609  19.565   2.858
99062W        W64289  21.026  13.624  13.574
99063W        W64290  16.084  29.017   0.983
99064W        W64291   9.712   2.785  14.119
99065W        W64292   7.336  39.081  10.221
99066W        W64293  13.281   1.326   3.580
99067W        W64294  11.746  28.450  12.575
99068W        W64295  13.905   5.936   4.110
99069W        W64296  39.024   2.119   1.216
99070W        W64297  13.166  21.193  13.630
99071W        W64298   5.529  35.520   0.969
99072W        W64299   3.934  21.355  12.081
99073W        W64300   7.953  25.786  12.076
99074W        W64301  17.886   1.316   2.209
99075W        W64302  14.711  23.299  12.211
99076W        W64303   2.545  24.661   3.859
99077W        W64304  20.254  27.343  14.943
99078W        W64305  29.809  32.342  12.869
99079W        W64306  16.034  34.898   0.738
99080W        W64307   7.346  42.448   3.103
99081W        W64308   8.196  19.030   1.216
99082W        W64309  10.910  19.116  12.866
99083W        W64310  42.504  11.617  13.155
99084W        W64311  28.771   8.896   3.536
99085W        W64312   1.238  44.372   2.214
99086W        W64313  29.959  15.331  13.746
99087W        W64314  23.097  31.513   2.129
99088W        W64315  10.088  12.265  14.753
99089W        W64316   1.425  36.916  13.762
99090W        W64317  16.781  44.013   0.711
99091W        W64318  23.187  19.254   2.193
99092W        W64319  28.377  36.632  11.309
99093W        W64320  30.887   8.712   0.797
99094W        W64321  30.190   7.272  11.849
99095W        W64322  26.715  38.396  13.682
99096W        W64323  14.664  26.429   3.546
99097W        W64324  15.905  17.607   0.853
99098W        W64325  16.883   6.853   2.028
99099W        W64326  15.999  41.091   0.547
99100W        W64327  13.135  22.786   0.337
99101W        W64328   3.981   7.378  10.575
99102W        W64329  35.160   2.272  12.011
99103W        W64330   8.483  31.123   3.701
99104W        W64331   5.192  31.376  14.304
99105W        W64332  27.907  32.488   3.275
99106W        W64333  18.509  40.322  11.575
99107W        W64334  34.484   5.833  10.918
99108W        W64335  10.317  12.299   4.207
99109W        W64336  34.556   4.934  11.439
99110W        W64337   5.278  14.073   4.113
99111W        W64338   9.302  38.797  14.749
99112W        W64339   8.902  23.059   4.089
99113W        W64340  21.423  15.063   1.379
99114W        W64341  15.947  37.882   1.998
99115W        W64342  32.620  15.635   3.271
99116W        W64343  32.201  15.707  12.115
99117W        W64344  18.016  17.265  10.658
99118W        W64345  28.485  44.936   3.959
99119W        W64346  12.090  31.379   2.220
99120W        W64347  11.629  19.540   4.681
99121W        W64348  28.581   6.292  12.180
99122W        W64349   5.400  37.001  12.758
99123W        W64350   1.519   9.470  11.127
99124W        W64351  43.855  36.927   3.399
99125W        W64352  31.533  20.799  13.077
99126W        W64353   9.454   1.585  11.744
99127W        W64354  13.059   7.496   4.603
99128W        W64355  40.278  15.171   1.811
99129W        W64356  30.235  13.805   0.425
99130W        W64357  42.691   3.994   2.430
99131W        W64358  18.172   7.678  13.331
99132W        W64359  43.988   7.691   1.460
99133W        W64360   7.862   7.186   3.678
99134W        W64361  40.483  37.932   3.852
99135W        W64362  20.549  15.750  11.479
99136W        W64363  21.088  44.002  12.677
99137W        W64364   2.304   7.331   3.784
99138W        W64365  25.354   1.250  12.529
99139W        W64366   2.408  11.510  11.653
99140W        W64367   7.685  18.383  13.607
99141W        W64368  43.369  23.633  13.923
99142W        W64369  29.647  37.514  13.518
99143W        W64370  24.531   1.832  14.074
99144W        W64371  18.202   6.158  11.564
99145W        W64372  26.648  37.506   0.506
99146W        W64373  44.282   0.327   2.107
99147W        W64374  41.331   3.856   2.430
99148W        W64375   1.039  21.074  13.212
99149W        W64376  38.896   5.417   1.309
99150W        W64377  40.936  22.637   3.167
99151W        W64378  15.129  17.725   4.516
99152W        W64379  42.421  35.322   0.865
99153W        W64380  18.625  12.215  12.496
99154W        W64381  40.016  15.303   4.188
99155W        W64382  11.676  12.487   1.346
99156W        W64383   3.980  19.603  12.460
99157W        W64384  11.685  16.605   0.499
99158W        W64385  13.098  18.480  12.527
99159W        W64386   0.780  18.205   0.330
99160W        W64387  16.416   7.380  12.795
99161W        W64388  34.322  36.461   0.845
99162W        W64389  22.598  42.251   2.430
99163W        W64390  22.021  31.783  13.695
99164W        W64391  39.817  35.098  10.998
99165W        W64392  12.074   8.875   0.233
99166W        W64393   9.278  31.426  12.949
99167W        W64394  21.293  17.110  13.385
99168W        W64395  23.843  44.478   2.722
99169W        W64396  34.756  20.633   1.271
99170W        W64397  22.524  27.356  13.358
99171W        W64398   4.844  25.448   3.879
99172W        W64399   3.040  16.861   0.714
99173W        W64400  39.755  19.677   1.881
99174W        W64401  39.213  43.967   2.702
99175W        W64402  26.509   3.397  14.898
99176W        W64403   9.732   5.423   2.387
99177W        W64404  24.032  19.955  12.854
99178W        W64405  37.685   5.834   0.989
99179W        W64406   1.384  35.439  12.924
99180W        W64407  37.933  41.579   0.976
99181W        W64408  26.124  41.725  12.040
99182W        W64409  21.408  42.948   1.354
99183W        W64410   1.464  26.756   0.889
99184W        W64411  38.881  15.078   2.714
99185W        W64412  40.689  21.663   0.844
99186W        W64413  38.260   5.463  12.778
99187W        W64414  22.684   2.551   2.126
99188W        W64415  16.722  27.047   3.635
99189W        W64416  13.471  35.407  11.491
99190W        W64417  44.804   2.855   2.710
99191W        W64418  20.214   1.279  10.424
99192W        W64419  39.300  18.787  13.030
99193W        W64420  41.032  10.613   2.706
99194W        W64421  39.338  38.062  13.984
99195W        W64422  15.857  33.493  11.542
99196W        W64423  32.176  15.818   3.705
99197W        W64424  12.283  35.993   2.377
99198W        W64425  36.124  17.132  13.455
99199W        W64426  28.984   9.259  12.480
99200W        W64427   8.345  41.848   0.875
99201W        W64428  37.355  26.035  11.510
99202W        W64429  10.176  25.066   2.734
99203W        W64430  10.521  38.900  13.009
99204W        W64431  20.732  13.469  11.904
99205W        W64432  33.568   1.095   2.423
99206W        W64433  41.892   5.924  13.933
99207W        W64434  41.735  39.141  12.137
99208W        W64435  39.476  31.585   3.669
99209W        W64436   4.090   4.754   1.509
99210W        W64437   5.391   8.667   1.913
99211W        W64438  11.976  33.374  12.446
99212W        W64439   7.363  10.642  11.594
99213W        W64440   2.298  40.679  13.545
99214W        W64441  39.757  43.682   0.422
99215W        W64442  13.132  32.839  14.921
99216W        W64443  22.687   6.133  10.689
99217W        W64444  14.786   2.703   1.747
99218W        W64445   1.893  23.276   2.685
99219W        W64446  17.893  11.000   3.307
99220W        W64447  11.182  40.828  12.153
99221W        W64448  26.154   5.896   0.947
99222W        W64449  32.551  34.915   2.372
99223W        W64450  11.053  38.394   4.688
99224W        W64451  28.829  30.682   4.913
99225W        W64452  32.058  27.403   0.882
99226W        W64453  41.696  38.137   4.223
99227W        W64454  15.310  40.783  11.991
99228W        W64455   2.517  19.383  11.445
99229W        W64456   6.409  37.932  11.601
99230W        W64457  34.184  38.800   2.032
99231W        W64458  12.583  16.072  14.170
99232W        W64459   0.499  20.369   2.275
99233W        W64460   8.238  16.336   5.195
99234W        W64461  10.972  39.001  12.784
99235W        W64462  10.661  17.183   2.198
99236W        W64463  37.396  44.270   2.757
99237W        W64464  14.739  12.735  14.909
99238W        W64465  23.784  40.809   0.845
99239W        W64466  37.546  37.362   4.792
99240W        W64467   4.131  22.208   3.647
99241W        W64468  26.775  19.179   4.542
99242W        W64469  20.228  35.565   2.213
99243W        W64470  12.911  38.354  14.837
99244W        W64471  38.652  12.779  11.570
99245W        W64472  19.519   9.530   3.220
99246W        W64473  24.598   5.185   4.929
99247W        W64474  41.861  38.511  12.778
99248W        W64475   4.948  39.420   2.789
99249W        W64476  31.581  43.776   0.936
99250W        W64477  16.195   3.801   3.005
99251W        W64478  30.706  28.912   2.092
99252W        W64479  27.379  38.505   3.851
99253W        W64480  40.442  20.812   2.307
99254W        W64481  25.776  27.499  11.160
99255W        W64482  44.455  23.834  12.535
99256W        W64483  34.924  26.501  12.138
99257W        W64484  34.437   9.152   4.239
99258W        W64485  33.573  30.283  10.043
99259W        W64486  23.780  43.330  13.848
99260W        W64487  11.083   3.242  11.560
99261W        W64488  33.015  17.917   1.300
99262W        W64489  43.335  23.053   1.433
99263W        W64490  12.393  36.382  14.407
99264W        W64491  34.681  26.517  10.497
99265W        W64492  17.880  27.176  14.420
99266W        W64493  31.143  19.622  11.092
99267W        W64494   2.091  13.721   3.280
99268W        W64495  36.248  38.935  13.122
99269W        W64496  44.472  22.777  13.943
99270W        W64497  35.718  16.775  10.879
99271W        W64498  37.466   0.689   1.231
99272W        W64499  12.956  35.157   9.791
99273W        W64500   5.654  37.696  11.626
99274W        W64501  35.131  25.506  13.456
99275W        W64502  10.192  27.604   1.640
99276W        W64503   3.498  38.957   1.362
99277W        W64504  22.754  14.593   2.178
99278W        W64505  15.964  44.401  14.597
99279W        W64506  22.004  10.273   4.677
99280W        W64507  18.388  42.108  11.953
99281W        W64508  32.580  10.695  11.085
99282W        W64509  38.409   7.971  14.914
99283W        W64510  17.578  24.385  14.275
99284W        W64511  37.030   4.428   3.905
99285W        W64512   3.986   8.327  12.352
99286W        W64513  21.433  27.381  11.498
99287W        W64514   5.334   5.300   0.549
99288W        W64515  35.863   0.784   1.925
99289W        W64516  34.467  36.195  10.504
99290W        W64517   5.223  15.841   3.778
99291W        W64518  14.306  13.738   4.715
99292W        W64519  44.316  23.093  13.562
99293W        W64520  17.808   7.392   2.867
99294W        W64521  35.900   9.638   2.271
99295W        W64522  11.530   3.045   2.882
99296W        W64523  39.147   1.485  11.942
99297W        W64524  42.564  32.185   3.178
99298W        W64525  10.916  35.337  13.325
99299W        W64526   2.201  25.992   3.975
99300W        W64527  18.586  43.878  14.692
99301W        W64528  28.397   6.344  10.233
99302W        W64529  15.729  41.155   2.242
99303W        W64530  28.053  23.833  13.843
99304W        W64531  42.793   5.304   3.191
99305W        W64532  28.644  42.948  13.482
99306W        W64533  27.501  21.326  12.982
99307W        W64534  10.226  24.989   9.920
99308W        W64535   4.367  33.327   4.675
99309W        W64536  26.629  13.597   1.360
99310W        W64537  36.371  39.494  13.902
99311W        W64538  13.570  38.873  11.405
99312W        W64539   6.655   6.072   4.197
99313W        W64540  37.968  14.081  11.108
99314W        W64541  35.354  24.650   2.733
99315W        W64542  30.862  38.004  13.872
99316W        W64543  11.448   2.652   1.624
99317W        W64544  18.832  36.501   0.976
99318W        W64545  38.437  22.664   4.140
99319W        W64546  38.964  39.878   0.302
99320W        W64547  30.171  43.974  13.110
99321W        W64548  40.571  42.316  14.961
99322W        W64549  14.270  18.712  12.515
99323W        W64550  40.977  26.611  14.062
99324W        W64551   6.309  18.217   3.584
99325W        W64552  34.513   9.864  10.762
99326W        W64553  24.232  44.413   1.253
99327W        W64554  15.217  13.834   3.689
99328W        W64555  11.773   9.853   4.145
99329W        W64556  18.988   0.003  12.033
99330W        W64557  26.040  23.009   0.860
99331W        W64558  31.037  20.679  12.909
99332W        W64559   1.167  12.883   2.832
99333W        W64560   0.935  11.094   4.630
99334W        W64561  32.791   6.994  11.221
99335W        W64562  18.033  28.553   2.387
99336W        W64563  33.127  15.346  13.269
99337W        W64564  18.068   2.230   4.539
99338W        W64565  36.546   6.104   3.072
99339W        W64566  30.494   9.720   4.115
99340W        W64567  17.677  38.735   2.356
99341W        W64568  36.032  18.749   3.321
99342W        W64569  42.329  38.110   2.343
99343W        W64570   5.417  18.862   0.403
99344W        W64571  17.849   5.268  10.559
99345W        W64572  17.738  19.507  10.664
99346W        W64573  25.227  13.608   3.380
99347W        W64574  32.053   1.383   0.086
99348W        W64575  31.698  12.567  14.414
99349W        W64576   9.293  12.897   4.832
99350W        W64577   0.203   3.372  13.962
99351W        W64578  16.439   9.774   2.128
99352W        W64579  23.712   0.418   1.820
99353W        W64580  16.103  28.039   3.419
99354W        W64581  13.188  27.930   1.905
99355W        W64582  22.912  42.836  14.116
99356W        W64583   2.697  12.421   2.107
99357W        W64584  20.118  41.983   0.472
99358W        W64585  29.021  16.318  10.723
99359W        W64586  25.030  18.278   3.867
99360W        W64587  20.778  38.517   3.687
99361W        W64588   9.110  23.529   4.102
99362W        W64589   5.094  35.758  10.735
99363W        W64590  29.973  21.290   1.243
99364W        W64591  43.618   9.450   3.522
99365W        W64592   8.369  36.683  14.273
99366W        W64593  43.785  26.591   4.247
99367W        W64594  10.033  32.313   1.856
99368W        W64595  23.968  35.107   1.291
99369W        W64596  14.583  21.469  12.193
99370W        W64597  24.373   9.694   4.662
99371W        W64598  16.362  25.681  12.633
99372W        W64599  18.059  29.013   2.642
99373W        W64600  33.183  13.156   1.215
99374W        W64601  15.744  24.160  14.482
99375W        W64602  10.676  41.497   3.185
99376W        W64603  29.583  30.652  12.015
99377W        W64604   8.771   2.750  14.108
99378W        W64605   2.925  43.614   4.034
99379W        W64606   5.531  31.697  11.120
99380W        W64607   6.726   0.293  13.719
99381W        W64608  41.491  39.103  10.573
99382W        W64609  23.351  43.418  10.179
99383W        W64610  15.394  15.648   0.009
99384W        W64611  35.419  21.815   0.405
99385W        W64612  18.650  31.054   2.617
99386W        W64613   7.030  14.673  13.470
99387W        W64614   6.851   1.031   4.498
99388W        W64615   4.393  40.295   5.070
99389W        W64616  13.928  24.059   4.129
99390W        W64617  14.607  28.547   1.842
99391W        W64618  27.681   5.032   0.428
99392W        W64619  11.639  42.738  11.410
99393W        W64620  38.019  44.404  12.068
99394W        W64621  14.292  27.461  13.095
99395W        W64622  10.407   0.261   2.394
99396W        W64623  20.331  12.854   4.820
99397W        W64624  20.064  18.064   2.132
99398W        W64625  19.603  18.490  13.930
99399W        W64626   7.685   2.937   4.543
99400W        W64627  25.301   9.212  13.281
99401W        W64628  39.371  22.516   1.036
99402W        W64629  31.586  21.765  10.469
99403W        W64630  40.309  10.233  10.801
99404W        W64631  14.045  42.969  14.625
99405W        W64632  23.277   2.411   3.717
99406W        W64633  16.088  39.910   3.261
99407W        W64634  28.633   9.336   2.366
99408W        W64635  38.241  21.305   0.474
99409W        W64636   6.340   7.684   0.177
99410W        W64637  28.576  31.388  12.450
99411W        W64638  34.487  22.738  12.144
99412W        W64639   1.417  27.672  11.048
99413W        W64640  13.750   3.151   2.682
99414W        W64641   5.775  11.207   1.910
99415W        W64642  18.812  18.093  12.577
99416W        W64643  15.997   3.606  14.757
99417W        W64644  31.737  17.120   3.182
99418W        W64645  15.118   6.723  12.916
99419W        W64646  17.194  17.858  12.343
99420W        W64647  36.063   9.839   4.358
99421W        W64648  39.385  37.793   0.875
99422W        W64649   9.440   7.595   1.260
99423W        W64650  14.819   2.231   2.646
99424W        W64651  39.459  40.319  10.402
99425W        W64652   7.841  42.737  13.742
99426W        W64653  15.771  34.463  11.594
99427W        W64654   3.767  22.775  14.934
99428W        W64655  16.875  25.986   1.922
99429W        W64656  19.521  35.151   0.644
99430W        W64657  15.618   6.587   2.209
99431W        W64658   1.834  21.278  11.575
99432W        W64659  39.564  32.864   4.673
99433W        W64660  43.845  14.263   1.408
99434W        W64661   8.674  41.809  13.518
99435W        W64662   2.010  31.867  11.890
99436W        W64663  44.366  34.133   0.863
99437W        W64664  39.837   2.935   3.732
99438W        W64665  35.018  20.517  12.446
99439W        W64666  37.269  23.135   3.903
99440W        W64667   5.890  36.562   1.849
99441W        W64668  25.710  35.817   3.402
99442W        W64669  38.248  43.948  11.979
99443W        W64670  26.156  14.140  14.266
99444W        W64671  16.564  32.143   3.308
99445W        W64672  31.617  17.971  12.083
99446W        W64673  24.995  10.268  14.428
99447W        W64674   4.507  29.466  13.538
99448W        W64675  38.789  32.592  12.563
99449W        W64676   5.796  12.316   3.679
99450W        W64677   0.052  21.801   4.244
99451W        W64678  19.062  34.615  14.565
99452W        W64679  33.683  44.212   4.126
99453W        W64680  27.009   7.255  11.905
99454W        W64681  42.548  31.060  11.052
99455W        W64682  39.648  34.485   4.222
99456W        W64683  22.069  38.357   3.136
99457W        W64684  14.837  25.503   4.771
99458W        W64685   4.351   6.648  14.728
99459W        W64686  36.298  13.170   1.908
99460W        W64687  13.963  10.963   3.235
99461W        W64688   6.646   9.867  13.510
99462W        W64689   7.530   5.413   0.392
99463W        W64690  38.073  21.085  13.604
99464W        W64691  29.384  21.930  14.335
99465W        W64692  25.233   5.065  12.096
99466W        W64693  17.710  20.424   2.183
99467W        W64694  44.803  27.588  14.074
99468W        W64695  41.447  11.311   0.883
99469W        W64696  27.285  12.001   2.134
99470W        W64697  39.491  16.616   4.277
99471W        W64698  13.273   3.885  12.870
99472W        W64699  22.367   5.097  14.073
99473W        W64700  33.072  35.465  14.494
99474W        W64701  28.734  30.267   1.213
99475W        W64702  19.657  21.294   3.194
99476W        W64703  31.900   4.130   0.503
99477W        W64704  18.368  42.393   1.585
99478W        W64705  18.459  32.044   2.852
99479W        W64706  13.667  40.608  11.122
99480W        W64707  40.149  30.329  12.837
99481W        W64708  24.208  24.590  14.352
99482W        W64709   2.577   9.634  11.136
99483W        W64710  34.432  15.125  12.213
99484W        W64711  39.480  33.967  13.648
99485W        W64712  24.675  11.655   2.353
99486W        W64713  37.029  37.949   2.977
99487W        W64714  11.651  36.522  13.824
99488W        W64715  20.483  33.059   2.762
99489W        W64716  38.993  39.773   3.665
99490W        W64717  44.322   2.341   2.188
99491W        W64718  43.915  32.051   3.348
99492W        W64719  22.793  25.538  10.895
99493W        W64720   7.359  44.583  13.825
99494W        W64721  44.093   5.859   4.230
99495W        W64722   0.481  15.241   0.331
99496W        W64723  22.269  41.798   3.625
99497W        W64724  27.229   9.156  13.998
99498W        W64725  32.019   6.178   2.366
99499W        W64726  10.439   5.409   3.657
99500W        W64727  40.256  27.540   0.485
99501W        W64728  39.031   1.526   1.716
99502W        W64729  26.491  30.548  13.278
99503W        W64730  29.652  40.050  10.592
99504W        W64731  37.037  37.625   4.029
99505W        W64732  29.107  29.693  12.538
99506W        W64733  12.594  41.974  12.025
99507W        W64734   1.991  24.176   1.388
99508W        W64735  38.081  16.603  11.116
99509W        W64736  26.400   7.202  14.578
99510W        W64737  12.693  11.063  12.259
99511W        W64738  21.085   1.210   3.837
99512W        W64739  16.811   7.621   3.752
99513W        W64740  30.568  42.154  14.322
99514W        W64741  36.295  10.383   3.198
99515W        W64742  10.807  36.319  13.715
99516W        W64743  16.249  41.755  11.162
99517W        W64744   9.732  26.462  12.500
99518W        W64745  43.202   2.452   1.203
99519W        W64746  32.115  44.996   0.814
99520W        W64747  25.779  25.656  14.306
99521W        W64748  23.987  37.806   0.433
99522W        W64749  40.065  44.338   4.152
99523W        W64750  36.452  43.591  13.400
99524W        W64751  14.208   4.755   0.284
99525W        W64752  23.572  33.042  10.928
99526W        W64753  42.066  11.197   2.794
99527W        W64754   5.129  29.259  12.389
99528W        W64755  29.706  10.308  12.945
99529W        W64756  12.162  19.335  14.036
99530W        W64757   0.309  26.784  13.088
99531W        W64758  44.004  10.754  14.192
99532W        W64759  13.003  33.100   3.154
99533W        W64760  34.912  31.080  12.323
99534W        W64761   8.250  18.652  10.405
99535W        W64762  14.628  33.979  14.884
99536W        W64763  19.196  36.532   1.360
99537W        W64764  22.232  36.085   3.708
99538W        W64765  22.711  17.258  12.778
99539W        W64766   5.844   1.196  10.388
99540W        W64767   6.703  13.043  11.797
99541W        W64768  13.609  15.700   0.979
99542W        W64769  14.558  24.557  13.291
99543W        W64770  36.001  13.828   0.300
99544W        W64771  31.550  31.240  14.876
99545W        W64772  29.649  12.685  10.980
99546W        W64773  39.049   4.501  10.296
99547W        W64774  35.869  19.163  13.926
99548W        W64775  40.419   0.023  12.413
99549W        W64776  14.161  16.662   0.406
99550W        W64777  14.817  28.149   3.069
99551W        W64778  29.937  30.362  13.861
99552W        W64779   7.137  40.599   3.359
99553W        W64780   1.221  35.590  10.614
99554W        W64781  12.818  38.885  12.565
99555W        W64782  28.937  10.417   4.441
99556W        W64783  28.823  29.713   0.229
99557W        W64784  18.455   6.211   3.254
99558W        W64785   0.334  14.743   0.856
99559W        W64786  37.589  36.791  11.399
99560W        W64787   4.407  28.326  13.564
99561W        W64788   5.917  36.057  11.174
99562W        W64789  16.634  11.839   0.417
99563W        W64790  31.145  12.747  13.601
99564W        W64791  29.517  18.214   4.511
99565W        W64792  13.073   4.522  14.928
99566W        W64793  18.087   6.795   3.633
99567W        W64794  28.422  39.991  13.478
99568W        W64795  35.069   7.881   4.574
99569W        W64796  18.290  22.951   1.911
99570W        W64797  17.784  15.598  13.511
99571W        W64798  14.004   4.308   0.745
99572W        W64799  21.757  18.255   4.098
99573W        W64800  31.547   1.771  13.982
99574W        W64801  37.899  33.454  13.514
99575W        W64802  28.559  43.030   4.947
99576W        W64803  21.489  12.608   3.480
99577W        W64804   2.020  36.532  10.623
99578W        W64805  17.316  28.403   4.750
99579W        W64806  22.937  27.213  14.368
99580W        W64807  29.971   4.325  11.559
99581W        W64808  30.568   1.353  14.227
99582W        W64809  30.750  36.413  12.547
99583W        W64810  15.353  38.457   0.482
99584W        W64811  33.204  35.883   2.405
99585W        W64812  34.045  42.776   2.776
99586W        W64813  15.029  16.607  14.071
99587W        W64814   1.487  36.569  10.745
99588W        W64815  41.444  36.353  13.364
99589W        W64816  34.079   5.619  13.087
99590W        W64817  36.184  21.544   4.471
99591W        W64818  25.249  20.513   0.448
99592W        W64819  17.874  23.236  13.419
99593W        W64820  10.241  27.006  12.461
99594W        W64821   0.825  37.664   2.789
99595W        W64822   1.208   9.910   0.879
99596W        W64823  36.457  11.359   3.280
99597W        W64824   1.007  26.880   0.594
99598W        W64825  17.341  35.323   4.157
99599W        W64826  32.675  44.437   2.268
99600W        W64827  31.351   0.572  12.955
99601W        W64828   0.528  13.366  10.710
99602W        W64829  27.678  26.195  14.595
99603W        W64830  27.267  43.302   4.660
99604W        W64831  27.139  44.143   2.224
99605W        W64832  12.710  43.592   2.662
99606W        W64833  40.918  29.464  12.042
99607W        W64834   8.414  35.469  11.218
99608W        W64835  16.120  38.425  11.664
99609W        W64836   4.305  34.483  14.767
99610W        W64837  34.913   4.360  14.630
99611W        W64838   0.086  36.371   0.880
99612W        W64839   0.495   5.965   0.125
99613W        W64840  22.739   9.717   2.451
99614W        W64841  17.803  24.734   4.634
99615W        W64842  34.885  24.225   2.226
99616W        W64843  19.189  23.000   0.808
99617W        W64844  10.451   0.466  14.005
99618W        W64845  15.143  39.749   3.634
99619W        W64846  17.036  34.076   0.231
99620W        W64847  19.026  36.638  11.487
99621W        W64848  20.746  17.941  12.919
99622W        W64849   0.917  29.660   1.819
99623W        W64850   6.589  17.504   2.300
99624W        W64851  18.705  24.117   2.819
99625W        W64852   9.039   6.735   4.138
99626W        W64853   7.971   4.863   1.579
99627W        W64854  41.662  16.831   3.294
99628W        W64855  42.949  32.186   1.809
99629W        W64856  26.495  41.894  13.404
99630W        W64857  32.645  32.641   2.208
99631W        W64858  36.517  41.601   2.205
99632W        W64859  38.803   4.322  11.036
99633W        W64860  25.414   3.258  13.067
99634W        W64861  42.921  20.714  11.920
99635W        W64862  43.755  41.363  11.671
99636W        W64863  43.838  35.046   3.095
99637W        W64864  30.022  18.684  12.870
99638W        W64865  13.921   5.396   4.086
99639W        W64866  24.233  24.593  12.187
99640W        W64867  20.725  10.510  13.465
99641W        W64868  42.316  11.474   1.170
99642W        W64869  24.969  27.997  11.999
99643W        W64870  22.053  26.155  10.745
99644W        W64871   7.797   4.545   4.310
99645W        W64872  42.438  30.414  10.218
99646W        W64873  21.067  39.434  12.699
99647W        W64874  26.470  41.016  10.713
99648W        W64875  17.454  37.511  14.587
99649W        W64876  40.821  39.173  11.079
99650W        W64877  33.055  15.609  11.828
99651W        W64878  34.474  33.918   0.683
99652W        W64879  20.467  44.177   4.526
99653W        W64880   9.935  36.910  12.922
99654W        W64881  40.900  10.595   2.178
99655W        W64882  20.215  17.917  12.833
99656W        W64883   8.945  33.560  12.213
99657W        W64884  20.994  37.277   1.703
99658W        W64885   8.952   9.745  12.042
99659W        W64886  29.432  34.085  11.324
99660W        W64887  40.518  17.582   2.849
99661W        W64888  32.120  34.516  11.199
99662W        W64889  38.616  17.631  13.571
99663W        W64890  21.698  32.513  12.996
99664W        W64891  10.740  30.294   1.169
99665W        W64892  20.161   3.499   3.557
99666W        W64893  29.563  25.106   0.704
99667W        W64894  11.162   1.672   1.186
99668W        W64895  27.713  18.798   2.661
99669W        W64896  39.058  25.103  10.966
99670W        W64897   3.715  41.168  11.943
99671W        W64898   9.820   8.969   0.384
99672W        W64899   1.546  10.664  11.860
99673W        W64900  34.236  31.633  12.100
99674W        W64901  28.089  14.067  13.982
99675W        W64902  17.703  24.171   2.919
99676W        W64903  18.116  11.358   1.401
99677W        W64904  19.666  25.259  10.750
99678W        W64905  17.754  36.858   4.827
99679W        W64906   0.441   0.760  14.887
99680W        W64907   9.873   8.143  11.990
99681W        W64908  17.017  35.293  13.368
99682W        W64909  14.587  28.125   2.190
99683W        W64910  11.751  20.062   2.764
99684W        W64911  40.988  34.925  12.943
99685W        W64912  22.974  18.299   0.770
99686W        W64913   6.925  43.986   4.097
99687W        W64914  11.089  27.028  14.935
99688W        W64915  23.466  20.261   4.168
99689W        W64916  10.410   5.251  10.636
99690W        W64917  34.084  14.382   5.327
99691W        W64918  21.514  38.611   0.394
99692W        W64919  25.940  14.682   1.917
99693W        W64920  22.984  42.793   1.451
99694W        W64921  21.112  33.621  12.427
99695W        W64922  43.306  33.165   3.430
99696W        W64923   4.722  28.045   3.069
99697W        W64924  44.705  22.421  14.993
99698W        W64925  41.965   3.729   4.500
99699W        W64926   1.910  40.402  12.830
99700W        W64927  27.894  42.054   4.128
99701W        W64928  17.042  41.359   2.729
99702W        W64929  18.143   4.937   0.338
99703W        W64930  43.379   7.633  10.318
99704W        W64931  21.625  21.608  14.486
99705W        W64932  30.676  30.417   3.718
99706W        W64933  36.338  21.841  14.416
99707W        W64934  30.047   9.157   2.934
99708W        W64935   8.686   5.254   3.658
99709W        W64936  20.320  26.162   3.330
99710W        W64937  18.048   5.254  11.640
99711W        W64938  39.950   3.511   4.529
99712W        W64939  25.511  38.289   2.438
99713W        W64940  13.608   3.511  14.856
99714W        W64941  17.117  27.012   4.816
99715W        W64942  42.806  29.231   2.369
99716W        W64943  43.807  24.229  14.506
99717W        W64944  39.510  43.504  13.431
99718W        W64945  34.555   6.558   3.162
99719W        W64946  21.714  31.014  13.103
99720W        W64947  16.950  32.110  14.523
99721W        W64948  29.857   8.268   4.672
99722W        W64949  30.591  37.353   2.339
99723W        W64950   2.970  13.199   4.747
99724W        W64951   5.265  29.521  10.899
99725W        W64952  27.115  23.068   2.467
99726W        W64953  22.633  40.790  11.586
99727W        W64954  18.533   6.139  11.980
99728W        W64955  15.764  26.452   2.489
99729W        W64956  41.342  18.012   2.338
99730W        W64957  16.329  21.645  12.860
99731W        W64958   4.227   6.875  10.658
99732W        W64959  32.740  13.882   2.738
99733W        W64960  36.427  34.537   1.845
99734W        W64961  14.386  30.041   3.872
99735W        W64962  27.561  31.899   0.303
99736W        W64963  30.059   1.412   3.299
99737W        W64964  27.114  39.921   0.986
99738W        W64965  26.771  43.904  10.238
99739W        W64966  33.488  37.975   0.925
99740W        W64967  13.708  14.256  11.946
99741W        W64968  16.393  42.889   1.483
99742W        W64969  42.845  24.715  12.962
99743W        W64970   1.791  20.788  11.652
99744W        W64971  40.057   6.464  12.578
99745W        W64972  12.698   7.151  14.993
99746W        W64973   9.234  37.069  13.458
99747W        W64974  29.720  21.650  14.051
99748W        W64975  29.553  32.064  14.251
99749W        W64976   6.357  22.096  14.760
99750W        W64977  32.727  17.209   4.149
99751W        W64978  12.395  32.884   1.860
99752W        W64979  27.557  44.771   1.822
99753W        W64980  38.247  26.488   2.502
99754W        W64981  28.665  20.300   2.796
99755W        W64982   7.727   6.289  13.928
99756W        W64983  13.120  31.985  13.008
99757W        W64984  24.922  16.677   1.921
99758W        W64985  22.684  11.279  12.785
99759W        W64986  28.884  19.072   3.646
99760W        W64987  35.006  28.439   3.399
99761W        W64988  29.477  25.218  11.989
99762W        W64989  44.379   7.209   0.904
99763W        W64990  10.743  27.002  11.561
99764W        W64991  37.558  22.639  11.533
99765W        W64992  24.444  40.869  12.021
99766W        W64993  44.072   0.090   0.556
99767W        W64994  12.350  41.019   0.145
99768W        W64995  17.303  11.793   2.199
99769W        W64996  18.275   9.119   2.299
99770W        W64997  34.783   0.219   0.209
99771W        W64998  29.542   8.618   1.961
99772W        W64999  39.939  18.514   3.261
99773W        W65000  34.031  28.496   2.341
99774W        W65001  10.498  32.520   3.569
99775W        W65002  16.901  36.630   3.217
99776W        W65003   7.426  32.405  12.351
99777W        W65004  42.720  25.658  13.434
99778W        W65005  44.443  15.212  13.821
99779W        W65006  17.830  19.469  12.849
99780W        W65007  23.271  42.538  12.058
99781W        W65008  11.052   1.768  12.872
99782W        W65009  28.207   9.585  14.853
99783W        W65010  34.416   8.125   0.088
99784W        W65011  42.502  38.899   3.290
99785W        W65012   0.182  26.178   1.207
99786W        W65013  10.451  29.897   3.353
99787W        W65014  33.021  14.773   3.267
99788W        W65015  14.830  26.059  11.699
99789W        W65016  44.476  30.377  12.962
99790W        W65017  35.822  11.816  13.570
99791W        W65018  11.036   1.354  13.566
99792W        W65019  44.965  32.551   3.242
99793W        W65020  17.005  32.211  13.051
99794W        W65021   4.330  35.675  13.540
99795W        W65022  35.159  12.208  12.538
99796W        W65023  15.573  26.089  12.901
99797W        W65024  38.607  20.928   0.410
99798W        W65025  20.250   2.627   3.559
99799W        W65026  11.986  27.670   1.413
99800W        W65027  11.715  26.486  13.373
99801W        W65028  14.165   1.690  14.006
99802W        W65029  13.002  21.165   0.340
99803W        W65030  40.469  27.892   1.405
99804W        W65031  29.121  42.029   3.300
99805W        W65032  40.652  44.668  10.660
99806W        W65033  39.434  19.701  13.579
99807W        W65034  36.114   7.254   3.114
99808W        W65035  36.569  42.114   2.210
99809W        W65036  19.275  19.162  12.332
99810W        W65037   8.933  13.505  14.276
99811W        W65038  39.019  14.200   1.640
99812W        W65039  39.252  26.386  13.535
99813W        W65040  35.011  11.921  13.981
99814W        W65041  44.745  19.101   3.389
99815W        W65042  36.489   4.173   3.443
99816W        W65043   4.211  21.084   1.455
99817W        W65044  37.896  12.353  10.789
99818W        W65045   6.896  13.508  11.678
99819W        W65046  30.414  42.950  14.749
99820W        W65047  26.574  44.368  12.872
99821W        W65048  14.055   8.715  13.194
99822W        W65049  43.844  31.888  10.695
99823W        W65050  16.152   4.569  14.715
99824W        W65051   4.911  27.636   4.240
99825W        W65052   2.262  42.546   1.905
99826W        W65053  26.831  29.707  13.226
99827W        W65054   7.181  36.280   1.339
99828W        W65055  35.295   3.158   3.508
99829W        W65056  42.990  38.048  14.361
99830W        W65057  16.498  25.914   3.604
99831W        W65058  10.164  43.026  14.555
99832W        W65059  20.856   0.701   5.162
99833W        W65060   4.694  20.198   0.757
99834W        W65061   1.325  37.546  10.988
99835W        W65062   3.762   2.261   0.732
99836W        W65063   8.432  42.110  10.520
99837W        W65064   5.047  38.310  14.918
99838W        W65065  32.839  44.109  10.204
99839W        W65066   6.298   9.455   3.740
99840W        W65067  28.044  22.275   3.607
99841W        W65068   2.730  30.905   0.803
99842W        W65069  33.653   3.076   0.308
99843W        W65070  27.499   1.074   4.092
99844W        W65071  34.139  44.280  14.009
99845W        W65072  22.238  41.512  13.858
99846W        W65073  25.991   4.788  11.813
99847W        W65074  28.493   3.014   1.832
99848W        W65075  26.367  29.836  11.219
99849W        W65076  19.825   1.469  13.961
99850W        W65077  40.739  25.502  11.664
99851W        W65078  24.777  12.732  13.896
99852W        W65079   2.528  32.289  11.045
99853W        W65080  23.688  37.901  14.081
99854W        W65081  20.183  24.531   4.935
99855W        W65082  28.950  28.329   1.539
99856W        W65083  33.708  15.208   4.461
99857W        W65084  11.146  10.160  11.586
99858W        W65085  23.812   8.378  12.108
99859W        W65086  26.039  36.644  13.417
99860W        W65087  18.526   7.755  12.021
99861W        W65088  12.670   7.150   3.745
99862W        W65089  38.508  35.912   3.638
99863W        W65090  28.652  43.955   1.968
99864W        W65091  11.721  25.184  10.880
99865W        W65092  30.824   2.692   0.384
99866W        W65093   3.709  17.710   3.777
99867W        W65094  13.825  40.754  13.909
99868W        W65095  23.666  27.090   2.731
99869W        W65096  34.878  23.722  14.404
99870W        W65097  31.501  29.704  13.736
99871W        W65098  28.926  10.362   1.655
99872W        W65099  21.769  27.267   0.778
99873W        W65100  26.822  44.788  14.957
99874W        W65101  17.832  13.221  11.233
99875W        W65102  28.888  43.946   3.162
99876W        W65103  28.333  14.137  10.669
99877W        W65104  24.706  23.709   2.356
99878W        W65105  35.113   8.131   4.128
99879W        W65106  15.647  39.856   3.567
99880W        W65107   8.474  41.438  13.151
99881W        W65108  17.528  37.809   4.397
99882W        W65109   4.940   8.654  14.861
99883W        W65110   2.350   4.449   0.325
99884W        W65111  42.486  37.481   4.660
99885W        W65112  44.398   6.342  12.485
99886W        W65113  42.801  35.173   3.633
99887W        W65114  23.219  12.419  11.365
99888W        W65115  35.806  29.908   3.949
99889W        W65116  42.670  42.848   3.050
99890W        W65117  10.680  33.930   3.133
99891W        W65118   7.445  25.247  12.438
99892W        W65119  42.046  23.238  13.814
99893W        W65120  42.242  36.851   3.748
99894W        W65121  20.506  36.318  13.424
99895W        W65122  11.079  17.632  11.559
99896W        W65123  30.891   9.192  13.892
99897W        W65124  41.285  24.578  12.978
99898W        W65125  32.790  28.835   3.238
99899W        W65126  20.271  37.447  11.858
99900W        W65127  21.457  30.649   3.366
99901W        W65128  35.849  13.749   1.228
99902W        W65129  28.252  39.812  10.679
99903W        W65130  11.477  15.056  13.857
99904W        W65131  21.980  36.806  11.649
99905W        W65132  10.753  24.135   0.610
99906W        W65133  26.093  39.434  14.836
99907W        W65134  33.222  43.281  11.072
99908W        W65135  30.371  29.850   9.526
99909W        W65136  21.671  34.843   3.854
99910W        W65137  39.252  19.004  11.610
99911W        W65138  14.888  36.916   2.295
99912W        W65139  44.205  37.109  11.924
99913W        W65140  40.365  36.310   0.837
99914W        W65141  28.615  41.060   3.634
99915W        W65142  38.511  27.377   3.579
99916W        W65143   3.876  28.931   2.226
99917W        W65144  25.270  25.189  14.885
99918W        W65145  14.334  39.058   4.204
99919W        W65146   1.573  23.741   1.356
99920W        W65147  27.759   0.496  12.289
99921W        W65148  30.008  42.779   4.587
99922W        W65149  38.687  25.117   0.926
99923W        W65150  24.262  25.286   2.934
99924W        W65151  26.532   7.159  11.151
99925W        W65152  31.101   9.656  14.004
99926W        W65153   2.470   2.180  12.667
99927W        W65154  38.327  23.266  12.554
99928W        W65155  27.612  30.896   2.831
99929W        W65156  30.763  35.495  14.304
99930W        W65157   0.526  38.136  11.170
99931W        W65158  43.740  10.778   0.031
99932W        W65159  37.481   1.370   3.923
99933W        W65160  29.665  36.592  14.551
99934W        W65161   8.357  30.092   3.052
99935W        W65162  11.801  40.542   4.493
99936W        W65163  12.598  17.564   0.675
99937W        W65164  19.040  35.485   0.781
99938W        W65165  21.954  13.769   0.837
99939W        W65166   1.869  32.677   1.507
99940W        W65167  42.771  13.714  13.884
99941W        W65168  17.198  43.462   0.719
99942W        W65169   2.448  32.171   3.748
99943W        W65170  28.960  39.367  13.034
99944W        W65171  33.638  37.959   1.425
99945W        W65172   3.796  35.280  12.397
99946W        W65173  10.197  44.662  13.663
99947W        W65174  19.826   8.401   2.620
99948W        W65175  43.993  30.581  11.228
99949W        W65176  33.988  32.640  11.396
99950W        W65177  31.815  40.287   0.334
99951W        W65178  28.404   8.617  13.826
99952W        W65179  34.737   0.427  13.440
99953W        W65180   6.430   4.552   0.644
99954W        W65181  40.273  25.042   4.496
99955W        W65182   8.017  42.338  14.026
99956W        W65183   9.684  14.001  13.404
99957W        W65184  20.414  24.807  10.209
99958W        W65185  44.338   6.403  11.978
99959W        W65186   0.717   8.381   3.022
99960W        W65187   8.801  39.188   3.264
99961W        W65188  15.565   0.839   0.925
99962W        W65189  18.610   2.249  10.964
99963W        W65190  17.493   1.387   0.890
99964W        W65191  24.027   3.142  13.956
99965W        W65192  23.572   0.002  14.997
99966W        W65193  24.767  44.031   3.232
99967W        W65194   3.260  34.941   0.996
99968W        W65195  25.949  18.147   4.372
99969W        W65196  44.402  15.538  11.873
99970W        W65197  31.014  21.067   2.573
99971W        W65198   0.303  15.724   3.114
99972W        W65199  28.480  10.234   2.575
99973W        W65200  37.856  37.716   1.269
99974W        W65201  29.446  29.533  12.868
99975W        W65202  43.389  13.810  14.247
99976W        W65203  43.974  15.715   2.826
99977W        W65204  15.850  27.708   0.972
99978W        W65205   8.892   1.701  12.678
99979W        W65206   9.263  20.047   3.642
99980W        W65207   6.834  30.936  14.794
99981W        W65208  33.100  19.820  10.874
99982W        W65209  13.783  31.497  12.612
99983W        W65210  40.573  31.016  14.998
99984W        W65211  18.249   1.532  12.981
99985W        W65212   0.533  18.002   1.427
99986W        W65213  26.632   7.433  11.581
99987W        W65214  28.105  37.104   3.306
99988W        W65215  35.772  27.621  12.384
99989W        W65216  23.930   3.930   0.745
99990W        W65217  30.237  17.764   1.844
99991W        W65218  22.500  23.217   1.485
99992W        W65219  25.519  41.729   0.263
99993W        W65220  31.094  29.522   4.689
99994W        W65221  18.941   2.264  12.132
99995W        W65222  18.543  18.788   3.808
99996W        W65223  38.983   9.577   0.516
99997W        W65224  34.383  31.863  11.655
99998W        W65225   5.822  12.656   4.710
99999W        W65226   1.205  18.220   2.394
    0W        W65227  15.444   7.337   2.752
    1W        W65228  28.268  20.630   4.424
    2W        W65229  28.189  23.555   1.257
    3W        W65230  20.047  30.633  11.630
    4W        W65231  33.868  12.612  10.230
    5W        W65232  41.102  14.566   3.656
    6W        W65233  41.108   9.324  14.968
    7W        W65234  28.609   4.005   2.097
    8W        W65235   1.982   3.834   2.421
    9W        W65236  34.037  23.618   2.139
   10W        W65237  41.784  22.240  14.829
   11W        W65238  43.860   4.738   0.437
   12W        W65239   1.996  28.980   3.930
   13W        W65240  15.781  23.614   4.564
   14W        W65241  13.325   2.490  14.077
   15W        W65242   7.091  15.013   3.422
   16W        W65243   1.001  32.240   1.269
   17W        W65244  20.720  16.594  14.277
   18W        W65245  44.944  37.315   0.948
   19W        W65246  17.004  27.738  12.953
   20W        W65247  10.255  21.526   4.597
   21W        W65248  26.199  18.436  12.795
   22W        W65249  39.212  10.160  13.540
   23W        W65250  31.801  16.278   1.830
   24W        W65251  16.449   6.699  11.137
   25W        W65252  12.843  21.205  12.480
   26W        W65253  24.455  40.439   3.641
   27W        W65254   7.883  39.961  11.137
   28W        W65255  31.226  38.704  10.781
   29W        W65256  21.504  23.377   0.857
   30W        W65257  28.999  24.228   1.719
   31W        W65258  32.000  22.103   0.398
   32W        W65259  32.550  21.334  11.197
   33W        W65260  19.726   1.922   1.290
   34W        W65261  12.672  37.065  12.942
   35W        W65262   1.280  23.658  13.425
   36W        W65263  12.775   4.984  10.989
   37W        W65264   9.644   9.372  13.992
   38W        W65265  42.123  34.360  14.266
   39W        W65266   3.384  20.079   1.355
   40W        W65267  10.672  25.346   4.940
   41W        W65268  31.966  13.277  12.032
   42W        W65269  17.099  19.551  14.525
   43W        W65270  37.097   9.230   3.688
   44W        W65271   6.397  12.806   2.072
   45W        W65272  24.589  22.735   3.140
   46W        W65273  15.812  12.113  12.974
   47W        W65274  38.049  43.968   0.832
   48W        W65275  37.071  19.610  13.833
   49W        W65276  41.893  20.988  12.775
   50W        W65277  24.052  18.654  14.261
   51W        W65278  28.395  33.543  12.908
   52W        W65279  10.581   3.852  14.977
   53W        W65280   0.529  39.442   3.060
   54W        W65281  14.240   3.154  13.437
   55W        W65282  25.910  21.839   2.735
   56W        W65283  35.894   2.015   3.001
   57W        W65284  15.807  23.720   2.281
   58W        W65285  33.967  39.810   0.569
   59W        W65286  39.852  23.339  13.479
   60W        W65287  40.895  14.222   3.190
   61W        W65288  11.651  17.516   0.728
   62W        W65289   6.209  10.772  13.435
   63W        W65290  30.422  15.424  14.446
   64W        W65291   5.195  25.529   1.933
   65W        W65292  26.663  38.649  10.200
   66W        W65293  39.866  21.513  13.819
   67W        W65294  42.424  21.043  12.640
   68W        W65295   5.773   3.176  12.472
   69W        W65296  10.981  24.040  11.088
   70W        W65297  21.713   2.535   3.137
   71W        W65298  38.967   2.664   1.293
   72W        W65299  11.309  42.030  13.027
   73W        W65300  20.015  28.848   3.342
   74W        W65301  11.709   1.531  13.668
   75W        W65302  33.968  36.102  11.563
   76W        W65303  38.217   8.050   3.521
   77W        W65304   5.439   8.673   2.871
   78W        W65305   0.539  18.395  10.337
   79W        W65306   5.192  40.021   4.570
   80W        W65307  11.262  30.868   0.431
   81W        W65308   1.020   7.680  14.394
   82W        W65309  23.526  11.292   0.961
   83W        W65310  28.203  13.294  10.624
   84W        W65311  21.768  26.443   0.461
   85W        W65312  36.309   9.151   1.751
   86W        W65313  30.559  35.428  11.872
   87W        W65314  14.167  39.786  14.375
   88W        W65315  14.228  18.602  13.525
   89W        W65316   3.430  12.958  11.537
   90W        W65317  23.294  18.051   4.044
   91W        W65318   2.663  30.868  14.456
   92W        W65319  20.051  43.113  10.641
   93W        W65320  21.455  24.486  12.436
   94W        W65321  14.075  38.378  13.543
   95W        W65322   9.111  28.690   2.216
   96W        W65323  20.520   4.196   1.826
   97W        W65324  11.055   3.989   3.696
   98W        W65325  33.440  12.016   3.121
   99W        W65326  27.215  24.092   2.564
  100W        W65327  43.809  42.313  11.888
  101W        W65328  26.654  10.710   4.170
  102W        W65329  38.855  41.538  12.523
  103W        W65330  12.084  13.804   4.909
  104W        W65331  32.541  38.935  14.952
  105W        W65332  28.900  42.392   3.624
  106W        W65333  32.023  44.728  13.721
  107W        W65334  21.542  19.743   1.830
  108W        W65335   8.173   9.803  10.818
  109W        W65336  42.765   1.051   4.160
  110W        W65337  21.912   2.688  11.127
  111W        W65338  20.489   4.666   4.283
  112W        W65339   6.583   4.365  14.334
  113W        W65340  10.605   4.686   0.923
  114W        W65341  36.807  20.990   4.238
  115W        W65342  19.756  17.941  13.079
  116W        W65343   0.829  26.115  12.827
  117W        W65344  43.542  24.181  13.359
  118W        W65345  13.536  31.800  13.844
  119W        W65346   5.221  44.652  11.811
  120W        W65347  25.581  30.613   5.099
  121W        W65348  36.065  37.027  12.170
  122W        W65349  15.794  32.528   3.695
  123W        W65350   7.895  42.868  10.214
  124W        W65351  42.821  32.040  10.708
  125W        W65352  27.653  42.098  10.741
  126W        W65353  16.705   5.779   1.754
  127W        W65354  38.528  27.167   1.341
  128W        W65355  17.249   4.650   4.590
  129W        W65356  21.543  37.002   2.821
  130W        W65357  43.933  16.883   4.557
  131W        W65358   8.774  28.227   2.153
  132W        W65359  34.111   1.442  12.872
  133W        W65360  35.628  26.627  13.590
  134W        W65361  13.561  42.107   4.131
  135W        W65362  42.849  26.167   3.916
  136W        W65363  33.752  41.870   0.740
  137W        W65364  39.899  12.940  13.988
  138W        W65365   2.807  33.478  14.005
  139W        W65366  22.149  44.470   1.895
  140W        W65367  29.184  34.611   0.892
  141W        W65368   1.821  29.603   1.475
  142W        W65369   1.470  31.043   1.252
  143W        W65370   7.014  44.254  12.609
  144W        W65371   4.400   9.719  10.369
  145W        W65372  38.089   5.619  14.427
  146W        W65373   2.814   3.954  14.021
  147W        W65374  32.087  33.527   3.022
  148W        W65375  12.257  36.521   3.260
  149W        W65376  38.594  31.105  12.465
  150W        W65377   8.204  12.952  13.729
  151W        W65378  16.201  12.669  10.497
  152W        W65379   5.721   2.675   1.859
  153W        W65380  12.914   9.722  13.546
  154W        W65381   0.958  25.604   3.747
  155W        W65382   0.680  40.194   3.762
  156W        W65383  23.173  28.154  14.380
  157W        W65384   5.504   8.584   1.411
  158W        W65385  12.550  28.824  13.892
  159W        W65386   0.256   1.975  12.154
  160W        W65387  39.304  38.979  10.471
  161W        W65388  15.180  19.238   0.899
  162W        W65389   9.661   1.322  10.449
  163W        W65390  36.362   0.469  10.794
  164W        W65391  30.560  25.360  11.099
  165W        W65392  28.832   8.083  12.765
  166W        W65393  16.204  21.299  12.524
  167W        W65394  39.992  44.681   0.446
  168W        W65395   2.278   0.164  12.386
  169W        W65396  31.145  38.101  13.405
  170W        W65397  42.981  18.420  10.277
  171W        W65398  33.384  14.130  12.097
  172W        W65399   4.723  19.322  14.792
  173W        W65400  42.319   9.296  10.618
  174W        W65401  43.607   3.257   4.898
  175W        W65402  19.556  43.095  11.525
  176W        W65403  21.136  26.226   1.782
  177W        W65404  44.168  21.585  13.399
  178W        W65405  19.216  33.376  10.800
  179W        W65406  11.592   6.765  14.271
  180W        W65407  28.188  41.245  12.510
  181W        W65408  10.751   6.187   3.240
  182W        W65409  13.838   4.359   0.263
  183W        W65410   6.256  25.731   3.703
  184W        W65411  26.229   0.276   2.336
  185W        W65412  18.689  25.706  11.558
  186W        W65413   4.890  42.481  12.986
  187W        W65414  21.213  38.505   0.813
  188W        W65415   1.933   7.097   2.561
  189W        W65416  25.816   6.047   2.798
  190W        W65417  24.510  25.506   1.653
  191W        W65418   6.786  33.129  12.417
  192W        W65419  10.150  12.304   2.364
  193W        W65420  13.185  26.892  13.075
  194W        W65421  11.148  32.006  12.448
  195W        W65422   3.252  30.427   1.257
  196W        W65423  18.635  38.959  12.255
  197W        W65424  10.107  35.062   3.221
  198W        W65425  29.645  25.552  14.845
  199W        W65426  18.065  10.825  14.334
  200W        W65427   1.754   5.468   3.565
  201W        W65428  17.792  19.268   3.589
  202W        W65429  22.325  28.969   4.875
  203W        W65430   4.637  34.500   2.900
  204W        W65431  27.399   6.342  12.485
  205W        W65432  28.936  14.333   4.613
  206W        W65433  26.151  15.297  14.818
  207W        W65434  23.582  36.790   4.102
  208W        W65435  39.896  25.068   2.264
  209W        W65436  18.375  35.028  11.055
  210W        W65437  20.601   0.417   3.858
  211W        W65438  13.148  24.206  11.101
  212W        W65439  12.290  12.792   0.248
  213W        W65440  30.862  40.985  13.992
  214W        W65441  24.580  23.535   3.379
  215W        W65442  16.505  32.629   4.741
  216W        W65443  44.515   9.700  10.211
  217W        W65444  24.725   2.202  14.398
  218W        W65445   2.762  22.620   0.425
  219W        W65446  21.636  29.776   2.795
  220W        W65447  41.523  14.100  13.034
  221W        W65448   6.243  27.525  13.358
  222W        W65449  13.843  11.590  12.535
  223W        W65450   0.351  16.277   2.290
  224W        W65451  42.215   1.476  13.414
  225W        W65452  22.826  35.842  11.116
  226W        W65453  20.171  10.153   1.196
  227W        W65454   7.646  29.603   1.159
  228W        W65455   4.388  18.124   0.028
  229W        W65456  34.392  10.179  12.450
  230W        W65457  35.547  35.146  11.102
  231W        W65458  35.862  14.843   3.611
  232W        W65459  31.302  27.379  13.420
  233W        W65460  26.697  24.742   1.981
  234W        W65461  16.001  22.181   0.493
  235W        W65462  33.114  41.533   2.648
  236W        W65463  30.503   9.451   3.666
  237W        W65464  21.061  16.231  12.325
  238W        W65465  18.434  37.882  10.835
  239W        W65466  21.721  41.460   4.275
  240W        W65467  11.264  40.140   3.160
  241W        W65468  13.272  31.293   0.028
  242W        W65469  42.416  38.961  10.729
  243W        W65470  21.097  30.211  14.392
  244W        W65471  13.488  30.428   3.151
  245W        W65472  21.959   2.002   3.165
  246W        W65473  11.186  18.010   1.374
  247W        W65474  44.011  24.634   0.489
  248W        W65475  18.664  41.619   0.373
  249W        W65476  20.771   0.409  14.780
  250W        W65477  44.315  13.570  11.223
  251W        W65478  25.933  36.570  11.675
  252W        W65479  27.779   9.383   4.244
  253W        W65480  16.053  10.136   1.864
  254W        W65481   4.674  17.695   4.630
  255W        W65482  17.157  41.430  12.093
  256W        W65483  39.116   4.697  11.228
  257W        W65484  38.377  44.627  13.845
  258W        W65485  29.992  31.954   4.336
  259W        W65486  19.867  35.141  11.081
  260W        W65487  38.499  29.419   4.174
  261W        W65488   1.954  29.979  12.487
  262W        W65489   9.465  21.026   2.365
  263W        W65490  27.824  11.205   2.078
  264W        W65491  40.588  12.433  12.776
  265W        W65492   5.640  28.906  14.878
  266W        W65493  29.562  14.356   4.064
  267W        W65494  38.380  43.270   1.242
  268W        W65495  42.232   3.986   2.696
  269W        W65496  17.264   1.219   0.427
  270W        W65497  38.362   8.230   2.603
  271W        W65498  40.068  27.071   3.156
  272W        W65499  14.840   6.771  13.967
  273W        W65500  29.014  16.987   1.849
  274W        W65501  39.216  32.329   1.236
  275W        W65502  14.624   6.960   2.785
  276W        W65503  18.818  19.007   0.897
  277W        W65504  19.972  15.847  12.131
  278W        W65505  10.210   7.005  12.587
  279W        W65506  18.820  35.798  11.658
  280W        W65507  25.704   6.105   0.775
  281W        W65508  44.380  32.598   1.846
  282W        W65509  32.432  20.255  12.992
  283W        W65510  22.180  42.041  11.293
  284W        W65511   1.192   6.625   4.482
  285W        W65512  18.275  23.889   3.128
  286W        W65513   1.999  14.608   3.655
  287W        W65514  43.016  38.491  12.070
  288W        W65515  39.256  15.701   4.550
  289W        W65516  23.951  29.067   4.759
  290W        W65517  35.478   2.327   1.849
  291W        W65518   5.212  18.438  11.064
  292W        W65519  43.348  26.058   1.166
  293W        W65520  31.562   5.272   4.155
  294W        W65521  37.956  39.351  11.639
  295W        W65522  21.798  30.958   3.638
  296W        W65523  10.260  23.793   5.368
  297W        W65524   4.706  25.203  10.421
  298W        W65525  15.366  40.105   1.825
  299W        W65526  21.316  35.163   4.064
  300W        W65527  27.807  39.947   3.229
  301W        W65528  28.145   8.417   4.852
  302W        W65529  33.286  28.954   3.349
  303W        W65530   6.117  11.835  14.615
  304W        W65531   1.695  39.864   0.401
  305W        W65532  40.749  34.901   1.232
  306W        W65533  29.051  35.754  12.967
  307W        W65534  20.677  24.461  12.172
  308W        W65535  14.739  25.859   0.792
  309W        W65536  31.434   5.919   1.926
  310W        W65537  28.925  30.984   3.512
  311W        W65538  40.785   3.141   4.234
  312W        W65539  30.870  33.876   0.376
  313W        W65540   2.213   7.523  12.506
  314W        W65541  32.645  32.991   4.353
  315W        W65542   9.843   4.924  13.883
  316W        W65543  33.337  34.290   2.378
  317W        W65544  39.438  32.016   2.443
  318W        W65545   0.685  40.155   2.796
  319W        W65546  23.002  40.460  13.024
  320W        W65547   2.789  24.101   1.802
  321W        W65548  43.018  39.005   1.647
  322W        W65549  38.902  33.124   0.823
  323W        W65550  19.543   8.260  14.450
  324W        W65551   4.207   6.683  11.138
  325W        W65552  17.736  29.570   0.215
  326W        W65553  17.632  33.287   4.050
  327W        W65554  34.503   1.146   0.337
  328W        W65555   1.454  16.165   3.030
  329W        W65556  14.066  14.637   0.885
  330W        W65557   2.468  18.391  11.317
  331W        W65558  36.874  28.735  11.100
  332W        W65559  18.089  25.557   1.737
  333W        W65560  40.058   4.468   2.081
  334W        W65561  22.255  11.903  14.341
  335W        W65562   3.073   0.855   4.734
  336W        W65563  11.087  15.551  11.570
  337W        W65564  33.555   4.327  12.584
  338W        W65565   3.271  39.047   2.655
  339W        W65566  13.289  31.992   2.417
  340W        W65567  24.727  31.097   4.421
  341W        W65568  39.775  21.564   0.438
  342W        W65569  44.939  23.237  12.305
  343W        W65570   6.030   8.882  13.432
  344W        W65571  24.895  13.337  13.442
  345W        W65572  37.566  11.142  14.431
  346W        W65573  43.355  26.914  11.336
  347W        W65574  31.532  44.803   2.665
  348W        W65575   5.946  30.926  13.195
  349W        W65576  43.836  26.660   5.144
  350W        W65577  25.102   9.885  12.816
  351W        W65578  44.195  12.881  13.865
  352W        W65579  13.259  20.602  11.668
  353W        W65580   4.879  18.765  13.437
  354W        W65581  28.086   1.192   0.830
  355W        W65582   0.030  22.981   1.249
  356W        W65583  44.484  19.620   0.249
  357W        W65584   2.707  11.836  13.456
  358W        W65585   1.843  10.583  14.320
  359W        W65586   0.273  23.640   1.959
  360W        W65587  12.324   0.185  12.608
  361W        W65588  25.983  13.813   1.053
  362W        W65589  27.379   8.570  14.038
  363W        W65590  39.821   3.882  12.739
  364W        W65591  44.078  39.729   0.532
  365W        W65592  32.463   6.329  10.023
  366W        W65593  17.313  31.164   1.872
  367W        W65594   8.249  33.318   3.459
  368W        W65595  16.402  16.220   2.210
  369W        W65596  41.342  26.619  10.720
  370W        W65597  36.034  30.197   2.796
  371W        W65598  26.064  32.523   4.518
  372W        W65599  10.708   9.183  13.236
  373W        W65600  12.626  42.758  12.555
  374W        W65601   9.426  26.631   4.168
  375W        W65602  31.444  34.433   0.980
  376W        W65603   6.428  44.871  14.872
  377W        W65604   6.462   2.308  12.493
  378W        W65605  10.199  27.567   1.141
  379W        W65606  40.458  19.860  12.447
  380W        W65607  42.134  18.987   1.132
  381W        W65608  19.274  25.110  11.716
  382W        W65609  30.507  29.976  10.271
  383W        W65610  19.601   3.583   1.409
  384W        W65611  18.453  40.254   0.599
  385W        W65612  35.128  22.644  13.413
  386W        W65613  44.577   0.102  11.604
  387W        W65614   7.929  34.482   0.442
  388W        W65615  17.368  11.749  14.960
  389W        W65616  18.819   3.889   0.936
  390W        W65617  42.801   2.383   0.845
  391W        W65618   4.187  22.135  12.904
  392W        W65619  39.062  33.684  14.360
  393W        W65620  14.288   2.660   5.027
  394W        W65621   7.171  37.415   2.613
  395W        W65622  21.131  40.766   4.663
  396W        W65623  17.304  23.462   3.933
  397W        W65624  33.524  31.338  12.520
  398W        W65625  26.511  33.107  11.687
  399W        W65626  23.013  12.755   2.726
  400W        W65627  19.530  40.054  13.096
  401W        W65628  21.467  20.205   0.858
  402W        W65629  12.792   2.896   2.190
  403W        W65630  27.191  27.617   2.247
  404W        W65631   7.713  37.339   3.716
  405W        W65632  20.538  19.791   1.643
  406W        W65633   1.880  36.645  11.470
  407W        W65634   7.786  19.015  12.528
  408W        W65635  35.978  34.970   4.936
  409W        W65636  36.400  20.565  14.836
  410W        W65637  19.692  11.943  12.780
  411W        W65638  33.756  13.383  11.246
  412W        W65639  44.308  11.186   1.484
  413W        W65640  14.128   5.192  12.044
  414W        W65641  17.710  34.075   4.578
  415W        W65642  42.871  31.583   1.907
  416W        W65643  18.864  30.981   1.196
  417W        W65644   4.065  13.215   0.231
  418W        W65645   1.419  23.023   2.596
  419W        W65646   3.712  23.263   3.067
  420W        W65647  37.460  27.999  12.422
  421W        W65648  40.971  23.165   3.273
  422W        W65649   4.523   7.998  14.379
  423W        W65650  23.324   5.788  11.221
  424W        W65651  14.272  41.304  13.012
  425W        W65652   0.736   6.353   2.301
  426W        W65653  13.376  14.732   4.402
  427W        W65654  41.633  41.764   1.379
  428W        W65655  18.220  14.282  12.090
  429W        W65656  29.609  28.077   2.458
  430W        W65657  29.745  14.295  13.546
  431W        W65658  16.807  35.853   4.554
  432W        W65659   0.360   6.296  13.796
  433W        W65660  42.131  16.845  14.452
  434W        W65661  10.670  43.063  14.367
  435W        W65662  23.597  20.387   1.163
  436W        W65663  40.846  19.037  11.591
  437W        W65664   0.470  10.483  12.477
  438W        W65665   5.845  32.987  13.146
  439W        W65666  22.664  17.521  11.447
  440W        W65667  23.688  24.915   0.509
  441W        W65668  28.499  17.203   1.771
  442W        W65669  41.060  25.638  14.121
  443W        W65670  38.821  19.611  14.464
  444W        W65671  41.979  42.018  13.787
  445W        W65672   4.296   5.147   1.196
  446W        W65673  28.232  41.994   2.237
  447W        W65674  16.306  17.268   0.887
  448W        W65675  30.067  24.519   5.022
  449W        W65676  13.652  32.588  12.333
  450W        W65677  24.061   4.508  10.413
  451W        W65678  44.474  18.253  11.475
  452W        W65679  36.182  44.990  12.497
  453W        W65680  11.919  29.010  10.826
  454W        W65681  14.045  25.051   4.129
  455W        W65682  30.252  17.209  12.671
  456W        W65683   1.784   8.640  10.858
  457W        W65684   4.739  32.602  14.259
  458W        W65685  38.666  35.894  13.501
  459W        W65686  42.028  42.430  14.917
  460W        W65687  25.692  35.465   2.748
  461W        W65688  29.849  37.896  14.483
  462W        W65689  11.794  35.889  14.849
  463W        W65690   6.124  16.110   3.137
  464W        W65691  15.868  36.956  13.315
  465W        W65692  31.404  29.849   2.399
  466W        W65693  13.588  35.132  13.732
  467W        W65694  24.472  35.440  14.357
  468W        W65695  33.987  38.535  14.996
  469W        W65696   4.030  36.994  11.385
  470W        W65697  22.719  39.561   3.159
  471W        W65698  37.083  39.905   1.245
  472W        W65699   2.745  26.085  10.469
  473W        W65700  40.308  36.952   0.256
  474W        W65701  39.324  42.772  12.235
  475W        W65702  39.298   4.604   4.095
  476W        W65703  27.315   2.864  14.064
  477W        W65704  21.603   5.228  14.308
  478W        W65705  25.478  34.586   1.267
  479W        W65706  17.342  32.492  11.512
  480W        W65707  17.425  44.681  11.272
  481W        W65708  32.937  33.937  10.670
  482W        W65709  22.748  22.725   4.493
  483W        W65710   5.423  30.166   1.275
  484W        W65711  38.579  32.044   0.756
  485W        W65712  15.230   2.035  12.621
  486W        W65713  34.443  11.459   3.525
  487W        W65714  19.981  29.121  13.170
  488W        W65715  13.708  22.456   1.771
  489W        W65716  25.037  32.108   4.528
  490W        W65717  34.107  38.818  10.489
  491W        W65718   2.466  27.645   1.251
  492W        W65719   3.902   9.299  13.426
  493W        W65720   5.390  13.076  14.876
  494W        W65721  15.821   0.946  12.825
  495W        W65722  29.185  17.693  12.102
  496W        W65723  12.130  14.292  10.206
  497W        W65724   6.858   4.852  14.338
  498W        W65725  19.013   6.200   2.390
  499W        W65726  26.998   4.197   4.536
  500W        W65727  15.871  37.451  13.956
  501W        W65728  10.231  29.756   4.952
  502W        W65729  29.386  13.812  12.881
  503W        W65730  32.695  15.509  12.166
  504W        W65731  34.798   8.322  12.419
  505W        W65732  22.585  36.908   0.304
  506W        W65733  23.820  23.820  12.230
  507W        W65734  22.182  27.716   3.632
  508W        W65735   8.224  33.391   2.946
  509W        W65736  30.559  38.796  13.310
  510W        W65737  25.125  41.779  12.662
  511W        W65738   6.721   7.763  10.896
  512W        W65739  20.351   4.200   3.582
  513W        W65740   4.684  37.080   1.764
  514W        W65741  18.146  21.175  12.705
  515W        W65742  22.404  42.518   3.875
  516W        W65743  12.408   2.000   3.687
  517W        W65744  27.904  33.478  12.683
  518W        W65745  33.100  14.871   2.775
  519W        W65746   8.250   2.115   3.650
  520W        W65747   9.220  21.108   0.488
  521W        W65748  30.131  10.278   3.730
  522W        W65749  36.035   9.827  12.115
  523W        W65750  36.574  11.609   3.726
  524W        W65751   9.084   9.927   3.911
  525W        W65752  38.077  26.648   2.021
  526W        W65753  21.666   8.094  10.701
  527W        W65754  38.456  20.195   3.401
  528W        W65755   0.548  13.164   2.165
  529W        W65756   8.461  11.595   4.472
  530W        W65757  39.127  17.051   2.617
  531W        W65758  35.998  37.425  12.559
  532W        W65759  10.858   9.540   2.359
  533W        W65760   0.691  21.236   4.392
  534W        W65761  40.821  35.422   0.827
  535W        W65762  44.277  21.207   3.233
  536W        W65763  30.903  39.870   0.863
  537W        W65764  19.035   0.795  12.945
  538W        W65765  43.861   9.920   2.161
  539W        W65766  44.688  16.252   2.860
  540W        W65767  33.677  40.514   2.309
  541W        W65768  26.245  44.398  10.795
  542W        W65769   6.240   2.682   1.667
  543W        W65770  40.268  38.079  13.928
  544W        W65771  16.150  12.332  10.894
  545W        W65772  23.609   3.169   1.211
  546W        W65773   2.146  29.810   2.772
  547W        W65774  10.255  17.496   2.138
  548W        W65775  11.580  38.837   4.171
  549W        W65776  40.338  22.449   4.654
  550W        W65777   5.242   6.616  13.255
  551W        W65778  28.426  24.469  10.457
  552W        W65779  24.206  23.250  11.623
  553W        W65780  16.814  28.552  13.601
  554W        W65781  22.557  10.782   1.491
  555W        W65782  27.080  28.197  11.202
  556W        W65783  43.811  33.959   3.632
  557W        W65784  27.023  41.998  13.444
  558W        W65785  17.765  29.494   2.239
  559W        W65786   7.678  16.040   0.482
  560W        W65787  20.543  44.904  10.967
  561W        W65788  10.271   7.423  11.714
  562W        W65789  24.200  10.335  11.621
  563W        W65790  35.904  40.355  11.983
  564W        W65791  21.586  36.972   1.504
  565W        W65792   7.792   9.350  13.848
  566W        W65793   5.125  19.761   0.760
  567W        W65794  14.214  26.421   2.739
  568W        W65795  13.459  26.926  14.594
  569W        W65796  24.120  36.961  11.613
  570W        W65797  32.129   7.882   2.221
  571W        W65798  40.504  15.041  13.610
  572W        W65799  27.441  12.558  11.542
  573W        W65800   7.925  19.345  10.489
  574W        W65801  37.091  33.658  12.874
  575W        W65802  34.328  39.035  11.769
  576W        W65803  34.907  32.629  14.480
  577W        W65804  29.011  34.646   2.133
  578W        W65805  22.177  12.939   1.087
  579W        W65806  25.726  12.632  13.981
  580W        W65807  37.617  21.165   4.031
  581W        W65808   6.915   6.742  12.494
  582W        W65809  38.523  40.786   4.123
  583W        W65810  21.335  14.864  11.737
  584W        W65811  36.785  19.599   1.830
  585W        W65812  25.269  40.562   4.590
  586W        W65813   8.268  13.654  11.182
  587W        W65814  35.502  13.330  11.644
  588W        W65815   5.698   6.912   0.302
  589W        W65816  20.973  36.081  13.497
  590W        W65817  16.783   3.776   4.128
  591W        W65818   3.835  19.371   5.002
  592W        W65819   7.202  41.628  12.889
  593W        W65820  42.777  44.301   2.300
  594W        W65821   5.370  28.359  13.869
  595W        W65822  10.630  26.014  11.418
  596W        W65823  43.944  29.690   1.756
  597W        W65824  40.433  33.344   0.850
  598W        W65825  33.772  14.797   3.677
  599W        W65826   2.819   4.020   1.977
  600W        W65827  40.586  42.175  12.530
  601W        W65828   3.458   6.313  10.762
  602W        W65829  40.315  39.983  11.269
  603W        W65830   9.663   2.313   2.628
  604W        W65831  44.887  36.269  13.027
  605W        W65832  20.225  23.329   1.244
  606W        W65833  44.556  19.755   3.140
  607W        W65834  19.833   1.443   1.444
  608W        W65835   9.317  43.009  13.637
  609W        W65836  30.280   3.316   4.500
  610W        W65837  40.940   7.540   0.232
  611W        W65838  14.716  37.538   1.337
  612W        W65839  10.993  37.014  13.094
  613W        W65840  33.929  37.434  12.853
  614W        W65841   1.212  38.858   5.108
  615W        W65842  19.086   0.782   2.630
  616W        W65843  10.643   4.813  11.852
  617W        W65844  24.578  40.106   1.362
  618W        W65845  43.305   6.394  10.438
  619W        W65846   4.614  17.373  10.551
  620W        W65847  14.149  25.137   0.454
  621W        W65848  43.293  41.829  13.459
  622W        W65849  16.982  35.942  10.677
  623W        W65850   0.774  15.874   4.396
  624W        W65851  41.643  39.787  12.178
  625W        W65852  24.046  39.334   2.212
  626W        W65853  13.428   0.217   1.437
  627W        W65854  13.277  40.411   4.535
  628W        W65855  25.093   4.931  14.969
  629W        W65856  22.165  12.619  14.838
  630W        W65857  31.600  31.032  10.730
  631W        W65858  39.770  28.565   0.261
  632W        W65859  24.962  16.531  11.577
  633W        W65860  19.948  28.120   3.232
  634W        W65861  10.336  38.422   2.329
  635W        W65862   3.476  10.755  10.786
  636W        W65863  39.067  44.443   4.005
  637W        W65864  21.148  28.041   3.672
  638W        W65865  18.983  13.599   0.570
  639W        W65866  23.095  37.349   1.683
  640W        W65867  40.727  18.907   1.644
  641W        W65868  42.292  28.416   0.398
  642W        W65869  18.001   6.327  13.310
  643W        W65870  21.936   0.026   0.671
  644W        W65871  12.307  20.803   3.716
  645W        W65872  41.821  33.702   2.780
  646W        W65873  30.059  13.897  13.583
  647W        W65874  25.216  38.033  12.070
  648W        W65875  33.226  15.380   2.706
  649W        W65876  23.572  12.366   2.451
  650W        W65877   9.647  42.563   1.414
  651W        W65878  41.947   2.420  12.877
  652W        W65879  10.809  43.082  12.132
  653W        W65880  31.241   2.955   1.297
  654W        W65881   0.404  21.973  14.563
  655W        W65882  26.518   9.911   0.017
  656W        W65883   4.669  20.524   2.908
  657W        W65884  38.575   9.558   3.571
  658W        W65885   8.355   8.673  12.945
  659W        W65886  15.135  44.371  13.596
  660W        W65887  16.679  11.146   0.002
  661W        W65888  33.065  42.757  11.624
  662W        W65889  39.147  23.838  13.793
  663W        W65890   3.883  32.102   1.214
  664W        W65891   5.734  28.651   0.905
  665W        W65892   9.782  22.827  11.096
  666W        W65893  28.743  14.051  14.360
  667W        W65894  16.209  14.089  12.867
  668W        W65895  19.853  28.271  11.987
  669W        W65896  40.272  27.572  11.951
  670W        W65897  31.424  27.122   1.597
  671W        W65898   8.856  31.962  14.671
  672W        W65899  18.605   1.673  14.468
  673W        W65900  14.543  14.812  14.156
  674W        W65901  32.449  38.294  13.499
  675W        W65902   8.669  13.403   1.954
  676W        W65903  34.518  31.124  12.943
  677W        W65904   8.339   3.270  14.987
  678W        W65905  13.357  16.782   4.905
  679W        W65906  19.639  17.275   2.297
  680W        W65907  31.477  13.901   1.948
  681W        W65908  40.784  38.919  14.957
  682W        W65909  21.619  44.849   3.243
  683W        W65910  30.908   6.729  12.407
  684W        W65911  30.207  41.998   1.319
  685W        W65912  42.462  42.586  13.931
  686W        W65913  43.767   9.789  13.490
  687W        W65914  24.409  26.022   0.259
  688W        W65915  37.175  11.131   0.325
  689W        W65916   7.468  10.350  12.387
  690W        W65917  14.109  14.358   4.175
  691W        W65918  13.767  23.058   1.275
  692W        W65919   8.461   8.141   0.853
  693W        W65920  41.815  42.983  13.330
  694W        W65921   9.139  39.809  14.851
  695W        W65922  43.481   9.911   0.928
  696W        W65923  27.860  32.151  11.563
  697W        W65924  38.333  17.115   2.321
  698W        W65925  21.786  27.632   4.410
  699W        W65926  10.430   3.451   0.852
  700W        W65927   8.804  17.809  11.487
  701W        W65928  13.603   9.678   3.781
  702W        W65929  29.435  33.579   2.310
  703W        W65930  24.147  33.151   1.510
  704W        W65931   0.868  13.126   1.144
  705W        W65932  24.939  18.076  11.565
  706W        W65933   5.550  18.225   4.166
  707W        W65934  34.550  44.669  11.680
  708W        W65935  31.344  41.966  11.956
  709W        W65936   6.875   9.689   2.190
  710W        W65937  32.456   5.093  13.966
  711W        W65938  39.057   5.380  14.852
  712W        W65939  24.076  20.559   1.043
  713W        W65940  25.775  30.594  11.238
  714W        W65941   3.298  21.897   2.090
  715W        W65942  27.933  20.593   1.222
  716W        W65943  10.175  42.003  13.125
  717W        W65944  27.481  38.876   2.284
  718W        W65945  15.980  11.578  11.120
  719W        W65946  10.741   1.417   1.346
  720W        W65947   5.402   8.328  12.336
  721W        W65948  39.135   7.715  12.611
  722W        W65949   6.487  44.021  10.075
  723W        W65950   9.787  26.562  14.043
  724W        W65951  31.911  32.733   4.499
  725W        W65952  23.252  23.219   3.821
  726W        W65953  41.869   0.771  14.809
  727W        W65954  25.026  24.765   1.859
  728W        W65955  37.585   2.485   0.930
  729W        W65956   6.625  25.246  11.066
  730W        W65957  44.427  41.837  10.967
  731W        W65958  42.480  41.603  12.878
  732W        W65959  18.830  29.678   3.159
  733W        W65960  19.234  18.228   0.390
  734W        W65961  12.226  36.099   0.308
  735W        W65962  23.771  28.596   4.262
  736W        W65963  35.340  11.344   3.249
  737W        W65964   8.689  11.789  11.485
  738W        W65965  28.599  26.618   4.995
  739W        W65966   2.016   0.482  12.730
  740W        W65967   2.436  31.003   4.824
  741W        W65968  36.554  37.045  10.634
  742W        W65969  43.880  30.917   1.307
  743W        W65970  19.459  29.086   0.891
  744W        W65971   4.853  29.210  11.124
  745W        W65972  34.540  34.690  13.983
  746W        W65973  32.503  22.570   1.000
  747W        W65974  22.509  10.449  13.507
  748W        W65975  34.406  27.505   4.692
  749W        W65976  44.246  33.857  14.382
  750W        W65977  33.551  22.642   0.840
  751W        W65978  38.768  11.213  12.030
  752W        W65979   6.917  39.907  12.056
  753W        W65980  28.363  38.893  10.544
  754W        W65981  14.693  20.933  12.101
  755W        W65982   0.475  19.555  12.222
  756W        W65983   5.142  41.368   1.482
  757W        W65984   7.736  23.267   0.006
  758W        W65985  14.286  15.194  12.922
  759W        W65986  10.453  23.996   4.106
  760W        W65987  28.703  33.188   2.156
  761W        W65988  19.567  39.177   3.465
  762W        W65989  18.803   3.652   0.399
  763W        W65990  22.706  35.089  10.744
  764W        W65991   5.779  29.464   3.578
  765W        W65992  43.457  19.049   0.059
  766W        W65993   7.867   6.275   0.695
  767W        W65994  31.023  42.457   1.916
  768W        W65995   6.119  30.547  14.725
  769W        W65996   1.297  20.858   0.869
  770W        W65997  39.433   2.385   4.090
  771W        W65998  10.297  15.224   2.645
  772W        W65999  27.505  12.784   1.059
  773W        W66000  23.273  17.652   4.588
  774W        W66001  28.601  14.259  14.821
  775W        W66002  41.478   2.311  14.426
  776W        W66003  35.465  36.641  11.642
  777W        W66004  15.167  26.962  13.090
  778W        W66005  28.147  21.431  14.379
  779W        W66006  40.015  16.955   2.447
  780W        W66007   4.384  20.152   1.310
  781W        W66008  25.876   9.214  11.083
  782W        W66009  32.876   4.902   1.263
  783W        W66010   2.498  28.885   3.009
  784W        W66011  35.779  28.454   4.256
  785W        W66012  25.603  24.681   4.228
  786W        W66013  32.168  20.067   4.289
  787W        W66014  17.673   7.781   2.122
  788W        W66015  26.514  42.429   3.233
  789W        W66016  23.656   5.707  12.101
  790W        W66017   2.404  14.745  13.428
  791W        W66018   1.227  28.636   2.688
  792W        W66019  17.937  29.127   0.876
  793W        W66020   9.412  16.876   1.221
  794W        W66021  14.885  38.426   0.937
  795W        W66022  22.679   5.114  10.811
  796W        W66023  17.878  40.368   0.779
  797W        W66024   1.706  12.673  11.112
  798W        W66025  20.571  36.531  14.282
  799W        W66026  28.530   7.331  10.670
  800W        W66027  22.181   5.952  10.763
  801W        W66028  10.329  16.267   1.434
  802W        W66029  32.908  25.536  10.931
  803W        W66030  28.088  11.475  14.478
  804W        W66031  21.520  31.956  10.530
  805W        W66032  38.145  19.701   4.718
  806W        W66033   9.122  21.104   1.057
  807W        W66034  29.437  20.170  12.985
  808W        W66035  24.829  11.928   1.822
  809W        W66036  31.518  32.546  10.562
  810W        W66037   5.202  16.706  13.188
  811W        W66038  24.200  27.528  12.057
  812W        W66039  39.348  30.668   3.845
  813W        W66040  24.739  39.124   3.743
  814W        W66041  22.802   6.234   4.594
  815W        W66042  12.612  10.262  12.414
  816W        W66043  23.954   3.658  14.004
  817W        W66044  25.588  16.811   1.261
  818W        W66045  37.797  37.372  10.067
  819W        W66046   5.152  38.041  12.860
  820W        W66047   1.785   0.345   3.254
  821W        W66048   2.935  40.885   1.504
  822W        W66049  15.173  21.499  12.948
  823W        W66050  10.507  14.291  12.066
  824W        W66051  32.105  17.981  14.241
  825W        W66052  31.043  21.384  14.416
  826W        W66053   2.746  12.979  11.972
  827W        W66054  13.467  25.225   2.771
  828W        W66055   8.202  23.493  14.914
  829W        W66056  29.846  12.255  14.084
  830W        W66057   5.492  38.483  13.981
  831W        W66058  37.227  26.818  14.365
  832W        W66059  34.011  17.731  13.569
  833W        W66060  44.357  38.084  14.156
  834W        W66061   3.899   1.760   9.665
  835W        W66062  37.270  36.374  11.506
  836W        W66063  25.857  40.374   3.295
  837W        W66064  31.920  38.654  12.255
  838W        W66065  32.106  18.275  10.825
  839W        W66066  43.018  25.450  14.652
  840W        W66067  15.126  17.681  13.421
  841W        W66068  44.230   1.187  12.158
  842W        W66069  25.545  17.713   2.739
  843W        W66070  20.412   9.219   4.917
  844W        W66071  20.007  20.885   4.316
  845W        W66072  20.218   1.851  11.567
  846W        W66073  26.640  37.518  13.566
  847W        W66074  14.069  27.521   1.024
  848W        W66075  15.701  23.462   4.076
  849W        W66076  30.883   4.946  12.371
  850W        W66077  16.806  44.572   4.121
  851W        W66078  39.609   6.809   2.045
  852W        W66079  28.980  19.945   3.032
  853W        W66080  38.771  36.035   3.188
  854W        W66081  11.400  34.381  14.917
  855W        W66082  12.816  16.505  11.928
  856W        W66083  17.837   3.942  13.938
  857W        W66084  44.891  18.576   2.227
  858W        W66085  35.967  40.052   4.580
  859W        W66086  35.064  31.584  12.435
  860W        W66087   4.843   2.068  13.003
  861W        W66088  13.720  30.183  10.697
  862W        W66089   7.578  16.218  14.632
  863W        W66090  12.858  26.715   3.601
  864W        W66091   1.455  37.909  13.859
  865W        W66092  16.806  39.421  14.436
  866W        W66093  38.859  30.367   4.114
  867W        W66094   1.353  32.343   2.273
  868W        W66095   8.738  10.144  13.762
  869W        W66096  33.093   2.847  12.399
  870W        W66097   4.869  19.241  12.572
  871W        W66098  17.652  38.010  14.352
  872W        W66099  23.513  14.840   3.582
  873W        W66100  11.586  13.217  12.865
  874W        W66101   1.463   2.850  11.629
  875W        W66102   0.413  26.583   2.422
  876W        W66103  14.346  27.204  12.436
  877W        W66104  37.309  38.598   3.238
  878W        W66105  22.662  14.413   3.244
  879W        W66106  33.351  38.303   0.537
  880W        W66107  22.430   7.431   2.657
  881W        W66108  32.161   6.927   3.215
  882W        W66109  18.726   7.699  11.521
  883W        W66110  40.743   2.413   0.616
  884W        W66111  28.827   0.850   3.585
  885W        W66112   7.148  25.873   0.300
  886W        W66113  17.751  31.881   4.376
  887W        W66114  18.191  23.568  14.348
  888W        W66115  16.008  25.642  13.855
  889W        W66116  13.353  13.292   3.300
  890W        W66117  12.815  35.498   4.141
  891W        W66118  41.550  17.155  12.887
  892W        W66119  28.931  17.552  14.781
  893W        W66120  43.552  40.815  13.955
  894W        W66121  17.333  11.611  12.485
  895W        W66122  24.520  27.138   2.074
  896W        W66123  20.197  15.417   1.036
  897W        W66124  35.816   8.488   4.571
  898W        W66125  10.665  41.237  12.631
  899W        W66126  25.160  36.107   0.625
  900W        W66127  39.066  10.807   0.453
  901W        W66128  16.296  37.035   4.204
  902W        W66129  34.073   5.689  11.180
  903W        W66130   4.674  34.630  12.290
  904W        W66131  42.621  14.575  14.943
  905W        W66132  20.487  33.002  14.711
  906W        W66133  22.472  28.664  13.449
  907W        W66134  42.113  32.989   0.568
  908W        W66135  42.714   8.945  12.058
  909W        W66136   1.321  44.872  13.419
  910W        W66137  31.810   6.731   3.898
  911W        W66138  14.131  36.999   3.888
  912W        W66139  14.618  19.605  13.486
  913W        W66140  40.251  43.491   1.699
  914W        W66141  27.479   9.286   3.274
  915W        W66142  40.571  12.229   2.880
  916W        W66143  14.323   2.037  10.671
  917W        W66144  37.379  28.112  11.409
  918W        W66145   6.302   4.346  14.770
  919W        W66146   0.863  29.095  14.332
  920W        W66147  23.746  28.542   3.164
  921W        W66148  35.281  31.303   0.743
  922W        W66149  34.483  38.523   1.702
  923W        W66150   0.689  14.371  13.751
  924W        W66151  30.128   9.148   1.502
  925W        W66152  10.090  11.342   2.820
  926W        W66153  21.140   8.999   2.205
  927W        W66154  34.539  21.743   3.681
  928W        W66155  20.275   9.498  12.209
  929W        W66156  36.908   8.682  11.905
  930W        W66157   5.854  25.694  11.999
  931W        W66158  40.399  36.377  14.781
  932W        W66159  32.542  43.069  12.691
  933W        W66160  17.501  26.226  11.898
  934W        W66161  15.128  13.274  11.587
  935W        W66162  20.014  36.963   4.830
  936W        W66163  41.862  41.325   3.109
  937W        W66164  14.292  31.345   4.251
  938W        W66165  23.513   5.682   2.048
  939W        W66166  12.882   7.408  11.968
  940W        W66167  34.577   1.209   1.713
  941W        W66168  39.626   4.200   4.123
  942W        W66169  19.641  40.194   3.151
  943W        W66170  23.082  34.668   4.641
  944W        W66171  14.706  30.146  14.516
  945W        W66172  13.398  18.817   2.830
  946W        W66173  38.048  23.175  12.999
  947W        W66174  10.137   0.369   3.758
  948W        W66175  18.085  12.158  14.755
  949W        W66176  15.630  44.775   3.689
  950W        W66177  42.955  43.541   0.453
  951W        W66178  28.336  15.110  11.761
  952W        W66179   1.702  40.807   3.177
  953W        W66180  17.033  24.807  13.480
  954W        W66181  40.315  14.102   1.898
  955W        W66182   6.283   4.970   0.907
  956W        W66183  38.038  29.971  13.113
  957W        W66184  11.322  15.529  10.181
  958W        W66185  35.364  23.319   1.397
  959W        W66186  38.396  22.264  11.209
  960W        W66187  41.056  32.026  13.237
  961W        W66188  26.686  21.204   0.094
  962W        W66189   5.719  42.284   0.326
  963W        W66190  42.825  44.202   4.489
  964W        W66191  36.864  16.949   5.124
  965W        W66192  13.745   7.225  10.798
  966W        W66193  15.785  13.130  13.525
  967W        W66194  44.163  44.654  14.983
  968W        W66195  15.618  37.418  12.462
  969W        W66196  27.718  25.698  14.468
  970W        W66197  43.744  35.897   2.846
  971W        W66198  10.109  21.010   4.231
  972W        W66199   1.434  10.379  13.494
  973W        W66200   9.605  33.040   4.878
  974W        W66201  20.229  10.298  10.731
  975W        W66202  43.764  15.305  10.491
  976W        W66203   6.330   2.480   1.196
  977W        W66204   7.473  22.547  13.027
  978W        W66205  12.983  22.037  14.314
  979W        W66206   9.866  30.454  10.297
  980W        W66207  10.374   6.134  14.484
  981W        W66208   0.297  43.092   1.220
  982W        W66209  41.767  22.650   2.434
  983W        W66210  38.142  21.577   3.643
  984W        W66211  21.528  22.181   2.313
  985W        W66212  16.236  30.942  12.927
  986W        W66213  25.347  12.856  11.755
  987W        W66214  25.899  29.931  11.028
  988W        W66215  19.103  15.806   4.681
  989W        W66216  16.427  44.119   3.491
  990W        W66217  15.674   2.982  13.958
  991W        W66218  15.659   8.734   3.873
  992W        W66219  39.017  29.562  13.805
  993W        W66220  29.168  44.856  10.731
  994W        W66221  13.180  35.987   2.221
  995W        W66222  12.410  18.595  13.094
  996W        W66223  42.487  37.119   2.172
  997W        W66224  25.637  10.759  14.980
  998W        W66225  12.393   9.277   0.253
  999W        W66226  23.100  21.305   2.345
 1000W        W66227  33.009  39.875  13.025
 1001W        W66228  35.250  27.903   5.181
 1002W        W66229  35.141  11.308   4.706
 1003W        W66230  17.429   1.781  11.404
 1004W        W66231  25.947   6.891  10.729
 1005W        W66232   1.827  17.106  14.719
 1006W        W66233   4.167  33.734   1.225
 1007W        W66234  43.039   4.962  11.486
 1008W        W66235  39.125  33.434   2.339
 1009W        W66236  42.600  16.241   4.878
 1010W        W66237   5.686   5.673  12.423
 1011W        W66238  24.465  17.185   0.839
 1012W        W66239  39.849  40.287  14.495
 1013W        W66240  31.131  19.178  12.352
 1014W        W66241   2.227  43.289   1.454
 1015W        W66242   3.223  32.062  12.399
 1016W        W66243  31.546  21.696   3.646
 1017W        W66244  18.517  20.642   2.776
 1018W        W66245  22.792   9.316   3.433
 1019W        W66246  20.658  11.124  10.582
 1020W        W66247  27.375  19.341  11.078
 1021W        W66248  25.636  25.006   9.807
 1022W        W66249   3.946  21.155   4.854
 1023W        W66250  12.329  32.650   1.268
 1024W        W66251  11.304  15.440   2.433
 1025W        W66252  17.090  10.317   1.878
 1026W        W66253   9.436  16.826   4.265
 1027W        W66254  44.932  25.150   1.038
 1028W        W66255   2.211  17.875   0.299
 1029W        W66256  28.753  10.151  11.943
 1030W        W66257  42.231  13.181   4.586
 1031W        W66258  15.105  41.009   1.451
 1032W        W66259  26.495   8.983  10.589
 1033W        W66260  11.249   0.005  11.952
 1034W        W66261   5.916  17.115  11.177
 1035W        W66262  29.608  33.304   1.921
 1036W        W66263  34.078   8.344   2.819
 1037W        W66264  13.623  44.020   2.219
 1038W        W66265  29.192   6.635  13.213
 1039W        W66266  30.227  42.597   4.150
 1040W        W66267   3.660  10.969   2.172
 1041W        W66268  42.277  33.759   2.531
 1042W        W66269   6.016   6.776   1.761
 1043W        W66270   5.671  15.102  12.446
 1044W        W66271  10.046   9.426   0.437
 1045W        W66272  23.592  22.273   2.700
 1046W        W66273  23.260  43.281   1.334
 1047W        W66274  22.335  25.705   3.400
 1048W        W66275   5.636  20.572   4.712
 1049W        W66276  22.770  15.161   1.298
 1050W        W66277  40.600   4.848   4.278
 1051W        W66278  35.312  26.160  10.955
 1052W        W66279  31.737  36.933  12.596
 1053W        W66280   8.060  20.606   1.257
 1054W        W66281  35.973  22.455   0.906
 1055W        W66282   5.253   8.560  13.338
 1056W        W66283  42.894  21.822  13.890
 1057W        W66284  23.486   0.357  12.859
 1058W        W66285  27.374  17.641  13.324
 1059W        W66286  26.037  10.309  11.703
 1060W        W66287  10.355  30.420  12.008
 1061W        W66288  13.772   3.901   4.102
 1062W        W66289  35.881  16.078  12.892
 1063W        W66290   1.014  25.347   9.827
 1064W        W66291  13.641  22.483  12.039
 1065W        W66292  28.185   4.313  14.967
 1066W        W66293  25.667  17.211  12.878
 1067W        W66294  13.287  17.095   4.139
 1068W        W66295  24.018   1.270   0.916
 1069W        W66296  19.883  21.352   5.117
 1070W        W66297   1.068   2.380  13.292
 1071W        W66298  19.080   4.667   0.323
 1072W        W66299  19.694   8.158   3.060
 1073W        W66300  20.250  10.625   3.360
 1074W        W66301  15.251   3.026  12.659
 1075W        W66302   8.121  14.332  11.511
 1076W        W66303  27.534   1.055   4.641
 1077W        W66304  27.986  43.425   0.361
 1078W        W66305  20.932  11.651   1.568
 1079W        W66306  30.538  34.253   0.579
 1080W        W66307  17.318  15.207  10.797
 1081W        W66308  16.545  26.716  12.458
 1082W        W66309  16.883   2.477  10.456
 1083W        W66310   2.335  25.578  14.828
 1084W        W66311   2.568   0.070   4.625
 1085W        W66312  25.654  10.540  13.917
 1086W        W66313  29.475  40.908  13.440
 1087W        W66314  21.827  24.261   0.442
 1088W        W66315   8.116   0.016  13.520
 1089W        W66316  21.776  17.558  14.866
 1090W        W66317  10.996  35.876   4.395
 1091W        W66318  30.349  16.161   1.753
 1092W        W66319  40.258  29.294   0.278
 1093W        W66320   3.745  30.666   5.040
 1094W        W66321   4.741  23.757  10.717
 1095W        W66322  37.936  39.078   1.686
 1096W        W66323   3.471  40.577  13.672
 1097W        W66324  28.609  32.998  11.701
 1098W        W66325   9.332   9.212  10.729
 1099W        W66326  22.868  10.174  12.893
 1100W        W66327  31.085  27.533   0.752
 1101W        W66328  27.927   0.593  11.427
 1102W        W66329  39.958  17.235   4.581
 1103W        W66330  34.023  30.918   0.494
 1104W        W66331   6.641  38.324   3.319
 1105W        W66332   1.906   8.431  14.323
 1106W        W66333  40.925  30.070  13.842
 1107W        W66334  28.335  42.921   2.688
 1108W        W66335  28.126  36.286   4.507
 1109W        W66336   8.400  19.213  14.872
 1110W        W66337  36.911  25.996  13.037
 1111W        W66338  15.556  23.663  13.395
 1112W        W66339  20.636   5.763   1.244
 1113W        W66340  12.767  14.354  11.913
 1114W        W66341  29.673  30.123  13.450
 1115W        W66342  33.241  18.616   4.563
 1116W        W66343   1.028  38.351  12.676
 1117W        W66344  20.714   7.250  11.349
 1118W        W66345  34.122  23.649  14.886
 1119W        W66346  19.530   1.285  11.211
 1120W        W66347  32.388  19.566  12.445
 1121W        W66348  29.006   4.018   4.451
 1122W        W66349  17.763  28.897   4.149
 1123W        W66350   6.822  39.777   0.390
 1124W        W66351  12.796  38.121   0.794
 1125W        W66352  34.336   2.228   0.484
 1126W        W66353  14.977  27.632  13.862
 1127W        W66354  23.129  32.789   4.297
 1128W        W66355  33.157  35.018   0.193
 1129W        W66356  21.816  23.244   1.252
 1130W        W66357  30.096   5.819  13.886
 1131W        W66358  32.538  10.381  14.336
 1132W        W66359  35.549  32.792  10.561
 1133W        W66360   6.933  17.003  12.398
 1134W        W66361  28.936   3.557   1.238
 1135W        W66362  25.126  28.884   0.711
 1136W        W66363  20.317   8.434   0.334
 1137W        W66364  12.231   2.882  12.385
 1138W        W66365  37.005  39.859  12.328
 1139W        W66366  18.154  41.746  14.440
 1140W        W66367  14.110  11.691  12.117
 1141W        W66368  15.835  21.503   1.819
 1142W        W66369   7.724  20.976   2.410
 1143W        W66370  36.007   7.343  12.046
 1144W        W66371  33.821  30.018   0.826
 1145W        W66372  17.867  39.449  10.566
 1146W        W66373  27.975   9.293  11.209
 1147W        W66374  40.386  11.854  14.526
 1148W        W66375  30.015  29.232  11.497
 1149W        W66376  26.993  10.691   0.507
 1150W        W66377  37.430  23.742  13.284
 1151W        W66378  12.895  44.455  14.146
 1152W        W66379  18.129  44.221  11.181
 1153W        W66380  44.455  42.101   0.450
 1154W        W66381  34.323   3.647   0.892
 1155W        W66382  42.535  21.061  14.434
 1156W        W66383  31.544  10.476   2.058
 1157W        W66384  28.883  21.522   3.254
 1158W        W66385  10.369  28.883   1.977
 1159W        W66386   8.613  22.704  12.165
 1160W        W66387  21.415  39.828   3.474
 1161W        W66388   5.186   7.356   2.328
 1162W        W66389  38.484  18.749   4.635
 1163W        W66390  43.237  17.757   4.091
 1164W        W66391  19.772  30.680  12.559
 1165W        W66392  25.029  34.014   0.737
 1166W        W66393  18.852  42.675   4.939
 1167W        W66394  41.534  27.085  14.208
 1168W        W66395  27.878  38.476   0.350
 1169W        W66396  21.511  17.037  10.017
 1170W        W66397  35.394  25.475  12.343
 1171W        W66398  27.007  21.424  12.442
 1172W        W66399  34.589  13.557  11.595
 1173W        W66400   3.353  15.852   4.326
 1174W        W66401  17.239  22.493   4.301
 1175W        W66402  31.796  17.635  12.500
 1176W        W66403  30.432  35.772  11.226
 1177W        W66404  38.491   4.011  11.300
 1178W        W66405  19.032  11.641   3.695
 1179W        W66406  32.123  33.059   1.866
 1180W        W66407  37.600   8.323   0.828
 1181W        W66408   7.384  25.149  13.504
 1182W        W66409  40.809  25.143   0.642
 1183W        W66410  16.029  28.214  14.480
 1184W        W66411  13.793  12.576  12.640
 1185W        W66412  18.956  11.976  11.092
 1186W        W66413  19.064   8.612   1.179
 1187W        W66414  24.252  15.639  10.174
 1188W        W66415  28.839   6.905  13.548
 1189W        W66416  37.985   1.703   4.669
 1190W        W66417  40.236  17.253   5.044
 1191W        W66418  31.128  10.699   2.856
 1192W        W66419  26.887  23.177  14.386
 1193W        W66420   7.352  44.802   4.727
 1194W        W66421  36.378  20.299  11.292
 1195W        W66422   6.226  15.689  13.432
 1196W        W66423   5.516  35.745   1.814
 1197W        W66424   1.252   2.211   2.171
 1198W        W66425  29.558   2.479  14.857
 1199W        W66426  17.687  30.775  11.785
 1200W        W66427   1.375  18.498   3.207
 1201W        W66428   0.830   9.321  13.194
 1202W        W66429  11.399  39.154   1.940
 1203W        W66430   9.867  16.809  12.827
 1204W        W66431  41.319  38.765   4.923
 1205W        W66432  33.467   3.135  14.393
 1206W        W66433  44.831  17.084   9.906
 1207W        W66434  36.314   3.287   3.656
 1208W        W66435  13.873  10.139  14.511
 1209W        W66436   5.053  27.562   0.379
 1210W        W66437  32.391  19.041   3.687
 1211W        W66438  33.266  29.217  13.333
 1212W        W66439  16.873  25.555   3.620
 1213W        W66440  35.007  40.776  10.447
 1214W        W66441   4.436  43.973  13.515
 1215W        W66442   9.739   3.989  13.113
 1216W        W66443  37.933  37.106  11.187
 1217W        W66444  21.341  15.640  13.683
 1218W        W66445  21.790  25.553   0.711
 1219W        W66446  10.444   4.470  13.361
 1220W        W66447  24.046  20.612  11.090
 1221W        W66448  28.123   9.553   2.246
 1222W        W66449  12.203   8.178  11.637
 1223W        W66450  17.562  17.212   2.320
 1224W        W66451   3.644  11.721  14.905
 1225W        W66452   0.440  38.453  12.542
 1226W        W66453   4.410   1.805  11.962
 1227W        W66454  41.483   5.915   3.025
 1228W        W66455  22.772  22.299  12.751
 1229W        W66456  31.474  11.528   4.520
 1230W        W66457   0.441  15.213  14.024
 1231W        W66458  14.898  44.966  12.394
 1232W        W66459  29.021  12.316   1.253
 1233W        W66460  39.784  19.809  11.595
 1234W        W66461  42.386  24.589  13.575
 1235W        W66462  19.674  34.917   3.252
 1236W        W66463  22.359  43.480  12.968
 1237W        W66464  25.617  38.968  11.521
 1238W        W66465  17.728   6.904  12.237
 1239W        W66466  27.513   1.296  13.737
 1240W        W66467  10.033   8.360   1.559
 1241W        W66468  36.944  31.429   0.884
 1242W        W66469  24.167  21.666  13.673
 1243W        W66470   5.496  24.059  12.332
 1244W        W66471  12.802   8.239  10.571
 1245W        W66472  42.172  38.825  13.039
 1246W        W66473  36.082  11.352  14.176
 1247W        W66474  32.178  17.471  14.322
 1248W        W66475  26.673  10.956   1.874
 1249W        W66476   4.978  30.101   2.255
 1250W        W66477  21.241   1.211  10.035
 1251W        W66478  44.911  43.405  12.211
 1252W        W66479  33.924  25.703   4.583
 1253W        W66480  25.263  10.151   0.398
 1254W        W66481  27.054   7.867  12.218
 1255W        W66482  22.447  44.885   1.948
 1256W        W66483  28.061  18.546  13.438
 1257W        W66484  26.828  19.972   2.283
 1258W        W66485   5.332  23.648  12.088
 1259W        W66486  37.506  21.738   1.271
 1260W        W66487   0.891  22.971   1.234
 1261W        W66488  15.788  41.957  11.105
 1262W        W66489  21.249  42.988  14.840
 1263W        W66490  34.519  19.059  12.414
 1264W        W66491  12.747   7.282   1.872
 1265W        W66492  16.235  33.270   4.029
 1266W        W66493  23.890  44.301   3.231
 1267W        W66494  11.210  43.820  13.867
 1268W        W66495  11.145  34.740  14.556
 1269W        W66496  44.398  41.160  10.418
 1270W        W66497  44.013  33.372  13.288
 1271W        W66498   3.303   4.331   4.579
 1272W        W66499  24.531  12.703   4.249
 1273W        W66500  25.616  21.605  13.246
 1274W        W66501  21.675  14.688  14.874
 1275W        W66502  27.525  33.182  13.456
 1276W        W66503  33.522  44.399  12.973
 1277W        W66504  41.595  43.418  12.556
 1278W        W66505  38.594  22.164   4.130
 1279W        W66506  21.551  14.741  12.838
 1280W        W66507  24.674   3.523   3.010
 1281W        W66508  15.826  33.918  14.309
 1282W        W66509  22.117  34.929   0.685
 1283W        W66510  10.057  16.010   2.337
 1284W        W66511  40.007  34.384  10.533
 1285W        W66512  20.322   6.197  12.840
 1286W        W66513  36.064  27.911  13.824
 1287W        W66514  32.618  27.761  12.499
 1288W        W66515   0.769  42.539  14.351
 1289W        W66516  23.851  36.948  13.877
 1290W        W66517   6.423  19.869   1.335
 1291W        W66518  41.293   7.152   4.947
 1292W        W66519  38.428  33.550  10.631
 1293W        W66520   7.119  32.417   4.275
 1294W        W66521   4.602  27.474  13.533
 1295W        W66522   5.781  37.409  11.000
 1296W        W66523  22.266  25.543  10.772
 1297W        W66524  25.196  31.038   2.719
 1298W        W66525  36.111  28.118   3.011
 1299W        W66526  25.361  16.330  12.849
 1300W        W66527   6.436  22.778   5.091
 1301W        W66528   3.631   5.854   0.041
 1302W        W66529  30.787  14.399  13.511
 1303W        W66530  44.524  33.040   3.897
 1304W        W66531  15.384  14.784  11.564
 1305W        W66532  37.879   2.200  11.608
 1306W        W66533  41.584   1.455   1.669
 1307W        W66534   0.400   7.499  12.331
 1308W        W66535  11.558  41.326   1.139
 1309W        W66536  26.447  10.646   0.567
 1310W        W66537  41.915  19.309   0.608
 1311W        W66538  16.653  27.299   0.501
 1312W        W66539  13.202  34.185   0.310
 1313W        W66540  32.111  37.051   1.927
 1314W        W66541  32.582  11.141  14.273
 1315W        W66542  20.949  27.813   4.108
 1316W        W66543  37.546  27.254   1.115
 1317W        W66544  35.087  33.451   3.830
 1318W        W66545  35.603  19.614  11.083
 1319W        W66546  19.322   9.861  13.380
 1320W        W66547  36.800  39.361   2.257
 1321W        W66548  24.049  30.339  13.375
 1322W        W66549  16.032  14.164  10.576
 1323W        W66550  29.616  21.486  13.169
 1324W        W66551  19.883  42.913  11.899
 1325W        W66552  16.330  40.191  14.848
 1326W        W66553  24.091   6.541   4.909
 1327W        W66554   2.333  38.353  10.664
 1328W        W66555  35.753  19.468  10.613
 1329W        W66556  15.005  15.352  10.804
 1330W        W66557  30.953  24.988   4.583
 1331W        W66558  25.949  22.765   2.874
 1332W        W66559   9.130   9.319   5.239
 1333W        W66560  32.569   1.278   0.183
 1334W        W66561  30.129   3.823  11.695
 1335W        W66562   2.686  32.517   0.340
 1336W        W66563  14.334  11.196  12.375
 1337W        W66564   7.292  11.736  11.950
 1338W        W66565  44.963  39.805  14.427
 1339W        W66566  39.456  44.147  11.957
 1340W        W66567   8.692  15.358  12.045
 1341W        W66568   1.712  19.155   1.789
 1342W        W66569   9.714  13.244  12.339
 1343W        W66570  29.670  20.121  12.030
 1344W        W66571  26.740  30.660  11.822
 1345W        W66572  28.948  23.060   0.056
 1346W        W66573  25.543  17.523   3.241
 1347W        W66574  33.591  39.326   1.348
 1348W        W66575   9.515  31.479  14.446
 1349W        W66576  31.912   6.841   1.381
 1350W        W66577  15.213  41.312   2.283
 1351W        W66578  18.320  33.539   0.643
 1352W        W66579  15.153  16.142   0.829
 1353W        W66580  28.916  43.769   4.205
 1354W        W66581   2.737   6.503  14.414
 1355W        W66582  22.839  10.263   3.316
 1356W        W66583  20.668  44.221   1.414
 1357W        W66584  28.956  21.736   3.703
 1358W        W66585  44.382  15.831  14.887
 1359W        W66586  29.264   7.137  13.296
 1360W        W66587  20.283   4.139  12.147
 1361W        W66588  39.166   5.574  11.703
 1362W        W66589  39.688  35.415  14.767
 1363W        W66590  21.263  30.956  13.885
 1364W        W66591  27.965   3.753  12.853
 1365W        W66592  18.201  14.602   3.605
 1366W        W66593   0.013  17.097  13.058
 1367W        W66594  28.271   7.382  14.986
 1368W        W66595   5.734  30.043  12.998
 1369W        W66596  25.021  11.235   2.398
 1370W        W66597  19.692  29.474   1.268
 1371W        W66598  22.125   3.548  11.013
 1372W        W66599   0.243  10.432  11.799
 1373W        W66600  39.718  33.924  10.498
 1374W        W66601  13.058  25.068  11.243
 1375W        W66602   3.821  18.557   3.672
 1376W        W66603  37.477  16.795   0.428
 1377W        W66604   1.080  44.475   0.930
 1378W        W66605  36.325  27.723   0.090
 1379W        W66606  33.252  22.250  13.916
 1380W        W66607  39.621   7.741  13.520
 1381W        W66608  44.579   5.696   4.225
 1382W        W66609   9.767  19.369   0.801
 1383W        W66610  18.626   9.912   4.645
 1384W        W66611   1.982   2.037   4.215
 1385W        W66612  10.264  25.129  10.990
 1386W        W66613  38.136  44.198  13.407
 1387W        W66614   1.078  20.707  11.191
 1388W        W66615  22.742  21.080  10.923
 1389W        W66616  40.722  21.272   1.949
 1390W        W66617  18.024  32.971  11.879
 1391W        W66618  11.027  33.049   3.084
 1392W        W66619  41.295  11.085  14.243
 1393W        W66620  15.930  12.179   2.644
 1394W        W66621   3.196  21.396   3.489
 1395W        W66622  36.001  36.510  11.002
 1396W        W66623  33.087  32.976  12.563
 1397W        W66624  40.871  15.187  13.047
 1398W        W66625  14.113  26.161  11.097
 1399W        W66626  34.113  33.437   3.469
 1400W        W66627   5.513   0.945  13.752
 1401W        W66628  35.078   7.328   4.548
 1402W        W66629  31.307  17.607   2.567
 1403W        W66630  12.581   3.968  11.024
 1404W        W66631   1.481  11.834   0.925
 1405W        W66632  21.478  35.628   3.318
 1406W        W66633  36.466   0.098  13.301
 1407W        W66634  13.982  28.492   3.984
 1408W        W66635  20.062  41.481   3.287
 1409W        W66636  34.985  16.109   1.199
 1410W        W66637  43.366  12.437  10.629
 1411W        W66638  21.550   7.516   0.330
 1412W        W66639  16.637   1.457   4.667
 1413W        W66640  42.264  15.285  13.490
 1414W        W66641  22.699  36.164  10.742
 1415W        W66642  23.043   9.324  14.069
 1416W        W66643  23.049  44.034   2.092
 1417W        W66644  12.070   6.370   1.794
 1418W        W66645  35.395  33.819  14.896
 1419W        W66646  30.167   3.742   4.219
 1420W        W66647  17.406  39.798  10.871
 1421W        W66648  37.840  39.944   1.838
 1422W        W66649  13.404  24.831  12.646
 1423W        W66650  32.407   8.175   1.294
 1424W        W66651  17.229  21.627   3.245
 1425W        W66652   2.265   2.095   2.673
 1426W        W66653  35.184  35.838  10.113
 1427W        W66654  29.916  21.797   1.253
 1428W        W66655  42.401  12.633  10.965
 1429W        W66656   4.273  12.251   3.694
 1430W        W66657  35.631  36.939  13.068
 1431W        W66658  32.368  44.985  12.443
 1432W        W66659  15.821  17.266  12.398
 1433W        W66660  20.716  30.284  13.359
 1434W        W66661  31.088  41.571   1.855
 1435W        W66662  33.811   2.969   3.092
 1436W        W66663  30.227  13.028  13.817
 1437W        W66664  20.826  15.733  13.801
 1438W        W66665  35.476  25.186  11.936
 1439W        W66666   6.332  11.584   2.724
 1440W        W66667  42.906  10.276  11.117
 1441W        W66668  44.510  13.829  12.559
 1442W        W66669  19.287  43.815  14.035
 1443W        W66670  12.354  24.239   3.983
 1444W        W66671  40.530  31.001   0.533
 1445W        W66672  22.140  25.753   1.432
 1446W        W66673  16.722  13.041  12.513
 1447W        W66674  34.608  44.666  10.830
 1448W        W66675   7.316  28.940   1.816
 1449W        W66676   7.929   7.841  12.570
 1450W        W66677  28.209  16.669  12.349
 1451W        W66678  35.327   8.870   3.875
 1452W        W66679  43.704  18.649   9.825
 1453W        W66680  36.681  28.234  13.320
 1454W        W66681  41.382   8.428  12.458
 1455W        W66682  27.886   6.475  13.547
 1456W        W66683   2.366  41.349  12.133
 1457W        W66684  35.165   8.679  12.528
 1458W        W66685   1.942  40.100  11.031
 1459W        W66686  19.204  17.477   4.701
 1460W        W66687  34.879  21.632   2.700
 1461W        W66688   3.774   1.104  13.045
 1462W        W66689   2.410  28.474   5.132
 1463W        W66690  22.109  15.664   2.614
 1464W        W66691  17.650   1.040   3.623
 1465W        W66692  33.232   9.915  12.013
 1466W        W66693   1.755   3.903   4.405
 1467W        W66694   9.146  30.075  11.243
 1468W        W66695  44.549  17.676  13.135
 1469W        W66696  33.419   5.444  13.873
 1470W        W66697  26.477  14.406   0.343
 1471W        W66698  33.552  33.333  13.820
 1472W        W66699  35.398   2.761  14.817
 1473W        W66700  14.410  33.990   0.752
 1474W        W66701  39.568  10.145  14.910
 1475W        W66702  18.607  41.561   4.067
 1476W        W66703  44.528  14.662   4.551
 1477W        W66704  18.209   6.396   2.811
 1478W        W66705   0.982   5.408  12.126
 1479W        W66706  27.913  14.409  10.657
 1480W        W66707  41.005  31.528   4.547
 1481W        W66708  16.551   9.769   1.627
 1482W        W66709  21.240   0.773  14.285
 1483W        W66710  19.402  36.422   2.651
 1484W        W66711   9.223  10.751  14.662
 1485W        W66712  35.434  12.630   3.911
 1486W        W66713  11.141  24.439  13.361
 1487W        W66714  21.499  32.522  12.008
 1488W        W66715  36.331   8.626   1.764
 1489W        W66716  22.495  25.573   2.767
 1490W        W66717  34.672  39.459   9.956
 1491W        W66718  27.083  31.726  14.435
 1492W        W66719  41.101   1.635   1.434
 1493W        W66720  28.775  21.244   2.814
 1494W        W66721  34.127   6.021   2.594
 1495W        W66722  25.776  21.856  13.670
 1496W        W66723  31.169  37.541  13.121
 1497W        W66724   7.424  34.418   2.428
 1498W        W66725  11.066  39.851  13.857
 1499W        W66726  28.014   6.281  12.145
 1500W        W66727  19.120  26.433   2.906
 1501W        W66728  27.124  29.560  12.774
 1502W        W66729   6.336  30.613  11.016
 1503W        W66730   3.531  20.331  13.006
 1504W        W66731   5.055  37.871   3.293
 1505W        W66732  12.362  39.979   3.852
 1506W        W66733  37.493  35.824   2.852
 1507W        W66734   7.243  20.518  12.571
 1508W        W66735  39.091  41.564   2.765
 1509W        W66736  21.459  44.974   4.181
 1510W        W66737  25.946  35.669   3.864
 1511W        W66738  12.091  28.562  10.588
 1512W        W66739  16.063  18.946  13.471
 1513W        W66740  44.426  24.961   1.291
 1514W        W66741   8.388  17.265   2.788
 1515W        W66742  36.362   6.205   5.017
 1516W        W66743  30.033  20.217  13.385
 1517W        W66744  12.324   4.467   0.795
 1518W        W66745  17.609  44.398  12.944
 1519W        W66746   0.963  34.839  12.808
 1520W        W66747  30.859  17.205  10.931
 1521W        W66748  30.046   4.218   0.968
 1522W        W66749  34.973  33.138  14.057
 1523W        W66750  35.871  28.900   3.356
 1524W        W66751  16.756  17.008  13.924
 1525W        W66752  17.715  27.968   4.049
 1526W        W66753  21.778  28.513   4.198
 1527W        W66754  29.960  37.826   1.829
 1528W        W66755  28.012  44.910   5.036
 1529W        W66756  18.425  24.738  11.135
 1530W        W66757   7.817  19.325  13.472
 1531W        W66758   2.030  10.676   3.165
 1532W        W66759  14.393  10.634  12.543
 1533W        W66760  40.569  27.099  11.029
 1534W        W66761  24.217   5.561  11.306
 1535W        W66762  13.097  39.048   3.149
 1536W        W66763   3.607  37.014   1.721
 1537W        W66764  11.378   7.791  13.393
 1538W        W66765  28.889  25.136   1.910
 1539W        W66766  24.552   1.241   1.268
 1540W        W66767   1.812  15.713   0.633
 1541W        W66768  39.987   7.289   2.325
 1542W        W66769   7.623  14.758   0.803
 1543W        W66770   2.885  43.827   5.091
 1544W        W66771  33.124   6.111   4.802
 1545W        W66772  15.638   7.268   0.017
 1546W        W66773  35.620  23.981  12.917
 1547W        W66774  26.589   6.044   0.297
 1548W        W66775  18.918  25.958   1.369
 1549W        W66776  27.031   4.455  10.758
 1550W        W66777  23.686  30.829  14.853
 1551W        W66778  26.098  29.120  10.598
 1552W        W66779  42.459   3.461   3.610
 1553W        W66780  20.798  44.780  11.840
 1554W        W66781  31.080  31.870  13.948
 1555W        W66782  23.618  12.055   0.330
 1556W        W66783  27.213  40.830  12.553
 1557W        W66784  37.612  27.659   3.836
 1558W        W66785   6.625  28.992   3.089
 1559W        W66786  10.073  15.007   3.570
 1560W        W66787  32.158  16.350   3.722
 1561W        W66788   3.386  18.994   1.187
 1562W        W66789  33.104  35.365   4.461
 1563W        W66790  22.682  22.715   2.738
 1564W        W66791  30.399   6.834  12.479
 1565W        W66792  30.823   0.770   3.999
 1566W        W66793   8.625  27.156  14.854
 1567W        W66794  24.696  23.698  14.922
 1568W        W66795   1.267  38.782  14.924
 1569W        W66796  41.307  16.799   2.938
 1570W        W66797  38.815   0.949   4.990
 1571W        W66798  34.344   7.603  14.934
 1572W        W66799   4.233  22.580  14.717
 1573W        W66800   4.504  12.090   1.176
 1574W        W66801  41.328  26.956   2.264
 1575W        W66802  36.871  14.211  12.536
 1576W        W66803   9.191  23.356  12.028
 1577W        W66804  22.412  18.349  14.248
 1578W        W66805  43.688  29.349  11.590
 1579W        W66806  21.779   6.943   1.222
 1580W        W66807  25.930  25.140  13.547
 1581W        W66808  32.038  22.749   4.031
 1582W        W66809  38.257   2.602   2.180
 1583W        W66810   5.418  30.443   4.495
 1584W        W66811   6.316   2.917  13.325
 1585W        W66812  30.605  30.535  13.461
 1586W        W66813  23.313  31.602  13.485
 1587W        W66814  24.759  40.622   2.251
 1588W        W66815  26.227  30.334  11.134
 1589W        W66816  40.878  20.819   4.690
 1590W        W66817  17.304  10.435   2.767
 1591W        W66818  37.331   4.501  13.177
 1592W        W66819  19.348   9.257   0.520
 1593W        W66820  11.135  12.882  14.430
 1594W        W66821  16.230  38.298   2.215
 1595W        W66822  14.914  16.354  10.791
 1596W        W66823  17.754  42.824  13.670
 1597W        W66824  11.309  25.638  14.056
 1598W        W66825  34.639  12.801   1.450
 1599W        W66826   0.647  42.148   4.072
 1600W        W66827  18.258  28.496  13.279
 1601W        W66828  28.905  19.439   3.173
 1602W        W66829  11.283  16.426  10.876
 1603W        W66830   2.772  36.916   4.653
 1604W        W66831  39.814  27.871  11.957
 1605W        W66832  29.469  39.111   4.409
 1606W        W66833  15.946  15.286  10.710
 1607W        W66834  43.556   6.542   3.207
 1608W        W66835  17.253  38.108   3.645
 1609W        W66836   7.882  44.733   4.716
 1610W        W66837  32.186  24.256  12.040
 1611W        W66838  19.364  18.327   3.989
 1612W        W66839  39.597  12.609   2.208
 1613W        W66840  37.865  30.929  12.996
 1614W        W66841  20.269   9.225   2.128
 1615W        W66842  43.562   4.289  13.322
 1616W        W66843  19.570   9.761  11.105
 1617W        W66844   3.949  40.186  11.877
 1618W        W66845  16.056   1.113  12.379
 1619W        W66846  28.095   1.381   2.224
 1620W        W66847   3.270   3.982   3.202
 1621W        W66848  25.311  18.665  12.725
 1622W        W66849  29.828   4.726  13.487
 1623W        W66850  22.575   2.880  14.837
 1624W        W66851  19.629   4.528  11.052
 1625W        W66852   3.921   0.516   2.783
 1626W        W66853  11.690   1.018  12.570
 1627W        W66854  13.382  27.026   1.080
 1628W        W66855  31.605  20.510   3.058
 1629W        W66856  38.146   3.209  11.622
 1630W        W66857  22.311  33.637  12.508
 1631W        W66858  19.729  43.575  11.434
 1632W        W66859  21.564  16.659  12.476
 1633W        W66860  39.895  13.268   0.210
 1634W        W66861   3.354  21.499  14.916
 1635W        W66862  35.121  28.447   0.271
 1636W        W66863  28.365  26.466   9.639
 1637W        W66864  42.842  34.496   2.121
 1638W        W66865  20.603  35.628  12.120
 1639W        W66866  10.390  17.142  11.957
 1640W        W66867   9.141   3.998   0.857
 1641W        W66868  37.904  19.811  12.831
 1642W        W66869  28.553   3.332   4.840
 1643W        W66870  13.118   6.295   1.877
 1644W        W66871  23.511  32.603  11.180
 1645W        W66872   9.385  22.778   0.908
 1646W        W66873  20.045  13.108   3.303
 1647W        W66874  31.970   4.422  10.671
 1648W        W66875  15.981  28.857   3.798
 1649W        W66876   1.868  29.083   5.281
 1650W        W66877  18.748  10.441   4.451
 1651W        W66878  27.947   2.541   0.435
 1652W        W66879  32.028  42.829   1.253
 1653W        W66880  21.056  21.699  11.955
 1654W        W66881   3.729  27.714   0.773
 1655W        W66882  11.128  16.951   2.255
 1656W        W66883  27.088   5.379  14.301
 1657W        W66884  38.039  21.443   0.001
 1658W        W66885  36.318   8.438   4.683
 1659W        W66886  35.230  42.927  13.477
 1660W        W66887  22.547  36.127   4.121
 1661W        W66888  14.080  20.053   3.749
 1662W        W66889  14.723  30.791   0.856
 1663W        W66890  20.638  35.307  11.721
 1664W        W66891  35.500  11.668   4.850
 1665W        W66892  19.505  36.436   1.773
 1666W        W66893  11.523  29.188   0.548
 1667W        W66894   4.755  28.790   4.027
 1668W        W66895  34.954   5.292   1.807
 1669W        W66896  24.566  30.300   2.693
 1670W        W66897  43.315  17.558   5.436
 1671W        W66898  27.119  35.805   2.730
 1672W        W66899   0.327  25.071   4.612
 1673W        W66900  25.083  23.685   3.197
 1674W        W66901  12.288   2.913   0.971
 1675W        W66902  39.550  16.469  13.454
 1676W        W66903  42.009  42.695   2.449
 1677W        W66904  33.066  40.184   1.333
 1678W        W66905  28.889  28.934  12.937
 1679W        W66906   7.480  40.343   2.460
 1680W        W66907  31.987  23.225  11.960
 1681W        W66908  10.064  31.688   4.427
 1682W        W66909  31.445  16.014   2.847
 1683W        W66910  15.580  41.328  13.330
 1684W        W66911   2.364  14.347  12.010
 1685W        W66912  30.643  42.568   3.292
 1686W        W66913   1.430  39.570   4.175
 1687W        W66914  20.088  20.219  14.284
 1688W        W66915  28.779  42.379   1.677
 1689W        W66916  17.492  40.291  12.131
 1690W        W66917  34.574   7.931  12.985
 1691W        W66918  23.501  42.826   1.417
 1692W        W66919  41.873  28.223   2.131
 1693W        W66920  38.551  11.655   1.919
 1694W        W66921  16.539  28.035   3.698
 1695W        W66922  11.930  32.997  13.135
 1696W        W66923   2.194  29.537  11.692
 1697W        W66924  18.855  12.071   0.476
 1698W        W66925  31.403  21.004  13.572
 1699W        W66926  32.182  42.418  13.044
 1700W        W66927  36.176  33.082  11.040
 1701W        W66928  34.369  38.921   4.220
 1702W        W66929  35.179  13.699  13.880
 1703W        W66930   7.788   8.586   3.774
 1704W        W66931   0.549  35.523   2.133
 1705W        W66932  38.353  42.986  14.761
 1706W        W66933  10.379   6.447  11.725
 1707W        W66934   9.639  21.590   3.644
 1708W        W66935  37.354  13.207   3.615
 1709W        W66936  22.082  21.341  14.418
 1710W        W66937  14.512  44.050  14.967
 1711W        W66938  35.958   2.104   0.734
 1712W        W66939   7.314  27.469   4.616
 1713W        W66940   7.779  33.129  13.880
 1714W        W66941  14.564   7.373  12.460
 1715W        W66942  20.289  12.934   3.773
 1716W        W66943  44.975  23.394  13.001
 1717W        W66944  10.319  17.096  12.944
 1718W        W66945  32.024  23.541   4.645
 1719W        W66946   1.731  19.712   1.327
 1720W        W66947  10.119   9.063   0.849
 1721W        W66948  35.128  41.272  11.227
 1722W        W66949  27.588  28.890  11.490
 1723W        W66950   7.396   6.123  14.825
 1724W        W66951  39.307  42.654   4.093
 1725W        W66952  39.346  27.164  11.197
 1726W        W66953  35.392  36.224  12.368
 1727W        W66954   4.468   5.359   2.777
 1728W        W66955   6.310   0.574  14.440
 1729W        W66956  34.571  43.844   3.313
 1730W        W66957   0.403  28.685   4.745
 1731W        W66958  44.279  10.332  13.983
 1732W        W66959   9.841  21.229  14.191
 1733W        W66960  22.532   5.233  14.544
 1734W        W66961  12.951  38.938  13.088
 1735W        W66962  12.322   5.974  10.722
 1736W        W66963  35.021  29.589   5.047
 1737W        W66964   3.354  10.388   4.554
 1738W        W66965  28.046  43.356   2.850
 1739W        W66966  42.278  33.172   1.318
 1740W        W66967  13.651  24.097   4.614
 1741W        W66968  25.097   4.378  12.011
 1742W        W66969  34.605  17.607  12.490
 1743W        W66970  25.985  32.035   2.272
 1744W        W66971  20.576  37.954   0.305
 1745W        W66972  23.362  12.293  10.887
 1746W        W66973  32.775  37.641   1.257
 1747W        W66974  30.347   4.637  14.847
 1748W        W66975  16.521   0.803   2.000
 1749W        W66976  40.841  27.586  11.985
 1750W        W66977   0.164  41.515  11.607
 1751W        W66978  30.104  44.431  12.344
 1752W        W66979  28.963   6.820   2.000
 1753W        W66980   6.960  41.227   2.222
 1754W        W66981  13.630   1.503  14.787
 1755W        W66982  19.297  32.838  13.930
 1756W        W66983   1.915  37.312  10.166
 1757W        W66984  36.057  36.610   0.952
 1758W        W66985  20.530  42.589   2.718
 1759W        W66986  11.601  20.301  13.005
 1760W        W66987  17.963   6.370   3.296
 1761W        W66988   7.619   3.827  11.126
 1762W        W66989  28.576  41.520   0.680
 1763W        W66990  20.397  42.459   4.174
 1764W        W66991  20.778  24.405   1.708
 1765W        W66992  19.082  36.589  14.769
 1766W        W66993   8.739  29.385   0.489
 1767W        W66994  22.224   2.055   3.619
 1768W        W66995  38.494  13.826  13.749
 1769W        W66996  28.159   8.682  10.808
 1770W        W66997  22.708   2.444  12.450
 1771W        W66998  34.363  43.947   0.894
 1772W        W66999  38.389   5.850  12.446
 1773W        W67000  14.449  32.010  10.032
 1774W        W67001  42.839   5.457   5.502
 1775W        W67002  22.011   7.975   4.462
 1776W        W67003  11.693   3.494   3.163
 1777W        W67004   0.746  16.340  13.457
 1778W        W67005   2.785  21.359  13.264
 1779W        W67006  40.330  42.231   2.411
 1780W        W67007  44.877  35.478  14.135
 1781W        W67008  39.489  31.522  12.270
 1782W        W67009   2.242   2.734  13.472
 1783W        W67010   3.767  44.373  14.514
 1784W        W67011  32.787  31.370  14.895
 1785W        W67012  18.245  22.499   1.701
 1786W        W67013  26.249  26.490   1.898
 1787W        W67014  28.563  44.789  13.109
 1788W        W67015   6.163  38.547  14.835
 1789W        W67016  16.705  23.261   0.367
 1790W        W67017  33.416  11.051   2.902
 1791W        W67018  14.303  32.128   3.165
 1792W        W67019  13.907   2.445   0.503
 1793W        W67020  13.707  40.312  14.979
 1794W        W67021  26.804   2.155  11.571
 1795W        W67022  31.086  40.345   1.069
 1796W        W67023  44.325  32.948  13.380
 1797W        W67024  12.271  16.024   3.110
 1798W        W67025  13.318  14.629   3.336
 1799W        W67026   6.187  40.595  11.093
 1800W        W67027  18.839  25.092   2.417
 1801W        W67028  12.719  12.559   0.384
 1802W        W67029  44.750  13.694   0.522
 1803W        W67030  22.743  15.579  14.058
 1804W        W67031  16.635  43.363  14.535
 1805W        W67032  10.925  27.633   3.129
 1806W        W67033  21.738  19.432  11.474
 1807W        W67034  10.343  18.427   4.697
 1808W        W67035   7.932  35.834   2.844
 1809W        W67036   8.412  42.924   2.094
 1810W        W67037  25.209  42.802   3.288
 1811W        W67038  17.288  37.365  12.630
 1812W        W67039   8.679   8.358  12.641
 1813W        W67040  32.605   3.305   1.417
 1814W        W67041  42.350  12.664  11.480
 1815W        W67042  37.368  38.045   4.025
 1816W        W67043  14.721  12.789   2.653
 1817W        W67044  42.432  36.100  10.521
 1818W        W67045  18.153  24.171  11.159
 1819W        W67046  39.764  11.118  14.603
 1820W        W67047  19.085  33.431  12.525
 1821W        W67048  22.764  28.529   0.864
 1822W        W67049  23.939  43.489   4.374
 1823W        W67050  35.264  22.168   0.803
 1824W        W67051  39.622  28.653  11.222
 1825W        W67052   5.163  12.394  12.149
 1826W        W67053  34.856  44.993   1.484
 1827W        W67054  12.363  22.573  12.387
 1828W        W67055  23.720  44.375  11.245
 1829W        W67056  39.398  22.675  10.752
 1830W        W67057   1.526   4.830  11.226
 1831W        W67058  16.317  35.560   1.335
 1832W        W67059  18.606  18.130  11.249
 1833W        W67060  10.073  20.039  13.966
 1834W        W67061  39.982   5.377   2.689
 1835W        W67062  10.789  42.777   1.836
 1836W        W67063  14.341   5.309  14.586
 1837W        W67064   2.266  12.697   1.910
 1838W        W67065   9.133  14.384  14.441
 1839W        W67066  21.108  32.585   3.795
 1840W        W67067  11.797  34.709   1.732
 1841W        W67068  37.288  39.523   4.937
 1842W        W67069   7.654  42.063   0.482
 1843W        W67070  27.971  35.994   1.274
 1844W        W67071  20.703  23.019  11.186
 1845W        W67072  22.781   1.980   2.767
 1846W        W67073  36.428  40.350   4.821
 1847W        W67074   9.510   3.974   4.548
 1848W        W67075  35.893  14.194  13.993
 1849W        W67076  10.316  43.595   1.742
 1850W        W67077  33.047  17.546  10.514
 1851W        W67078   7.001  40.115  14.414
 1852W        W67079  29.093  15.267  13.773
 1853W        W67080  32.393  42.847  13.820
 1854W        W67081  36.296   7.766  14.635
 1855W        W67082  35.398  22.752   1.289
 1856W        W67083  22.259   1.223   1.242
 1857W        W67084   5.250   5.658  13.398
 1858W        W67085  27.458  19.068  10.643
 1859W        W67086  16.182  12.176   4.163
 1860W        W67087   1.234  17.435  11.910
 1861W        W67088  44.599  17.423   4.964
 1862W        W67089  12.634  19.291  11.619
 1863W        W67090  35.892  29.379  14.802
 1864W        W67091  25.442  30.171  11.173
 1865W        W67092  14.300  13.659  11.583
 1866W        W67093  35.886  12.676   0.087
 1867W        W67094  38.401  19.975  12.833
 1868W        W67095  11.052  14.588   0.341
 1869W        W67096  22.143  31.143  11.500
 1870W        W67097   5.947   1.836  13.579
 1871W        W67098  21.497  22.377   2.826
 1872W        W67099  37.885  19.699   0.542
 1873W        W67100  43.211  22.965  11.787
 1874W        W67101  19.527  24.755  13.070
 1875W        W67102  38.041  38.369  12.522
 1876W        W67103  14.292  23.154   3.163
 1877W        W67104  36.597  30.047   3.312
 1878W        W67105  22.994  27.245  10.713
 1879W        W67106   0.273   8.334   4.256
 1880W        W67107  37.385  20.539   3.699
 1881W        W67108  18.636  38.102   3.261
 1882W        W67109  36.329  44.753  12.930
 1883W        W67110   9.094  15.312  14.865
 1884W        W67111  33.919  31.092  11.607
 1885W        W67112  22.271  40.146   3.648
 1886W        W67113  13.722  10.870  14.293
 1887W        W67114  17.303   3.188   0.286
 1888W        W67115   3.783  33.461  11.182
 1889W        W67116  34.474  44.235   3.681
 1890W        W67117  13.441  15.528   4.596
 1891W        W67118   9.668  35.880   4.416
 1892W        W67119  23.502  16.853  12.852
 1893W        W67120  13.125   3.820   2.733
 1894W        W67121  10.615   1.163   0.901
 1895W        W67122  31.641  26.635   1.723
 1896W        W67123  25.159  22.568  14.915
 1897W        W67124  20.580   7.198  14.540
 1898W        W67125  27.191  10.836   1.868
 1899W        W67126  33.027  29.979  11.033
 1900W        W67127  28.499  35.148   0.977
 1901W        W67128  24.355  42.101  12.483
 1902W        W67129  24.640  11.306  14.396
 1903W        W67130   0.396  20.332   0.693
 1904W        W67131  26.389  20.282  12.243
 1905W        W67132  18.697  13.169   1.644
 1906W        W67133  11.848   0.275   1.328
 1907W        W67134  13.118  10.216  13.341
 1908W        W67135  11.602  15.038  11.856
 1909W        W67136  31.213  21.583   2.275
 1910W        W67137  14.233  28.733  14.042
 1911W        W67138  16.766   3.174   2.805
 1912W        W67139  29.975  32.492  13.360
 1913W        W67140   4.434  35.296   2.367
 1914W        W67141  16.368   5.994  12.577
 1915W        W67142  11.941  24.687  10.981
 1916W        W67143  18.203  10.141  13.878
 1917W        W67144  44.475  13.740  13.475
 1918W        W67145   8.731  12.841  11.821
 1919W        W67146   2.726  27.177   1.323
 1920W        W67147  31.417  17.724  11.621
 1921W        W67148  39.333  28.212  11.129
 1922W        W67149  25.319  29.854  12.086
 1923W        W67150  44.773   1.339  11.009
 1924W        W67151   1.507  32.078   3.543
 1925W        W67152   8.271  10.204   1.030
 1926W        W67153  19.540  21.264  11.168
 1927W        W67154   1.963   7.641   1.835
 1928W        W67155  31.554  36.048   3.228
 1929W        W67156  42.351  18.239  14.055
 1930W        W67157  17.117  39.020   4.019
 1931W        W67158  23.029  38.982  12.379
 1932W        W67159  31.863  15.331   1.021
 1933W        W67160   4.428  18.126  13.575
 1934W        W67161  37.977   5.107   1.764
 1935W        W67162  28.610  18.272  11.914
 1936W        W67163   8.096  35.328   4.595
 1937W        W67164  18.593  18.273   3.684
 1938W        W67165  11.953   3.425  13.086
 1939W        W67166  10.937   5.653   1.921
 1940W        W67167  32.371  18.005  14.818
 1941W        W67168  19.548   8.805  11.059
 1942W        W67169   0.252  14.391   0.070
 1943W        W67170  24.036  41.054   0.409
 1944W        W67171   9.409  44.878  11.731
 1945W        W67172  22.247  13.135  14.811
 1946W        W67173  27.027  27.450   0.499
 1947W        W67174  32.592  18.007  13.975
 1948W        W67175  17.024  25.224  10.270
 1949W        W67176   2.682  24.191  10.589
 1950W        W67177   4.434  21.089  13.325
 1951W        W67178  35.808  14.747   2.279
 1952W        W67179  26.699  21.246   1.921
 1953W        W67180  30.842  41.907  12.053
 1954W        W67181   2.006  22.954   1.670
 1955W        W67182  23.191   3.196   4.105
 1956W        W67183  36.845  12.371  12.025
 1957W        W67184  20.260  36.460  10.799
 1958W        W67185   5.153  18.551   0.002
 1959W        W67186  40.431  10.967  13.006
 1960W        W67187  17.520  32.918  13.517
 1961W        W67188  24.908  10.052   3.659
 1962W        W67189  20.258  15.131  11.333
 1963W        W67190  35.458  39.837   3.360
 1964W        W67191  41.391  44.060   3.992
 1965W        W67192  25.922  33.984   1.913
 1966W        W67193  38.739   3.390  12.856
 1967W        W67194  20.852  37.322  14.959
 1968W        W67195  33.348  33.647  14.156
 1969W        W67196  22.965  10.681  10.957
 1970W        W67197  16.706  19.543  10.712
 1971W        W67198   0.731   8.783  12.410
 1972W        W67199  18.783  16.081   3.794
 1973W        W67200  10.692  38.310  13.878
 1974W        W67201  13.351  37.821   2.704
 1975W        W67202  31.991  17.069   1.538
 1976W        W67203  19.598  31.367  14.958
 1977W        W67204  41.866  15.100  12.257
 1978W        W67205  15.048  19.306  13.449
 1979W        W67206  40.935   6.288  12.133
 1980W        W67207  39.921  18.165  11.242
 1981W        W67208  40.457  14.693  14.061
 1982W        W67209  29.404  44.843  11.678
 1983W        W67210  39.235  42.074   2.759
 1984W        W67211  44.791  32.760  14.423
 1985W        W67212  35.908  12.660   4.852
 1986W        W67213   2.669  13.182   2.550
 1987W        W67214  37.111   3.410  14.900
 1988W        W67215  11.098   9.517  13.258
 1989W        W67216  15.815   5.492  12.563
 1990W        W67217   5.261  23.497  14.333
 1991W        W67218  23.069  26.003   4.043
 1992W        W67219   6.243   7.456   2.333
 1993W        W67220  31.984  19.729   3.291
 1994W        W67221  40.828  43.432  11.271
 1995W        W67222  42.359  39.945  10.830
 1996W        W67223  34.666   9.747  11.676
 1997W        W67224  36.816  26.889   0.447
 1998W        W67225  38.966  24.154  14.187
 1999W        W67226  20.210  18.848  14.034
 2000W        W67227  43.785   2.642  11.642
 2001W        W67228   3.852  29.185  12.039
 2002W        W67229  20.554  28.950   1.702
 2003W        W67230  15.300   2.383  11.502
 2004W        W67231  22.313  34.949   1.534
 2005W        W67232  43.414  39.464  13.007
 2006W        W67233  27.198  36.469  14.867
 2007W        W67234   7.907   2.568  12.703
 2008W        W67235  15.720  37.809   1.043
 2009W        W67236  38.075  37.355   2.668
 2010W        W67237  22.573  37.104  12.819
 2011W        W67238  21.618  19.881   3.987
 2012W        W67239   2.641  33.353  12.056
 2013W        W67240  15.626   3.734  11.208
 2014W        W67241  43.675  28.405  11.541
 2015W        W67242  13.186  11.745   0.266
 2016W        W67243   4.321  38.981   0.017
 2017W        W67244  11.939  42.138  14.116
 2018W        W67245   3.200  22.980  13.353
 2019W        W67246  16.830  35.383  14.574
 2020W        W67247  15.246  25.516   3.539
 2021W        W67248  29.694  41.874  14.732
 2022W        W67249   4.317  13.403   4.088
 2023W        W67250  17.795   3.449   1.417
 2024W        W67251  27.165  27.859   0.793
 2025W        W67252  42.560  39.338  11.056
 2026W        W67253  23.240  24.040  12.905
 2027W        W67254   4.707  14.412  10.614
 2028W        W67255   5.220  27.261   3.630
 2029W        W67256   9.639  21.696  11.085
 2030W        W67257  21.625   9.416  13.331
 2031W        W67258  11.454  33.137  11.721
 2032W        W67259  20.992   6.168   5.028
 2033W        W67260  21.282   5.889  11.277
 2034W        W67261  26.580  15.670   1.313
 2035W        W67262  21.192  14.117  10.643
 2036W        W67263   0.019  29.928  13.430
 2037W        W67264   9.165  20.588   4.344
 2038W        W67265  29.210  28.118  13.223
 2039W        W67266  16.325  35.785  11.199
 2040W        W67267  42.035   5.332   4.540
 2041W        W67268   4.877   6.351  12.990
 2042W        W67269  22.977  15.117   0.817
 2043W        W67270  18.152  42.955  13.356
 2044W        W67271  39.537  15.518  14.306
 2045W        W67272   2.017  15.435   3.987
 2046W        W67273  38.454  27.439  13.448
 2047W        W67274  34.733  13.615  10.673
 2048W        W67275  23.118  16.800   2.145
 2049W        W67276  38.905  13.801   3.571
 2050W        W67277  36.389   4.432  11.129
 2051W        W67278  39.794   2.819  11.554
 2052W        W67279  16.756  34.649   2.815
 2053W        W67280  32.449  23.724   3.006
 2054W        W67281  33.718   9.246  12.485
 2055W        W67282   3.800   6.303  11.963
 2056W        W67283  10.328  43.473  14.319
 2057W        W67284   0.664   9.385   3.205
 2058W        W67285  39.173   4.216  10.701
 2059W        W67286  16.304   0.335  13.401
 2060W        W67287  44.249   2.842  11.531
 2061W        W67288   5.163   4.786   1.419
 2062W        W67289  23.055  23.570  10.721
 2063W        W67290  25.886  29.081   1.385
 2064W        W67291   1.652   1.794   4.539
 2065W        W67292   5.932  16.392   4.047
 2066W        W67293  40.964  38.104   3.639
 2067W        W67294   4.998  30.332  14.352
 2068W        W67295  19.662  16.830  11.582
 2069W        W67296   3.778   7.332   1.341
 2070W        W67297   5.982  10.637   2.800
 2071W        W67298  15.650  12.363   2.222
 2072W        W67299  40.588   2.931  13.009
 2073W        W67300   2.717  20.531   0.817
 2074W        W67301  27.971  28.371  14.009
 2075W        W67302   7.825  10.564   4.080
 2076W        W67303  37.513  33.336   3.116
 2077W        W67304  21.579  20.622   1.683
 2078W        W67305   3.655   5.389   3.182
 2079W        W67306  24.438  25.269   4.267
 2080W        W67307  33.985  20.690  12.323
 2081W        W67308  19.146  11.684   0.201
 2082W        W67309  40.860  18.759  14.732
 2083W        W67310  21.206   1.356   0.006
 2084W        W67311  33.348  39.160  10.785
 2085W        W67312  31.720  42.616  12.955
 2086W        W67313  13.039  36.920  11.572
 2087W        W67314  24.501   8.717   3.355
 2088W        W67315  29.108  21.833  11.670
 2089W        W67316  36.818  22.066  14.860
 2090W        W67317  37.312  26.803   1.161
 2091W        W67318  28.033  33.596  11.218
 2092W        W67319   0.229  30.756   2.262
 2093W        W67320   1.464   5.805   2.194
 2094W        W67321  12.454   3.321  12.219
 2095W        W67322   3.424  38.521  10.535
 2096W        W67323  14.356   9.786   2.367
 2097W        W67324  32.597  16.689  11.477
 2098W        W67325  10.114  37.463   0.502
 2099W        W67326  30.458   1.952  10.470
 2100W        W67327   8.248   5.705   0.014
 2101W        W67328  44.871  28.952  14.738
 2102W        W67329  18.754  34.478   2.752
 2103W        W67330  35.710  30.049   2.281
 2104W        W67331   0.338  44.986  12.005
 2105W        W67332  16.119  41.210   2.905
 2106W        W67333  36.406  13.347  11.063
 2107W        W67334  34.574  10.613   1.661
 2108W        W67335  27.458  36.743   3.643
 2109W        W67336  34.832   2.116   0.116
 2110W        W67337   8.884   8.112  10.810
 2111W        W67338  18.741  19.376   3.222
 2112W        W67339  43.720  43.825  11.789
 2113W        W67340  34.430  25.848   0.658
 2114W        W67341  10.014   4.658  14.424
 2115W        W67342  19.622  23.248   4.870
 2116W        W67343   3.507  37.019  13.292
 2117W        W67344  39.042  44.741   2.020
 2118W        W67345   5.267  32.221   2.703
 2119W        W67346  37.940  24.195   4.622
 2120W        W67347  39.415   8.619  12.564
 2121W        W67348   5.028  33.449  13.517
 2122W        W67349  34.878   4.000   4.382
 2123W        W67350   0.240  37.910  11.576
 2124W        W67351  31.668   2.420  11.560
 2125W        W67352  11.113  30.709  12.497
 2126W        W67353  25.066  21.194  11.139
 2127W        W67354  43.562  38.369   2.693
 2128W        W67355   1.514  28.522  10.734
 2129W        W67356  37.633  44.006  11.219
 2130W        W67357  40.996  38.360  14.155
 2131W        W67358   4.811  34.839  11.852
 2132W        W67359  41.909  38.003   1.386
 2133W        W67360  20.964  27.540  11.268
 2134W        W67361  42.553   8.668  12.970
 2135W        W67362  31.882  43.072   2.702
 2136W        W67363  13.310  10.679  14.031
 2137W        W67364  11.306  42.511   0.818
 2138W        W67365  36.378  40.814  13.399
 2139W        W67366   4.322   4.087   2.461
 2140W        W67367   4.285   1.260   4.099
 2141W        W67368   2.915   3.296  14.972
 2142W        W67369  22.410  33.723  14.132
 2143W        W67370  32.705   8.623   1.768
 2144W        W67371   5.758  31.882   1.899
 2145W        W67372  12.641   4.222  14.936
 2146W        W67373  12.590  10.356  11.625
 2147W        W67374   3.468  23.861   2.370
 2148W        W67375  22.684  44.216  13.611
 2149W        W67376  18.115   3.813  12.527
 2150W        W67377   0.408  12.286  10.769
 2151W        W67378  38.581  44.833  12.500
 2152W        W67379  41.064  43.887  12.852
 2153W        W67380  23.592  16.921  12.184
 2154W        W67381  27.399  34.478  11.559
 2155W        W67382  11.052  41.702  12.054
 2156W        W67383  19.757  28.138   2.648
 2157W        W67384  34.241   4.628   3.156
 2158W        W67385  35.889  25.040   4.577
 2159W        W67386   9.358  34.847   2.428
 2160W        W67387  40.838  16.498  13.279
 2161W        W67388   5.674  37.494   2.003
 2162W        W67389  22.527  40.945   1.862
 2163W        W67390  28.597   4.332   0.406
 2164W        W67391  19.215   0.347  11.169
 2165W        W67392  34.675  37.360   4.177
 2166W        W67393  21.502   5.223   0.708
 2167W        W67394  19.585  16.712   0.013
 2168W        W67395  18.566  35.463   2.441
 2169W        W67396  22.222  32.262  13.693
 2170W        W67397   2.265  37.515  11.258
 2171W        W67398   8.857   3.997   1.311
 2172W        W67399  29.511   8.461   0.330
 2173W        W67400  31.152  14.154   2.427
 2174W        W67401  41.995  31.568  14.832
 2175W        W67402  25.531   6.581  13.833
 2176W        W67403  33.016   7.155   4.854
 2177W        W67404  18.059  35.921   1.341
 2178W        W67405  43.052  12.466   4.251
 2179W        W67406  31.651   4.426  14.744
 2180W        W67407   0.289  17.320   0.882
 2181W        W67408  28.214  32.164   2.207
 2182W        W67409  22.222  35.232  14.804
 2183W        W67410  12.273   2.918  12.961
 2184W        W67411  38.201  13.677   2.675
 2185W        W67412   4.542  31.367  12.517
 2186W        W67413   7.168  20.499  14.351
 2187W        W67414   7.563  10.442   1.307
 2188W        W67415  39.394  29.130  14.241
 2189W        W67416  14.646   9.153  14.328
 2190W        W67417  39.727  26.341   1.554
 2191W        W67418   5.464  25.093   1.756
 2192W        W67419  32.660  44.234   1.402
 2193W        W67420  31.876  19.068   3.711
 2194W        W67421   4.828  12.371   3.496
 2195W        W67422  22.137  14.641   0.513
 2196W        W67423   4.984  18.679   4.677
 2197W        W67424   2.222  39.276   3.395
 2198W        W67425  29.670  23.587   5.214
 2199W        W67426  43.270  11.126   0.056
 2200W        W67427  43.543   2.197   0.286
 2201W        W67428  39.268   7.263  12.070
 2202W        W67429  13.728  33.950  11.206
 2203W        W67430  40.458  34.448  11.350
 2204W        W67431  15.351  35.669  10.146
 2205W        W67432  43.984   8.457  13.982
 2206W        W67433  29.364  42.421  13.664
 2207W        W67434  31.840  16.535   3.288
 2208W        W67435  13.652  39.910  10.545
 2209W        W67436  14.671  24.495  13.823
 2210W        W67437  26.752  25.186  14.935
 2211W        W67438  14.627  13.835   2.390
 2212W        W67439  16.156   9.687   0.931
 2213W        W67440  36.789   0.091  13.931
 2214W        W67441  29.397   4.033   2.761
 2215W        W67442  32.918  38.149   0.253
 2216W        W67443  44.982  32.117  11.157
 2217W        W67444   6.813  37.020   0.577
 2218W        W67445  41.611  40.858   3.130
 2219W        W67446   0.750  26.611   1.558
 2220W        W67447  29.025  18.928   3.150
 2221W        W67448  40.517  29.588   4.758
 2222W        W67449  26.136  30.208  10.644
 2223W        W67450  28.450  41.469   1.635
 2224W        W67451   6.074  30.976   1.015
 2225W        W67452  18.947   2.141  13.292
 2226W        W67453  37.791  11.901   1.292
 2227W        W67454  33.672   4.130   4.361
 2228W        W67455   7.415  35.796  12.892
 2229W        W67456  18.266  30.374   4.518
 2230W        W67457  38.618  18.624  12.114
 2231W        W67458  28.479  38.898  14.916
 2232W        W67459  26.980   0.339  11.571
 2233W        W67460  20.814  23.989  11.969
 2234W        W67461  38.509   8.915   3.160
 2235W        W67462   5.991  42.298   3.274
 2236W        W67463  39.940  12.670  11.404
 2237W        W67464  20.261  28.516   3.061
 2238W        W67465  34.614  23.014   0.988
 2239W        W67466  10.115  43.579  12.120
 2240W        W67467  40.521  11.354   1.258
 2241W        W67468  39.838  34.813   1.185
 2242W        W67469   1.443  22.267  11.476
 2243W        W67470  22.587   4.373   3.636
 2244W        W67471  30.612  20.386  12.200
 2245W        W67472  12.177  36.534  13.853
 2246W        W67473  16.778  32.642  10.702
 2247W        W67474  32.905  34.506  10.619
 2248W        W67475  26.508  19.646  11.435
 2249W        W67476  35.118  35.568  14.966
 2250W        W67477  18.115   9.388  11.622
 2251W        W67478  16.307   3.187   3.562
 2252W        W67479  29.335  20.741  12.507
 2253W        W67480  15.769   9.843  12.486
 2254W        W67481  37.199  27.690  11.666
 2255W        W67482   8.240   9.864   0.399
 2256W        W67483   9.585   6.830  13.873
 2257W        W67484  26.287   7.691   2.200
 2258W        W67485  18.567  36.210  10.791
 2259W        W67486  19.555  13.381   0.781
 2260W        W67487  25.217  13.060  13.918
 2261W        W67488  22.172  34.192  10.758
 2262W        W67489  28.133  25.117  12.863
 2263W        W67490  30.444  21.474  13.523
 2264W        W67491   8.795   1.793  13.198
 2265W        W67492  22.996  26.712  10.749
 2266W        W67493  12.343   7.187  14.271
 2267W        W67494  33.829  13.684   2.209
 2268W        W67495  23.807  42.518  12.090
 2269W        W67496   7.668  14.556  11.410
 2270W        W67497   0.237  15.421  13.600
 2271W        W67498   8.723   3.274  14.016
 2272W        W67499  40.054   7.474  13.522
 2273W        W67500  21.806  28.694   0.907
 2274W        W67501  43.739  44.901  12.835
 2275W        W67502  23.199   8.415   1.913
 2276W        W67503  33.679  17.550   4.510
 2277W        W67504  35.389  20.916  10.689
 2278W        W67505  14.056  36.581   3.076
 2279W        W67506  34.959   6.206   4.813
 2280W        W67507  40.565   8.927  14.351
 2281W        W67508  25.229  24.394   0.380
 2282W        W67509  24.203  11.814   0.544
 2283W        W67510   4.888  24.642   1.509
 2284W        W67511  26.324  28.330   2.710
 2285W        W67512  42.995  36.329   4.169
 2286W        W67513  27.247   1.276  11.081
 2287W        W67514  38.966  22.181  13.520
 2288W        W67515   9.862  37.671  11.090
 2289W        W67516  10.710   1.408  14.895
 2290W        W67517  33.043  25.599  13.365
 2291W        W67518  44.036  14.280  13.838
 2292W        W67519  15.584  30.188  14.254
 2293W        W67520  29.923  36.297  14.903
 2294W        W67521  38.423  39.990  10.994
 2295W        W67522  37.960  30.353  14.878
 2296W        W67523  36.650  23.155   1.808
 2297W        W67524  10.291  21.277  13.886
 2298W        W67525  40.742  22.695   2.683
 2299W        W67526  10.379  44.504   0.664
 2300W        W67527  11.938  42.253   3.634
 2301W        W67528  44.323   1.921  14.265
 2302W        W67529   9.836  13.373  14.317
 2303W        W67530  18.036   0.694   0.008
 2304W        W67531   4.740   0.358  14.883
 2305W        W67532  21.575  12.468  11.115
 2306W        W67533  21.972  32.060  10.790
 2307W        W67534  21.096  37.773   9.938
 2308W        W67535  22.534  38.113   3.214
 2309W        W67536  37.179  38.579  14.218
 2310W        W67537  38.440  43.162  14.291
 2311W        W67538   0.891  15.375   4.580
 2312W        W67539  30.172  11.128   1.263
 2313W        W67540  18.170  32.987   4.867
 2314W        W67541  24.951  14.264  11.978
 2315W        W67542   0.408  13.167   0.084
 2316W        W67543   2.631  34.816   2.492
 2317W        W67544  23.113  41.583   2.861
 2318W        W67545  35.687  27.440  11.297
 2319W        W67546   5.958  31.419  13.400
 2320W        W67547  30.134   7.344  11.013
 2321W        W67548  28.867   6.269  14.824
 2322W        W67549  40.175  16.449   2.328
 2323W        W67550  31.025  10.401   3.377
 2324W        W67551  18.826  13.031   0.341
 2325W        W67552  36.588  33.512   0.487
 2326W        W67553  17.822  42.420   1.496
 2327W        W67554  33.488  18.020   2.416
 2328W        W67555  44.349   8.611   2.783
 2329W        W67556  27.648   5.534  12.898
 2330W        W67557  22.194  10.950  11.660
 2331W        W67558  39.367  24.626  14.875
 2332W        W67559  27.065  31.208   4.440
 2333W        W67560  44.955  14.723  11.577
 2334W        W67561  26.202  40.043   0.750
 2335W        W67562  32.472   2.483   4.083
 2336W        W67563  43.908  28.983  11.290
 2337W        W67564  18.350  14.326   0.375
 2338W        W67565  11.385   9.845   1.894
 2339W        W67566  33.976  27.448  14.424
 2340W        W67567  33.917  38.590  12.581
 2341W        W67568   0.589  16.898   1.088
 2342W        W67569  36.892  41.577   3.926
 2343W        W67570   6.787  33.197   2.168
 2344W        W67571  22.943  20.817   2.358
 2345W        W67572  33.034   1.746  14.575
 2346W        W67573   9.318   6.519  12.510
 2347W        W67574  44.716  33.424  12.976
 2348W        W67575   4.174  31.227  14.329
 2349W        W67576   4.439   8.291  10.712
 2350W        W67577  10.345  34.621   0.429
 2351W        W67578  23.034   6.656  12.510
 2352W        W67579  25.226  22.272   5.170
 2353W        W67580   0.034  14.512  13.927
 2354W        W67581  29.500  39.422  12.999
 2355W        W67582   9.308  29.377  10.995
 2356W        W67583  32.956  28.709  12.471
 2357W        W67584   9.720   2.155  10.978
 2358W        W67585  43.069  18.596   3.512
 2359W        W67586  43.717  13.264   1.914
 2360W        W67587  33.478  25.307  13.331
 2361W        W67588  18.143  24.849  11.589
 2362W        W67589   7.859  10.639   2.342
 2363W        W67590  37.122  24.781   0.741
 2364W        W67591  30.496  40.015  13.185
 2365W        W67592  11.463   1.790   4.583
 2366W        W67593  19.172  29.508   4.689
 2367W        W67594  18.686  32.037  14.526
 2368W        W67595  27.446  37.506  11.139
 2369W        W67596  16.731  10.658  13.807
 2370W        W67597  38.289  17.927   3.614
 2371W        W67598   3.742  40.211  11.398
 2372W        W67599  39.113   6.882  13.087
 2373W        W67600  43.489  17.590   0.246
 2374W        W67601  18.515   1.875  11.330
 2375W        W67602  21.337   3.224  13.291
 2376W        W67603  18.371  17.580   4.517
 2377W        W67604  14.539  18.058  11.187
 2378W        W67605   8.025  15.061   2.735
 2379W        W67606  31.545  41.329   1.702
 2380W        W67607  40.351  13.192  12.192
 2381W        W67608  21.559  43.830  12.731
 2382W        W67609  20.067  40.356  13.906
 2383W        W67610  14.120   0.971  13.368
 2384W        W67611  20.950   6.268  12.120
 2385W        W67612   4.941  34.889  10.512
 2386W        W67613  27.197  16.216   4.070
 2387W        W67614  19.552  24.145   4.472
 2388W        W67615  16.815  28.648  14.463
 2389W        W67616  29.403  42.432   3.778
 2390W        W67617  38.546   3.258  14.654
 2391W        W67618  18.519   7.975  11.085
 2392W        W67619   1.944   0.165   4.438
 2393W        W67620  23.529  23.341   2.895
 2394W        W67621  30.627  41.114   0.987
 2395W        W67622  22.212  40.476   3.262
 2396W        W67623  11.431  42.299  12.615
 2397W        W67624  24.681   7.297  10.746
 2398W        W67625  24.182  19.049   0.409
 2399W        W67626  34.053   9.680  10.919
 2400W        W67627   3.638  35.178  12.981
 2401W        W67628   0.510  29.235   4.127
 2402W        W67629   2.984  27.954  14.614
 2403W        W67630   6.201   8.607  13.846
 2404W        W67631  29.246  42.947  10.640
 2405W        W67632  22.115   6.113   1.282
 2406W        W67633  33.171  34.480   1.902
 2407W        W67634  20.297  28.451   0.810
 2408W        W67635  14.899  22.134   2.378
 2409W        W67636   4.479  15.297  11.001
 2410W        W67637  35.877  20.631   1.353
 2411W        W67638  10.909   1.342  12.559
 2412W        W67639  21.779  10.400   4.204
 2413W        W67640  40.322  28.698   3.495
 2414W        W67641   6.092  26.243   1.135
 2415W        W67642  34.107  35.495   0.691
 2416W        W67643  19.292  18.821   1.054
 2417W        W67644  37.205   8.539  10.297
 2418W        W67645  36.014  36.876   0.388
 2419W        W67646   3.115   2.480  11.030
 2420W        W67647   7.568  11.289  11.922
 2421W        W67648  39.939   5.656   0.096
 2422W        W67649  15.461   9.670  11.266
 2423W        W67650  23.230  43.080   1.806
 2424W        W67651   8.348  24.533   1.956
 2425W        W67652  21.531  35.904  14.854
 2426W        W67653   3.543  31.631  12.481
 2427W        W67654  31.585  16.881   3.602
 2428W        W67655   6.532  41.325   1.943
 2429W        W67656  16.645  30.363  12.129
 2430W        W67657  38.327   0.997  14.889
 2431W        W67658  44.380  24.179   4.622
 2432W        W67659  23.630  12.970  10.767
 2433W        W67660  24.073   0.202   0.039
 2434W        W67661  35.591   3.633   1.689
 2435W        W67662  19.221  33.710  12.113
 2436W        W67663  29.854  33.777   1.841
 2437W        W67664  23.652  31.517  12.922
 2438W        W67665  18.068  25.005   0.548
 2439W        W67666  30.560  22.831  11.947
 2440W        W67667  33.929  21.406   1.237
 2441W        W67668  37.055  34.294   3.986
 2442W        W67669  14.806   8.940   0.744
 2443W        W67670  24.831  36.043   2.899
 2444W        W67671   2.528   5.680   2.160
 2445W        W67672  25.086  24.777  11.144
 2446W        W67673  41.226   8.409   4.316
 2447W        W67674  41.874  32.674   0.239
 2448W        W67675  14.139  36.771   1.424
 2449W        W67676  21.112  36.721   2.740
 2450W        W67677   2.907  35.102   4.354
 2451W        W67678  29.694  16.553   5.083
 2452W        W67679  20.710  13.561  14.834
 2453W        W67680  21.123  12.652  13.337
 2454W        W67681  21.573  16.389   2.275
 2455W        W67682  16.684  18.206  13.044
 2456W        W67683  42.778  29.481  12.783
 2457W        W67684   2.544   7.802  11.660
 2458W        W67685  23.153  32.086  12.578
 2459W        W67686  11.306  28.212   3.613
 2460W        W67687  13.773  17.836  14.735
 2461W        W67688  44.929  23.852   3.038
 2462W        W67689  22.553  23.142   4.240
 2463W        W67690  22.680  43.790  12.031
 2464W        W67691  28.834   4.892  14.234
 2465W        W67692   6.931  19.442  12.123
 2466W        W67693  43.600  16.017   1.897
 2467W        W67694  17.810  37.467  10.782
 2468W        W67695  31.210  20.735  12.436
 2469W        W67696  17.624  23.672  13.534
 2470W        W67697  18.676  12.520  12.081
 2471W        W67698  36.614  42.594   2.415
 2472W        W67699  10.786  19.094   1.708
 2473W        W67700  32.243  17.660   3.674
 2474W        W67701  21.619   1.835  10.220
 2475W        W67702  41.548  11.860   0.830
 2476W        W67703  10.404  27.056   2.481
 2477W        W67704  42.660  38.291  11.051
 2478W        W67705  14.854   2.323  13.660
 2479W        W67706  21.149  10.989   5.039
 2480W        W67707  35.177  10.639   2.743
 2481W        W67708  32.439   4.678   2.708
 2482W        W67709   6.236  44.704  10.362
 2483W        W67710  22.300  17.727   1.858
 2484W        W67711  13.894  26.412  11.483
 2485W        W67712  40.064  18.615  10.538
 2486W        W67713  27.842  18.218  13.111
 2487W        W67714  32.307  16.495  11.873
 2488W        W67715  41.575  10.279  13.131
 2489W        W67716  33.027  24.990  11.489
 2490W        W67717   4.341  24.611   1.290
 2491W        W67718  28.648  44.275   2.815
 2492W        W67719  26.453  20.074  14.153
 2493W        W67720  22.640  36.496   2.746
 2494W        W67721  35.483  38.574   3.824
 2495W        W67722   0.872  24.678   1.905
 2496W        W67723   4.165  13.174   2.645
 2497W        W67724  13.310  21.656   4.138
 2498W        W67725  23.774  29.143  14.498
 2499W        W67726  33.525  22.713  12.824
 2500W        W67727  34.914  22.595  12.469
 2501W        W67728  11.577  13.779  10.822
 2502W        W67729  40.496  19.702  10.952
 2503W        W67730  20.986  24.339   3.653
 2504W        W67731   3.580   8.372  13.560
 2505W        W67732  32.610  39.389   3.619
 2506W        W67733  30.782  20.446   1.930
 2507W        W67734  13.396   9.727   0.344
 2508W        W67735  38.400   2.306  11.120
 2509W        W67736   2.699  25.201   4.504
 2510W        W67737  27.758   4.409  14.661
 2511W        W67738  41.792  44.923   0.205
 2512W        W67739  20.781   4.697  13.301
 2513W        W67740  32.664  17.031  14.899
 2514W        W67741   7.462  18.143  12.317
 2515W        W67742   7.196   0.955  11.235
 2516W        W67743   3.718  19.519  11.143
 2517W        W67744  24.691  35.543   2.776
 2518W        W67745  28.726  21.027   1.492
 2519W        W67746  37.899  33.848  12.174
 2520W        W67747  24.958  43.115  10.678
 2521W        W67748   3.308   5.201  11.633
 2522W        W67749  37.139  29.446  11.645
 2523W        W67750  34.820  44.197   0.818
 2524W        W67751  41.878   8.289  14.298
 2525W        W67752  12.667  30.920  14.398
 2526W        W67753  19.562  31.622  13.042
 2527W        W67754  43.747  25.106   2.728
 2528W        W67755  25.438  12.639   1.807
 2529W        W67756  30.460  29.191   1.231
 2530W        W67757  18.247  38.416   1.221
 2531W        W67758  18.760  15.785   3.333
 2532W        W67759  20.325  14.877  14.076
 2533W        W67760   9.640   4.386   2.861
 2534W        W67761   2.937   7.603   4.658
 2535W        W67762  15.681  37.562   2.320
 2536W        W67763   2.385  41.360  11.611
 2537W        W67764  14.266  35.414   4.086
 2538W        W67765  25.402  31.108  13.500
 2539W        W67766  30.079  43.875   1.583
 2540W        W67767  38.527  28.641  14.027
 2541W        W67768   9.147  12.582  10.126
 2542W        W67769  11.378  27.030  13.746
 2543W        W67770  31.113  15.758   3.201
 2544W        W67771  32.312  37.438   3.605
 2545W        W67772  12.570  17.637  10.748
 2546W        W67773  18.984  12.167   2.823
 2547W        W67774  33.940  42.597   1.310
 2548W        W67775  21.733  18.965   1.265
 2549W        W67776  19.822  23.704  13.951
 2550W        W67777  42.799  37.051  12.995
 2551W        W67778   3.726  10.874  13.058
 2552W        W67779  42.374  18.165   3.367
 2553W        W67780   5.961  26.017   1.604
 2554W        W67781  23.161   6.680   3.142
 2555W        W67782  35.993  19.268   3.314
 2556W        W67783  26.744  39.556  14.030
 2557W        W67784   8.391  42.093  14.317
 2558W        W67785  25.300  39.827   0.413
 2559W        W67786  35.719  25.452  14.777
 2560W        W67787  40.029  14.152   4.690
 2561W        W67788  24.353   7.910   2.954
 2562W        W67789  31.140  43.737  11.171
 2563W        W67790  13.110  20.527  13.406
 2564W        W67791  44.816  43.421  14.423
 2565W        W67792  33.342   0.971  11.202
 2566W        W67793  40.959  30.488   3.753
 2567W        W67794  21.617  24.332   4.790
 2568W        W67795   7.426   7.631   2.916
 2569W        W67796  44.259   0.520  11.127
 2570W        W67797  42.648   8.288  13.830
 2571W        W67798   9.123  22.829  12.058
 2572W        W67799   0.267  44.322  12.987
 2573W        W67800  23.537  23.244  13.458
 2574W        W67801  19.723   3.028  10.813
 2575W        W67802  22.160  16.265  13.586
 2576W        W67803   3.718  35.354   0.400
 2577W        W67804  11.728   9.195   1.341
 2578W        W67805  38.136  21.500   1.895
 2579W        W67806   8.756  30.737  13.410
 2580W        W67807   5.119  32.600   3.071
 2581W        W67808  27.597  43.537   1.169
 2582W        W67809  44.508  15.100  14.335
 2583W        W67810   4.765  42.475   1.558
 2584W        W67811  29.092  18.294   2.415
 2585W        W67812  14.111  37.020   3.373
 2586W        W67813  41.057  17.275   5.066
 2587W        W67814  37.621  12.129  11.670
 2588W        W67815  34.120  28.234   4.677
 2589W        W67816  15.655  40.515   4.024
 2590W        W67817  35.040  40.729   3.695
 2591W        W67818  35.952  26.618  12.510
 2592W        W67819  17.305   6.418   0.543
 2593W        W67820  40.878   3.999   2.618
 2594W        W67821  43.653  30.572  13.480
 2595W        W67822  24.056  31.256  11.444
 2596W        W67823  40.630  17.067   2.830
 2597W        W67824   5.318   2.757  10.985
 2598W        W67825   4.570  33.387   4.055
 2599W        W67826  18.038  12.764   3.257
 2600W        W67827  26.131   7.873  14.326
 2601W        W67828   7.957  13.997  10.243
 2602W        W67829  28.164  25.423  14.741
 2603W        W67830  36.004  10.704  10.726
 2604W        W67831  42.768  22.134  11.588
 2605W        W67832  25.628  19.011  13.881
 2606W        W67833  36.197  14.855  11.275
 2607W        W67834   9.294   8.369  10.554
 2608W        W67835  19.340  28.475  13.361
 2609W        W67836   1.372  40.163   0.736
 2610W        W67837  10.416  11.521   4.590
 2611W        W67838  39.106  27.483  11.660
 2612W        W67839  14.866  31.625  14.829
 2613W        W67840  20.240  44.459  13.502
 2614W        W67841  10.414  32.062   2.622
 2615W        W67842  25.070   5.801  13.973
 2616W        W67843  41.218  22.183  10.605
 2617W        W67844  28.006  33.448  14.588
 2618W        W67845  43.286   1.931   1.449
 2619W        W67846   2.181  24.480  13.984
 2620W        W67847  26.594  26.700   3.093
 2621W        W67848   8.582  29.913  12.400
 2622W        W67849   6.742  22.257  13.092
 2623W        W67850  21.038  13.892  12.590
 2624W        W67851   4.191  33.505   1.873
 2625W        W67852  15.887   6.269   3.181
 2626W        W67853  16.633  14.843  12.024
 2627W        W67854  26.364  23.114  11.002
 2628W        W67855  21.247   8.912  13.999
 2629W        W67856  25.963   1.233   3.214
 2630W        W67857  20.744  35.559   2.198
 2631W        W67858  43.545  37.843   2.778
 2632W        W67859  16.675   5.287  13.959
 2633W        W67860  12.570  20.347  10.713
 2634W        W67861  17.804  10.723  12.569
 2635W        W67862  10.058  34.568   4.669
 2636W        W67863  36.078  24.605  13.292
 2637W        W67864  11.786  15.230   0.257
 2638W        W67865  24.151  22.079  11.665
 2639W        W67866  10.584  32.357  12.085
 2640W        W67867  10.142  14.793  13.986
 2641W        W67868   2.756  11.792   1.528
 2642W        W67869  25.419   8.047  12.487
 2643W        W67870  15.351  40.065  14.784
 2644W        W67871  44.051   4.862  10.035
 2645W        W67872  30.399  36.597   0.830
 2646W        W67873  33.592  22.944   2.844
 2647W        W67874  17.614   9.642   4.674
 2648W        W67875  40.056  34.118   0.990
 2649W        W67876  37.785  18.081   3.591
 2650W        W67877  25.420   0.219  11.726
 2651W        W67878  22.097  15.567  11.560
 2652W        W67879  28.128  22.980   1.319
 2653W        W67880  37.543  17.221   3.657
 2654W        W67881  25.161  44.566   0.725
 2655W        W67882  35.402  40.888   2.910
 2656W        W67883  22.518  35.991   3.291
 2657W        W67884  30.107  27.163   1.720
 2658W        W67885   0.291   2.965  14.300
 2659W        W67886  33.316   6.875   3.635
 2660W        W67887  24.531   0.491  14.924
 2661W        W67888  41.337  39.393  12.355
 2662W        W67889  32.513  10.700  12.143
 2663W        W67890  25.418   2.779   1.867
 2664W        W67891   1.890   6.877  10.398
 2665W        W67892  22.196  40.025   1.292
 2666W        W67893  11.462  25.932   0.027
 2667W        W67894  12.274   9.615  11.728
 2668W        W67895  38.871  12.750  14.493
 2669W        W67896  15.667  20.673   3.788
 2670W        W67897  26.656  25.158   3.590
 2671W        W67898   3.814   1.109  14.740
 2672W        W67899  34.395   0.762   3.423
 2673W        W67900  26.622  23.830  14.774
 2674W        W67901   8.749  28.626   4.000
 2675W        W67902  19.029   4.726  14.814
 2676W        W67903  14.264  20.422   2.200
 2677W        W67904  14.644  31.993   3.534
 2678W        W67905  16.668  44.670  10.656
 2679W        W67906  15.234  41.467   4.678
 2680W        W67907   5.884   1.258  11.793
 2681W        W67908  34.321   7.563   1.620
 2682W        W67909  34.131   9.492  14.433
 2683W        W67910  42.782   3.669  14.838
 2684W        W67911  33.615   1.048  12.532
 2685W        W67912  25.223  11.150  13.422
 2686W        W67913   6.398  22.468   1.628
 2687W        W67914   2.243  21.116  11.271
 2688W        W67915  32.186  28.023  14.861
 2689W        W67916  35.238   6.112   3.361
 2690W        W67917  31.614  23.491   4.127
 2691W        W67918  18.929  43.665   2.925
 2692W        W67919  30.782   3.252   4.490
 2693W        W67920  34.229  35.921  13.915
 2694W        W67921   4.010  14.507  11.273
 2695W        W67922   1.840  13.813  12.799
 2696W        W67923  16.261  33.430  10.334
 2697W        W67924  30.654  24.652   4.162
 2698W        W67925  20.699  11.407  11.924
 2699W        W67926  37.811  13.633   1.716
 2700W        W67927  10.333  41.228   2.886
 2701W        W67928   4.372  28.128   2.165
 2702W        W67929  20.090  17.999   4.851
 2703W        W67930   7.496  25.070   1.871
 2704W        W67931  33.193   4.073  10.968
 2705W        W67932   7.196  33.707   1.840
 2706W        W67933  37.144   9.922   4.135
 2707W        W67934  22.063  14.575   1.832
 2708W        W67935  16.533  25.080  11.122
 2709W        W67936  42.952   0.098  12.401
 2710W        W67937  22.643  18.649  10.728
 2711W        W67938  21.148  38.668   4.535
 2712W        W67939  41.504   4.114   3.737
 2713W        W67940  36.361  24.746  11.837
 2714W        W67941  19.761   7.305  11.943
 2715W        W67942  16.256   8.966  11.778
 2716W        W67943  40.986  21.821  11.776
 2717W        W67944  36.473  35.172   1.937
 2718W        W67945  20.106  18.363  14.331
 2719W        W67946  26.833  39.013  13.960
 2720W        W67947  26.443  21.427  10.393
 2721W        W67948  30.612   5.898  14.355
 2722W        W67949   8.828   2.817  12.149
 2723W        W67950   0.959  32.238   5.459
 2724W        W67951  28.691   3.732  11.456
 2725W        W67952  12.332  36.600   0.491
 2726W        W67953  27.091  38.269   0.216
 2727W        W67954  18.353  17.312  13.068
 2728W        W67955  24.088   0.157   0.764
 2729W        W67956   1.016  18.395  13.182
 2730W        W67957  27.969  21.793   0.605
 2731W        W67958  42.459  22.902  11.381
 2732W        W67959  44.293  30.088  11.477
 2733W        W67960  36.304   7.120   0.502
 2734W        W67961   7.860  15.267  12.078
 2735W        W67962  17.866  22.482  11.518
 2736W        W67963  24.251  13.352  11.590
 2737W        W67964  35.468  29.644   3.354
 2738W        W67965  15.173  39.779   0.821
 2739W        W67966   9.637  36.836  14.869
 2740W        W67967   9.708   9.876   1.264
 2741W        W67968  20.852   7.306  12.895
 2742W        W67969  18.994  38.424   3.088
 2743W        W67970   9.204  26.032   2.757
 2744W        W67971  33.674   5.383  13.409
 2745W        W67972  13.099  35.547  10.552
 2746W        W67973   6.559   1.834  11.988
 2747W        W67974  22.951  31.173  14.954
 2748W        W67975  40.302  43.146  13.355
 2749W        W67976  15.058  24.545  12.322
 2750W        W67977   1.393   0.744   1.446
 2751W        W67978  44.863  28.707   4.732
 2752W        W67979  25.391  33.665   2.325
 2753W        W67980  28.131  23.564  12.947
 2754W        W67981  28.101  19.847  12.055
 2755W        W67982  17.572  39.589   4.564
 2756W        W67983   9.411  14.454  12.179
 2757W        W67984   9.007  30.130   0.858
 2758W        W67985  17.509   2.284   0.775
 2759W        W67986   0.492  29.506   3.268
 2760W        W67987  23.545  40.997  13.308
 2761W        W67988   7.328  19.337  13.317
 2762W        W67989  38.883  33.155   4.790
 2763W        W67990   9.860  25.190  12.014
 2764W        W67991   8.734  10.789   1.366
 2765W        W67992  30.885  18.610   2.400
 2766W        W67993  20.774  18.808   5.052
 2767W        W67994   3.155  14.535  10.868
 2768W        W67995  10.421  13.402   1.288
 2769W        W67996  18.861  37.846   3.676
 2770W        W67997   3.435  38.050  10.721
 2771W        W67998  37.948  11.675  12.866
 2772W        W67999  13.993  10.577  13.505
 2773W        W68000  20.791   5.791  11.175
 2774W        W68001   2.332  25.500  13.924
 2775W        W68002  20.863  36.906  13.349
 2776W        W68003   3.918  25.289  12.804
 2777W        W68004  35.980  33.410  12.658
 2778W        W68005  24.860  41.687  14.749
 2779W        W68006  32.455   9.392  13.888
 2780W        W68007  26.216  13.329   2.431
 2781W        W68008  40.642  21.313   1.412
 2782W        W68009  13.885  31.072  13.886
 2783W        W68010  36.456  34.112   3.417
 2784W        W68011  10.543  34.168   0.248
 2785W        W68012  32.408  20.848   2.746
 2786W        W68013  23.612   7.271  12.578
 2787W        W68014   9.922  15.648  13.465
 2788W        W68015   5.704  25.326  11.075
 2789W        W68016  20.822   5.186   0.289
 2790W        W68017   7.899  43.119   3.323
 2791W        W68018  31.428  35.707  13.211
 2792W        W68019  42.303  13.586  14.046
 2793W        W68020   8.575  14.630  13.234
 2794W        W68021   1.464  16.168  13.797
 2795W        W68022  39.262  35.313   0.052
 2796W        W68023  33.474  12.833  12.607
 2797W        W68024  10.661  28.734   0.306
 2798W        W68025   4.942  33.145   2.688
 2799W        W68026   5.209   9.391  13.841
 2800W        W68027  20.131  16.613   0.927
 2801W        W68028   5.608  15.019   0.788
 2802W        W68029  18.389  32.634   4.142
 2803W        W68030  44.002  11.118  13.227
 2804W        W68031  33.499  36.225  12.592
 2805W        W68032  28.026   7.802  12.598
 2806W        W68033  30.771  33.542  12.977
 2807W        W68034  16.058  15.188   1.607
 2808W        W68035  15.710  18.114  13.053
 2809W        W68036  20.799  43.324   4.191
 2810W        W68037  14.670  30.053  14.015
 2811W        W68038  35.942  25.149   3.095
 2812W        W68039  15.374  42.601   2.371
 2813W        W68040  42.806  41.859   4.911
 2814W        W68041  13.869  23.547   1.430
 2815W        W68042  22.124  28.458   1.463
 2816W        W68043  18.335  42.619  14.440
 2817W        W68044  23.198  19.546   1.228
 2818W        W68045  27.361  19.861  11.117
 2819W        W68046  35.112   4.756  13.416
 2820W        W68047  41.172  44.842   1.505
 2821W        W68048  29.957  10.355  11.453
 2822W        W68049  23.439  24.961   3.456
 2823W        W68050  31.608  24.586  14.742
 2824W        W68051  44.203  38.875   3.079
 2825W        W68052  31.173  18.583  10.737
 2826W        W68053  33.872   1.489  12.428
 2827W        W68054  32.973  23.562   0.434
 2828W        W68055  36.098   3.320  14.787
 2829W        W68056  22.439  18.847   4.185
 2830W        W68057  41.927  39.467  14.491
 2831W        W68058  37.468  10.311  11.703
 2832W        W68059  26.684   3.813  13.429
 2833W        W68060  33.196  38.041  12.467
 2834W        W68061   0.090  14.194   1.796
 2835W        W68062  37.337  25.926  13.312
 2836W        W68063  43.947  30.008   3.912
 2837W        W68064  43.330  10.113  12.822
 2838W        W68065  36.802  41.098   3.733
 2839W        W68066   7.442   8.319   2.564
 2840W        W68067  26.587   1.904   5.039
 2841W        W68068   8.126  10.785  14.405
 2842W        W68069  21.159   3.040   2.567
 2843W        W68070  22.665  43.314   2.404
 2844W        W68071  30.882  10.133   0.740
 2845W        W68072  41.477  22.840   2.069
 2846W        W68073  30.167  17.089   1.051
 2847W        W68074   7.424  20.345   4.503
 2848W        W68075  40.096  11.401   0.932
 2849W        W68076  27.478  24.992   1.258
 2850W        W68077  24.940  16.520  12.083
 2851W        W68078  30.819   2.339   2.195
 2852W        W68079  43.495   4.801   2.803
 2853W        W68080  32.975  11.157   2.687
 2854W        W68081  24.041   8.226  11.673
 2855W        W68082  29.070  19.588   0.012
 2856W        W68083  38.486  14.033  14.242
 2857W        W68084  17.804  42.259   2.321
 2858W        W68085  31.449  17.532   3.075
 2859W        W68086  35.683  23.492  13.492
 2860W        W68087   0.846  25.028  12.951
 2861W        W68088  36.268   0.935   5.027
 2862W        W68089  34.859   6.183   2.183
 2863W        W68090  27.305   1.489  14.388
 2864W        W68091   2.190  25.663  12.157
 2865W        W68092  38.366  17.091   3.238
 2866W        W68093   7.785   0.402  13.192
 2867W        W68094  38.022   6.961   2.754
 2868W        W68095   8.402  14.589   5.120
 2869W        W68096  27.576  17.009   4.291
 2870W        W68097  26.547  42.092  12.449
 2871W        W68098  42.281  33.859   3.049
 2872W        W68099  43.003  25.965  14.573
 2873W        W68100   7.987  43.351  12.962
 2874W        W68101  23.597   8.445  10.803
 2875W        W68102  27.716  34.879   2.029
 2876W        W68103  22.198  27.466  13.767
 2877W        W68104  25.459  27.697   4.190
 2878W        W68105  43.755   0.283  11.628
 2879W        W68106   3.213   4.209  12.481
 2880W        W68107  24.731  11.967  13.385
 2881W        W68108  12.789   2.298  13.522
 2882W        W68109  12.479  30.314   0.834
 2883W        W68110  23.731  22.965   3.739
 2884W        W68111  24.103  38.743   3.182
 2885W        W68112  14.753  38.091  11.616
 2886W        W68113  11.030  39.897  14.662
 2887W        W68114  20.048  17.128  13.923
 2888W        W68115  25.516   8.628   4.936
 2889W        W68116  26.970  33.995   1.877
 2890W        W68117  15.625  19.774   2.408
 2891W        W68118  42.254  15.798   2.814
 2892W        W68119  31.952   2.656  13.354
 2893W        W68120   8.712   8.665   2.233
 2894W        W68121  15.031  42.880  12.613
 2895W        W68122   4.302  41.314  12.431
 2896W        W68123  31.653  12.777   2.369
 2897W        W68124  35.150  35.084   2.344
 2898W        W68125  13.819  17.575   2.811
 2899W        W68126  32.900  24.219   4.136
 2900W        W68127  32.816  13.860   1.791
 2901W        W68128  35.362   0.669  10.722
 2902W        W68129   3.865   7.263   4.949
 2903W        W68130   1.477  10.245   4.682
 2904W        W68131  44.869  25.852  10.814
 2905W        W68132  10.306   2.201   3.679
 2906W        W68133  31.607  29.148   2.759
 2907W        W68134  11.789  39.490   4.763
 2908W        W68135  19.292  20.691   0.327
 2909W        W68136   9.866   9.573  14.978
 2910W        W68137  10.316  30.065  12.444
 2911W        W68138  38.210   3.615  14.485
 2912W        W68139  34.307  42.505  11.433
 2913W        W68140  17.989  12.230   0.270
 2914W        W68141   6.427  33.042   3.937
 2915W        W68142  19.308   5.122   0.511
 2916W        W68143  36.955   6.730  12.593
 2917W        W68144  16.338  26.527   4.305
 2918W        W68145  15.547  27.577   1.351
 2919W        W68146  31.862  20.596   0.872
 2920W        W68147   8.678  29.285  14.490
 2921W        W68148  43.904  23.738  14.395
 2922W        W68149   6.217  34.949  14.355
 2923W        W68150  30.694  29.543   0.316
 2924W        W68151   7.342  35.033   1.501
 2925W        W68152  33.550  35.691  12.856
 2926W        W68153  23.541  34.532  12.008
 2927W        W68154  34.153  28.469   3.276
 2928W        W68155  28.548   8.394   0.146
 2929W        W68156   7.186  12.924   4.407
 2930W        W68157  38.403  43.301   1.781
 2931W        W68158  37.328  13.681   0.531
 2932W        W68159  27.287  23.109   2.951
 2933W        W68160  11.355  21.157   4.513
 2934W        W68161  21.028  11.528   0.287
 2935W        W68162  36.619  16.495  14.837
 2936W        W68163  33.838  32.055  13.824
 2937W        W68164  28.580  22.706   0.946
 2938W        W68165   2.823   8.445   0.355
 2939W        W68166  28.115  29.726  12.726
 2940W        W68167  13.323  40.828   2.808
 2941W        W68168  13.721  35.303  13.150
 2942W        W68169  33.819  35.924   0.633
 2943W        W68170  12.854  28.132  14.348
 2944W        W68171  30.129   2.985  13.108
 2945W        W68172  31.626  27.069   2.063
 2946W        W68173  29.408  23.211   4.209
 2947W        W68174  29.257   8.839   3.716
 2948W        W68175   0.877  33.851   1.277
 2949W        W68176  32.026  34.133   1.209
 2950W        W68177  17.990  18.980  11.173
 2951W        W68178  12.782  18.347   4.349
 2952W        W68179  34.808  37.350  12.041
 2953W        W68180  30.194  28.694   4.127
 2954W        W68181  23.749  30.348   0.026
 2955W        W68182  16.134  42.575  13.226
 2956W        W68183   0.351  38.916  12.235
 2957W        W68184  19.769  36.851   1.951
 2958W        W68185  29.404  12.262   2.612
 2959W        W68186   3.258   0.001  12.478
 2960W        W68187   0.728  36.621   0.079
 2961W        W68188  29.999  14.277  13.992
 2962W        W68189  32.113   0.433   3.117
 2963W        W68190  19.015  33.205   3.185
 2964W        W68191  33.338  34.247   0.289
 2965W        W68192  27.535  43.798   2.781
 2966W        W68193  22.808  21.194   2.784
 2967W        W68194  24.980  25.142   0.802
 2968W        W68195  11.847   5.213  14.944
 2969W        W68196   2.997  36.079   0.350
 2970W        W68197  41.964  18.350   0.872
 2971W        W68198  29.379  17.476  12.514
 2972W        W68199  29.012  38.112  14.546
 2973W        W68200  13.593  24.722  11.779
 2974W        W68201  35.834  43.234   2.297
 2975W        W68202  29.412  43.413   2.374
 2976W        W68203   6.390   4.836   1.404
 2977W        W68204   2.105  24.664   4.224
 2978W        W68205  22.878  29.981  14.895
 2979W        W68206   6.922   7.938   1.889
 2980W        W68207  35.580  11.086  11.887
 2981W        W68208  13.645   9.113   3.258
 2982W        W68209  36.400  35.433   3.710
 2983W        W68210  42.848   2.509  13.049
 2984W        W68211   0.204   4.247   2.737
 2985W        W68212  24.758  35.880   3.741
 2986W        W68213   6.347  36.859  13.830
 2987W        W68214  12.087  24.156   0.143
 2988W        W68215   1.175  26.219  12.305
 2989W        W68216  29.183  24.031  11.136
 2990W        W68217  36.320   2.310  13.678
 2991W        W68218  10.215  31.466   3.993
 2992W        W68219  39.783  23.237  12.555
 2993W        W68220  39.498   5.746  13.085
 2994W        W68221   4.206  32.413   4.185
 2995W        W68222  22.971   0.710   0.300
 2996W        W68223  38.353  29.117   1.283
 2997W        W68224  43.079  43.933   3.635
 2998W        W68225  28.781  40.182   3.231
 2999W        W68226   2.666  25.125   2.751
 3000W        W68227   0.279   1.736  12.637
 3001W        W68228   8.684  26.917   2.280
 3002W        W68229  33.411  22.608  14.304
 3003W        W68230  39.916  42.114   2.096
 3004W        W68231   9.241  38.885  12.047
 3005W        W68232   8.966  24.904   1.008
 3006W        W68233   0.273  29.675  12.168
 3007W        W68234  17.583  44.081   2.831
 3008W        W68235   9.376  38.386   4.696
 3009W        W68236   8.937  15.576   2.260
 3010W        W68237  35.621  26.915  14.850
 3011W        W68238  43.217  11.247  14.066
 3012W        W68239  19.415  12.017   3.048
 3013W        W68240  38.102  13.110  14.316
 3014W        W68241  39.942  41.054  14.914
 3015W        W68242  33.505  28.007  10.017
 3016W        W68243   9.255  29.011  10.598
 3017W        W68244   5.006  35.333  11.966
 3018W        W68245  35.502  19.217   4.547
 3019W        W68246  44.103  29.696   2.268
 3020W        W68247  28.700  37.063   5.389
 3021W        W68248   7.921  26.654  14.314
 3022W        W68249  29.411  34.578  14.947
 3023W        W68250   4.344  41.880   1.650
 3024W        W68251  28.582   9.650  13.059
 3025W        W68252  39.018   8.702  13.433
 3026W        W68253  17.066  19.023  11.131
 3027W        W68254  13.849  38.748   3.644
 3028W        W68255  17.718  22.624  14.052
 3029W        W68256  41.048  23.040   2.264
 3030W        W68257  24.123   2.753  14.888
 3031W        W68258  13.423  22.672  10.736
 3032W        W68259  14.843  10.344  12.515
 3033W        W68260   3.020  15.778  12.851
 3034W        W68261  14.759  39.377   1.778
 3035W        W68262  18.205  25.646  11.999
 3036W        W68263   2.027  26.017   0.409
 3037W        W68264  19.169  19.260  13.797
 3038W        W68265  15.819   9.632  13.754
 3039W        W68266  42.491  30.744   2.405
 3040W        W68267  22.172  21.116  13.938
 3041W        W68268  35.645  12.651  13.894
 3042W        W68269  15.497  37.170   3.599
 3043W        W68270  42.216   7.804   3.280
 3044W        W68271  30.224  19.165  11.260
 3045W        W68272  36.958   7.228  13.554
 3046W        W68273  26.962  10.190  14.832
 3047W        W68274  14.161  33.470   2.790
 3048W        W68275  36.368  29.797   2.891
 3049W        W68276   0.300  12.681  12.462
 3050W        W68277  34.760  30.133  11.933
 3051W        W68278  41.049  21.681   4.681
 3052W        W68279  44.649  26.966   3.747
 3053W        W68280  18.302  13.205  11.454
 3054W        W68281  27.470  44.874  11.090
 3055W        W68282   4.201   6.193  12.274
 3056W        W68283   5.682   1.691   4.583
 3057W        W68284  43.824  14.760  12.022
 3058W        W68285  19.793   0.846  10.955
 3059W        W68286  24.489  30.965  11.587
 3060W        W68287  12.950  11.813   0.730
 3061W        W68288  37.669   2.341  13.706
 3062W        W68289  31.032  19.286  10.452
 3063W        W68290   5.302  11.799   1.344
 3064W        W68291  15.022  43.479  13.464
 3065W        W68292   8.880  32.107   2.863
 3066W        W68293  26.955  26.924  14.010
 3067W        W68294   9.246  23.365   0.802
 3068W        W68295  33.979   1.904  13.996
 3069W        W68296  30.098  21.103   1.693
 3070W        W68297  13.900  37.867   1.397
 3071W        W68298  21.447   2.403  13.946
 3072W        W68299  20.696  39.434   4.690
 3073W        W68300  10.906  40.402  12.089
 3074W        W68301  24.648  25.479   3.225
 3075W        W68302  11.404  23.314   4.143
 3076W        W68303  28.026  33.725   4.584
 3077W        W68304  44.750  44.473  14.454
 3078W        W68305   3.824  19.695  13.669
 3079W        W68306   5.222   5.531   1.004
 3080W        W68307  34.004  11.064   3.693
 3081W        W68308   5.943  17.950  12.465
 3082W        W68309  38.087   3.727   1.145
 3083W        W68310  24.505  34.735  12.498
 3084W        W68311  19.922  19.083  13.367
 3085W        W68312  21.746  30.862  11.187
 3086W        W68313  37.851  44.357   0.150
 3087W        W68314  28.921  10.743   2.792
 3088W        W68315   6.378  14.353   2.325
 3089W        W68316  25.696  34.466   0.828
 3090W        W68317  39.578  37.482  10.545
 3091W        W68318  26.556  39.501  10.659
 3092W        W68319  41.998   0.712  12.153
 3093W        W68320  10.045  23.039  11.530
 3094W        W68321  34.913  23.896  13.387
 3095W        W68322  20.026   3.164  13.329
 3096W        W68323   8.961   8.290  11.278
 3097W        W68324   3.972  40.033   4.070
 3098W        W68325  30.204  33.489  11.201
 3099W        W68326  14.570  23.615  11.230
 3100W        W68327  24.726  15.148   3.935
 3101W        W68328   8.836  41.692   0.932
 3102W        W68329  25.059  28.892  14.222
 3103W        W68330  25.165  44.830  14.213
 3104W        W68331  36.568   3.083  12.423
 3105W        W68332  41.820   0.429  14.133
 3106W        W68333  37.612  39.909   3.659
 3107W        W68334  11.854  22.921   3.305
 3108W        W68335  41.266  36.339  12.381
 3109W        W68336  35.547  29.407  12.877
 3110W        W68337  32.552  13.744   0.765
 3111W        W68338  25.973  28.914  11.077
 3112W        W68339   4.703  20.819   3.902
 3113W        W68340  17.561  22.723   3.439
 3114W        W68341   5.254  19.649   4.849
 3115W        W68342  34.673  30.077   1.770
 3116W        W68343  15.661  19.028   1.035
 3117W        W68344  22.925  19.997  14.775
 3118W        W68345   7.790  36.824   3.769
 3119W        W68346  17.317  41.228   2.316
 3120W        W68347  30.144  16.826   2.863
 3121W        W68348   8.424   0.190  13.904
 3122W        W68349  28.598  17.858  10.986
 3123W        W68350  12.267  11.115   2.846
 3124W        W68351  28.476  34.962   4.101
 3125W        W68352  16.035   3.273   0.413
 3126W        W68353  31.001  37.070   2.174
 3127W        W68354  23.182  38.711   2.208
 3128W        W68355  12.168  35.402  14.521
 3129W        W68356   9.255   5.050   1.739
 3130W        W68357   9.929  39.317   4.812
 3131W        W68358  19.209   6.253   0.927
 3132W        W68359  34.833  39.299  13.942
 3133W        W68360  39.123  24.753   3.643
 3134W        W68361  20.271  25.559   0.805
 3135W        W68362   3.115   0.822   0.201
 3136W        W68363  26.014  25.357  11.138
 3137W        W68364   3.718  43.727   3.082
 3138W        W68365   1.257  35.909   3.715
 3139W        W68366  10.884  15.728   2.203
 3140W        W68367  38.832  24.703  11.179
 3141W        W68368  33.904  13.824  14.339
 3142W        W68369  19.666  27.767  11.962
 3143W        W68370  20.127  26.445   1.814
 3144W        W68371  17.889  42.023  11.950
 3145W        W68372  43.558  32.262   3.651
 3146W        W68373  12.194   3.813  10.737
 3147W        W68374  18.537  26.088  11.858
 3148W        W68375  15.238  28.218  11.613
 3149W        W68376  23.624  34.518   4.534
 3150W        W68377  15.149  21.301   1.863
 3151W        W68378   2.908  17.095   1.875
 3152W        W68379  11.307  14.590  10.408
 3153W        W68380  14.888  13.575  14.890
 3154W        W68381   3.245   9.080   5.066
 3155W        W68382  20.048  31.558  14.782
 3156W        W68383  26.416  38.593  12.690
 3157W        W68384  26.696  11.746   2.837
 3158W        W68385  38.927   4.248  11.524
 3159W        W68386  40.143  42.262   0.226
 3160W        W68387  43.383  28.466   3.453
 3161W        W68388  13.738   3.847   0.862
 3162W        W68389  34.328  20.504  11.553
 3163W        W68390  40.709  17.138   1.891
 3164W        W68391  38.407  18.830   2.783
 3165W        W68392  16.048   7.388  13.771
 3166W        W68393   8.161  42.572  12.316
 3167W        W68394   9.198  41.912  12.376
 3168W        W68395  19.023  38.122  11.222
 3169W        W68396  36.606  36.346   3.721
 3170W        W68397  22.559  27.297   0.904
 3171W        W68398  15.769  35.060   5.150
 3172W        W68399  14.206   9.738  13.120
 3173W        W68400  41.042  15.214   3.386
 3174W        W68401   2.530  35.422  13.925
 3175W        W68402  20.082  33.040   0.096
 3176W        W68403   7.913   8.127  12.079
 3177W        W68404  27.696  26.891   3.229
 3178W        W68405  12.378   6.780   1.948
 3179W        W68406   3.256   9.923  14.787
 3180W        W68407  27.482   5.905   4.129
 3181W        W68408  11.453  22.674   3.071
 3182W        W68409  31.410  24.808   0.748
 3183W        W68410  39.885  41.920   4.627
 3184W        W68411  17.373  30.923  12.474
 3185W        W68412  13.170  33.148  12.892
 3186W        W68413  36.904  18.059  10.937
 3187W        W68414  30.134  36.398  14.422
 3188W        W68415  19.792   1.202  12.125
 3189W        W68416  16.362  36.133  12.066
 3190W        W68417   4.627   9.635   5.084
 3191W        W68418  41.051   1.410  10.766
 3192W        W68419  22.008  38.082  11.202
 3193W        W68420   6.267  39.465  13.257
 3194W        W68421   4.258  37.796   4.645
 3195W        W68422  22.602   8.226  14.820
 3196W        W68423   2.178  18.589  12.551
 3197W        W68424  10.148   1.565   2.244
 3198W        W68425  34.872  26.673   2.274
 3199W        W68426  12.721   8.783  11.649
 3200W        W68427  25.123  17.868   2.478
 3201W        W68428  18.045  28.481  12.787
 3202W        W68429  44.850  37.498  11.209
 3203W        W68430  11.411  25.149   3.276
 3204W        W68431  37.833  31.372  11.163
 3205W        W68432   7.436  30.125  11.630
 3206W        W68433  39.357  43.972  13.598
 3207W        W68434  42.981   7.791  12.306
 3208W        W68435  35.687  40.298  13.009
 3209W        W68436  44.708  29.924   1.447
 3210W        W68437  21.172  38.144   4.542
 3211W        W68438  15.236  18.057  14.359
 3212W        W68439  12.917   4.650   3.779
 3213W        W68440   6.594  27.944   2.964
 3214W        W68441  32.835  39.427  12.865
 3215W        W68442  37.997  41.981   0.469
 3216W        W68443  31.695  34.717  12.310
 3217W        W68444  11.530  34.220   0.886
 3218W        W68445  13.455  35.711   1.842
 3219W        W68446   0.306  15.408   0.819
 3220W        W68447  34.880  22.311  10.558
 3221W        W68448  38.719  15.805  14.490
 3222W        W68449  11.849  18.050  14.829
 3223W        W68450  22.001  15.294  14.051
 3224W        W68451  18.025  27.664   0.364
 3225W        W68452  21.388   5.286   4.534
 3226W        W68453  27.181  16.637  12.425
 3227W        W68454  38.465  42.998   4.653
 3228W        W68455   4.313  32.861  10.716
 3229W        W68456   1.499  35.000  14.634
 3230W        W68457  13.684  10.104   1.208
 3231W        W68458  10.466   4.871  14.546
 3232W        W68459  38.053  24.582   3.332
 3233W        W68460   4.004  23.491   3.814
 3234W        W68461  40.019  10.994  12.405
 3235W        W68462  35.949  44.944   4.176
 3236W        W68463   2.800  13.241   3.064
 3237W        W68464  34.752  22.098   0.853
 3238W        W68465  23.081  16.672  13.394
 3239W        W68466  18.740  14.765  10.484
 3240W        W68467  40.277  40.573  12.046
 3241W        W68468  12.346  29.472  12.841
 3242W        W68469  36.476  15.174   0.003
 3243W        W68470  42.540  19.337   1.260
 3244W        W68471   8.966  39.816   4.083
 3245W        W68472   1.865   7.145   2.064
 3246W        W68473  26.153  40.344  14.747
 3247W        W68474  22.570  26.430  12.951
 3248W        W68475  34.583   5.877  11.930
 3249W        W68476   6.701   0.321   4.609
 3250W        W68477  19.120  17.355  11.062
 3251W        W68478  30.442  28.031   1.722
 3252W        W68479  24.426   9.421  14.237
 3253W        W68480  23.711   3.980   3.229
 3254W        W68481  44.794  16.699   1.608
 3255W        W68482   9.849  12.178   4.598
 3256W        W68483   5.464  43.541   5.092
 3257W        W68484  21.610  17.209   0.258
 3258W        W68485   3.283   3.808  12.794
 3259W        W68486  28.390  29.552  11.915
 3260W        W68487  13.884  44.744   4.236
 3261W        W68488  10.901   5.352  13.060
 3262W        W68489   3.361  11.735  14.412
 3263W        W68490   8.828  28.989   4.953
 3264W        W68491   8.915  36.066   1.800
 3265W        W68492  10.115   0.600  13.293
 3266W        W68493  30.698  36.157   0.672
 3267W        W68494   3.299   2.145   2.968
 3268W        W68495  35.373  38.614  12.682
 3269W        W68496   9.660  19.119   1.263
 3270W        W68497  15.943  14.406   3.654
 3271W        W68498  42.016   9.711   3.571
 3272W        W68499  12.341  38.406  13.934
 3273W        W68500  40.359  20.747  10.766
 3274W        W68501  17.676  10.758  13.986
 3275W        W68502  19.493  23.300  13.782
 3276W        W68503   7.352  32.467  10.435
 3277W        W68504   8.246   3.194   4.607
 3278W        W68505  18.246   1.355   4.155
 3279W        W68506  35.778  30.739  12.420
 3280W        W68507  42.365   4.145  13.933
 3281W        W68508  43.008  33.459   0.739
 3282W        W68509  32.061   8.673   0.038
 3283W        W68510  10.734  20.647  14.495
 3284W        W68511  15.772   3.659   1.714
 3285W        W68512  31.538  16.792  14.776
 3286W        W68513  10.982   8.334  14.224
 3287W        W68514  36.082  39.627   1.565
 3288W        W68515  14.279  42.521  14.812
 3289W        W68516  30.814  35.941   5.015
 3290W        W68517   2.041   9.764   3.383
 3291W        W68518   8.521   1.491  11.977
 3292W        W68519   7.353  31.564   4.630
 3293W        W68520  38.024  11.571   0.896
 3294W        W68521  11.439  35.782   5.422
 3295W        W68522   9.873  40.537  14.216
 3296W        W68523  14.633   5.301   0.016
 3297W        W68524   0.267  20.463   1.798
 3298W        W68525  42.338  10.083  12.835
 3299W        W68526  11.960  32.161  13.491
 3300W        W68527  37.774  24.099   0.248
 3301W        W68528  29.583  35.354   2.266
 3302W        W68529   2.538  21.689  13.552
 3303W        W68530   7.112  16.683  12.013
 3304W        W68531  40.408  23.993  13.059
 3305W        W68532  23.753  36.429   0.712
 3306W        W68533  15.778   1.661   0.471
 3307W        W68534   0.176  36.537   4.753
 3308W        W68535  40.437  19.785  10.025
 3309W        W68536   5.600  10.486  11.090
 3310W        W68537  16.766  16.311   3.534
 3311W        W68538  14.265  41.277   1.077
 3312W        W68539  18.375   7.835  13.836
 3313W        W68540  11.879   7.999   2.289
 3314W        W68541   2.029  15.466  12.987
 3315W        W68542   5.392  27.956   2.227
 3316W        W68543  22.296  34.144  12.351
 3317W        W68544  40.715  19.308  11.190
 3318W        W68545  25.621  34.039  12.618
 3319W        W68546  42.287  13.329   1.208
 3320W        W68547  10.699  42.987   2.310
 3321W        W68548   6.298  16.299  13.541
 3322W        W68549  24.619  23.233   4.052
 3323W        W68550  36.231  16.474   1.316
 3324W        W68551   4.930  10.720   1.316
 3325W        W68552  36.560  32.254  14.875
 3326W        W68553  13.185  17.324  13.862
 3327W        W68554  13.103  28.655  14.597
 3328W        W68555  25.940  31.799  14.958
 3329W        W68556  24.928  35.473   1.843
 3330W        W68557   9.885   1.342   1.128
 3331W        W68558  15.020  42.975   3.255
 3332W        W68559  40.425  19.518  14.853
 3333W        W68560  13.287  24.825   4.756
 3334W        W68561  44.954  43.037  14.055
 3335W        W68562  15.010  25.203  11.114
 3336W        W68563   9.354   8.387   4.680
 3337W        W68564   0.707   6.226   4.570
 3338W        W68565  34.599   5.378   1.451
 3339W        W68566  10.056  34.440   2.847
 3340W        W68567  32.125  21.963   1.306
 3341W        W68568  24.097  27.013   2.377
 3342W        W68569  17.574  30.087   4.510
 3343W        W68570  11.785   7.236  14.484
 3344W        W68571  40.870  35.080  11.585
 3345W        W68572  16.268  40.989   2.393
 3346W        W68573  31.364  10.433  12.532
 3347W        W68574  44.681  40.346  13.451
 3348W        W68575  32.409  10.743  14.001
 3349W        W68576  12.594   9.270   1.877
 3350W        W68577   8.133  38.373  14.799
 3351W        W68578   7.720  28.804  11.365
 3352W        W68579   2.005  35.498   1.070
 3353W        W68580  35.307  44.549  12.271
 3354W        W68581  31.637  25.610  13.419
 3355W        W68582  16.504   6.322  13.399
 3356W        W68583  40.018  43.977  10.400
 3357W        W68584  10.360  41.912  13.986
 3358W        W68585  12.773  43.493  12.224
 3359W        W68586   8.103  42.917   0.291
 3360W        W68587   2.153  34.408   2.938
 3361W        W68588  33.917  28.732  12.469
 3362W        W68589  42.804   9.933   3.109
 3363W        W68590  21.358   2.441  14.468
 3364W        W68591  30.577  15.783   4.438
 3365W        W68592  37.644  36.472   0.045
 3366W        W68593  42.067   0.950  13.419
 3367W        W68594  42.492   3.292  12.828
 3368W        W68595  35.902  17.820  11.134
 3369W        W68596  42.710  34.475   1.603
 3370W        W68597  29.663  38.643  13.583
 3371W        W68598  44.501  13.277  10.837
 3372W        W68599  18.138   2.642  14.825
 3373W        W68600  39.469  29.860  12.477
 3374W        W68601  19.072  28.415   3.108
 3375W        W68602  37.102  38.335  11.531
 3376W        W68603  28.949  35.474   4.586
 3377W        W68604  26.401   4.784   0.807
 3378W        W68605  21.596   0.422   9.816
 3379W        W68606  39.828  13.579   1.358
 3380W        W68607  10.694  35.357   2.791
 3381W        W68608  34.083  22.315   0.057
 3382W        W68609  38.894  25.604  11.107
 3383W        W68610  22.738  36.461   0.064
 3384W        W68611  12.366  25.553   4.078
 3385W        W68612  21.036  36.527  14.549
 3386W        W68613   5.636  10.510  12.301
 3387W        W68614  23.597  13.616  14.037
 3388W        W68615  18.229  23.724   4.261
 3389W        W68616  25.107  10.659  12.396
 3390W        W68617  22.923  27.709  13.386
 3391W        W68618  44.478  15.635  13.452
 3392W        W68619  26.387  11.450   0.813
 3393W        W68620  36.502  27.122  11.582
 3394W        W68621  14.626  21.952   0.460
 3395W        W68622  11.712  16.456  10.609
 3396W        W68623  13.361  38.151   0.608
 3397W        W68624  42.361   5.914  13.678
 3398W        W68625   5.200   8.339  11.087
 3399W        W68626  13.595   5.152  10.489
 3400W        W68627  28.439  34.082   4.381
 3401W        W68628  44.371   8.052  13.966
 3402W        W68629  11.311  32.354   2.306
 3403W        W68630   5.272   7.762   3.251
 3404W        W68631  15.061   8.436   4.505
 3405W        W68632  24.769  37.349   2.784
 3406W        W68633   1.734   2.934   2.595
 3407W        W68634   5.695  29.575   4.566
 3408W        W68635  35.965   0.563  12.055
 3409W        W68636  31.508  11.941  14.921
 3410W        W68637  11.294  18.304   0.952
 3411W        W68638  33.757   8.425  12.142
 3412W        W68639   4.866  20.605  12.144
 3413W        W68640  30.767  10.953   2.454
 3414W        W68641  27.896  17.549   0.675
 3415W        W68642   4.049  25.402   2.596
 3416W        W68643  32.058  21.353  11.044
 3417W        W68644  19.128  25.552   3.106
 3418W        W68645  30.050   6.552   1.659
 3419W        W68646  29.269  40.868   2.697
 3420W        W68647   1.273  32.626   1.791
 3421W        W68648  27.236  20.043   3.674
 3422W        W68649   2.730   4.863  12.457
 3423W        W68650  10.739  21.568  13.584
 3424W        W68651   1.810  15.600  12.057
 3425W        W68652  23.110  44.084  13.345
 3426W        W68653  15.076   2.462   3.060
 3427W        W68654   7.848  25.918   0.841
 3428W        W68655  22.422  30.091   2.724
 3429W        W68656  12.149  42.369   0.738
 3430W        W68657  31.213  15.171  11.692
 3431W        W68658  29.963  38.918  12.581
 3432W        W68659  40.831  41.887   0.230
 3433W        W68660  27.763  12.188  12.479
 3434W        W68661  30.571  17.557  14.351
 3435W        W68662  30.029  33.088  13.322
 3436W        W68663  30.043  31.432   4.379
 3437W        W68664  24.992  21.127   4.576
 3438W        W68665   3.534  28.939   3.505
 3439W        W68666  26.689  36.543  14.892
 3440W        W68667  37.359  40.751   2.734
 3441W        W68668   8.042   7.701  11.207
 3442W        W68669  13.369   1.840  12.377
 3443W        W68670  29.975  44.073  10.631
 3444W        W68671  27.012  44.315  12.546
 3445W        W68672  33.242  26.646  14.345
 3446W        W68673   5.220  18.122   3.776
 3447W        W68674  29.581  28.345  10.775
 3448W        W68675  17.105  29.943  10.800
 3449W        W68676  42.237  35.639   4.404
 3450W        W68677  30.154  39.666  14.791
 3451W        W68678  41.402  10.618  12.044
 3452W        W68679  13.152  23.744   1.916
 3453W        W68680  21.579   9.270   2.412
 3454W        W68681  13.391  16.078  12.561
 3455W        W68682  34.908  34.960  14.295
 3456W        W68683  12.075  33.702  10.763
 3457W        W68684  36.291  28.957  10.724
 3458W        W68685  23.999   8.187  12.595
 3459W        W68686  20.462  19.629  10.488
 3460W        W68687  13.907  42.377  12.272
 3461W        W68688   7.631  12.232  14.126
 3462W        W68689  12.022  39.823  14.909
 3463W        W68690  23.713  37.899   3.150
 3464W        W68691  32.689   0.778  12.532
 3465W        W68692  33.693   0.208   1.538
 3466W        W68693   7.061  11.158  11.009
 3467W        W68694  20.298  42.949  11.056
 3468W        W68695  37.500   3.783   1.841
 3469W        W68696  10.018  37.409   1.217
 3470W        W68697  26.272  36.040  12.416
 3471W        W68698  34.089  20.775   3.627
 3472W        W68699  40.424   9.589  14.934
 3473W        W68700  39.029  23.510  10.776
 3474W        W68701  15.769  37.509  11.507
 3475W        W68702  36.171  11.345  11.020
 3476W        W68703   9.855  28.643   1.830
 3477W        W68704  37.534  30.870   3.839
 3478W        W68705  37.332   3.423  11.144
 3479W        W68706   4.672  17.031   1.395
 3480W        W68707  38.972  22.687   2.046
 3481W        W68708  35.960   2.566   4.261
 3482W        W68709  24.165  12.643   3.373
 3483W        W68710  41.045   1.006   0.606
 3484W        W68711   7.778   8.875  13.634
 3485W        W68712   3.344  35.052  11.735
 3486W        W68713   9.795  24.506  12.635
 3487W        W68714  25.028  26.499   2.730
 3488W        W68715  41.299  44.291   0.888
 3489W        W68716  44.870  24.608  11.673
 3490W        W68717  39.507   2.476   1.654
 3491W        W68718  28.964  19.795   1.019
 3492W        W68719  42.061  31.815  10.266
 3493W        W68720  15.350  34.015  10.250
 3494W        W68721  29.259   4.986   1.937
 3495W        W68722  13.341  22.010  12.070
 3496W        W68723  23.915   6.804   0.090
 3497W        W68724   3.842   5.150  12.526
 3498W        W68725  23.901  24.762  14.809
 3499W        W68726  36.643  25.644   3.325
 3500W        W68727  26.194  27.419   0.274
 3501W        W68728  16.145  30.397  10.657
 3502W        W68729  18.900  25.518   2.149
 3503W        W68730  15.441  29.365   4.139
 3504W        W68731  16.161  35.687  13.543
 3505W        W68732  37.437  23.568  11.966
 3506W        W68733   3.314  36.069  14.854
 3507W        W68734  33.832   3.863   3.456
 3508W        W68735  33.488  29.004  12.375
 3509W        W68736  40.496  33.332  14.871
 3510W        W68737  26.667  11.721  13.487
 3511W        W68738  10.833  17.879  12.894
 3512W        W68739  30.478  34.238  13.659
 3513W        W68740  42.396  18.823  12.190
 3514W        W68741  44.459  42.394   4.810
 3515W        W68742  18.246   0.791  12.050
 3516W        W68743  25.657  20.541   3.927
 3517W        W68744  22.413  12.180   5.107
 3518W        W68745  22.562   2.821  13.889
 3519W        W68746  32.953  32.887  10.641
 3520W        W68747  39.466   8.886   0.860
 3521W        W68748  39.490  28.674  13.010
 3522W        W68749  40.033  16.294   0.266
 3523W        W68750   7.055  38.706  11.105
 3524W        W68751   8.777  42.851   4.614
 3525W        W68752  35.360  39.548  13.061
 3526W        W68753  10.081  27.953  10.454
 3527W        W68754  26.908   1.978  13.366
 3528W        W68755  37.787  40.351  13.481
 3529W        W68756  24.998  35.617   4.110
 3530W        W68757  11.663  15.294   4.073
 3531W        W68758  29.504  14.552   2.605
 3532W        W68759  23.719  30.550   0.497
 3533W        W68760  17.974  32.145  10.759
 3534W        W68761   1.441  37.369  12.779
 3535W        W68762  14.578  20.664   0.760
 3536W        W68763  30.061  23.588  12.175
 3537W        W68764  21.108  34.104  13.329
 3538W        W68765  31.211  28.915   4.150
 3539W        W68766  40.843  22.620   1.340
 3540W        W68767  36.850  43.291  11.376
 3541W        W68768  31.230  21.136  14.878
 3542W        W68769  41.341  42.226  12.014
 3543W        W68770   7.962  35.800  11.584
 3544W        W68771   6.339  34.972  10.304
 3545W        W68772  39.162  25.451   4.898
 3546W        W68773  13.568  20.201   3.774
 3547W        W68774   1.130  26.373   0.689
 3548W        W68775  29.475   9.596  13.445
 3549W        W68776  42.366  37.436   0.872
 3550W        W68777   9.296  18.745  11.170
 3551W        W68778   0.813   2.000   0.365
 3552W        W68779  12.211  23.752   1.889
 3553W        W68780  15.743   9.378   0.992
 3554W        W68781  18.330  27.168   2.891
 3555W        W68782  11.578   1.844   1.470
 3556W        W68783  36.993  13.934   1.642
 3557W        W68784  29.113  29.235  14.321
 3558W        W68785  43.594  44.790  11.499
 3559W        W68786   0.245  22.280   2.347
 3560W        W68787  25.696   5.190  11.925
 3561W        W68788  21.011  17.015  11.341
 3562W        W68789  30.140   2.525   1.668
 3563W        W68790   3.963   6.791  11.928
 3564W        W68791   7.136  32.874   1.379
 3565W        W68792  33.196   0.722  12.632
 3566W        W68793  29.982  19.064  14.864
 3567W        W68794  13.017  36.052   3.646
 3568W        W68795  36.907   0.206   4.093
 3569W        W68796   3.706   1.260  14.241
 3570W        W68797   3.272  15.756  11.935
 3571W        W68798  28.324  21.569   2.206
 3572W        W68799  35.525  35.466   3.110
 3573W        W68800  18.327  26.634   1.225
 3574W        W68801   6.104  18.108   1.395
 3575W        W68802  15.659  28.614  14.433
 3576W        W68803   6.399  23.907  12.770
 3577W        W68804  17.799  13.776   4.590
 3578W        W68805   5.212  40.554   3.898
 3579W        W68806  30.554  39.027   0.643
 3580W        W68807  26.899  40.948   0.670
 3581W        W68808  36.433  26.848  12.403
 3582W        W68809  31.608  16.717  12.389
 3583W        W68810   4.002  37.286  12.146
 3584W        W68811  33.197  14.530   0.405
 3585W        W68812  33.150  16.432  11.568
 3586W        W68813   0.326   7.694  14.497
 3587W        W68814  43.399   6.754   4.132
 3588W        W68815   9.038  36.342  14.017
 3589W        W68816  13.801  21.600   4.042
 3590W        W68817  17.032  39.477   3.582
 3591W        W68818  18.526  36.093  12.098
 3592W        W68819  17.086   0.484  11.235
 3593W        W68820  18.225   0.335  13.721
 3594W        W68821  17.125  33.031   1.141
 3595W        W68822   6.255  25.918   4.191
 3596W        W68823   5.355  35.878  14.009
 3597W        W68824   2.384  41.684   1.037
 3598W        W68825  36.973  28.340  14.217
 3599W        W68826  10.489  33.426   0.101
 3600W        W68827  33.093  34.911   1.643
 3601W        W68828   2.821  21.790  14.940
 3602W        W68829  19.134  34.793   4.553
 3603W        W68830   0.194  25.439  12.649
 3604W        W68831  35.947  10.772   1.339
 3605W        W68832  29.100  25.429  13.897
 3606W        W68833  24.425  23.552  11.224
 3607W        W68834  43.519  35.102   2.194
 3608W        W68835  30.419  23.542  13.520
 3609W        W68836  29.924  27.209  13.392
 3610W        W68837  34.532   5.742   0.246
 3611W        W68838  27.215   0.917   5.623
 3612W        W68839   4.499  17.516   2.414
 3613W        W68840  32.887  41.305  10.501
 3614W        W68841  37.945  11.251  13.863
 3615W        W68842  27.422  39.264   4.719
 3616W        W68843  20.097  44.352   2.823
 3617W        W68844   8.331   0.465  12.549
 3618W        W68845   9.628   9.841  14.591
 3619W        W68846  13.253  33.816  14.945
 3620W        W68847  21.566   1.595   0.785
 3621W        W68848  25.504  27.665  11.594
 3622W        W68849  34.524  39.523  11.922
 3623W        W68850  26.041  39.869   2.606
 3624W        W68851  25.251  21.612   4.608
 3625W        W68852  25.528  12.162   0.822
 3626W        W68853  14.036   3.977   1.289
 3627W        W68854   0.813   9.796   2.515
 3628W        W68855  37.890  42.774  14.775
 3629W        W68856  25.982  43.801   4.655
 3630W        W68857  33.068  10.257   3.250
 3631W        W68858  32.870   8.926   0.436
 3632W        W68859  24.873   9.249  14.500
 3633W        W68860   8.243   3.949  13.309
 3634W        W68861  13.026  12.020  11.022
 3635W        W68862   3.479  35.836  13.995
 3636W        W68863  36.605  40.839  10.762
 3637W        W68864  14.008  43.833  14.774
 3638W        W68865  22.483  23.659  14.009
 3639W        W68866   7.285  34.914  12.030
 3640W        W68867  26.485  28.548   0.720
 3641W        W68868  42.289  19.307   3.184
 3642W        W68869  32.695  26.237  13.891
 3643W        W68870  26.592  13.088   1.269
 3644W        W68871  30.034  34.390   3.137
 3645W        W68872  35.650  42.483   4.614
 3646W        W68873  10.754  43.830   2.917
 3647W        W68874  37.020  20.014   2.134
 3648W        W68875   6.096  21.838  11.970
 3649W        W68876  42.135  35.417  14.011
 3650W        W68877  36.000  36.916   3.585
 3651W        W68878  21.244  18.625   3.284
 3652W        W68879   0.113  24.518   2.362
 3653W        W68880   8.765  21.071  12.909
 3654W        W68881  34.980  12.372   0.556
 3655W        W68882  25.739  34.370  11.160
 3656W        W68883  12.858  21.110  14.215
 3657W        W68884  32.782  17.353   5.103
 3658W        W68885  38.449   0.500   4.645
 3659W        W68886  35.611   6.826   2.359
 3660W        W68887   6.716  35.458   3.582
 3661W        W68888  29.813  44.791   2.133
 3662W        W68889  42.974  42.113   1.419
 3663W        W68890  34.018  24.412   2.710
 3664W        W68891  35.080  40.480  11.681
 3665W        W68892   4.568  14.123   0.428
 3666W        W68893  44.862   7.199  13.062
 3667W        W68894   2.847  36.325  14.934
 3668W        W68895   6.742  10.396  11.589
 3669W        W68896  40.221  19.825   0.235
 3670W        W68897  37.956  36.227  12.096
 3671W        W68898  11.717   3.785  12.127
 3672W        W68899   0.463  42.944  11.195
 3673W        W68900  44.425  20.730  11.581
 3674W        W68901  13.149  40.521  11.101
 3675W        W68902  15.113  16.305   4.512
 3676W        W68903  26.791  24.672   0.084
 3677W        W68904  27.853  30.293  10.683
 3678W        W68905  41.557  12.114  10.542
 3679W        W68906  21.469  27.424  14.318
 3680W        W68907  28.225  31.326   1.400
 3681W        W68908  41.010  15.609  13.865
 3682W        W68909  41.763  43.084   5.115
 3683W        W68910  33.442  36.616   1.811
 3684W        W68911   2.933  13.782   3.108
 3685W        W68912  10.863  22.544   1.653
 3686W        W68913  35.045  11.708  10.407
 3687W        W68914  38.562  10.974  11.123
 3688W        W68915   5.196  30.124  13.859
 3689W        W68916  29.143  38.403   2.903
 3690W        W68917  41.992  37.415   4.515
 3691W        W68918  20.889  16.079   2.806
 3692W        W68919  28.016  10.415  12.959
 3693W        W68920  25.432  30.553   4.257
 3694W        W68921  32.123  30.017  11.303
 3695W        W68922  39.951  35.626  13.413
 3696W        W68923  28.552  24.688   0.343
 3697W        W68924  42.040  11.757   0.723
 3698W        W68925  13.628  31.846   3.550
 3699W        W68926   6.142  21.143  14.791
 3700W        W68927  20.009  15.331  12.226
 3701W        W68928  19.720   7.886  12.584
 3702W        W68929  21.507  10.580   3.220
 3703W        W68930  43.068  29.255   1.408
 3704W        W68931  12.541  28.980   2.178
 3705W        W68932  14.052   8.720   0.530
 3706W        W68933  11.294  33.273   1.321
 3707W        W68934  14.176  44.598  12.016
 3708W        W68935  28.571  13.571   1.022
 3709W        W68936  27.307  32.998  12.207
 3710W        W68937   6.718  42.425  10.424
 3711W        W68938  18.304  16.088   4.595
 3712W        W68939  13.690  30.545   2.695
 3713W        W68940  19.718  23.741   1.007
 3714W        W68941  34.462  17.262  14.560
 3715W        W68942  44.907  19.431   1.606
 3716W        W68943   3.354  15.186   3.648
 3717W        W68944  16.867  32.945   0.677
 3718W        W68945  34.958  31.585   4.308
 3719W        W68946  32.010  19.114  11.060
 3720W        W68947  19.619  16.614  11.131
 3721W        W68948  27.736  34.387  10.704
 3722W        W68949   8.737  14.390   4.100
 3723W        W68950  32.920  35.516  13.486
 3724W        W68951  14.604   5.915   1.778
 3725W        W68952  33.804  31.472  14.831
 3726W        W68953   1.738  42.250   0.167
 3727W        W68954  28.009  15.467   4.912
 3728W        W68955  35.813  33.711   1.827
 3729W        W68956   7.629  13.347   3.016
 3730W        W68957  26.078  13.350   0.823
 3731W        W68958  22.684  43.063   1.778
 3732W        W68959  31.284  15.525  12.087
 3733W        W68960  41.907   3.095   2.822
 3734W        W68961  19.716  18.580   0.875
 3735W        W68962  15.439  38.402  14.018
 3736W        W68963   2.001  40.025  11.527
 3737W        W68964   1.391  30.868  11.542
 3738W        W68965  43.767  33.113   3.186
 3739W        W68966  36.294  38.287   1.425
 3740W        W68967   6.934  22.227   3.839
 3741W        W68968   8.836   8.633   1.355
 3742W        W68969   3.308  32.962   4.094
 3743W        W68970  43.293  17.277  13.948
 3744W        W68971  26.950  44.323   3.843
 3745W        W68972  30.933  37.971   1.979
 3746W        W68973   4.843  23.558   4.819
 3747W        W68974  27.212  19.505   3.696
 3748W        W68975  23.182  21.752  11.518
 3749W        W68976  38.518  35.855  11.148
 3750W        W68977  21.808  31.646  12.422
 3751W        W68978  22.685   0.713   0.815
 3752W        W68979  41.010   8.863   0.323
 3753W        W68980   1.003  43.383   2.236
 3754W        W68981  29.057  28.514   3.000
 3755W        W68982  16.032  43.832   2.138
 3756W        W68983  10.866   9.686   0.331
 3757W        W68984  40.868  28.187   1.234
 3758W        W68985   4.185  12.914  11.040
 3759W        W68986  39.900  20.582  10.626
 3760W        W68987   3.266   7.135  13.007
 3761W        W68988   3.140   7.245  14.768
 3762W        W68989   5.685  27.482   2.302
 3763W        W68990  17.922  38.971  12.795
 3764W        W68991  31.753  21.641   0.351
 3765W        W68992  12.185  30.558   4.949
 3766W        W68993  31.858   8.140   1.856
 3767W        W68994  29.632   4.836  13.009
 3768W        W68995  18.555   2.228   0.758
 3769W        W68996  27.496  10.183   2.757
 3770W        W68997  13.733  40.927  14.790
 3771W        W68998   1.290   4.223   0.535
 3772W        W68999  23.911  17.885   5.066
 3773W        W69000  44.239  24.549   3.864
 3774W        W69001  32.959  18.149   3.670
 3775W        W69002   8.126   8.393  13.360
 3776W        W69003   8.383   8.339  12.036
 3777W        W69004  28.699  24.481  14.882
 3778W        W69005  28.849  36.598  12.515
 3779W        W69006  43.888   8.853   2.724
 3780W        W69007  23.701  16.050  14.439
 3781W        W69008  34.840  43.351  12.997
 3782W        W69009  28.345  41.137   0.363
 3783W        W69010  42.288  36.350   1.503
 3784W        W69011  26.021  40.007  11.073
 3785W        W69012  14.768  40.474   0.769
 3786W        W69013  12.314   4.321  12.644
 3787W        W69014  40.405   4.114   2.787
 3788W        W69015  37.497  29.165  13.391
 3789W        W69016  41.817  11.280   1.410
 3790W        W69017  36.255   8.196  14.297
 3791W        W69018  36.240  35.578  11.548
 3792W        W69019  14.339  18.260   0.178
 3793W        W69020  37.969   8.928   1.407
 3794W        W69021  20.662  33.394  11.456
 3795W        W69022   4.627  35.979  10.874
 3796W        W69023  27.471  16.043  14.596
 3797W        W69024   8.621  19.526  11.129
 3798W        W69025   2.126  24.981   0.307
 3799W        W69026  22.724   7.795   0.856
 3800W        W69027  22.616  32.447  14.865
 3801W        W69028   5.766   9.426   4.331
 3802W        W69029   7.058  11.517   1.421
 3803W        W69030   5.777  43.903  13.900
 3804W        W69031  36.884  34.055  13.091
 3805W        W69032   6.267   3.694   0.452
 3806W        W69033  11.791  38.810   1.844
 3807W        W69034  13.878   9.198   0.424
 3808W        W69035  27.182   0.304  13.980
 3809W        W69036  31.940   0.532   4.484
 3810W        W69037   0.312  34.215   3.823
 3811W        W69038  11.240  25.243  12.003
 3812W        W69039  15.649   5.405  13.850
 3813W        W69040   4.946  10.892   3.815
 3814W        W69041   9.428   4.193  11.983
 3815W        W69042  32.840  26.093  13.417
 3816W        W69043   3.324  15.000   4.943
 3817W        W69044  23.729  30.557   4.135
 3818W        W69045   5.597  10.638   3.638
 3819W        W69046   8.316  18.309   3.650
 3820W        W69047  41.843   4.863   4.731
 3821W        W69048   2.800  11.427   2.016
 3822W        W69049  31.698   4.504   4.505
 3823W        W69050  20.562   5.104   3.278
 3824W        W69051  26.769  25.443  13.383
 3825W        W69052   6.696  43.140  14.740
 3826W        W69053   3.829  31.695   0.021
 3827W        W69054  22.095  34.839   3.163
 3828W        W69055  37.341  36.472  10.648
 3829W        W69056  38.859  27.034   0.867
 3830W        W69057  33.990  36.878  13.867
 3831W        W69058   9.173  31.068  14.381
 3832W        W69059  43.746   9.716  10.843
 3833W        W69060  14.152   0.335   4.886
 3834W        W69061   1.477  25.575   1.213
 3835W        W69062  21.475  22.670  11.158
 3836W        W69063   9.732  10.124   2.890
 3837W        W69064   4.899  25.080   2.635
 3838W        W69065  43.936  40.480  11.525
 3839W        W69066  16.692  17.819   3.740
 3840W        W69067  33.822  24.608  12.510
 3841W        W69068  30.456  39.033  14.124
 3842W        W69069   9.069  32.815  12.793
 3843W        W69070  23.474  38.116   1.187
 3844W        W69071  30.615  41.834   1.940
 3845W        W69072   0.173  37.973  13.429
 3846W        W69073   4.013  13.650   2.789
 3847W        W69074  23.566  43.981  10.942
 3848W        W69075  21.049  28.174  11.574
 3849W        W69076  13.184  26.089   2.884
 3850W        W69077  41.820   8.982   0.647
 3851W        W69078  12.082   3.330  10.650
 3852W        W69079  40.346  16.844  11.485
 3853W        W69080  33.408  13.314  14.838
 3854W        W69081  33.639  34.889  12.072
 3855W        W69082  41.014  16.918   4.116
 3856W        W69083  13.550  21.997   2.760
 3857W        W69084  21.725  39.834  11.630
 3858W        W69085  26.930  44.756  12.963
 3859W        W69086   6.310  42.316   3.681
 3860W        W69087  18.016  37.722  11.165
 3861W        W69088  26.665   5.824   0.927
 3862W        W69089  13.262  13.801   2.745
 3863W        W69090   3.762  16.402  13.842
 3864W        W69091  43.902  37.297   0.882
 3865W        W69092  14.347  15.338  14.022
 3866W        W69093  18.270  18.721   1.110
 3867W        W69094   3.970  41.753  14.430
 3868W        W69095   1.942  34.873  14.855
 3869W        W69096   6.785   4.279  14.971
 3870W        W69097  25.165   7.828  12.884
 3871W        W69098  37.859  28.909  14.418
 3872W        W69099  20.589  24.197   2.811
 3873W        W69100   6.460  40.365  12.446
 3874W        W69101  30.216   8.107   2.554
 3875W        W69102  23.182  22.599  11.467
 3876W        W69103  36.970   6.417   4.421
 3877W        W69104  34.857  15.305  12.461
 3878W        W69105  41.777   1.604   1.199
 3879W        W69106  32.410  36.812  12.073
 3880W        W69107  13.521  11.864  11.084
 3881W        W69108  28.500  38.085   5.408
 3882W        W69109  37.048  38.467   0.286
 3883W        W69110  41.606  42.473   3.805
 3884W        W69111  25.667   4.875  13.755
 3885W        W69112  12.808  37.565   0.791
 3886W        W69113  38.367   1.904   4.929
 3887W        W69114   8.276  33.230   0.821
 3888W        W69115   2.385   1.394   1.996
 3889W        W69116   0.952  39.780   3.109
 3890W        W69117   4.859  17.231  11.924
 3891W        W69118  39.334  13.277   4.652
 3892W        W69119  16.384   6.171   0.024
 3893W        W69120  33.356  30.692  14.392
 3894W        W69121  29.323  33.797  14.278
 3895W        W69122  18.170  11.616  12.863
 3896W        W69123  44.238  10.776   2.375
 3897W        W69124  14.067  13.071  14.697
 3898W        W69125   0.991   4.245  14.492
 3899W        W69126  28.648  44.797  10.760
 3900W        W69127  25.016   1.438   1.138
 3901W        W69128  16.069  44.240   4.356
 3902W        W69129  14.652   0.845  11.198
 3903W        W69130  12.767  24.437   4.746
 3904W        W69131  27.590  11.894   3.275
 3905W        W69132  36.160  33.178  14.978
 3906W        W69133  25.799  42.372  11.904
 3907W        W69134  16.417  36.364   3.126
 3908W        W69135   6.437  31.544  11.445
 3909W        W69136  32.185  25.707  12.366
 3910W        W69137  21.099   5.424  14.773
 3911W        W69138   7.708   9.551  10.888
 3912W        W69139  37.282  22.870   5.125
 3913W        W69140  30.204  35.450   4.282
 3914W        W69141  22.698  11.281  13.820
 3915W        W69142  13.764  19.039   3.112
 3916W        W69143  17.115  39.685   2.274
 3917W        W69144  12.867  33.614   3.097
 3918W        W69145  30.368  30.628   1.208
 3919W        W69146  25.162   7.807  14.035
 3920W        W69147  44.777  28.555  10.971
 3921W        W69148  32.445   0.034  13.834
 3922W        W69149  25.767  21.747  14.167
 3923W        W69150  30.303  37.402   1.915
 3924W        W69151  36.331  22.061   0.756
 3925W        W69152  17.635  39.628   1.423
 3926W        W69153  24.247  30.026   1.800
 3927W        W69154  43.098  26.580   3.733
 3928W        W69155  25.399   7.530   0.901
 3929W        W69156  15.674  19.165   3.688
 3930W        W69157  26.053   4.674   4.548
 3931W        W69158  19.032  41.679  12.454
 3932W        W69159  24.215   8.353  11.222
 3933W        W69160  19.847  13.475  14.526
 3934W        W69161  39.733   6.788  13.935
 3935W        W69162   7.863  31.882  11.259
 3936W        W69163  17.128  18.305  11.684
 3937W        W69164  43.760  13.833  13.880
 3938W        W69165   1.993  22.529  13.630
 3939W        W69166  28.618  36.391   4.694
 3940W        W69167  26.429  29.565  14.896
 3941W        W69168  38.813  13.918  14.930
 3942W        W69169  38.249  36.692  10.807
 3943W        W69170  42.019  24.634  10.688
 3944W        W69171   2.058  40.521   3.400
 3945W        W69172   5.390  31.311  14.783
 3946W        W69173  40.354  40.327   4.684
 3947W        W69174   2.191  13.609   1.414
 3948W        W69175  28.910  24.993  14.637
 3949W        W69176  10.742  13.406   0.756
 3950W        W69177  38.113   0.405   3.722
 3951W        W69178  15.073  13.996  11.172
 3952W        W69179   9.364  15.209  13.878
 3953W        W69180  25.581  36.541  12.060
 3954W        W69181  18.418  29.474  10.817
 3955W        W69182  44.844  42.534  13.268
 3956W        W69183  12.816  29.348  12.114
 3957W        W69184  24.912  23.316  11.219
 3958W        W69185   0.106   4.069  10.888
 3959W        W69186   0.904   1.714  14.463
 3960W        W69187  15.699   6.457  12.388
 3961W        W69188  22.487  35.315  11.148
 3962W        W69189  31.704  24.250  11.106
 3963W        W69190   2.948  34.529   4.294
 3964W        W69191  38.837  14.171  10.942
 3965W        W69192  28.643  18.148   0.640
 3966W        W69193  18.184  16.558  12.131
 3967W        W69194  19.999  23.195  13.869
 3968W        W69195  13.538  23.441   3.863
 3969W        W69196  38.753   7.310  11.938
 3970W        W69197  12.622   6.904  13.179
 3971W        W69198   5.728  14.369  10.725
 3972W        W69199   4.497  13.214   3.628
 3973W        W69200   5.875  42.233   1.569
 3974W        W69201   4.397  38.535   1.299
 3975W        W69202  21.429  25.147   0.034
 3976W        W69203  15.829  26.011   2.226
 3977W        W69204   5.262  20.111   2.999
 3978W        W69205  32.611  25.545  12.133
 3979W        W69206  20.603  40.482   1.960
 3980W        W69207  39.836  25.608  10.892
 3981W        W69208   8.787   4.440   3.405
 3982W        W69209  16.493  14.079  14.830
 3983W        W69210  41.544  32.111  11.097
 3984W        W69211  31.733  18.083  11.180
 3985W        W69212  37.993  34.919   2.721
 3986W        W69213  39.260  25.397  10.245
 3987W        W69214   2.461   7.861   4.616
 3988W        W69215  13.434   9.871  13.595
 3989W        W69216  40.825   8.435   1.449
 3990W        W69217  18.963   1.775  13.659
 3991W        W69218  37.173  37.357  12.903
 3992W        W69219  36.581   7.750  12.378
 3993W        W69220   9.820  40.322   2.178
 3994W        W69221  38.338  27.066   0.828
 3995W        W69222   8.440  42.994  14.727
 3996W        W69223  17.216  18.112  10.870
 3997W        W69224  12.759   0.477   0.020
 3998W        W69225  41.953   7.179   1.632
 3999W        W69226  38.841  17.498   4.240
 4000W        W69227  32.035   1.664  11.309
 4001W        W69228  14.741   6.413  13.115
 4002W        W69229   3.887  24.164   2.289
 4003W        W69230  13.354  42.403   3.185
 4004W        W69231  37.898  28.450   0.888
 4005W        W69232  14.584   5.698   4.806
 4006W        W69233  17.223  28.998  10.797
 4007W        W69234  11.401   4.291  11.897
 4008W        W69235  17.194  18.110   1.885
 4009W        W69236  29.151  22.654  13.834
 4010W        W69237  40.017  27.199  14.537
 4011W        W69238   3.357  23.762   0.900
 4012W        W69239  39.475  22.531   3.820
 4013W        W69240  34.968  12.135   2.863
 4014W        W69241  11.259  11.810  11.424
 4015W        W69242  26.010  30.071  11.511
 4016W        W69243  37.496  23.920   5.022
 4017W        W69244  15.673   7.014   0.484
 4018W        W69245  16.620  44.216  11.854
 4019W        W69246  32.624  24.476   3.795
 4020W        W69247  28.859  20.512  14.984
 4021W        W69248  31.945  18.172   4.516
 4022W        W69249  13.464  22.812  11.688
 4023W        W69250  41.911  18.676  12.093
 4024W        W69251  10.262  14.590  13.033
 4025W        W69252  11.668  21.468  13.550
 4026W        W69253  10.220  22.249   0.306
 4027W        W69254  14.175  42.751  12.524
 4028W        W69255   5.971  29.057  12.942
 4029W        W69256  44.550   3.306  12.901
 4030W        W69257  14.303  28.478   0.059
 4031W        W69258  23.009   9.201  13.564
 4032W        W69259  31.501   7.743  13.001
 4033W        W69260   7.160   7.662  12.873
 4034W        W69261  10.947  14.132  11.204
 4035W        W69262  26.968  21.665  14.779
 4036W        W69263  42.363  28.142   1.271
 4037W        W69264  22.708  24.158  12.067
 4038W        W69265   8.641  15.525  14.847
 4039W        W69266   1.140  20.852  14.981
 4040W        W69267   9.812   0.790  11.637
 4041W        W69268  15.882  28.995   3.300
 4042W        W69269  42.984  33.099   1.664
 4043W        W69270  37.626  43.084  11.408
 4044W        W69271  23.572  35.050  10.686
 4045W        W69272  43.395  36.360  14.314
 4046W        W69273  36.423  25.368  13.622
 4047W        W69274   2.895  27.724   2.196
 4048W        W69275  33.903  24.454  13.318
 4049W        W69276  24.258  34.828  11.644
 4050W        W69277   1.412  30.558  13.578
 4051W        W69278  25.041  20.642  11.080
 4052W        W69279  32.487  42.194  14.460
 4053W        W69280  35.314  14.361  12.571
 4054W        W69281  39.613  34.907  12.916
 4055W        W69282  29.595  24.501  13.948
 4056W        W69283  42.901  43.303   3.143
 4057W        W69284   5.209  42.584  14.494
 4058W        W69285  36.611  19.783   3.614
 4059W        W69286  12.202  11.118   4.062
 4060W        W69287   1.940   5.506  13.888
 4061W        W69288  44.547   5.876  11.288
 4062W        W69289  35.551   9.342   3.865
 4063W        W69290  39.783   3.354  12.010
 4064W        W69291  40.520  15.406  12.164
 4065W        W69292  12.596  28.330  11.190
 4066W        W69293  41.833  37.668   4.100
 4067W        W69294  18.380  12.989   4.692
 4068W        W69295  25.395  35.700  10.777
 4069W        W69296  42.927  29.475   0.745
 4070W        W69297   9.338  19.762   0.728
 4071W        W69298  13.127  24.338   3.683
 4072W        W69299   9.726  21.693  13.402
 4073W        W69300  12.728  30.055   3.345
 4074W        W69301  24.392  26.104  11.253
 4075W        W69302  35.848  14.410  11.934
 4076W        W69303  43.854   1.324  13.118
 4077W        W69304  25.985  34.761   1.151
 4078W        W69305  18.646  12.575  13.434
 4079W        W69306  24.938  41.445   1.404
 4080W        W69307  36.579   4.713  14.428
 4081W        W69308  40.872  34.663  13.419
 4082W        W69309  13.426   2.273  12.115
 4083W        W69310  18.375  33.368  10.298
 4084W        W69311  19.126  18.793   1.670
 4085W        W69312   7.849  21.515   1.760
 4086W        W69313  27.002  20.945  11.158
 4087W        W69314  21.735   3.029  12.975
 4088W        W69315  11.748  43.937  14.323
 4089W        W69316   9.733  29.765  13.605
 4090W        W69317  41.571  10.891  12.445
 4091W        W69318  13.194  37.460   4.975
 4092W        W69319  21.669  27.394   3.385
 4093W        W69320  10.169   2.519  12.464
 4094W        W69321   1.433  43.977  13.349
 4095W        W69322   6.123  10.312  14.343
 4096W        W69323  13.105  41.171   4.237
 4097W        W69324  40.730  30.025   4.008
 4098W        W69325   6.845   6.254   3.693
 4099W        W69326  20.032  39.986  12.986
 4100W        W69327  32.075   2.193   2.749
 4101W        W69328  38.931   3.620   4.005
 4102W        W69329  40.938  43.539  14.264
 4103W        W69330  19.754  29.912  14.774
 4104W        W69331   8.237  24.986  11.101
 4105W        W69332  37.790  13.814   0.724
 4106W        W69333  31.041  21.233   4.561
 4107W        W69334   5.910  20.669   0.300
 4108W        W69335  42.009  42.382   4.336
 4109W        W69336  22.026   7.148  14.502
 4110W        W69337  21.530  14.651   1.744
 4111W        W69338  42.422  26.920  10.693
 4112W        W69339  18.635   9.488  11.623
 4113W        W69340  40.535  15.622   3.121
 4114W        W69341  32.050  28.535  13.801
 4115W        W69342   9.198   8.530   2.920
 4116W        W69343  33.837  24.881  14.231
 4117W        W69344  32.590  38.759   4.583
 4118W        W69345  23.308   5.300  12.069
 4119W        W69346  41.008  20.482  11.400
 4120W        W69347  44.875   5.768   4.675
 4121W        W69348  40.991   9.819  13.369
 4122W        W69349  10.659  10.032  14.937
 4123W        W69350  26.727   0.081  10.499
 4124W        W69351  23.441  33.473   0.376
 4125W        W69352  19.240  23.405  12.532
 4126W        W69353  10.270   7.491   4.122
 4127W        W69354   5.943  40.061   4.107
 4128W        W69355  29.069  40.235  14.646
 4129W        W69356  21.521   1.430  12.018
 4130W        W69357   5.197  42.490   2.114
 4131W        W69358   6.747  28.156  13.332
 4132W        W69359  24.627  30.708   4.018
 4133W        W69360  24.148   8.124  14.440
 4134W        W69361   3.266  12.285   0.772
 4135W        W69362  12.582   8.307   0.526
 4136W        W69363  21.852  39.449   3.813
 4137W        W69364  13.212  41.397  14.115
 4138W        W69365  27.730  14.360   1.713
 4139W        W69366  17.188  37.150  11.156
 4140W        W69367   4.308  35.222   4.597
 4141W        W69368  19.858  17.316   3.650
 4142W        W69369  18.787  39.790   0.459
 4143W        W69370   5.420  31.407  12.656
 4144W        W69371   6.866  28.199   4.829
 4145W        W69372  25.194  24.786  13.253
 4146W        W69373  42.324  26.731   0.923
 4147W        W69374  20.347  21.340  10.806
 4148W        W69375  26.080  40.315   1.711
 4149W        W69376  27.966  28.991   3.074
 4150W        W69377  18.689  19.343  12.133
 4151W        W69378  11.201  11.781  13.425
 4152W        W69379  17.667  31.507  12.959
 4153W        W69380  42.323  33.115  11.322
 4154W        W69381  18.260  19.208   4.748
 4155W        W69382  16.432  26.190   2.691
 4156W        W69383  10.469  44.483   2.793
 4157W        W69384  25.164  30.158   1.215
 4158W        W69385  25.977  10.767   3.832
 4159W        W69386   7.441  38.439   0.219
 4160W        W69387  22.502  14.836   1.651
 4161W        W69388  44.454   9.897   0.924
 4162W        W69389  14.651  43.926   2.671
 4163W        W69390  27.248   2.712   5.325
 4164W        W69391  38.795   9.918   2.395
 4165W        W69392   8.338   2.483  13.978
 4166W        W69393  38.505   2.875  10.354
 4167W        W69394  37.426  20.282   0.362
 4168W        W69395  23.434   8.734  12.082
 4169W        W69396   4.939  22.567   4.789
 4170W        W69397  44.233  42.899  14.893
 4171W        W69398  10.229   3.380   4.826
 4172W        W69399   7.167  29.416   1.913
 4173W        W69400  16.053  32.125  13.370
 4174W        W69401  17.819  33.544  10.556
 4175W        W69402  14.204  23.245  12.857
 4176W        W69403   9.041  43.631  12.860
 4177W        W69404   1.676  35.590  13.684
 4178W        W69405  28.467  40.716  11.098
 4179W        W69406  21.425  22.192   9.884
 4180W        W69407  14.375   6.684  11.953
 4181W        W69408  13.699  29.929   2.379
 4182W        W69409   0.482  34.119  13.840
 4183W        W69410  22.698   3.486   0.727
 4184W        W69411   9.711  10.972  12.927
 4185W        W69412   2.617  31.980  13.768
 4186W        W69413  28.951  43.950  12.117
 4187W        W69414  43.910   2.218  14.430
 4188W        W69415  18.184  22.059  14.457
 4189W        W69416   0.712   4.929   0.686
 4190W        W69417  23.311  20.569   0.742
 4191W        W69418   2.262  25.772  13.481
 4192W        W69419  35.583  31.629  11.713
 4193W        W69420  38.403  27.212   4.215
 4194W        W69421  16.171  11.596   0.481
 4195W        W69422   9.171   0.070   3.585
 4196W        W69423  23.538  40.564   2.171
 4197W        W69424  15.541  16.002   2.221
 4198W        W69425  15.649   7.435   1.819
 4199W        W69426   1.708  44.378  11.873
 4200W        W69427  34.880  25.228   4.551
 4201W        W69428   5.428  14.716  11.584
 4202W        W69429   0.481  11.785   1.828
 4203W        W69430  39.972  28.053  12.466
 4204W        W69431  38.916  27.490   3.260
 4205W        W69432  15.859  44.232   0.604
 4206W        W69433  18.589  23.496   3.939
 4207W        W69434   3.784   2.484  10.226
 4208W        W69435  18.619  16.410  12.876
 4209W        W69436  23.059  40.578   1.273
 4210W        W69437   4.502   0.826  14.878
 4211W        W69438  15.570  12.728   2.603
 4212W        W69439  25.624  19.525   4.148
 4213W        W69440  38.987  40.856  11.736
 4214W        W69441  44.918  14.684  10.697
 4215W        W69442  40.055   6.778   0.802
 4216W        W69443  41.773  42.959  12.423
 4217W        W69444  13.958  33.600   5.115
 4218W        W69445  42.766  32.941   1.205
 4219W        W69446  19.805  19.318   2.396
 4220W        W69447  28.772   7.264   0.898
 4221W        W69448  17.689  15.806  14.963
 4222W        W69449  34.105   3.969  13.367
 4223W        W69450  31.215  26.489  14.372
 4224W        W69451  19.681  43.581   1.161
 4225W        W69452  10.354   3.403   3.850
 4226W        W69453  20.287  28.717  13.309
 4227W        W69454  41.361   6.179  12.421
 4228W        W69455   5.838  26.883  10.680
 4229W        W69456  13.977  41.470  12.614
 4230W        W69457  24.225  21.243   1.742
 4231W        W69458   8.386  43.840   4.457
 4232W        W69459  32.449  18.156   4.252
 4233W        W69460  18.748  13.371  11.107
 4234W        W69461  26.535  34.999  11.494
 4235W        W69462  39.255  28.093   0.823
 4236W        W69463  35.535   0.712   4.174
 4237W        W69464  23.988   5.768  14.395
 4238W        W69465  21.335  37.380   1.316
 4239W        W69466  42.510   7.547  12.120
 4240W        W69467  10.416  25.221   0.852
 4241W        W69468  36.384  20.643   3.594
 4242W        W69469  29.580   4.748   0.262
 4243W        W69470  16.708  11.367  14.534
 4244W        W69471  36.248  15.726  13.412
 4245W        W69472  11.095   5.765   2.437
 4246W        W69473  17.587  27.495   1.991
 4247W        W69474   3.198  30.740   0.453
 4248W        W69475  38.735   4.289   9.956
 4249W        W69476  43.380  39.077  13.394
 4250W        W69477  25.083   3.159  14.911
 4251W        W69478  11.827   2.653   0.929
 4252W        W69479  24.883   9.081  11.095
 4253W        W69480   3.331  40.381  11.663
 4254W        W69481  24.156   0.932  11.758
 4255W        W69482  41.100  43.021  12.087
 4256W        W69483  35.089  27.262   1.649
 4257W        W69484  10.240   4.546   4.709
 4258W        W69485  24.924  35.513  13.487
 4259W        W69486  37.854  27.345  11.111
 4260W        W69487  41.974  42.380   2.921
 4261W        W69488  25.504  14.552  11.308
 4262W        W69489   9.457  15.015   1.742
 4263W        W69490  31.797  21.641  11.831
 4264W        W69491  18.165   4.749  14.829
 4265W        W69492  18.723  39.273  13.896
 4266W        W69493  25.744  15.578  12.404
 4267W        W69494  29.274  26.545   1.505
 4268W        W69495  24.453  27.638  11.595
 4269W        W69496  36.269   3.567  14.102
 4270W        W69497   6.397  38.910   0.930
 4271W        W69498  24.528  37.153   0.071
 4272W        W69499   1.679  22.019  11.086
 4273W        W69500   2.875  12.687  14.680
 4274W        W69501  29.157   9.433  11.168
 4275W        W69502  20.715  43.615  11.837
 4276W        W69503  30.150   9.433  12.029
 4277W        W69504   5.293  14.883   0.318
 4278W        W69505  44.751  18.626   1.166
 4279W        W69506   5.933  17.633  12.059
 4280W        W69507  13.280   2.785  12.518
 4281W        W69508  37.305   6.810   4.491
 4282W        W69509  42.805  26.711  11.071
 4283W        W69510   9.488  28.341  13.489
 4284W        W69511  43.264  33.406  10.414
 4285W        W69512  11.239   5.871   0.485
 4286W        W69513  42.803   9.954  13.060
 4287W        W69514  12.736  17.031  13.846
 4288W        W69515  18.753   9.096   2.584
 4289W        W69516  16.149  33.358   2.040
 4290W        W69517   3.822  28.488  12.931
 4291W        W69518  38.297  14.317  12.378
 4292W        W69519  40.789  30.445  11.067
 4293W        W69520   7.414  42.931   3.368
 4294W        W69521  32.125  20.088  12.628
 4295W        W69522  15.646  39.729  14.462
 4296W        W69523  43.274   1.165   0.974
 4297W        W69524   4.318  13.458  11.502
 4298W        W69525  15.390  24.210   3.081
 4299W        W69526  36.344  18.391  13.896
 4300W        W69527  22.265  27.075  12.955
 4301W        W69528  27.598  17.498  10.724
 4302W        W69529  15.141   5.313  14.888
 4303W        W69530  36.053  44.362  11.603
 4304W        W69531   4.700  12.482   2.651
 4305W        W69532   7.334  20.687   2.195
 4306W        W69533  21.710   6.653  14.918
 4307W        W69534  44.388  32.515  14.163
 4308W        W69535  26.455   3.564  13.005
 4309W        W69536  40.827  42.911  11.218
 4310W        W69537   8.846  38.846  14.542
 4311W        W69538  35.805  16.361  12.446
 4312W        W69539   5.676   6.408   2.391
 4313W        W69540  28.702   6.615   2.445
 4314W        W69541  37.575   0.030   2.403
 4315W        W69542  32.933   4.221   3.749
 4316W        W69543   6.641  40.252  11.441
 4317W        W69544   7.716  16.826  10.638
 4318W        W69545  17.634  41.351   1.267
 4319W        W69546  17.018  12.064   3.249
 4320W        W69547  39.863  10.912   0.907
 4321W        W69548  42.011  39.023   3.121
 4322W        W69549  17.816  33.108  12.671
 4323W        W69550   2.721  42.280   3.185
 4324W        W69551  30.224   2.371  10.766
 4325W        W69552  18.632  41.564  14.530
 4326W        W69553  34.289  19.084  14.773
 4327W        W69554   9.196   1.087  13.465
 4328W        W69555  14.685   5.558   3.717
 4329W        W69556  17.316  20.200  12.656
 4330W        W69557  15.189  43.709   1.231
 4331W        W69558  17.378   3.525   0.754
 4332W        W69559  31.937  34.824   5.021
 4333W        W69560  19.751  32.546  12.426
 4334W        W69561  41.406   9.412  11.610
 4335W        W69562  16.611  20.117  12.539
 4336W        W69563  42.434  41.774  14.377
 4337W        W69564  17.107  30.809  14.030
 4338W        W69565  33.075  30.920   4.651
 4339W        W69566  28.065  39.070  14.010
 4340W        W69567  29.495  36.811   2.345
 4341W        W69568   8.715  19.543   2.127
 4342W        W69569  43.786  36.403  13.943
 4343W        W69570  11.616  41.822  14.392
 4344W        W69571  31.127  25.993  12.821
 4345W        W69572   0.286  16.471   2.852
 4346W        W69573  40.314  14.892   3.997
 4347W        W69574  14.269  24.755  12.910
 4348W        W69575  27.166  21.207   2.093
 4349W        W69576  43.784   1.066   2.699
 4350W        W69577  38.810   7.261   3.965
 4351W        W69578   7.971  26.313   1.619
 4352W        W69579  35.303  39.842  10.152
 4353W        W69580  40.554  14.321  11.482
 4354W        W69581  24.941  12.467  12.510
 4355W        W69582  12.541  25.273  12.608
 4356W        W69583   2.886  42.640  10.653
 4357W        W69584   1.235  30.560  12.525
 4358W        W69585  34.801  31.533   2.652
 4359W        W69586  35.102  38.405   2.898
 4360W        W69587  22.807  31.529  13.471
 4361W        W69588  17.692  40.107   3.821
 4362W        W69589  12.789  24.932   2.295
 4363W        W69590  13.096  25.992   3.382
 4364W        W69591  42.883  15.656   4.006
 4365W        W69592   0.582   8.311   3.855
 4366W        W69593  12.652  23.993   2.614
 4367W        W69594  24.938  13.368   5.025
 4368W        W69595   8.963   0.512  11.089
 4369W        W69596   3.491  35.837   5.050
 4370W        W69597  34.058  33.489  14.553
 4371W        W69598  22.241  32.232   2.869
 4372W        W69599  22.274   5.252  12.884
 4373W        W69600  11.801  43.324   4.204
 4374W        W69601  29.688  22.489   2.855
 4375W        W69602   2.248  11.807   1.398
 4376W        W69603   6.701  34.993   3.858
 4377W        W69604  39.433  19.264   2.596
 4378W        W69605  41.902   6.179  12.554
 4379W        W69606  17.972  25.716  13.990
 4380W        W69607  39.687  20.680   4.102
 4381W        W69608   0.635  26.281  11.520
 4382W        W69609  40.523  17.579  12.190
 4383W        W69610  35.515  27.951  11.162
 4384W        W69611   4.712  22.205   0.765
 4385W        W69612  36.293  15.624  14.844
 4386W        W69613  42.318  33.917   2.017
 4387W        W69614   8.895  27.506  13.475
 4388W        W69615  29.496   2.756  14.454
 4389W        W69616  36.320  15.618  11.176
 4390W        W69617   9.738  12.552   1.944
 4391W        W69618  33.093  11.287   1.400
 4392W        W69619   0.538  32.031   1.183
 4393W        W69620  10.926  17.951   4.732
 4394W        W69621   6.843   2.224  10.504
 4395W        W69622  44.589   0.955   1.844
 4396W        W69623  16.857   5.030  14.480
 4397W        W69624   4.404  27.819  10.247
 4398W        W69625  22.759  37.639   0.481
 4399W        W69626  12.530  31.636   1.288
 4400W        W69627  10.412  32.490  12.568
 4401W        W69628  23.041  19.223  11.091
 4402W        W69629  10.465   4.204   0.768
 4403W        W69630  29.637   5.538  11.986
 4404W        W69631  29.737  35.988   1.752
 4405W        W69632  13.841   6.705  14.995
 4406W        W69633  20.222  17.267  11.653
 4407W        W69634  22.466  40.114  11.180
 4408W        W69635  14.681  34.384  12.481
 4409W        W69636  14.733   2.404   4.809
 4410W        W69637   9.398  22.537  13.364
 4411W        W69638  42.739  31.816  12.395
 4412W        W69639  31.488   4.457  10.832
 4413W        W69640  32.293  33.283  10.245
 4414W        W69641  14.554  42.956   2.959
 4415W        W69642   9.691  32.938  12.222
 4416W        W69643  27.435   0.845  14.049
 4417W        W69644  20.041  40.521  14.437
 4418W        W69645  20.940  21.875   0.898
 4419W        W69646  41.943  11.142   4.651
 4420W        W69647  19.766   9.243   1.406
 4421W        W69648  25.230  14.317   4.955
 4422W        W69649  31.024   5.278  14.964
 4423W        W69650  18.641  35.213  10.643
 4424W        W69651  22.488  27.115   0.115
 4425W        W69652   9.495  24.692  13.489
 4426W        W69653  36.470   1.358  14.191
 4427W        W69654  13.541  24.386   2.478
 4428W        W69655   4.701  22.841  14.907
 4429W        W69656   3.407   2.387   4.815
 4430W        W69657  30.527  17.955   2.225
 4431W        W69658  27.090  17.341   0.891
 4432W        W69659  39.310  38.843  13.390
 4433W        W69660  39.777  12.343   0.814
 4434W        W69661  19.499  36.882  11.576
 4435W        W69662  26.212  30.117   4.272
 4436W        W69663   5.734  25.547   1.847
 4437W        W69664  40.783  19.692  14.514
 4438W        W69665   9.132  23.557  13.976
 4439W        W69666   8.429  37.442   0.639
 4440W        W69667  34.437  25.721   5.337
 4441W        W69668  12.109  25.710   4.539
 4442W        W69669  33.354  44.854   2.447
 4443W        W69670   3.572  21.709  14.415
 4444W        W69671  35.525  21.010   1.151
 4445W        W69672  18.180  10.177   2.252
 4446W        W69673  35.942   5.565  10.043
 4447W        W69674  35.652  12.624   4.387
 4448W        W69675   1.500  17.252   1.919
 4449W        W69676  23.946  27.004  11.134
 4450W        W69677  32.863   8.002   3.113
 4451W        W69678  23.680  18.710  14.623
 4452W        W69679  32.130  10.273  11.570
 4453W        W69680   9.872  36.527   5.033
 4454W        W69681   7.618  22.352   5.174
 4455W        W69682   7.769  40.734   1.649
 4456W        W69683   2.432   7.055  12.534
 4457W        W69684  11.757  31.779   3.209
 4458W        W69685  19.983  22.052   1.800
 4459W        W69686  26.896  31.701  10.554
 4460W        W69687  18.514   2.961  13.002
 4461W        W69688  14.882  11.428   0.919
 4462W        W69689  29.163  39.980  12.414
 4463W        W69690  43.357   8.901   1.716
 4464W        W69691   8.655  35.647   2.228
 4465W        W69692   1.373  37.914  12.945
 4466W        W69693   8.286  20.974  14.010
 4467W        W69694  28.988  15.662  11.186
 4468W        W69695  36.330  28.651   3.347
 4469W        W69696   6.179  33.230   1.447
 4470W        W69697  40.337  31.879   1.974
 4471W        W69698  26.766   9.781  12.562
 4472W        W69699   9.608  43.281  13.322
 4473W        W69700  11.571  41.334   3.358
 4474W        W69701  11.276  26.730   0.622
 4475W        W69702  35.428  28.485  12.398
 4476W        W69703   8.111  13.714   9.819
 4477W        W69704   9.458  35.357  12.625
 4478W        W69705  25.027  26.608  12.326
 4479W        W69706  25.755  16.560  11.146
 4480W        W69707  34.509   1.384   3.648
 4481W        W69708  31.634  19.186   4.160
 4482W        W69709  38.401   7.124   1.158
 4483W        W69710  37.341  25.136  12.936
 4484W        W69711  34.516  25.536  10.713
 4485W        W69712  12.615  16.338   2.156
 4486W        W69713  31.903  41.340   3.093
 4487W        W69714  39.009  22.718   3.961
 4488W        W69715  33.725  12.078  13.937
 4489W        W69716  26.108   6.422   0.894
 4490W        W69717  44.788   8.941   2.772
 4491W        W69718  22.203  30.662   3.831
 4492W        W69719  22.955   4.886  12.059
 4493W        W69720  33.996   3.461  10.445
 4494W        W69721  26.711  16.212  11.270
 4495W        W69722   2.833  32.402   3.517
 4496W        W69723  40.127  21.200   0.290
 4497W        W69724  44.304  10.344  13.107
 4498W        W69725  34.339   2.680   2.265
 4499W        W69726  11.120  11.901  12.310
 4500W        W69727   1.474  29.332   3.240
 4501W        W69728   3.640   8.297   3.534
 4502W        W69729   2.768  20.308  12.554
 4503W        W69730   8.725  11.920   0.298
 4504W        W69731  40.562   7.377   5.335
 4505W        W69732  24.023  43.897  13.300
 4506W        W69733  37.436  36.187  11.995
 4507W        W69734  21.582  28.976  10.618
 4508W        W69735  39.857   7.669   3.128
 4509W        W69736  12.219  14.338  12.447
 4510W        W69737  13.294  22.630  13.671
 4511W        W69738  31.767  12.217   4.962
 4512W        W69739  34.887  31.067   2.429
 4513W        W69740  11.159  29.573   1.731
 4514W        W69741  29.082  21.179   0.642
 4515W        W69742  14.294  23.195  13.692
 4516W        W69743  18.214  12.805  13.549
 4517W        W69744   2.712  30.742   0.310
 4518W        W69745  18.213   8.742   0.288
 4519W        W69746   2.953  28.255  13.531
 4520W        W69747  33.864  42.264  12.654
 4521W        W69748  35.085   2.661   1.751
 4522W        W69749   0.409  13.089   3.185
 4523W        W69750  29.388  39.368  10.963
 4524W        W69751  29.037  41.529   0.320
 4525W        W69752  20.709  32.565  13.386
 4526W        W69753  34.351  25.603   4.316
 4527W        W69754  17.825  44.970  14.731
 4528W        W69755  40.577   5.962   2.287
 4529W        W69756  39.807  15.536   3.692
 4530W        W69757  43.064  12.088  14.881
 4531W        W69758  40.028  14.817  13.765
 4532W        W69759  16.833   0.233   2.949
 4533W        W69760  29.974  22.191   4.617
 4534W        W69761   4.674   3.732   4.706
 4535W        W69762  40.006  37.994   2.712
 4536W        W69763   3.905  15.100   0.485
 4537W        W69764  44.503  22.140  12.155
 4538W        W69765  27.737   9.220  13.967
 4539W        W69766   4.503  10.575   0.995
 4540W        W69767  40.910   6.101  11.638
 4541W        W69768  36.901  13.450   0.355
 4542W        W69769  22.503  23.163   2.927
 4543W        W69770   1.354  16.773   2.356
 4544W        W69771  15.580  16.410  14.476
 4545W        W69772  38.165  44.852   1.357
 4546W        W69773  39.264  40.921   3.668
 4547W        W69774   9.385  21.534   4.453
 4548W        W69775  34.547  27.239   0.393
 4549W        W69776  11.934  24.508   0.517
 4550W        W69777  19.204  13.392   2.421
 4551W        W69778  29.628  43.449  12.583
 4552W        W69779  44.484  21.563  12.951
 4553W        W69780  14.291  16.418   3.424
 4554W        W69781  16.279  42.408   1.350
 4555W        W69782  26.111  41.790  14.384
 4556W        W69783   3.468  37.568  10.899
 4557W        W69784  25.491  13.180   1.811
 4558W        W69785  21.046  32.489   2.463
 4559W        W69786  20.276   7.846   3.680
 4560W        W69787  42.915  42.417   3.235
 4561W        W69788   7.752   3.889  13.116
 4562W        W69789  43.348  32.442  11.177
 4563W        W69790  25.143  24.296  13.399
 4564W        W69791  29.689  11.338  13.001
 4565W        W69792  31.497  42.760   3.641
 4566W        W69793   4.218  22.100  11.110
 4567W        W69794  27.458   3.334   0.251
 4568W        W69795  16.560  42.855  14.517
 4569W        W69796  38.432  23.317   4.562
 4570W        W69797  25.753   2.417   1.740
 4571W        W69798   7.332  30.524   4.643
 4572W        W69799  17.526  11.265   1.711
 4573W        W69800  36.005  23.851  13.282
 4574W        W69801  11.744  40.401  11.014
 4575W        W69802   4.291  42.525  12.010
 4576W        W69803  20.349  13.850   3.869
 4577W        W69804  42.028   5.980  14.931
 4578W        W69805  29.787  11.753   4.367
 4579W        W69806   6.138  23.462  14.224
 4580W        W69807  21.298   0.798  12.488
 4581W        W69808   3.296  22.853   2.145
 4582W        W69809  42.271  43.903  10.795
 4583W        W69810   8.832  10.874  11.945
 4584W        W69811  21.023   5.787   2.994
 4585W        W69812  39.038  13.324  11.203
 4586W        W69813   4.397  18.305  14.537
 4587W        W69814  24.596  31.581   2.199
 4588W        W69815  18.985  18.648  10.611
 4589W        W69816  35.438   4.126   0.792
 4590W        W69817  17.286  11.842  11.550
 4591W        W69818  18.482  40.870   3.799
 4592W        W69819   1.652  29.993   2.816
 4593W        W69820  24.489  36.508   2.785
 4594W        W69821   7.471   5.931  10.857
 4595W        W69822  21.658  25.188   4.393
 4596W        W69823  30.560  37.562   0.494
 4597W        W69824  23.247  14.626   0.851
 4598W        W69825   3.271  32.549   3.731
 4599W        W69826  27.132   2.639   1.338
 4600W        W69827  31.336  18.264   0.413
 4601W        W69828  20.234  10.826  10.673
 4602W        W69829  27.595  25.153  10.248
 4603W        W69830  29.278   8.868  14.530
 4604W        W69831  23.671  44.869   0.898
 4605W        W69832  30.983  41.069  10.655
 4606W        W69833  18.397  36.076   2.925
 4607W        W69834  28.993  14.717  12.013
 4608W        W69835  34.361  42.377   0.831
 4609W        W69836  12.114  42.554  13.852
 4610W        W69837   1.282  34.152   2.920
 4611W        W69838  26.073  15.865   1.047
 4612W        W69839   1.968  32.177   2.274
 4613W        W69840  31.901   3.403  14.893
 4614W        W69841  13.338   0.390  13.774
 4615W        W69842   3.174  34.509  12.358
 4616W        W69843  24.233  17.673  14.798
 4617W        W69844  12.361  24.654   2.201
 4618W        W69845   4.386  11.757  14.238
 4619W        W69846  12.469  33.639   0.077
 4620W        W69847  10.815  22.816   4.715
 4621W        W69848   2.204  42.264   3.218
 4622W        W69849  26.280  14.821  13.734
 4623W        W69850  30.019  31.560   2.437
 4624W        W69851   1.215  28.043  14.698
 4625W        W69852  37.473   2.757  11.929
 4626W        W69853  31.491  18.990  13.052
 4627W        W69854  19.580  41.232   4.190
 4628W        W69855  41.754  17.040  14.136
 4629W        W69856  11.836  17.752  12.909
 4630W        W69857  20.336  27.679   2.428
 4631W        W69858  43.055  36.299  12.597
 4632W        W69859  18.138  22.667   4.116
 4633W        W69860  29.721  30.151  11.919
 4634W        W69861  25.539   8.650   3.667
 4635W        W69862  21.607   2.225   4.478
 4636W        W69863   6.550   3.496  13.848
 4637W        W69864   9.323  10.447   2.201
 4638W        W69865  21.996   2.374  12.155
 4639W        W69866  10.041   8.170  13.272
 4640W        W69867  11.705  34.586  13.897
 4641W        W69868   5.295   4.956  12.050
 4642W        W69869  21.456  43.241  10.960
 4643W        W69870  21.448  43.991  13.226
 4644W        W69871  40.281  37.504   4.134
 4645W        W69872  24.728  37.508  11.580
 4646W        W69873   1.898  11.825  10.783
 4647W        W69874  31.943   9.291   0.145
 4648W        W69875  42.110  30.941   1.238
 4649W        W69876  24.817  29.854   0.428
 4650W        W69877  14.844  40.987  12.906
 4651W        W69878  16.013  29.224  11.764
 4652W        W69879  41.354   8.892  14.914
 4653W        W69880  20.062  15.481  14.786
 4654W        W69881  41.861  12.463   3.312
 4655W        W69882  30.164   5.870  14.946
 4656W        W69883  19.254  43.997   0.305
 4657W        W69884  22.471  22.065   2.062
 4658W        W69885  32.495  17.788   3.246
 4659W        W69886   0.913  12.028  10.742
 4660W        W69887  30.934  19.721   2.248
 4661W        W69888  15.616  23.121  13.855
 4662W        W69889  40.035  16.910   4.132
 4663W        W69890   6.663   7.702   2.985
 4664W        W69891  24.654  43.659   5.043
 4665W        W69892   4.766   9.215   4.229
 4666W        W69893   1.368  35.796  11.512
 4667W        W69894  27.086  19.593   4.578
 4668W        W69895  42.684  28.548  11.560
 4669W        W69896  43.680  18.233  11.998
 4670W        W69897  35.463  36.663  12.651
 4671W        W69898  39.575  14.796   2.509
 4672W        W69899   7.863  42.300  11.612
 4673W        W69900   2.452  12.528  11.585
 4674W        W69901  24.705  42.404  14.166
 4675W        W69902   4.570  29.611   2.394
 4676W        W69903  37.559  26.809  14.800
 4677W        W69904  41.001   2.381  10.957
 4678W        W69905   2.413  23.177  10.575
 4679W        W69906   6.220  34.361   0.849
 4680W        W69907  25.731  20.228   0.949
 4681W        W69908   4.519  41.226   2.802
 4682W        W69909  20.028  32.357   0.858
 4683W        W69910   9.777  29.926  14.118
 4684W        W69911  16.788  26.729   4.093
 4685W        W69912  19.519  44.720   3.684
 4686W        W69913  42.058  28.104  14.450
 4687W        W69914  22.476  42.280   5.131
 4688W        W69915  22.076  36.404  12.973
 4689W        W69916  33.373  21.956   3.573
 4690W        W69917  22.522  44.436  14.038
 4691W        W69918   5.348  39.572   0.830
 4692W        W69919  10.692  43.967   4.401
 4693W        W69920   3.346  42.153   4.143
 4694W        W69921  13.886  44.380   1.422
 4695W        W69922  35.914  27.592  14.805
 4696W        W69923  17.978  22.583  12.000
 4697W        W69924   6.491   0.419   0.472
 4698W        W69925  26.990  20.707  14.790
 4699W        W69926  38.481  20.589   4.724
 4700W        W69927   0.922  14.160   2.728
 4701W        W69928   0.491  23.906   0.939
 4702W        W69929   6.381   9.228   0.313
 4703W        W69930   1.749  37.784   4.513
 4704W        W69931  34.922  28.237  13.442
 4705W        W69932   8.563  21.057  14.739
 4706W        W69933  20.041  16.790  13.523
 4707W        W69934  34.710  38.505  11.049
 4708W        W69935  11.255  23.010   0.868
 4709W        W69936  34.069  30.847  13.110
 4710W        W69937  23.456  43.718  11.552
 4711W        W69938   6.643  24.654  11.746
 4712W        W69939  35.967   4.778   4.543
 4713W        W69940  23.362  24.145   2.384
 4714W        W69941   0.722  25.998   4.977
 4715W        W69942   2.785  35.919   0.808
 4716W        W69943   4.978  44.384  12.510
 4717W        W69944  17.648   3.696   3.670
 4718W        W69945  24.242  38.279   1.231
 4719W        W69946  10.939  37.424  12.247
 4720W        W69947  18.118   7.943   3.762
 4721W        W69948  17.149  36.519   0.268
 4722W        W69949  22.953   8.851   5.188
 4723W        W69950  22.558  29.921  11.892
 4724W        W69951  39.785  17.104  12.145
 4725W        W69952  27.520  39.407  10.649
 4726W        W69953   3.952   4.515  14.099
 4727W        W69954  39.259  15.780   3.155
 4728W        W69955  25.749  14.149  11.518
 4729W        W69956  25.162   2.525  13.457
 4730W        W69957  27.002  39.295  13.193
 4731W        W69958  21.671  34.453   1.320
 4732W        W69959  32.478  24.040   1.017
 4733W        W69960   7.249  12.704   4.890
 4734W        W69961   3.170  17.691   4.624
 4735W        W69962  25.064  12.680   1.446
 4736W        W69963   7.472  29.030   2.336
 4737W        W69964  21.269  22.672   0.175
 4738W        W69965  13.183  43.857   3.971
 4739W        W69966  43.524  38.502  14.923
 4740W        W69967  21.653   6.852  12.810
 4741W        W69968  28.498  35.911   4.465
 4742W        W69969   4.160  38.950  12.638
 4743W        W69970  12.024   5.300   0.526
 4744W        W69971  30.026  19.989  11.238
 4745W        W69972  21.121  26.642  11.437
 4746W        W69973  38.605  26.951   3.833
 4747W        W69974   9.349   4.611  11.036
 4748W        W69975  24.279  31.519   2.643
 4749W        W69976   2.239   5.220   4.294
 4750W        W69977  13.527  29.236  13.956
 4751W        W69978   2.058  34.682   4.171
 4752W        W69979  25.433  33.461  11.904
 4753W        W69980  19.714  18.029   2.765
 4754W        W69981  12.752  13.837  13.179
 4755W        W69982  30.568  15.297  11.105
 4756W        W69983  37.545  38.364  12.406
 4757W        W69984   1.806   7.026   0.038
 4758W        W69985  14.386  10.141  14.469
 4759W        W69986  29.425  32.363   3.663
 4760W        W69987  36.275  10.180   1.831
 4761W        W69988  39.572  11.123  13.455
 4762W        W69989  30.900   9.940   2.298
 4763W        W69990  43.451  41.152  12.041
 4764W        W69991  31.891  27.461  14.032
 4765W        W69992  14.950  40.964   3.580
 4766W        W69993  23.031   6.724   0.812
 4767W        W69994  15.365  11.782   0.329
 4768W        W69995  38.281   9.202  11.819
 4769W        W69996   1.842   8.644   0.630
 4770W        W69997  42.627  17.140   2.650
 4771W        W69998  11.218  11.778   1.291
 4772W        W69999   7.157  44.361  14.312
 4773W        W70000   5.001  36.261  10.662
 4774W        W70001  17.191   9.861   4.927
 4775W        W70002  40.424  10.839   0.362
 4776W        W70003  41.374  17.322  13.866
 4777W        W70004  18.024  33.036  10.471
 4778W        W70005  13.501  25.735   2.686
 4779W        W70006  35.466  29.524   3.872
 4780W        W70007   2.248  32.197   3.282
 4781W        W70008   0.029  12.123   4.103
 4782W        W70009  10.705  37.806  13.887
 4783W        W70010  30.502  43.720  10.693
 4784W        W70011  21.113  10.357   4.508
 4785W        W70012  41.630  30.131  11.074
 4786W        W70013  43.677  12.373   3.200
 4787W        W70014  10.907  41.550   4.148
 4788W        W70015   1.460  19.290   1.020
 4789W        W70016  17.561  40.277  10.765
 4790W        W70017   2.170  29.398  14.212
 4791W        W70018  35.503  24.934  13.037
 4792W        W70019  13.930  14.763  12.589
 4793W        W70020  37.472  10.744   3.639
 4794W        W70021  23.279   1.033  13.955
 4795W        W70022  29.743  14.471   0.756
 4796W        W70023  17.982  32.692   0.247
 4797W        W70024  36.748   5.785   0.772
 4798W        W70025  20.092  28.482  13.795
 4799W        W70026  40.632  32.425   3.147
 4800W        W70027  39.047  34.427   1.758
 4801W        W70028  39.497  27.409   0.001
 4802W        W70029  11.291  26.164   4.723
 4803W        W70030  28.482  22.044  13.418
 4804W        W70031  37.659  36.453   4.587
 4805W        W70032   2.779   3.689   0.492
 4806W        W70033  18.543   1.512  12.541
 4807W        W70034  12.807  42.570   0.931
 4808W        W70035  17.252   2.697  10.768
 4809W        W70036  32.831  34.477   2.294
 4810W        W70037   0.996  34.930  13.804
 4811W        W70038  42.531  42.122  12.975
 4812W        W70039   8.388  38.785   0.719
 4813W        W70040  41.992  35.310   0.377
 4814W        W70041  42.392  20.438  14.403
 4815W        W70042  21.986  31.080   2.291
 4816W        W70043  44.891  25.090  14.245
 4817W        W70044  38.233  19.175   4.822
 4818W        W70045  44.288  29.812   2.744
 4819W        W70046  21.533  13.866  12.460
 4820W        W70047  17.678  33.233  12.150
 4821W        W70048  41.356   4.251  11.566
 4822W        W70049   8.398  44.825   3.133
 4823W        W70050  18.601   1.888   0.343
 4824W        W70051  35.136  32.103   3.973
 4825W        W70052  35.015  33.580  12.798
 4826W        W70053  43.926  27.685   0.449
 4827W        W70054  16.767  14.413   2.594
 4828W        W70055  25.650  42.536   2.864
 4829W        W70056  17.766  17.024   1.907
 4830W        W70057  13.827   4.882   0.887
 4831W        W70058  36.802  35.616  12.386
 4832W        W70059  35.766  26.074  10.726
 4833W        W70060  28.253  17.560  11.217
 4834W        W70061   0.391   5.007  12.507
 4835W        W70062  39.713   9.849   0.846
 4836W        W70063  30.414  15.885   3.949
 4837W        W70064  30.145  43.366  11.571
 4838W        W70065  32.023  27.700   1.333
 4839W        W70066  11.870  18.264  10.157
 4840W        W70067  10.285  18.866   3.293
 4841W        W70068  19.775  29.455  10.735
 4842W        W70069  11.366  39.628   3.195
 4843W        W70070  41.945  22.073   1.517
 4844W        W70071  40.427  14.464   0.539
 4845W        W70072  18.091  40.773  14.853
 4846W        W70073  29.155   8.241   0.892
 4847W        W70074   8.135  35.971  11.103
 4848W        W70075  37.535   6.574   4.057
 4849W        W70076  38.548  18.867   1.416
 4850W        W70077  28.982  22.597  13.314
 4851W        W70078  17.176  24.190  12.063
 4852W        W70079  10.406  16.344   0.341
 4853W        W70080  38.868  31.973   4.098
 4854W        W70081  31.486  19.003   1.282
 4855W        W70082  15.061  17.255   2.312
 4856W        W70083  28.683  19.988  12.502
 4857W        W70084  11.960   3.893   3.375
 4858W        W70085  27.098  19.768   0.742
 4859W        W70086  42.829  39.606   3.764
 4860W        W70087   2.420  15.083   0.362
 4861W        W70088  23.990  13.685   2.660
 4862W        W70089  29.192  39.091   2.694
 4863W        W70090  10.456   0.283   4.178
 4864W        W70091  17.997  14.723   4.068
 4865W        W70092   1.935  15.502   5.019
 4866W        W70093  10.149   4.261   3.063
 4867W        W70094  21.673  26.158  14.310
 4868W        W70095  13.053   7.312  11.042
 4869W        W70096  31.587  30.439   0.411
 4870W        W70097  38.986  33.441  13.092
 4871W        W70098  35.525   4.923  11.881
 4872W        W70099  13.073  15.616   1.833
 4873W        W70100  12.392  13.891  11.140
 4874W        W70101  41.467  42.391  14.027
 4875W        W70102  36.049  14.921  14.391
 4876W        W70103   8.211  38.933  12.998
 4877W        W70104   6.893  43.275  10.951
 4878W        W70105  30.336   2.398  11.279
 4879W        W70106  30.243   4.060  14.024
 4880W        W70107  31.193  38.455   4.582
 4881W        W70108  38.647  39.378  13.595
 4882W        W70109  36.619   3.365  11.952
 4883W        W70110  11.926   6.315   3.879
 4884W        W70111  13.558  20.286  12.596
 4885W        W70112  16.873  15.224  13.067
 4886W        W70113  39.371  16.304  10.807
 4887W        W70114  15.410  29.196  13.578
 4888W        W70115  29.057  39.385   9.906
 4889W        W70116  29.410  43.436  12.082
 4890W        W70117   5.963  42.540  11.138
 4891W        W70118  29.139   0.688  12.537
 4892W        W70119   1.866  12.158   3.877
 4893W        W70120  34.764  37.923   4.211
 4894W        W70121  29.747  42.999  11.578
 4895W        W70122  22.604  35.675  12.054
 4896W        W70123  15.861  22.337  10.165
 4897W        W70124  16.160   2.328  12.076
 4898W        W70125  22.598  44.549   2.863
 4899W        W70126   1.835  29.641   5.090
 4900W        W70127  23.867   8.460   4.110
 4901W        W70128  38.969  35.625  11.204
 4902W        W70129  35.641  35.631   1.784
 4903W        W70130  17.318  42.831  11.143
 4904W        W70131  17.686  35.998  12.432
 4905W        W70132  19.749  29.407   2.218
 4906W        W70133   6.420  26.033  13.183
 4907W        W70134  15.818  24.659   1.853
 4908W        W70135  32.508  25.325  14.648
 4909W        W70136   2.547  43.985   0.853
 4910W        W70137  36.414   5.411   2.367
 4911W        W70138  24.612  20.623  10.399
 4912W        W70139  35.487  10.825  10.731
 4913W        W70140  26.592  23.986   3.189
 4914W        W70141  37.054   1.503  13.028
 4915W        W70142   9.422  35.428   4.295
 4916W        W70143   1.333  23.281  13.038
 4917W        W70144  16.837  25.566   2.242
 4918W        W70145  36.636  31.600  13.530
 4919W        W70146  26.598  41.732   3.736
 4920W        W70147  14.225  19.261   4.926
 4921W        W70148  29.108   3.737  12.008
 4922W        W70149  27.021   1.422   2.480
 4923W        W70150   7.657  32.064   3.337
 4924W        W70151  33.572  13.538   3.944
 4925W        W70152  27.001   7.751  10.729
 4926W        W70153   4.206  20.218   3.283
 4927W        W70154  15.128  42.103   4.317
 4928W        W70155  10.368  30.959  11.987
 4929W        W70156  21.659  15.281  10.683
 4930W        W70157  26.881   8.813   1.236
 4931W        W70158  33.583  23.033  14.537
 4932W        W70159  13.020  44.531   2.936
 4933W        W70160  27.609   0.922  10.137
 4934W        W70161  19.140   1.663   3.532
 4935W        W70162  29.128  44.058   0.185
 4936W        W70163  13.121  28.938   4.073
 4937W        W70164   2.747   0.403   1.372
 4938W        W70165   3.370  39.788  11.982
 4939W        W70166   8.281   3.926  14.822
 4940W        W70167  35.114  41.091   3.319
 4941W        W70168  32.996  33.914  12.607
 4942W        W70169  12.229  11.072   0.612
 4943W        W70170  13.334  20.003  10.887
 4944W        W70171  43.247  23.354  12.609
 4945W        W70172  27.863  25.220   0.892
 4946W        W70173  41.223   1.171  13.423
 4947W        W70174  22.934   3.916   0.951
 4948W        W70175   9.135  13.739   4.160
 4949W        W70176  26.273   1.995   3.737
 4950W        W70177  43.525  18.772   2.087
 4951W        W70178  14.601   9.170  13.780
 4952W        W70179  39.060  17.623  11.842
 4953W        W70180  20.151  26.453   2.785
 4954W        W70181  32.034   7.958  11.738
 4955W        W70182  37.098  29.494   5.215
 4956W        W70183   3.070  16.707  14.469
 4957W        W70184  21.496  39.988   2.953
 4958W        W70185  42.620   6.102   3.135
 4959W        W70186  26.785  17.080   4.076
 4960W        W70187   8.989  24.558   2.876
 4961W        W70188   1.253   6.112   4.613
 4962W        W70189  20.689  27.643  14.004
 4963W        W70190  43.819  38.274  11.531
 4964W        W70191  26.374  11.401  11.987
 4965W        W70192  19.690   4.145   2.208
 4966W        W70193  27.513  16.041  11.668
 4967W        W70194  20.803  21.112   4.638
 4968W        W70195  23.915  18.778  13.788
 4969W        W70196   4.318  29.488  14.946
 4970W        W70197  13.196  10.626   2.775
 4971W        W70198   7.687  17.984   5.011
 4972W        W70199  10.668  16.582   3.608
 4973W        W70200  42.449  42.524   2.699
 4974W        W70201  44.258  32.081   2.980
 4975W        W70202   0.713   9.225  12.678
 4976W        W70203  27.445  17.999  14.160
 4977W        W70204   2.414  35.075   4.182
 4978W        W70205  36.446  18.105   3.953
 4979W        W70206  33.014  24.722  12.147
 4980W        W70207   1.506  42.978  12.785
 4981W        W70208  36.335  15.360   0.987
 4982W        W70209  35.786  21.783  12.161
 4983W        W70210  31.005  25.283   0.497
 4984W        W70211  12.789   4.140  12.755
 4985W        W70212  39.780  11.579  13.308
 4986W        W70213  42.795  38.952   2.595
 4987W        W70214  11.474  13.226   3.357
 4988W        W70215  24.561  17.159  14.942
 4989W        W70216   5.288  34.752  12.984
 4990W        W70217   1.236  28.858  12.177
 4991W        W70218  16.209  39.510   4.584
 4992W        W70219  15.694  21.748  13.500
 4993W        W70220  21.014  20.748  10.745
 4994W        W70221  35.955  10.638   2.902
 4995W        W70222  35.534  26.257  11.894
 4996W        W70223  22.180  42.845  12.136
 4997W        W70224  24.844  35.896  14.386
 4998W        W70225  31.422   0.094  13.151
 4999W        W70226  34.160  36.414  10.141
 5000W        W70227  24.729  27.487  11.149
 5001W        W70228  13.021   6.878  10.755
 5002W        W70229  30.486  27.924  13.078
 5003W        W70230  12.642  16.065  11.142
 5004W        W70231   8.217   2.389   0.013
 5005W        W70232  27.280  44.963  11.788
 5006W        W70233  41.401   7.270  14.354
 5007W        W70234  33.012  44.061   4.592
 5008W        W70235  22.631   8.165  11.735
 5009W        W70236  12.304  42.484   4.574
 5010W        W70237  21.037  35.920  12.066
 5011W        W70238  43.585  43.543  12.464
 5012W        W70239  23.842   3.774  12.574
 5013W        W70240  44.674  20.007  14.990
 5014W        W70241  38.803   1.674  11.545
 5015W        W70242  27.051   1.181   1.443
 5016W        W70243  25.545  14.275   1.863
 5017W        W70244  15.373  31.580  14.831
 5018W        W70245  33.029  40.811  10.678
 5019W        W70246  16.919  20.460   4.634
 5020W        W70247  41.332  25.515  11.023
 5021W        W70248  26.187  21.671   1.190
 5022W        W70249  13.200  30.388  10.718
 5023W        W70250  21.340  15.250  13.020
 5024W        W70251  35.025  10.811  12.275
 5025W        W70252  18.890  32.158   0.005
 5026W        W70253  36.899  37.473   4.518
 5027W        W70254  15.234  19.243   1.819
 5028W        W70255  11.259  10.638   4.569
 5029W        W70256   4.327  17.054  13.917
 5030W        W70257   6.908  32.123  12.135
 5031W        W70258  16.830   4.348  12.533
 5032W        W70259  12.115  14.039  14.826
 5033W        W70260  17.700  38.266   2.050
 5034W        W70261  10.227   5.960  10.816
 5035W        W70262  36.039  26.703   2.775
 5036W        W70263  18.698  27.719  12.575
 5037W        W70264  24.949  33.416  12.084
 5038W        W70265  36.581   1.996  12.483
 5039W        W70266  44.782  36.863   3.355
 5040W        W70267  12.268  34.606  13.833
 5041W        W70268  23.917  29.459   3.277
 5042W        W70269  41.355   0.198  12.658
 5043W        W70270  43.040   6.670   4.625
 5044W        W70271  34.546   6.344   2.657
 5045W        W70272  19.134  19.146  10.789
 5046W        W70273  21.302  20.339  10.270
 5047W        W70274  42.774   1.948   4.639
 5048W        W70275  41.861  37.894   0.412
 5049W        W70276  43.366  23.809   2.202
 5050W        W70277   5.360  15.520   0.927
 5051W        W70278   4.496  17.247  13.381
 5052W        W70279  43.205  18.113  12.878
 5053W        W70280  24.076  16.220  14.992
 5054W        W70281  43.023  17.684  13.731
 5055W        W70282  18.072  23.791  13.770
 5056W        W70283   8.779  32.494   1.386
 5057W        W70284  27.579  18.655   4.484
 5058W        W70285   0.986  44.859   3.191
 5059W        W70286  39.987   3.168   0.459
 5060W        W70287   0.798   6.530  13.092
 5061W        W70288  18.590   1.016  11.615
 5062W        W70289  41.676  21.936  12.124
 5063W        W70290  39.001   1.030  12.913
 5064W        W70291  23.706   6.665  14.275
 5065W        W70292  27.775   4.359   0.933
 5066W        W70293   9.184   6.833  11.549
 5067W        W70294  36.602   7.149  11.135
 5068W        W70295   1.909  39.480  13.143
 5069W        W70296  39.866  27.988  13.906
 5070W        W70297  17.662  20.314   3.225
 5071W        W70298  37.513   1.716  11.979
 5072W        W70299   0.706  10.124  11.623
 5073W        W70300  21.226  14.202  12.985
 5074W        W70301  36.867  34.391   3.230
 5075W        W70302  35.057  15.990  10.715
 5076W        W70303   0.758  38.455   3.868
 5077W        W70304  15.233   7.699  12.950
 5078W        W70305  42.381  38.241   1.280
 5079W        W70306  28.976  13.568   3.341
 5080W        W70307   5.503  16.063  14.298
 5081W        W70308   7.976  22.549  10.818
 5082W        W70309   7.380  27.668   1.275
 5083W        W70310  24.890  37.693  12.949
 5084W        W70311  18.447  29.147   0.739
 5085W        W70312   5.232  37.618   2.292
 5086W        W70313  18.199  15.856   0.380
 5087W        W70314  12.134  27.710   4.343
 5088W        W70315  37.362  28.617  14.506
 5089W        W70316   3.432  26.892  12.453
 5090W        W70317   4.615  15.234  14.975
 5091W        W70318  25.418  35.280  13.130
 5092W        W70319  26.128  15.158  14.279
 5093W        W70320  42.031  26.210   2.305
 5094W        W70321  30.543   9.281   1.222
 5095W        W70322  41.371   1.377   3.691
 5096W        W70323   4.282  22.721   0.248
 5097W        W70324   7.163  24.568   3.626
 5098W        W70325  41.528  44.479   0.012
 5099W        W70326  18.105  10.560   4.080
 5100W        W70327  17.333  31.623   0.887
 5101W        W70328  16.491  11.604   0.900
 5102W        W70329  16.562  35.010   3.150
 5103W        W70330  20.766  40.612  11.584
 5104W        W70331  19.047  44.712   0.991
 5105W        W70332  24.743  36.464   3.240
 5106W        W70333  31.583   0.737   1.924
 5107W        W70334   6.426  21.970  12.778
 5108W        W70335  39.889  35.834   1.343
 5109W        W70336  10.447  26.015  10.886
 5110W        W70337  41.949  30.076   4.157
 5111W        W70338  25.603  24.241   1.423
 5112W        W70339  32.632  35.605  11.760
 5113W        W70340  20.767  34.101   3.186
 5114W        W70341  28.009  29.812  10.658
 5115W        W70342  11.180   6.961   3.201
 5116W        W70343  24.993  32.827   1.966
 5117W        W70344  30.162  32.274  13.813
 5118W        W70345  14.873   3.294   0.408
 5119W        W70346   7.365  12.719  12.131
 5120W        W70347   3.964  15.515  12.945
 5121W        W70348  35.341  34.977  11.530
 5122W        W70349  41.225  29.692  10.640
 5123W        W70350  20.666   4.810  12.473
 5124W        W70351  22.826   0.788  13.892
 5125W        W70352   4.381  42.981  14.121
 5126W        W70353   9.712  34.152   3.121
 5127W        W70354  36.751  20.582  11.080
 5128W        W70355  38.790  18.502   2.898
 5129W        W70356  44.487   7.126  13.816
 5130W        W70357  11.336  23.506  14.376
 5131W        W70358   4.275  26.730   1.667
 5132W        W70359  34.620  10.611  14.018
 5133W        W70360   3.056  31.864   1.230
 5134W        W70361  24.815   3.537  11.920
 5135W        W70362  19.329  31.817   0.780
 5136W        W70363  27.029  22.294  11.528
 5137W        W70364  11.973  32.685   1.667
 5138W        W70365  25.984   8.838   4.878
 5139W        W70366  13.255  39.673   0.203
 5140W        W70367  15.821  22.492  11.200
 5141W        W70368  38.013  25.991   4.598
 5142W        W70369  26.265  43.533   1.770
 5143W        W70370  33.855  31.849  12.979
 5144W        W70371  27.586   1.466   0.924
 5145W        W70372  18.130  38.442   1.759
 5146W        W70373  26.479  42.533  14.694
 5147W        W70374  29.639  11.658   0.233
 5148W        W70375   5.052  41.395   0.981
 5149W        W70376   0.621  22.193  14.986
 5150W        W70377  35.421  43.499  12.411
 5151W        W70378  22.911  17.856   1.047
 5152W        W70379  41.097  11.309  11.640
 5153W        W70380  22.048  33.489   4.923
 5154W        W70381  40.756  36.452   2.906
 5155W        W70382   2.485  12.167  12.428
 5156W        W70383  16.976  25.680   9.975
 5157W        W70384  28.605  38.018   3.903
 5158W        W70385  38.008  43.931  10.891
 5159W        W70386  10.846   9.303   0.728
 5160W        W70387  32.076  37.770  11.259
 5161W        W70388  14.338  17.592  11.241
 5162W        W70389  43.102   5.724   4.299
 5163W        W70390  28.072  11.832  13.544
 5164W        W70391  26.196  22.668  13.319
 5165W        W70392  37.831  10.398  13.688
 5166W        W70393  23.627  11.601  12.027
 5167W        W70394  14.436   7.312   1.251
 5168W        W70395  31.804  44.743  13.258
 5169W        W70396  39.965  12.363  14.847
 5170W        W70397  17.552  11.849   3.155
 5171W        W70398  19.980  34.489  13.772
 5172W        W70399   8.104  19.736  12.871
 5173W        W70400  10.268   2.080   4.623
 5174W        W70401  17.665   7.066   3.669
 5175W        W70402  29.489  22.668  13.431
 5176W        W70403  24.470  44.806  13.470
 5177W        W70404   2.696  22.051  10.180
 5178W        W70405  35.283  23.018   3.697
 5179W        W70406  38.398  22.998   1.807
 5180W        W70407  23.547   2.468   0.825
 5181W        W70408   2.277  18.736   4.707
 5182W        W70409  22.203  30.930   4.268
 5183W        W70410   0.529  26.513  14.906
 5184W        W70411   3.881  20.179   4.687
 5185W        W70412  34.151  26.707  11.570
 5186W        W70413  33.642  27.551   9.819
 5187W        W70414  39.112  39.316  13.391
 5188W        W70415  10.768  23.515  11.733
 5189W        W70416  32.573   1.079  13.887
 5190W        W70417   3.225  38.244   4.152
 5191W        W70418  34.855  16.841  12.412
 5192W        W70419  26.681  19.335  11.974
 5193W        W70420  24.929  15.996  12.018
 5194W        W70421  27.512  20.802  11.079
 5195W        W70422  31.936   2.105   1.545
 5196W        W70423  34.434   8.360  13.557
 5197W        W70424   6.862  22.172  12.566
 5198W        W70425   9.172  41.327   0.380
 5199W        W70426  17.554  27.664   3.262
 5200W        W70427  41.041  38.979   1.268
 5201W        W70428  36.565  35.960  14.973
 5202W        W70429  15.293   5.333  12.451
 5203W        W70430  21.056  19.457  14.927
 5204W        W70431  23.153   8.693  11.602
 5205W        W70432  24.309  17.525   2.947
 5206W        W70433  28.173  35.193   0.458
 5207W        W70434  27.939  24.372   4.492
 5208W        W70435  21.702  16.324  13.304
 5209W        W70436  44.528  21.634  14.346
 5210W        W70437   5.808   3.263  10.517
 5211W        W70438  18.689   7.081   4.646
 5212W        W70439  28.049  19.943   2.666
 5213W        W70440  37.966  22.245   1.747
 5214W        W70441  15.296  16.424   3.610
 5215W        W70442  41.917  36.991   2.922
 5216W        W70443  21.204  21.785   3.439
 5217W        W70444   4.375   7.633  12.038
 5218W        W70445  37.105  38.721   2.772
 5219W        W70446  33.391  43.540  10.652
 5220W        W70447  34.025  14.041   1.332
 5221W        W70448  18.225   4.710  13.805
 5222W        W70449  11.278  15.197   1.660
 5223W        W70450  13.728  28.154  12.942
 5224W        W70451  11.383  44.425  10.848
 5225W        W70452  14.602   4.226   4.702
 5226W        W70453  44.679  27.630   2.801
 5227W        W70454   5.543  33.576   3.297
 5228W        W70455  35.776  43.857  12.381
 5229W        W70456   2.237  42.088   2.737
 5230W        W70457  41.140  35.288  13.986
 5231W        W70458  32.437  21.163  14.485
 5232W        W70459  31.213   7.845  12.578
 5233W        W70460  17.035  37.880   1.331
 5234W        W70461  38.464  37.380  13.384
 5235W        W70462  18.700   3.799  11.568
 5236W        W70463   8.039  26.136  11.627
 5237W        W70464   3.222  29.688  11.583
 5238W        W70465   6.212   8.740   3.366
 5239W        W70466  19.721   5.947  11.297
 5240W        W70467  38.976  37.869  11.651
 5241W        W70468  32.399  15.108   3.072
 5242W        W70469  44.166  41.978  14.999
 5243W        W70470  31.657  18.264   0.834
 5244W        W70471  29.968  39.069  14.328
 5245W        W70472   3.143  40.025   2.829
 5246W        W70473  28.616   0.668   4.686
 5247W        W70474   4.434  32.005   2.363
 5248W        W70475   4.001  28.960  14.290
 5249W        W70476  11.382  17.233   0.002
 5250W        W70477  39.570  24.630  13.683
 5251W        W70478  23.137  40.265  13.490
 5252W        W70479  26.751  27.183  12.328
 5253W        W70480  15.776   1.389  12.043
 5254W        W70481   3.534  26.483  11.741
 5255W        W70482  39.875   4.719   0.424
 5256W        W70483  40.788   4.757  12.942
 5257W        W70484  37.056  29.612  13.027
 5258W        W70485  32.928  43.257   3.529
 5259W        W70486  17.753  35.897   4.727
 5260W        W70487  18.256  24.273  13.878
 5261W        W70488  37.375  39.621  14.830
 5262W        W70489  25.452  33.879  13.066
 5263W        W70490   3.992  34.608   0.994
 5264W        W70491  12.218  33.381  10.372
 5265W        W70492  29.286  43.467  11.183
 5266W        W70493  16.776   9.772   3.801
 5267W        W70494   9.721  15.978  14.893
 5268W        W70495  23.152  17.480  10.864
 5269W        W70496  38.691   6.572  12.511
 5270W        W70497  40.148  25.638   1.795
 5271W        W70498   1.786   0.958  12.889
 5272W        W70499  37.090   7.742  13.493
 5273W        W70500   4.756  34.477  11.155
 5274W        W70501   8.881   2.587   4.742
 5275W        W70502   7.391  22.311   0.894
 5276W        W70503  26.903   4.415  13.415
 5277W        W70504  20.770  28.610   4.420
 5278W        W70505   5.845   6.499  10.645
 5279W        W70506  33.379  22.469   1.302
 5280W        W70507  10.354  14.335  13.883
 5281W        W70508  14.758  24.970  13.572
 5282W        W70509  40.525  17.221  14.373
 5283W        W70510  41.298  42.713  11.159
 5284W        W70511  26.711  21.635   1.156
 5285W        W70512   6.173  17.175  13.042
 5286W        W70513  36.011  11.765  11.996
 5287W        W70514  37.305  41.259  12.760
 5288W        W70515  23.657  23.738   3.203
 5289W        W70516  32.483  37.467  12.590
 5290W        W70517   9.817  44.713  11.468
 5291W        W70518  28.288  13.338   2.375
 5292W        W70519   3.546  27.405  12.450
 5293W        W70520  18.698  34.499  13.449
 5294W        W70521   0.646  40.570  13.485
 5295W        W70522   1.974  39.044   2.114
 5296W        W70523  44.862  42.550  14.279
 5297W        W70524  28.840  22.559  11.572
 5298W        W70525  41.302  33.471  11.113
 5299W        W70526  12.672  21.038   3.256
 5300W        W70527  33.629  31.851  11.287
 5301W        W70528  12.313   1.841   0.999
 5302W        W70529  35.784   3.289   3.574
 5303W        W70530  21.042  30.886   3.132
 5304W        W70531  12.018  25.760  12.070
 5305W        W70532   4.963  37.411   3.512
 5306W        W70533   0.353  38.112  12.978
 5307W        W70534  13.554   7.467  14.504
 5308W        W70535  31.990   4.855   2.481
 5309W        W70536  38.792  36.610   2.727
 5310W        W70537  24.605   5.426  13.404
 5311W        W70538   3.245   7.184   2.628
 5312W        W70539  15.173  26.210  12.577
 5313W        W70540  27.723   7.841   3.204
 5314W        W70541  19.570  37.259  14.286
 5315W        W70542  11.396   1.879   3.729
 5316W        W70543  32.498  41.863   4.836
 5317W        W70544   6.904   7.418   1.879
 5318W        W70545  21.030  12.866   0.526
 5319W        W70546  42.490   5.163  14.797
 5320W        W70547  44.137  22.140   2.846
 5321W        W70548   9.590  32.551   1.944
 5322W        W70549  36.586   9.838  11.384
 5323W        W70550  44.732  36.351   4.102
 5324W        W70551  11.112   0.477   1.934
 5325W        W70552  38.309  40.317  13.522
 5326W        W70553  41.045  32.941   4.394
 5327W        W70554   0.299  23.924  13.373
 5328W        W70555  25.456  27.550   3.340
 5329W        W70556  37.847  31.089  14.397
 5330W        W70557   5.926  20.159  14.584
 5331W        W70558  21.028   3.655   4.100
 5332W        W70559  27.637   2.335   3.125
 5333W        W70560  41.789  44.283   3.745
 5334W        W70561  25.717   0.720  14.362
 5335W        W70562  24.239  12.878   2.407
 5336W        W70563  10.662  11.440  11.611
 5337W        W70564   2.500  36.371   1.855
 5338W        W70565  26.419  17.552   2.278
 5339W        W70566  17.794  44.369   4.173
 5340W        W70567  30.954  34.550  11.996
 5341W        W70568  33.961  28.780   1.116
 5342W        W70569  20.199  39.888   9.950
 5343W        W70570   9.419   8.639  14.767
 5344W        W70571  32.855   4.385   0.449
 5345W        W70572   6.450  44.105  11.804
 5346W        W70573  19.508   1.741   3.185
 5347W        W70574  39.447   3.161  11.677
 5348W        W70575  43.279  27.882   3.600
 5349W        W70576  13.859  31.761   1.684
 5350W        W70577  44.418  31.062  12.404
 5351W        W70578  18.943  38.897  14.273
 5352W        W70579  29.136  22.227  14.672
 5353W        W70580  16.832  11.321  13.313
 5354W        W70581  18.588  14.065   1.609
 5355W        W70582  17.441  35.524  13.175
 5356W        W70583  17.660  11.354   3.697
 5357W        W70584  33.361  25.793   0.368
 5358W        W70585  24.924  35.776  11.160
 5359W        W70586  42.018   7.325   3.151
 5360W        W70587   9.750   5.966  12.002
 5361W        W70588  40.478  12.344   2.368
 5362W        W70589  16.066  10.700   0.465
 5363W        W70590  37.040  21.039  12.323
 5364W        W70591  20.480   6.078  11.934
 5365W        W70592  25.352  26.508   3.161
 5366W        W70593   3.209   0.823  12.281
 5367W        W70594  31.993   4.922   1.459
 5368W        W70595  13.376  38.866  14.442
 5369W        W70596  10.236  25.738   2.095
 5370W        W70597   0.823  22.792  13.524
 5371W        W70598  18.843  28.073  13.964
 5372W        W70599   7.091  22.602  14.949
 5373W        W70600  34.140  40.765  10.719
 5374W        W70601  30.697   3.385  14.268
 5375W        W70602  11.674  44.114   4.643
 5376W        W70603  30.454   7.621   5.090
 5377W        W70604  19.990  32.536  12.881
 5378W        W70605  11.207  19.983   3.140
 5379W        W70606  37.499  17.064   0.963
 5380W        W70607  40.619  26.702   0.412
 5381W        W70608  23.076  19.757  11.093
 5382W        W70609   9.838  36.533   2.800
 5383W        W70610  39.342  13.099   2.478
 5384W        W70611  21.793  41.532   3.730
 5385W        W70612   6.702  39.057   4.123
 5386W        W70613  18.238  33.366  10.806
 5387W        W70614  24.667   6.282   0.579
 5388W        W70615  39.333  42.703   4.586
 5389W        W70616  19.685  37.837  12.231
 5390W        W70617  23.636   8.363   4.560
 5391W        W70618  13.266  30.333   3.591
 5392W        W70619  10.348   6.235  11.253
 5393W        W70620  37.376  12.818  14.784
 5394W        W70621  34.531   8.169  14.602
 5395W        W70622  14.624  34.950   2.360
 5396W        W70623   4.912  32.139   1.845
 5397W        W70624   9.776  42.489   0.256
 5398W        W70625  26.454  24.421  14.782
 5399W        W70626  15.141  42.107  13.281
 5400W        W70627  26.487  44.612   0.515
 5401W        W70628   0.296   5.977  13.325
 5402W        W70629   5.663   3.054   1.278
 5403W        W70630  27.603  37.829   0.967
 5404W        W70631  11.965  35.864   4.630
 5405W        W70632  19.766  12.858   0.988
 5406W        W70633   0.730   7.164  14.653
 5407W        W70634  39.851  25.750  13.122
 5408W        W70635   7.443  22.576  11.580
 5409W        W70636  17.738  21.513   3.196
 5410W        W70637  28.192   2.887  12.413
 5411W        W70638  32.301  21.091   3.649
 5412W        W70639  13.504  39.024  10.912
 5413W        W70640  11.254   3.678   0.311
 5414W        W70641   0.541  26.528   0.991
 5415W        W70642  42.272  29.925   3.684
 5416W        W70643  15.314  30.625  13.911
 5417W        W70644  13.204  17.841   3.603
 5418W        W70645   1.818  33.453  13.623
 5419W        W70646   6.143  18.713  10.591
 5420W        W70647  11.196   9.200  10.704
 5421W        W70648  10.171   9.369  14.008
 5422W        W70649   1.208  29.916   2.240
 5423W        W70650  19.808  33.025   1.403
 5424W        W70651  40.871  37.340  14.231
 5425W        W70652   2.814  42.037  11.718
 5426W        W70653  32.900  44.253  11.031
 5427W        W70654  16.604  22.590   3.069
 5428W        W70655  34.519  44.025  13.518
 5429W        W70656   2.854  23.067   3.383
 5430W        W70657  29.175  29.992  11.922
 5431W        W70658  38.034  40.063   3.932
 5432W        W70659  34.664  25.002  12.632
 5433W        W70660  23.056  21.286  11.266
 5434W        W70661  34.446   6.728  11.551
 5435W        W70662  36.099  39.806  14.839
 5436W        W70663   8.845  30.350   4.495
 5437W        W70664  16.696  35.077   1.309
 5438W        W70665  35.550  25.522   1.673
 5439W        W70666  31.056  18.665  12.472
 5440W        W70667  27.916  31.351  12.106
 5441W        W70668   2.582  10.342   3.705
 5442W        W70669  14.690  22.837   1.396
 5443W        W70670  14.759  43.764   2.185
 5444W        W70671  23.201  40.438  12.546
 5445W        W70672  14.326  10.350   3.661
 5446W        W70673  42.952  41.038  12.138
 5447W        W70674  33.072  15.288   0.299
 5448W        W70675   8.098  22.137   0.366
 5449W        W70676  17.036  11.319  11.602
 5450W        W70677  38.850   9.080   2.828
 5451W        W70678  19.483   4.293   0.410
 5452W        W70679  35.014  34.118   4.331
 5453W        W70680  30.929  23.641   3.771
 5454W        W70681   1.277  18.320  11.615
 5455W        W70682  12.749  16.068   1.155
 5456W        W70683  20.201   2.729   1.381
 5457W        W70684  26.879  31.886  14.888
 5458W        W70685  33.851   3.824   0.800
 5459W        W70686  21.654  13.567   4.361
 5460W        W70687  17.292  29.102   1.473
 5461W        W70688  34.358   6.605  13.402
 5462W        W70689  36.832  22.572  10.816
 5463W        W70690  22.209  23.831   0.481
 5464W        W70691   0.433  14.722  12.412
 5465W        W70692  27.628  25.212  12.797
 5466W        W70693  40.893  30.029   0.535
 5467W        W70694  30.993   6.354   1.439
 5468W        W70695   7.175   1.381   4.282
 5469W        W70696  36.964  41.468   2.941
 5470W        W70697  22.671  16.662   2.409
 5471W        W70698  43.272  16.564   4.265
 5472W        W70699  36.448  20.146   4.346
 5473W        W70700  21.938  37.678   5.078
 5474W        W70701   1.485  39.002   2.381
 5475W        W70702  18.839  16.903  12.869
 5476W        W70703  17.485  42.904  14.454
 5477W        W70704   5.675  32.236  14.976
 5478W        W70705   4.879  12.869   3.690
 5479W        W70706  32.800  16.259   3.006
 5480W        W70707  35.618  14.254  12.976
 5481W        W70708  20.741  34.414   4.574
 5482W        W70709  44.956  22.529  13.278
 5483W        W70710  12.056  42.585   3.242
 5484W        W70711  30.947   2.982  11.183
 5485W        W70712  43.468  26.234  11.984
 5486W        W70713  28.998   0.561  14.965
 5487W        W70714  12.816  13.794  14.922
 5488W        W70715   9.805  12.735  13.093
 5489W        W70716   4.412  37.449  12.409
 5490W        W70717   5.049  41.824   3.205
 5491W        W70718  24.109  31.399   2.132
 5492W        W70719  23.047   4.482   3.303
 5493W        W70720   5.976  28.943   1.264
 5494W        W70721  27.224  44.707  13.392
 5495W        W70722  31.979  27.718  10.735
 5496W        W70723  44.459  36.395  13.327
 5497W        W70724  41.878  21.577   3.232
 5498W        W70725  17.738  18.471  12.914
 5499W        W70726  10.299   5.277  14.820
 5500W        W70727  41.538   3.221  13.373
 5501W        W70728  18.248  17.058   4.603
 5502W        W70729  33.560  40.914  12.014
 5503W        W70730  24.514  25.518   0.247
 5504W        W70731  26.480  14.462   3.690
 5505W        W70732   4.231  26.399  11.110
 5506W        W70733  34.339  32.440   0.905
 5507W        W70734  21.180  16.151   0.310
 5508W        W70735   7.366  10.560   4.604
 5509W        W70736  19.068  33.464   1.937
 5510W        W70737  35.863  25.222   0.222
 5511W        W70738  27.958  21.073  10.173
 5512W        W70739   0.388  20.184  12.566
 5513W        W70740  23.764  36.885  11.993
 5514W        W70741  32.745  37.330   0.827
 5515W        W70742  31.033  38.343   0.190
 5516W        W70743  11.617  29.261  11.164
 5517W        W70744   6.884  42.288   3.339
 5518W        W70745  28.719  11.577   1.207
 5519W        W70746   4.818  35.369   4.658
 5520W        W70747  31.366   8.542  11.540
 5521W        W70748  33.635   3.848   1.256
 5522W        W70749   4.304  23.894   2.414
 5523W        W70750  23.787  36.209  12.602
 5524W        W70751   8.667  32.390   9.591
 5525W        W70752  36.678   5.162  12.039
 5526W        W70753  15.710  38.954  10.425
 5527W        W70754  25.149  27.877  14.228
 5528W        W70755  14.374  35.540   3.353
 5529W        W70756  23.650  36.956  14.523
 5530W        W70757  35.031   8.156   3.241
 5531W        W70758  30.501  12.324   1.474
 5532W        W70759   6.428  22.107   3.853
 5533W        W70760  12.408  37.955  13.121
 5534W        W70761  42.805  26.938   0.962
 5535W        W70762  43.951  27.887  12.676
 5536W        W70763  28.233  44.336  11.170
 5537W        W70764  10.497  25.626   4.562
 5538W        W70765  24.243  37.331   3.719
 5539W        W70766  40.811  19.735  13.213
 5540W        W70767  40.310   9.920  12.040
 5541W        W70768   1.218  18.671   5.057
 5542W        W70769  23.249  22.723   4.621
 5543W        W70770  25.961  26.835   2.831
 5544W        W70771  41.080  12.188   2.814
 5545W        W70772   0.667  20.887  12.919
 5546W        W70773  32.431   4.204   1.468
 5547W        W70774  37.948   7.144   1.429
 5548W        W70775   1.741   1.170  13.373
 5549W        W70776   4.174  20.834   4.093
 5550W        W70777  39.163  44.370   1.247
 5551W        W70778  22.365  15.308  14.992
 5552W        W70779  30.838  24.086  14.857
 5553W        W70780  12.366   0.261   1.339
 5554W        W70781  14.083  15.150   1.159
 5555W        W70782  33.228  17.778  14.522
 5556W        W70783  16.673  12.942  10.573
 5557W        W70784  14.692  33.876  10.858
 5558W        W70785  24.855  37.181  12.949
 5559W        W70786  27.419  26.267   0.050
 5560W        W70787  11.108  39.761   0.155
 5561W        W70788   8.821  28.929   3.572
 5562W        W70789  31.898   4.681   3.819
 5563W        W70790   0.378  33.967   1.544
 5564W        W70791   3.901  16.521   0.941
 5565W        W70792   0.975  37.583  12.826
 5566W        W70793  35.457  22.118   2.767
 5567W        W70794  33.981   1.974  10.702
 5568W        W70795  38.296  38.185  14.032
 5569W        W70796  42.073  20.137   2.851
 5570W        W70797  37.118  43.317  13.888
 5571W        W70798  15.700  25.007  13.291
 5572W        W70799   5.211   9.437   0.192
 5573W        W70800  26.972  39.603  14.539
 5574W        W70801  38.048   9.841   0.901
 5575W        W70802  44.814   8.079  13.661
 5576W        W70803  27.444   8.306  13.014
 5577W        W70804  16.579   3.506   3.243
 5578W        W70805   7.380  40.802  10.903
 5579W        W70806  33.069  11.102  14.494
 5580W        W70807  38.558  38.354  13.605
 5581W        W70808  39.305  30.924  14.331
 5582W        W70809  40.565   9.330   2.943
 5583W        W70810  29.058  40.162  11.539
 5584W        W70811   3.806   0.062   4.167
 5585W        W70812  11.339  36.566  11.996
 5586W        W70813  20.315   3.710  14.970
 5587W        W70814  26.844   1.713  13.891
 5588W        W70815  11.153  22.662   1.242
 5589W        W70816   8.458  15.232   0.920
 5590W        W70817  34.670  29.485  11.213
 5591W        W70818  26.936  26.369   4.696
 5592W        W70819   2.476  38.492   0.853
 5593W        W70820  34.927  35.572   1.511
 5594W        W70821  18.068  15.604   4.627
 5595W        W70822   0.912  24.566  13.967
 5596W        W70823  16.039  22.160  13.467
 5597W        W70824  41.657   7.883   1.855
 5598W        W70825  12.850  36.129  14.279
 5599W        W70826  14.982  36.347  11.677
 5600W        W70827   1.024  18.661  14.396
 5601W        W70828   6.695   8.671   3.180
 5602W        W70829  12.881  44.068   2.779
 5603W        W70830  34.088  26.480  13.788
 5604W        W70831  16.764  21.146   2.824
 5605W        W70832  15.290  10.640  12.518
 5606W        W70833   5.707  16.600   1.136
 5607W        W70834  21.764   5.899  12.352
 5608W        W70835  13.529   7.171  11.277
 5609W        W70836  21.804   0.066  10.677
 5610W        W70837  35.724  41.670  13.905
 5611W        W70838   8.844  32.948   4.893
 5612W        W70839  15.804  17.864   1.739
 5613W        W70840  38.562  41.413   3.799
 5614W        W70841  25.583  19.752  11.351
 5615W        W70842   3.265  10.337  12.547
 5616W        W70843  42.105  17.111   0.393
 5617W        W70844  13.418   9.466  14.448
 5618W        W70845   7.472  25.502  10.669
 5619W        W70846  31.380  11.197  13.841
 5620W        W70847   8.334  20.081   4.630
 5621W        W70848  41.430   0.038   3.687
 5622W        W70849   8.447  37.423  14.788
 5623W        W70850  12.302  25.665  14.434
 5624W        W70851  22.267  36.642  14.944
 5625W        W70852  35.216  38.760   0.314
 5626W        W70853  17.814   5.796   4.308
 5627W        W70854  10.016  13.964  13.795
 5628W        W70855  34.925  37.039   3.100
 5629W        W70856  33.102  37.268   3.097
 5630W        W70857  11.579   6.590   4.194
 5631W        W70858  14.663   2.697   2.843
 5632W        W70859  10.382  29.962  10.656
 5633W        W70860  23.151   2.246   2.087
 5634W        W70861   3.195  39.558  11.103
 5635W        W70862  31.466  28.641  12.981
 5636W        W70863  20.945  28.530   3.717
 5637W        W70864  44.507  12.191   4.133
 5638W        W70865  41.122   0.230   0.779
 5639W        W70866  40.944  42.721  10.764
 5640W        W70867  36.568  11.671   2.862
 5641W        W70868  25.209  39.887  13.791
 5642W        W70869  40.304  21.626  12.332
 5643W        W70870  22.512   1.726   0.857
 5644W        W70871  29.520   8.145  13.570
 5645W        W70872  43.576  40.573  12.727
 5646W        W70873   4.848  34.646   4.195
 5647W        W70874  28.442  29.598   4.270
 5648W        W70875  37.442   5.707  11.587
 5649W        W70876  43.890  33.650   1.019
 5650W        W70877  34.533  11.660   4.848
 5651W        W70878   8.696   9.679   3.669
 5652W        W70879  15.593  22.799  13.411
 5653W        W70880  39.938  11.791  11.210
 5654W        W70881  28.687   4.150  14.927
 5655W        W70882  42.853  21.609   3.284
 5656W        W70883  22.171  32.739   0.434
 5657W        W70884  29.811  40.512  10.131
 5658W        W70885  27.134  17.224   4.471
 5659W        W70886  27.623  35.065  10.763
 5660W        W70887  21.046  44.943   4.610
 5661W        W70888  44.051  14.642   3.384
 5662W        W70889  18.669  28.998   4.875
 5663W        W70890  14.102  19.156  12.308
 5664W        W70891  27.965  30.207   0.048
 5665W        W70892  37.018  42.909  14.199
 5666W        W70893   0.648  14.289  12.275
 5667W        W70894   2.313  13.598   2.427
 5668W        W70895  36.130   6.711  12.871
 5669W        W70896  10.415  32.073   0.265
 5670W        W70897  32.688  25.882  11.596
 5671W        W70898  30.966  12.375   4.052
 5672W        W70899  12.161  33.938  13.418
 5673W        W70900   8.215  11.387   0.735
 5674W        W70901   2.776   6.323   2.389
 5675W        W70902  37.537  34.352  12.396
 5676W        W70903  34.224  33.003  11.897
 5677W        W70904  24.197  16.414  10.824
 5678W        W70905  21.495  35.256   0.869
 5679W        W70906  33.490  42.613  13.799
 5680W        W70907  15.539  41.810   4.462
 5681W        W70908   9.349  21.125   3.669
 5682W        W70909  19.008  27.091   0.354
 5683W        W70910   8.935  17.180  13.463
 5684W        W70911  20.003  44.847   3.860
 5685W        W70912  30.737  38.582  14.303
 5686W        W70913  30.569  40.737  11.548
 5687W        W70914  27.459  17.136  11.087
 5688W        W70915  30.792  27.595  13.397
 5689W        W70916  16.891  33.443  12.476
 5690W        W70917  21.138  36.439  12.155
 5691W        W70918  39.264  11.082  11.572
 5692W        W70919  32.921  28.371  14.243
 5693W        W70920  42.439  18.089  14.535
 5694W        W70921  17.639   9.736  14.520
 5695W        W70922  39.893  28.867  12.176
 5696W        W70923   1.349  35.683   4.696
 5697W        W70924  41.444  32.908   0.022
 5698W        W70925  27.127  15.773  10.530
 5699W        W70926  24.952  37.981   4.440
 5700W        W70927   2.732  44.905  12.469
 5701W        W70928   2.417   8.752  13.967
 5702W        W70929   5.238  20.432  12.929
 5703W        W70930  13.697  18.697   4.871
 5704W        W70931   1.818   9.503  10.662
 5705W        W70932  42.116  30.900   3.495
 5706W        W70933  41.369  29.695  11.155
 5707W        W70934  30.573   3.196   3.120
 5708W        W70935  17.565  15.147   1.911
 5709W        W70936  24.105  16.225  11.673
 5710W        W70937  19.724  18.830   3.751
 5711W        W70938  26.755  23.131   2.883
 5712W        W70939  38.816  40.428  13.489
 5713W        W70940  13.657   0.834  11.590
 5714W        W70941  41.356   9.712  13.788
 5715W        W70942  29.431  11.427  13.921
 5716W        W70943  41.894  23.238  11.762
 5717W        W70944  29.455  22.932  12.979
 5718W        W70945  27.605  11.629   1.293
 5719W        W70946  37.982  21.898  13.992
 5720W        W70947  20.301   3.629  11.983
 5721W        W70948  30.110  10.784   3.691
 5722W        W70949  10.617  35.047   0.240
 5723W        W70950   3.206  31.122   4.228
 5724W        W70951   7.504  39.398  10.665
 5725W        W70952  43.830  21.285  14.720
 5726W        W70953  40.114   2.664  12.032
 5727W        W70954  39.530  30.835   0.288
 5728W        W70955  42.944  28.189   3.331
 5729W        W70956  34.216  18.527  10.868
 5730W        W70957  18.713  15.772  11.469
 5731W        W70958  43.993  21.219  10.806
 5732W        W70959  21.198   4.831  12.509
 5733W        W70960  13.221  16.543   2.289
 5734W        W70961  34.660   2.189  12.063
 5735W        W70962  41.460  24.034  14.005
 5736W        W70963  35.005  39.488   4.606
 5737W        W70964  22.245   0.892   2.395
 5738W        W70965  17.258  14.054   5.057
 5739W        W70966  12.154  44.757   3.544
 5740W        W70967  36.699  23.809   3.458
 5741W        W70968   7.760  41.273   1.656
 5742W        W70969  19.163  19.848  11.507
 5743W        W70970   7.662  24.561   4.382
 5744W        W70971   6.903   7.345   3.762
 5745W        W70972  24.914  27.175   3.584
 5746W        W70973  33.311  34.665  12.958
 5747W        W70974   5.418  43.533  13.546
 5748W        W70975  33.472  40.675   5.014
 5749W        W70976  10.868  14.328  12.981
 5750W        W70977  12.194  43.038  10.609
 5751W        W70978   8.466  39.864   4.109
 5752W        W70979  29.099  37.083   3.228
 5753W        W70980  24.494  42.963  14.882
 5754W        W70981  36.366   5.702  10.304
 5755W        W70982   2.517  20.052   0.289
 5756W        W70983  26.606   1.810  10.137
 5757W        W70984  17.340  30.639   1.891
 5758W        W70985  35.733   6.283   0.455
 5759W        W70986   5.295  29.385  11.914
 5760W        W70987  11.199  17.432   0.467
 5761W        W70988   4.909  26.555  10.539
 5762W        W70989  19.179  33.365   3.856
 5763W        W70990  19.616  20.970   1.279
 5764W        W70991  43.425   9.102   1.231
 5765W        W70992   4.316  14.751   0.512
 5766W        W70993  41.438  18.223   0.833
 5767W        W70994  35.437  41.069   3.738
 5768W        W70995  41.325   6.681  12.352
 5769W        W70996  43.894  19.320   0.012
 5770W        W70997  42.994   4.190   2.773
 5771W        W70998   8.906  36.898  12.897
 5772W        W70999  29.526   9.955  14.372
 5773W        W71000   8.313   5.079   0.644
 5774W        W71001  38.963   9.914  11.679
 5775W        W71002  43.215  32.668   0.368
 5776W        W71003   7.877  18.463   2.815
 5777W        W71004  15.505  28.972  12.548
 5778W        W71005  16.093  26.484  11.914
 5779W        W71006   2.503  11.414   4.612
 5780W        W71007  25.681   3.865  11.048
 5781W        W71008   4.220  28.379  11.922
 5782W        W71009  38.905  13.366   3.861
 5783W        W71010  13.951  36.394  10.702
 5784W        W71011   0.812   4.924   2.346
 5785W        W71012   0.979  38.800  13.371
 5786W        W71013   7.339  18.034   4.493
 5787W        W71014  21.072   2.588  12.070
 5788W        W71015  34.387  25.108   4.501
 5789W        W71016  21.961  16.057  12.947
 5790W        W71017  34.441   3.303  10.740
 5791W        W71018   1.001  19.838  14.994
 5792W        W71019  38.975  32.486   1.687
 5793W        W71020  25.586  40.770  10.654
 5794W        W71021   5.432  40.160   4.133
 5795W        W71022  18.287  22.194  12.924
 5796W        W71023  24.519  28.897   1.317
 5797W        W71024  19.900   9.464   3.670
 5798W        W71025   0.042  13.213  13.570
 5799W        W71026  19.294  26.640   1.397
 5800W        W71027  27.388   3.737   3.776
 5801W        W71028  14.591  38.393   1.401
 5802W        W71029  27.760  22.602   1.286
 5803W        W71030   8.060  19.599   0.033
 5804W        W71031  13.695   6.889   0.928
 5805W        W71032  18.657  34.935  11.529
 5806W        W71033  16.229  36.087   2.278
 5807W        W71034  14.134  35.560   2.343
 5808W        W71035   4.555  15.176  10.122
 5809W        W71036  38.334   7.079   3.184
 5810W        W71037  25.669  29.530  10.331
 5811W        W71038  30.371   4.184   1.387
 5812W        W71039  10.183   9.236   1.708
 5813W        W71040   1.484  37.990   4.131
 5814W        W71041  35.463   2.706   4.278
 5815W        W71042  36.172   9.213  11.954
 5816W        W71043  42.611  28.504  12.869
 5817W        W71044   5.637  21.295   2.846
 5818W        W71045   3.131  19.630  11.315
 5819W        W71046   1.484   8.930   3.063
 5820W        W71047   8.179  21.069   1.488
 5821W        W71048  38.673  24.009   0.846
 5822W        W71049  13.129  21.845   1.262
 5823W        W71050   3.121  35.899   2.446
 5824W        W71051  21.121  16.085   3.786
 5825W        W71052  18.324  26.521  10.585
 5826W        W71053  30.487  36.024   3.617
 5827W        W71054  13.238  34.690   0.458
 5828W        W71055   5.326  37.344   0.883
 5829W        W71056  18.185  33.102  11.402
 5830W        W71057   6.420  12.522  10.668
 5831W        W71058  17.551  35.372  11.089
 5832W        W71059  16.045  20.136   1.338
 5833W        W71060  14.833  34.196  13.976
 5834W        W71061  15.119  34.826  13.382
 5835W        W71062  33.626  43.127  11.398
 5836W        W71063  12.778   1.810   0.722
 5837W        W71064  26.062   7.442   0.612
 5838W        W71065   7.279  33.167  11.194
 5839W        W71066   4.682  31.100   1.987
 5840W        W71067   6.143   9.652  12.331
 5841W        W71068   1.929  29.679   3.238
 5842W        W71069  26.402  26.212   2.357
 5843W        W71070  33.625  21.098   0.337
 5844W        W71071  30.631  17.359  13.018
 5845W        W71072  42.060   7.855   1.521
 5846W        W71073  36.795   3.546   1.177
 5847W        W71074  32.180  36.860   2.395
 5848W        W71075  32.417  33.073   2.312
 5849W        W71076  34.810  42.517  13.309
 5850W        W71077  39.327   2.876   2.664
 5851W        W71078   2.035  31.361   0.846
 5852W        W71079  25.997  29.749   4.563
 5853W        W71080  32.575  22.074  12.529
 5854W        W71081  41.851   0.324   2.045
 5855W        W71082  10.183  25.212  11.512
 5856W        W71083  12.736   1.793  10.763
 5857W        W71084  34.760   5.774   1.839
 5858W        W71085   7.833  20.203  11.225
 5859W        W71086  30.092  34.908   3.116
 5860W        W71087  33.628  25.560   1.767
 5861W        W71088  38.003   9.896  14.908
 5862W        W71089  24.546  16.830  13.432
 5863W        W71090  28.916  30.662  14.046
 5864W        W71091  28.200  33.146  14.112
 5865W        W71092  19.007  32.204   0.695
 5866W        W71093  10.712   9.599  14.017
 5867W        W71094  15.814  38.281   0.846
 5868W        W71095  14.659  35.042  14.211
 5869W        W71096  22.700  40.974   1.356
 5870W        W71097  25.606   8.353   4.160
 5871W        W71098  18.802  23.486   1.375
 5872W        W71099  25.101  10.401  11.936
 5873W        W71100  12.898   2.939   2.712
 5874W        W71101  13.185  14.327  12.487
 5875W        W71102   9.410   5.415   1.415
 5876W        W71103   0.460  29.390   1.730
 5877W        W71104  15.682  24.978   4.516
 5878W        W71105  27.412  40.371  11.965
 5879W        W71106   9.713  24.308   4.442
 5880W        W71107  23.986  29.854   4.115
 5881W        W71108  28.883  29.603   3.983
 5882W        W71109   3.989  39.893  14.465
 5883W        W71110  33.269  20.572   2.893
 5884W        W71111  42.719  21.193   4.640
 5885W        W71112   8.467  39.532   4.528
 5886W        W71113  34.948  31.136   0.389
 5887W        W71114  42.032  36.459  14.408
 5888W        W71115   4.021   9.888   4.180
 5889W        W71116  30.676  41.983  10.429
 5890W        W71117  27.498   7.849   4.106
 5891W        W71118  39.284   5.997  12.216
 5892W        W71119  15.055  34.933  13.892
 5893W        W71120  23.030  27.741   0.191
 5894W        W71121  43.338  29.877   3.657
 5895W        W71122  30.042  14.053   0.885
 5896W        W71123  42.549  29.549   2.049
 5897W        W71124  28.491   0.230   3.202
 5898W        W71125  30.500   0.603   1.419
 5899W        W71126   5.682  15.719  12.098
 5900W        W71127  19.538  34.774  14.663
 5901W        W71128  12.118  42.800  12.605
 5902W        W71129  32.052   2.634   0.736
 5903W        W71130  37.269  30.573  12.502
 5904W        W71131  14.149  26.397   1.328
 5905W        W71132  10.660  12.819  11.109
 5906W        W71133  15.207  33.935  10.731
 5907W        W71134  42.477  11.608  13.686
 5908W        W71135  38.672   7.067  12.891
 5909W        W71136  23.047  30.476   1.078
 5910W        W71137  13.211  29.986   2.586
 5911W        W71138   3.773  36.569  13.410
 5912W        W71139   3.481  14.420  10.491
 5913W        W71140  41.964   1.239   0.871
 5914W        W71141  28.183  17.838  13.041
 5915W        W71142  13.493  24.169  11.554
 5916W        W71143  23.999  12.507  14.379
 5917W        W71144  14.977  30.579  10.613
 5918W        W71145   0.690  11.653   1.361
 5919W        W71146  27.461  29.837   2.836
 5920W        W71147  20.762  19.919   3.078
 5921W        W71148  40.865  13.133   1.326
 5922W        W71149  23.080  13.242   0.391
 5923W        W71150  21.088  16.574   2.431
 5924W        W71151  25.937  34.018   0.773
 5925W        W71152  19.446  23.676  12.975
 5926W        W71153   3.840  35.148  13.462
 5927W        W71154  11.864  39.020   3.774
 5928W        W71155  29.669  24.193  13.448
 5929W        W71156   6.728  23.766   3.754
 5930W        W71157  21.649  22.231  11.907
 5931W        W71158  35.346   1.190   3.263
 5932W        W71159  13.813  31.727  10.697
 5933W        W71160  21.969  24.216  13.510
 5934W        W71161   8.770   1.270  12.373
 5935W        W71162   5.972  30.519  11.478
 5936W        W71163  37.594  40.984  13.099
 5937W        W71164   3.629  27.900  11.114
 5938W        W71165   0.327  16.576  10.311
 5939W        W71166  22.761  17.587   3.691
 5940W        W71167  25.548  35.097   1.276
 5941W        W71168  18.926  29.448  10.635
 5942W        W71169  32.648  12.765   2.459
 5943W        W71170  19.489  34.310  12.878
 5944W        W71171  34.450  27.456  12.590
 5945W        W71172   2.050  40.429   2.478
 5946W        W71173  44.809  21.262   5.559
 5947W        W71174  37.754  11.880   3.161
 5948W        W71175  34.827  15.412   0.190
 5949W        W71176  31.121  32.183   0.722
 5950W        W71177  31.477  26.679  13.934
 5951W        W71178   4.336  40.894  11.169
 5952W        W71179  20.400  44.421   3.696
 5953W        W71180  22.581  42.979   3.673
 5954W        W71181  36.388  44.980   2.341
 5955W        W71182  11.925  22.343   4.106
 5956W        W71183   8.288   8.735  11.086
 5957W        W71184   6.515   8.722   2.707
 5958W        W71185   7.460  38.011  10.511
 5959W        W71186  19.707  21.685   4.021
 5960W        W71187  31.702  20.827  12.552
 5961W        W71188   5.653  12.200  12.142
 5962W        W71189  31.166  22.094   0.988
 5963W        W71190  21.535  20.277  13.887
 5964W        W71191  21.023  35.088   2.179
 5965W        W71192  23.976  15.348   0.890
 5966W        W71193  17.096   5.770  13.337
 5967W        W71194  23.650  32.133   2.201
 5968W        W71195  40.825  16.710  11.723
 5969W        W71196  23.462  26.456  11.590
 5970W        W71197   9.919  30.314  13.800
 5971W        W71198  10.779  24.927   3.461
 5972W        W71199   3.810  40.382   2.133
 5973W        W71200  16.249  41.296   5.455
 5974W        W71201   1.407  26.706  14.366
 5975W        W71202  38.366  38.111  11.811
 5976W        W71203   4.300  16.929   5.501
 5977W        W71204  29.120  11.688   0.291
 5978W        W71205  11.757   9.884  12.994
 5979W        W71206  34.254  38.306   0.787
 5980W        W71207  33.164   9.817   1.327
 5981W        W71208  21.849  12.625   0.297
 5982W        W71209  41.845  31.878  11.514
 5983W        W71210  29.834  36.114  13.371
 5984W        W71211  36.604  41.981  11.264
 5985W        W71212  14.111  33.986  14.774
 5986W        W71213  17.094  43.913  12.375
 5987W        W71214  10.556   5.429  13.443
 5988W        W71215  40.320  44.566  11.585
 5989W        W71216  31.064   9.333  12.129
 5990W        W71217  39.001   6.679   2.693
 5991W        W71218  35.374  16.251  14.261
 5992W        W71219  11.895  32.150   1.743
 5993W        W71220  35.539  26.805   0.911
 5994W        W71221  39.820  26.373   4.681
 5995W        W71222  17.710   4.886  14.996
 5996W        W71223  40.336  24.686  14.654
 5997W        W71224  23.703  25.185  14.002
 5998W        W71225  26.557  32.614  11.556
 5999W        W71226  17.839  26.668  12.572
 6000W        W71227  37.098  16.238  13.568
 6001W        W71228  14.763  14.771   2.376
 6002W        W71229  41.909  25.886   4.398
 6003W        W71230  17.888  22.130  13.976
 6004W        W71231  12.137  32.168  13.992
 6005W        W71232  42.085  13.215   2.691
 6006W        W71233  21.923  20.239   4.184
 6007W        W71234  27.722  42.019   2.226
 6008W        W71235   2.674  29.454  14.230
 6009W        W71236  29.517  21.547   4.516
 6010W        W71237   8.709  13.747  10.942
 6011W        W71238  11.920   4.778   3.592
 6012W        W71239   7.174  30.391   1.774
 6013W        W71240  25.164   7.122  14.377
 6014W        W71241  21.425   8.645   1.608
 6015W        W71242  35.198  21.360   2.361
 6016W        W71243   9.733  12.889   3.915
 6017W        W71244  43.296  37.343   4.245
 6018W        W71245  43.087  28.636  14.936
 6019W        W71246  36.016   3.148   2.734
 6020W        W71247  28.617  24.618  13.888
 6021W        W71248  21.492   5.358  12.478
 6022W        W71249  36.895  12.124   0.253
 6023W        W71250   6.609  20.365   3.238
 6024W        W71251  16.830  34.556   4.672
 6025W        W71252  26.189  44.398  14.709
 6026W        W71253  22.387  37.761  14.120
 6027W        W71254  19.778  36.400  11.689
 6028W        W71255  30.504  44.561   3.143
 6029W        W71256  25.100   0.700  13.818
 6030W        W71257  26.687  20.597  10.952
 6031W        W71258  21.885  33.353  12.462
 6032W        W71259  28.027  28.084   4.697
 6033W        W71260  38.799  17.442  14.786
 6034W        W71261  27.270  33.565   0.299
 6035W        W71262   3.432  37.100   9.984
 6036W        W71263   9.238  17.833  11.158
 6037W        W71264  35.315   6.778   4.567
 6038W        W71265  41.910  29.495  12.027
 6039W        W71266  38.520  38.476   1.326
 6040W        W71267   9.939  39.444   3.303
 6041W        W71268  24.705  10.928  12.545
 6042W        W71269  21.388   8.135  11.129
 6043W        W71270  22.144  17.639  13.390
 6044W        W71271  39.009  38.364  14.314
 6045W        W71272  16.205  26.381   2.262
 6046W        W71273  34.431  38.001  14.390
 6047W        W71274  25.509  41.801   3.921
 6048W        W71275  38.340   0.333   1.228
 6049W        W71276  32.443   6.107  11.940
 6050W        W71277   7.664   6.048  14.384
 6051W        W71278   7.617   6.600  14.863
 6052W        W71279  27.512  26.235   3.726
 6053W        W71280  31.951  18.628   1.040
 6054W        W71281  33.170   7.785   0.358
 6055W        W71282  19.736  39.120  13.998
 6056W        W71283   7.866  14.316  10.687
 6057W        W71284  17.484  39.517  12.078
 6058W        W71285  43.539  33.513   3.734
 6059W        W71286  31.361  13.229   0.865
 6060W        W71287  33.650  12.708  14.909
 6061W        W71288   1.393  33.332   0.913
 6062W        W71289  33.392   5.074   4.577
 6063W        W71290   1.941  12.371  11.626
 6064W        W71291  19.160  33.565   0.527
 6065W        W71292  23.114  33.835   4.267
 6066W        W71293   4.191   9.434   3.160
 6067W        W71294  32.848  37.008  12.873
 6068W        W71295  24.126  14.071   0.745
 6069W        W71296  21.085  22.293  14.255
 6070W        W71297  41.673  41.553  12.645
 6071W        W71298   6.786  22.023   2.379
 6072W        W71299  28.124  10.422  14.411
 6073W        W71300   2.314   3.724   3.700
 6074W        W71301  21.554   2.253  11.005
 6075W        W71302  36.434  15.257  14.475
 6076W        W71303  19.360  11.242   3.701
 6077W        W71304  33.051  24.171  11.085
 6078W        W71305  17.127  44.835   3.145
 6079W        W71306  36.466  31.962   2.111
 6080W        W71307  14.676  34.799   2.853
 6081W        W71308   0.812  40.135  10.253
 6082W        W71309  11.719   7.346  10.556
 6083W        W71310  41.412  35.857  13.124
 6084W        W71311  42.052  42.347  13.339
 6085W        W71312  40.168  43.052   9.802
 6086W        W71313  22.066   0.956  12.893
 6087W        W71314  37.632  19.106   0.910
 6088W        W71315   3.216   4.714  12.506
 6089W        W71316  29.734   2.628   3.312
 6090W        W71317  21.598  25.379   3.311
 6091W        W71318  18.347  25.032  10.718
 6092W        W71319   6.941  14.360   0.353
 6093W        W71320  26.854  39.883   0.023
 6094W        W71321   1.004  27.173   2.653
 6095W        W71322  15.013  14.231  11.609
 6096W        W71323  15.779  10.265   0.934
 6097W        W71324  19.781  21.711  11.225
 6098W        W71325  29.728  31.951  13.758
 6099W        W71326  43.453   4.904   1.366
 6100W        W71327  19.129  33.137   0.236
 6101W        W71328   0.909   8.451   4.791
 6102W        W71329  14.741  31.175  10.701
 6103W        W71330  27.429  32.424   1.452
 6104W        W71331   0.883   1.311   4.040
 6105W        W71332  21.018  17.357  10.959
 6106W        W71333  18.583  15.274   1.550
 6107W        W71334  40.900  10.255   1.306
 6108W        W71335  27.303   6.906   1.213
 6109W        W71336   1.735  18.807   0.298
 6110W        W71337   3.665  17.675  13.476
 6111W        W71338  36.966  20.392  14.908
 6112W        W71339  24.040  15.762   1.629
 6113W        W71340  15.064   5.115  11.126
 6114W        W71341   1.054  32.461  13.435
 6115W        W71342  29.807  36.963   0.602
 6116W        W71343   1.455  35.365   3.714
 6117W        W71344  19.982  15.933  13.468
 6118W        W71345   6.513  24.181   0.926
 6119W        W71346  32.376  39.435   0.239
 6120W        W71347  10.799  41.213   0.835
 6121W        W71348  39.073   5.779  14.059
 6122W        W71349  37.260  41.116  13.510
 6123W        W71350  35.541   5.506   4.096
 6124W        W71351  15.577  28.120  14.724
 6125W        W71352   0.975   5.876   2.360
 6126W        W71353  21.696   3.243   1.768
 6127W        W71354  11.392   0.454  11.749
 6128W        W71355   1.309  28.128  13.369
 6129W        W71356   0.435  29.174   2.179
 6130W        W71357  36.599  43.551  13.917
 6131W        W71358  33.602  19.481  12.461
 6132W        W71359  21.289  29.660  11.429
 6133W        W71360   4.028  31.624   1.008
 6134W        W71361  30.082   5.385  14.790
 6135W        W71362  21.799  40.426  10.662
 6136W        W71363  37.134   2.292  10.777
 6137W        W71364  40.746   4.785  14.007
 6138W        W71365   1.340  27.450   1.415
 6139W        W71366  30.612  17.650  12.146
 6140W        W71367  16.620   9.296  14.387
 6141W        W71368  26.526  34.091  13.449
 6142W        W71369  36.399  29.013  12.803
 6143W        W71370  35.986  40.031   3.641
 6144W        W71371   6.381  38.025  14.823
 6145W        W71372  32.901  12.111  14.391
 6146W        W71373   0.794   8.802   1.412
 6147W        W71374  11.245  21.430   3.079
 6148W        W71375  13.847  18.054   0.199
 6149W        W71376  30.665   8.312  13.055
 6150W        W71377  15.178  18.001   0.365
 6151W        W71378  36.451  24.700   4.197
 6152W        W71379   4.832  40.219  11.947
 6153W        W71380  36.719  31.846   9.993
 6154W        W71381  17.476  35.059   4.578
 6155W        W71382   2.292  40.426   1.518
 6156W        W71383   3.308  35.385  12.552
 6157W        W71384   2.943  12.724  11.580
 6158W        W71385   1.658  37.860   2.744
 6159W        W71386   7.816  15.784  12.060
 6160W        W71387  13.111  14.617   1.909
 6161W        W71388  24.099   5.384   4.898
 6162W        W71389  11.169  15.091   2.797
 6163W        W71390  22.816  12.159  11.606
 6164W        W71391  24.614  44.578  11.596
 6165W        W71392  29.016   9.903   4.529
 6166W        W71393  27.236  13.098   0.758
 6167W        W71394   5.306  40.432  12.025
 6168W        W71395  38.533  33.522   0.958
 6169W        W71396  26.923  43.908   9.742
 6170W        W71397  20.438  24.255   0.773
 6171W        W71398  11.807  29.555  13.426
 6172W        W71399  16.283  44.471   1.800
 6173W        W71400  24.471  13.721   2.798
 6174W        W71401  39.739  25.929   1.129
 6175W        W71402  29.371  22.151   3.764
 6176W        W71403  16.386  23.212   3.702
 6177W        W71404  35.018  30.468  12.241
 6178W        W71405  18.537  17.501   0.903
 6179W        W71406   0.238  10.430  12.918
 6180W        W71407  11.866  28.089   3.573
 6181W        W71408   2.363  38.864  10.561
 6182W        W71409   1.557  37.495  14.392
 6183W        W71410  12.150  22.755   0.980
 6184W        W71411  39.898  37.813  12.958
 6185W        W71412   2.563  17.241  10.787
 6186W        W71413  28.572  36.482   0.695
 6187W        W71414  20.333  22.605  14.799
 6188W        W71415   7.928  39.817  13.128
 6189W        W71416  22.078  22.849  13.308
 6190W        W71417  17.377  39.939  14.940
 6191W        W71418  21.023  19.538   0.916
 6192W        W71419   5.265  12.125  11.732
 6193W        W71420  19.611  44.696   4.226
 6194W        W71421  43.479  23.775  13.040
 6195W        W71422  32.414  44.852   0.367
 6196W        W71423  22.551  34.138  14.476
 6197W        W71424  32.956   8.876  11.303
 6198W        W71425  34.037  22.474  12.370
 6199W        W71426  32.443  28.169   0.806
 6200W        W71427  25.139  24.201   3.217
 6201W        W71428   7.516  27.489   3.127
 6202W        W71429  22.791   5.242  12.927
 6203W        W71430  23.834  23.552   0.723
 6204W        W71431  32.201  10.116  12.928
 6205W        W71432  27.710  40.172  12.830
 6206W        W71433  30.086  33.853  13.795
 6207W        W71434  26.216   0.702  14.537
 6208W        W71435  31.459  43.343   2.555
 6209W        W71436  29.053  25.010  11.089
 6210W        W71437   3.352   7.136   2.098
 6211W        W71438  19.537  44.422   4.712
 6212W        W71439  20.204   5.210   3.880
 6213W        W71440   0.864   0.256   1.849
 6214W        W71441  28.997   1.502   1.390
 6215W        W71442   8.715   8.371   1.783
 6216W        W71443  20.042  37.578   1.038
 6217W        W71444  21.707   7.058   3.031
 6218W        W71445  43.290  21.106   2.222
 6219W        W71446  20.180   9.092  13.092
 6220W        W71447  42.426  34.421  13.853
 6221W        W71448  31.966  13.851  10.524
 6222W        W71449  29.007  25.922  14.031
 6223W        W71450  34.242  44.648  12.535
 6224W        W71451  29.947  39.022  10.582
 6225W        W71452  14.265   7.770   2.341
 6226W        W71453   1.974   6.390  10.675
 6227W        W71454   9.966  13.288   3.228
 6228W        W71455  21.589   9.236  13.801
 6229W        W71456  31.343  25.748   2.192
 6230W        W71457  29.497   6.495   0.470
 6231W        W71458  15.707   2.348  13.253
 6232W        W71459  27.696  42.364  14.879
 6233W        W71460  26.685  22.248   0.340
 6234W        W71461  42.721   1.807  12.413
 6235W        W71462  32.430  37.334   1.617
 6236W        W71463  32.264  37.338  13.900
 6237W        W71464  35.875  17.113  11.581
 6238W        W71465  11.648   0.044   2.746
 6239W        W71466   2.940  20.225   2.768
 6240W        W71467  40.125  23.066   0.327
 6241W        W71468  26.749  35.478   4.106
 6242W        W71469  44.856  34.512   2.644
 6243W        W71470  44.255   4.931   0.783
 6244W        W71471  10.207   7.315  14.400
 6245W        W71472   9.899  30.820  13.911
 6246W        W71473  37.433   6.324  12.808
 6247W        W71474  43.348  15.519   4.185
 6248W        W71475  25.682  28.551  14.981
 6249W        W71476  11.268  35.785  13.131
 6250W        W71477  24.230   1.359   1.947
 6251W        W71478   0.014   2.889  13.847
 6252W        W71479  36.279   9.174  14.894
 6253W        W71480  13.706  39.522  14.580
 6254W        W71481  40.587  39.064   9.785
 6255W        W71482  36.934  10.113  11.075
 6256W        W71483  13.553   2.042  13.189
 6257W        W71484  22.918  11.803  12.501
 6258W        W71485  43.806  33.598   0.476
 6259W        W71486  31.167  24.650   4.241
 6260W        W71487  26.752   5.036  11.466
 6261W        W71488  18.047  30.137   3.297
 6262W        W71489  34.243   5.350   0.426
 6263W        W71490  14.614  22.579   2.380
 6264W        W71491   9.685  36.079   3.186
 6265W        W71492  26.771  15.333   2.592
 6266W        W71493  20.519  15.229  14.462
 6267W        W71494  39.493  23.661   0.134
 6268W        W71495  20.552  10.142  11.562
 6269W        W71496  32.297   3.024   3.230
 6270W        W71497  15.150  10.519   4.590
 6271W        W71498   2.897  42.448   3.806
 6272W        W71499  22.102  19.990   2.686
 6273W        W71500   3.343   3.772  10.793
 6274W        W71501  27.763  33.198  12.042
 6275W        W71502  32.443  32.670   0.792
 6276W        W71503  24.490  32.122  10.430
 6277W        W71504   8.432  27.115   0.345
 6278W        W71505   0.198  43.381   3.057
 6279W        W71506  12.612  19.800  11.606
 6280W        W71507   4.372  27.003   3.719
 6281W        W71508  27.942  34.332   0.336
 6282W        W71509  40.507  10.831   3.662
 6283W        W71510   6.292  19.003   2.273
 6284W        W71511   9.924  37.143  11.181
 6285W        W71512  25.688  29.281  14.249
 6286W        W71513  31.920  30.058   1.773
 6287W        W71514  27.916  20.373   4.142
 6288W        W71515  21.092  33.400   2.101
 6289W        W71516   1.624  16.093   3.519
 6290W        W71517   5.674  26.958  12.055
 6291W        W71518  22.499  16.647  14.855
 6292W        W71519  43.584  10.789   1.783
 6293W        W71520  26.996  30.123   4.652
 6294W        W71521  39.815  26.970  11.560
 6295W        W71522  42.422  44.491  12.052
 6296W        W71523   3.727   4.618  13.284
 6297W        W71524   2.205  31.915  14.071
 6298W        W71525   3.084  34.425   0.434
 6299W        W71526   9.149  44.878  12.663
 6300W        W71527  18.809   5.098  11.160
 6301W        W71528   5.891  17.387  11.615
 6302W        W71529   6.465  43.078   3.278
 6303W        W71530  15.518  21.735  14.838
 6304W        W71531  42.450  30.557   4.726
 6305W        W71532  40.329  21.022  14.497
 6306W        W71533  18.309   5.237   2.074
 6307W        W71534  22.659   8.414   3.790
 6308W        W71535   8.568  13.669   0.245
 6309W        W71536  34.045  21.184  12.223
 6310W        W71537  18.552  43.114  11.581
 6311W        W71538  43.537  25.462   4.952
 6312W        W71539  22.970  40.165  11.118
 6313W        W71540  17.137   4.991   3.628
 6314W        W71541  26.072  29.544  13.951
 6315W        W71542  42.412  16.624   1.796
 6316W        W71543  34.101  26.504   3.678
 6317W        W71544  23.001   8.182   2.338
 6318W        W71545  30.952   7.833   3.249
 6319W        W71546  11.930   2.875   4.877
 6320W        W71547  39.343  25.075   3.054
 6321W        W71548   5.467  40.477   1.311
 6322W        W71549  43.927  10.833   1.390
 6323W        W71550  21.013   4.814   5.147
 6324W        W71551   9.620  13.706   1.734
 6325W        W71552  19.615  35.909  14.075
 6326W        W71553   6.758   2.851   0.412
 6327W        W71554   7.107  35.449   2.689
 6328W        W71555  37.563   9.143   0.434
 6329W        W71556  34.557  32.568   1.343
 6330W        W71557  14.607  38.035  10.649
 6331W        W71558  38.535   1.697  13.797
 6332W        W71559  34.142   1.971   3.926
 6333W        W71560  43.335  29.868   1.972
 6334W        W71561  30.030   5.581   1.784
 6335W        W71562  44.308  36.826   3.132
 6336W        W71563  28.459  10.529   3.611
 6337W        W71564  42.236  38.453  11.506
 6338W        W71565  12.900  15.252  11.642
 6339W        W71566  40.045  33.119  11.176
 6340W        W71567   8.424  12.245   1.241
 6341W        W71568  18.729  24.680   0.696
 6342W        W71569  32.576  26.534   1.790
 6343W        W71570  16.583   8.157  12.068
 6344W        W71571  36.488  37.271   3.686
 6345W        W71572  11.767  24.944  13.539
 6346W        W71573  17.949  31.056   3.189
 6347W        W71574  39.563   3.402  13.265
 6348W        W71575  35.579  32.210  14.011
 6349W        W71576   4.054   2.704  12.299
 6350W        W71577   6.115  28.423  12.838
 6351W        W71578  32.944  11.753  13.399
 6352W        W71579  39.244  37.638  10.941
 6353W        W71580  38.961  37.804   1.396
 6354W        W71581  28.723  19.929   4.959
 6355W        W71582  27.897  39.085   0.726
 6356W        W71583  42.702  24.257   0.405
 6357W        W71584  25.994   1.160   0.370
 6358W        W71585  27.152  31.706  13.550
 6359W        W71586  33.627  44.205  13.946
 6360W        W71587  12.250  40.439   4.730
 6361W        W71588   2.777   7.908   0.341
 6362W        W71589   5.108  12.475  13.499
 6363W        W71590  31.924  12.109  12.824
 6364W        W71591   2.350  25.177  12.006
 6365W        W71592  25.334   7.789   2.618
 6366W        W71593  21.637  23.194   1.734
 6367W        W71594  41.035   7.303   1.588
 6368W        W71595   2.355  20.947   4.613
 6369W        W71596  37.917  33.773   0.788
 6370W        W71597  32.319  28.707  12.651
 6371W        W71598   1.029  16.847  10.657
 6372W        W71599  12.778  19.125  13.982
 6373W        W71600  17.761   6.154   0.846
 6374W        W71601   2.523  15.765  10.722
 6375W        W71602  13.330  42.429  14.449
 6376W        W71603  40.708  18.731   0.869
 6377W        W71604  30.181   8.149  10.723
 6378W        W71605  29.646  44.394   4.216
 6379W        W71606  43.280  25.964  13.616
 6380W        W71607  35.656  32.775   3.063
 6381W        W71608  44.175  24.879   5.373
 6382W        W71609  23.271  34.003   1.071
 6383W        W71610  39.878   6.672   0.301
 6384W        W71611  19.605  14.151   1.907
 6385W        W71612  26.193  18.548   4.133
 6386W        W71613  12.165  36.189  10.424
 6387W        W71614   6.377  16.765  13.795
 6388W        W71615  27.738  12.527   1.446
 6389W        W71616  41.839  41.801  11.181
 6390W        W71617  16.359   8.323  12.517
 6391W        W71618  43.687  18.199  13.114
 6392W        W71619  21.123   9.316   2.618
 6393W        W71620   6.399   6.775  12.610
 6394W        W71621  44.496  18.914   2.216
 6395W        W71622  23.618  28.705   3.645
 6396W        W71623   3.821  39.828  12.220
 6397W        W71624   7.789   1.892  14.369
 6398W        W71625  12.611  41.374  14.381
 6399W        W71626  40.042   7.440  14.447
 6400W        W71627  21.688  24.569  12.884
 6401W        W71628  17.769   6.673  14.051
 6402W        W71629   3.436   3.671   4.222
 6403W        W71630  35.835  19.361  12.453
 6404W        W71631  34.069  10.944  13.429
 6405W        W71632  32.476  22.227  13.483
 6406W        W71633   2.068  32.221  13.658
 6407W        W71634  41.965  40.312  12.931
 6408W        W71635  33.980  13.120  13.844
 6409W        W71636  22.981  36.860  11.579
 6410W        W71637  11.388  42.247  13.481
 6411W        W71638   1.387   7.109  11.440
 6412W        W71639  41.908  36.070   2.592
 6413W        W71640  38.859  22.076   2.684
 6414W        W71641  15.502  41.420   4.125
 6415W        W71642  16.220   0.886   0.537
 6416W        W71643  27.887  31.965  14.868
 6417W        W71644  44.737  43.127   3.841
 6418W        W71645   4.286  17.990   2.532
 6419W        W71646   7.299  23.756   4.660
 6420W        W71647  24.062  43.548  14.221
 6421W        W71648  24.992  29.647   1.218
 6422W        W71649  31.728  39.980   4.061
 6423W        W71650  13.446   2.293  12.671
 6424W        W71651  17.169   7.937   2.822
 6425W        W71652  42.049  12.235  10.648
 6426W        W71653  34.022  25.498   0.837
 6427W        W71654  15.375  21.718   1.686
 6428W        W71655   0.849   5.214  12.592
 6429W        W71656  30.712  30.025  13.529
 6430W        W71657  29.897  26.859   2.635
 6431W        W71658   2.189  28.093   1.389
 6432W        W71659  36.621   8.942  12.328
 6433W        W71660  28.697  16.122  11.072
 6434W        W71661  17.985  27.575  13.022
 6435W        W71662  15.152  31.850  10.487
 6436W        W71663  37.325  36.968  12.569
 6437W        W71664  31.572   9.168  14.804
 6438W        W71665  26.903   8.650  14.899
 6439W        W71666  27.063  41.800   1.326
 6440W        W71667  36.993  40.908  13.121
 6441W        W71668  43.400  20.186  14.575
 6442W        W71669  41.103  25.006  14.835
 6443W        W71670  28.044  16.623   1.696
 6444W        W71671  20.200  36.287   2.682
 6445W        W71672  29.000  34.339   2.946
 6446W        W71673  24.506   5.276  11.001
 6447W        W71674  44.737  11.906   3.726
 6448W        W71675  34.181  15.039  13.483
 6449W        W71676  31.420   3.360   1.923
 6450W        W71677   3.865  16.027   4.368
 6451W        W71678  11.728  22.917   0.688
 6452W        W71679   8.152  22.627   3.087
 6453W        W71680  18.021  43.329  14.931
 6454W        W71681   8.638  12.842   4.300
 6455W        W71682  21.772  32.468  12.452
 6456W        W71683  29.156  40.482   3.411
 6457W        W71684  32.990  36.384  13.429
 6458W        W71685   0.740  19.740   1.358
 6459W        W71686  17.620  20.039  14.564
 6460W        W71687  18.100   0.867   2.941
 6461W        W71688  41.364  32.966  11.221
 6462W        W71689  38.714  41.373   0.918
 6463W        W71690  44.995  15.148   2.185
 6464W        W71691  40.952   2.750  10.588
 6465W        W71692  14.618  16.833  10.764
 6466W        W71693   3.483  35.393   0.883
 6467W        W71694  28.016   0.952  13.022
 6468W        W71695  15.226  44.839  10.681
 6469W        W71696  29.642   9.115   1.774
 6470W        W71697   3.950   7.821  14.352
 6471W        W71698  29.208   4.411  13.326
 6472W        W71699  41.956  34.180  11.249
 6473W        W71700  21.496  27.018  13.686
 6474W        W71701  28.563  44.308  11.556
 6475W        W71702  39.166   2.542  10.654
 6476W        W71703  29.124  15.484  12.659
 6477W        W71704  34.530  23.244   1.468
 6478W        W71705  15.767  18.199   4.074
 6479W        W71706  30.545   2.914  13.387
 6480W        W71707  37.833   8.972  14.952
 6481W        W71708  27.122  39.594   3.675
 6482W        W71709  21.649  32.841   0.189
 6483W        W71710  17.132  30.185   1.179
 6484W        W71711  36.796   8.384   2.782
 6485W        W71712   3.411  14.576  12.404
 6486W        W71713  27.463  27.649   2.708
 6487W        W71714  30.947   4.828   1.514
 6488W        W71715  26.316   5.246  13.491
 6489W        W71716   9.125  15.280  14.337
 6490W        W71717  13.544  18.779  10.673
 6491W        W71718  19.984   0.424  14.524
 6492W        W71719   0.738  10.163   4.209
 6493W        W71720  11.018  42.279   2.099
 6494W        W71721  32.437  22.048  10.696
 6495W        W71722  38.307   1.229   0.367
 6496W        W71723  11.555  35.123   0.805
 6497W        W71724  30.990  18.425   2.900
 6498W        W71725  37.150  36.018  12.461
 6499W        W71726  22.017  33.626  14.504
 6500W        W71727  44.338  28.186   2.796
 6501W        W71728   2.226  34.849  12.577
 6502W        W71729   0.800   1.213  11.926
 6503W        W71730   8.788  12.366  12.558
 6504W        W71731  19.532  36.344  14.338
 6505W        W71732   5.195  41.699  13.005
 6506W        W71733  24.920  14.072  14.834
 6507W        W71734  18.726  12.032  12.025
 6508W        W71735  33.113  31.521   0.363
 6509W        W71736  10.625  20.091   1.957
 6510W        W71737  20.580   4.586   3.302
 6511W        W71738   8.135   1.098  12.061
 6512W        W71739   3.537   0.453  12.493
 6513W        W71740  26.792  13.223   3.315
 6514W        W71741   6.911  12.528   4.182
 6515W        W71742  41.352  30.975   4.138
 6516W        W71743  33.616  13.672   1.209
 6517W        W71744   5.260  30.940   2.133
 6518W        W71745   2.619  10.011   1.942
 6519W        W71746  27.496  21.553  12.499
 6520W        W71747   9.874  37.613  14.676
 6521W        W71748  17.010  12.377   4.595
 6522W        W71749  12.330  18.853  14.069
 6523W        W71750  20.031  23.634   1.739
 6524W        W71751  21.351   2.726  13.102
 6525W        W71752  37.255  12.013   3.372
 6526W        W71753  30.154  38.471  13.476
 6527W        W71754  29.735   3.909  14.008
 6528W        W71755   0.790  22.982  11.099
 6529W        W71756  11.739  34.397  12.096
 6530W        W71757  12.086  20.243   1.103
 6531W        W71758  44.056  44.923  12.418
 6532W        W71759   1.343  39.030   0.924
 6533W        W71760  36.407  41.361   0.854
 6534W        W71761  31.653  32.055   0.528
 6535W        W71762  30.726  39.375   3.803
 6536W        W71763   0.976  11.103   2.216
 6537W        W71764  13.232  30.681  11.134
 6538W        W71765   9.899  21.721  12.504
 6539W        W71766   4.813  35.613   2.487
 6540W        W71767  17.758  14.822  10.652
 6541W        W71768  17.618  19.630  14.179
 6542W        W71769  37.460   0.593   4.575
 6543W        W71770  17.995  32.289   4.165
 6544W        W71771  39.975  15.318  14.500
 6545W        W71772   8.282  25.472   1.722
 6546W        W71773   1.530  43.487  12.577
 6547W        W71774   2.080  11.144  14.717
 6548W        W71775  14.211  12.768   4.475
 6549W        W71776   0.502  32.080  12.671
 6550W        W71777   5.197  17.681   4.547
 6551W        W71778  39.373  31.080  12.000
 6552W        W71779  24.949   8.592  12.446
 6553W        W71780   9.097   6.807  11.027
 6554W        W71781  37.962   0.327  12.538
 6555W        W71782  25.743  25.603  13.350
 6556W        W71783   3.496  34.550   3.624
 6557W        W71784  27.764  32.893   4.484
 6558W        W71785   0.961   0.544   2.699
 6559W        W71786  25.110   8.376   0.850
 6560W        W71787  24.576   7.136  13.074
 6561W        W71788   8.722   2.860  11.132
 6562W        W71789   4.905  18.985   4.264
 6563W        W71790   4.484  13.975   5.217
 6564W        W71791  42.242  24.503   0.266
 6565W        W71792  17.734  29.204  12.399
 6566W        W71793  40.994  35.936  14.831
 6567W        W71794  36.562  41.888   0.824
 6568W        W71795  31.977  30.342   3.396
 6569W        W71796   1.110   7.722  13.417
 6570W        W71797  28.612  35.499   0.289
 6571W        W71798  35.025  36.577   4.840
 6572W        W71799  34.504  42.218  10.478
 6573W        W71800  19.994   7.885   4.572
 6574W        W71801  20.084  29.405   4.643
 6575W        W71802  19.314  39.484  10.577
 6576W        W71803  18.170  27.164   1.222
 6577W        W71804   2.550   8.836   1.380
 6578W        W71805  35.971  43.051   1.407
 6579W        W71806  35.070  15.021   3.410
 6580W        W71807  16.694   2.895  14.897
 6581W        W71808  13.121  29.539   2.824
 6582W        W71809  26.561  14.637  14.874
 6583W        W71810   7.846   2.733   2.657
 6584W        W71811  27.339  23.995   3.850
 6585W        W71812  19.149  10.305   0.000
 6586W        W71813  27.612  26.063  13.178
 6587W        W71814  36.734  27.318  13.269
 6588W        W71815  18.271  31.156  13.396
 6589W        W71816  41.276  42.971  11.603
 6590W        W71817  38.055   9.468  14.063
 6591W        W71818  29.408  34.997  11.371
 6592W        W71819  26.711  25.097  14.024
 6593W        W71820  18.578  17.050   4.106
 6594W        W71821  11.613  31.728  11.857
 6595W        W71822  39.684  25.249   0.877
 6596W        W71823  26.160   2.680   4.674
 6597W        W71824  42.998  22.995   2.331
 6598W        W71825  28.868  34.935   3.146
 6599W        W71826   2.336  26.066   4.817
 6600W        W71827  19.286   5.850  12.166
 6601W        W71828  44.953  21.695  14.843
 6602W        W71829  36.799  28.466   0.458
 6603W        W71830   8.825  27.201  13.890
 6604W        W71831  44.423  42.472   4.315
 6605W        W71832   7.238  21.270  12.096
 6606W        W71833  23.467  22.072  12.774
 6607W        W71834  33.033  34.000   3.795
 6608W        W71835  37.999  36.747  12.135
 6609W        W71836   6.448  41.063  12.926
 6610W        W71837  11.696  13.873   1.694
 6611W        W71838  44.158  30.044   0.021
 6612W        W71839  27.130   9.881   4.332
 6613W        W71840  10.250  14.348   4.116
 6614W        W71841   5.813  27.408  10.686
 6615W        W71842  16.560  36.876   2.894
 6616W        W71843  25.806  30.955   0.961
 6617W        W71844  28.375  23.161   3.811
 6618W        W71845   9.755   6.215  12.455
 6619W        W71846   6.031  39.341  14.665
 6620W        W71847  20.272  13.835   4.849
 6621W        W71848  40.258  15.304   3.713
 6622W        W71849  22.383   5.923   2.773
 6623W        W71850  41.295  27.034   3.695
 6624W        W71851   2.142  39.559   3.806
 6625W        W71852  11.755  15.657   2.275
 6626W        W71853   3.866  16.074   1.738
 6627W        W71854  12.109  22.663   0.468
 6628W        W71855  36.699  38.692  11.625
 6629W        W71856  38.762  35.064  13.965
 6630W        W71857   0.247   8.830  10.776
 6631W        W71858  23.863  28.835  14.922
 6632W        W71859   3.746  12.234   2.594
 6633W        W71860  35.580  26.207  12.812
 6634W        W71861  44.487   7.619   0.583
 6635W        W71862  17.671  27.471   4.276
 6636W        W71863  30.442   6.735  13.820
 6637W        W71864  11.004   7.888  11.900
 6638W        W71865  43.331  27.857  12.834
 6639W        W71866  24.681  44.083  11.558
 6640W        W71867  24.627  11.670  12.990
 6641W        W71868  41.867  11.884  14.216
 6642W        W71869  18.783   7.972   4.170
 6643W        W71870  23.170   2.758  12.455
 6644W        W71871  25.152   6.342   0.822
 6645W        W71872  15.691  23.301   1.485
 6646W        W71873  10.752  11.993   1.388
 6647W        W71874  24.663  27.609  13.005
 6648W        W71875  13.801  23.038  10.982
 6649W        W71876  24.118  33.424  10.261
 6650W        W71877  25.178  17.756  11.226
 6651W        W71878  44.377  13.108  12.159
 6652W        W71879  39.953  26.117  13.952
 6653W        W71880  10.237  19.629   4.704
 6654W        W71881  17.841  19.606   1.820
 6655W        W71882  22.723  35.648   1.629
 6656W        W71883  40.457  18.102   2.819
 6657W        W71884  21.910  37.621   2.768
 6658W        W71885  27.602   3.611  12.515
 6659W        W71886  11.821  29.968   2.891
 6660W        W71887   1.914  30.123   1.436
 6661W        W71888   2.168  27.240   0.004
 6662W        W71889  15.607  26.088  10.334
 6663W        W71890  22.752  44.415  11.561
 6664W        W71891  15.753  20.120   3.703
 6665W        W71892  19.401  26.130   1.440
 6666W        W71893  28.864  23.998  14.574
 6667W        W71894  25.063  20.756  14.999
 6668W        W71895   4.079  41.253   0.230
 6669W        W71896   0.651   4.546  10.326
 6670W        W71897   1.602  19.918   3.088
 6671W        W71898   7.378  31.841   2.929
 6672W        W71899  13.253  44.801   2.586
 6673W        W71900  32.952  41.569   3.187
 6674W        W71901  16.242  39.151   2.018
 6675W        W71902  31.142  23.179   4.895
 6676W        W71903  19.375  15.855   4.211
 6677W        W71904  35.401  27.489   1.995
 6678W        W71905   3.264  37.624   2.842
 6679W        W71906  38.777  42.543  10.902
 6680W        W71907  41.248   1.061  13.959
 6681W        W71908  32.626  16.027   3.841
 6682W        W71909   5.949  16.226   2.680
 6683W        W71910  22.229  16.778   0.920
 6684W        W71911  14.193   4.004  11.564
 6685W        W71912   1.734  34.541  13.949
 6686W        W71913   1.478  13.163   4.597
 6687W        W71914  42.509  15.997  12.982
 6688W        W71915  43.380  42.564  13.122
 6689W        W71916  14.710   2.047  14.072
 6690W        W71917  37.800  29.235   4.588
 6691W        W71918  36.819  16.328  11.348
 6692W        W71919  14.133  31.914  12.024
 6693W        W71920  43.449  29.518  13.569
 6694W        W71921   4.826  14.157  11.606
 6695W        W71922  29.540  19.495  13.403
 6696W        W71923  39.326  27.413  12.123
 6697W        W71924  11.892  21.250   2.552
 6698W        W71925   3.700  38.613   0.514
 6699W        W71926  28.677  26.484  14.972
 6700W        W71927  10.218  38.255   3.774
 6701W        W71928   0.991  36.133  11.607
 6702W        W71929  42.030  28.965   3.688
 6703W        W71930  33.873  24.508  10.660
 6704W        W71931  19.661  10.857  11.982
 6705W        W71932  42.429  14.710  14.417
 6706W        W71933  24.471  18.726   4.672
 6707W        W71934  29.460  26.679  12.924
 6708W        W71935   5.906   2.934   3.929
 6709W        W71936   9.416  30.972  10.630
 6710W        W71937  40.890   5.207   5.005
 6711W        W71938  24.354  41.052   2.469
 6712W        W71939   7.159  19.774   2.409
 6713W        W71940  14.571   6.480   3.698
 6714W        W71941  35.473  19.182   0.243
 6715W        W71942  33.165  18.690  12.469
 6716W        W71943  20.276  36.331   0.717
 6717W        W71944   8.867  15.728  14.413
 6718W        W71945  40.983  21.509   3.346
 6719W        W71946   7.692  14.007   3.705
 6720W        W71947   5.382  36.771   3.699
 6721W        W71948  10.014  29.448  14.420
 6722W        W71949  44.465  31.360  11.091
 6723W        W71950  32.183  32.942  14.027
 6724W        W71951  26.717   1.461  14.341
 6725W        W71952  22.641  22.273   1.230
 6726W        W71953  26.523   6.992   2.885
 6727W        W71954   3.860  28.549   3.772
 6728W        W71955  18.671   3.730   3.703
 6729W        W71956  29.795  14.249   2.289
 6730W        W71957   2.390  11.382   2.794
 6731W        W71958  38.844  39.443   3.248
 6732W        W71959  42.923  42.459  12.891
 6733W        W71960  14.297  22.013   3.271
 6734W        W71961  34.943  10.301   1.486
 6735W        W71962  30.322  39.114  12.309
 6736W        W71963  23.265  39.386   1.745
 6737W        W71964   4.447  39.530   4.045
 6738W        W71965  34.990  37.947   2.584
 6739W        W71966  29.004  38.601  12.622
 6740W        W71967   0.320  31.370   3.513
 6741W        W71968  26.724  12.627   1.455
 6742W        W71969  17.072   6.155   1.511
 6743W        W71970  44.929   0.303  10.896
 6744W        W71971  18.183  39.598  14.867
 6745W        W71972  36.112   6.670   3.247
 6746W        W71973  23.023  14.142  10.436
 6747W        W71974  15.272  25.080   0.710
 6748W        W71975  21.545  13.551  13.407
 6749W        W71976  36.405  16.565  11.569
 6750W        W71977  34.099   4.697   2.010
 6751W        W71978   4.388  43.554  11.977
 6752W        W71979  23.993  17.930  11.593
 6753W        W71980  43.463   8.414   1.728
 6754W        W71981   2.180  13.531  13.100
 6755W        W71982  36.584   6.217  10.757
 6756W        W71983   1.474  17.681   4.120
 6757W        W71984  29.210  39.890   1.597
 6758W        W71985  22.493  12.877   2.321
 6759W        W71986   0.975  17.769   2.166
 6760W        W71987  32.529   7.254   4.668
 6761W        W71988  43.111  44.359  14.502
 6762W        W71989  33.873  22.236  14.554
 6763W        W71990  38.383  37.346  11.229
 6764W        W71991  12.397  37.597   3.110
 6765W        W71992  34.939  18.724   1.032
 6766W        W71993  42.391  22.139  10.861
 6767W        W71994  18.558  28.538  12.860
 6768W        W71995  42.710  32.240  12.001
 6769W        W71996  23.957  40.590  11.995
 6770W        W71997  20.686  16.509   0.732
 6771W        W71998  30.878  16.753   0.528
 6772W        W71999  41.805  36.935   4.512
 6773W        W72000  22.503  11.408   0.268
 6774W        W72001  17.325  18.548   1.585
 6775W        W72002  27.708  29.007   0.427
 6776W        W72003  41.967  12.907   2.285
 6777W        W72004  26.162   1.535  11.336
 6778W        W72005  37.510  28.280  12.858
 6779W        W72006  30.417  15.310  13.503
 6780W        W72007  11.386  24.663  13.786
 6781W        W72008  11.572  30.020  13.455
 6782W        W72009  23.561  13.490  10.732
 6783W        W72010  10.831  16.045  11.547
 6784W        W72011  38.616  31.387  12.892
 6785W        W72012  22.378  25.019   4.533
 6786W        W72013   0.931   8.922   3.145
 6787W        W72014  16.122  28.435  12.102
 6788W        W72015   5.297  13.553   3.200
 6789W        W72016  30.634  19.870   4.463
 6790W        W72017  33.864  28.428  14.377
 6791W        W72018  41.523   4.759   0.522
 6792W        W72019   2.370   3.906   0.252
 6793W        W72020  41.897   6.497   1.475
 6794W        W72021   2.729   7.863   1.156
 6795W        W72022  36.178  34.132   0.258
 6796W        W72023  31.426  21.992  11.745
 6797W        W72024  29.640   1.197   3.791
 6798W        W72025   7.235   3.185   4.555
 6799W        W72026  22.910  44.059   1.592
 6800W        W72027  40.366  29.852   0.904
 6801W        W72028  33.498   9.344  10.680
 6802W        W72029   1.227   3.343   2.102
 6803W        W72030  17.404  13.334  13.631
 6804W        W72031  19.281   6.350   2.822
 6805W        W72032  23.532  42.526  13.429
 6806W        W72033   0.558   9.438  14.069
 6807W        W72034  24.345  37.274   5.084
 6808W        W72035  19.217  10.177  11.020
 6809W        W72036   6.511  12.881   4.166
 6810W        W72037  18.756  23.078   4.856
 6811W        W72038  21.306   8.330   2.782
 6812W        W72039  31.651  33.862   3.732
 6813W        W72040  37.160  25.666  12.711
 6814W        W72041  37.611  28.114   0.591
 6815W        W72042  31.508  36.276  12.031
 6816W        W72043   7.443   8.727  10.671
 6817W        W72044  32.052  36.853   4.100
 6818W        W72045  16.109   6.507  12.688
 6819W        W72046   1.499  14.767  14.969
 6820W        W72047   8.715   0.738   2.836
 6821W        W72048  26.121  12.319  10.728
 6822W        W72049  11.638  42.696   3.732
 6823W        W72050  44.887   6.315   1.929
 6824W        W72051   3.961  31.187   1.295
 6825W        W72052  43.836  40.848  11.862
 6826W        W72053  37.503  22.003   1.718
 6827W        W72054  24.881  34.544   2.293
 6828W        W72055  36.043  10.633   4.318
 6829W        W72056  41.124  38.847  13.248
 6830W        W72057  13.859  38.816   4.181
 6831W        W72058  18.185   5.329   4.188
 6832W        W72059  34.406  43.285  14.896
 6833W        W72060  34.956   8.088  14.319
 6834W        W72061   3.223  31.329  11.483
 6835W        W72062  34.941   7.330  14.917
 6836W        W72063  38.052  28.787   4.637
 6837W        W72064  11.304  11.720   2.337
 6838W        W72065  38.992  32.199   2.126
 6839W        W72066  14.237  21.498   4.817
 6840W        W72067   0.414  10.848   0.567
 6841W        W72068  39.341  40.022  11.239
 6842W        W72069  37.077  15.924   2.694
 6843W        W72070   9.919  23.039   1.749
 6844W        W72071  34.872  11.291  10.746
 6845W        W72072  37.141   5.693  12.838
 6846W        W72073  22.465  16.124   0.766
 6847W        W72074  18.736  32.438  13.369
 6848W        W72075  10.294  39.914   2.338
 6849W        W72076   0.483  24.154   0.225
 6850W        W72077   9.203  20.535  11.136
 6851W        W72078   1.515   9.727   4.615
 6852W        W72079  32.012  31.655  12.386
 6853W        W72080  20.233  30.449  12.521
 6854W        W72081  33.279  17.703   2.818
 6855W        W72082  15.242   9.274   0.844
 6856W        W72083  35.980  19.014   1.114
 6857W        W72084  34.913  32.784  11.205
 6858W        W72085  16.028   5.879   0.801
 6859W        W72086  21.956   9.602   2.242
 6860W        W72087   6.952  12.813  13.448
 6861W        W72088  16.042  41.981  11.581
 6862W        W72089  38.149  26.620   0.636
 6863W        W72090   5.331  24.517   0.910
 6864W        W72091   0.451  13.177   4.097
 6865W        W72092  32.937  37.413   1.681
 6866W        W72093  31.659  21.755  14.073
 6867W        W72094  25.128  10.048  11.002
 6868W        W72095  13.656  10.639  12.861
 6869W        W72096  11.660  36.471   2.784
 6870W        W72097   2.250  25.236  13.480
 6871W        W72098  15.735  29.867   1.187
 6872W        W72099  19.595  33.500  12.409
 6873W        W72100  44.929   7.200  13.565
 6874W        W72101  24.138  35.990  11.765
 6875W        W72102  35.671   2.350  12.010
 6876W        W72103   4.965   6.710  10.548
 6877W        W72104   1.695  30.609   1.461
 6878W        W72105  31.636  18.699   1.765
 6879W        W72106  29.920  23.515   3.538
 6880W        W72107  26.670   4.453  11.159
 6881W        W72108  36.944  39.935   3.398
 6882W        W72109   5.462  21.987   4.240
 6883W        W72110  20.585  28.996  14.452
 6884W        W72111   2.299   5.283   3.753
 6885W        W72112  13.369  31.803  12.552
 6886W        W72113  35.970  40.775  13.757
 6887W        W72114  40.094  11.136   3.732
 6888W        W72115  38.954  19.859   2.307
 6889W        W72116   0.332  43.385  14.488
 6890W        W72117  29.705  28.140   0.814
 6891W        W72118  37.895  20.000   1.600
 6892W        W72119  40.412  24.060  10.649
 6893W        W72120   6.902  41.374   2.826
 6894W        W72121  24.712  31.885   0.213
 6895W        W72122  32.920  14.380   2.926
 6896W        W72123  18.105  19.182  14.717
 6897W        W72124   1.742  17.503   4.561
 6898W        W72125   4.255  20.725   3.180
 6899W        W72126  19.816  40.976   3.820
 6900W        W72127  28.166  38.661   4.359
 6901W        W72128   1.889  21.149   4.590
 6902W        W72129  37.927  11.122   4.202
 6903W        W72130  28.292  33.549  10.779
 6904W        W72131  11.126  25.760  12.085
 6905W        W72132  24.496  37.125  11.276
 6906W        W72133  39.217  26.641   0.866
 6907W        W72134  32.661  30.588   4.031
 6908W        W72135  36.751  35.613  11.628
 6909W        W72136  25.774  31.144  14.336
 6910W        W72137  17.988  33.563   1.033
 6911W        W72138  21.144  16.332  14.817
 6912W        W72139   7.619   5.113   4.474
 6913W        W72140  21.654  41.599  12.170
 6914W        W72141   0.287  31.606  11.472
 6915W        W72142   8.094   0.751  14.895
 6916W        W72143  18.187  26.646   2.972
 6917W        W72144   0.967  21.678   3.760
 6918W        W72145  40.057  33.021  14.113
 6919W        W72146   7.968  30.414  10.609
 6920W        W72147  29.870  25.995  12.093
 6921W        W72148  40.955  34.763   3.185
 6922W        W72149  38.539  28.024   0.451
 6923W        W72150  11.664  19.844  12.105
 6924W        W72151   2.192  11.098   0.447
 6925W        W72152  36.603  22.266   4.539
 6926W        W72153  28.777   3.869   1.622
 6927W        W72154  23.184  41.355   3.781
 6928W        W72155  16.273  24.984  14.448
 6929W        W72156  26.241  21.516   4.741
 6930W        W72157  32.147  22.577   4.987
 6931W        W72158  24.611  23.498   1.876
 6932W        W72159  26.940  32.589  13.486
 6933W        W72160  25.175  19.525  12.551
 6934W        W72161  10.303  35.570  13.857
 6935W        W72162  17.052  32.414  11.080
 6936W        W72163   8.361  20.665  10.765
 6937W        W72164  30.667  13.222  14.050
 6938W        W72165  40.348  14.744  11.711
 6939W        W72166  13.777   6.260  10.787
 6940W        W72167  11.728   0.479  14.989
 6941W        W72168  32.843  18.586  14.881
 6942W        W72169  21.231   6.366  14.725
 6943W        W72170  28.518   9.875  14.038
 6944W        W72171   5.248  18.640   1.788
 6945W        W72172  39.507  35.731  13.644
 6946W        W72173  23.404  18.290  14.478
 6947W        W72174  24.534  16.731   4.720
 6948W        W72175  29.912  20.277   4.969
 6949W        W72176  33.499  43.183  13.493
 6950W        W72177  21.737   6.466  12.327
 6951W        W72178  10.168  30.603  12.930
 6952W        W72179  22.050  31.970   1.405
 6953W        W72180  17.147  18.464   4.631
 6954W        W72181  42.540  23.238  13.807
 6955W        W72182  18.593  14.245   4.484
 6956W        W72183  36.275  16.837  10.686
 6957W        W72184  39.253  42.677  11.090
 6958W        W72185   1.871  13.709  14.333
 6959W        W72186  17.716   6.465  12.854
 6960W        W72187  22.864  31.965  12.993
 6961W        W72188  43.715  11.313   3.290
 6962W        W72189  42.742  42.373   5.011
 6963W        W72190  44.985  22.079  13.523
 6964W        W72191   3.140  31.569  10.978
 6965W        W72192  14.685  15.027  10.541
 6966W        W72193  27.994  31.509  11.127
 6967W        W72194  33.064  31.862   4.691
 6968W        W72195  32.965  13.337   1.845
 6969W        W72196  22.616   6.713  10.368
 6970W        W72197  43.347  36.591   2.376
 6971W        W72198  10.218  34.781   2.298
 6972W        W72199  21.831  14.294  12.714
 6973W        W72200   8.914  30.209  10.693
 6974W        W72201  27.647  41.891   4.549
 6975W        W72202   2.425  30.656  14.879
 6976W        W72203  14.134  11.242  10.428
 6977W        W72204   7.319  32.962  10.696
 6978W        W72205  25.139  31.475  10.871
 6979W        W72206  13.630   1.763   0.808
 6980W        W72207  14.425   7.749   3.161
 6981W        W72208  29.900  14.441  12.604
 6982W        W72209   9.955  13.313  11.378
 6983W        W72210  35.611   5.155  14.794
 6984W        W72211  19.716  21.018   2.758
 6985W        W72212  41.424  15.777  11.364
 6986W        W72213  24.534  43.973   0.379
 6987W        W72214  18.493  32.128   4.087
 6988W        W72215  12.649   2.164   2.844
 6989W        W72216  21.694  41.391   1.855
 6990W        W72217  22.493  38.064   1.245
 6991W        W72218   6.221  14.197   3.582
 6992W        W72219   4.100  23.069   2.776
 6993W        W72220  20.117  14.914   0.894
 6994W        W72221  14.846  12.039   4.391
 6995W        W72222  14.601   0.324  11.171
 6996W        W72223   8.381  12.668  12.322
 6997W        W72224  25.168  11.804   3.620
 6998W        W72225   0.471  44.106   1.937
 6999W        W72226  30.142  44.707   1.739
 7000W        W72227   9.022   3.927   3.584
 7001W        W72228  37.794  29.494   0.919
 7002W        W72229  24.248  42.427   2.713
 7003W        W72230  38.883   7.753  14.853
 7004W        W72231  16.754  20.843   9.979
 7005W        W72232  25.580   2.077   4.307
 7006W        W72233  32.156  25.469   2.701
 7007W        W72234  26.389  36.154  10.868
 7008W        W72235  17.850  24.153  13.452
 7009W        W72236  29.444  41.801  13.256
 7010W        W72237  15.738  28.485  10.704
 7011W        W72238  35.432  26.078   2.605
 7012W        W72239  40.003   1.887  11.963
 7013W        W72240  25.711  21.465   1.268
 7014W        W72241  20.627   1.541   2.222
 7015W        W72242  35.319  20.153  14.343
 7016W        W72243   6.284  41.572  10.890
 7017W        W72244  26.183  33.094   3.236
 7018W        W72245  25.399  36.065  11.144
 7019W        W72246  19.990  29.250  11.409
 7020W        W72247  44.591  25.862   0.337
 7021W        W72248  31.979  23.708   3.243
 7022W        W72249  33.524  23.765   4.823
 7023W        W72250   0.221  35.392  14.865
 7024W        W72251  40.161  19.551  13.892
 7025W        W72252  39.083  23.950  10.385
 7026W        W72253   9.453  39.279   4.561
 7027W        W72254  31.944  14.343  12.001
 7028W        W72255  28.091  22.039   2.063
 7029W        W72256  43.503  16.000  12.598
 7030W        W72257   8.845  23.947  14.171
 7031W        W72258   3.325   9.389  14.761
 7032W        W72259  16.792  29.076  11.959
 7033W        W72260  40.500  16.270   3.463
 7034W        W72261   4.865  15.641   1.249
 7035W        W72262  31.182  43.140  12.609
 7036W        W72263  10.557   3.719  14.254
 7037W        W72264  28.739  39.947  10.773
 7038W        W72265  40.238  31.209   2.419
 7039W        W72266   8.803  13.621   4.532
 7040W        W72267  31.043  30.932   3.060
 7041W        W72268   6.904  39.036   0.930
 7042W        W72269  25.999  19.266  12.554
 7043W        W72270  38.409  27.079   4.725
 7044W        W72271  15.056  24.832   2.439
 7045W        W72272  15.364   4.342   0.180
 7046W        W72273  23.258  36.066   3.639
 7047W        W72274  12.523  19.716  13.388
 7048W        W72275  10.443  31.865  10.572
 7049W        W72276  38.027  10.630  13.120
 7050W        W72277  20.334  28.219   1.274
 7051W        W72278  13.630   8.506  13.427
 7052W        W72279   5.267  32.271  11.279
 7053W        W72280  18.520  37.120   1.543
 7054W        W72281  16.754  38.561  13.815
 7055W        W72282  35.809   7.809   1.757
 7056W        W72283  30.140  10.617  14.493
 7057W        W72284  16.191  31.184   1.186
 7058W        W72285  38.512  13.730  11.670
 7059W        W72286  38.947  42.508  13.488
 7060W        W72287  24.874  27.181   4.515
 7061W        W72288  26.434  26.219  14.875
 7062W        W72289   0.233  15.158  11.569
 7063W        W72290   9.215  39.168  11.594
 7064W        W72291  32.108   7.349   4.004
 7065W        W72292  26.548  24.609  12.845
 7066W        W72293   0.290  40.454   0.984
 7067W        W72294  35.411   8.608   1.857
 7068W        W72295  29.993  15.083  13.293
 7069W        W72296   2.014  30.112  10.551
 7070W        W72297   4.181  41.963  12.989
 7071W        W72298  39.822  17.650   0.317
 7072W        W72299  17.207   5.730  12.546
 7073W        W72300  44.014  44.003  13.298
 7074W        W72301  30.427   2.620  14.746
 7075W        W72302  38.310  13.707  11.220
 7076W        W72303  31.153  35.070   2.292
 7077W        W72304  20.058   3.172   4.920
 7078W        W72305  38.457  32.167  11.173
 7079W        W72306  36.407  23.869   1.268
 7080W        W72307  17.587  25.042   0.734
 7081W        W72308  41.589  21.549   0.304
 7082W        W72309  30.945   7.163   3.207
 7083W        W72310  20.550  15.137   4.656
 7084W        W72311  42.443  43.181   4.179
 7085W        W72312  28.668  34.529  10.946
 7086W        W72313   1.334  12.621   1.657
 7087W        W72314  41.411   5.451   2.131
 7088W        W72315  36.532   8.924   1.333
 7089W        W72316  39.054  14.634   1.368
 7090W        W72317  37.872  14.088   1.442
 7091W        W72318   7.446   0.569  12.442
 7092W        W72319  12.205  34.410   5.348
 7093W        W72320  15.684   3.105   0.776
 7094W        W72321  19.767  20.509   2.745
 7095W        W72322  20.340   2.769  11.512
 7096W        W72323   0.808  25.452  11.223
 7097W        W72324  29.534  22.517  11.991
 7098W        W72325   3.336  23.613   2.828
 7099W        W72326  34.137  38.302   2.161
 7100W        W72327   7.250  42.903  14.931
 7101W        W72328  26.200  10.202   0.411
 7102W        W72329  43.396  23.668  12.162
 7103W        W72330  24.610  22.925   0.905
 7104W        W72331  27.528  10.353  11.542
 7105W        W72332  33.406  25.249   4.690
 7106W        W72333  24.169  40.369   4.941
 7107W        W72334  20.625   6.750   0.807
 7108W        W72335  33.116  37.642   2.719
 7109W        W72336   0.623  25.197  10.810
 7110W        W72337  28.808  35.164  13.465
 7111W        W72338  14.597  29.104   4.140
 7112W        W72339  16.272  30.485  14.892
 7113W        W72340  14.717  21.795  11.476
 7114W        W72341  29.563   7.656  10.341
 7115W        W72342  28.449  36.254  12.649
 7116W        W72343  31.478  20.795   2.631
 7117W        W72344   1.277  16.793   1.339
 7118W        W72345  23.677  24.062   0.474
 7119W        W72346  34.371  12.459  10.316
 7120W        W72347   9.421  20.080  11.919
 7121W        W72348  19.284  40.455  12.034
 7122W        W72349   9.756  20.522   3.415
 7123W        W72350  39.971  11.121   5.058
 7124W        W72351  29.168  35.166  12.592
 7125W        W72352   5.303  27.721  12.431
 7126W        W72353  38.106  29.130   3.587
 7127W        W72354  30.151   6.312  14.703
 7128W        W72355  29.414  21.260  13.872
 7129W        W72356  37.319   2.508   2.314
 7130W        W72357  35.972  43.757   0.453
 7131W        W72358  42.760  10.657  11.911
 7132W        W72359  10.805  33.432   3.388
 7133W        W72360  12.183  38.359  14.422
 7134W        W72361  17.336   8.698   0.535
 7135W        W72362  20.500   8.160  11.508
 7136W        W72363  17.707  37.322   4.100
 7137W        W72364  20.798  43.472  13.571
 7138W        W72365  36.397  32.094   0.341
 7139W        W72366  24.571   7.823   3.780
 7140W        W72367  32.057   1.721   3.638
 7141W        W72368  33.559  36.578  14.931
 7142W        W72369  15.555   1.754   1.952
 7143W        W72370  34.128  41.268  10.822
 7144W        W72371  15.656  26.109  12.392
 7145W        W72372   2.656  29.646   2.806
 7146W        W72373  30.970  19.732   3.199
 7147W        W72374  20.297  14.651  11.550
 7148W        W72375   8.166  33.881  12.000
 7149W        W72376  19.847  25.679  10.987
 7150W        W72377  28.987  25.457  11.952
 7151W        W72378  41.038  32.384  11.044
 7152W        W72379  23.994  37.235   2.290
 7153W        W72380  26.610   5.392   3.116
 7154W        W72381   7.169  32.438  14.257
 7155W        W72382  32.355  26.025   2.728
 7156W        W72383  32.678  44.345  13.431
 7157W        W72384  28.670  18.790  14.786
 7158W        W72385  33.891   0.778  12.928
 7159W        W72386  42.845  36.421  13.803
 7160W        W72387  44.074  38.035   0.464
 7161W        W72388  18.067  19.181   1.248
 7162W        W72389  12.423  34.406  14.857
 7163W        W72390  12.733  27.554  14.364
 7164W        W72391  14.960   8.257   2.751
 7165W        W72392  17.392  16.111  10.677
 7166W        W72393  18.166   2.015  10.985
 7167W        W72394  33.429  31.824   5.055
 7168W        W72395  19.754   0.748  13.487
 7169W        W72396  24.298  13.145  14.959
 7170W        W72397  37.518  28.151  10.440
 7171W        W72398  41.680  23.183  13.017
 7172W        W72399  14.304  21.644  11.174
 7173W        W72400  15.435  14.994  12.500
 7174W        W72401   1.465  33.920   4.369
 7175W        W72402  32.470   2.004   1.380
 7176W        W72403  44.522  43.378   2.335
 7177W        W72404  23.471   9.296  13.314
 7178W        W72405  36.588  17.218  14.550
 7179W        W72406  37.553  43.715   0.796
 7180W        W72407  37.778  24.725   3.730
 7181W        W72408  14.691  30.689  14.614
 7182W        W72409   3.475  21.968  12.474
 7183W        W72410   8.942  31.840  10.308
 7184W        W72411  13.806  18.004  13.832
 7185W        W72412   1.228  16.367  14.242
 7186W        W72413  38.398  16.885   1.243
 7187W        W72414  20.652   2.591  14.418
 7188W        W72415  15.868  37.069   2.325
 7189W        W72416  29.082   3.174   2.785
 7190W        W72417  18.173  34.129  14.294
 7191W        W72418   3.355  17.635  10.413
 7192W        W72419  43.472   0.264   1.456
 7193W        W72420   6.058   2.966  11.528
 7194W        W72421  32.165   8.719   1.833
 7195W        W72422  32.033  31.545   2.610
 7196W        W72423  13.581  29.625   3.775
 7197W        W72424  41.840   2.312  13.368
 7198W        W72425  29.668  31.539   0.381
 7199W        W72426  36.835  41.858   2.588
 7200W        W72427   5.770  12.282   3.162
 7201W        W72428  26.207  13.807   1.564
 7202W        W72429   2.678   7.343  14.575
 7203W        W72430   5.385  24.434  11.328
 7204W        W72431  42.022  41.474   0.500
 7205W        W72432  26.992   2.910  10.557
 7206W        W72433   4.382  12.253   0.707
 7207W        W72434  30.221  37.034  12.519
 7208W        W72435  18.172  23.226   4.126
 7209W        W72436  44.358  37.067   0.939
 7210W        W72437  44.000   3.972  11.153
 7211W        W72438   3.803  36.913  11.843
 7212W        W72439   3.695  16.170  14.849
 7213W        W72440  15.904  12.906   4.916
 7214W        W72441  13.362  25.789   1.699
 7215W        W72442  17.290  32.972   3.845
 7216W        W72443   3.013  42.959   1.755
 7217W        W72444  10.746   1.949   1.347
 7218W        W72445  42.003  28.656  11.124
 7219W        W72446  31.338   6.763   4.118
 7220W        W72447  22.620  39.126   3.407
 7221W        W72448  28.934   4.238   2.864
 7222W        W72449  38.237  34.502  14.907
 7223W        W72450  16.874  14.336  12.904
 7224W        W72451  30.651   9.961  11.224
 7225W        W72452   7.135  19.955  10.739
 7226W        W72453  43.544  20.632  13.807
 7227W        W72454  26.334  42.978   0.925
 7228W        W72455  19.590   3.165   4.074
 7229W        W72456   1.482   6.217   2.795
 7230W        W72457  20.239  37.361  11.366
 7231W        W72458  36.816  12.738  12.747
 7232W        W72459  32.159   4.883  12.964
 7233W        W72460  25.517   5.672  10.160
 7234W        W72461  37.954   3.924   2.160
 7235W        W72462  43.086  43.973  11.074
 7236W        W72463  43.954  23.541  12.184
 7237W        W72464   1.668  28.021  12.987
 7238W        W72465  12.622  32.858  12.498
 7239W        W72466  24.000  32.129   3.717
 7240W        W72467   8.112  42.331  13.519
 7241W        W72468  24.553  34.603   1.673
 7242W        W72469  37.020  19.092   3.641
 7243W        W72470  15.350  21.554   0.352
 7244W        W72471   7.531  11.129   3.168
 7245W        W72472  28.903  25.782   4.313
 7246W        W72473  39.884  14.078   1.335
 7247W        W72474  40.479  13.660  14.597
 7248W        W72475  22.308  15.613  12.848
 7249W        W72476  21.152   7.406  11.578
 7250W        W72477  11.375   1.197  13.925
 7251W        W72478  24.307   4.026  12.565
 7252W        W72479   1.887  20.751   2.716
 7253W        W72480  23.001   6.288  11.979
 7254W        W72481  18.101  10.350  12.418
 7255W        W72482  31.015  24.976  11.238
 7256W        W72483  24.592  39.827   0.458
 7257W        W72484  15.950   5.505   3.664
 7258W        W72485   5.710  27.093  14.472
 7259W        W72486  23.060  37.504  12.008
 7260W        W72487  32.084  35.777   2.563
 7261W        W72488  40.769  10.847  13.422
 7262W        W72489  20.024   0.980  13.880
 7263W        W72490  19.649  27.169   3.552
 7264W        W72491   7.795  19.917   4.204
 7265W        W72492   6.636  28.121  14.610
 7266W        W72493  32.399  22.467  12.190
 7267W        W72494  37.473  19.845   2.377
 7268W        W72495  30.741  16.928  13.272
 7269W        W72496  17.740   2.764   0.693
 7270W        W72497  24.517  32.150   3.249
 7271W        W72498  44.412  14.737   1.634
 7272W        W72499  43.709  32.860   1.612
 7273W        W72500   2.338  22.556  14.369
 7274W        W72501  23.813  16.383   3.750
 7275W        W72502  28.646  43.819   2.470
 7276W        W72503  32.665   1.837   0.929
 7277W        W72504  10.360  31.433  11.080
 7278W        W72505  35.432  31.110  12.406
 7279W        W72506  43.974  27.917  14.976
 7280W        W72507   4.637   5.916   4.913
 7281W        W72508  12.748  18.326  13.399
 7282W        W72509   0.701  27.038   2.265
 7283W        W72510  40.238  35.999   0.436
 7284W        W72511   0.075  12.219   2.322
 7285W        W72512  41.376  20.779   3.392
 7286W        W72513   0.454  36.404  10.762
 7287W        W72514  43.061  40.608  11.220
 7288W        W72515  16.736  20.986   4.713
 7289W        W72516  29.895  41.365   3.206
 7290W        W72517  37.887   8.399  12.191
 7291W        W72518  42.844   3.768  10.634
 7292W        W72519  31.915  38.140  12.190
 7293W        W72520  23.498   8.824   4.396
 7294W        W72521  19.500  15.130  13.738
 7295W        W72522  21.738  39.043   1.741
 7296W        W72523  32.963  33.333  14.663
 7297W        W72524  20.968  32.584  11.126
 7298W        W72525  17.150  39.952   3.781
 7299W        W72526  15.777  10.125   3.401
 7300W        W72527  37.189  20.379   1.282
 7301W        W72528  32.372  13.016  14.112
 7302W        W72529  12.665  38.852  11.117
 7303W        W72530   9.777  12.901  14.568
 7304W        W72531  23.680  44.265   3.722
 7305W        W72532  33.001  17.049   1.721
 7306W        W72533  23.239  20.003  11.514
 7307W        W72534   6.377  39.996   2.369
 7308W        W72535  12.880  19.543   4.010
 7309W        W72536  12.152  30.965  12.073
 7310W        W72537   4.900  13.934   0.077
 7311W        W72538  17.769   2.355   1.304
 7312W        W72539  33.387  39.013   0.925
 7313W        W72540   9.359  39.714  11.194
 7314W        W72541   3.222   3.741  11.319
 7315W        W72542  41.622   8.432  12.904
 7316W        W72543   6.537  22.721  13.286
 7317W        W72544  26.913  38.535  10.788
 7318W        W72545  23.225  38.264  14.539
 7319W        W72546  10.962  37.295  10.382
 7320W        W72547  43.794  11.401   0.713
 7321W        W72548  29.128  12.546  13.464
 7322W        W72549  35.777  19.774   1.672
 7323W        W72550  32.510  19.168  10.759
 7324W        W72551  42.863  25.961   2.866
 7325W        W72552   4.654   0.781   2.155
 7326W        W72553   2.556  10.895   4.589
 7327W        W72554  29.509  37.871   3.095
 7328W        W72555  39.337  17.848   0.956
 7329W        W72556  27.179  41.443   2.553
 7330W        W72557   5.360  17.575   0.926
 7331W        W72558  16.059  18.334  12.379
 7332W        W72559  29.688   9.682  12.008
 7333W        W72560   6.975  32.926  14.423
 7334W        W72561  28.068  12.095  11.189
 7335W        W72562  19.050  20.079  12.310
 7336W        W72563  44.781  12.260  10.459
 7337W        W72564   8.890   9.433   4.281
 7338W        W72565  25.070  19.673  13.439
 7339W        W72566  40.475  30.622   3.734
 7340W        W72567   5.238  38.280   4.802
 7341W        W72568  31.488  29.968  14.846
 7342W        W72569  40.978  13.632   3.237
 7343W        W72570  24.740  36.002  12.521
 7344W        W72571  42.439  42.772  14.405
 7345W        W72572  30.328   4.976   1.936
 7346W        W72573  32.614   1.066   3.453
 7347W        W72574  34.793  40.380   0.912
 7348W        W72575  17.208   8.936  12.923
 7349W        W72576   2.367  33.152   2.924
 7350W        W72577  26.160  21.996   3.168
 7351W        W72578  29.708  32.580   1.320
 7352W        W72579  19.759  23.757   4.927
 7353W        W72580   8.618  30.641   3.215
 7354W        W72581  15.406   3.303  11.967
 7355W        W72582  14.066  38.582   5.036
 7356W        W72583   0.970  10.543  12.543
 7357W        W72584   2.799  41.435   2.203
 7358W        W72585  28.128  37.567   4.656
 7359W        W72586  39.009  42.573  12.616
 7360W        W72587  11.621  44.276   3.320
 7361W        W72588  18.787  34.757   1.304
 7362W        W72589  25.752  18.071  12.820
 7363W        W72590  28.601  18.448   0.195
 7364W        W72591  37.450   2.478  11.493
 7365W        W72592  11.427  13.191  14.919
 7366W        W72593  38.954  19.498   4.135
 7367W        W72594  36.863  13.149   3.461
 7368W        W72595  29.014  40.303  12.846
 7369W        W72596  36.440  30.113   1.406
 7370W        W72597  18.555  25.075   0.357
 7371W        W72598  17.073  18.512  10.299
 7372W        W72599  43.302  38.967  14.899
 7373W        W72600  43.331  32.869  12.544
 7374W        W72601  39.261   1.926   4.357
 7375W        W72602  14.786  12.312   3.946
 7376W        W72603   5.372   3.041   1.717
 7377W        W72604  38.824  34.621   0.311
 7378W        W72605  36.285   1.791   4.520
 7379W        W72606  29.650  24.388  11.578
 7380W        W72607  27.705  34.551   0.772
 7381W        W72608   4.653  41.721   0.858
 7382W        W72609  34.041   8.335  13.941
 7383W        W72610  42.241  26.083  13.825
 7384W        W72611  15.410  41.553   3.160
 7385W        W72612  20.479  44.089  14.887
 7386W        W72613  13.805  34.198   2.451
 7387W        W72614  24.796   4.682  14.623
 7388W        W72615  25.211  20.143  14.888
 7389W        W72616  39.776   2.334  11.740
 7390W        W72617  20.036  16.428  10.884
 7391W        W72618   8.881  26.750   1.397
 7392W        W72619  28.607   5.639  13.871
 7393W        W72620   2.987  28.241  10.679
 7394W        W72621  14.299   6.332  10.770
 7395W        W72622  20.138  11.612  11.169
 7396W        W72623   5.372  18.100   0.956
 7397W        W72624  32.182  18.656   4.571
 7398W        W72625  25.698  14.421  14.859
 7399W        W72626  39.327   5.061  10.923
 7400W        W72627  37.076  31.328  13.561
 7401W        W72628  13.436  41.218   5.090
 7402W        W72629  30.372  16.238  14.346
 7403W        W72630  10.474  15.370   1.159
 7404W        W72631  17.541  32.640   4.439
 7405W        W72632   7.211  26.586  12.429
 7406W        W72633  24.969  31.119  11.204
 7407W        W72634  12.926  26.503   4.584
 7408W        W72635  41.337  35.382   1.277
 7409W        W72636   5.361  23.084  14.688
 7410W        W72637  44.233  24.489   1.368
 7411W        W72638  11.174  30.053  11.575
 7412W        W72639   6.787  28.107   3.403
 7413W        W72640  12.611  38.398   3.560
 7414W        W72641  22.742  31.942   2.687
 7415W        W72642  26.401  29.568   1.406
 7416W        W72643  38.964  16.721   3.871
 7417W        W72644  28.000  38.560   3.394
 7418W        W72645  32.589  37.229  11.370
 7419W        W72646   3.718   5.027   4.088
 7420W        W72647  29.516  34.832  12.354
 7421W        W72648  42.082   4.869   4.282
 7422W        W72649  38.394  21.780  11.043
 7423W        W72650  10.743  40.276   3.624
 7424W        W72651   8.705  40.341   0.693
 7425W        W72652  15.863   4.952  11.689
 7426W        W72653  44.056  36.454  12.437
 7427W        W72654  32.997  42.774  12.625
 7428W        W72655  24.192  39.539   0.286
 7429W        W72656  28.944  32.392  14.418
 7430W        W72657  14.807  41.967   0.532
 7431W        W72658  25.698  17.127  12.388
 7432W        W72659  21.085  34.885   3.691
 7433W        W72660  15.687  21.703   3.233
 7434W        W72661   3.228  38.071  14.008
 7435W        W72662  43.710  16.191  11.496
 7436W        W72663  34.336  39.344  14.866
 7437W        W72664  32.565  10.271   0.256
 7438W        W72665  21.535   7.718  11.801
 7439W        W72666  12.897  24.937  11.714
 7440W        W72667  32.071  14.390   3.235
 7441W        W72668  26.877   0.537  10.752
 7442W        W72669  25.694  40.948  12.572
 7443W        W72670  20.263  36.873   3.176
 7444W        W72671  24.417  21.678   0.971
 7445W        W72672  32.980  31.459   2.457
 7446W        W72673  15.237  24.385   1.265
 7447W        W72674   7.405  20.345   3.640
 7448W        W72675  39.760  21.082   1.575
 7449W        W72676  23.575   9.450  11.011
 7450W        W72677  42.982  12.290  12.701
 7451W        W72678   9.661  40.330  12.084
 7452W        W72679  38.810  31.716   2.164
 7453W        W72680  19.287   8.746  14.463
 7454W        W72681  42.517  14.978   4.138
 7455W        W72682  26.126  13.310   1.417
 7456W        W72683  30.032  17.584   0.988
 7457W        W72684  16.299  14.717  14.299
 7458W        W72685  27.584   3.084   1.695
 7459W        W72686   2.674   9.890  12.925
 7460W        W72687  19.121  19.715  10.668
 7461W        W72688  22.251  21.144   1.888
 7462W        W72689  31.691  39.948   1.877
 7463W        W72690  16.228  40.754  13.009
 7464W        W72691  25.972  42.958  10.759
 7465W        W72692  36.305  34.926   1.497
 7466W        W72693  33.211  38.495   1.021
 7467W        W72694  18.800  28.255  10.379
 7468W        W72695   9.369  15.176   2.218
 7469W        W72696  27.853  31.976   2.536
 7470W        W72697  25.033  18.677   0.492
 7471W        W72698  20.840  24.801   3.421
 7472W        W72699  12.887  36.898  12.482
 7473W        W72700   4.211  23.850   4.352
 7474W        W72701   9.771  18.615   4.152
 7475W        W72702  17.345  12.800  14.112
 7476W        W72703  23.027  34.986   2.873
 7477W        W72704  35.545  32.809  12.214
 7478W        W72705  24.326  23.353   0.469
 7479W        W72706   9.711  35.610   3.419
 7480W        W72707  19.086  25.849  12.398
 7481W        W72708  17.527  17.701   4.243
 7482W        W72709  33.619  20.241   4.136
 7483W        W72710  31.131  13.410   3.025
 7484W        W72711  37.140  16.083  11.057
 7485W        W72712  14.865  24.291  14.550
 7486W        W72713  40.335  43.170  14.888
 7487W        W72714  24.213   6.499   4.071
 7488W        W72715  36.814  38.911  12.824
 7489W        W72716   2.534  38.424  14.902
 7490W        W72717   5.868  21.491   2.426
 7491W        W72718   8.146  24.822  12.978
 7492W        W72719  34.085  18.160   2.640
 7493W        W72720  14.674  25.641  14.543
 7494W        W72721  18.201  34.094  13.267
 7495W        W72722   3.073  40.821  14.167
 7496W        W72723  22.174  19.327   3.404
 7497W        W72724  31.343  23.239  10.698
 7498W        W72725  23.968  25.628  14.448
 7499W        W72726  34.914  15.254  13.487
 7500W        W72727  37.605   4.657  14.412
 7501W        W72728  18.272  15.732  10.192
 7502W        W72729  18.919  29.079   0.979
 7503W        W72730  29.191  12.259   0.769
 7504W        W72731  34.779  19.227  14.721
 7505W        W72732  30.848  14.788  13.875
 7506W        W72733  41.466  26.126   4.252
 7507W        W72734  17.128  20.746   2.748
 7508W        W72735  40.932  31.838   2.825
 7509W        W72736   4.174  24.558   1.810
 7510W        W72737  36.081  42.950  14.056
 7511W        W72738   8.131  15.543   2.575
 7512W        W72739   7.367   2.489   1.318
 7513W        W72740  44.902  26.532   2.169
 7514W        W72741   7.329   8.703   1.331
 7515W        W72742   0.125  21.721   0.525
 7516W        W72743  34.931  24.923   1.730
 7517W        W72744  16.755   2.328  10.926
 7518W        W72745   3.410  13.235  11.122
 7519W        W72746   0.229  26.069   2.129
 7520W        W72747  28.060  35.152  14.952
 7521W        W72748  20.657  33.335   4.227
 7522W        W72749  38.308   0.312  11.609
 7523W        W72750  28.056  28.717   4.479
 7524W        W72751   7.753  36.821  14.825
 7525W        W72752  43.323  27.342   4.808
 7526W        W72753  44.668  23.765  14.824
 7527W        W72754   6.872  37.510   0.874
 7528W        W72755  27.374  15.360  12.193
 7529W        W72756  26.567  42.617   2.759
 7530W        W72757  19.325  10.733   0.329
 7531W        W72758  42.875  15.120  14.909
 7532W        W72759   9.852  17.387  11.175
 7533W        W72760  16.200  15.403   3.787
 7534W        W72761  38.899  37.118   2.790
 7535W        W72762   4.999   0.733  12.512
 7536W        W72763   4.290   9.442   4.118
 7537W        W72764  13.796  25.675  10.911
 7538W        W72765  37.887   6.347   0.472
 7539W        W72766  24.541  32.480  13.523
 7540W        W72767  12.347  30.868  11.297
 7541W        W72768  38.384  21.344  12.739
 7542W        W72769  33.498  12.375  11.268
 7543W        W72770   2.093  25.512   0.291
 7544W        W72771  26.155  27.946   0.266
 7545W        W72772  37.521  30.064  11.783
 7546W        W72773  34.956  33.489  11.820
 7547W        W72774  20.494  35.363   2.600
 7548W        W72775  33.578  13.532   3.082
 7549W        W72776   9.847  41.431   0.882
 7550W        W72777  21.292  13.127  10.609
 7551W        W72778  43.251  26.755   9.818
 7552W        W72779  27.957  38.178  10.794
 7553W        W72780  37.580  11.291  13.018
 7554W        W72781  41.728  31.144   2.171
 7555W        W72782  38.685   9.938   0.704
 7556W        W72783  28.678   9.695   4.117
 7557W        W72784  41.247  38.481  11.953
 7558W        W72785  32.353  24.331   5.049
 7559W        W72786  12.567  34.037   5.403
 7560W        W72787   0.447  19.074   2.660
 7561W        W72788  35.995  44.229   2.082
 7562W        W72789  40.951  26.691   0.009
 7563W        W72790  11.102  28.333   0.335
 7564W        W72791   6.472  11.959   1.870
 7565W        W72792  24.732  31.075   3.071
 7566W        W72793  21.100  33.667  11.667
 7567W        W72794  27.977  34.782   2.842
 7568W        W72795  16.779   5.838  12.284
 7569W        W72796   9.828  27.240  13.401
 7570W        W72797  41.783   7.676  11.678
 7571W        W72798   5.895   1.182  12.419
 7572W        W72799  24.491  12.132   2.146
 7573W        W72800   3.104  26.144   4.653
 7574W        W72801  43.541  37.591  13.906
 7575W        W72802  16.769  10.988  12.932
 7576W        W72803  12.813  40.800   2.898
 7577W        W72804  27.777  20.757   4.569
 7578W        W72805   2.520   5.262   2.847
 7579W        W72806  10.550   0.395  12.453
 7580W        W72807  27.590  13.851   2.411
 7581W        W72808  25.445  40.616   3.574
 7582W        W72809  22.550  40.937  12.087
 7583W        W72810  22.778  22.137   3.230
 7584W        W72811  13.438  21.544   3.641
 7585W        W72812  27.015  33.423  14.878
 7586W        W72813  19.162  28.904  11.509
 7587W        W72814  32.608  38.137   1.465
 7588W        W72815   0.368  42.481   0.020
 7589W        W72816  21.654  18.038   1.630
 7590W        W72817  23.095  29.828   2.293
 7591W        W72818   4.807  11.195  14.367
 7592W        W72819  25.972  37.445   3.504
 7593W        W72820  26.744  11.716  10.707
 7594W        W72821  30.400  15.639  13.942
 7595W        W72822  17.601  36.990  10.723
 7596W        W72823  27.025  44.852  11.363
 7597W        W72824  42.749  20.309   4.584
 7598W        W72825  11.627  42.807   5.053
 7599W        W72826  17.273  43.812  10.345
 7600W        W72827  24.152  11.196   1.221
 7601W        W72828  13.719   4.902   4.051
 7602W        W72829  10.726  22.667   2.139
 7603W        W72830  43.253   5.632  12.314
 7604W        W72831  19.323  36.030  11.069
 7605W        W72832  26.772   9.286   1.794
 7606W        W72833  11.942   1.182  11.008
 7607W        W72834  13.523  31.132  12.867
 7608W        W72835  38.389   2.784   3.140
 7609W        W72836  17.797  12.317   2.273
 7610W        W72837  26.004   2.403   3.619
 7611W        W72838  33.229  14.701   5.013
 7612W        W72839  41.605  14.126  12.495
 7613W        W72840   6.768  13.914   4.278
 7614W        W72841  13.259  35.154  12.897
 7615W        W72842  41.414  30.125   0.693
 7616W        W72843  28.004  12.825   9.998
 7617W        W72844   8.858  25.013   2.674
 7618W        W72845  20.760  21.220  14.788
 7619W        W72846   0.506  13.317  11.624
 7620W        W72847  17.568  11.466   0.350
 7621W        W72848  41.886  12.997   3.368
 7622W        W72849  23.741  41.311  11.430
 7623W        W72850  20.452  25.457   1.841
 7624W        W72851  41.498  17.657   3.900
 7625W        W72852  10.045   7.421   1.704
 7626W        W72853  22.914  39.479   3.625
 7627W        W72854   2.000  37.094  12.353
 7628W        W72855  23.248  11.895  14.843
 7629W        W72856  32.452   4.391   3.289
 7630W        W72857  21.313  26.986  12.454
 7631W        W72858  17.847  43.876   1.697
 7632W        W72859   7.311  32.015  13.386
 7633W        W72860  31.032  38.413   0.760
 7634W        W72861  35.666  43.601  13.014
 7635W        W72862  37.924  34.574   0.332
 7636W        W72863  27.027  27.083   3.607
 7637W        W72864  26.416  41.274  11.157
 7638W        W72865  18.274  44.909   0.576
 7639W        W72866   1.561  21.839   2.166
 7640W        W72867  23.551  23.132   4.618
 7641W        W72868  18.629  11.443   2.728
 7642W        W72869  18.163  33.612  13.119
 7643W        W72870  32.387  38.297   4.176
 7644W        W72871  37.493   9.843  12.488
 7645W        W72872  38.835  41.043  13.587
 7646W        W72873  13.114  37.520  13.376
 7647W        W72874  10.702   6.772   2.380
 7648W        W72875  25.182  24.330   3.740
 7649W        W72876  44.555   9.687   4.625
 7650W        W72877  15.272   4.381  13.398
 7651W        W72878  16.634  13.579   4.429
 7652W        W72879  18.018  33.215   2.782
 7653W        W72880  15.334  32.550   5.046
 7654W        W72881  18.358  41.373   3.631
 7655W        W72882  14.723   6.779  14.951
 7656W        W72883  39.551   0.989  13.467
 7657W        W72884  42.628  18.565  14.499
 7658W        W72885   9.415  32.131   2.897
 7659W        W72886  22.269  33.035   4.812
 7660W        W72887  32.947  18.852  12.951
 7661W        W72888  26.234  38.207  12.965
 7662W        W72889  16.250  39.679   2.830
 7663W        W72890  33.628  26.914  12.530
 7664W        W72891  27.413  27.079  14.911
 7665W        W72892  23.264  10.689   0.281
 7666W        W72893  23.293   0.927   2.936
 7667W        W72894  22.632  41.920  12.059
 7668W        W72895  16.848  39.986  14.933
 7669W        W72896  14.374   7.623  11.163
 7670W        W72897  33.131  22.295   1.741
 7671W        W72898  25.085   5.903   3.219
 7672W        W72899  20.143   7.329   2.254
 7673W        W72900  38.994   9.932  14.049
 7674W        W72901  35.635  22.648   3.082
 7675W        W72902  32.797   8.778   2.700
 7676W        W72903   4.846  39.103   3.332
 7677W        W72904  35.714  12.720  11.179
 7678W        W72905   3.373  19.794  13.937
 7679W        W72906  15.095  29.550  11.834
 7680W        W72907  32.666   7.721   1.279
 7681W        W72908  32.632  23.802   4.327
 7682W        W72909  29.747  30.153  11.151
 7683W        W72910  33.483  14.167   4.550
 7684W        W72911  42.976  41.069   4.556
 7685W        W72912  36.651  34.513   1.354
 7686W        W72913  22.517  41.157  12.574
 7687W        W72914  32.709  37.927  12.568
 7688W        W72915  27.819   5.611  11.954
 7689W        W72916  21.359   9.764   4.856
 7690W        W72917  26.602  29.870  13.813
 7691W        W72918  17.279  16.463  11.993
 7692W        W72919  22.716   7.710  13.932
 7693W        W72920   4.018  32.195  11.982
 7694W        W72921  11.303  40.529  13.964
 7695W        W72922   2.685  43.967   3.750
 7696W        W72923  24.760  28.474  14.043
 7697W        W72924  28.963  16.324   4.579
 7698W        W72925  29.204  39.881  14.270
 7699W        W72926  25.635   7.302  10.674
 7700W        W72927   7.645  33.149   1.328
 7701W        W72928  34.017  22.663   2.703
 7702W        W72929  44.039  36.050  13.046
 7703W        W72930  32.692  19.630  14.894
 7704W        W72931  35.823  43.103  12.154
 7705W        W72932  18.171  36.958   2.676
 7706W        W72933  15.017  11.977  14.979
 7707W        W72934   4.415   2.708  11.389
 7708W        W72935  43.987  41.433   4.219
 7709W        W72936  22.976  23.306   3.201
 7710W        W72937  31.675  35.133   1.173
 7711W        W72938  12.601   7.378  11.545
 7712W        W72939  44.524   1.916  11.498
 7713W        W72940  28.742  35.982   1.914
 7714W        W72941  29.400   1.261   4.876
 7715W        W72942  10.773   2.428   0.382
 7716W        W72943  36.095  38.574  13.453
 7717W        W72944  35.935   1.803  13.021
 7718W        W72945  43.946  19.982  13.858
 7719W        W72946   6.539  31.876  10.805
 7720W        W72947   0.053  20.084   1.007
 7721W        W72948  12.287  22.007  13.087
 7722W        W72949   1.522  43.776   2.743
 7723W        W72950  15.222   7.615   0.875
 7724W        W72951  41.054  24.790   2.726
 7725W        W72952  23.584  19.743  12.556
 7726W        W72953   4.398  25.103   4.658
 7727W        W72954  16.733   4.831  12.193
 7728W        W72955  26.976  31.636   0.869
 7729W        W72956  44.423  33.440   2.536
 7730W        W72957  27.010  18.746   3.226
 7731W        W72958  20.407  32.093   0.492
 7732W        W72959  41.260  23.566   1.266
 7733W        W72960   0.656  39.670   2.626
 7734W        W72961  21.666  28.679  14.923
 7735W        W72962  25.197  28.385  14.292
 7736W        W72963   4.765   1.686   4.688
 7737W        W72964  25.752  26.589   1.792
 7738W        W72965  11.896  33.990   4.088
 7739W        W72966  29.110  40.920   4.566
 7740W        W72967  29.990  34.241  14.893
 7741W        W72968   8.819  28.292   4.424
 7742W        W72969   5.235   9.607  11.954
 7743W        W72970  27.008  17.274  13.285
 7744W        W72971  42.672  36.527   0.705
 7745W        W72972  34.637  14.815  13.332
 7746W        W72973  43.411  21.480  13.010
 7747W        W72974  10.713   6.746  12.023
 7748W        W72975  11.411  35.012   1.370
 7749W        W72976  38.949  40.025   4.125
 7750W        W72977  31.417   6.862  13.399
 7751W        W72978  28.054  23.113   0.468
 7752W        W72979   2.830  11.938   2.031
 7753W        W72980   9.767   8.292  12.528
 7754W        W72981  28.640  43.342   2.816
 7755W        W72982   8.823   9.114  10.739
 7756W        W72983  10.986  33.676   2.284
 7757W        W72984  19.895   4.606  14.447
 7758W        W72985  10.286  15.331   1.669
 7759W        W72986  25.075  17.359  14.142
 7760W        W72987   9.446   4.690  13.626
 7761W        W72988  30.470  36.388  13.503
 7762W        W72989  10.111  28.618   3.741
 7763W        W72990   8.331  34.310  12.693
 7764W        W72991  25.711  13.594   3.668
 7765W        W72992  21.693  15.595  14.451
 7766W        W72993  36.480   7.687  10.423
 7767W        W72994  28.750   5.801   1.472
 7768W        W72995  11.801  21.483   4.707
 7769W        W72996  37.456   0.950   0.325
 7770W        W72997  31.699   7.065   0.700
 7771W        W72998   3.862  12.131   1.709
 7772W        W72999  20.244   4.369   1.420
 7773W        W73000  13.014   0.299  11.051
 7774W        W73001  44.628  16.127   1.814
 7775W        W73002  33.553   7.933  12.836
 7776W        W73003  38.165  11.844  14.969
 7777W        W73004   8.186   5.290   1.783
 7778W        W73005  36.815  29.903   4.382
 7779W        W73006  30.153  34.642   1.767
 7780W        W73007   8.126  30.500   3.280
 7781W        W73008  41.454  33.768  14.433
 7782W        W73009  15.190  12.072   2.232
 7783W        W73010  29.604  32.071   3.250
 7784W        W73011  11.145   8.803  14.387
 7785W        W73012   4.335  43.717   0.329
 7786W        W73013   7.441  14.150  11.209
 7787W        W73014   4.281  25.430   2.135
 7788W        W73015  13.076  29.083  11.766
 7789W        W73016   1.980   4.992   0.791
 7790W        W73017  37.121  27.334   3.844
 7791W        W73018  15.746   1.223   0.110
 7792W        W73019   3.362  17.742  11.004
 7793W        W73020  36.850  38.315  11.982
 7794W        W73021   0.576  22.332   3.821
 7795W        W73022  35.456  21.730   4.015
 7796W        W73023  38.340  11.806  13.191
 7797W        W73024   9.828  24.821   4.443
 7798W        W73025  11.479   4.768  11.625
 7799W        W73026   1.892  44.428   1.362
 7800W        W73027  38.460   2.138   0.432
 7801W        W73028  15.724  13.846   2.819
 7802W        W73029   3.224  42.261   0.291
 7803W        W73030  19.606   4.786   0.244
 7804W        W73031   3.337  32.966   1.367
 7805W        W73032   7.977  34.526   1.940
 7806W        W73033   1.857   6.929   3.552
 7807W        W73034   9.633   7.303  13.401
 7808W        W73035  40.784  38.796  12.814
 7809W        W73036  41.215  25.359   0.886
 7810W        W73037  35.481  21.023   1.673
 7811W        W73038  42.549   1.344   2.379
 7812W        W73039  25.521  33.365  14.049
 7813W        W73040  26.961  33.108  13.565
 7814W        W73041  41.286  31.565   1.411
 7815W        W73042  39.038  15.153   1.235
 7816W        W73043   3.543  27.494   1.237
 7817W        W73044  44.293  35.358   2.608
 7818W        W73045   4.785   3.136   3.708
 7819W        W73046   2.430  19.135  11.878
 7820W        W73047  32.124  44.956   1.716
 7821W        W73048  28.292  13.755   4.980
 7822W        W73049   0.863  38.281   0.300
 7823W        W73050  27.840  12.235  11.615
 7824W        W73051  19.173  14.380   2.809
 7825W        W73052  24.120  17.811  14.292
 7826W        W73053  38.766   3.869  14.106
 7827W        W73054  44.101  34.161   3.231
 7828W        W73055  35.310  21.020   4.781
 7829W        W73056  38.501  40.363   2.151
 7830W        W73057  13.847   4.238  10.140
 7831W        W73058  24.996  27.004  11.970
 7832W        W73059   7.808  11.094   4.122
 7833W        W73060   0.760  37.999   1.259
 7834W        W73061  21.026  20.187   4.362
 7835W        W73062  34.930   2.329  12.490
 7836W        W73063   3.503  29.976   1.291
 7837W        W73064   9.820  24.314  13.407
 7838W        W73065   1.496  23.584   0.847
 7839W        W73066  23.302  14.095   2.711
 7840W        W73067  32.168  23.522   2.185
 7841W        W73068  23.936   7.714  13.458
 7842W        W73069   4.348  36.478  11.619
 7843W        W73070  44.636  14.639  11.115
 7844W        W73071  33.116  26.388  12.099
 7845W        W73072  39.756  29.096  13.151
 7846W        W73073  25.743  14.775   2.390
 7847W        W73074  31.111   5.136  11.914
 7848W        W73075  42.296  24.669  12.578
 7849W        W73076  36.032  37.912   3.025
 7850W        W73077  28.674  19.498  11.634
 7851W        W73078  15.856  12.420   0.859
 7852W        W73079  38.914  28.258  13.320
 7853W        W73080  31.257   6.509   2.760
 7854W        W73081  30.244  39.848   1.782
 7855W        W73082  38.965  33.978  14.785
 7856W        W73083  20.604  36.320  14.806
 7857W        W73084  10.393   9.872  11.999
 7858W        W73085  30.242  21.097   3.904
 7859W        W73086  17.194  23.546  11.558
 7860W        W73087  14.353  28.587   2.285
 7861W        W73088  13.578  33.077  14.164
 7862W        W73089  29.395  43.030   3.201
 7863W        W73090  41.971  14.924  11.484
 7864W        W73091  19.517  32.286  11.181
 7865W        W73092  19.785  37.493   0.315
 7866W        W73093  43.838  17.196  11.174
 7867W        W73094  19.790   2.494   0.489
 7868W        W73095  15.826   6.017   1.966
 7869W        W73096  43.362  43.096  13.920
 7870W        W73097  35.060  16.311  14.688
 7871W        W73098  30.589  32.328   2.274
 7872W        W73099  29.023  24.234   2.650
 7873W        W73100   2.960  28.490  14.441
 7874W        W73101  19.850  19.782  12.157
 7875W        W73102  31.051  29.420   4.182
 7876W        W73103  39.439   4.730  10.104
 7877W        W73104   7.493  31.717  11.590
 7878W        W73105   8.255   3.766   2.229
 7879W        W73106  39.082  26.528  14.043
 7880W        W73107  24.830  31.175   5.005
 7881W        W73108   8.938  26.695  14.767
 7882W        W73109  21.322  18.684  11.891
 7883W        W73110   6.164  20.073  11.504
 7884W        W73111  42.791  30.138   4.003
 7885W        W73112  32.962  30.141   3.604
 7886W        W73113  12.125  28.442   0.474
 7887W        W73114  12.300  10.417  11.170
 7888W        W73115  27.009  28.433  13.098
 7889W        W73116  28.120  40.953   3.164
 7890W        W73117  26.521  26.037   4.779
 7891W        W73118  22.482  13.094  11.197
 7892W        W73119   4.586  31.971   4.408
 7893W        W73120  25.401  34.502   2.170
 7894W        W73121  16.568  34.918   3.683
 7895W        W73122   7.846  18.032  12.668
 7896W        W73123  35.588  44.293   1.724
 7897W        W73124  28.226  31.191  10.703
 7898W        W73125  10.826   6.380   1.280
 7899W        W73126   0.457  30.043   0.409
 7900W        W73127   5.338  32.662  11.620
 7901W        W73128  34.439  30.100   4.046
 7902W        W73129  16.794  41.440  11.698
 7903W        W73130  30.961  34.981  11.209
 7904W        W73131  37.499  44.884   1.911
 7905W        W73132   6.051  21.117   0.997
 7906W        W73133  35.240  40.032  12.868
 7907W        W73134  15.202  31.452  12.827
 7908W        W73135  22.945  14.102   2.303
 7909W        W73136  32.640  15.366  11.081
 7910W        W73137  18.162  14.946  12.313
 7911W        W73138  38.966  12.056  10.746
 7912W        W73139  23.733   6.242   3.082
 7913W        W73140  15.743   3.152   1.340
 7914W        W73141  34.916   7.340   2.901
 7915W        W73142  14.811  38.574  11.970
 7916W        W73143  27.012  15.766   4.853
 7917W        W73144  29.890  42.016  13.100
 7918W        W73145  32.681  11.052   3.847
 7919W        W73146  14.364  19.628   1.807
 7920W        W73147  44.796   6.451   0.653
 7921W        W73148  12.080  44.818   1.267
 7922W        W73149   0.409  16.777   3.280
 7923W        W73150  14.074   1.165  11.612
 7924W        W73151  10.078  40.738   2.432
 7925W        W73152  24.847  30.495   1.460
 7926W        W73153  27.589   9.587  12.199
 7927W        W73154  11.945   5.476  10.856
 7928W        W73155  29.680  25.282  11.132
 7929W        W73156   8.895  13.314   4.949
 7930W        W73157  39.013  31.154   4.515
 7931W        W73158  17.086  40.215   2.204
 7932W        W73159  29.960   1.638  11.608
 7933W        W73160  10.142  21.065  11.514
 7934W        W73161  37.049  37.349  14.729
 7935W        W73162  13.592  12.520  12.150
 7936W        W73163  14.945  12.998  11.153
 7937W        W73164  24.440   7.904   1.959
 7938W        W73165   1.903  26.462  13.776
 7939W        W73166  16.430  27.773  10.360
 7940W        W73167  19.147  24.452   4.430
 7941W        W73168  35.385  40.887  11.551
 7942W        W73169   1.321  42.412  10.380
 7943W        W73170  10.260  35.207  14.851
 7944W        W73171  30.425  39.853  11.624
 7945W        W73172  20.734  28.439   2.295
 7946W        W73173  38.981  20.189   1.844
 7947W        W73174  29.944  15.329  14.260
 7948W        W73175   4.992   7.403   0.415
 7949W        W73176  33.679  34.290   4.525
 7950W        W73177  39.970  15.829  14.448
 7951W        W73178  25.200  42.197   1.673
 7952W        W73179  22.163  23.622   1.292
 7953W        W73180  41.718  42.950   2.819
 7954W        W73181  18.576  18.559  13.450
 7955W        W73182  42.227  32.583   4.037
 7956W        W73183  31.936  17.370  11.827
 7957W        W73184  21.489  42.918  13.938
 7958W        W73185  40.193   4.850  11.141
 7959W        W73186   1.936   9.014  10.528
 7960W        W73187  40.472  31.263  14.008
 7961W        W73188  28.602   7.934  13.274
 7962W        W73189   4.998  37.981   0.357
 7963W        W73190   3.397  23.278   0.782
 7964W        W73191  18.314  10.181   4.337
 7965W        W73192  25.970   4.966   4.141
 7966W        W73193  42.384  10.097   4.638
 7967W        W73194  26.561  15.773  10.591
 7968W        W73195  27.195  14.093  12.375
 7969W        W73196  42.591  32.484   2.179
 7970W        W73197  18.296  40.320  14.752
 7971W        W73198  15.602  27.577  14.872
 7972W        W73199  12.843  35.789   3.175
 7973W        W73200  18.133   3.732  13.558
 7974W        W73201  43.017  22.490  14.996
 7975W        W73202  26.549  42.523  14.041
 7976W        W73203  13.931  21.145  13.454
 7977W        W73204   9.875   0.311   2.388
 7978W        W73205  11.863  18.679  13.901
 7979W        W73206   9.779   1.787   4.429
 7980W        W73207  17.040   4.576   1.727
 7981W        W73208  13.256  43.280  13.810
 7982W        W73209  30.119   7.711   0.322
 7983W        W73210  40.657  36.039  14.448
 7984W        W73211  40.861  35.937  11.962
 7985W        W73212   6.881  40.310   1.207
 7986W        W73213   1.544  12.516   4.084
 7987W        W73214  33.944  29.899   3.277
 7988W        W73215   5.658  19.287   1.412
 7989W        W73216   2.467  32.319   2.278
 7990W        W73217  13.897  24.931  14.161
 7991W        W73218  39.784   2.626   2.701
 7992W        W73219  21.626  22.607  10.132
 7993W        W73220  30.892  39.089  14.412
 7994W        W73221   4.875  12.026  11.423
 7995W        W73222  41.211  16.691   1.091
 7996W        W73223  16.645  23.479  14.880
 7997W        W73224  30.599  44.851   3.575
 7998W        W73225  44.578  22.738  11.538
 7999W        W73226  31.678  16.637   2.218
 8000W        W73227  25.149  29.443  13.405
 8001W        W73228  36.723  21.770   3.819
 8002W        W73229   6.011  33.331  13.632
 8003W        W73230  23.541  25.674  14.090
 8004W        W73231   0.939  18.472   0.759
 8005W        W73232  36.923  42.516  12.072
 8006W        W73233  19.123  39.542  14.864
 8007W        W73234  39.973  35.579   0.237
 8008W        W73235  33.582  38.174   1.907
 8009W        W73236  44.485  10.559   0.292
 8010W        W73237  39.450  25.056  11.612
 8011W        W73238  19.757  29.955   3.777
 8012W        W73239  12.131  44.685   0.504
 8013W        W73240  23.681  16.738  11.093
 8014W        W73241  33.327  11.668   0.346
 8015W        W73242  21.680  25.393  11.630
 8016W        W73243   1.080   3.135  13.856
 8017W        W73244  25.271  39.632  10.926
 8018W        W73245  34.681  24.490  11.124
 8019W        W73246  20.058  22.628  10.683
 8020W        W73247  25.717  29.644   0.774
 8021W        W73248  24.448  29.039   2.586
 8022W        W73249  17.703  39.208   1.696
 8023W        W73250  22.691   4.405  12.108
 8024W        W73251   2.526  16.859  14.473
 8025W        W73252  27.280   6.824  10.772
 8026W        W73253  24.511  22.510   0.617
 8027W        W73254  28.091   1.628   3.679
 8028W        W73255  44.337  31.134  10.643
 8029W        W73256  25.936  30.528   4.152
 8030W        W73257   0.466  10.119   2.280
 8031W        W73258  23.186  36.390  14.855
 8032W        W73259  39.169  30.261  12.479
 8033W        W73260  30.414   7.743   0.777
 8034W        W73261   5.223  37.616  11.919
 8035W        W73262  32.765  37.074  12.369
 8036W        W73263  10.715  21.440  12.568
 8037W        W73264   3.282  21.777   3.825
 8038W        W73265  18.271  37.966  14.821
 8039W        W73266  12.144  12.219   1.440
 8040W        W73267   1.251  23.976  13.838
 8041W        W73268  38.488  24.721  10.795
 8042W        W73269  38.463  20.969  11.408
 8043W        W73270  27.289  18.452  13.943
 8044W        W73271  27.419  44.323  11.698
 8045W        W73272  35.657   2.737   3.741
 8046W        W73273  29.409  30.120   2.711
 8047W        W73274  19.324   8.639   4.399
 8048W        W73275  19.507  24.242  13.250
 8049W        W73276   4.880  31.825   3.589
 8050W        W73277  19.820  22.044  14.306
 8051W        W73278  22.904   0.018   5.359
 8052W        W73279  25.632  39.637  13.546
 8053W        W73280  26.170   9.698   4.523
 8054W        W73281  11.704   2.890   0.430
 8055W        W73282  40.877  30.621   1.436
 8056W        W73283  18.491  43.971   2.826
 8057W        W73284  28.491  36.910  13.808
 8058W        W73285   7.705   0.905   1.031
 8059W        W73286  13.876  22.281  13.932
 8060W        W73287  25.799  16.062  12.930
 8061W        W73288  34.740  28.001  14.287
 8062W        W73289  28.125  24.937  12.045
 8063W        W73290  26.693  34.591  12.106
 8064W        W73291  12.827  30.979  11.160
 8065W        W73292  40.209  31.181  11.086
 8066W        W73293  27.238  22.233  11.983
 8067W        W73294   9.278  15.367   1.416
 8068W        W73295  27.532  40.261  11.040
 8069W        W73296   0.397  42.212   4.626
 8070W        W73297  13.585  34.990   0.215
 8071W        W73298  27.603  25.673  12.438
 8072W        W73299  17.283  39.392  14.241
 8073W        W73300  41.881  10.345  12.694
 8074W        W73301  42.397  27.665   2.549
 8075W        W73302  40.971   4.686   5.034
 8076W        W73303  37.197  24.958   2.834
 8077W        W73304  39.813  37.829  13.936
 8078W        W73305   2.140  12.975  13.078
 8079W        W73306  23.730   7.170   4.496
 8080W        W73307  38.288  43.323  10.817
 8081W        W73308  28.436  28.691  13.976
 8082W        W73309  31.544  43.229   3.470
 8083W        W73310  18.209  25.211  12.980
 8084W        W73311   7.663  42.745  10.671
 8085W        W73312   7.950  38.899  14.750
 8086W        W73313   9.362  17.851   1.667
 8087W        W73314   7.746   8.808   4.627
 8088W        W73315  14.336  41.088   1.977
 8089W        W73316  39.574  39.844  14.552
 8090W        W73317  10.252  39.111  10.213
 8091W        W73318   3.962  16.375  11.507
 8092W        W73319  35.146  42.344   4.679
 8093W        W73320   0.366  42.300  12.932
 8094W        W73321  31.142   3.635   3.647
 8095W        W73322  22.127  15.120   3.918
 8096W        W73323  20.013   1.859   0.881
 8097W        W73324  17.282  29.668  12.808
 8098W        W73325  41.430  37.920  14.624
 8099W        W73326   0.968  19.916  12.926
 8100W        W73327  33.211  31.950   3.723
 8101W        W73328  13.374  14.243   4.628
 8102W        W73329  30.969  18.190   1.510
 8103W        W73330  30.430  13.105   0.936
 8104W        W73331  11.249  16.041  12.302
 8105W        W73332  14.392  26.218  12.441
 8106W        W73333   1.490  17.726   2.169
 8107W        W73334  16.258  24.422  12.813
 8108W        W73335   5.377  29.629  13.429
 8109W        W73336  31.678   6.158  13.127
 8110W        W73337  43.824  36.343  11.612
 8111W        W73338  30.565  21.439  10.633
 8112W        W73339  10.718   4.713   4.283
 8113W        W73340  31.930  27.806  14.450
 8114W        W73341  26.036   7.020  11.215
 8115W        W73342  15.005  19.331   5.009
 8116W        W73343  30.091  23.522   0.730
 8117W        W73344  13.589   3.651   4.509
 8118W        W73345  15.084  35.216   2.668
 8119W        W73346  36.559   8.564  10.684
 8120W        W73347  19.997  22.504  14.418
 8121W        W73348   2.218  13.722  12.451
 8122W        W73349  27.026  14.234   0.267
 8123W        W73350  17.482  22.251  12.519
 8124W        W73351  23.160  34.362   1.947
 8125W        W73352   7.976  34.470   2.456
 8126W        W73353  12.782  11.059   1.976
 8127W        W73354  39.061   6.449  12.155
 8128W        W73355   0.517  25.059   2.196
 8129W        W73356  24.151  17.453  12.496
 8130W        W73357  33.967  16.418  13.615
 8131W        W73358  39.379  29.082   0.752
 8132W        W73359  19.428  16.550   4.245
 8133W        W73360   4.384  24.291   4.595
 8134W        W73361   8.644  15.060   0.081
 8135W        W73362  14.684  27.698  10.591
 8136W        W73363  11.191  32.076  11.886
 8137W        W73364  42.954  32.013  12.845
 8138W        W73365  31.600  19.274  12.582
 8139W        W73366  36.928  43.707   0.525
 8140W        W73367  22.329  36.550  13.400
 8141W        W73368  25.238   5.398   3.177
 8142W        W73369  24.517   6.698  14.032
 8143W        W73370   1.948   2.901  14.326
 8144W        W73371  18.581  12.306  14.795
 8145W        W73372  29.663  17.639   4.549
 8146W        W73373  14.644  14.290  12.014
 8147W        W73374  41.460  33.172   4.600
 8148W        W73375  13.341  23.714  11.759
 8149W        W73376   7.375   5.881  12.152
 8150W        W73377  23.532  33.082   4.323
 8151W        W73378  39.759   3.785  14.391
 8152W        W73379  17.134  41.691   0.239
 8153W        W73380  30.447   1.762   0.950
 8154W        W73381  35.246   8.784   0.749
 8155W        W73382  10.676  38.872  10.068
 8156W        W73383  26.977  30.163  10.654
 8157W        W73384   3.106  13.532   3.539
 8158W        W73385  36.337  12.147   0.615
 8159W        W73386   2.066  37.127  11.539
 8160W        W73387  13.192  14.844   0.586
 8161W        W73388  42.250  21.363   0.724
 8162W        W73389  13.302  11.510   1.471
 8163W        W73390  41.072  34.793  13.855
 8164W        W73391  14.272  20.827  13.816
 8165W        W73392  33.679  28.663   4.282
 8166W        W73393  12.690  14.367   2.862
 8167W        W73394  21.031  24.779  14.033
 8168W        W73395  25.881  42.010   4.235
 8169W        W73396  39.050  37.372  14.934
 8170W        W73397  17.729  23.556  14.069
 8171W        W73398  12.171  19.807  12.040
 8172W        W73399  21.626   9.322   4.788
 8173W        W73400  14.715  14.078  12.479
 8174W        W73401  27.156   9.621   1.917
 8175W        W73402  14.031   4.866  10.495
 8176W        W73403  23.534  12.561   0.293
 8177W        W73404  27.980  19.089   3.293
 8178W        W73405  35.585  16.856  14.895
 8179W        W73406  27.897  34.598   3.350
 8180W        W73407  22.810   5.306   0.439
 8181W        W73408  12.513  31.077   3.366
 8182W        W73409  14.427   3.411  12.025
 8183W        W73410  39.789  21.514  12.925
 8184W        W73411  26.367  32.743   2.568
 8185W        W73412  44.102  14.709   0.296
 8186W        W73413   8.620  39.089   2.683
 8187W        W73414  20.173   8.640  12.428
 8188W        W73415  13.275  26.365   3.787
 8189W        W73416  42.858  20.172  12.235
 8190W        W73417  15.154  31.975  12.864
 8191W        W73418  38.116  44.978   1.871
 8192W        W73419  44.248  20.098   0.324
 8193W        W73420   6.170  16.414   1.274
 8194W        W73421  39.968  37.961   4.057
 8195W        W73422  28.456  31.630  13.782
 8196W        W73423  15.977  19.481  13.587
 8197W        W73424  30.557  25.025   2.128
 8198W        W73425  17.657  31.501  13.470
 8199W        W73426  36.536   2.936   2.006
 8200W        W73427  19.051  43.180  11.518
 8201W        W73428  30.579  29.531   3.981
 8202W        W73429  40.288  12.681   3.827
 8203W        W73430   0.232  31.796   3.167
 8204W        W73431  36.271  34.334   2.920
 8205W        W73432  43.847   0.003  14.168
 8206W        W73433  37.923   1.616  10.754
 8207W        W73434  12.403  27.711   2.360
 8208W        W73435  34.944  22.165  13.528
 8209W        W73436  24.614  44.350  11.142
 8210W        W73437  13.886  15.549   4.884
 8211W        W73438  30.920   5.870   0.972
 8212W        W73439  18.306  10.599   0.110
 8213W        W73440  10.089  38.884   2.339
 8214W        W73441  13.223  29.117   0.516
 8215W        W73442  24.778  17.593  14.834
 8216W        W73443  29.473   9.994   2.381
 8217W        W73444  30.792  31.536   1.386
 8218W        W73445  43.918   8.699  11.364
 8219W        W73446  37.006  15.572   3.104
 8220W        W73447   0.691  28.232  12.905
 8221W        W73448  16.402   6.327   3.210
 8222W        W73449  35.160   7.138   1.359
 8223W        W73450  43.962  38.090  11.992
 8224W        W73451  17.559  11.935  11.129
 8225W        W73452  36.844  30.738  14.337
 8226W        W73453   1.870  21.101  13.347
 8227W        W73454  43.836  14.577  13.467
 8228W        W73455   4.658  12.064   4.422
 8229W        W73456  32.666  41.021  13.450
 8230W        W73457  20.610  38.565  13.962
 8231W        W73458   2.405  29.714  12.518
 8232W        W73459  26.389   5.113   0.387
 8233W        W73460  31.997  29.998   3.761
 8234W        W73461  23.367  30.100   0.935
 8235W        W73462  11.599   0.487  12.694
 8236W        W73463   9.725  10.162   2.380
 8237W        W73464  40.365  35.906  14.037
 8238W        W73465   7.926  30.037  11.795
 8239W        W73466   5.907  38.816   1.890
 8240W        W73467  39.776  16.155   4.650
 8241W        W73468  32.819   4.186  13.099
 8242W        W73469  40.322  39.025   2.297
 8243W        W73470  22.099   0.698   1.273
 8244W        W73471  24.461  29.937  13.825
 8245W        W73472  13.356   1.847   2.801
 8246W        W73473  20.342  20.767  11.258
 8247W        W73474  31.411   8.078   4.092
 8248W        W73475   4.751  37.766  12.136
 8249W        W73476  25.109  31.462  13.258
 8250W        W73477  42.626  26.045  12.802
 8251W        W73478  35.332  24.944  10.584
 8252W        W73479  33.916   9.478   3.978
 8253W        W73480  37.989   6.419  14.039
 8254W        W73481  42.052   7.043   3.582
 8255W        W73482  18.201  32.577  14.783
 8256W        W73483   6.351  34.672   4.939
 8257W        W73484  32.453  44.394   0.044
 8258W        W73485  36.866  36.856   4.558
 8259W        W73486   2.210  17.686  13.539
 8260W        W73487  33.884  19.869  13.334
 8261W        W73488  18.840   6.715   1.227
 8262W        W73489  12.409  44.774   5.019
 8263W        W73490  21.478   3.370   3.913
 8264W        W73491  16.719  15.827   2.097
 8265W        W73492  40.435  21.555  11.352
 8266W        W73493  19.229  17.445  11.925
 8267W        W73494  44.805  40.739   4.297
 8268W        W73495   3.216  29.211   3.793
 8269W        W73496  12.664  38.127  14.453
 8270W        W73497  31.497   7.631   3.307
 8271W        W73498  37.804  24.662  11.192
 8272W        W73499  25.492  34.113   0.472
 8273W        W73500  22.380  32.039  12.849
 8274W        W73501  36.169  28.545  12.888
 8275W        W73502  31.079  40.744   4.196
 8276W        W73503  44.902  37.067  12.530
 8277W        W73504  21.196   3.835  14.558
 8278W        W73505  26.574  44.659   3.694
 8279W        W73506  36.840  41.464   0.556
 8280W        W73507  27.901   6.164   2.335
 8281W        W73508   1.819  21.215  11.025
 8282W        W73509  17.273  17.191   2.739
 8283W        W73510  14.861   9.301  12.482
 8284W        W73511  37.908  37.057  11.724
 8285W        W73512  44.415   4.197  12.764
 8286W        W73513  14.314  41.091   4.559
 8287W        W73514  14.290  32.006  10.757
 8288W        W73515  12.206  16.545   0.700
 8289W        W73516  14.185  28.873  11.535
 8290W        W73517  33.961  35.044   2.213
 8291W        W73518  39.336  40.463  13.391
 8292W        W73519  42.826  27.042  12.704
 8293W        W73520  25.025  20.975  11.604
 8294W        W73521  22.688   4.670  11.635
 8295W        W73522  21.655  13.074   1.786
 8296W        W73523   6.325  26.385  14.311
 8297W        W73524  34.493  30.839  12.507
 8298W        W73525   4.880  30.619   2.300
 8299W        W73526  43.306  19.701  12.790
 8300W        W73527   6.008  44.288   1.693
 8301W        W73528  26.318   7.844   3.151
 8302W        W73529  32.788   5.753   4.600
 8303W        W73530  19.816  41.502   3.739
 8304W        W73531  38.092  29.558   1.346
 8305W        W73532   7.728  26.935   0.903
 8306W        W73533  30.078   6.418   1.155
 8307W        W73534  11.165  35.824  14.498
 8308W        W73535  41.983  29.937   2.645
 8309W        W73536  12.657   0.641   3.562
 8310W        W73537  34.903  39.456   1.113
 8311W        W73538   5.352   6.395   3.679
 8312W        W73539  23.409  29.976  14.936
 8313W        W73540  12.975  19.693   4.895
 8314W        W73541  17.913   9.647  11.238
 8315W        W73542  11.787  18.679   3.776
 8316W        W73543  12.784  10.942   2.864
 8317W        W73544  16.850  15.084   1.288
 8318W        W73545  28.954  39.457  14.445
 8319W        W73546  14.067  38.312   4.158
 8320W        W73547  12.349  17.669  12.998
 8321W        W73548  44.583  34.669  10.333
 8322W        W73549  41.247  34.143   3.629
 8323W        W73550  40.901  25.516   4.535
 8324W        W73551   8.651  22.862  10.468
 8325W        W73552  40.783  11.218   3.925
 8326W        W73553  16.711  17.704  10.977
 8327W        W73554   0.390  39.341   0.037
 8328W        W73555   6.857  20.199  12.917
 8329W        W73556  40.711  29.542   4.274
 8330W        W73557  20.820  11.508   2.923
 8331W        W73558  14.713  25.376  12.497
 8332W        W73559  27.699   2.784   3.463
 8333W        W73560  22.507  35.102  12.862
 8334W        W73561   9.811  27.561  14.373
 8335W        W73562  21.412  36.896   0.470
 8336W        W73563   2.383  20.480   3.835
 8337W        W73564  17.368  42.015  14.833
 8338W        W73565  34.627  24.160  14.312
 8339W        W73566  14.114   6.023   2.007
 8340W        W73567  36.789  26.923   3.747
 8341W        W73568  41.576  35.512  14.379
 8342W        W73569  15.080  39.470   4.595
 8343W        W73570  38.421  22.495   1.776
 8344W        W73571  23.283  12.935   3.205
 8345W        W73572   3.215  26.787  14.332
 8346W        W73573  29.957   4.338   4.841
 8347W        W73574  18.950   9.228   1.865
 8348W        W73575  23.701  43.823   5.365
 8349W        W73576  38.544   1.721   0.138
 8350W        W73577  24.453   0.187   2.904
 8351W        W73578  38.281  15.517  14.486
 8352W        W73579  34.595  23.796   4.353
 8353W        W73580  33.115  13.368   3.285
 8354W        W73581  31.306   9.699  14.861
 8355W        W73582   7.306  38.926  13.878
 8356W        W73583  31.642  43.363   0.618
 8357W        W73584   2.513   7.824   3.839
 8358W        W73585  15.778   1.082  14.546
 8359W        W73586  25.898   8.317   0.436
 8360W        W73587  39.062   7.817   3.679
 8361W        W73588  44.246  42.909   3.705
 8362W        W73589  16.727   9.212   3.864
 8363W        W73590  21.440   4.376  12.600
 8364W        W73591   3.427   8.456   1.492
 8365W        W73592  22.397  24.483   4.709
 8366W        W73593   4.936   1.735  11.955
 8367W        W73594  39.792  36.668  12.421
 8368W        W73595  38.851  23.045  10.863
 8369W        W73596  33.663  27.628  11.186
 8370W        W73597  39.379  18.058   2.362
 8371W        W73598  22.899  25.191   1.434
 8372W        W73599   7.690  43.344   4.689
 8373W        W73600   2.704  17.519   3.720
 8374W        W73601  32.850  23.592   1.328
 8375W        W73602   1.683  15.023  13.535
 8376W        W73603  10.892  17.227   1.720
 8377W        W73604   1.984  12.648   3.886
 8378W        W73605  18.672  42.294   2.002
 8379W        W73606  40.202  42.545   0.817
 8380W        W73607  40.698  19.522  12.749
 8381W        W73608  34.866  16.827   1.707
 8382W        W73609  17.782   6.797   4.111
 8383W        W73610  25.673  24.993   4.904
 8384W        W73611  38.553  31.041   1.694
 8385W        W73612   3.890  25.790  14.901
 8386W        W73613  19.631   3.249   1.798
 8387W        W73614  12.066  29.083   3.314
 8388W        W73615   6.335  35.313  11.276
 8389W        W73616  17.132  43.022   3.650
 8390W        W73617  39.623   2.839  12.031
 8391W        W73618  14.666   4.703   1.300
 8392W        W73619  35.434  16.975  11.276
 8393W        W73620   3.762   5.810  13.518
 8394W        W73621  44.537  44.017  13.450
 8395W        W73622  19.945  30.117   1.192
 8396W        W73623  21.924  25.015  13.076
 8397W        W73624  28.214  26.595  12.126
 8398W        W73625  10.875  36.141   4.873
 8399W        W73626  13.213  23.139  13.035
 8400W        W73627   8.626  35.365   2.653
 8401W        W73628  40.489  34.115  13.830
 8402W        W73629  24.055  41.041  11.112
 8403W        W73630  28.547  33.524  11.463
 8404W        W73631   2.626  36.836  11.595
 8405W        W73632  34.361   2.277  13.335
 8406W        W73633  35.591  31.336  10.829
 8407W        W73634  18.609   2.275   2.334
 8408W        W73635  43.360  30.497  13.923
 8409W        W73636   4.829  40.038   0.058
 8410W        W73637   5.699  31.943   4.695
 8411W        W73638   3.399  20.311  13.974
 8412W        W73639  10.026   9.335  12.517
 8413W        W73640  24.428  10.877   3.670
 8414W        W73641   1.649  29.215  12.217
 8415W        W73642  40.508  24.718  13.398
 8416W        W73643   3.155  26.183   2.327
 8417W        W73644   1.641  36.937  13.282
 8418W        W73645  22.009  36.982  12.486
 8419W        W73646  13.928  20.536  12.117
 8420W        W73647  28.674  28.552   4.776
 8421W        W73648  22.768  40.269  14.802
 8422W        W73649  17.929  27.905   2.333
 8423W        W73650  35.882  34.298  11.727
 8424W        W73651  19.138  13.554  11.685
 8425W        W73652   4.880   2.567  10.738
 8426W        W73653  30.458  20.646   3.715
 8427W        W73654  42.564  28.025  10.799
 8428W        W73655  38.102  43.056  11.232
 8429W        W73656  21.396  31.981   2.471
 8430W        W73657  29.012  40.967   3.273
 8431W        W73658  43.403  10.651   1.340
 8432W        W73659  35.174   7.172  13.014
 8433W        W73660  21.944  28.705   4.642
 8434W        W73661  31.164  14.323  14.913
 8435W        W73662   5.338   4.458  12.005
 8436W        W73663  23.695  13.505  11.610
 8437W        W73664  14.386   2.346   0.422
 8438W        W73665  31.736  43.741   2.358
 8439W        W73666  32.966  44.476  10.548
 8440W        W73667   7.345   4.981   0.578
 8441W        W73668   6.462  42.966  12.407
 8442W        W73669  30.434   4.195   4.075
 8443W        W73670  24.104  11.262  10.736
 8444W        W73671   8.397  20.606  14.997
 8445W        W73672  12.614  44.488  13.109
 8446W        W73673  43.013  24.179  11.480
 8447W        W73674   9.454  31.498   1.845
 8448W        W73675  15.152  25.285  13.783
 8449W        W73676  36.689  38.063  10.809
 8450W        W73677   2.667  17.847   0.019
 8451W        W73678  30.115  42.984   0.216
 8452W        W73679  14.358  26.959  14.957
 8453W        W73680  15.374   6.910   3.599
 8454W        W73681  32.958  39.716   1.505
 8455W        W73682  30.451  40.051  13.701
 8456W        W73683   2.346   2.132  12.013
 8457W        W73684  16.676  24.817   4.788
 8458W        W73685  29.470  24.667   4.348
 8459W        W73686   8.660   8.673   3.623
 8460W        W73687  35.421  35.846   3.869
 8461W        W73688  32.101  23.772   4.185
 8462W        W73689  13.686  43.375  12.027
 8463W        W73690  21.039   0.732   4.015
 8464W        W73691  43.418  23.681  10.701
 8465W        W73692  18.507  30.407  12.746
 8466W        W73693  28.161  41.220  11.649
 8467W        W73694   5.858  43.429   1.869
 8468W        W73695  11.784  23.217   0.200
 8469W        W73696  24.184  37.624  11.166
 8470W        W73697  11.182   2.278   3.516
 8471W        W73698  25.382   8.610  14.995
 8472W        W73699  20.333  38.845   3.101
 8473W        W73700  38.530  32.488  11.601
 8474W        W73701  30.977  17.366   2.913
 8475W        W73702  18.999  33.641  12.979
 8476W        W73703  12.613  22.482  11.942
 8477W        W73704  37.302  42.702  13.298
 8478W        W73705  42.880  18.110  13.440
 8479W        W73706   4.788  39.594   3.233
 8480W        W73707  33.928  24.269  11.125
 8481W        W73708  30.085  21.250  11.899
 8482W        W73709   9.105   5.385   0.516
 8483W        W73710  32.587  16.454   0.363
 8484W        W73711  25.995   8.402   4.519
 8485W        W73712  43.272   0.497   1.894
 8486W        W73713  29.264  25.913  10.752
 8487W        W73714  15.728  12.156  13.873
 8488W        W73715   5.805  39.007  11.229
 8489W        W73716  14.784  13.027   3.232
 8490W        W73717   9.370  18.240   4.782
 8491W        W73718  28.036   1.744   0.898
 8492W        W73719   5.761  29.261  11.163
 8493W        W73720  11.683  22.009  12.392
 8494W        W73721  40.401  44.812   3.654
 8495W        W73722  11.688   8.934   0.617
 8496W        W73723  23.628  38.142  12.074
 8497W        W73724  38.174  36.215   2.246
 8498W        W73725  32.492  32.023   0.458
 8499W        W73726  19.532   5.905   3.904
 8500W        W73727  32.074  25.557  13.889
 8501W        W73728   4.677  17.172   4.580
 8502W        W73729  19.542  24.601  14.019
 8503W        W73730  18.579  13.730  12.450
 8504W        W73731  18.759  29.624   1.626
 8505W        W73732   4.721  18.680   0.913
 8506W        W73733   2.130  42.379  13.688
 8507W        W73734  32.590  24.022   1.513
 8508W        W73735  28.641   3.928  12.131
 8509W        W73736  27.318   5.024   3.666
 8510W        W73737  23.769  10.134  12.840
 8511W        W73738  38.520  33.709   1.446
 8512W        W73739  12.040  36.828  14.728
 8513W        W73740   3.685  18.990   3.318
 8514W        W73741  26.487  32.194  14.728
 8515W        W73742  15.192  13.307   0.718
 8516W        W73743  33.150  20.019   1.454
 8517W        W73744  43.913   8.132  14.407
 8518W        W73745  32.289  24.672   0.850
 8519W        W73746   0.485  17.248  12.896
 8520W        W73747  43.793  13.334  13.006
 8521W        W73748  38.359   6.649  12.882
 8522W        W73749  27.844  18.178   3.667
 8523W        W73750   0.957  11.622   2.299
 8524W        W73751   5.169  32.608   0.434
 8525W        W73752  34.768  40.745   0.550
 8526W        W73753  26.628  10.752   0.070
 8527W        W73754  25.368  24.044  12.553
 8528W        W73755  12.300   3.429   0.868
 8529W        W73756  39.644  44.213   1.287
 8530W        W73757   5.959  21.057   5.123
 8531W        W73758  16.806  20.351   2.691
 8532W        W73759  23.687  37.029  13.380
 8533W        W73760   0.978  10.662   4.916
 8534W        W73761   0.234  31.577   0.009
 8535W        W73762  20.773  20.170  11.730
 8536W        W73763  37.280  43.816   1.369
 8537W        W73764   7.918   8.135   3.536
 8538W        W73765  32.898  19.694  13.468
 8539W        W73766  39.637  23.201   0.356
 8540W        W73767  31.810  23.129   2.220
 8541W        W73768  40.762  25.589   3.324
 8542W        W73769  12.351  42.141  11.603
 8543W        W73770  35.573  18.172   0.502
 8544W        W73771  40.604  34.249   4.380
 8545W        W73772  38.558   5.872   2.344
 8546W        W73773  11.320  44.917  11.016
 8547W        W73774  24.984   7.457   2.430
 8548W        W73775  24.080  12.346  11.516
 8549W        W73776  22.751  17.397  14.541
 8550W        W73777  25.721  23.725  14.897
 8551W        W73778   3.458  22.429   3.179
 8552W        W73779  29.358  36.189  14.538
 8553W        W73780  37.081  24.278   0.860
 8554W        W73781  42.486   4.721  11.120
 8555W        W73782   5.295   9.132   2.626
 8556W        W73783  38.373  30.593   1.898
 8557W        W73784   1.498  31.541  13.574
 8558W        W73785  39.435  11.730   2.482
 8559W        W73786  25.268  24.748   4.679
 8560W        W73787  16.747  11.887   4.455
 8561W        W73788   3.381  11.352   0.835
 8562W        W73789  42.652  38.886  12.827
 8563W        W73790   0.248  26.857   3.229
 8564W        W73791  22.949  40.612  11.960
 8565W        W73792  28.534  31.741  11.090
 8566W        W73793  30.563  13.452   1.936
 8567W        W73794  41.950  34.916   3.588
 8568W        W73795  37.715   0.811   2.388
 8569W        W73796  21.296  21.217  11.969
 8570W        W73797  31.464  13.595   1.266
 8571W        W73798  14.796  18.294  12.020
 8572W        W73799  11.783   1.944  13.385
 8573W        W73800  10.176  14.674  12.034
 8574W        W73801  34.437  23.588  12.671
 8575W        W73802  14.299  17.346   0.321
 8576W        W73803  25.587  37.801   1.711
 8577W        W73804  41.861  17.311   0.832
 8578W        W73805  39.240  20.460   4.243
 8579W        W73806   6.613   6.611  12.046
 8580W        W73807  43.536  37.083   2.434
 8581W        W73808   5.396  19.492   2.119
 8582W        W73809   3.197   6.942  13.893
 8583W        W73810  24.324  28.469  14.312
 8584W        W73811  34.793  37.000   2.591
 8585W        W73812  26.718  34.970   0.532
 8586W        W73813  23.237  29.532   1.226
 8587W        W73814  39.851  11.649   4.141
 8588W        W73815   1.263  31.022   1.732
 8589W        W73816   1.709  37.464  14.892
 8590W        W73817  38.796  23.574   4.856
 8591W        W73818  42.848  21.487  14.319
 8592W        W73819  26.772  18.142  11.990
 8593W        W73820  20.149   0.331   3.652
 8594W        W73821  44.280  29.313   1.932
 8595W        W73822   7.690  37.450  14.371
 8596W        W73823  36.399  31.055   3.172
 8597W        W73824  31.570  28.548  14.042
 8598W        W73825  26.291  25.696   1.709
 8599W        W73826  16.760  17.575  11.495
 8600W        W73827  21.734  44.001   3.862
 8601W        W73828  40.267  41.529   1.279
 8602W        W73829  17.069   5.450   3.370
 8603W        W73830  36.421  17.843   4.695
 8604W        W73831   1.786  35.636  12.616
 8605W        W73832   4.403  27.119   9.819
 8606W        W73833  14.645  22.611   4.369
 8607W        W73834  37.416  26.744  13.906
 8608W        W73835  41.628  13.090   2.919
 8609W        W73836  26.246  44.993   2.782
 8610W        W73837  31.442  44.464   4.718
 8611W        W73838   7.992  16.375   0.801
 8612W        W73839   6.763  21.036  12.089
 8613W        W73840   7.174  35.783   1.336
 8614W        W73841   1.504  17.228   3.709
 8615W        W73842  14.210  18.282   1.225
 8616W        W73843  27.178  36.316  11.095
 8617W        W73844  11.352  26.115  13.365
 8618W        W73845   0.493  32.543  11.507
 8619W        W73846  24.904  19.095   2.791
 8620W        W73847  21.257  42.433  13.946
 8621W        W73848  30.580  15.775  13.423
 8622W        W73849  37.409  19.359  10.775
 8623W        W73850   7.501  34.815  11.595
 8624W        W73851   3.540  43.775  12.483
 8625W        W73852   4.697  42.656  14.408
 8626W        W73853  31.707   3.931  12.967
 8627W        W73854  13.159  24.622  14.284
 8628W        W73855  32.093  21.705   4.710
 8629W        W73856  37.536  31.999  11.047
 8630W        W73857  25.041  34.884  11.031
 8631W        W73858   6.370   5.767   2.829
 8632W        W73859  23.792  22.044   2.279
 8633W        W73860  32.079  20.149   5.215
 8634W        W73861  40.301   3.357  12.825
 8635W        W73862   8.158  37.637  11.488
 8636W        W73863  15.179  42.040   3.294
 8637W        W73864  27.155   1.657   1.530
 8638W        W73865   8.876   1.239  11.636
 8639W        W73866  33.106   2.397   1.902
 8640W        W73867  37.448  41.792   1.784
 8641W        W73868   3.315  44.966   0.683
 8642W        W73869  37.073   4.411   0.739
 8643W        W73870  36.864  29.391   0.947
 8644W        W73871  29.288  21.357   3.590
 8645W        W73872   6.436  27.908   3.729
 8646W        W73873   0.024  19.262  12.170
 8647W        W73874  14.921  30.363   1.690
 8648W        W73875  33.337  22.873  13.857
 8649W        W73876  11.561  28.070   2.644
 8650W        W73877  24.260  41.446  11.396
 8651W        W73878  33.182  15.206   3.623
 8652W        W73879  30.175  37.962  12.526
 8653W        W73880  24.369  16.266   1.024
 8654W        W73881  38.779  26.583   0.024
 8655W        W73882   2.930  15.122  11.158
 8656W        W73883  14.129  12.525  13.404
 8657W        W73884  12.134  38.571   3.366
 8658W        W73885  22.940  11.550   0.059
 8659W        W73886  30.477   2.864  11.955
 8660W        W73887   4.323  27.423   2.756
 8661W        W73888   8.469  10.629  11.197
 8662W        W73889  37.908  34.928   3.714
 8663W        W73890  11.353   3.494  14.750
 8664W        W73891   1.702   6.840  11.910
 8665W        W73892  26.128  26.660   3.310
 8666W        W73893  24.022  41.095  10.588
 8667W        W73894  18.025  41.894   4.571
 8668W        W73895   4.687   9.639  14.976
 8669W        W73896  13.522  42.472  11.051
 8670W        W73897  39.239   7.958  10.330
 8671W        W73898  25.281   4.918  13.411
 8672W        W73899  40.002  23.210  11.565
 8673W        W73900  27.159  12.451   2.340
 8674W        W73901  26.024   6.958   0.368
 8675W        W73902  44.830   4.910  11.685
 8676W        W73903  33.852  28.579   2.822
 8677W        W73904   0.399  13.016  12.052
 8678W        W73905  32.665   4.890   3.140
 8679W        W73906   9.508   6.565  11.210
 8680W        W73907  43.065  43.904  12.951
 8681W        W73908   6.540   0.027  12.273
 8682W        W73909  40.047  40.442   3.667
 8683W        W73910  30.430  41.498   4.766
 8684W        W73911   6.638   1.756  12.495
 8685W        W73912  12.738  21.742  10.793
 8686W        W73913  13.633  10.340   1.677
 8687W        W73914  39.911  14.703   0.495
 8688W        W73915  26.913  15.432  14.730
 8689W        W73916  35.176   6.239  10.768
 8690W        W73917  39.139  29.404   3.620
 8691W        W73918  18.530  40.503   3.181
 8692W        W73919  30.496  20.646  11.305
 8693W        W73920  19.158  31.606   1.203
 8694W        W73921  21.038  15.168   3.332
 8695W        W73922  44.791  18.315   2.739
 8696W        W73923   5.682  30.321  14.901
 8697W        W73924  41.273  32.344   5.042
 8698W        W73925  11.681  16.229   0.094
 8699W        W73926  30.544  35.871  10.236
 8700W        W73927  21.229   5.371   2.229
 8701W        W73928  18.566  42.079  14.559
 8702W        W73929  16.868  23.937   3.293
 8703W        W73930  16.032  44.923   1.748
 8704W        W73931  41.537  44.236  11.127
 8705W        W73932   3.856   0.863  11.615
 8706W        W73933  43.757   8.414  10.524
 8707W        W73934  31.010  13.539   1.669
 8708W        W73935  14.691  20.721  14.538
 8709W        W73936  15.779  30.107   3.540
 8710W        W73937   3.222  20.669  11.718
 8711W        W73938  29.796  17.776   2.711
 8712W        W73939  16.143  40.493   0.479
 8713W        W73940  30.395  28.572   2.923
 8714W        W73941  34.584  40.418  11.866
 8715W        W73942  19.583  20.720   2.127
 8716W        W73943  28.503  38.578   3.261
 8717W        W73944  23.978  34.924   1.880
 8718W        W73945  39.447  26.373   3.812
 8719W        W73946  20.119  40.885   2.909
 8720W        W73947  33.870  26.182   1.391
 8721W        W73948   2.730   1.596   4.058
 8722W        W73949  27.348   6.419   4.189
 8723W        W73950  34.396  22.781  11.187
 8724W        W73951  25.321  13.460   2.693
 8725W        W73952  21.147  19.218  12.921
 8726W        W73953  19.228  24.027  14.533
 8727W        W73954  27.784  24.253  12.897
 8728W        W73955  25.082  26.626   4.229
 8729W        W73956  29.178  41.768   3.746
 8730W        W73957  40.435  24.829   2.184
 8731W        W73958  23.695   4.819  11.607
 8732W        W73959  30.443  32.632   1.877
 8733W        W73960  29.526  15.785  13.475
 8734W        W73961  43.340   2.416  11.812
 8735W        W73962  37.882  34.518   4.537
 8736W        W73963  29.441  43.899  11.855
 8737W        W73964  27.701   2.666  11.163
 8738W        W73965  44.426  16.035  11.204
 8739W        W73966  44.294  42.817   5.046
 8740W        W73967  20.321  30.148   0.853
 8741W        W73968   4.471   1.438   0.303
 8742W        W73969  12.705   4.963   3.350
 8743W        W73970  17.842  34.029   2.277
 8744W        W73971  14.996  12.825   0.769
 8745W        W73972   4.390  41.381  14.416
 8746W        W73973  41.692  40.019   2.481
 8747W        W73974   8.002   6.001   2.114
 8748W        W73975  36.677  33.636  11.632
 8749W        W73976  10.096  10.784   4.167
 8750W        W73977  23.044  21.988   1.038
 8751W        W73978  13.088  26.639  13.534
 8752W        W73979  10.762  13.824  13.039
 8753W        W73980  20.305  32.137   4.316
 8754W        W73981   0.764  26.057   0.833
 8755W        W73982  30.372  24.202   2.468
 8756W        W73983  39.360  11.348  13.863
 8757W        W73984  35.844  44.954  12.932
 8758W        W73985  10.674  39.350   4.007
 8759W        W73986  22.844  17.146   2.407
 8760W        W73987  12.274  40.212  13.943
 8761W        W73988  12.197  14.602   2.000
 8762W        W73989  27.548  11.939  14.694
 8763W        W73990  40.459  26.591  14.108
 8764W        W73991  22.448  26.603  14.025
 8765W        W73992  10.310  29.073  13.641
 8766W        W73993  37.946   8.172   1.243
 8767W        W73994  41.530  38.813   1.244
 8768W        W73995  28.602  16.412   4.221
 8769W        W73996  44.329  39.418   4.472
 8770W        W73997  21.255  31.556   2.772
 8771W        W73998  24.901  25.818  14.368
 8772W        W73999  17.706  44.203   0.389
 8773W        W74000   3.054  30.219  10.598
 8774W        W74001  35.870  42.005   4.577
 8775W        W74002  40.902  24.751  13.972
 8776W        W74003  23.292   9.243   3.663
 8777W        W74004  17.038  13.184   0.910
 8778W        W74005  37.824  33.030   1.347
 8779W        W74006   3.969   2.600  14.838
 8780W        W74007  20.190  17.076  12.678
 8781W        W74008  12.840   4.491  13.558
 8782W        W74009  15.351  43.601  11.093
 8783W        W74010  18.336  11.844  11.627
 8784W        W74011  40.168  27.109  14.036
 8785W        W74012   0.031   8.090   3.086
 8786W        W74013   1.857  35.095   3.453
 8787W        W74014  43.283  39.986  14.358
 8788W        W74015  17.138  23.358  12.461
 8789W        W74016  39.797  33.570  11.151
 8790W        W74017  38.845  30.658  12.443
 8791W        W74018   4.925   7.326  11.209
 8792W        W74019  37.504  37.395  14.994
 8793W        W74020  13.809  40.007  11.710
 8794W        W74021  11.396  20.704   3.678
 8795W        W74022   8.653  42.896   3.716
 8796W        W74023  12.071   5.008   1.255
 8797W        W74024   3.903   9.886  10.672
 8798W        W74025  18.067  20.057  14.265
 8799W        W74026  39.227  34.850  10.999
 8800W        W74027  16.675  13.808  11.726
 8801W        W74028   1.781  31.186  14.489
 8802W        W74029  35.052  29.315  13.121
 8803W        W74030  14.674  37.681  12.042
 8804W        W74031   2.815  39.021  10.382
 8805W        W74032  19.169  26.918   1.829
 8806W        W74033   3.336  23.826  14.240
 8807W        W74034   5.118   7.784  13.313
 8808W        W74035  26.097   3.309   4.057
 8809W        W74036  36.124  11.270  12.677
 8810W        W74037  44.712   7.668   2.982
 8811W        W74038   9.796  39.287  10.424
 8812W        W74039  33.565  40.280   1.214
 8813W        W74040  37.135  16.099  12.120
 8814W        W74041   7.107  43.241   1.374
 8815W        W74042  18.109   2.513  10.953
 8816W        W74043  39.073   7.182   4.416
 8817W        W74044   7.877  39.023  14.231
 8818W        W74045  38.583  32.046   1.821
 8819W        W74046  42.163  15.843  14.333
 8820W        W74047  20.014   8.253  11.649
 8821W        W74048  26.549  28.503  13.454
 8822W        W74049   9.194  35.933   4.202
 8823W        W74050  34.907  34.936   4.741
 8824W        W74051  25.156  33.149   3.368
 8825W        W74052  29.755  17.970  10.691
 8826W        W74053  39.242  31.618  11.214
 8827W        W74054   6.119   6.480  12.028
 8828W        W74055   6.224   8.410  10.984
 8829W        W74056  32.462  26.703  13.011
 8830W        W74057  10.275  42.394   0.286
 8831W        W74058   2.936  25.619   0.937
 8832W        W74059  37.669  41.912   5.024
 8833W        W74060  16.910   6.804  13.846
 8834W        W74061  20.518  12.775   0.471
 8835W        W74062   5.875  21.978   2.269
 8836W        W74063   9.060  17.350   3.265
 8837W        W74064  41.066  42.495   1.717
 8838W        W74065  13.087  19.018  10.716
 8839W        W74066  17.338  32.642   1.501
 8840W        W74067   5.672  16.925  10.716
 8841W        W74068   7.818   1.929   4.350
 8842W        W74069   2.242   3.248  13.506
 8843W        W74070  44.132  13.213   4.563
 8844W        W74071  40.817  15.143  14.011
 8845W        W74072  39.416  21.650   1.155
 8846W        W74073  23.866  24.960   3.774
 8847W        W74074   1.988   8.255   4.590
 8848W        W74075  13.841  31.337   4.513
 8849W        W74076   8.008  33.581   1.383
 8850W        W74077   0.826  34.074   0.780
 8851W        W74078  20.440   2.495  12.857
 8852W        W74079  30.893  44.925   0.324
 8853W        W74080  16.490  25.226   2.424
 8854W        W74081  41.930  22.727  13.092
 8855W        W74082  14.699   9.088  11.263
 8856W        W74083   9.932  16.110   0.394
 8857W        W74084  14.520  16.065   2.082
 8858W        W74085  36.300  43.074   5.204
 8859W        W74086   1.934   8.731   2.012
 8860W        W74087  32.675   8.742  12.695
 8861W        W74088  40.073   5.207  13.040
 8862W        W74089  26.593  29.315   1.806
 8863W        W74090  13.555  36.334  10.328
 8864W        W74091  15.768  10.268   2.453
 8865W        W74092  11.458  26.459   2.015
 8866W        W74093  10.210  37.319  12.191
 8867W        W74094  12.268  38.469   2.876
 8868W        W74095   3.433  20.317  11.384
 8869W        W74096  13.485  20.876  13.367
 8870W        W74097   1.794  25.130   1.684
 8871W        W74098   7.397  44.032  13.973
 8872W        W74099  25.350  33.326   1.252
 8873W        W74100  20.773   5.016  11.163
 8874W        W74101   1.979  17.389  12.951
 8875W        W74102  10.908  14.439   0.824
 8876W        W74103  24.078  13.073   4.860
 8877W        W74104  28.086  18.526   1.468
 8878W        W74105  21.512   4.762   3.411
 8879W        W74106  26.156   6.802   3.759
 8880W        W74107   5.730  28.756   1.899
 8881W        W74108  39.571  11.166  12.542
 8882W        W74109  37.296  29.708   0.983
 8883W        W74110  35.358  27.602  12.690
 8884W        W74111  43.246  12.019   2.338
 8885W        W74112  35.562  22.173   3.275
 8886W        W74113   1.131  16.670   4.700
 8887W        W74114  24.475   2.856   0.896
 8888W        W74115  20.818  19.671  13.483
 8889W        W74116  10.866  11.684  11.119
 8890W        W74117  14.268  11.963   5.059
 8891W        W74118  31.598  34.288   1.464
 8892W        W74119   8.324  44.301   3.174
 8893W        W74120  19.524  10.344   0.869
 8894W        W74121  23.046  40.523   3.961
 8895W        W74122  19.078   5.107   4.004
 8896W        W74123  15.251  17.371  12.298
 8897W        W74124   7.566  11.689  14.364
 8898W        W74125  26.405   5.255  10.709
 8899W        W74126  20.231  27.456  12.512
 8900W        W74127   8.462   5.333  12.511
 8901W        W74128  19.282  30.895  12.649
 8902W        W74129  40.143  31.392  13.377
 8903W        W74130  22.481  21.638   0.586
 8904W        W74131  41.854  22.011   0.286
 8905W        W74132  20.654   4.285  12.510
 8906W        W74133  42.506  18.727   2.200
 8907W        W74134  42.454  30.230  11.734
 8908W        W74135  20.524   6.685   0.277
 8909W        W74136  44.815  23.188  13.749
 8910W        W74137   1.751  11.677  12.525
 8911W        W74138  27.048  24.404   4.642
 8912W        W74139  34.369  43.242   3.702
 8913W        W74140  10.281   7.201   3.698
 8914W        W74141  31.473  26.614  14.828
 8915W        W74142   4.203   5.215   1.734
 8916W        W74143  21.062  41.799   1.527
 8917W        W74144  26.984  26.744  13.472
 8918W        W74145  32.930  10.066  14.301
 8919W        W74146  36.155  18.651   2.698
 8920W        W74147  13.243  43.805  11.648
 8921W        W74148  42.753  15.160   2.328
 8922W        W74149  11.644  31.082  11.078
 8923W        W74150  12.276   1.358  13.898
 8924W        W74151  30.824  19.215  14.031
 8925W        W74152  18.551   1.304   3.178
 8926W        W74153  25.504  27.160  12.012
 8927W        W74154   6.766  28.368   1.192
 8928W        W74155  42.346  32.202  11.618
 8929W        W74156  17.555  39.080   3.694
 8930W        W74157  15.610   1.897   4.666
 8931W        W74158  43.909  30.548   1.702
 8932W        W74159   5.878   3.077  13.988
 8933W        W74160  23.765   9.711   0.405
 8934W        W74161  34.140  40.961   3.247
 8935W        W74162   4.203  27.308  13.847
 8936W        W74163  33.947  41.756  12.539
 8937W        W74164  37.580  33.364   0.017
 8938W        W74165   5.356  31.607   3.982
 8939W        W74166  11.357  42.002   3.259
 8940W        W74167  32.413   5.628   1.873
 8941W        W74168  35.365   5.791   4.958
 8942W        W74169  11.269  26.951   1.888
 8943W        W74170  14.824  10.204  13.137
 8944W        W74171   2.162  23.274  14.956
 8945W        W74172  42.078  43.402   2.832
 8946W        W74173  35.559  40.273  14.824
 8947W        W74174   3.398  30.395  13.480
 8948W        W74175  12.114  21.136   1.776
 8949W        W74176  28.099  43.770  14.314
 8950W        W74177  38.347   8.761  12.135
 8951W        W74178  21.481   1.324  13.998
 8952W        W74179  37.383   4.687  11.719
 8953W        W74180   2.329  33.592  13.482
 8954W        W74181  39.245  16.707   2.245
 8955W        W74182  38.998  38.916  10.878
 8956W        W74183  11.657  17.026   2.251
 8957W        W74184  17.633  34.597   1.850
 8958W        W74185  39.300   9.312   2.879
 8959W        W74186   2.854  33.644  12.497
 8960W        W74187  43.816  27.890  13.575
 8961W        W74188  20.070   4.782   5.164
 8962W        W74189  11.210  42.398   2.925
 8963W        W74190  23.260   7.813   4.121
 8964W        W74191  21.462   5.405  11.249
 8965W        W74192  11.866   4.142  12.849
 8966W        W74193  39.725  17.194  14.806
 8967W        W74194  18.827   5.646  12.439
 8968W        W74195  35.398  35.362   1.389
 8969W        W74196  24.063  42.213   3.612
 8970W        W74197  16.039  19.147  11.740
 8971W        W74198  40.428  31.729  10.272
 8972W        W74199  20.770   1.032   1.712
 8973W        W74200  39.823   4.686   4.090
 8974W        W74201  39.241  37.067   4.558
 8975W        W74202  16.759  15.681   3.181
 8976W        W74203  26.378  39.896  14.846
 8977W        W74204   5.870   8.929  11.482
 8978W        W74205   0.463  24.738  13.783
 8979W        W74206  18.640  42.710  12.594
 8980W        W74207  36.550  11.200   4.727
 8981W        W74208  44.827   8.287   4.531
 8982W        W74209  28.088  16.174  12.959
 8983W        W74210  42.083   4.009   0.318
 8984W        W74211  25.133  12.024  13.964
 8985W        W74212  33.208  22.485   4.302
 8986W        W74213  24.675  11.817   3.775
 8987W        W74214   7.761  14.333   9.887
 8988W        W74215   5.343  44.866   0.972
 8989W        W74216  14.155  36.113   0.678
 8990W        W74217  41.954   2.220   3.140
 8991W        W74218  37.266  42.484  14.004
 8992W        W74219  18.862   8.109   3.359
 8993W        W74220  40.808   2.685   2.926
 8994W        W74221  38.667  20.613   1.879
 8995W        W74222  42.238  15.786   0.285
 8996W        W74223  16.360   5.784  11.992
 8997W        W74224  14.380   9.812   4.428
 8998W        W74225  18.307   3.592  12.047
 8999W        W74226   7.313  18.105   3.969
 9000W        W74227  29.025   3.751  14.846
 9001W        W74228   4.762   6.859  12.430
 9002W        W74229   3.574  29.428   0.323
 9003W        W74230  24.614  20.978  11.282
 9004W        W74231  28.157  44.540  13.925
 9005W        W74232  38.078  39.993  10.620
 9006W        W74233  42.366  13.634  12.630
 9007W        W74234  16.001  31.645   1.300
 9008W        W74235  15.977  18.862   1.756
 9009W        W74236   6.682   3.362  13.345
 9010W        W74237   0.407  14.559   1.398
 9011W        W74238   9.675  18.653  14.900
 9012W        W74239  24.268  14.601  12.439
 9013W        W74240  12.240   7.937  13.342
 9014W        W74241   5.352  16.570  14.671
 9015W        W74242  10.554  39.901  13.885
 9016W        W74243  43.896   6.688   3.818
 9017W        W74244   9.302  38.765   1.219
 9018W        W74245  20.268  39.623  14.516
 9019W        W74246  15.233  37.457  11.133
 9020W        W74247  36.051  42.788  11.615
 9021W        W74248  27.231  21.086  10.722
 9022W        W74249   2.790  10.154  12.428
 9023W        W74250  19.380  42.913  11.966
 9024W        W74251  17.556   2.428  14.894
 9025W        W74252  37.632  29.262   3.780
 9026W        W74253  39.914   2.637   0.418
 9027W        W74254   1.351  38.460  10.948
 9028W        W74255  10.305  39.359  14.821
 9029W        W74256  30.054   5.354  12.231
 9030W        W74257   4.916  12.783   2.251
 9031W        W74258  21.046  13.602   1.249
 9032W        W74259  10.470  21.612   4.133
 9033W        W74260  43.786  22.836  13.058
 9034W        W74261  30.642  10.890   1.391
 9035W        W74262  34.945  28.664   3.867
 9036W        W74263   0.411  12.470   1.335
 9037W        W74264  43.139  38.144   1.722
 9038W        W74265   7.918  21.335   3.823
 9039W        W74266  32.404  39.562  11.934
 9040W        W74267  14.893  10.608   0.615
 9041W        W74268  17.231  42.504  11.543
 9042W        W74269  23.017  37.014  10.671
 9043W        W74270  34.037  11.187  11.581
 9044W        W74271  24.983  40.783   1.676
 9045W        W74272   6.699  20.195  10.805
 9046W        W74273  32.487  19.202  11.275
 9047W        W74274  13.106  40.064   3.188
 9048W        W74275  16.926   2.402  12.472
 9049W        W74276  43.224   0.248   4.136
 9050W        W74277  25.025   0.237  14.870
 9051W        W74278  17.471  40.538  14.291
 9052W        W74279  28.533  40.802   4.558
 9053W        W74280   9.312  24.696  10.723
 9054W        W74281   3.959  30.337  14.455
 9055W        W74282  16.199   8.919   3.768
 9056W        W74283  16.595  18.111   0.501
 9057W        W74284  41.050  27.995  14.372
 9058W        W74285   2.858  30.488  12.624
 9059W        W74286   7.966  27.534  13.727
 9060W        W74287  28.793  40.568   3.780
 9061W        W74288  41.343  40.896  12.540
 9062W        W74289  39.993  28.124   4.533
 9063W        W74290  32.995   2.264   0.910
 9064W        W74291   9.236  10.894   3.861
 9065W        W74292  13.824  13.586   4.602
 9066W        W74293   9.244  18.676  10.669
 9067W        W74294  37.376  19.244   3.978
 9068W        W74295   0.975   4.140   2.297
 9069W        W74296  40.616  25.429  14.800
 9070W        W74297   5.507   4.042   0.820
 9071W        W74298   6.982  26.913   2.784
 9072W        W74299  44.470  23.515  12.928
 9073W        W74300  38.778  41.498  10.816
 9074W        W74301  10.706   2.409  14.014
 9075W        W74302  19.237  43.878   1.254
 9076W        W74303  29.965   7.684  10.664
 9077W        W74304  43.970  42.379  14.303
 9078W        W74305  38.398  29.393   3.206
 9079W        W74306   2.472  42.406   1.439
 9080W        W74307   1.327  42.743  13.643
 9081W        W74308  30.147  24.654   4.151
 9082W        W74309  44.869  41.771   3.892
 9083W        W74310  19.533  15.898  12.422
 9084W        W74311   0.923  43.694   1.800
 9085W        W74312   4.875  38.778   1.680
 9086W        W74313  29.053  42.644  11.900
 9087W        W74314  18.573   5.816   3.596
 9088W        W74315  10.116  18.465  13.451
 9089W        W74316  29.225  25.800   0.669
 9090W        W74317  43.977  32.685  13.864
 9091W        W74318  21.773  17.061  14.314
 9092W        W74319  23.142   4.221  14.959
 9093W        W74320   8.229  40.631   3.445
 9094W        W74321  23.431   5.475   4.453
 9095W        W74322  17.463  30.506   3.768
 9096W        W74323   0.539  21.640  14.172
 9097W        W74324  14.953   6.281  14.054
 9098W        W74325  12.291  33.456  12.053
 9099W        W74326   3.450  36.268  13.720
 9100W        W74327  28.707   0.157   2.206
 9101W        W74328  44.320  21.115  14.504
 9102W        W74329  36.772  19.831   4.620
 9103W        W74330  14.114   7.238   0.826
 9104W        W74331  24.137  20.802  13.060
 9105W        W74332   1.652  37.436   2.230
 9106W        W74333  14.310  33.425   4.779
 9107W        W74334  44.356  10.931   4.846
 9108W        W74335  33.412  23.896   3.913
 9109W        W74336  28.751  44.838  13.611
 9110W        W74337  20.284  27.655   3.248
 9111W        W74338   4.974   1.784  14.411
 9112W        W74339  34.368  30.852  11.644
 9113W        W74340  40.550  32.381   1.383
 9114W        W74341  40.324   3.951  12.584
 9115W        W74342   2.219  20.221   0.700
 9116W        W74343  20.215  32.462  13.362
 9117W        W74344  43.455  18.760  14.135
 9118W        W74345  35.133   1.322   2.790
 9119W        W74346  14.294   0.853   4.218
 9120W        W74347  39.837  25.971   0.297
 9121W        W74348  28.607  31.616   4.502
 9122W        W74349  40.097  23.861   0.692
 9123W        W74350   3.247  41.909  14.892
 9124W        W74351  15.852  11.637   1.763
 9125W        W74352  19.251   1.822   1.127
 9126W        W74353   0.931  35.780  14.511
 9127W        W74354  12.878  31.594  14.896
 9128W        W74355  21.523  25.897   3.227
 9129W        W74356  41.905  25.444   2.751
 9130W        W74357   4.697  22.320  14.875
 9131W        W74358   4.203  17.569   0.659
 9132W        W74359  44.354  11.906   4.594
 9133W        W74360   0.715  15.057   2.684
 9134W        W74361  13.069  15.606   4.272
 9135W        W74362   3.409   5.232  10.785
 9136W        W74363  18.511  35.842   1.568
 9137W        W74364  33.136  13.093  11.483
 9138W        W74365   1.809  25.088  13.804
 9139W        W74366   6.373  24.539   3.196
 9140W        W74367  15.576  11.220  11.938
 9141W        W74368  34.934  29.714  11.600
 9142W        W74369  30.367  29.605  11.521
 9143W        W74370  30.598  18.508   4.582
 9144W        W74371  12.893  31.498   2.623
 9145W        W74372   5.659  35.018   1.012
 9146W        W74373   6.121  26.991   4.061
 9147W        W74374   6.049  35.017   1.354
 9148W        W74375  22.105  15.346   3.459
 9149W        W74376  17.261   9.829  14.862
 9150W        W74377  18.570  44.803  12.825
 9151W        W74378  40.287  33.605   4.241
 9152W        W74379  34.590  34.596   1.657
 9153W        W74380   2.495  22.355  12.333
 9154W        W74381   0.839   9.043  11.627
 9155W        W74382  19.753   0.932   2.133
 9156W        W74383   1.109  40.118   3.476
 9157W        W74384  34.619  15.186   3.198
 9158W        W74385   1.743   9.052  12.925
 9159W        W74386  31.378  20.334  13.213
 9160W        W74387   0.888  30.930  12.791
 9161W        W74388  35.552  27.561  13.185
 9162W        W74389  31.662  17.568  14.336
 9163W        W74390  14.962  13.533   3.335
 9164W        W74391  14.108   4.289   2.132
 9165W        W74392  20.768  44.026   3.725
 9166W        W74393  29.846  13.616   3.174
 9167W        W74394  16.399  27.595  11.093
 9168W        W74395  18.499  44.906  12.023
 9169W        W74396  37.317  20.022  14.026
 9170W        W74397   3.100  20.769  14.579
 9171W        W74398  20.716  25.848   3.127
 9172W        W74399   4.946  22.657   3.265
 9173W        W74400  29.371   7.444  12.106
 9174W        W74401  26.554  20.238   1.333
 9175W        W74402  14.376  16.359  10.767
 9176W        W74403  26.521   8.836   0.844
 9177W        W74404  17.837  40.894  14.410
 9178W        W74405  39.934  24.195   4.387
 9179W        W74406  12.827   5.663   2.676
 9180W        W74407  34.217  25.930   4.935
 9181W        W74408  31.958  32.560   4.968
 9182W        W74409   3.994   4.736   3.678
 9183W        W74410   3.938  19.076   3.743
 9184W        W74411   1.368  36.535  11.649
 9185W        W74412  43.004   8.301  11.330
 9186W        W74413  37.122  29.063   2.047
 9187W        W74414   0.795  16.041  13.024
 9188W        W74415  10.377  36.279   3.664
 9189W        W74416  31.891  25.014   0.777
 9190W        W74417  25.261  25.700  11.365
 9191W        W74418  38.658   5.610  13.754
 9192W        W74419  44.305   8.644   0.413
 9193W        W74420  16.123  20.817   3.575
 9194W        W74421  44.410   7.930   2.177
 9195W        W74422   5.218  12.258  10.621
 9196W        W74423  36.604  16.732   0.515
 9197W        W74424  28.905  33.145   3.712
 9198W        W74425   8.929  12.111  10.165
 9199W        W74426  10.733  28.926  11.516
 9200W        W74427  38.272  32.535  12.561
 9201W        W74428   5.307  22.709   3.734
 9202W        W74429  33.851   5.164  13.893
 9203W        W74430  29.000  22.274  14.179
 9204W        W74431  27.025  29.172   1.431
 9205W        W74432  28.002  41.724   1.861
 9206W        W74433  38.269  36.148   4.043
 9207W        W74434   4.086  35.962  12.424
 9208W        W74435   3.834  25.587   1.317
 9209W        W74436   4.167  18.394  11.769
 9210W        W74437  14.372  36.671  12.477
 9211W        W74438  29.444  41.020  10.727
 9212W        W74439   2.490  31.962   4.979
 9213W        W74440   4.330   8.392   2.091
 9214W        W74441  18.367   5.875   1.416
 9215W        W74442  42.930  39.297  13.200
 9216W        W74443  34.502  24.702   4.135
 9217W        W74444   8.910  10.727   2.301
 9218W        W74445   9.940  41.446  11.380
 9219W        W74446  34.069   3.832   4.752
 9220W        W74447  26.142  31.123   3.365
 9221W        W74448  42.383  23.218   0.664
 9222W        W74449   0.320  43.781  12.987
 9223W        W74450  33.529  24.707   4.745
 9224W        W74451  31.112   8.234   1.506
 9225W        W74452  13.414  36.745   2.659
 9226W        W74453  41.045  43.432  11.756
 9227W        W74454  27.643  32.375  10.671
 9228W        W74455  41.971  32.603  10.659
 9229W        W74456  41.481  15.562   1.318
 9230W        W74457  24.635  33.821  12.022
 9231W        W74458  44.884  24.528   1.813
 9232W        W74459  38.373   1.772   1.957
 9233W        W74460  13.776   5.700   1.776
 9234W        W74461  16.738   1.743   0.518
 9235W        W74462  25.140   6.474   4.073
 9236W        W74463   9.800   4.731  11.570
 9237W        W74464   7.357   7.119   3.714
 9238W        W74465  14.155  30.039  13.892
 9239W        W74466  18.282   4.189  13.766
 9240W        W74467  21.156   1.837  12.899
 9241W        W74468  26.375  25.063  12.631
 9242W        W74469  24.214  13.895   4.691
 9243W        W74470  37.777  14.268   0.971
 9244W        W74471  13.152  38.982   1.177
 9245W        W74472  21.443  38.977   0.751
 9246W        W74473  11.676  43.097   4.649
 9247W        W74474  39.861   7.905   4.288
 9248W        W74475  30.857   4.801  10.292
 9249W        W74476   2.422  42.745  11.365
 9250W        W74477  30.267  41.076   0.053
 9251W        W74478  29.433   8.759  11.308
 9252W        W74479  14.111  14.714   5.137
 9253W        W74480  36.804  32.710  14.825
 9254W        W74481  33.272  14.701   3.696
 9255W        W74482  29.278  29.225   0.113
 9256W        W74483  42.259  19.617  11.770
 9257W        W74484  24.564  16.799   0.487
 9258W        W74485  29.135  10.111   0.295
 9259W        W74486  15.578   7.954  14.515
 9260W        W74487  43.558   8.798  13.965
 9261W        W74488   8.370   9.367   4.246
 9262W        W74489  32.670  19.156   0.576
 9263W        W74490  30.194  20.319   0.401
 9264W        W74491  23.521  30.201  11.604
 9265W        W74492  28.018  26.727  12.584
 9266W        W74493  32.218  16.103   4.174
 9267W        W74494   6.339  28.103  14.042
 9268W        W74495  18.368  27.727   2.876
 9269W        W74496  39.315  34.371  11.190
 9270W        W74497  22.136  42.313  12.277
 9271W        W74498  22.738  43.232   1.260
 9272W        W74499  26.189  17.499  11.062
 9273W        W74500  25.884  10.246   3.676
 9274W        W74501  37.563  25.616   4.965
 9275W        W74502   5.904  33.863  13.499
 9276W        W74503   1.287   2.954   1.006
 9277W        W74504  35.391  43.544   2.249
 9278W        W74505  26.656   4.240   2.259
 9279W        W74506  38.855   0.206   1.272
 9280W        W74507  38.834  33.743   4.732
 9281W        W74508  12.842  16.564   4.683
 9282W        W74509   4.856  15.250  14.521
 9283W        W74510  40.831  43.896  13.315
 9284W        W74511  24.969   1.249   3.118
 9285W        W74512  16.592  16.765  14.400
 9286W        W74513  14.469  43.888  14.479
 9287W        W74514  23.555   2.172  13.398
 9288W        W74515  23.755  34.491   4.040
 9289W        W74516   9.833  15.437   3.410
 9290W        W74517  44.841  13.200   0.265
 9291W        W74518   6.186  33.833   0.269
 9292W        W74519   2.740  37.385  14.955
 9293W        W74520   6.431  31.349   2.307
 9294W        W74521  37.863  29.992   1.476
 9295W        W74522  22.211  40.313   0.535
 9296W        W74523  38.539  18.742  14.527
 9297W        W74524  23.096  23.115   4.300
 9298W        W74525  21.220  23.176   3.686
 9299W        W74526  22.513  30.977   4.713
 9300W        W74527  15.878   4.934  14.476
 9301W        W74528  37.947  17.511  10.644
 9302W        W74529   3.916  23.681   2.111
 9303W        W74530   6.012  34.575   4.525
 9304W        W74531  39.428  38.329  14.970
 9305W        W74532   1.558  34.916   4.179
 9306W        W74533  16.198  40.943   1.482
 9307W        W74534  10.443  35.549   0.212
 9308W        W74535  34.360  31.367  11.651
 9309W        W74536  14.702  40.482  10.869
 9310W        W74537  10.141  31.381   3.107
 9311W        W74538   0.514  37.338  10.718
 9312W        W74539  23.360  28.651  14.378
 9313W        W74540  34.984   0.353   1.813
 9314W        W74541  40.713  17.649  13.003
 9315W        W74542  28.962  34.442   4.678
 9316W        W74543  23.927   6.435  12.478
 9317W        W74544  40.081  34.254  12.483
 9318W        W74545  20.485  29.235  11.363
 9319W        W74546   8.659  30.179  11.135
 9320W        W74547  26.706  38.109   1.892
 9321W        W74548   8.608  29.538  13.090
 9322W        W74549   8.342  43.915  14.772
 9323W        W74550  43.614  16.797  14.895
 9324W        W74551  17.263  23.323   0.479
 9325W        W74552  35.333  25.602   4.117
 9326W        W74553  17.356  16.937   5.206
 9327W        W74554   0.051  35.697  11.293
 9328W        W74555  30.986  34.528   0.720
 9329W        W74556   4.478  13.524   0.911
 9330W        W74557   6.390  19.166  10.718
 9331W        W74558  14.286  43.508  12.498
 9332W        W74559  36.013  28.587   4.691
 9333W        W74560  22.334  30.320   5.208
 9334W        W74561  36.434  20.114   2.399
 9335W        W74562  12.369   9.660   3.229
 9336W        W74563  40.500  17.282   3.298
 9337W        W74564  32.340  40.677  12.534
 9338W        W74565  27.999  33.355  13.668
 9339W        W74566  10.375  13.564   3.710
 9340W        W74567   2.192  40.450   0.994
 9341W        W74568  13.755  15.971  12.917
 9342W        W74569  19.993  32.064  12.570
 9343W        W74570  25.106  10.133  12.366
 9344W        W74571  11.644  37.557  11.514
 9345W        W74572   6.748  27.233   2.416
 9346W        W74573  27.016  27.606   3.334
 9347W        W74574  41.405  20.577  12.951
 9348W        W74575   9.166  16.200  13.492
 9349W        W74576   4.021  26.366   2.172
 9350W        W74577  25.557  19.018   3.214
 9351W        W74578  41.208  40.464  13.419
 9352W        W74579  22.688  35.151  12.088
 9353W        W74580  42.459   9.696  13.848
 9354W        W74581  42.209  24.285   3.307
 9355W        W74582  30.234   4.932  11.250
 9356W        W74583  34.115  20.638   2.333
 9357W        W74584  33.552   8.737  13.722
 9358W        W74585  37.273  18.744   0.493
 9359W        W74586  16.580   0.722   0.210
 9360W        W74587  39.441  40.584   2.597
 9361W        W74588  30.025  34.975   4.422
 9362W        W74589   3.322  37.963  14.508
 9363W        W74590  13.259   6.786   2.133
 9364W        W74591   0.114  27.798  10.799
 9365W        W74592  35.391  31.843  10.746
 9366W        W74593  29.642  16.779  11.627
 9367W        W74594  11.129  21.177   1.489
 9368W        W74595  41.025  42.370   0.289
 9369W        W74596   1.161  11.471   2.747
 9370W        W74597  27.566  32.620   0.561
 9371W        W74598  18.041  25.624   4.466
 9372W        W74599  21.100  26.761   2.321
 9373W        W74600   1.835  18.952   3.254
 9374W        W74601  42.054  31.427   1.413
 9375W        W74602  40.599  32.058  11.077
 9376W        W74603  13.151  37.531  11.210
 9377W        W74604  12.175  42.962   2.408
 9378W        W74605  24.452  33.886  11.088
 9379W        W74606  24.212  10.600  14.224
 9380W        W74607   1.437  41.086  12.408
 9381W        W74608  10.152  17.963  13.801
 9382W        W74609   6.828  39.258   0.460
 9383W        W74610  39.507  38.600   3.742
 9384W        W74611  33.682  40.831  14.823
 9385W        W74612  41.397   7.790  14.480
 9386W        W74613  42.086  16.090   1.051
 9387W        W74614   2.394   8.237   1.398
 9388W        W74615  23.514  40.781   2.776
 9389W        W74616  36.772  14.953   1.364
 9390W        W74617   3.574  44.500   2.820
 9391W        W74618   8.086  11.562  11.697
 9392W        W74619  31.691   8.217  13.215
 9393W        W74620   6.604   0.257   3.698
 9394W        W74621  33.659  39.969  12.716
 9395W        W74622  42.493  23.639  11.130
 9396W        W74623  39.558  32.584   0.314
 9397W        W74624   9.243  10.114   0.769
 9398W        W74625  34.857   8.429   0.838
 9399W        W74626  41.839   7.035   2.280
 9400W        W74627  29.502   4.007  14.820
 9401W        W74628  31.546  39.459   0.830
 9402W        W74629  41.415  16.769   0.084
 9403W        W74630  26.854  41.938  11.172
 9404W        W74631  19.308  34.507   2.720
 9405W        W74632  29.604  31.228   1.075
 9406W        W74633   4.750  37.422   2.184
 9407W        W74634  10.714  43.603   1.184
 9408W        W74635  16.015  33.571   0.700
 9409W        W74636   2.397  18.233   4.527
 9410W        W74637   7.721  40.855  12.527
 9411W        W74638  31.472  42.461   4.502
 9412W        W74639  22.482  24.134  13.551
 9413W        W74640  20.612   2.773  11.971
 9414W        W74641  14.254  26.284  14.348
 9415W        W74642   5.467  28.116  11.579
 9416W        W74643  21.561  30.051  13.258
 9417W        W74644  18.149   2.637   3.201
 9418W        W74645  24.294   3.718   4.715
 9419W        W74646   0.301  11.392  14.407
 9420W        W74647   5.777  34.401   2.602
 9421W        W74648  13.932  20.719   1.454
 9422W        W74649  13.297   7.353  10.595
 9423W        W74650  44.953  35.327   1.656
 9424W        W74651  42.209   9.074  11.084
 9425W        W74652   7.797  28.585  13.339
 9426W        W74653  20.243  35.561   3.728
 9427W        W74654   0.719  40.857   0.276
 9428W        W74655  10.570  23.164  14.428
 9429W        W74656  24.358  11.204  11.235
 9430W        W74657   8.147  29.426   2.199
 9431W        W74658  12.602  30.008   4.614
 9432W        W74659   6.025  39.496  11.070
 9433W        W74660  38.151  29.903  13.620
 9434W        W74661  12.218  37.466  14.144
 9435W        W74662   1.627  23.607   2.217
 9436W        W74663  18.223  37.410  13.962
 9437W        W74664   3.673  13.147   2.856
 9438W        W74665  22.236  11.373   4.228
 9439W        W74666  29.193   4.727   0.598
 9440W        W74667  14.328   1.341  13.015
 9441W        W74668  20.446  37.071   0.213
 9442W        W74669  22.797  12.467   2.362
 9443W        W74670   5.300  40.543   4.475
 9444W        W74671  41.007  28.017   0.311
 9445W        W74672  20.762  35.827  12.575
 9446W        W74673  40.316  31.903   0.087
 9447W        W74674  28.078  38.008  14.672
 9448W        W74675  23.324  28.510   4.042
 9449W        W74676   9.317   9.944   2.134
 9450W        W74677  24.899  35.656   3.260
 9451W        W74678  36.598   1.734  11.070
 9452W        W74679  22.582  39.681  14.074
 9453W        W74680  43.282  29.867  13.227
 9454W        W74681  25.014  16.215  12.476
 9455W        W74682  17.223  20.985  13.972
 9456W        W74683  29.533  39.675   4.597
 9457W        W74684  16.670   2.335  11.925
 9458W        W74685  11.323   1.864  12.423
 9459W        W74686   6.823  30.044   0.347
 9460W        W74687  27.245  18.607   2.777
 9461W        W74688  19.931  31.674   2.538
 9462W        W74689  22.274  38.373   2.191
 9463W        W74690  17.032  14.225   4.597
 9464W        W74691  23.185   9.943   0.818
 9465W        W74692   4.004  35.046   4.193
 9466W        W74693  40.762  33.948  12.968
 9467W        W74694  38.459  38.301   1.800
 9468W        W74695  11.913  11.624   2.171
 9469W        W74696  40.410  14.683   4.462
 9470W        W74697  20.478  41.229   2.266
 9471W        W74698  35.577  40.528   2.581
 9472W        W74699   8.364   8.874   1.314
 9473W        W74700  31.499  21.589   4.162
 9474W        W74701  36.865  11.676   3.282
 9475W        W74702  25.543  31.230  13.002
 9476W        W74703   9.865  34.433  11.185
 9477W        W74704  15.801  22.938   1.865
 9478W        W74705  28.661  17.139  10.749
 9479W        W74706  13.384  16.775  10.235
 9480W        W74707  23.197  23.693  13.514
 9481W        W74708  36.082  10.278   1.365
 9482W        W74709  27.660  14.658   3.112
 9483W        W74710   5.650  14.511   0.810
 9484W        W74711  26.178  19.848  14.996
 9485W        W74712   5.413  28.185   0.705
 9486W        W74713   1.054   8.821  12.803
 9487W        W74714  34.110  44.885  10.787
 9488W        W74715  24.037   3.887   3.935
 9489W        W74716  11.098  25.307   3.680
 9490W        W74717  27.753  12.386  14.420
 9491W        W74718   0.901  36.916  13.796
 9492W        W74719  15.507  32.306   0.949
 9493W        W74720  21.000  44.952  14.852
 9494W        W74721  38.948  34.790   1.303
 9495W        W74722  14.740   8.738   3.733
 9496W        W74723   7.849  33.624   4.206
 9497W        W74724  43.293   7.252   0.477
 9498W        W74725   6.337  43.863   5.480
 9499W        W74726  32.948  42.875  12.118
 9500W        W74727  23.462  37.566  12.800
 9501W        W74728  43.965  35.092  12.674
 9502W        W74729   1.958  28.213  11.439
 9503W        W74730  43.370  43.369   0.819
 9504W        W74731  28.555  14.501   5.474
 9505W        W74732   9.399  20.973  12.424
 9506W        W74733  15.403  21.247   2.363
 9507W        W74734  11.493  11.739  13.910
 9508W        W74735  17.528  42.777   0.828
 9509W        W74736  44.387   4.789   3.719
 9510W        W74737  38.912  20.791  10.445
 9511W        W74738  36.998  10.432  13.243
 9512W        W74739  44.973   3.643   3.356
 9513W        W74740  24.707  26.732   3.840
 9514W        W74741  21.869  16.820   3.217
 9515W        W74742  31.486  23.212  14.024
 9516W        W74743  11.119  38.067  13.720
 9517W        W74744  14.325  24.275  10.686
 9518W        W74745  21.580  39.853   0.978
 9519W        W74746  40.045  30.911   4.610
 9520W        W74747  36.826   2.447   3.139
 9521W        W74748  39.452  23.288   1.923
 9522W        W74749   1.252  22.710   0.684
 9523W        W74750   9.754   5.012   1.433
 9524W        W74751   2.280  37.403  13.646
 9525W        W74752  15.506  17.654   4.134
 9526W        W74753  37.128   4.464  10.702
 9527W        W74754  20.357  24.088  10.693
 9528W        W74755  31.883  17.558   1.426
 9529W        W74756  34.028   4.523   2.721
 9530W        W74757  30.595   6.339   4.972
 9531W        W74758  30.419  24.527   3.719
 9532W        W74759  39.456  24.705  12.010
 9533W        W74760  19.289   4.461   2.196
 9534W        W74761  36.072  30.548  10.342
 9535W        W74762   6.388   4.786  11.464
 9536W        W74763  35.289  30.246  11.663
 9537W        W74764  22.617  35.712   1.123
 9538W        W74765  41.026  23.751  11.931
 9539W        W74766  20.930   6.395   0.145
 9540W        W74767  28.967  43.364  13.311
 9541W        W74768  25.946   1.140  13.135
 9542W        W74769  15.150  21.196  13.952
 9543W        W74770   8.776   7.104   3.745
 9544W        W74771   0.680  20.742  12.119
 9545W        W74772  20.010  24.309   1.046
 9546W        W74773   4.301  17.776   1.124
 9547W        W74774   0.789  39.979   2.225
 9548W        W74775  19.789  15.311   2.694
 9549W        W74776  11.714  41.233   0.650
 9550W        W74777   2.907  26.110  13.511
 9551W        W74778  33.513   0.329  10.557
 9552W        W74779   8.463  29.273  13.551
 9553W        W74780   9.190  36.120   3.112
 9554W        W74781  19.329  43.275  12.480
 9555W        W74782  38.438   9.957  13.356
 9556W        W74783  41.526  28.546   0.816
 9557W        W74784  44.858  33.166   1.471
 9558W        W74785   9.726  25.819   4.796
 9559W        W74786  26.406  33.989   4.176
 9560W        W74787  35.391  17.636  14.977
 9561W        W74788  17.067  18.508  14.325
 9562W        W74789  13.104  28.140  14.801
 9563W        W74790  19.683  32.768   0.955
 9564W        W74791  34.489  41.360   4.116
 9565W        W74792  31.271  39.082  11.178
 9566W        W74793  27.804  35.203  13.395
 9567W        W74794   9.965  20.520   0.326
 9568W        W74795  33.653   6.901  12.096
 9569W        W74796  16.043  11.694   3.401
 9570W        W74797  41.269  41.335   2.187
 9571W        W74798  29.412  12.123   0.303
 9572W        W74799  18.094  24.112   1.065
 9573W        W74800  15.499   2.850  11.723
 9574W        W74801  20.062  21.913  12.981
 9575W        W74802   5.514  40.912   3.674
 9576W        W74803   1.391  17.039  14.991
 9577W        W74804  42.643  38.800  11.177
 9578W        W74805  31.571  13.388  13.977
 9579W        W74806  17.255   4.592   3.971
 9580W        W74807   6.280  36.546  12.113
 9581W        W74808  43.263   3.711  12.682
 9582W        W74809  27.632  11.647   2.279
 9583W        W74810   8.060   1.604  11.768
 9584W        W74811  14.360   1.789   1.188
 9585W        W74812  42.442  15.488  13.012
 9586W        W74813  15.172  24.169  10.858
 9587W        W74814  42.204  22.763   4.100
 9588W        W74815  10.208  43.740   4.171
 9589W        W74816  21.654  20.904   2.808
 9590W        W74817  40.022  12.222  11.649
 9591W        W74818  43.634  27.496   5.604
 9592W        W74819   7.602   5.988   3.306
 9593W        W74820  28.961  26.073   1.018
 9594W        W74821  13.673  28.927  13.331
 9595W        W74822   3.424  21.159   4.510
 9596W        W74823  26.935  34.750  11.674
 9597W        W74824  15.626  22.700  11.652
 9598W        W74825  16.911  20.000  13.853
 9599W        W74826  10.611  44.369  12.115
 9600W        W74827  31.141   5.856   1.463
 9601W        W74828   1.318   0.506   0.061
 9602W        W74829   4.464   4.312   0.170
 9603W        W74830  14.574   5.579  13.479
 9604W        W74831  40.535  40.419  12.552
 9605W        W74832  19.345  20.830   4.554
 9606W        W74833  22.021  29.112   2.762
 9607W        W74834  16.398  44.449  11.115
 9608W        W74835  30.722  14.839  10.887
 9609W        W74836  26.271  10.915   0.990
 9610W        W74837  15.155  14.505  14.910
 9611W        W74838  31.012  33.272  10.673
 9612W        W74839  10.140  39.585  13.961
 9613W        W74840   5.343  25.684   9.686
 9614W        W74841  22.604  14.101  14.781
 9615W        W74842   9.524  25.752   2.059
 9616W        W74843   0.374   0.086  11.081
 9617W        W74844   7.003   3.893   3.141
 9618W        W74845   2.887  33.454   4.950
 9619W        W74846  10.404  11.778   1.037
 9620W        W74847  20.923  39.461  11.733
 9621W        W74848  26.130  35.263  11.232
 9622W        W74849  38.406  23.963  11.514
 9623W        W74850  11.638   8.562  12.135
 9624W        W74851  43.020  35.054   4.675
 9625W        W74852   6.892  21.296  11.184
 9626W        W74853  31.522  38.370   3.667
 9627W        W74854  34.617  35.112   2.396
 9628W        W74855  42.225  33.568   0.248
 9629W        W74856  39.691   7.360  10.753
 9630W        W74857  29.692  40.969   2.382
 9631W        W74858  16.971  28.427   3.076
 9632W        W74859  19.127  36.598  13.336
 9633W        W74860  13.106   6.732  12.447
 9634W        W74861  37.343  29.525   1.860
 9635W        W74862   9.062   2.222   1.744
 9636W        W74863  43.516  35.912  12.106
 9637W        W74864   3.441  12.214  12.095
 9638W        W74865  21.452  43.901   2.396
 9639W        W74866   9.634  43.753  14.499
 9640W        W74867  12.097  11.128  10.548
 9641W        W74868  18.651  41.089   4.238
 9642W        W74869  31.316  41.216   4.035
 9643W        W74870  28.255   7.996  11.480
 9644W        W74871  19.839   2.245  14.381
 9645W        W74872  29.944  32.438   4.586
 9646W        W74873  17.362  29.472  13.816
 9647W        W74874  16.218  22.730  10.195
 9648W        W74875  10.698  14.036   3.231
 9649W        W74876  30.640  11.395  10.245
 9650W        W74877  42.480  15.194   0.700
 9651W        W74878  34.388  38.543   0.344
 9652W        W74879  29.178  16.400   2.744
 9653W        W74880   8.602  17.747   2.827
 9654W        W74881  25.200  12.376   4.795
 9655W        W74882  15.227   0.428   0.882
 9656W        W74883  29.780  15.036   4.574
 9657W        W74884  34.546  24.751   2.101
 9658W        W74885  16.234  39.803  10.667
 9659W        W74886  19.662  32.268  14.415
 9660W        W74887  39.780  10.218  14.434
 9661W        W74888  26.979  15.303   4.009
 9662W        W74889  17.131  16.595  11.530
 9663W        W74890  36.520   8.878  14.513
 9664W        W74891  38.558  26.189  10.922
 9665W        W74892  41.239  36.769  11.602
 9666W        W74893  39.570  41.869  13.881
 9667W        W74894  37.974  42.321   4.917
 9668W        W74895  23.986  40.377   2.304
 9669W        W74896  29.053  12.663  14.473
 9670W        W74897   6.217  20.396  10.782
 9671W        W74898  22.538  38.427   4.180
 9672W        W74899  13.009   4.107  11.897
 9673W        W74900   8.671  37.152   0.214
 9674W        W74901   4.018   5.779   3.192
 9675W        W74902  34.177  35.781   4.246
 9676W        W74903  41.694   5.263  11.628
 9677W        W74904  25.727  13.173  14.012
 9678W        W74905  41.585  12.867   4.171
 9679W        W74906   8.446  26.634  12.086
 9680W        W74907  33.930   9.324   4.482
 9681W        W74908  35.019  37.803   0.638
 9682W        W74909  41.288  22.712   2.783
 9683W        W74910   0.876  23.304   9.782
 9684W        W74911   6.552  29.136  10.823
 9685W        W74912  32.898  26.065  10.100
 9686W        W74913  32.458  23.455   3.986
 9687W        W74914   8.849  34.124   0.409
 9688W        W74915  40.427  28.966  14.921
 9689W        W74916  17.464  41.394  13.364
 9690W        W74917  20.330  31.936  13.553
 9691W        W74918  15.371  37.921  14.236
 9692W        W74919   9.850  27.219   1.683
 9693W        W74920  20.309  12.442   4.506
 9694W        W74921   9.599  42.024   0.430
 9695W        W74922  42.057  44.939  14.266
 9696W        W74923  35.427   4.008   4.261
 9697W        W74924  32.274  22.551   0.512
 9698W        W74925  18.173  22.081   1.398
 9699W        W74926  27.752  33.536   1.785
 9700W        W74927  10.170   2.491   4.199
 9701W        W74928  43.753  23.349  13.041
 9702W        W74929   7.835  44.371   1.517
 9703W        W74930  33.878  26.458   2.379
 9704W        W74931  15.322  32.622   2.352
 9705W        W74932   4.273  44.303  14.362
 9706W        W74933   5.754  31.614   2.767
 9707W        W74934   2.378  16.546   2.299
 9708W        W74935   4.862  17.508   4.182
 9709W        W74936  43.808  29.540   0.759
 9710W        W74937  33.555  30.390  12.619
 9711W        W74938  11.396  43.946  14.728
 9712W        W74939  41.817   5.123   1.981
 9713W        W74940  36.906   8.754  12.960
 9714W        W74941  18.612  36.531  11.188
 9715W        W74942  27.518  27.925  10.314
 9716W        W74943  18.319  44.401   4.115
 9717W        W74944  40.094  41.414   4.558
 9718W        W74945   4.760  33.457   0.937
 9719W        W74946  27.304  12.928   3.355
 9720W        W74947  41.846  13.790  10.683
 9721W        W74948  34.057  33.418  12.809
 9722W        W74949  34.539  29.853  13.524
 9723W        W74950  37.029  23.153   4.756
 9724W        W74951  12.577  34.977  10.299
 9725W        W74952  26.090   9.884   2.678
 9726W        W74953  37.513  17.235  12.476
 9727W        W74954  30.985   1.883   3.254
 9728W        W74955  31.410  32.961   0.386
 9729W        W74956  24.647   6.818  11.654
 9730W        W74957  27.180   4.041   1.758
 9731W        W74958   0.455  15.676  10.452
 9732W        W74959   9.967  42.275   0.697
 9733W        W74960   8.971  38.789   1.867
 9734W        W74961   7.551  31.507  12.370
 9735W        W74962  22.979  31.396  12.045
 9736W        W74963  18.279  29.950   3.727
 9737W        W74964  30.201  14.281   4.791
 9738W        W74965  16.352  43.783   4.246
 9739W        W74966  29.090  40.446   1.453
 9740W        W74967  15.613  42.058   0.762
 9741W        W74968  20.662   8.762  12.033
 9742W        W74969  35.068  10.865  12.794
 9743W        W74970  26.043   0.122  13.006
 9744W        W74971  31.459  21.181   0.342
 9745W        W74972   3.756  25.454  11.083
 9746W        W74973  35.103  27.970   3.111
 9747W        W74974  39.323   8.303   2.613
 9748W        W74975  10.285  21.431  12.291
 9749W        W74976  25.784  27.112   3.248
 9750W        W74977   0.349   8.251   0.422
 9751W        W74978  32.895  44.378  14.798
 9752W        W74979  20.020   7.917   2.664
 9753W        W74980  27.217  24.540   0.374
 9754W        W74981  29.089   7.712  12.469
 9755W        W74982  21.111  12.127   4.249
 9756W        W74983  34.115   6.454  14.322
 9757W        W74984  19.992  36.578   0.260
 9758W        W74985  25.841  23.806   3.740
 9759W        W74986  25.016  34.841   3.821
 9760W        W74987  10.578  37.973  11.626
 9761W        W74988   6.782  36.195   0.493
 9762W        W74989  41.976  25.428  14.343
 9763W        W74990  25.525  31.315  10.519
 9764W        W74991  12.299  31.445   9.795
 9765W        W74992  40.364  17.083   1.500
 9766W        W74993  42.572  40.386   4.224
 9767W        W74994  41.098   8.264   2.793
 9768W        W74995  12.238  27.024  12.493
 9769W        W74996  13.106   2.702   0.293
 9770W        W74997  32.428  31.547  14.010
 9771W        W74998  42.335   5.696   2.313
 9772W        W74999  15.865  31.494  14.753
 9773W        W75000  17.501  21.559  10.540
 9774W        W75001  32.140  21.264  12.028
 9775W        W75002  38.567  17.335   0.888
 9776W        W75003  44.049  14.243   1.885
 9777W        W75004   3.187   1.330   4.920
 9778W        W75005  24.292  39.933  13.885
 9779W        W75006  38.277  18.797  12.708
 9780W        W75007   2.584  16.230   4.224
 9781W        W75008  33.522  13.933  10.202
 9782W        W75009  26.055  44.597  11.218
 9783W        W75010  11.616   0.449   1.852
 9784W        W75011  43.282  16.366  11.156
 9785W        W75012  12.105  11.737  14.287
 9786W        W75013  33.709   0.280  13.392
 9787W        W75014   0.411  43.450  12.074
 9788W        W75015  28.418  29.980  11.598
 9789W        W75016   0.332  26.730  13.629
 9790W        W75017  29.173  19.573  10.596
 9791W        W75018   1.794  44.513   2.610
 9792W        W75019  11.177  27.947   4.049
 9793W        W75020   8.724   6.783   2.769
 9794W        W75021  22.993  29.124  11.399
 9795W        W75022  22.999   4.985  14.481
 9796W        W75023   9.778  11.591  14.816
 9797W        W75024   6.975  14.428  13.930
 9798W        W75025   9.525  27.955  13.853
 9799W        W75026   0.893  29.073  12.847
 9800W        W75027  10.745  41.238  13.144
 9801W        W75028   3.613   4.617   1.401
 9802W        W75029   0.831  15.967   3.812
 9803W        W75030  13.097  27.111  10.726
 9804W        W75031  37.789  35.380  13.455
 9805W        W75032   2.832  42.269  10.280
 9806W        W75033  26.998   1.800  14.665
 9807W        W75034  20.665   7.162  12.401
 9808W        W75035  43.052  31.506   1.402
 9809W        W75036   3.408  10.681   4.038
 9810W        W75037  18.732  29.120   1.450
 9811W        W75038  17.192  15.631  11.649
 9812W        W75039  16.288   0.336  14.966
 9813W        W75040  40.463  39.167   5.267
 9814W        W75041  27.096  15.435   1.311
 9815W        W75042  38.699   3.763   4.427
 9816W        W75043  22.840  36.627  13.435
 9817W        W75044  24.612  42.535   3.063
 9818W        W75045  35.957  42.460  14.271
 9819W        W75046  14.692  17.610  14.737
 9820W        W75047  37.634   0.385  11.127
 9821W        W75048  18.338  25.971   4.231
 9822W        W75049   7.115  21.961  13.922
 9823W        W75050  40.935  20.622   2.166
 9824W        W75051  43.736  16.633  11.236
 9825W        W75052  29.126  32.343   4.106
 9826W        W75053  44.174  16.423   4.568
 9827W        W75054  10.850  20.803   2.375
 9828W        W75055   5.199   7.373   0.897
 9829W        W75056  37.581   5.722  14.502
 9830W        W75057   0.830  30.704  13.772
 9831W        W75058  23.714  36.447   3.102
 9832W        W75059  19.345   8.894   1.837
 9833W        W75060  11.805  20.297   2.305
 9834W        W75061   9.152   9.633  11.562
 9835W        W75062   3.721  23.424   4.246
 9836W        W75063  17.303   7.271   0.933
 9837W        W75064  22.941  13.305  11.145
 9838W        W75065  13.330  20.641   3.576
 9839W        W75066   5.239  23.228   1.980
 9840W        W75067   9.147  20.206  12.922
 9841W        W75068  26.956   7.273   3.647
 9842W        W75069   4.286  29.561  10.537
 9843W        W75070  25.562   3.222   3.116
 9844W        W75071   2.505   1.621   2.793
 9845W        W75072  26.207  14.952   4.159
 9846W        W75073  26.677  33.276  14.503
 9847W        W75074  35.840  32.552   1.742
 9848W        W75075  43.557  23.234   3.191
 9849W        W75076  18.027  34.563  13.004
 9850W        W75077   7.255  37.426  12.006
 9851W        W75078  17.868   5.231  12.470
 9852W        W75079  17.244   2.911  13.926
 9853W        W75080  17.274  21.615  13.056
 9854W        W75081  16.734  14.930   2.523
 9855W        W75082  22.654  17.103   1.027
 9856W        W75083  25.920  35.110  12.176
 9857W        W75084  10.616  41.493   1.274
 9858W        W75085  40.604  30.264   2.220
 9859W        W75086   9.298  24.054  13.953
 9860W        W75087   9.239   7.824  10.539
 9861W        W75088  10.279  23.755  11.738
 9862W        W75089  38.339  18.651   0.977
 9863W        W75090  20.602  34.598   3.248
 9864W        W75091  21.265   7.996   1.283
 9865W        W75092   0.687  14.120   3.182
 9866W        W75093  15.451   0.422  14.403
 9867W        W75094   0.736  25.621  14.701
 9868W        W75095  21.989  36.560   4.577
 9869W        W75096   6.976   3.371   4.095
 9870W        W75097   9.316  30.103  14.346
 9871W        W75098  13.082  41.954   2.331
 9872W        W75099  35.455   7.873  11.878
 9873W        W75100  18.040  17.811   4.180
 9874W        W75101  15.008  22.300  13.164
 9875W        W75102   6.230  17.914   0.115
 9876W        W75103  24.341  18.606  12.892
 9877W        W75104  21.047  34.412   3.480
 9878W        W75105  26.553  18.993   0.778
 9879W        W75106  16.131  31.076   2.841
 9880W        W75107  14.829  32.632  14.028
 9881W        W75108   5.280  35.939  11.591
 9882W        W75109  30.596  27.174  14.341
 9883W        W75110  25.729   2.437  13.071
 9884W        W75111   3.254  11.193   4.073
 9885W        W75112  15.392   6.097  14.271
 9886W        W75113  29.670  44.982   0.742
 9887W        W75114   4.076  11.802   0.201
 9888W        W75115  27.464  16.773   2.800
 9889W        W75116  18.076  44.133   1.275
 9890W        W75117  39.086  44.743  12.496
 9891W        W75118  25.576  23.730   1.465
 9892W        W75119  40.346  40.905  14.272
 9893W        W75120  18.350  43.810   1.569
 9894W        W75121  41.379  26.944  13.285
 9895W        W75122  13.325  38.557   4.794
 9896W        W75123  22.517  33.671   1.068
 9897W        W75124   3.911  19.458  11.610
 9898W        W75125   2.058  12.043  12.721
 9899W        W75126  12.053  19.108   2.673
 9900W        W75127  35.057  23.267  14.554
 9901W        W75128   4.960  22.205  14.424
 9902W        W75129  28.423   3.787   1.246
 9903W        W75130  37.306  33.037  11.720
 9904W        W75131  19.699  10.355  12.024
 9905W        W75132  36.459   7.673  11.091
 9906W        W75133  14.203  37.452   3.136
 9907W        W75134   9.703  25.994   3.599
 9908W        W75135  42.355   1.337   4.126
 9909W        W75136  20.344   3.888   4.165
 9910W        W75137  44.298  41.044   1.333
 9911W        W75138  30.343  27.444   2.103
 9912W        W75139  29.642   3.031   2.917
 9913W        W75140   9.325  26.203   2.219
 9914W        W75141  41.607  36.311   4.123
 9915W        W75142   1.956  33.214   4.094
 9916W        W75143   4.835  23.309   3.243
 9917W        W75144  31.255  42.219  13.065
 9918W        W75145   5.165  13.865   3.630
 9919W        W75146  29.357   3.276  14.512
 9920W        W75147  14.818  43.190  14.854
 9921W        W75148  26.153  12.883  14.904
 9922W        W75149  19.633  23.597  14.979
 9923W        W75150  14.528  24.231   0.751
 9924W        W75151   8.149  27.541   2.530
 9925W        W75152  28.445  39.632   2.247
 9926W        W75153  17.212  32.783  14.009
 9927W        W75154   1.012  27.666  12.243
 9928W        W75155  33.505  32.683  11.635
 9929W        W75156   9.605  44.295  10.149
 9930W        W75157  26.483   0.934  10.513
 9931W        W75158   6.238  39.001  10.962
 9932W        W75159  26.186  24.212   0.749
 9933W        W75160  23.860  31.079  11.905
 9934W        W75161  31.671  12.292   0.709
 9935W        W75162  28.749  23.454   3.994
 9936W        W75163  40.682   0.238  13.540
 9937W        W75164   2.998  39.094  13.629
 9938W        W75165   3.794  38.060  14.266
 9939W        W75166  41.386   0.248   1.237
 9940W        W75167  42.509  28.277   3.028
 9941W        W75168   9.642  40.953   2.252
 9942W        W75169  43.480   2.684  10.781
 9943W        W75170   4.413   8.273   3.129
 9944W        W75171  41.362  10.899   4.735
 9945W        W75172   0.877  21.961   1.280
 9946W        W75173  34.949  25.249  10.742
 9947W        W75174  29.466  15.828   0.584
 9948W        W75175  36.374  25.429   3.734
 9949W        W75176   7.449  14.650  12.503
 9950W        W75177   7.174  18.207   2.694
 9951W        W75178  36.478  19.153   1.819
 9952W        W75179  25.587  19.095   2.219
 9953W        W75180  25.557   6.249   4.301
 9954W        W75181   2.948   0.231   0.205
 9955W        W75182   7.136  32.363   1.446
 9956W        W75183  22.225  18.168  11.945
 9957W        W75184  24.728  31.793   2.663
 9958W        W75185  33.428   9.648   3.843
 9959W        W75186  24.160  10.141   1.228
 9960W        W75187  10.684  27.693   4.568
 9961W        W75188  15.745  40.219   4.722
 9962W        W75189  28.699  41.524   3.838
 9963W        W75190  13.284  25.158  13.016
 9964W        W75191  44.182   0.075   4.104
 9965W        W75192  40.409  31.498  11.569
 9966W        W75193  32.174  23.775  13.917
 9967W        W75194  35.985  44.242   4.714
 9968W        W75195   6.850  17.857  11.555
 9969W        W75196   4.322  20.627  13.985
 9970W        W75197  17.157  37.994  13.303
 9971W        W75198  38.487  15.725  13.872
 9972W        W75199  43.391  15.261  13.119
 9973W        W75200  16.272  23.541  12.469
 9974W        W75201   9.612   3.209  11.584
 9975W        W75202  44.288  41.528   2.265
 9976W        W75203  10.490   4.319   2.287
 9977W        W75204  35.187  38.602  14.482
 9978W        W75205   7.992  23.779  12.912
 9979W        W75206  21.431  34.482  11.631
 9980W        W75207   7.783   2.060  12.584
 9981W        W75208  14.686  37.193  14.653
 9982W        W75209  19.738  30.594   1.269
 9983W        W75210  13.868  23.499  14.385
 9984W        W75211   0.073  23.680  12.577
 9985W        W75212  14.151  17.612   4.155
 9986W        W75213   7.940  42.915   2.842
 9987W        W75214  31.651  24.759   2.407
 9988W        W75215  20.125  16.798  11.818
 9989W        W75216  31.505  34.536  10.472
 9990W        W75217  29.046  10.779  14.303
 9991W        W75218  34.646  35.404   3.229
 9992W        W75219  10.475  15.984   3.656
 9993W        W75220  17.304  26.467  10.703
 9994W        W75221   9.706  36.446  13.094
 9995W        W75222  23.054   8.643   3.146
 9996W        W75223   9.548  23.235  10.864
 9997W        W75224  28.568  32.144   3.095
 9998W        W75225  31.680  21.635   2.059
 9999W        W75226  30.450  21.789  12.984
10000W        W75227  36.261  32.619  11.285
10001W        W75228   7.448  21.256   3.202
10002W        W75229  34.946  11.534  14.967
10003W        W75230  40.050  11.174   0.456
10004W        W75231  18.857  18.995   4.172
10005W        W75232   2.855  29.961  12.611
10006W        W75233   0.936   3.678  10.417
10007W        W75234  10.420  13.324   4.171
10008W        W75235  27.172  25.421   0.143
10009W        W75236  11.766  39.403   3.430
10010W        W75237  37.865  17.313  11.652
10011W        W75238  23.156  39.921   3.761
10012W        W75239  44.960  36.956  11.570
10013W        W75240  25.224  10.446   2.731
10014W        W75241   8.296  25.255  12.405
10015W        W75242  43.794  32.383  11.443
10016W        W75243  11.296  18.671   2.728
10017W        W75244   4.878  25.239  12.312
10018W        W75245   3.352   5.240   1.727
10019W        W75246  42.329  24.735  13.088
10020W        W75247  23.052  22.043  13.089
10021W        W75248  12.183  32.060   3.017
10022W        W75249  38.798  43.009  13.517
10023W        W75250   9.887  30.543   2.136
10024W        W75251  43.128  35.209  11.715
10025W        W75252  40.232  43.886   2.805
10026W        W75253  32.033  35.427  11.266
10027W        W75254  42.082  42.930  14.784
10028W        W75255  29.099  22.585   1.084
10029W        W75256  20.187  32.603  11.599
10030W        W75257   8.374   7.872  10.864
10031W        W75258  29.813  17.161   4.383
10032W        W75259  12.078  39.014   2.230
10033W        W75260  28.357  31.883   2.650
10034W        W75261  33.883   5.659  13.974
10035W        W75262  36.266  30.656  13.431
10036W        W75263  20.117  11.474   2.195
10037W        W75264   9.957  10.331  13.478
10038W        W75265  23.155  44.307   0.401
10039W        W75266  41.594  42.901   0.803
10040W        W75267   7.091  10.681  11.171
10041W        W75268  17.158   0.512  14.813
10042W        W75269   0.430  39.231   0.980
10043W        W75270  20.544  33.360  12.915
10044W        W75271  35.116   5.136   1.319
10045W        W75272   3.235  31.122   3.364
10046W        W75273   8.313  43.329  13.532
10047W        W75274  41.272   3.241   0.369
10048W        W75275   4.956  27.441  13.141
10049W        W75276  17.171  20.509   1.424
10050W        W75277  42.062   9.838  14.406
10051W        W75278  14.203  38.436  14.388
10052W        W75279  22.046  30.167  10.679
10053W        W75280   1.933  40.771   1.330
10054W        W75281  10.639   8.811  10.790
10055W        W75282  32.102  37.245  11.191
10056W        W75283  30.173  12.345  14.507
10057W        W75284   7.406  43.810   3.905
10058W        W75285  21.536  11.681  11.697
10059W        W75286   2.559   8.870   4.853
10060W        W75287  13.230   3.956   0.748
10061W        W75288  24.467  33.102   0.667
10062W        W75289  33.714  29.977   5.102
10063W        W75290  44.918   5.755  12.387
10064W        W75291   6.887  13.640   2.432
10065W        W75292  26.447  11.164  14.800
10066W        W75293   3.985  44.001   2.720
10067W        W75294  19.829  42.861   0.014
10068W        W75295  24.765  25.947   4.489
10069W        W75296  41.947  35.613   2.847
10070W        W75297   8.585  33.561   4.232
10071W        W75298  38.876  42.745   3.833
10072W        W75299  10.339  20.943  13.467
10073W        W75300  23.692   9.903   0.931
10074W        W75301  20.030  40.938   4.296
10075W        W75302   9.724   3.215   4.648
10076W        W75303  27.022  21.496   1.587
10077W        W75304  21.186  23.056  12.394
10078W        W75305   8.798  10.756  13.978
10079W        W75306  16.936   9.797  12.831
10080W        W75307  26.694  12.944  14.057
10081W        W75308  13.788  37.979   1.914
10082W        W75309  27.948  43.428  11.624
10083W        W75310  43.151   0.970  14.397
10084W        W75311  26.770  37.433   4.092
10085W        W75312  15.037  15.650   3.863
10086W        W75313  20.284  11.543   4.081
10087W        W75314   0.862  28.977   2.403
10088W        W75315   2.332   9.245  11.837
10089W        W75316  17.555  24.234   4.658
10090W        W75317   7.693  21.706   1.251
10091W        W75318   0.564  21.476  11.170
10092W        W75319   9.864  12.136   3.247
10093W        W75320  32.984   3.932  10.528
10094W        W75321   1.968  31.446   2.666
10095W        W75322  44.925  25.592  11.284
10096W        W75323  44.958  44.602  12.701
10097W        W75324  22.840  18.935  12.412
10098W        W75325  40.049  38.803  12.084
10099W        W75326   6.289   3.171  12.443
10100W        W75327  30.152  24.768  14.909
10101W        W75328  13.875  37.164  11.411
10102W        W75329   8.784  26.473  13.340
10103W        W75330  20.591   8.635   4.798
10104W        W75331  29.369  23.741  14.583
10105W        W75332  42.193   3.213  10.995
10106W        W75333  11.457  13.223  13.365
10107W        W75334   7.277  14.013  14.008
10108W        W75335  23.102  24.578   1.212
10109W        W75336  26.781  28.723  12.066
10110W        W75337   1.482  31.422   0.876
10111W        W75338  28.129  43.651  12.055
10112W        W75339  34.061   5.327  12.424
10113W        W75340   9.653  21.279  11.513
10114W        W75341   0.797  12.358   3.659
10115W        W75342  35.913  15.432  14.360
10116W        W75343   6.953   9.101   0.388
10117W        W75344  19.570  28.306  11.526
10118W        W75345  18.914  10.249   1.986
10119W        W75346  27.415  11.821  12.386
10120W        W75347  34.490   9.189  13.916
10121W        W75348   7.114  13.183   0.289
10122W        W75349  37.064  33.379   5.112
10123W        W75350  22.259  42.212   1.641
10124W        W75351  23.695  28.359  14.973
10125W        W75352  30.049  30.880  11.981
10126W        W75353   8.730   7.198  14.799
10127W        W75354  10.732   3.877   2.299
10128W        W75355  41.033  17.140  14.461
10129W        W75356  16.491  37.486   1.730
10130W        W75357  44.710  16.362  14.415
10131W        W75358  15.870  40.910  13.405
10132W        W75359  23.059  37.175   0.387
10133W        W75360  43.939  43.404  11.261
10134W        W75361  29.573   5.525  14.790
10135W        W75362  14.655  35.476   2.414
10136W        W75363  38.098  41.529   4.375
10137W        W75364  33.371  21.046   4.582
10138W        W75365   7.615  19.222   3.767
10139W        W75366  44.292   3.890   4.216
10140W        W75367  14.975  10.906   0.165
10141W        W75368  38.976  35.185   1.649
10142W        W75369  20.452  39.634  11.617
10143W        W75370  33.369   5.230   3.727
10144W        W75371  44.276  35.428   0.314
10145W        W75372  34.457  16.588   9.711
10146W        W75373  37.535   0.405  14.254
10147W        W75374   1.695   2.712  14.730
10148W        W75375  14.312  22.631   1.109
10149W        W75376  10.916   6.876  13.557
10150W        W75377   3.980  43.381  13.303
10151W        W75378  29.945  23.338   0.270
10152W        W75379  36.065  19.838   0.675
10153W        W75380   6.152  16.135  14.943
10154W        W75381  40.365  41.997  11.031
10155W        W75382  43.936  43.668   2.856
10156W        W75383  18.980  31.980  14.068
10157W        W75384  36.817   4.908  10.615
10158W        W75385  19.694  30.660   4.240
10159W        W75386  35.925  22.714  11.952
10160W        W75387   8.690  36.444  12.138
10161W        W75388  42.549  41.235   1.663
10162W        W75389  38.554  26.452   3.980
10163W        W75390  43.564  29.030   0.321
10164W        W75391   2.370   3.440   4.471
10165W        W75392  24.010  35.932   1.713
10166W        W75393  21.526   9.483  14.267
10167W        W75394  32.906  11.947  12.711
10168W        W75395  42.199  28.694  11.573
10169W        W75396  19.365  24.444  14.995
10170W        W75397  43.789  35.102   0.888
10171W        W75398  10.872  26.921   3.629
10172W        W75399   9.919  20.196   2.475
10173W        W75400  43.359  35.193   2.979
10174W        W75401  40.239  17.053  14.798
10175W        W75402  23.244  26.851   2.947
10176W        W75403  41.368  34.479  12.034
10177W        W75404  13.836   2.685  14.096
10178W        W75405  19.726  37.976   0.475
10179W        W75406  29.263   1.010  14.859
10180W        W75407  23.913  41.828   2.803
10181W        W75408  33.169  10.782  13.521
10182W        W75409  26.463  40.821  14.903
10183W        W75410  26.369  33.053   1.711
10184W        W75411   1.866  29.399  10.021
10185W        W75412   8.414  12.959   2.057
10186W        W75413   0.896  44.332  13.446
10187W        W75414  19.648  43.854  13.640
10188W        W75415  21.289  42.985  13.447
10189W        W75416  29.703  44.186  12.162
10190W        W75417  10.663  34.895   0.754
10191W        W75418  40.761  25.474  12.971
10192W        W75419  39.794   1.866   3.652
10193W        W75420  30.533   8.939   1.774
10194W        W75421  27.338   2.745   3.114
10195W        W75422  36.347  33.664   0.050
10196W        W75423  29.956   5.184  13.240
10197W        W75424   0.655  19.144  11.724
10198W        W75425  42.372  20.650  13.520
10199W        W75426  34.461  30.709  13.920
10200W        W75427  10.384  11.397  10.282
10201W        W75428  18.339  38.073   4.210
10202W        W75429  42.391  18.185  11.480
10203W        W75430  31.338  28.813  14.403
10204W        W75431  36.040  10.674   2.391
10205W        W75432  44.847  36.509  11.345
10206W        W75433  23.144  32.089   3.778
10207W        W75434  18.169  21.842  14.934
10208W        W75435  14.069  44.319  10.666
10209W        W75436  28.643  41.471  12.432
10210W        W75437  36.312  27.590   4.083
10211W        W75438  38.336   7.037  12.506
10212W        W75439  15.085  40.849  14.127
10213W        W75440  17.315  23.489   4.454
10214W        W75441  32.118  28.001  12.495
10215W        W75442  15.129  20.831   2.069
10216W        W75443  40.920   0.547  14.472
10217W        W75444  37.763  40.387  10.744
10218W        W75445  42.608   1.938  13.879
10219W        W75446   6.868  18.632   2.649
10220W        W75447  39.039   4.856  13.147
10221W        W75448  39.055  35.975   2.229
10222W        W75449  19.965  10.035  11.652
10223W        W75450   9.798  11.090   1.766
10224W        W75451  44.888  22.785  14.675
10225W        W75452   7.200  23.746   2.110
10226W        W75453   4.551  34.904   3.209
10227W        W75454  14.951  21.256   3.924
10228W        W75455  19.256  29.989  13.955
10229W        W75456   7.920  13.722   1.948
10230W        W75457  30.589  33.387  11.531
10231W        W75458   0.144  18.012   4.151
10232W        W75459  19.197  13.255   1.916
10233W        W75460   8.454  25.076   0.184
10234W        W75461  38.684  21.949  11.519
10235W        W75462  13.872  17.560  12.059
10236W        W75463  21.194  19.942   2.771
10237W        W75464  36.384  13.325  14.861
10238W        W75465   1.210  42.617  12.520
10239W        W75466  18.727   1.547  14.953
10240W        W75467   4.710   6.083   2.485
10241W        W75468  32.064  42.197  13.487
10242W        W75469   3.048  22.162   0.497
10243W        W75470  11.342  13.780   3.605
10244W        W75471   8.817  18.813   1.337
10245W        W75472  38.851   7.429  13.900
10246W        W75473  26.903  21.682  12.007
10247W        W75474  35.202   9.874   2.755
10248W        W75475  22.885  11.338  12.294
10249W        W75476   3.408  14.727  14.417
10250W        W75477   5.829  38.863  12.107
10251W        W75478   4.835  40.387  12.437
10252W        W75479  29.399  10.384   2.708
10253W        W75480  18.310   8.294   1.261
10254W        W75481  31.577   4.323  12.550
10255W        W75482  35.448  42.692  13.003
10256W        W75483   6.908  40.745  10.633
10257W        W75484  38.115   0.470   2.204
10258W        W75485   2.911  20.262   1.224
10259W        W75486  15.591   7.756  13.338
10260W        W75487  27.989   2.734   1.882
10261W        W75488  16.788  35.798  12.020
10262W        W75489  19.018  35.323   4.637
10263W        W75490  30.386   8.681   0.658
10264W        W75491   3.241  17.877   1.973
10265W        W75492  28.337   5.126  13.342
10266W        W75493  36.624  43.190  12.006
10267W        W75494  28.236  42.962  11.542
10268W        W75495  32.180  13.385  13.342
10269W        W75496   7.207  24.674  13.458
10270W        W75497  28.393  17.697  12.555
10271W        W75498  13.678  10.091   0.591
10272W        W75499  32.430  27.751  12.992
10273W        W75500   0.372  11.372   4.489
10274W        W75501   1.992  31.744  13.522
10275W        W75502   8.251  11.039   1.145
10276W        W75503  18.936  24.586  11.066
10277W        W75504  22.634  18.979   1.288
10278W        W75505  38.942  32.982   3.085
10279W        W75506  42.288  28.476  10.744
10280W        W75507   5.446  16.131  11.913
10281W        W75508  32.581  28.280  12.552
10282W        W75509  25.369  32.437  11.179
10283W        W75510  17.543  43.999  12.146
10284W        W75511  33.655  26.674   1.791
10285W        W75512  37.443   0.810   2.815
10286W        W75513  19.825  31.910   0.684
10287W        W75514   4.802  41.807   1.367
10288W        W75515  16.493  39.553  12.408
10289W        W75516  18.636  33.329  12.810
10290W        W75517  22.070  14.067  10.445
10291W        W75518  12.705  35.198   2.272
10292W        W75519  32.482  16.175  13.108
10293W        W75520  25.210   1.483   1.654
10294W        W75521  38.439   4.179   3.596
10295W        W75522  37.169   3.492  13.652
10296W        W75523  25.150  15.591  10.725
10297W        W75524  20.661  27.119  11.173
10298W        W75525  39.761  16.681  14.559
10299W        W75526  17.757  36.048   1.745
10300W        W75527  37.985  14.060  13.534
10301W        W75528  28.074  13.739   2.081
10302W        W75529  39.799  18.773  13.060
10303W        W75530   8.879  35.526  13.481
10304W        W75531   0.042  27.796   2.438
10305W        W75532  21.462  26.560   2.000
10306W        W75533  25.089  38.321   3.638
10307W        W75534  35.237  18.702   2.871
10308W        W75535  37.508   8.318  14.882
10309W        W75536  38.537   9.260   1.248
10310W        W75537  26.938  18.393   3.595
10311W        W75538   0.286   6.500  12.372
10312W        W75539  39.580  34.411  12.459
10313W        W75540  10.151  29.912  11.125
10314W        W75541  17.722  30.885  11.287
10315W        W75542   1.470   2.798  13.961
10316W        W75543  23.757   6.330   0.345
10317W        W75544  29.848  25.585   3.242
10318W        W75545  26.593   6.058   1.766
10319W        W75546  26.593  42.983  10.060
10320W        W75547   6.866   6.246   0.751
10321W        W75548  30.753  16.345  12.792
10322W        W75549  36.471  22.840  11.287
10323W        W75550   8.212  33.735   0.879
10324W        W75551   6.637  40.085   2.822
10325W        W75552  28.739  14.119   0.986
10326W        W75553  43.224  25.038   2.076
10327W        W75554  25.078  39.481   2.155
10328W        W75555  27.722   4.153  12.026
10329W        W75556   3.874   9.266  12.396
10330W        W75557  31.698  15.876  12.065
10331W        W75558  32.080  40.626  10.774
10332W        W75559   7.947  37.035  13.113
10333W        W75560  39.258   1.441  13.817
10334W        W75561  31.486   8.399  14.243
10335W        W75562  31.717  35.703  13.868
10336W        W75563  11.877  39.004  11.924
10337W        W75564  25.606  43.494   3.277
10338W        W75565  25.204  26.620   0.891
10339W        W75566  33.760  18.456   4.628
10340W        W75567  12.291  28.976  14.343
10341W        W75568  18.327  13.818   4.663
10342W        W75569  39.742  35.101   0.194
10343W        W75570  39.334  16.807   0.271
10344W        W75571  33.957   3.297   4.619
10345W        W75572   2.282   0.025   1.836
10346W        W75573  30.320   4.896  13.435
10347W        W75574  32.927   4.864   2.685
10348W        W75575  41.833  31.044  14.796
10349W        W75576  41.272  35.058  12.490
10350W        W75577   3.769  22.417  13.943
10351W        W75578  13.414  33.595   3.148
10352W        W75579   1.805   4.281  13.469
10353W        W75580  20.567  42.366  10.955
10354W        W75581   0.059  33.061  12.895
10355W        W75582  26.697  29.426   4.716
10356W        W75583  23.612  39.973  14.981
10357W        W75584   0.388  10.704   0.048
10358W        W75585  41.039  25.749  14.608
10359W        W75586  24.689  44.526   4.585
10360W        W75587   2.983  44.004  10.328
10361W        W75588   4.702  21.466  11.533
10362W        W75589  13.391  11.463   2.367
10363W        W75590  43.528  38.078  14.411
10364W        W75591  28.949   4.818  12.414
10365W        W75592   8.228  26.670  12.557
10366W        W75593  13.277  44.505  10.659
10367W        W75594  22.044   9.877   4.325
10368W        W75595  23.343   2.457   4.672
10369W        W75596  42.866  32.923  13.834
10370W        W75597  16.646   1.330  11.570
10371W        W75598  12.921  36.438   4.928
10372W        W75599  14.120   4.324  12.458
10373W        W75600   1.035  13.657   9.896
10374W        W75601   2.894  27.565  11.599
10375W        W75602  43.515  10.702   3.047
10376W        W75603   4.580  21.532  13.536
10377W        W75604  14.804  31.293   0.732
10378W        W75605  11.185  15.661   3.228
10379W        W75606  26.150  36.144  14.161
10380W        W75607  32.960  31.943   4.179
10381W        W75608  44.662  44.553  10.979
10382W        W75609   4.163  29.153  13.330
10383W        W75610   4.639  18.248   4.559
10384W        W75611  18.289  13.446   1.461
10385W        W75612  36.563   5.685   4.970
10386W        W75613  26.572  29.871   1.013
10387W        W75614   5.434  33.500  12.437
10388W        W75615  26.547  15.069  14.602
10389W        W75616   4.289  33.657   0.728
10390W        W75617   1.409  33.079   3.751
10391W        W75618  35.395  40.393  12.520
10392W        W75619  21.742  35.415  12.365
10393W        W75620  15.914  28.475  14.019
10394W        W75621  14.592  24.494  12.532
10395W        W75622   5.855  36.179  13.879
10396W        W75623  17.842   4.765   1.332
10397W        W75624  24.587  20.185   2.201
10398W        W75625   5.115  11.661  11.169
10399W        W75626   5.692  20.706  12.833
10400W        W75627  40.438  18.506   0.336
10401W        W75628  18.411   2.992   4.082
10402W        W75629  28.473  13.868   0.609
10403W        W75630   6.990   9.034   4.967
10404W        W75631  16.779  16.910   1.778
10405W        W75632  17.861  10.919   3.828
10406W        W75633  44.840   5.396  11.486
10407W        W75634  15.904  23.736   1.760
10408W        W75635   9.481  10.589   0.879
10409W        W75636  18.868  22.275   3.081
10410W        W75637  32.522   9.086   1.682
10411W        W75638  32.419   5.833  14.245
10412W        W75639  25.108  33.281   2.877
10413W        W75640  25.526  41.885   4.952
10414W        W75641  34.136  40.669  10.201
10415W        W75642  22.677  10.241  11.047
10416W        W75643  27.640  35.910  12.136
10417W        W75644   3.154  11.599   1.226
10418W        W75645  30.751  32.137  11.140
10419W        W75646  33.526  33.575   2.551
10420W        W75647  34.411  28.904   1.336
10421W        W75648  37.715  39.528  11.173
10422W        W75649  20.185   4.552   0.947
10423W        W75650  32.021  36.504  14.403
10424W        W75651  25.267  30.653  11.116
10425W        W75652  34.156  26.791   2.683
10426W        W75653  11.186   1.699  10.515
10427W        W75654  42.887  35.524   0.616
10428W        W75655  21.851   5.540   2.731
10429W        W75656  14.803  23.145  11.236
10430W        W75657  25.121   3.406   4.312
10431W        W75658   6.878  17.100   1.567
10432W        W75659  30.542  21.935   3.818
10433W        W75660  19.185  24.972   4.313
10434W        W75661  11.226   3.091   3.299
10435W        W75662  18.677  35.242  14.648
10436W        W75663  31.448  10.664   4.278
10437W        W75664  32.545  31.563  12.442
10438W        W75665   0.343   3.451   2.301
10439W        W75666  32.531   5.685   2.852
10440W        W75667  17.864  44.222  12.527
10441W        W75668  25.776  26.178  12.512
10442W        W75669  18.557  38.979  14.600
10443W        W75670  10.699  40.852  11.891
10444W        W75671  40.741  19.893   1.400
10445W        W75672  28.343  14.026   5.411
10446W        W75673  21.048  40.436   2.813
10447W        W75674   3.327  30.428  11.284
10448W        W75675  44.414  10.036   0.437
10449W        W75676  39.524   2.317   4.593
10450W        W75677  35.678  13.745  13.969
10451W        W75678  26.750  20.477   2.444
10452W        W75679  23.487  30.736   2.339
10453W        W75680  18.445  17.619   0.366
10454W        W75681   3.399  19.983   2.881
10455W        W75682  10.782  37.530   1.716
10456W        W75683  40.134  32.500  12.442
10457W        W75684  40.718  25.478   1.004
10458W        W75685  18.518   5.643  12.891
10459W        W75686  26.702  18.579  12.642
10460W        W75687  19.651  42.591   4.574
10461W        W75688  26.865  26.403  10.401
10462W        W75689   9.728  43.245   4.776
10463W        W75690   5.520  11.764  11.454
10464W        W75691  44.550  16.254   4.221
10465W        W75692  22.570  33.957  13.708
10466W        W75693   6.369  37.968   0.812
10467W        W75694   9.854  43.760  12.558
10468W        W75695   0.454   3.846   3.284
10469W        W75696  26.437  40.871   3.660
10470W        W75697  40.727  10.285  13.514
10471W        W75698  38.115  28.609   3.677
10472W        W75699  18.655  26.739   1.765
10473W        W75700  23.953   5.943   2.327
10474W        W75701  14.181  19.595  12.571
10475W        W75702   6.165  44.609   4.905
10476W        W75703  38.970  26.583  12.409
10477W        W75704   4.486  12.937   4.189
10478W        W75705  30.504  41.910   0.886
10479W        W75706  18.900  38.563  12.057
10480W        W75707  21.799  35.024   2.081
10481W        W75708  11.769  35.085  14.406
10482W        W75709  13.759  41.349  10.711
10483W        W75710   8.138  17.802   5.238
10484W        W75711   3.741  20.533   0.701
10485W        W75712  24.081   3.239   4.684
10486W        W75713  27.950  28.273   4.224
10487W        W75714   5.963  43.058  14.707
10488W        W75715  16.867  29.910   1.960
10489W        W75716  27.132   2.396  10.612
10490W        W75717  27.726  15.595   4.481
10491W        W75718   6.621  26.622  10.936
10492W        W75719  31.341   3.339  11.175
10493W        W75720   9.259  44.558  14.416
10494W        W75721  18.596  31.654   4.269
10495W        W75722  29.915   9.375  14.079
10496W        W75723  15.051  13.501  11.132
10497W        W75724  17.904  12.013   4.288
10498W        W75725  19.468  32.034  12.503
10499W        W75726  19.586  34.685   2.299
10500W        W75727  19.867  10.393  14.513
10501W        W75728   3.466  11.990   1.379
10502W        W75729  29.415  12.486  11.657
10503W        W75730  38.010  21.609   0.993
10504W        W75731  28.391  16.238   1.917
10505W        W75732   6.872  19.728  11.164
10506W        W75733  13.623  14.091   2.296
10507W        W75734  44.024  26.209  14.289
10508W        W75735  20.540  10.381  12.980
10509W        W75736  37.387  21.151   4.493
10510W        W75737  38.774  31.499   1.702
10511W        W75738  27.580   3.160  13.423
10512W        W75739  28.143  39.447   1.024
10513W        W75740  33.191   8.431   1.799
10514W        W75741  27.989  24.880   4.535
10515W        W75742  29.084   3.387  11.618
10516W        W75743  12.783  30.516  12.950
10517W        W75744  10.216   0.341   0.461
10518W        W75745  26.928  11.746  12.568
10519W        W75746  18.718   1.739   1.063
10520W        W75747  34.090  22.114  13.183
10521W        W75748  10.311  11.338   2.291
10522W        W75749  44.327  28.276  14.390
10523W        W75750  33.698  37.403   3.634
10524W        W75751  26.874  19.763   1.787
10525W        W75752  44.755  35.035   0.858
10526W        W75753  37.015  11.687   2.298
10527W        W75754  20.074  18.264  11.378
10528W        W75755  25.176   7.344  12.131
10529W        W75756  30.595  25.073  12.954
10530W        W75757  40.270   3.243  12.103
10531W        W75758  13.200   1.550  10.770
10532W        W75759  35.162  36.926   0.103
10533W        W75760  27.126  21.946  12.397
10534W        W75761  23.567   3.794  10.130
10535W        W75762  41.423  36.871   3.027
10536W        W75763   8.303   2.537   2.790
10537W        W75764  34.611  10.332   3.594
10538W        W75765  36.317  31.512   2.330
10539W        W75766  33.524  22.738   4.713
10540W        W75767  26.049   1.676   0.404
10541W        W75768  35.888  20.802   4.154
10542W        W75769   8.343  19.609   1.780
10543W        W75770  12.116  15.013  11.909
10544W        W75771  10.677  28.706  13.877
10545W        W75772  16.616   6.012   4.549
10546W        W75773  21.332  21.077   5.070
10547W        W75774  39.091   0.928  12.132
10548W        W75775  37.949  19.905  11.925
10549W        W75776   6.729  15.213   0.320
10550W        W75777   8.326   1.890   4.126
10551W        W75778   0.976  17.703   0.341
10552W        W75779   5.104  43.219   0.495
10553W        W75780  27.052  25.047   2.216
10554W        W75781  27.262  25.565  14.252
10555W        W75782  26.463  25.050  13.557
10556W        W75783   0.543  32.412  13.331
10557W        W75784  14.603  36.847   3.713
10558W        W75785  36.125  37.400  13.585
10559W        W75786  40.530  43.805  12.859
10560W        W75787  36.392  13.184  10.571
10561W        W75788  36.093  10.817  12.981
10562W        W75789  31.567  21.457  14.471
10563W        W75790  28.456  36.589   2.793
10564W        W75791  28.097  21.284   0.827
10565W        W75792  43.795   9.730   4.112
10566W        W75793  43.931  18.700  11.968
10567W        W75794  18.180   1.895   3.657
10568W        W75795  22.793  35.104   4.533
10569W        W75796   9.686  25.923  13.401
10570W        W75797  11.533  41.429  13.556
10571W        W75798  22.111  33.401  11.227
10572W        W75799  27.204  29.163  13.622
10573W        W75800  42.263  31.504  11.114
10574W        W75801  34.980  32.563   1.671
10575W        W75802   4.261   2.635   4.304
10576W        W75803  33.389  22.977   4.219
10577W        W75804  30.598  38.008  10.284
10578W        W75805   5.607  39.336  12.160
10579W        W75806   6.873  36.498   4.887
10580W        W75807  32.548  13.161  12.619
10581W        W75808  33.660  36.344  10.956
10582W        W75809   4.409  16.535   0.908
10583W        W75810  20.567  41.428  13.944
10584W        W75811  35.922   1.562   4.205
10585W        W75812   2.247  20.734  13.269
10586W        W75813  31.031  22.264  12.238
10587W        W75814  27.359  19.764   1.196
10588W        W75815   9.281  25.953  12.106
10589W        W75816  17.495  33.377   0.915
10590W        W75817   6.255  32.012  11.222
10591W        W75818   0.537   3.223   2.734
10592W        W75819  15.234  39.355  11.659
10593W        W75820   7.823  34.580  10.382
10594W        W75821  25.526   7.403  14.593
10595W        W75822  40.570  32.149  13.381
10596W        W75823  22.166  18.861  10.892
10597W        W75824   3.800   2.349  13.143
10598W        W75825   1.646  28.934   2.880
10599W        W75826  31.547  32.544   0.707
10600W        W75827  40.553  18.437   1.750
10601W        W75828  27.470   1.757   0.325
10602W        W75829  43.359  35.893   2.079
10603W        W75830   1.905  35.860  11.862
10604W        W75831  39.035   9.647   3.763
10605W        W75832  12.583  15.652   4.221
10606W        W75833  27.128   1.722   1.021
10607W        W75834   8.562   6.885   4.203
10608W        W75835  40.333  28.673  10.516
10609W        W75836  12.369  33.695   2.204
10610W        W75837   6.314  19.509  13.457
10611W        W75838   5.861  15.615   1.488
10612W        W75839  24.937  15.802   1.673
10613W        W75840  41.930  44.460   4.226
10614W        W75841  42.095  40.832  11.090
10615W        W75842   8.797  36.994   2.242
10616W        W75843  23.188  18.110  14.044
10617W        W75844  38.281  29.996   4.113
10618W        W75845  37.338  42.917   1.455
10619W        W75846   6.528   9.130   3.383
10620W        W75847  27.018  25.713   0.795
10621W        W75848   3.653  36.036   1.551
10622W        W75849   5.717  43.684   3.473
10623W        W75850  32.176  15.791  12.977
10624W        W75851  17.805   9.841  14.051
10625W        W75852  16.158  16.761  13.135
10626W        W75853  41.262  35.475  14.818
10627W        W75854  11.338  12.411   4.039
10628W        W75855  14.875  15.612   3.298
10629W        W75856  44.468  24.259  12.843
10630W        W75857  37.069   6.346   3.251
10631W        W75858  12.196   1.045   2.240
10632W        W75859  17.241  39.970  11.765
10633W        W75860  26.951   9.735   3.846
10634W        W75861  18.625   0.820   3.370
10635W        W75862  16.997   4.094   1.509
10636W        W75863   5.251  40.330  13.534
10637W        W75864   4.834  34.243  14.752
10638W        W75865  39.569  17.528  14.421
10639W        W75866   7.411  17.597  13.945
10640W        W75867  23.690  18.572  11.896
10641W        W75868   7.397  32.717  14.639
10642W        W75869  13.028  30.506  13.902
10643W        W75870  43.668  12.138   4.570
10644W        W75871  13.248  35.583  11.047
10645W        W75872  40.797  31.956   3.318
10646W        W75873  34.169  30.686   4.600
10647W        W75874  31.946  15.815  13.428
10648W        W75875  28.197  39.727   1.494
10649W        W75876  38.449   1.496  14.269
10650W        W75877   1.692  29.499   0.007
10651W        W75878   2.331   7.153   4.319
10652W        W75879  29.560  18.664  10.737
10653W        W75880  37.848  42.391  10.661
10654W        W75881   1.303  13.643   1.669
10655W        W75882  12.850  31.979  13.479
10656W        W75883  11.991  20.244  11.183
10657W        W75884   8.307  16.800  12.544
10658W        W75885  36.944  37.804  12.737
10659W        W75886  11.615  43.351  11.301
10660W        W75887  41.511  26.010  12.880
10661W        W75888   0.648  31.094   0.872
10662W        W75889  40.217  31.933   4.471
10663W        W75890   8.358  20.402  13.966
10664W        W75891   3.455  39.260   3.195
10665W        W75892  38.125   4.893  10.212
10666W        W75893  23.646   2.947  12.353
10667W        W75894  20.723   6.923  10.971
10668W        W75895  11.192  42.984   3.657
10669W        W75896   3.272  24.082   1.539
10670W        W75897  29.997  35.774  10.478
10671W        W75898   9.606  40.250  13.863
10672W        W75899  33.235  17.270   4.137
10673W        W75900  26.909   0.506   2.686
10674W        W75901  40.511  31.491  10.726
10675W        W75902  13.115  19.171   2.564
10676W        W75903  25.670  32.459   1.001
10677W        W75904  32.441  40.511   4.095
10678W        W75905  39.397  25.187   2.175
10679W        W75906  40.368  16.192  12.856
10680W        W75907  24.473  27.589   4.413
10681W        W75908  20.748  42.955  13.430
10682W        W75909   3.831  23.165  14.571
10683W        W75910  14.097  25.258   1.847
10684W        W75911   7.241  21.191   4.586
10685W        W75912  27.424  11.517  11.378
10686W        W75913   4.211   8.796   0.452
10687W        W75914  28.468  20.036  14.245
10688W        W75915  43.875  31.598   0.291
10689W        W75916  39.820  40.812  12.118
10690W        W75917  41.553  28.656   3.764
10691W        W75918  30.365   1.833   2.712
10692W        W75919  18.799  41.599   2.700
10693W        W75920  26.965   8.735  10.560
10694W        W75921  10.696  40.910  10.888
10695W        W75922   4.068  44.641  12.603
10696W        W75923  22.614  44.859   4.950
10697W        W75924  18.134  10.106  11.159
10698W        W75925  17.303  21.156   1.932
10699W        W75926  30.925  22.828  14.296
10700W        W75927   8.496  32.822   0.610
10701W        W75928  30.462  41.991  10.898
10702W        W75929  13.353   3.162  12.102
10703W        W75930   0.966  10.187   4.697
10704W        W75931  29.835  26.087  13.418
10705W        W75932  38.934   8.107   4.100
10706W        W75933   4.270  24.925  12.963
10707W        W75934  12.866  11.453  13.927
10708W        W75935  30.448  31.939   1.376
10709W        W75936  15.335  37.784   1.377
10710W        W75937  14.179  25.126   4.693
10711W        W75938  38.158  24.102   0.720
10712W        W75939   9.746   3.036  13.461
10713W        W75940   0.477  24.710   0.284
10714W        W75941  34.828  32.089   0.426
10715W        W75942   3.440  34.196   2.308
10716W        W75943  19.276  11.749  14.702
10717W        W75944  43.059  14.071   1.778
10718W        W75945  36.229  29.119   3.681
10719W        W75946  31.675   6.680  14.332
10720W        W75947  44.778  42.537  11.443
10721W        W75948  22.103   8.203   0.418
10722W        W75949  32.461  33.390  11.838
10723W        W75950  34.003  13.732   0.863
10724W        W75951  39.768   3.363  12.783
10725W        W75952   8.182  18.530   0.276
10726W        W75953   2.923  25.974   0.498
10727W        W75954  31.560  12.027  14.411
10728W        W75955  44.774  33.038   3.293
10729W        W75956   0.089  34.942   2.827
10730W        W75957  31.054  35.642   5.422
10731W        W75958   8.405  12.430   3.484
10732W        W75959  19.867   4.602  13.660
10733W        W75960   8.759  21.107  10.096
10734W        W75961  30.043   1.827   1.289
10735W        W75962   3.809  14.297  12.199
10736W        W75963  38.708  31.648   3.243
10737W        W75964  12.271  37.840   4.093
10738W        W75965   1.386  32.376  13.052
10739W        W75966   5.260  17.086  14.506
10740W        W75967  17.644   5.613  12.796
10741W        W75968  13.287  40.924  13.854
10742W        W75969  14.565  32.297   2.758
10743W        W75970   2.506  23.668  14.887
10744W        W75971  41.561  26.735   3.113
10745W        W75972  18.183  32.710  12.700
10746W        W75973  20.084  27.418  11.254
10747W        W75974  19.141   5.009   1.686
10748W        W75975   4.902  18.237   0.749
10749W        W75976   3.804  39.989   0.836
10750W        W75977  36.351  15.101   3.675
10751W        W75978  33.659  16.329   2.747
10752W        W75979  22.583   1.838   4.577
10753W        W75980  40.796   6.847   3.009
10754W        W75981  30.989  42.553   1.405
10755W        W75982   0.105  36.746  12.125
10756W        W75983  18.647  32.190  12.034
10757W        W75984  39.052  34.427  13.374
10758W        W75985  14.663   4.071   3.748
10759W        W75986  25.096  44.830   4.726
10760W        W75987  10.644  37.594   3.756
10761W        W75988  44.513  33.612   1.164
10762W        W75989   6.151   5.857   3.304
10763W        W75990  40.510  22.514  13.326
10764W        W75991  10.533  44.189   0.293
10765W        W75992  17.157  20.470   3.312
10766W        W75993   0.935  24.447  11.043
10767W        W75994  18.038  26.127  11.971
10768W        W75995  24.185  15.614  12.329
10769W        W75996  37.860  10.723  14.427
10770W        W75997  18.974  44.893  11.177
10771W        W75998  13.567  24.590   3.452
10772W        W75999   3.161  14.979   0.849
10773W        W76000  34.115  11.566   2.772
10774W        W76001   7.179  17.706   3.628
10775W        W76002  28.016  17.068   1.398
10776W        W76003  16.221  15.897  11.498
10777W        W76004   7.716  23.265  11.012
10778W        W76005  25.628   1.743  13.497
10779W        W76006   3.403  20.476   3.474
10780W        W76007   6.051  27.165  14.914
10781W        W76008   9.443  17.710   0.872
10782W        W76009  23.121   4.055   0.472
10783W        W76010  36.763  19.696  12.469
10784W        W76011  32.549  30.668   0.829
10785W        W76012  39.406  40.389  14.261
10786W        W76013  30.507  30.384   0.745
10787W        W76014  44.638  11.479  10.950
10788W        W76015  32.003  15.513  11.681
10789W        W76016  11.434  37.420  14.841
10790W        W76017   8.657   6.172  12.966
10791W        W76018   3.448  32.713   0.919
10792W        W76019  38.629   3.309  10.609
10793W        W76020   7.378  21.512  11.144
10794W        W76021  20.581   7.412   1.982
10795W        W76022  20.263  13.796   1.756
10796W        W76023   2.550  34.484   0.478
10797W        W76024  43.325  14.286  11.991
10798W        W76025  43.690   2.435   4.639
10799W        W76026  36.495  32.156  11.426
10800W        W76027  15.136  32.366  14.341
10801W        W76028  13.838  24.728   4.770
10802W        W76029  42.350  20.277   3.287
10803W        W76030   5.444  17.689   3.048
10804W        W76031   6.715   0.218   1.304
10805W        W76032   0.858  34.441   2.781
10806W        W76033   6.723  39.599   3.889
10807W        W76034  24.056  43.893  10.797
10808W        W76035  18.144  37.662   4.507
10809W        W76036  30.861  28.131   3.197
10810W        W76037  24.745  42.908  13.280
10811W        W76038  33.919  17.852   0.755
10812W        W76039   1.346   6.268  13.914
10813W        W76040  18.894  27.940  12.108
10814W        W76041  33.710  12.213  14.776
10815W        W76042  43.602  33.454  12.239
10816W        W76043  11.231  13.001   4.543
10817W        W76044   3.759   7.613  13.880
10818W        W76045  12.629  12.174  14.082
10819W        W76046  13.603  21.354  13.835
10820W        W76047  19.766  36.171   0.915
10821W        W76048  36.191  33.527  11.769
10822W        W76049  26.260   5.507  13.939
10823W        W76050  35.366  43.023   2.214
10824W        W76051  22.271  33.036   2.352
10825W        W76052  13.066  36.323   2.691
10826W        W76053  24.211  19.719  14.315
10827W        W76054  33.988   2.744   4.570
10828W        W76055  20.904  28.103  13.891
10829W        W76056  28.170   9.054   2.437
10830W        W76057   4.827  42.004   3.644
10831W        W76058  25.377  37.892  10.761
10832W        W76059  18.691  15.831   0.162
10833W        W76060   4.529  11.751   0.604
10834W        W76061  14.389  24.758   3.857
10835W        W76062  24.175  35.158  14.034
10836W        W76063  33.834  21.630   4.236
10837W        W76064  31.151  34.969  13.830
10838W        W76065  35.237  27.930  14.401
10839W        W76066   9.824  15.121   2.454
10840W        W76067   6.635  43.332   2.837
10841W        W76068   1.938  31.251  13.510
10842W        W76069  40.499   2.316   4.321
10843W        W76070  18.784  29.459  11.628
10844W        W76071  28.015  23.466  14.239
10845W        W76072   8.316  31.740  10.976
10846W        W76073  25.326  36.277  13.058
10847W        W76074  21.195   2.262  11.655
10848W        W76075  19.027  30.946   4.878
10849W        W76076  10.000  42.307  14.430
10850W        W76077  29.478  32.340   1.712
10851W        W76078  20.670  15.176   1.775
10852W        W76079  26.439  35.296   3.228
10853W        W76080  14.873   4.344   2.422
10854W        W76081  30.108  20.169   3.916
10855W        W76082   2.447   8.354  12.888
10856W        W76083  33.665  24.167  11.858
10857W        W76084  37.430  36.421   1.164
10858W        W76085   2.507   5.787   1.204
10859W        W76086  31.410  19.066   4.616
10860W        W76087  13.117  28.578   0.105
10861W        W76088  24.605  12.321   0.271
10862W        W76089  42.991  37.959   3.171
10863W        W76090  44.668  41.988  14.961
10864W        W76091  23.172  28.689  12.150
10865W        W76092  16.185  38.862  12.413
10866W        W76093   9.743   3.642  12.748
10867W        W76094  19.071  11.294   1.879
10868W        W76095  40.001  21.789  11.557
10869W        W76096   6.454  22.760   4.575
10870W        W76097  37.976   5.035  10.694
10871W        W76098  40.930  29.051   3.240
10872W        W76099  31.120   9.277  14.550
10873W        W76100  14.674  43.334   3.939
10874W        W76101  10.762  13.410  10.749
10875W        W76102  29.209  29.040   0.606
10876W        W76103  12.674  30.951  13.252
10877W        W76104  28.021  25.028   2.408
10878W        W76105  41.923  33.411  12.822
10879W        W76106  17.322  17.443  11.639
10880W        W76107   3.323  31.423  13.300
10881W        W76108  42.238  33.703  11.228
10882W        W76109   5.875   2.742   0.870
10883W        W76110   3.686  39.599  13.330
10884W        W76111  22.509  12.119  12.458
10885W        W76112   9.369  14.529   3.488
10886W        W76113  41.010  33.382   2.185
10887W        W76114  38.024  38.432   0.557
10888W        W76115  20.052  11.238   1.674
10889W        W76116  25.276  24.819   3.823
10890W        W76117   9.682  12.839   2.946
10891W        W76118  20.201  18.615   2.179
10892W        W76119  42.318   4.835   3.841
10893W        W76120  43.849  36.877   2.846
10894W        W76121   9.363  23.039   1.730
10895W        W76122  31.957  23.431  13.609
10896W        W76123  16.646  40.270   4.827
10897W        W76124  37.279  41.937  13.116
10898W        W76125   3.786   3.266   5.016
10899W        W76126  26.507  19.124   0.220
10900W        W76127  16.886   7.085   1.259
10901W        W76128  44.699   3.311  11.968
10902W        W76129  38.719  33.296  14.451
10903W        W76130  20.061  22.271   2.265
10904W        W76131  23.150  42.437   0.354
10905W        W76132  31.478  43.517  11.900
10906W        W76133   8.990   0.839  14.302
10907W        W76134  12.957  34.404  13.215
10908W        W76135  14.323   3.898  10.697
10909W        W76136   6.453  31.897   0.922
10910W        W76137  13.910   6.145  13.412
10911W        W76138  36.388  18.040   1.684
10912W        W76139  15.170  29.538  11.319
10913W        W76140   4.626  39.886   0.503
10914W        W76141  38.799  42.367   0.266
10915W        W76142   2.331  38.457   3.685
10916W        W76143  31.354  24.597  11.226
10917W        W76144  23.340   2.907  14.470
10918W        W76145   7.957  40.439  11.621
10919W        W76146  23.654  22.887   1.036
10920W        W76147  24.616  13.968   0.507
10921W        W76148  33.390  40.433  11.967
10922W        W76149  44.145  27.447   4.890
10923W        W76150  36.536  12.504   0.310
10924W        W76151  39.313  34.482  12.931
10925W        W76152  15.828  27.431  12.055
10926W        W76153  19.773   0.025   2.872
10927W        W76154  19.690   5.585  10.931
10928W        W76155  40.370  15.181  10.921
10929W        W76156  32.392  10.356   1.245
10930W        W76157  27.403  33.425   3.802
10931W        W76158  28.613  28.759  10.718
10932W        W76159  14.894  29.388  10.376
10933W        W76160   8.172  34.165  13.525
10934W        W76161  14.026  40.033  12.449
10935W        W76162  36.850  20.998  13.763
10936W        W76163   4.764  29.980   2.723
10937W        W76164  11.807  10.674  11.161
10938W        W76165  43.746  40.755   2.631
10939W        W76166  16.309  31.542   0.855
10940W        W76167  33.474  32.066  10.294
10941W        W76168  17.723  34.959   1.332
10942W        W76169  25.197  14.501  14.827
10943W        W76170  26.258  14.769   2.410
10944W        W76171  26.725   0.725  14.734
10945W        W76172  25.044   2.465   2.438
10946W        W76173   5.308  44.971   1.938
10947W        W76174  11.396  29.698  13.059
10948W        W76175  33.418  40.891   4.553
10949W        W76176  23.084  17.514  14.934
10950W        W76177  30.540  14.351   1.672
10951W        W76178  24.465  43.649   0.807
10952W        W76179  16.131   3.662   3.515
10953W        W76180  43.869  28.805  13.608
10954W        W76181  19.485   7.255   1.202
10955W        W76182  14.464  20.866   1.479
10956W        W76183  22.543  39.488  14.574
10957W        W76184  16.548  26.351  12.071
10958W        W76185  33.606  33.399   0.146
10959W        W76186  13.813  33.200   3.100
10960W        W76187  12.384  43.823  11.066
10961W        W76188  21.123  18.481   0.228
10962W        W76189  36.772   9.144   0.001
10963W        W76190  21.301  24.479   1.769
10964W        W76191   5.380  31.935   1.166
10965W        W76192  15.623   2.144  14.788
10966W        W76193  22.897   4.951   1.780
10967W        W76194  25.660  19.709   0.899
10968W        W76195  37.663  10.857  11.188
10969W        W76196  43.750  17.045  11.669
10970W        W76197  38.560  25.665  12.089
10971W        W76198  22.379  26.327  12.492
10972W        W76199   4.472  30.880  11.437
10973W        W76200  12.261  25.590   0.498
10974W        W76201  31.351  19.298  14.016
10975W        W76202  33.853  39.495  14.699
10976W        W76203   2.775  42.490   1.861
10977W        W76204  20.361  25.259   2.304
10978W        W76205  21.334  26.607  13.270
10979W        W76206  34.479  28.922  10.348
10980W        W76207  30.623  19.236  11.656
10981W        W76208  36.026  34.200   1.420
10982W        W76209  30.175  16.168   0.972
10983W        W76210  33.137  14.203   4.917
10984W        W76211  39.577   1.826  13.896
10985W        W76212  26.891  30.233   0.834
10986W        W76213  19.224  34.410  12.448
10987W        W76214   3.673  20.996  12.439
10988W        W76215  15.410   2.876  10.726
10989W        W76216  28.671  14.736  13.000
10990W        W76217  28.333  43.364   2.397
10991W        W76218   4.404  23.067   1.248
10992W        W76219   0.466  31.179   1.362
10993W        W76220  22.692  25.412  13.609
10994W        W76221  11.232  42.401   0.277
10995W        W76222  12.158  27.651   2.812
10996W        W76223  19.884  40.282   4.934
10997W        W76224  20.255  18.805  14.564
10998W        W76225  19.053   4.862   2.413
10999W        W76226  36.523  37.596   4.183
11000W        W76227  20.613  31.757   1.320
11001W        W76228   4.013  36.710   4.775
11002W        W76229  27.009  41.948   1.824
11003W        W76230  40.798   9.861  12.892
11004W        W76231  37.328  28.057   3.668
11005W        W76232  30.617  10.953  11.461
11006W        W76233  20.022  41.543   0.731
11007W        W76234  29.877   4.319   3.294
11008W        W76235  27.659   6.614   2.426
11009W        W76236  12.911  16.688   1.904
11010W        W76237  41.417   9.852   0.917
11011W        W76238  39.997  39.524  10.504
11012W        W76239  22.765  42.448  14.998
11013W        W76240  31.083   3.597   0.373
11014W        W76241  36.315   8.137  10.183
11015W        W76242  26.787  31.119   3.817
11016W        W76243  10.914   6.206   4.597
11017W        W76244  29.933  40.291   0.390
11018W        W76245  17.603  43.290   0.966
11019W        W76246  24.693  25.002  10.816
11020W        W76247  19.603  22.198   4.238
11021W        W76248   7.294  18.823  14.669
11022W        W76249   0.461  11.745  10.745
11023W        W76250  36.375  23.890  10.271
11024W        W76251  34.373  16.864   2.612
11025W        W76252  41.443   0.795   4.511
11026W        W76253  16.341  13.678  14.521
11027W        W76254  30.912  28.049   4.130
11028W        W76255  44.366  15.881  12.988
11029W        W76256  40.384  44.279  12.972
11030W        W76257  44.239  30.512  14.391
11031W        W76258  36.374  28.040  11.698
11032W        W76259  37.210  30.365  14.360
11033W        W76260  12.090   2.157   0.268
11034W        W76261  32.475  34.917  14.005
11035W        W76262  17.943  26.282   1.213
11036W        W76263  34.959  41.233   3.798
11037W        W76264  19.637  25.221   2.691
11038W        W76265   0.096  10.841  12.562
11039W        W76266  29.695  10.930   1.225
11040W        W76267   7.262  14.158   4.988
11041W        W76268   5.751  39.034  12.586
11042W        W76269  42.744  18.558   2.660
11043W        W76270  21.226  13.278   0.258
11044W        W76271  14.504   4.885  14.325
11045W        W76272  39.039   9.739   0.021
11046W        W76273   7.732  22.214   3.920
11047W        W76274  24.846   7.870   2.786
11048W        W76275  31.263  44.779  14.400
11049W        W76276  42.311  22.138  14.792
11050W        W76277  14.081  17.728  10.791
11051W        W76278  26.715  21.096  10.738
11052W        W76279   8.411   7.647  14.781
11053W        W76280  34.480  17.403  10.749
11054W        W76281   1.814   9.196  14.835
11055W        W76282  15.714  24.232   2.221
11056W        W76283   3.184  16.248  12.705
11057W        W76284   8.759   5.190  13.822
11058W        W76285  14.348  30.687   2.300
11059W        W76286  27.813  43.961   3.582
11060W        W76287  15.163  16.025  13.376
11061W        W76288  31.130   7.933  10.542
11062W        W76289  16.996  11.935  11.072
11063W        W76290  25.228  43.164  12.379
11064W        W76291  26.146  32.000  13.942
11065W        W76292   6.150  24.038   3.876
11066W        W76293  26.435  34.062   2.817
11067W        W76294  42.845   4.330   4.054
11068W        W76295  38.844  22.625   4.458
11069W        W76296  15.214  22.978  11.499
11070W        W76297  21.094   5.888  10.755
11071W        W76298  13.573  37.486   1.282
11072W        W76299   3.909   8.265   2.365
11073W        W76300  29.515  18.802  14.801
11074W        W76301  35.065  16.257  13.448
11075W        W76302  21.124  33.921   3.734
11076W        W76303  44.982  18.142  14.699
11077W        W76304  15.137  34.047  14.963
11078W        W76305  18.074  18.185   3.753
11079W        W76306  30.142  11.366  11.376
11080W        W76307  28.019  21.152   2.110
11081W        W76308  31.139  22.007  13.243
11082W        W76309  21.671  19.661  10.995
11083W        W76310  44.706  28.505  13.990
11084W        W76311  13.242   7.430  12.339
11085W        W76312  15.871  20.112  12.038
11086W        W76313  10.118  42.589  10.776
11087W        W76314  17.003  34.347   4.218
11088W        W76315  29.552  42.867  14.534
11089W        W76316  26.114  11.460   2.081
11090W        W76317  11.671  14.554  13.984
11091W        W76318  28.021   4.952  13.743
11092W        W76319  21.669  34.336  14.837
11093W        W76320  34.865  11.175   3.413
11094W        W76321  42.271  27.228   2.799
11095W        W76322   0.377   8.177   2.690
11096W        W76323   4.952  12.759  10.728
11097W        W76324  39.545  32.230  14.292
11098W        W76325  12.805  23.163   0.292
11099W        W76326   4.818  24.279  10.645
11100W        W76327  15.769  15.433  12.945
11101W        W76328  19.180  24.423   4.938
11102W        W76329  15.678   8.333  10.757
11103W        W76330  18.494  21.583   4.228
11104W        W76331  18.803  19.279  12.979
11105W        W76332  27.002  24.649   3.324
11106W        W76333  27.939  36.194   0.292
11107W        W76334   2.648  14.070  13.756
11108W        W76335  40.863  14.275  12.951
11109W        W76336  12.268  42.525  10.753
11110W        W76337  31.402  23.790  14.431
11111W        W76338  43.349   2.906  11.589
11112W        W76339  28.604  11.155  13.020
11113W        W76340  25.787  31.029  11.710
11114W        W76341  21.702  30.823   4.147
11115W        W76342   5.150  35.565  13.388
11116W        W76343  16.687   9.832   3.055
11117W        W76344   2.807   3.953   0.944
11118W        W76345   6.912  18.399   2.181
11119W        W76346   3.219  21.839  14.063
11120W        W76347  23.457  20.225   0.274
11121W        W76348   6.275  43.813  10.877
11122W        W76349  44.433  22.562   0.422
11123W        W76350  36.448  35.833   4.633
11124W        W76351  32.635  17.724  13.534
11125W        W76352  43.735  40.236  14.372
11126W        W76353  25.248   6.723  12.925
11127W        W76354   8.520  42.419   4.794
11128W        W76355   3.009  38.825   1.276
11129W        W76356  10.863  19.599   4.007
11130W        W76357  40.628  32.045  11.934
11131W        W76358   5.946   8.131   3.858
11132W        W76359  24.638  34.383  13.889
11133W        W76360  13.072  41.966  14.291
11134W        W76361  16.158  26.038   1.811
11135W        W76362  31.270  28.410   4.032
11136W        W76363  20.706  13.023   2.785
11137W        W76364  32.095  29.515  11.334
11138W        W76365  10.954  25.254   3.106
11139W        W76366  34.749  42.003   0.878
11140W        W76367   7.920   3.995  14.444
11141W        W76368  25.963   4.685   3.720
11142W        W76369   3.567  19.602  10.653
11143W        W76370  10.383  40.183   3.049
11144W        W76371   6.176  17.614  12.783
11145W        W76372  20.123  36.052  11.493
11146W        W76373  39.423  14.681   0.698
11147W        W76374  43.507  13.546   2.329
11148W        W76375   6.182  27.472   1.942
11149W        W76376  36.281  23.013   3.823
11150W        W76377  22.996   1.539   0.743
11151W        W76378   5.479  15.573  11.640
11152W        W76379  11.640   3.285  10.904
11153W        W76380   0.656  23.251  13.690
11154W        W76381  35.764  22.291  12.360
11155W        W76382   2.457  13.555  10.674
11156W        W76383  20.211  19.173  12.930
11157W        W76384  41.687   0.929   3.195
11158W        W76385  17.514  41.428  10.871
11159W        W76386  35.293  24.714  14.453
11160W        W76387  38.146  34.852  10.821
11161W        W76388  30.121  29.403   2.585
11162W        W76389  29.075  23.406  11.911
11163W        W76390  13.694  30.895   1.406
11164W        W76391  16.102  11.131   1.244
11165W        W76392  22.002   5.520  11.616
11166W        W76393  34.462  16.061  11.910
11167W        W76394  40.523  22.090  13.002
11168W        W76395  17.015   7.185  14.490
11169W        W76396  12.646  17.259   2.238
11170W        W76397  11.430  40.460  11.856
11171W        W76398  42.105  42.172   4.878
11172W        W76399  11.648  10.172  10.773
11173W        W76400   1.870  16.825  12.872
11174W        W76401   6.108  11.794   1.548
11175W        W76402  11.356  35.970  13.978
11176W        W76403  27.251  39.346  11.929
11177W        W76404   0.973  30.066   0.511
11178W        W76405   0.820   7.240   0.162
11179W        W76406  24.497  29.585   1.867
11180W        W76407   0.015  28.503  14.493
11181W        W76408  18.841   0.269  12.913
11182W        W76409  21.252  17.450   0.911
11183W        W76410   2.560  30.843  11.072
11184W        W76411  33.323  36.397   2.266
11185W        W76412  23.786  43.641   4.884
11186W        W76413  25.192  30.922   3.239
11187W        W76414  17.558   3.750   2.632
11188W        W76415   2.444  43.678  14.045
11189W        W76416  36.269  36.191  12.501
11190W        W76417  33.008  21.961  14.765
11191W        W76418  31.948  30.712  12.416
11192W        W76419  41.728  31.319   2.640
11193W        W76420   0.834  36.052  10.715
11194W        W76421  29.294  42.699  14.964
11195W        W76422  34.806  14.915   5.393
11196W        W76423   3.936  35.324   2.303
11197W        W76424  10.057   4.017   3.528
11198W        W76425  15.275  44.422   1.777
11199W        W76426  11.798  33.594  14.434
11200W        W76427   1.023  35.831  11.139
11201W        W76428  14.862  40.638   2.290
11202W        W76429  42.338   7.345   3.873
11203W        W76430  26.938   9.447   4.548
11204W        W76431  19.103  16.715   1.767
11205W        W76432   0.027  31.408   2.225
11206W        W76433  30.399  33.472   2.916
11207W        W76434  13.645  39.113   0.853
11208W        W76435  38.271   5.905  13.551
11209W        W76436  10.941  18.136  10.122
11210W        W76437  38.184  41.839   5.001
11211W        W76438  41.472  17.644   0.782
11212W        W76439   9.692  38.645   0.885
11213W        W76440   8.947  36.529   2.418
11214W        W76441   0.226  31.418   0.516
11215W        W76442  36.296  35.566  13.204
11216W        W76443   8.839  40.348  14.429
11217W        W76444  20.281  34.468  14.709
11218W        W76445  33.019   6.980   4.360
11219W        W76446   7.446  28.623   3.233
11220W        W76447  31.499  30.077   4.622
11221W        W76448  26.070  43.524   4.234
11222W        W76449  34.555  36.781   4.523
11223W        W76450  21.158  34.013   0.691
11224W        W76451  27.121  17.914   1.216
11225W        W76452  43.362  38.658   3.183
11226W        W76453   2.906  19.341  13.382
11227W        W76454  44.794  31.211   3.612
11228W        W76455  11.038  26.052  14.770
11229W        W76456  14.720  41.319   0.279
11230W        W76457  23.259   8.165   1.463
11231W        W76458  20.475   3.787  10.235
11232W        W76459  19.323  40.404   0.059
11233W        W76460   5.922  34.834  10.644
11234W        W76461  23.831  28.025   0.380
11235W        W76462  23.967  37.813  13.279
11236W        W76463   1.809  21.615  14.944
11237W        W76464  24.749  28.602   0.898
11238W        W76465   5.058  16.076  12.554
11239W        W76466  30.450   4.226  11.771
11240W        W76467   6.645   7.562  10.431
11241W        W76468  16.810   3.882  11.985
11242W        W76469  26.386  13.072  13.608
11243W        W76470  37.347  13.339  11.061
11244W        W76471  30.561  13.965   2.024
11245W        W76472  10.758   8.710  12.936
11246W        W76473  43.915  35.610   4.586
11247W        W76474  35.272  29.961   3.736
11248W        W76475   0.042  12.325  13.586
11249W        W76476  22.441  44.052  11.666
11250W        W76477  14.883  33.476   3.211
11251W        W76478   7.920  19.962   2.754
11252W        W76479  17.573  43.462  10.958
11253W        W76480  18.842  31.165  12.561
11254W        W76481   4.921  21.510  13.996
11255W        W76482  23.192  42.969   2.996
11256W        W76483  33.872  17.685  13.023
11257W        W76484  26.854  22.724   1.897
11258W        W76485  42.018  26.726   2.300
11259W        W76486  40.593  20.082   0.924
11260W        W76487  27.942  38.573  14.046
11261W        W76488  38.130  21.141   2.277
11262W        W76489  41.014   9.703   3.674
11263W        W76490  27.899  20.168  14.882
11264W        W76491  15.064  39.357   2.239
11265W        W76492  20.626  28.010  13.488
11266W        W76493   1.799   7.291  11.685
11267W        W76494  25.317  24.187   2.730
11268W        W76495  10.338  19.687   9.544
11269W        W76496  22.987  18.219  11.476
11270W        W76497  22.790   9.421  12.576
11271W        W76498  24.919   5.139   4.097
11272W        W76499  31.488  38.589  10.354
11273W        W76500  20.500   6.687  14.298
11274W        W76501   7.559  27.901  14.529
11275W        W76502  42.536  20.423   5.041
11276W        W76503  14.344  39.842   2.899
11277W        W76504   5.306  42.556  10.529
11278W        W76505  26.549  20.515   4.125
11279W        W76506  37.919  12.861  11.859
11280W        W76507  12.267  33.634   4.110
11281W        W76508  16.633  37.896   0.987
11282W        W76509   5.837  43.214  13.654
11283W        W76510  24.071  25.755   2.875
11284W        W76511  19.984  24.498  13.069
11285W        W76512  42.592  39.816  11.282
11286W        W76513   2.924  44.361  10.729
11287W        W76514   9.680  20.746   4.812
11288W        W76515  27.115  38.494   1.113
11289W        W76516   6.670  40.109   3.726
11290W        W76517  31.887   1.386   0.947
11291W        W76518   3.841  19.201   1.840
11292W        W76519  15.080  16.023   0.274
11293W        W76520  44.549  34.599  10.841
11294W        W76521  12.084  12.721   1.975
11295W        W76522  31.895  44.412  12.874
11296W        W76523   0.484  13.632  14.868
11297W        W76524  35.370   5.967  11.216
11298W        W76525  13.675  11.091   2.175
11299W        W76526   5.578  20.505  13.322
11300W        W76527  23.943  15.585  11.042
11301W        W76528  10.090  38.157  11.777
11302W        W76529  17.790  30.479   4.271
11303W        W76530  21.873  19.847   3.540
11304W        W76531  33.462  12.711   1.184
11305W        W76532   7.900  30.908   1.100
11306W        W76533  15.264   7.638  14.962
11307W        W76534  19.141  40.960   0.885
11308W        W76535  12.550  33.389   1.826
11309W        W76536   8.792  10.299  14.787
11310W        W76537   4.749  19.646   4.962
11311W        W76538  34.144  10.746  13.908
11312W        W76539  31.162  38.001  12.467
11313W        W76540  35.369   6.317  13.034
11314W        W76541  12.901  26.611   4.088
11315W        W76542  36.105  17.957  10.672
11316W        W76543   9.787  41.854  10.657
11317W        W76544   5.895  11.448  10.788
11318W        W76545  27.505  14.327   0.454
11319W        W76546  43.982  18.314  13.540
11320W        W76547   8.356  42.536  11.834
11321W        W76548  43.028  13.327   4.185
11322W        W76549  20.062   4.429  10.782
11323W        W76550  11.279  28.319   2.238
11324W        W76551  28.869   3.695   3.604
11325W        W76552  31.252  26.464   2.750
11326W        W76553  43.597  39.340  11.202
11327W        W76554  20.510   6.161   0.353
11328W        W76555  43.280  35.864   0.200
11329W        W76556  43.551   4.226   3.509
11330W        W76557  34.927  23.635  11.426
11331W        W76558   1.005  12.907   1.971
11332W        W76559  14.273  11.214   2.870
11333W        W76560   8.276  29.987  14.279
11334W        W76561  25.220  28.456  11.975
11335W        W76562   0.726  20.719  13.415
11336W        W76563   3.706  44.856  14.281
11337W        W76564   1.727   5.834  10.737
11338W        W76565  21.373  26.957   0.553
11339W        W76566  42.882   1.032  12.725
11340W        W76567  41.534  13.572  14.575
11341W        W76568  13.694   9.876   4.254
11342W        W76569  36.370  44.681   3.707
11343W        W76570  23.590   6.458  14.883
11344W        W76571  25.090  44.347  11.348
11345W        W76572  10.251   2.507   4.917
11346W        W76573   6.970  19.330   1.780
11347W        W76574  25.433  38.069   1.270
11348W        W76575  12.701  28.876  14.868
11349W        W76576  14.421   6.391  13.902
11350W        W76577   7.307  30.413  11.229
11351W        W76578   9.211  28.199   1.404
11352W        W76579  28.705  29.440   0.989
11353W        W76580   8.630  43.727  11.537
11354W        W76581  11.857  22.664  12.429
11355W        W76582  17.816   0.489  11.720
11356W        W76583  39.164  24.907   2.570
11357W        W76584  14.530  14.103  11.558
11358W        W76585   7.672  23.269   3.724
11359W        W76586   1.254  28.110   0.200
11360W        W76587  14.389   9.751  13.617
11361W        W76588  19.293   1.284   3.876
11362W        W76589   9.115   9.335  13.989
11363W        W76590  10.035  29.126   3.884
11364W        W76591   5.177   1.289  14.519
11365W        W76592  32.961  43.111   0.798
11366W        W76593  18.452  21.309  11.127
11367W        W76594  20.684  11.845   4.205
11368W        W76595  41.501  18.760   1.946
11369W        W76596  17.747  23.715   3.173
11370W        W76597   1.795  17.595  11.173
11371W        W76598  23.912  21.952  11.221
11372W        W76599  27.621  34.363   4.118
11373W        W76600  33.266  16.746   3.719
11374W        W76601  34.460  44.404   4.691
11375W        W76602   0.812  33.845  10.367
11376W        W76603  10.837  44.943  12.899
11377W        W76604  38.835  20.096  11.044
11378W        W76605  11.588  19.404  13.548
11379W        W76606  42.511  14.041   4.518
11380W        W76607   7.060  12.149  10.302
11381W        W76608  10.209   5.131   5.170
11382W        W76609  31.537   3.404   4.941
11383W        W76610  26.627  38.665  14.322
11384W        W76611  23.424  39.482   0.055
11385W        W76612   4.241  44.666   5.031
11386W        W76613  44.865  16.185   4.651
11387W        W76614  27.872   8.935   3.680
11388W        W76615  38.262  38.031  10.445
11389W        W76616  16.629  39.307   4.832
11390W        W76617  26.784  28.594   2.180
11391W        W76618  37.115  43.943  11.207
11392W        W76619  38.451   5.442   1.025
11393W        W76620  19.718   6.895   1.768
11394W        W76621  19.821  12.745   3.633
11395W        W76622  31.056  30.650   2.402
11396W        W76623  33.433  19.045   3.768
11397W        W76624   6.588  30.386  14.908
11398W        W76625  34.162   8.386   3.339
11399W        W76626  41.585  13.171   3.771
11400W        W76627  14.645  31.512   0.285
11401W        W76628  20.286  35.336  14.568
11402W        W76629  27.215   3.579  14.348
11403W        W76630  14.332  33.064   0.781
11404W        W76631  18.927  39.028  11.253
11405W        W76632  21.586  42.530   3.627
11406W        W76633  30.051  22.812   0.178
11407W        W76634  39.413  17.164   3.258
11408W        W76635  15.567  34.000   0.235
11409W        W76636   3.637  35.331  10.792
11410W        W76637  40.411  11.370   2.270
11411W        W76638  37.501  40.738   3.286
11412W        W76639  13.784  40.557  13.422
11413W        W76640  33.842  23.583  10.326
11414W        W76641   4.811   0.769  13.132
11415W        W76642  37.651  17.773  11.575
11416W        W76643  17.909   1.982   4.103
11417W        W76644   3.960  28.730  11.106
11418W        W76645  25.430  44.706   0.309
11419W        W76646  10.313   5.927  14.996
11420W        W76647  35.465  25.965   4.481
11421W        W76648  35.193   8.207   2.108
11422W        W76649  28.181   8.074  14.014
11423W        W76650  39.853   0.907   3.333
11424W        W76651  16.384  36.998   2.426
11425W        W76652  31.704   4.523  12.094
11426W        W76653  26.356  27.086  14.884
11427W        W76654   1.962  17.218   2.824
11428W        W76655   3.343  25.725  11.096
11429W        W76656  30.724  42.268  13.116
11430W        W76657   1.898  38.185  11.552
11431W        W76658  36.050   4.752   0.344
11432W        W76659  19.209  42.395   4.718
11433W        W76660   8.226   0.591  12.017
11434W        W76661  39.873  43.731  12.328
11435W        W76662   9.830  29.635  14.882
11436W        W76663  30.633   4.682  12.754
11437W        W76664  28.413  34.003  12.137
11438W        W76665  30.034  11.393  12.406
11439W        W76666   9.732  36.590  14.368
11440W        W76667   1.323   2.714   1.955
11441W        W76668   4.245  23.396   2.410
11442W        W76669   6.635  19.757  13.804
11443W        W76670  35.574  14.625   1.792
11444W        W76671  42.396  34.086   1.505
11445W        W76672  27.525  11.444  14.868
11446W        W76673  29.589  20.454   1.353
11447W        W76674   4.821  26.292   2.238
11448W        W76675  31.854  24.578   0.534
11449W        W76676  24.183   6.474   3.243
11450W        W76677  32.816  34.724  12.364
11451W        W76678  30.518  28.833   3.747
11452W        W76679  17.416   2.228  12.430
11453W        W76680  27.598  19.979   0.788
11454W        W76681  21.922   3.896   1.224
11455W        W76682  27.233  30.727   4.500
11456W        W76683  41.689  27.761   4.140
11457W        W76684  43.456  28.681   0.962
11458W        W76685  30.433   3.610  14.950
11459W        W76686  38.370  40.426  10.718
11460W        W76687   9.874  35.755  10.695
11461W        W76688   6.071  15.207   3.562
11462W        W76689  19.801  36.043   0.383
11463W        W76690  10.330  42.294   4.179
11464W        W76691  14.616   9.463   3.205
11465W        W76692  18.909  25.188   0.926
11466W        W76693  25.134  11.114  14.401
11467W        W76694  22.004  31.865   3.163
11468W        W76695  24.180  18.547   3.159
11469W        W76696  11.727  32.186  11.649
11470W        W76697  35.308  24.400   3.184
11471W        W76698  43.382  20.337   1.473
11472W        W76699  29.330  25.606   1.386
11473W        W76700  44.718  37.854  11.564
11474W        W76701  10.149  26.176  14.277
11475W        W76702  36.856   3.912   0.782
11476W        W76703  14.638  17.657   4.294
11477W        W76704  27.266   9.421   4.135
11478W        W76705   8.415  19.088  13.053
11479W        W76706  28.416  38.443  14.207
11480W        W76707  35.676  20.821  11.195
11481W        W76708  36.385  14.570   1.417
11482W        W76709   5.386  11.393  13.814
11483W        W76710   9.353  40.543  13.492
11484W        W76711   5.808  24.457  11.631
11485W        W76712   1.850  31.664   2.215
11486W        W76713  40.291  43.156   3.239
11487W        W76714   4.180  16.697   2.678
11488W        W76715   5.449  39.889  13.699
11489W        W76716  11.940  39.299   4.288
11490W        W76717  31.505  34.331  13.350
11491W        W76718  27.339  42.122  11.252
11492W        W76719  13.122  21.074  10.850
11493W        W76720   8.187  14.075  12.619
11494W        W76721  33.871  19.721  12.066
11495W        W76722  11.895   4.699  11.260
11496W        W76723  14.339  19.029  13.842
11497W        W76724  13.672  25.883  13.480
11498W        W76725  20.216  16.900   1.392
11499W        W76726  25.512  22.436   0.336
11500W        W76727  27.475  21.592  14.771
11501W        W76728  41.939  16.666   2.294
11502W        W76729  15.066  24.566  13.453
11503W        W76730  28.995  38.325  12.198
11504W        W76731  41.301   3.885  13.518
11505W        W76732  44.313  17.002  11.091
11506W        W76733  31.626  25.795   1.750
11507W        W76734  29.627   0.328  14.357
11508W        W76735   6.426  31.383  14.121
11509W        W76736  11.261  31.433  10.654
11510W        W76737  28.474  43.057  11.074
11511W        W76738   8.480   7.384  11.154
11512W        W76739  40.394  37.479   5.039
11513W        W76740  12.056  11.160   2.363
11514W        W76741  15.261   2.619  13.477
11515W        W76742  30.705   5.179  11.514
11516W        W76743   4.755  32.309   0.350
11517W        W76744   4.227  41.116   2.370
11518W        W76745  30.548  12.283  10.132
11519W        W76746  30.421  21.196  11.531
11520W        W76747   1.582  22.384   0.910
11521W        W76748  36.441   5.933  14.802
11522W        W76749  22.198  30.909  13.895
11523W        W76750   9.730  25.950  12.479
11524W        W76751  12.701  42.532  13.028
11525W        W76752  15.813  19.365   1.384
11526W        W76753  25.630  37.269   1.824
11527W        W76754  19.298  40.507  12.993
11528W        W76755  41.882   5.642   5.390
11529W        W76756   9.923  37.685  11.911
11530W        W76757  15.745  34.417  14.285
11531W        W76758  24.692  20.886  12.010
11532W        W76759  28.763  13.706   5.182
11533W        W76760  15.099  20.355   1.013
11534W        W76761  42.349  10.435  12.427
11535W        W76762  35.298   9.775   3.683
11536W        W76763   3.795  22.811  12.116
11537W        W76764  33.983  22.097   4.356
11538W        W76765   7.901  34.296  11.678
11539W        W76766  38.154  16.101  10.603
11540W        W76767   0.338  20.995  14.318
11541W        W76768   8.152  26.628   1.003
11542W        W76769  22.932  38.208  12.491
11543W        W76770  16.242  17.581   1.423
11544W        W76771  12.364  36.885   4.611
11545W        W76772  42.693  26.465   1.852
11546W        W76773  18.664  22.014  14.804
11547W        W76774   8.063   1.412   4.065
11548W        W76775  40.208  29.654  10.710
11549W        W76776   8.382  28.222   1.791
11550W        W76777  42.162   6.395   3.197
11551W        W76778   2.954  23.275   2.936
11552W        W76779  30.546  21.461   4.671
11553W        W76780   8.844   5.359   1.862
11554W        W76781   2.704   0.490  14.819
11555W        W76782   0.133  31.675  12.818
11556W        W76783  34.649  25.677  13.511
11557W        W76784  32.209  40.925   3.228
11558W        W76785  11.740   6.407   4.820
11559W        W76786   0.933   6.728  14.459
11560W        W76787  26.496  19.573  13.955
11561W        W76788  32.546  26.138   3.174
11562W        W76789   3.253   1.278  13.928
11563W        W76790   9.389  41.474   1.854
11564W        W76791  34.050   0.882   1.036
11565W        W76792  11.358  34.616  11.478
11566W        W76793  10.698  20.430   1.473
11567W        W76794   5.417  19.379   0.955
11568W        W76795  25.409  39.683  14.930
11569W        W76796  30.838  19.713  10.225
11570W        W76797   8.052  21.129  11.630
11571W        W76798  34.642  41.846   0.359
11572W        W76799  43.237  22.205  13.885
11573W        W76800   7.904  39.999   1.178
11574W        W76801   3.032  14.405  11.646
11575W        W76802  36.852  21.513  12.083
11576W        W76803  26.083  20.488  13.424
11577W        W76804  28.010  20.678  14.807
11578W        W76805  39.391   2.923   1.159
11579W        W76806  26.735  29.371   1.036
11580W        W76807  27.871  37.614  14.379
11581W        W76808  33.574  23.685  12.847
11582W        W76809  12.023   7.339   1.288
11583W        W76810   8.184  17.848  14.957
11584W        W76811  18.016  20.629   3.946
11585W        W76812  42.283   1.937  14.792
11586W        W76813  38.236  30.528  10.648
11587W        W76814  21.128   4.304  13.793
11588W        W76815  22.607  28.858  13.922
11589W        W76816  29.524  19.995  13.464
11590W        W76817  14.200   9.198  14.620
11591W        W76818  35.277  18.694   3.779
11592W        W76819  35.068  42.803  11.809
11593W        W76820  31.891  38.043  13.018
11594W        W76821  14.537  30.088   0.398
11595W        W76822  26.996  33.707  14.434
11596W        W76823  17.633  19.766  11.849
11597W        W76824  33.990  28.236  12.491
11598W        W76825  27.677  44.892   3.581
11599W        W76826  16.889  39.987   4.232
11600W        W76827  23.974  11.309  14.816
11601W        W76828  34.381  42.956   0.793
11602W        W76829  22.527  37.914  12.785
11603W        W76830  39.839  39.011  10.582
11604W        W76831  16.311  21.600   1.621
11605W        W76832  34.899  18.834  14.393
11606W        W76833  22.085  34.641  10.502
11607W        W76834  20.722  39.231   1.795
11608W        W76835  40.309   6.568   2.980
11609W        W76836  26.936  24.152   1.547
11610W        W76837  20.689  37.970   1.314
11611W        W76838   3.420  15.259   0.489
11612W        W76839  14.509  40.644   1.761
11613W        W76840  33.987   9.382  12.048
11614W        W76841  36.495  10.549  10.797
11615W        W76842   4.777  40.294  13.727
11616W        W76843   9.416  35.187  11.254
11617W        W76844  32.045   6.703  11.583
11618W        W76845  12.437  28.557   3.715
11619W        W76846  33.400  22.938   2.356
11620W        W76847   0.275   0.367   1.180
11621W        W76848  11.078  17.482   4.502
11622W        W76849  14.239  33.346  11.987
11623W        W76850   7.644  43.371   1.275
11624W        W76851  17.019  19.203   3.054
11625W        W76852  21.236  14.588   0.246
11626W        W76853  40.054  33.598  14.693
11627W        W76854   6.218  11.972   3.105
11628W        W76855  40.338  34.678  12.236
11629W        W76856   8.526  27.824  11.529
11630W        W76857  16.654  23.645  11.632
11631W        W76858  13.251  32.546   3.133
11632W        W76859  19.841  30.473   3.776
11633W        W76860  22.655   1.567   2.501
11634W        W76861  34.088  16.726   0.748
11635W        W76862  13.936  24.471   0.933
11636W        W76863  28.498  16.811   4.567
11637W        W76864  42.338   6.225   0.332
11638W        W76865  11.216   6.726  11.932
11639W        W76866  41.551  44.764  12.463
11640W        W76867  41.293   2.747  13.487
11641W        W76868  24.782  43.762   4.047
11642W        W76869   9.635  27.221   0.194
11643W        W76870   8.907  43.962  13.838
11644W        W76871  11.124  37.195   4.077
11645W        W76872  16.169  41.961   3.605
11646W        W76873   9.615  33.136  10.137
11647W        W76874   4.784   9.437  12.169
11648W        W76875  39.781   2.857  14.466
11649W        W76876  30.507   0.973   2.115
11650W        W76877  42.307   4.252  12.483
11651W        W76878  35.207  25.838  12.701
11652W        W76879  40.309  29.402   1.174
11653W        W76880  36.673  16.507  13.125
11654W        W76881  36.292  21.060   4.343
11655W        W76882  27.648   2.482  14.955
11656W        W76883  42.930  44.920  14.743
11657W        W76884  12.442  36.088  12.400
11658W        W76885   5.467  27.850  13.746
11659W        W76886   4.026  24.749  13.475
11660W        W76887   6.232  11.778   3.773
11661W        W76888  16.554  19.108  11.628
11662W        W76889  18.127  40.615  13.368
11663W        W76890  36.686  11.794  14.784
11664W        W76891  18.296  43.883   3.705
11665W        W76892   5.787   0.290  14.885
11666W        W76893  37.970  24.143   3.721
11667W        W76894  12.350  33.869  10.294
11668W        W76895  28.427  41.592   4.994
11669W        W76896  21.647   3.441   1.243
11670W        W76897  13.108  19.960  14.913
11671W        W76898  23.938  11.179  12.115
11672W        W76899  24.700  24.552   3.745
11673W        W76900   4.973   3.624  12.023
11674W        W76901   7.526   7.696  11.101
11675W        W76902  34.876  26.093  10.718
11676W        W76903  26.917  36.849   4.824
11677W        W76904  23.348  43.103  14.011
11678W        W76905  16.165  27.788  11.517
11679W        W76906  33.501   8.993   3.162
11680W        W76907  34.137  14.665  11.616
11681W        W76908  29.936  31.308  14.167
11682W        W76909  24.419   5.205   2.893
11683W        W76910  33.034  27.489   2.887
11684W        W76911  20.116   0.848   1.083
11685W        W76912  26.533  38.961  11.409
11686W        W76913  27.157  38.306   1.626
11687W        W76914  12.663  16.718  14.805
11688W        W76915  18.044  34.892   3.205
11689W        W76916  29.453  17.997  12.569
11690W        W76917  36.359  16.997   4.994
11691W        W76918  29.359  37.122   2.754
11692W        W76919  11.443  30.396   4.184
11693W        W76920  34.651  21.566   3.183
11694W        W76921  12.544  29.330  14.046
11695W        W76922  30.790   0.067  11.560
11696W        W76923   5.516   5.892   1.913
11697W        W76924  10.475  19.142  12.189
11698W        W76925  10.362  39.592  10.020
11699W        W76926  17.422  32.065   3.944
11700W        W76927  30.451  23.798  10.955
11701W        W76928  21.233   0.591  11.998
11702W        W76929  25.547   3.940   1.475
11703W        W76930   1.468  15.083  13.992
11704W        W76931  37.871   9.833  14.420
11705W        W76932  35.857  24.844  11.875
11706W        W76933   0.067   9.620   4.528
11707W        W76934  15.820  18.902   4.718
11708W        W76935  17.279  10.355   4.316
11709W        W76936  36.244  29.390  13.861
11710W        W76937  17.309   6.865  14.200
11711W        W76938  39.220  17.636  12.889
11712W        W76939  41.348  15.299  12.902
11713W        W76940   2.403  38.391  13.458
11714W        W76941  14.777  20.166   2.970
11715W        W76942   2.848  23.654   2.599
11716W        W76943  40.763   1.881   3.251
11717W        W76944  30.395  25.980  12.133
11718W        W76945  19.036  34.302   4.354
11719W        W76946  30.875   2.936  14.083
11720W        W76947  12.553  21.691  12.392
11721W        W76948  29.134  34.293  14.428
11722W        W76949  18.781  27.253   1.703
11723W        W76950  29.676   4.497   0.721
11724W        W76951  36.527  43.050  14.828
11725W        W76952  14.198  26.460  13.846
11726W        W76953  14.667   1.772   4.654
11727W        W76954  19.874  10.733   0.345
11728W        W76955  28.627  30.873  12.453
11729W        W76956  19.451  26.789   0.291
11730W        W76957  33.390  27.497   1.368
11731W        W76958  38.288  17.727  14.018
11732W        W76959  29.516  14.113  14.007
11733W        W76960  16.983  38.487   2.775
11734W        W76961  33.314  41.776   3.499
11735W        W76962  34.455  35.409  13.436
11736W        W76963  42.058  34.361  12.479
11737W        W76964  44.016  24.026  13.525
11738W        W76965  17.666  21.784  11.001
11739W        W76966   8.233  16.102  13.920
11740W        W76967  12.973  22.403   0.038
11741W        W76968  21.041   2.298  11.166
11742W        W76969  37.418  18.782  10.795
11743W        W76970  44.249  23.469  10.908
11744W        W76971   6.641  26.125   2.581
11745W        W76972  14.321  26.032  12.940
11746W        W76973  43.210  43.323  12.741
11747W        W76974  33.762  18.306  14.980
11748W        W76975  13.479  21.378  13.260
11749W        W76976  31.456   2.337  11.092
11750W        W76977  43.507   5.417  10.711
11751W        W76978  26.702  30.663  12.331
11752W        W76979  39.411  32.015  11.492
11753W        W76980   5.999  10.628  11.419
11754W        W76981  28.936  12.183   3.373
11755W        W76982  28.915  21.607   0.917
11756W        W76983  42.493   1.383  10.723
11757W        W76984  33.755   0.162   3.233
11758W        W76985  17.259  12.387   2.919
11759W        W76986  36.718  42.280   4.512
11760W        W76987  13.982   8.348   3.708
11761W        W76988  31.901  42.244   0.197
11762W        W76989   9.300  21.949  14.591
11763W        W76990   6.482  32.147   2.536
11764W        W76991  36.281   1.314  11.121
11765W        W76992  42.686  18.526   3.177
11766W        W76993  44.812   3.708   4.983
11767W        W76994  16.526  35.121  13.478
11768W        W76995  37.322  37.574   9.988
11769W        W76996  33.634  36.917  13.486
11770W        W76997  21.803   2.094  12.537
11771W        W76998  21.565   7.872   2.647
11772W        W76999   9.814  14.797  12.965
11773W        W77000   7.416  15.230   1.979
11774W        W77001   1.701  23.324  12.674
11775W        W77002  19.589  13.911   1.452
11776W        W77003  42.874  38.618   1.324
11777W        W77004  21.234   3.054  12.224
11778W        W77005  44.926  11.844   4.536
11779W        W77006  42.816  10.324   0.247
11780W        W77007   2.291  30.125  12.831
11781W        W77008  10.228  30.172   3.713
11782W        W77009  29.819  31.370   1.758
11783W        W77010   6.042   9.684  11.809
11784W        W77011  18.002  13.052  14.837
11785W        W77012   5.493  22.519   1.685
11786W        W77013  11.522   9.426  12.956
11787W        W77014   7.218  19.478   0.452
11788W        W77015  18.075  13.905   2.738
11789W        W77016  41.409  18.659   0.494
11790W        W77017   2.231  13.079  14.828
11791W        W77018   5.923  28.495   0.016
11792W        W77019  42.396  13.817  14.544
11793W        W77020  18.900   4.745  12.893
11794W        W77021  24.732   6.977  13.619
11795W        W77022  12.111  42.661  14.377
11796W        W77023  41.875  17.199   2.274
11797W        W77024  26.181  19.495  14.404
11798W        W77025  23.664   3.375   3.957
11799W        W77026  32.416   3.800  11.974
11800W        W77027   2.790  44.010  13.699
11801W        W77028  32.733  28.361  10.669
11802W        W77029   8.222  16.529   0.331
11803W        W77030  23.482  31.494  12.008
11804W        W77031  40.277  34.656  12.776
11805W        W77032  19.858  41.856  14.886
11806W        W77033   3.233   3.233   1.973
11807W        W77034  20.522  29.288   3.671
11808W        W77035  19.132  17.398  14.740
11809W        W77036  33.002  35.960  10.584
11810W        W77037  14.946  43.294   4.935
11811W        W77038  18.755   7.770  14.251
11812W        W77039  39.575  44.030   4.108
11813W        W77040  18.080  43.955  11.597
11814W        W77041  39.999  10.754  11.214
11815W        W77042  11.811  20.968   3.808
11816W        W77043  28.638   4.978  12.036
11817W        W77044  15.610  33.968   2.423
11818W        W77045   3.708  32.553   0.425
11819W        W77046  14.857   0.446   3.491
11820W        W77047   3.065   0.638   4.026
11821W        W77048   3.495   5.668   2.228
11822W        W77049  28.384  22.829   1.768
11823W        W77050  29.099  31.288  14.892
11824W        W77051  36.520  40.943   0.266
11825W        W77052   1.136  20.478  12.091
11826W        W77053   1.136  25.439   0.357
11827W        W77054  30.722  30.891   4.061
11828W        W77055  41.324  35.457   4.689
11829W        W77056  39.908  42.029  10.769
11830W        W77057  18.343  44.785   4.709
11831W        W77058  15.199  10.076   2.610
11832W        W77059  33.047  36.615  14.323
11833W        W77060  16.588  35.905   0.801
11834W        W77061   1.655  27.313  14.945
11835W        W77062  41.534  42.063  12.880
11836W        W77063   2.775  18.011   3.689
11837W        W77064   2.198  19.862  10.820
11838W        W77065  26.658  40.028  11.531
11839W        W77066  33.088   1.602  13.412
11840W        W77067  15.509  39.147   2.408
11841W        W77068  15.562  18.338   0.434
11842W        W77069  24.014  40.033  13.455
11843W        W77070  14.557  24.967  11.172
11844W        W77071  29.400   3.693   4.420
11845W        W77072  34.292  41.523  11.809
11846W        W77073  29.094  27.381  13.909
11847W        W77074  20.625  38.112  10.815
11848W        W77075  33.961  22.776  11.980
11849W        W77076  16.779  26.668   3.257
11850W        W77077  17.221   3.439  11.209
11851W        W77078  19.723  18.545   2.851
11852W        W77079  16.068  42.451   1.827
11853W        W77080  14.620   1.358   3.714
11854W        W77081  43.584  41.067  14.418
11855W        W77082  36.351  21.505  13.523
11856W        W77083  44.666   4.062   3.859
11857W        W77084   1.238   9.800   0.026
11858W        W77085  43.538  41.608  11.269
11859W        W77086  29.166  22.613   3.629
11860W        W77087   9.900  24.543   3.160
11861W        W77088  33.687  18.583  13.370
11862W        W77089  41.592  41.469   0.809
11863W        W77090   8.656  29.644  14.127
11864W        W77091  40.952  41.821   4.351
11865W        W77092  15.693  37.462   3.217
11866W        W77093   6.256   0.466   4.841
11867W        W77094   0.851  37.297   2.425
11868W        W77095   2.225   8.860  12.181
11869W        W77096  38.646   7.904  12.635
11870W        W77097   4.862   1.709   2.078
11871W        W77098  20.235  39.056   2.225
11872W        W77099  11.628  27.791   1.751
11873W        W77100  15.892  44.007   3.359
11874W        W77101  10.626  30.505  13.330
11875W        W77102  26.131  12.833  12.776
11876W        W77103   2.239  31.129  14.769
11877W        W77104  22.265  30.342  12.034
11878W        W77105   9.614  41.658  12.121
11879W        W77106  38.483  18.144  11.579
11880W        W77107  30.693   7.713  11.376
11881W        W77108  10.699  44.274   3.217
11882W        W77109  35.299  19.668   1.446
11883W        W77110   8.147  32.438  13.503
11884W        W77111  32.333  35.501  10.847
11885W        W77112   3.557  44.326  12.581
11886W        W77113   8.312   8.927   0.345
11887W        W77114   3.187   7.151  11.724
11888W        W77115  21.157  41.117   1.905
11889W        W77116  22.596  28.213   1.261
11890W        W77117  30.483  27.950   0.406
11891W        W77118  28.593  26.108   2.368
11892W        W77119  23.296   9.657   1.253
11893W        W77120  39.523  35.412  13.133
11894W        W77121  29.402  15.708  10.878
11895W        W77122  16.080  21.040  14.779
11896W        W77123  23.098   4.677   2.783
11897W        W77124  23.465   3.945   2.670
11898W        W77125  41.610  31.137   1.356
11899W        W77126  21.062   7.870   2.802
11900W        W77127  27.688   1.474   4.896
11901W        W77128  27.207  10.319  10.627
11902W        W77129   6.362  13.650  14.771
11903W        W77130  29.906  41.498  13.108
11904W        W77131  31.438   4.966   3.635
11905W        W77132  13.078  22.608  14.139
11906W        W77133  20.609  22.927   3.933
11907W        W77134  32.174  22.093  12.935
11908W        W77135  33.106  26.908   0.549
11909W        W77136  31.189  13.469   2.526
11910W        W77137  22.925  10.675  10.448
11911W        W77138  38.535  32.419  14.407
11912W        W77139  13.399  31.613   4.594
11913W        W77140  15.185  21.669   4.189
11914W        W77141  23.203  36.957   0.884
11915W        W77142  36.564  27.982  14.286
11916W        W77143  43.671  44.437   4.100
11917W        W77144  31.964   5.936  12.065
11918W        W77145   4.170  23.965   3.677
11919W        W77146   0.917  10.097  14.461
11920W        W77147   0.256  37.755  14.982
11921W        W77148  15.630  30.663  10.573
11922W        W77149  29.796  28.116  12.386
11923W        W77150  42.445  17.216   3.137
11924W        W77151  24.637  38.110  12.118
11925W        W77152  25.112   9.613  12.375
11926W        W77153  43.407  23.966  14.339
11927W        W77154  24.159  24.321  10.867
11928W        W77155  18.971  28.117   4.570
11929W        W77156  29.385  41.431   2.117
11930W        W77157  36.830  33.163   1.433
11931W        W77158   0.007  14.979  11.129
11932W        W77159   3.884  34.125  12.258
11933W        W77160  38.502  31.181  14.814
11934W        W77161   3.758  36.852   2.445
11935W        W77162  25.402  42.924  11.610
11936W        W77163  39.566  20.557  13.116
11937W        W77164  43.029  39.005   4.573
11938W        W77165  28.837  37.713   1.174
11939W        W77166  15.001  43.682  12.003
11940W        W77167  14.066  13.344  12.480
11941W        W77168  40.418  24.187   1.473
11942W        W77169   2.932  33.036   1.751
11943W        W77170  33.511  18.524  11.452
11944W        W77171   1.610  31.672  14.590
11945W        W77172  19.147  26.303   0.981
11946W        W77173  40.469  25.991   2.686
11947W        W77174  38.561  38.459  10.437
11948W        W77175  27.823   3.845  11.547
11949W        W77176  34.443  15.082   4.244
11950W        W77177   7.229  21.498   1.332
11951W        W77178  44.520  17.190   2.071
11952W        W77179  20.568   9.364   3.908
11953W        W77180  33.866   9.941   3.750
11954W        W77181  22.879   7.198   4.515
11955W        W77182  13.124  28.239   2.560
11956W        W77183  18.292  43.858   4.638
11957W        W77184   3.143  39.109  12.631
11958W        W77185  21.762  42.779  14.369
11959W        W77186  42.515  13.220   0.292
11960W        W77187  39.539  13.360   1.010
11961W        W77188  11.229  36.148  13.495
11962W        W77189   2.408  15.358  12.038
11963W        W77190  19.137  13.973   3.103
11964W        W77191   8.482  27.098   1.833
11965W        W77192  21.378  23.268   0.379
11966W        W77193   6.878  33.236   4.154
11967W        W77194  14.137  34.864  11.155
11968W        W77195   4.936  14.328  12.932
11969W        W77196   0.547   4.476   2.393
11970W        W77197  25.004  16.688  12.987
11971W        W77198  28.186  25.436  11.983
11972W        W77199  25.371  16.062   0.428
11973W        W77200  31.856  31.654  14.809
11974W        W77201   7.212  10.081   4.737
11975W        W77202  13.149   0.782   3.648
11976W        W77203  29.437   7.809   0.876
11977W        W77204  35.951  35.963   4.798
11978W        W77205  43.258  10.633  11.001
11979W        W77206  27.649   4.000   3.415
11980W        W77207  11.630   8.880  10.757
11981W        W77208   8.501  38.802  13.880
11982W        W77209  28.196  11.341  10.707
11983W        W77210  38.943  31.234  10.764
11984W        W77211  34.499  33.667  12.925
11985W        W77212  21.034  17.075   2.357
11986W        W77213  42.504   4.380   3.624
11987W        W77214  32.227  44.797  10.791
11988W        W77215  32.602  32.144   2.327
11989W        W77216  26.091   9.683   3.584
11990W        W77217   1.648   8.746   3.826
11991W        W77218   5.227  11.450  12.489
11992W        W77219  43.399  21.238   0.008
11993W        W77220   9.299   3.756   0.411
11994W        W77221   2.408  44.843   0.596
11995W        W77222   7.114  15.243  14.740
11996W        W77223  13.772  14.063  10.612
11997W        W77224  24.229  19.053  12.340
11998W        W77225  11.793  25.426   0.711
11999W        W77226  17.397  18.087   0.212
12000W        W77227  12.678  27.877  12.078
12001W        W77228  24.214   9.198   4.799
12002W        W77229  19.588  44.118   2.263
12003W        W77230  24.177  30.981   1.802
12004W        W77231  42.951  12.701   0.944
12005W        W77232  18.011   7.306   1.465
12006W        W77233   9.468  38.270   1.198
12007W        W77234  10.754  16.810  12.047
12008W        W77235  36.702  36.304   4.562
12009W        W77236  32.666   6.495  12.254
12010W        W77237  20.574  33.308  10.559
12011W        W77238  43.874  11.268   1.766
12012W        W77239  32.669   4.622   1.716
12013W        W77240  18.558  11.576  12.017
12014W        W77241  40.789  15.113   1.446
12015W        W77242  37.855  36.896   2.808
12016W        W77243   1.417   9.488  14.663
12017W        W77244  27.053  44.939   4.609
12018W        W77245  24.994  23.708  12.503
12019W        W77246   4.149  18.575  14.936
12020W        W77247   7.609  27.723  10.578
12021W        W77248  34.123   7.929  13.545
12022W        W77249  20.336  41.338  11.197
12023W        W77250  37.446  15.617   4.932
12024W        W77251  23.443  17.901   3.268
12025W        W77252  29.851  33.032   0.199
12026W        W77253   1.418  12.382   1.189
12027W        W77254   6.255  42.048   2.306
12028W        W77255  31.643  44.288   1.229
12029W        W77256  30.458   7.725  10.921
12030W        W77257  26.957   5.367   3.540
12031W        W77258  41.238  12.793  11.032
12032W        W77259  28.502  37.856  10.677
12033W        W77260  44.814  40.044   4.925
12034W        W77261  19.931  25.602   5.182
12035W        W77262  32.679   1.681  12.593
12036W        W77263  39.524  16.355   1.972
12037W        W77264   4.358  21.292   4.042
12038W        W77265  23.065  17.837  13.137
12039W        W77266  13.571  11.841   0.584
12040W        W77267  17.362  29.373   4.987
12041W        W77268  15.582  10.670   0.665
12042W        W77269  36.276  33.054  11.587
12043W        W77270  41.250  35.501  13.522
12044W        W77271  43.716   4.983  14.890
12045W        W77272  25.271  27.177  10.729
12046W        W77273  24.448  16.017  12.594
12047W        W77274  19.858  11.650   3.217
12048W        W77275   5.942  32.258   4.359
12049W        W77276  11.398   4.748  11.119
12050W        W77277  29.559  34.084  14.640
12051W        W77278  27.409  27.414   0.863
12052W        W77279  39.716  13.442   2.642
12053W        W77280   2.483  44.909  11.981
12054W        W77281  14.165   0.089   1.939
12055W        W77282  43.448  40.343   2.487
12056W        W77283  20.627  27.106   1.804
12057W        W77284   8.854  43.882   4.701
12058W        W77285  12.159  26.428   0.491
12059W        W77286  29.723  13.099   3.094
12060W        W77287  20.534   3.081  14.307
12061W        W77288   9.301  30.079  11.733
12062W        W77289  28.137  22.289   0.643
12063W        W77290  24.119  31.635  11.042
12064W        W77291  21.760  18.878  10.560
12065W        W77292  36.078  23.142   2.500
12066W        W77293  37.701  16.086   1.792
12067W        W77294  15.635  42.325  10.777
12068W        W77295  35.870  40.076   0.252
12069W        W77296   1.211   5.937  13.513
12070W        W77297  18.651  32.534   0.851
12071W        W77298  35.416  11.766  13.123
12072W        W77299   9.221  25.756   3.667
12073W        W77300   7.889   1.381  14.087
12074W        W77301  40.636  21.968  12.151
12075W        W77302  12.377   1.177   1.369
12076W        W77303   3.550  42.656   0.339
12077W        W77304  16.273  34.538   3.569
12078W        W77305  10.213  11.732  12.486
12079W        W77306  29.412   0.464   1.672
12080W        W77307   2.495  25.125   1.826
12081W        W77308   6.096   4.884  12.528
12082W        W77309   1.492  37.024  11.486
12083W        W77310  27.188  17.790   9.752
12084W        W77311  12.850  43.378   4.559
12085W        W77312  44.174  38.323   1.549
12086W        W77313  34.309  23.673   1.317
12087W        W77314  16.499  18.176   2.462
12088W        W77315   2.863  35.427  14.491
12089W        W77316  35.640  24.247   4.180
12090W        W77317  32.295  23.508  13.172
12091W        W77318   7.464  21.757  13.594
12092W        W77319  41.380   2.728  11.024
12093W        W77320  19.182  20.353  11.470
12094W        W77321  10.332  43.594   3.657
12095W        W77322  25.221  31.026   4.269
12096W        W77323  20.768  23.522   2.208
12097W        W77324  22.213   3.524  13.495
12098W        W77325  13.704  32.307  13.750
12099W        W77326  16.041  39.321  12.604
12100W        W77327  21.656  31.665   1.534
12101W        W77328  22.183  37.555   2.332
12102W        W77329  41.898  20.122  13.925
12103W        W77330  17.584  35.049   2.751
12104W        W77331  43.014  36.840   4.232
12105W        W77332  20.713   5.815  14.797
12106W        W77333  13.117  38.603  11.155
12107W        W77334  33.895  37.207  14.348
12108W        W77335  25.245   3.464  13.602
12109W        W77336   7.940   9.628   1.346
12110W        W77337  11.907  37.509   0.790
12111W        W77338   9.836  39.799  12.620
12112W        W77339  17.654  33.424   1.391
12113W        W77340  27.739   4.779   2.750
12114W        W77341   9.281  38.650  11.593
12115W        W77342  16.333  28.754   0.542
12116W        W77343   5.761  13.298   3.190
12117W        W77344  36.623   7.059   4.003
12118W        W77345   1.910   1.699  14.779
12119W        W77346  26.709  29.516   2.300
12120W        W77347  15.023  14.169  10.313
12121W        W77348   6.981  40.952   4.641
12122W        W77349  32.358  42.926   2.941
12123W        W77350  32.015  27.905   0.792
12124W        W77351  26.542   3.870   1.120
12125W        W77352  44.510  12.669   0.903
12126W        W77353  16.874  19.996   0.281
12127W        W77354   9.341   4.751   1.312
12128W        W77355  18.763  22.570   2.667
12129W        W77356  20.330  24.103  11.990
12130W        W77357   5.371   0.530   4.475
12131W        W77358  23.703   6.193   1.607
12132W        W77359  34.111  14.916   2.701
12133W        W77360  11.926  15.996   1.136
12134W        W77361  20.021  34.031  14.840
12135W        W77362  25.544  23.559   2.275
12136W        W77363   0.861  42.452  12.864
12137W        W77364  30.984   8.156  11.418
12138W        W77365  32.081   3.700   3.696
12139W        W77366  24.571   4.642   2.312
12140W        W77367  10.294  27.150   0.847
12141W        W77368  10.686  27.250  12.354
12142W        W77369  25.711  18.525  13.057
12143W        W77370   6.539  22.345   0.520
12144W        W77371  25.822   2.924  12.943
12145W        W77372  16.318  17.249  13.066
12146W        W77373  31.481  43.894  11.545
12147W        W77374  17.325  28.871   3.212
12148W        W77375  33.468  28.496  12.425
12149W        W77376  16.567  18.871   3.616
12150W        W77377  43.079   8.934  11.639
12151W        W77378   1.261  13.138   1.595
12152W        W77379   4.029  41.905   3.277
12153W        W77380   6.226  20.643  12.566
12154W        W77381   0.852   8.241   1.366
12155W        W77382  24.025  13.444   4.499
12156W        W77383  20.248  35.213  12.066
12157W        W77384  30.530  17.079   3.114
12158W        W77385  24.549  23.118  10.943
12159W        W77386  27.900   3.584   3.211
12160W        W77387  19.935   4.388   1.816
12161W        W77388  24.048  12.399   2.210
12162W        W77389  10.203   5.749   1.437
12163W        W77390  11.709   3.725  14.075
12164W        W77391   5.628   5.868   3.334
12165W        W77392  21.330   0.684   0.853
12166W        W77393  25.590  20.752   3.280
12167W        W77394  17.551  19.709  11.360
12168W        W77395  19.285  18.191  12.360
12169W        W77396  14.794  21.229  10.653
12170W        W77397  36.515  28.164   3.324
12171W        W77398  37.326  32.513   5.111
12172W        W77399   2.906  29.723  10.692
12173W        W77400  25.695  35.969   2.900
12174W        W77401   3.761  11.056   0.432
12175W        W77402  16.637  32.580   4.250
12176W        W77403   7.983  16.655   3.130
12177W        W77404  39.582  29.690  14.833
12178W        W77405   6.105  39.995  12.524
12179W        W77406   4.394  34.410   2.441
12180W        W77407   5.281  23.913  13.349
12181W        W77408  44.559   2.975   3.807
12182W        W77409   5.884  10.117  14.993
12183W        W77410  31.187  16.157  13.019
12184W        W77411  15.842  20.781  13.549
12185W        W77412  37.329   4.193  14.458
12186W        W77413   6.025   1.810  11.829
12187W        W77414   8.675  32.250  13.600
12188W        W77415  13.075  23.767  14.076
12189W        W77416  12.144  25.740   2.340
12190W        W77417  39.398  40.464   4.479
12191W        W77418  12.423   5.195   4.618
12192W        W77419   8.723   4.778  12.392
12193W        W77420  15.798   0.450   1.171
12194W        W77421  18.786  15.192   2.867
12195W        W77422  17.314  21.900  12.176
12196W        W77423   6.791  36.582  13.837
12197W        W77424  28.376  26.657  13.009
12198W        W77425  40.056  38.416   4.958
12199W        W77426  32.621   9.843   2.829
12200W        W77427  35.212  35.179  12.446
12201W        W77428  14.963   2.724  13.040
12202W        W77429  23.759   5.002   4.531
12203W        W77430  21.693  23.141  12.230
12204W        W77431  26.597  27.099  13.300
12205W        W77432   1.278  14.696   3.236
12206W        W77433  18.315   8.167   3.285
12207W        W77434  25.951   8.920  12.396
12208W        W77435  34.012   6.748  13.902
12209W        W77436   7.219  27.028  12.113
12210W        W77437  18.211  43.954  13.738
12211W        W77438   3.432   6.181   2.146
12212W        W77439  22.957  13.366   4.079
12213W        W77440  22.588  18.996  11.165
12214W        W77441   7.713  31.660  12.859
12215W        W77442   5.472   6.240   4.756
12216W        W77443  23.686  22.698  11.167
12217W        W77444  11.458   8.901   2.291
12218W        W77445  20.341  41.250  12.148
12219W        W77446  30.462  18.849  14.015
12220W        W77447  22.732  20.959   4.956
12221W        W77448  41.804  38.348   1.898
12222W        W77449  16.673  30.831   3.603
12223W        W77450  43.601   5.674   3.007
12224W        W77451  41.929  11.129  12.161
12225W        W77452   9.789  10.687  12.491
12226W        W77453   2.881  26.146   1.006
12227W        W77454  19.861  31.513   1.929
12228W        W77455   5.791  28.755  11.135
12229W        W77456  40.053  34.121   2.773
12230W        W77457  10.236   8.296   2.635
12231W        W77458  42.979  41.025   1.885
12232W        W77459  20.618  42.955   3.114
12233W        W77460  40.764  40.904  10.797
12234W        W77461  33.906  13.987  13.819
12235W        W77462  25.192   9.385   2.356
12236W        W77463  35.156  37.379   5.015
12237W        W77464   0.427  41.546  11.150
12238W        W77465  23.281  21.460   1.864
12239W        W77466  38.379   4.416   0.408
12240W        W77467  29.406  36.688  10.726
12241W        W77468  12.593  13.863   1.831
12242W        W77469  40.478  36.544  12.975
12243W        W77470  29.205  13.002   3.160
12244W        W77471  19.512  30.520  11.733
12245W        W77472  14.724  26.144  10.792
12246W        W77473  19.490  43.390   4.964
12247W        W77474  17.073  33.937  10.831
12248W        W77475  15.534  37.616   1.826
12249W        W77476   1.274  13.640  13.979
12250W        W77477  33.989  40.310   2.686
12251W        W77478  13.128  34.947  14.339
12252W        W77479  20.964   3.241  10.834
12253W        W77480  44.010   7.796   0.367
12254W        W77481  43.991  42.359  13.282
12255W        W77482  38.151  13.291  14.832
12256W        W77483  15.015   0.775  12.849
12257W        W77484  23.711  17.702   0.695
12258W        W77485  27.059  12.868  13.078
12259W        W77486  18.725  19.509   2.731
12260W        W77487  32.141  26.700  13.555
12261W        W77488   8.187  22.912  11.187
12262W        W77489   5.694  30.459  11.913
12263W        W77490  12.297  32.225   0.312
12264W        W77491   0.324  19.089   1.629
12265W        W77492  44.491   4.703  12.796
12266W        W77493  13.293  44.190  12.012
12267W        W77494  44.988  30.729   3.635
12268W        W77495   8.040  32.678  10.179
12269W        W77496  28.204  31.723  10.694
12270W        W77497  38.827  32.574   2.430
12271W        W77498  31.861  32.576  12.978
12272W        W77499   4.743  42.739   2.235
12273W        W77500  19.269  21.256   3.756
12274W        W77501   6.913  17.520  12.523
12275W        W77502   5.974  21.535  11.563
12276W        W77503  28.317  12.153   1.816
12277W        W77504  35.961  32.371   3.217
12278W        W77505  34.580  21.697  10.594
12279W        W77506  28.961  22.225   1.892
12280W        W77507  44.186  27.860  12.147
12281W        W77508  44.503   5.949   0.871
12282W        W77509  24.570  38.994   3.259
12283W        W77510  27.604   4.571   4.876
12284W        W77511  33.869  26.538   0.780
12285W        W77512  23.547  29.578   0.283
12286W        W77513  40.342   4.713   3.269
12287W        W77514  23.341  30.591   1.877
12288W        W77515  34.255  26.662  10.713
12289W        W77516  27.395  44.644  12.535
12290W        W77517   7.333  19.836   0.852
12291W        W77518  28.433  11.609   4.965
12292W        W77519  17.212  36.357  10.463
12293W        W77520  28.367   6.187  14.699
12294W        W77521  22.789  34.783   0.065
12295W        W77522  23.578  40.023   3.497
12296W        W77523   8.780  38.135   0.450
12297W        W77524  31.919  13.814  12.057
12298W        W77525   6.194  40.151  10.826
12299W        W77526  14.650  10.375   3.245
12300W        W77527  25.954   7.969   0.812
12301W        W77528  42.274   4.916  12.028
12302W        W77529   1.158   0.279  11.815
12303W        W77530  17.738  18.077  10.701
12304W        W77531  30.745  17.767   1.765
12305W        W77532  33.588  26.984  10.365
12306W        W77533  37.905  42.513   0.619
12307W        W77534   5.021  31.685   4.933
12308W        W77535  17.789  32.616  10.662
12309W        W77536  38.501  15.301   0.346
12310W        W77537  33.901   6.942   2.687
12311W        W77538   2.750  37.212   1.308
12312W        W77539  25.016  12.967   1.873
12313W        W77540  11.620  36.889  13.429
12314W        W77541   3.948  29.376   1.989
12315W        W77542  42.027  21.665  11.576
12316W        W77543   7.224  22.100  12.962
12317W        W77544  44.441  44.778   0.380
12318W        W77545  39.426  33.957   1.691
12319W        W77546  40.480   1.850   0.396
12320W        W77547   6.868  25.084  13.416
12321W        W77548  22.573   6.167  13.797
12322W        W77549  41.970  23.893  13.567
12323W        W77550  40.735   9.628  12.026
12324W        W77551  18.158   3.558   4.868
12325W        W77552  37.616  17.786   2.253
12326W        W77553  33.338  18.966  13.311
12327W        W77554  16.526  37.894  10.597
12328W        W77555  43.536   6.350  13.560
12329W        W77556  10.055   0.263  12.338
12330W        W77557  12.305  17.066   4.118
12331W        W77558  20.796   9.787   3.687
12332W        W77559   6.158   3.420  13.389
12333W        W77560  37.617  43.840   1.774
12334W        W77561  12.130  41.904  11.211
12335W        W77562   9.929  13.812   3.684
12336W        W77563  38.786   2.488   2.306
12337W        W77564  31.508   8.386   2.776
12338W        W77565  43.822   9.298   2.974
12339W        W77566  21.984  17.791   3.315
12340W        W77567  38.003  26.642  10.298
12341W        W77568  33.859  24.579   4.331
12342W        W77569  37.300   9.937  12.013
12343W        W77570  26.674   8.082  13.416
12344W        W77571   8.855  25.013  10.734
12345W        W77572  32.039   2.341  10.733
12346W        W77573  13.389  34.044   2.176
12347W        W77574   3.171   5.506   0.388
12348W        W77575  27.646  16.510   4.190
12349W        W77576  20.078   3.766   1.512
12350W        W77577  22.907  43.120   4.860
12351W        W77578   7.766  42.541   0.708
12352W        W77579  24.289   0.416  11.739
12353W        W77580  27.949   5.841   3.915
12354W        W77581  34.911  33.987  14.765
12355W        W77582  17.541  35.557  12.664
12356W        W77583  25.712  40.432  12.547
12357W        W77584  12.744   9.577  11.168
12358W        W77585  44.587  36.292   2.675
12359W        W77586  40.960   6.617  11.741
12360W        W77587  40.433  39.643   1.529
12361W        W77588  37.354  24.278   2.192
12362W        W77589  19.155   4.344  10.985
12363W        W77590  16.541  33.577  12.849
12364W        W77591  12.547  31.300  12.095
12365W        W77592  11.406  30.447   2.215
12366W        W77593  23.071  23.186   4.820
12367W        W77594  31.663   0.250   3.381
12368W        W77595  23.211  23.634   1.641
12369W        W77596  21.264  17.098  12.803
12370W        W77597  28.610  41.998  11.564
12371W        W77598  36.545  37.191  14.761
12372W        W77599  10.197  11.175  10.736
12373W        W77600  13.111  42.781  13.758
12374W        W77601  44.505  26.443   4.583
12375W        W77602  26.237  42.482  10.672
12376W        W77603  17.714  12.725   1.502
12377W        W77604  22.214  24.609  11.442
12378W        W77605  41.440  26.534  14.984
12379W        W77606   2.836  37.385   3.115
12380W        W77607  32.113  35.683  12.564
12381W        W77608  11.846  25.767  14.731
12382W        W77609  39.378  36.354   0.852
12383W        W77610  43.883  31.376   1.614
12384W        W77611  19.758  37.981   3.292
12385W        W77612  42.225  27.913   3.738
12386W        W77613  13.715   6.418   4.124
12387W        W77614  28.755  39.236  11.138
12388W        W77615  13.541  44.567   4.602
12389W        W77616  37.540   3.713  13.337
12390W        W77617  11.205  30.639  10.194
12391W        W77618  20.843  10.990  13.542
12392W        W77619  29.063  16.026   5.492
12393W        W77620  33.659  39.472   0.844
12394W        W77621  18.791  42.832   3.637
12395W        W77622  38.569   7.475  10.779
12396W        W77623  38.790  13.789  12.082
12397W        W77624  24.514  39.373  14.900
12398W        W77625  12.999  16.041  10.772
12399W        W77626  10.215  11.705  13.413
12400W        W77627  43.573   2.921   3.121
12401W        W77628   1.972  21.656   2.872
12402W        W77629  44.966  30.435   3.188
12403W        W77630  25.062  10.155   1.291
12404W        W77631  22.654  30.465   4.051
12405W        W77632  15.297  25.142  14.706
12406W        W77633  44.284  37.848   4.068
12407W        W77634  43.026   6.264   4.228
12408W        W77635  17.705   5.965   3.129
12409W        W77636  13.350  44.869   0.771
12410W        W77637  16.190  43.571   3.624
12411W        W77638  42.289  12.721  12.360
12412W        W77639  42.414   8.249   2.959
12413W        W77640  13.514  29.622   1.155
12414W        W77641   4.710   5.200   1.820
12415W        W77642   5.325  29.869  11.725
12416W        W77643  38.408  12.095  13.819
12417W        W77644   8.360  39.057  14.413
12418W        W77645  16.165  20.624  13.150
12419W        W77646  34.359  18.748  11.414
12420W        W77647  38.339   0.965  13.341
12421W        W77648  16.156  24.078   0.415
12422W        W77649  29.540  18.820  13.001
12423W        W77650  23.568   0.367   3.004
12424W        W77651  39.913  14.754   4.298
12425W        W77652  12.880  13.738  11.297
12426W        W77653  23.509  17.117   0.961
12427W        W77654  18.193  44.761   3.446
12428W        W77655  39.873  41.866  13.358
12429W        W77656   1.409  20.313  11.028
12430W        W77657   9.523   8.488   1.587
12431W        W77658  40.901  30.147  13.294
12432W        W77659  20.764  14.816  13.807
12433W        W77660  27.113  28.709   4.696
12434W        W77661  31.123  11.261  10.993
12435W        W77662  44.235   1.860   2.838
12436W        W77663  31.234  36.746  12.584
12437W        W77664  40.360   4.651  13.266
12438W        W77665  35.787  32.658  13.848
12439W        W77666   8.855   3.462   0.430
12440W        W77667  34.046  30.662  13.604
12441W        W77668  36.064  33.900  11.440
12442W        W77669  10.797  15.596  13.850
12443W        W77670  33.819   7.497   4.207
12444W        W77671   1.792   4.801  10.769
12445W        W77672  25.996   1.516  14.053
12446W        W77673  32.021  23.760  10.251
12447W        W77674  25.483  30.578   1.134
12448W        W77675  11.226  41.563  10.974
12449W        W77676  28.172   6.759   1.553
12450W        W77677  40.585   3.362   3.231
12451W        W77678  42.113   1.788  14.001
12452W        W77679   2.210  11.857  13.281
12453W        W77680  44.124   6.889   2.724
12454W        W77681  27.931  11.234  11.961
12455W        W77682  38.932  41.789   2.335
12456W        W77683  29.025  15.681   0.236
12457W        W77684  13.039   8.847  12.091
12458W        W77685  38.854   5.193   0.822
12459W        W77686  16.418   3.000  10.437
12460W        W77687   1.522  26.600   3.334
12461W        W77688   9.926  36.365  13.551
12462W        W77689   8.245  21.856  12.984
12463W        W77690  43.970  38.328   0.888
12464W        W77691  15.743   2.199   2.767
12465W        W77692  39.882  32.957   3.815
12466W        W77693  21.158  30.368  13.099
12467W        W77694   2.926  17.745  10.733
12468W        W77695  36.079  40.899  14.488
12469W        W77696   8.419   8.743  12.429
12470W        W77697   2.157  19.111   4.056
12471W        W77698  11.774   3.122  14.960
12472W        W77699  10.385  23.684  14.296
12473W        W77700   1.734  34.645   2.254
12474W        W77701  21.989  22.446   4.662
12475W        W77702  35.029  38.099   1.066
12476W        W77703   1.016   1.020  13.496
12477W        W77704  30.019   6.689  14.314
12478W        W77705  17.182   5.046   4.199
12479W        W77706   9.962  28.181  13.731
12480W        W77707  26.453   0.237  14.808
12481W        W77708   6.023  31.933  10.747
12482W        W77709   7.520   1.087  12.418
12483W        W77710  12.251   6.371   1.299
12484W        W77711  35.166  39.273   0.314
12485W        W77712   7.347  25.106   0.640
12486W        W77713  12.945  27.630   3.257
12487W        W77714  19.646   1.712   4.312
12488W        W77715  14.356  31.198   2.357
12489W        W77716  38.735  23.612  10.043
12490W        W77717  27.538  17.264   2.095
12491W        W77718  24.773  20.480   2.588
12492W        W77719  39.936  39.392  12.812
12493W        W77720  31.080  43.189   2.893
12494W        W77721   7.955   0.460   0.332
12495W        W77722  21.441  16.706   0.058
12496W        W77723  10.349  14.901  10.618
12497W        W77724  18.174   6.711  10.669
12498W        W77725  33.892   6.770   4.100
12499W        W77726  34.685   4.888   2.170
12500W        W77727  36.128  27.144   4.267
12501W        W77728   8.621  19.576  12.852
12502W        W77729   1.206   4.946   3.121
12503W        W77730  33.263  25.697   4.489
12504W        W77731   7.226  14.281   3.112
12505W        W77732  21.103  34.601   2.023
12506W        W77733   5.027  29.044  11.575
12507W        W77734   3.938  14.203  14.340
12508W        W77735  17.320  34.417   0.485
12509W        W77736  35.809  23.119   1.196
12510W        W77737   3.778  13.636   0.462
12511W        W77738  23.116  40.724   3.125
12512W        W77739  24.991   4.450  13.314
12513W        W77740   2.288  18.237  11.791
12514W        W77741   9.425  17.261  14.959
12515W        W77742  41.919   7.552   4.526
12516W        W77743  23.058  31.517  13.943
12517W        W77744   8.830   3.731   2.656
12518W        W77745   3.770   3.848   2.517
12519W        W77746  27.638  41.412  13.548
12520W        W77747  44.177  26.177  13.788
12521W        W77748  22.617  40.892   3.326
12522W        W77749   7.243  26.480  13.410
12523W        W77750   2.713  32.239   1.083
12524W        W77751   5.771   5.565  11.082
12525W        W77752  13.871  26.598   0.342
12526W        W77753  17.045  17.165   1.340
12527W        W77754  26.793  42.924   4.542
12528W        W77755  28.539  18.281   1.626
12529W        W77756  38.431  39.128  11.540
12530W        W77757   4.258  22.109   1.402
12531W        W77758   5.363  18.829  14.335
12532W        W77759  16.883  41.933  12.904
12533W        W77760   7.135  13.783   0.255
12534W        W77761  39.128  20.714   1.669
12535W        W77762  39.121  21.903   3.144
12536W        W77763   5.961  28.111   3.734
12537W        W77764  20.302  28.636  11.969
12538W        W77765   5.152  43.625   4.031
12539W        W77766  35.350  36.174  14.108
12540W        W77767  40.498  37.295  11.051
12541W        W77768  41.081   9.644  14.231
12542W        W77769  27.910  30.094   2.576
12543W        W77770   8.835  36.925   1.733
12544W        W77771  21.906   2.844   2.747
12545W        W77772  39.239  18.757   0.654
12546W        W77773  25.042  30.531   1.938
12547W        W77774  32.828  10.761   0.443
12548W        W77775   4.227  26.160   0.375
12549W        W77776   3.299   1.162  11.917
12550W        W77777  29.457   3.987  12.376
12551W        W77778  39.056  32.713   4.603
12552W        W77779  40.870   1.966  13.415
12553W        W77780  43.083  34.917  14.291
12554W        W77781  30.300  18.844  11.662
12555W        W77782  11.499  23.993  12.051
12556W        W77783  14.109  44.892   0.306
12557W        W77784  27.129  38.590  13.889
12558W        W77785  24.655  23.788  12.065
12559W        W77786  13.752  28.401  11.214
12560W        W77787  16.211   4.791   3.199
12561W        W77788   0.997  17.053  12.948
12562W        W77789  34.600  32.574   0.411
12563W        W77790  32.857  16.748   2.807
12564W        W77791   3.270  18.652   4.541
12565W        W77792  33.872  11.190  14.859
12566W        W77793  31.602   5.702  12.890
12567W        W77794   7.382  18.258  12.811
12568W        W77795  30.912  20.868   1.686
12569W        W77796   4.337   5.328  12.481
12570W        W77797  25.446  12.632  12.540
12571W        W77798  33.395  28.377   2.701
12572W        W77799  30.149   6.091   1.963
12573W        W77800  35.378  30.777  13.016
12574W        W77801   7.463   7.419   0.834
12575W        W77802  26.483  23.568   4.159
12576W        W77803  14.422  15.730   1.258
12577W        W77804  41.916  44.321  12.146
12578W        W77805  27.023  16.223   2.288
12579W        W77806  43.117  32.379   2.268
12580W        W77807  26.749  28.374  10.832
12581W        W77808  37.214  38.804  12.477
12582W        W77809   1.780  28.912  12.648
12583W        W77810  13.409  26.987  13.836
12584W        W77811   4.649   3.381  14.365
12585W        W77812  13.572  22.845   3.545
12586W        W77813  23.919  28.457  12.419
12587W        W77814   7.171  37.320  14.357
12588W        W77815  10.362  10.450   1.225
12589W        W77816  24.528  28.097   2.250
12590W        W77817   7.529   7.318   4.995
12591W        W77818  30.484  35.804   4.599
12592W        W77819   9.879  16.325  13.001
12593W        W77820  27.970   3.826  13.826
12594W        W77821  27.388  28.549  14.717
12595W        W77822  18.357  13.363   4.048
12596W        W77823  20.997  43.988  14.860
12597W        W77824   7.352  37.596  12.499
12598W        W77825  25.997  17.383  12.050
12599W        W77826  41.947  36.645  14.892
12600W        W77827  17.844  12.693   3.733
12601W        W77828  18.813  18.433   3.063
12602W        W77829   7.151  37.883   2.893
12603W        W77830   7.071  14.903   0.590
12604W        W77831  42.740  41.337   2.250
12605W        W77832  27.041  23.884  11.093
12606W        W77833   5.803   0.814   4.559
12607W        W77834  17.962  37.565   3.650
12608W        W77835  29.705  43.367  14.053
12609W        W77836   2.085  43.717  14.442
12610W        W77837  18.168  28.953  13.523
12611W        W77838   3.313   5.834   1.745
12612W        W77839   5.205  24.606   0.148
12613W        W77840  30.205  18.768  13.475
12614W        W77841  17.130  40.746   2.275
12615W        W77842  10.032   5.119   2.693
12616W        W77843  43.292   9.678   2.356
12617W        W77844  32.449  39.772   4.531
12618W        W77845  44.562  19.894   2.336
12619W        W77846  10.252  34.198  12.047
12620W        W77847   2.523  30.597   3.653
12621W        W77848  24.748  31.635  12.079
12622W        W77849  18.088  36.945   0.768
12623W        W77850   5.761  11.136  14.046
12624W        W77851  35.361   0.274  14.635
12625W        W77852  33.117  39.286   3.640
12626W        W77853  10.844  10.245  14.461
12627W        W77854  16.446  38.759   2.293
12628W        W77855  38.555  14.541   2.224
12629W        W77856  20.253  31.109   3.362
12630W        W77857  17.828  11.787  10.722
12631W        W77858   7.835  36.840  11.563
12632W        W77859  28.920  41.795   2.878
12633W        W77860  29.895  20.808   4.837
12634W        W77861  40.722  19.384   0.248
12635W        W77862  40.049   1.634   0.159
12636W        W77863  14.730  27.434   3.784
12637W        W77864  26.889   1.737  12.916
12638W        W77865   6.410   5.641   4.606
12639W        W77866  23.624  23.241   2.385
12640W        W77867   3.288  22.076  11.987
12641W        W77868   2.964   2.932   4.181
12642W        W77869  33.145  20.104  13.663
12643W        W77870  26.421   4.279  13.470
12644W        W77871  13.054  34.890   3.127
12645W        W77872  10.344   3.188  13.408
12646W        W77873  30.448  26.427  14.897
12647W        W77874  30.186  18.287  14.425
12648W        W77875  19.524  36.897  10.687
12649W        W77876  29.838  25.459  14.377
12650W        W77877  24.934  25.264  11.232
12651W        W77878  43.292  28.948   2.588
12652W        W77879  37.303  31.985   1.823
12653W        W77880  40.608   9.731   2.625
12654W        W77881  33.812  20.552  10.650
12655W        W77882  44.092  33.635   3.315
12656W        W77883  42.798  10.848   2.346
12657W        W77884  39.324  11.722   1.291
12658W        W77885  36.665  39.520  14.326
12659W        W77886  16.173  27.423  10.646
12660W        W77887  38.314   9.881   3.267
12661W        W77888  42.138  41.568   1.515
12662W        W77889  18.999  17.356   3.954
12663W        W77890  18.305  19.245   3.690
12664W        W77891  25.273  12.435  12.076
12665W        W77892  32.367  14.155  10.725
12666W        W77893  21.165  16.788  14.533
12667W        W77894   2.686  22.217  12.795
12668W        W77895  26.431  30.379   1.015
12669W        W77896  21.790   0.386  14.989
12670W        W77897   5.839  44.967   2.150
12671W        W77898   0.421  40.385  12.177
12672W        W77899  23.586  24.429   1.806
12673W        W77900  17.637  35.093  12.906
12674W        W77901  25.070   6.202  11.186
12675W        W77902  41.325  14.232  12.044
12676W        W77903   4.139  43.506  13.792
12677W        W77904  10.264  17.713  11.186
12678W        W77905  24.030   8.510   2.247
12679W        W77906  37.078   6.447  13.932
12680W        W77907  12.444   0.017   2.233
12681W        W77908   2.054  23.510   3.629
12682W        W77909   4.234  19.206   3.318
12683W        W77910   0.011  13.784   2.119
12684W        W77911  25.649  42.747  10.415
12685W        W77912  17.122  15.347   2.710
12686W        W77913  28.426  43.807   2.930
12687W        W77914   3.005   0.098   2.354
12688W        W77915  41.344  21.588  11.189
12689W        W77916  31.664  22.751   2.824
12690W        W77917  22.108  32.954   1.421
12691W        W77918   2.952  36.478  10.881
12692W        W77919   2.534  18.262   0.403
12693W        W77920   6.308  29.420   0.948
12694W        W77921  11.975  19.068  13.598
12695W        W77922  39.048  43.943   4.047
12696W        W77923  42.900  11.920  12.343
12697W        W77924  32.568  38.883   3.646
12698W        W77925  30.211  20.981  11.086
12699W        W77926   3.788  41.441   3.237
12700W        W77927  29.651  28.415  11.616
12701W        W77928  21.560   2.481   4.020
12702W        W77929   9.167  41.233   4.120
12703W        W77930  10.102  16.825  14.796
12704W        W77931  34.890  17.590   1.297
12705W        W77932   4.272  29.902   0.279
12706W        W77933  36.559  27.697   4.543
12707W        W77934  14.603  34.069   1.283
12708W        W77935  41.983   6.017   3.521
12709W        W77936  14.677  24.550   0.367
12710W        W77937  36.175  30.182  12.013
12711W        W77938  26.189  34.068   2.360
12712W        W77939   7.830  23.784   3.801
12713W        W77940  13.234  27.589   0.344
12714W        W77941  39.742  10.099   2.917
12715W        W77942  37.488   9.214  12.507
12716W        W77943   9.831  29.570   4.101
12717W        W77944  42.427  10.121  10.953
12718W        W77945   3.024  24.229  14.016
12719W        W77946   6.437  29.166  12.029
12720W        W77947  19.418  42.059   1.451
12721W        W77948  13.482  17.713   3.199
12722W        W77949  39.409  35.014  12.435
12723W        W77950  13.770   9.600   0.746
12724W        W77951   1.889  29.690  14.528
12725W        W77952   4.488  12.249   1.679
12726W        W77953  10.211  15.951  12.668
12727W        W77954  40.018  26.025  10.652
12728W        W77955  31.586  31.556  11.444
12729W        W77956   1.368   4.493  10.841
12730W        W77957  12.642  26.675  12.611
12731W        W77958  27.521   0.437   0.683
12732W        W77959   2.328  30.192  13.913
12733W        W77960  39.920  26.314  14.439
12734W        W77961   9.845  30.735   0.871
12735W        W77962  19.934  13.748   3.600
12736W        W77963  30.116  20.119   2.428
12737W        W77964  42.589  37.237   1.320
12738W        W77965   8.431  38.435   0.243
12739W        W77966  14.183   2.004   1.653
12740W        W77967  33.793  41.742  13.923
12741W        W77968  13.770  10.386  14.039
12742W        W77969  44.155  17.251  10.687
12743W        W77970  36.302   3.203  11.144
12744W        W77971  10.426  30.366   0.719
12745W        W77972  38.350  24.652   3.885
12746W        W77973  40.785  22.614   4.427
12747W        W77974  37.150  39.845   4.406
12748W        W77975   8.166  37.043  13.585
12749W        W77976  10.442  16.445   4.891
12750W        W77977  37.952   5.109   4.703
12751W        W77978  35.682  33.142  10.903
12752W        W77979   9.879   7.741  13.544
12753W        W77980  15.188  27.414  13.429
12754W        W77981  11.799   4.501   1.288
12755W        W77982  27.347  22.866  13.800
12756W        W77983  22.540  22.833  10.728
12757W        W77984  28.777  32.615  13.484
12758W        W77985  36.456  13.102   3.792
12759W        W77986  31.510  14.328  14.043
12760W        W77987  31.167  12.249   0.356
12761W        W77988  41.551  28.138   3.144
12762W        W77989  38.364  34.032   2.435
12763W        W77990  29.124  20.714   4.707
12764W        W77991   0.013   3.869  14.472
12765W        W77992   1.746  21.990  13.010
12766W        W77993   3.130  35.415  10.793
12767W        W77994  18.968  23.678   1.847
12768W        W77995  11.052  26.080   1.712
12769W        W77996  15.854  36.159   1.910
12770W        W77997  12.755  25.819   2.922
12771W        W77998   1.988  43.220   0.998
12772W        W77999  22.519  40.496   2.192
12773W        W78000  11.938   0.169   2.200
12774W        W78001  44.332  21.304  13.997
12775W        W78002  37.208  12.302  14.851
12776W        W78003  20.417   8.332   3.489
12777W        W78004  21.911  43.927   0.703
12778W        W78005  33.619  11.247   1.439
12779W        W78006  41.619  43.456  13.498
12780W        W78007  13.484  12.615   3.825
12781W        W78008  33.128   9.119  12.532
12782W        W78009  27.833  18.282  13.973
12783W        W78010  18.599  19.994   0.527
12784W        W78011   7.612  28.081  13.339
12785W        W78012  43.085  21.686   0.262
12786W        W78013  30.705  21.698   0.319
12787W        W78014   6.917   7.299  14.335
12788W        W78015  34.787   5.388  11.642
12789W        W78016  40.371  10.330   3.686
12790W        W78017   3.407  16.771   4.812
12791W        W78018   0.286  22.486  11.952
12792W        W78019   5.760  25.577   3.770
12793W        W78020   1.302  41.302  13.862
12794W        W78021  15.109   7.343   3.737
12795W        W78022  39.033  20.566   0.200
12796W        W78023  30.600  44.847  14.813
12797W        W78024  36.500   4.225   2.909
12798W        W78025  24.585  22.490   4.615
12799W        W78026   6.020  21.435   3.752
12800W        W78027  41.842  10.732  10.774
12801W        W78028  25.637  33.897   4.687
12802W        W78029  42.980  15.797   2.611
12803W        W78030  35.975  28.455  14.656
12804W        W78031  11.549  16.358  12.921
12805W        W78032  26.482  34.300   4.955
12806W        W78033  18.661   0.258   4.184
12807W        W78034  22.277  10.776   3.555
12808W        W78035   1.856   4.259  10.697
12809W        W78036  34.086  27.402   4.274
12810W        W78037   6.283  12.442   4.905
12811W        W78038  35.986  43.857  14.953
12812W        W78039  32.748  43.395   1.154
12813W        W78040  41.993  40.151  14.957
12814W        W78041  31.440   1.993   4.879
12815W        W78042  43.928  25.323  11.216
12816W        W78043  26.899  39.687  11.799
12817W        W78044  17.096  36.000   1.517
12818W        W78045  38.421  28.109  10.886
12819W        W78046  20.718  13.231   0.248
12820W        W78047  17.554  37.065  11.684
12821W        W78048  19.086  21.181   4.247
12822W        W78049  38.331  18.244   4.568
12823W        W78050  23.802  14.355  12.489
12824W        W78051   3.375   7.039   1.222
12825W        W78052  19.598   5.247  11.895
12826W        W78053  37.416  25.959   2.758
12827W        W78054  36.530   7.055  12.896
12828W        W78055   8.206  37.003   0.001
12829W        W78056   7.208  23.770   0.744
12830W        W78057  39.434  32.363   4.735
12831W        W78058  31.748  12.633  12.928
12832W        W78059   6.772  25.177   2.302
12833W        W78060   2.553  40.377   3.350
12834W        W78061  40.872  29.594  11.030
12835W        W78062  37.370   8.264  12.437
12836W        W78063  24.022   4.902   4.083
12837W        W78064  24.005   8.690   1.455
12838W        W78065  42.246  28.653   1.265
12839W        W78066  19.093  10.238   0.507
12840W        W78067  40.097   6.664  11.230
12841W        W78068  14.665  38.397   4.629
12842W        W78069  28.811  15.084  14.499
12843W        W78070   8.167   9.173  12.343
12844W        W78071  14.532  17.960  11.692
12845W        W78072  24.527  13.819   3.339
12846W        W78073  10.624  17.721   2.458
12847W        W78074  44.934  31.596  11.114
12848W        W78075   0.216  28.553  13.976
12849W        W78076  26.076  36.343   2.888
12850W        W78077  15.020  29.155  12.495
12851W        W78078  17.080   4.435  12.098
12852W        W78079  28.071  36.955  11.644
12853W        W78080   5.650  40.385   3.662
12854W        W78081   8.441   9.609  13.011
12855W        W78082  32.182  18.766  10.734
12856W        W78083  31.429  22.083   4.003
12857W        W78084  44.856  32.899  10.716
12858W        W78085   9.140  29.720   1.367
12859W        W78086  30.882  40.329   2.864
12860W        W78087   3.026  26.526  12.418
12861W        W78088  13.008  29.092  13.935
12862W        W78089  21.660  25.636   1.214
12863W        W78090   7.889  33.560  12.934
12864W        W78091   4.443  23.604   1.980
12865W        W78092  14.960   3.055  13.475
12866W        W78093  32.371  31.930  10.760
12867W        W78094  42.838  21.175   1.518
12868W        W78095   5.283  32.169  11.763
12869W        W78096  34.589  30.334  12.511
12870W        W78097  18.074  41.789  11.520
12871W        W78098  39.266  18.459   5.272
12872W        W78099   0.755  19.445   2.788
12873W        W78100  21.573  27.150   4.608
12874W        W78101   1.486  34.729  11.609
12875W        W78102  12.025  36.316  12.646
12876W        W78103  10.504  14.678   4.888
12877W        W78104  30.386  14.791   1.905
12878W        W78105  39.268  26.481   5.154
12879W        W78106  21.954  34.575  11.700
12880W        W78107  17.035  26.991  12.442
12881W        W78108  33.793  24.219   0.586
12882W        W78109  28.666  23.373  11.214
12883W        W78110  24.978   6.118  14.547
12884W        W78111   3.919  31.362   4.086
12885W        W78112  29.043  28.698   2.017
12886W        W78113  28.590  16.471   3.183
12887W        W78114  19.861  12.288  10.905
12888W        W78115  25.317  40.033  10.602
12889W        W78116   9.381   1.442   0.734
12890W        W78117  23.922  35.576   4.574
12891W        W78118  13.054  26.364  13.995
12892W        W78119  30.162  26.910   2.187
12893W        W78120  17.818   8.868   0.666
12894W        W78121  27.926  27.091  13.627
12895W        W78122  41.834  16.731  12.772
12896W        W78123  30.973  41.664   0.879
12897W        W78124  30.708  28.997  11.955
12898W        W78125  42.748  41.549  10.866
12899W        W78126  19.066  34.660  11.097
12900W        W78127   3.047  12.772   3.054
12901W        W78128   2.482   2.881  11.529
12902W        W78129  34.479  18.514  12.195
12903W        W78130  42.917  28.624   1.687
12904W        W78131  37.536  24.129  14.263
12905W        W78132  19.815  38.856   4.975
12906W        W78133  42.484  36.495  10.919
12907W        W78134  12.147   2.481  11.931
12908W        W78135  37.474  14.193  13.480
12909W        W78136  18.456  18.669  10.720
12910W        W78137  32.761  40.027  10.636
12911W        W78138  37.539  23.205   2.335
12912W        W78139  27.420  19.733   1.714
12913W        W78140  30.852  33.980   4.428
12914W        W78141  22.738  20.475  13.514
12915W        W78142  15.115  19.212   3.294
12916W        W78143   5.630  32.657  11.172
12917W        W78144  29.735   3.440   9.857
12918W        W78145   5.844   3.274   2.719
12919W        W78146   7.052  37.454   0.376
12920W        W78147  25.180  12.018  10.708
12921W        W78148  24.718  37.356   4.730
12922W        W78149  39.432   0.602   3.235
12923W        W78150   0.065  22.606  11.485
12924W        W78151   9.153  18.959  12.485
12925W        W78152  42.288  37.933  11.662
12926W        W78153  13.178  30.493   2.689
12927W        W78154  34.462  24.607   4.653
12928W        W78155   7.216   8.304   1.624
12929W        W78156  43.779   4.498  12.100
12930W        W78157   7.419   7.383  13.240
12931W        W78158   5.235  34.592  14.863
12932W        W78159  38.557  11.776  10.566
12933W        W78160  37.485  32.429  11.951
12934W        W78161  27.175  12.581   3.730
12935W        W78162  35.291   1.307  11.218
12936W        W78163   2.093   6.666  12.509
12937W        W78164   2.273  35.667   2.803
12938W        W78165   5.668   6.011  10.786
12939W        W78166   4.954  38.462   1.282
12940W        W78167  18.079  10.333   1.421
12941W        W78168  20.891  40.603   5.164
12942W        W78169   1.764  13.609   3.677
12943W        W78170  17.832  40.033   4.541
12944W        W78171  37.589  21.548  13.947
12945W        W78172  35.839  19.386   2.047
12946W        W78173  26.161   0.721   3.193
12947W        W78174  40.521   9.400  13.008
12948W        W78175  37.190  16.899  11.922
12949W        W78176  43.361   1.202  13.909
12950W        W78177  30.811  25.697  10.647
12951W        W78178  39.325   0.442   0.337
12952W        W78179  30.720  12.178   0.760
12953W        W78180  29.945  19.244  10.797
12954W        W78181  14.273  26.527  12.848
12955W        W78182  19.198  34.378  13.338
12956W        W78183  38.687   4.512   0.865
12957W        W78184  11.252  25.600   1.913
12958W        W78185   1.913  20.468  12.442
12959W        W78186  33.366   0.557   1.772
12960W        W78187  33.948  28.741  11.533
12961W        W78188  34.481  32.932  13.441
12962W        W78189  16.546  20.708   4.325
12963W        W78190   6.102  24.806   2.287
12964W        W78191  20.533  16.310  11.549
12965W        W78192  19.003  20.482  11.944
12966W        W78193  26.078  31.579  11.154
12967W        W78194  32.145  29.143   0.467
12968W        W78195   4.331   8.302   0.686
12969W        W78196  35.607  23.045   2.726
12970W        W78197   5.410  34.692  10.607
12971W        W78198  32.461  19.379  11.766
12972W        W78199  16.786  33.954  12.591
12973W        W78200  30.254  42.943  12.191
12974W        W78201  14.568  11.258  10.748
12975W        W78202  39.895  37.323  14.270
12976W        W78203  20.135  13.317   4.641
12977W        W78204  25.691  34.862  11.290
12978W        W78205  18.022  11.354  12.451
12979W        W78206  12.336  24.740   0.765
12980W        W78207  28.999  26.140   5.306
12981W        W78208  19.819  11.365   3.893
12982W        W78209  19.215   4.752  11.305
12983W        W78210  35.450  13.834  14.861
12984W        W78211   8.404   4.351  14.529
12985W        W78212  24.954   5.868  11.866
12986W        W78213  26.571  32.126  11.400
12987W        W78214  14.201  14.601   4.622
12988W        W78215   8.328  44.720   4.380
12989W        W78216  33.889  10.331   4.126
12990W        W78217  35.827  11.346  12.274
12991W        W78218  44.702  15.310   1.689
12992W        W78219  16.303  27.627   0.253
12993W        W78220   7.086   6.831   2.473
12994W        W78221  17.756  19.046   4.682
12995W        W78222  20.625  37.748  14.774
12996W        W78223  28.362   3.244  14.973
12997W        W78224  33.969  27.746   5.446
12998W        W78225  23.016  41.956   1.103
12999W        W78226  23.042  23.937  12.411
13000W        W78227  28.479  24.193   0.465
13001W        W78228  30.223  26.631   1.706
13002W        W78229  22.875  30.314   0.288
13003W        W78230  32.209  29.903   3.180
13004W        W78231   6.550  28.429   0.518
13005W        W78232  18.048  17.544  11.089
13006W        W78233  38.506  29.102  14.885
13007W        W78234  37.082  29.899  11.975
13008W        W78235  30.340  12.248   2.410
13009W        W78236  10.007  14.173   2.415
13010W        W78237  43.326  37.332   1.437
13011W        W78238  13.641  19.582  14.785
13012W        W78239  13.036  44.175  12.919
13013W        W78240  44.279  24.214   2.683
13014W        W78241  28.211  14.803   0.706
13015W        W78242  13.554  35.884  10.670
13016W        W78243  27.434   5.368   1.893
13017W        W78244  34.863   3.355   2.179
13018W        W78245  19.684  24.140   3.962
13019W        W78246  42.325  39.563  14.164
13020W        W78247  20.773   7.789   3.785
13021W        W78248  39.988  30.465   3.607
13022W        W78249   5.930  42.956   1.690
13023W        W78250   5.974  29.906   3.732
13024W        W78251  11.230  42.813   4.675
13025W        W78252  27.228  14.462   0.874
13026W        W78253  17.291  35.462   1.253
13027W        W78254  43.731  25.199   1.945
13028W        W78255  43.243  11.149   2.384
13029W        W78256  39.124  13.051   0.782
13030W        W78257  44.604   6.637  12.873
13031W        W78258  27.987  27.418  11.477
13032W        W78259  23.955   7.703   2.656
13033W        W78260   9.395   8.810  13.274
13034W        W78261   6.272   5.865   1.167
13035W        W78262  13.140  24.030   2.371
13036W        W78263  21.177  42.845   0.350
13037W        W78264   8.637  39.025   2.165
13038W        W78265  42.378  26.045   2.656
13039W        W78266   7.839   3.236  10.305
13040W        W78267  26.661  17.528   1.783
13041W        W78268  39.304   8.832   2.700
13042W        W78269  23.525  25.254   0.864
13043W        W78270   7.444  21.492   3.669
13044W        W78271  36.065  26.290  12.072
13045W        W78272  16.438   5.687   3.679
13046W        W78273  12.251  43.299  11.053
13047W        W78274  17.276   6.827   3.943
13048W        W78275  29.630  44.727   0.257
13049W        W78276  19.981  11.139  10.267
13050W        W78277   2.211  16.491  13.133
13051W        W78278   2.117   6.220  13.414
13052W        W78279  29.843  27.612   0.888
13053W        W78280  14.290   2.516   1.767
13054W        W78281  43.080   3.040   3.251
13055W        W78282  21.532  11.640   2.601
13056W        W78283  31.281  37.025   0.790
13057W        W78284   5.746   6.423  14.245
13058W        W78285  25.428  22.547  12.878
13059W        W78286  43.363   2.079   3.336
13060W        W78287  13.389  12.698   0.854
13061W        W78288  28.189  26.431  14.806
13062W        W78289  32.403  20.533   4.174
13063W        W78290  11.578  17.158   3.166
13064W        W78291  37.161  38.749   1.749
13065W        W78292  12.356  25.957  13.384
13066W        W78293  17.312  38.665  11.126
13067W        W78294   2.705  31.916   4.522
13068W        W78295  25.615  16.947  10.808
13069W        W78296  32.588   9.782   4.641
13070W        W78297   0.283  44.759   2.954
13071W        W78298   1.354  34.502  11.159
13072W        W78299  10.466   6.325   0.875
13073W        W78300  17.129  38.330  12.914
13074W        W78301   9.165  26.488   1.786
13075W        W78302  14.059  10.438   2.353
13076W        W78303   6.700  42.284  13.496
13077W        W78304  32.289  15.205  12.049
13078W        W78305   1.652  38.139  13.333
13079W        W78306  35.955  29.680  13.434
13080W        W78307   3.880  44.243   3.167
13081W        W78308  17.978  22.361   3.212
13082W        W78309  11.555  25.192  12.645
13083W        W78310  14.117  23.280   1.806
13084W        W78311   4.070  18.701   1.721
13085W        W78312  23.463   7.006   0.818
13086W        W78313  16.319  43.961  10.804
13087W        W78314  33.719  20.091  12.904
13088W        W78315  43.750  23.206   1.166
13089W        W78316   2.850  41.942   3.977
13090W        W78317  36.456  35.325  11.156
13091W        W78318  25.181  12.582  14.738
13092W        W78319  20.783   9.406  11.032
13093W        W78320  18.364   6.285   4.950
13094W        W78321  34.647  22.768  11.653
13095W        W78322   6.584  21.290  11.594
13096W        W78323  12.777  34.059  14.990
13097W        W78324  38.871  15.071  10.394
13098W        W78325  39.661  12.124  13.165
13099W        W78326   6.779  37.069   3.595
13100W        W78327  43.979  16.777   3.642
13101W        W78328  42.940  34.540  12.539
13102W        W78329  21.329  22.561  11.648
13103W        W78330  30.013  27.828   2.681
13104W        W78331  43.533  26.005  14.428
13105W        W78332  19.569  28.569   3.297
13106W        W78333   1.946  43.074  12.499
13107W        W78334  10.750  27.770  12.976
13108W        W78335  24.213  11.239  13.415
13109W        W78336  18.460  23.106  14.258
13110W        W78337  32.834  31.492   1.316
13111W        W78338  33.888  15.853  12.373
13112W        W78339   5.789  10.121   2.785
13113W        W78340  32.999  31.964   0.627
13114W        W78341   0.043  44.332  13.528
13115W        W78342   3.915   8.793  12.915
13116W        W78343  28.966  33.571   3.414
13117W        W78344  36.488  27.134  13.694
13118W        W78345  23.958  13.183  11.183
13119W        W78346   6.518  23.108   2.856
13120W        W78347  42.820  15.696   4.520
13121W        W78348  39.867  32.481   2.002
13122W        W78349  42.807  42.350   2.334
13123W        W78350  21.815   4.728   1.325
13124W        W78351  24.440  41.082   4.760
13125W        W78352   7.220  31.496  14.130
13126W        W78353  13.718   8.323   0.437
13127W        W78354  31.991  37.301   3.218
13128W        W78355  36.650  25.567  14.873
13129W        W78356  44.502  24.866   3.113
13130W        W78357  42.609   7.356  14.938
13131W        W78358  14.041  41.009   2.391
13132W        W78359  28.805  19.198  12.073
13133W        W78360  15.657   1.937  13.935
13134W        W78361   3.759   8.886  10.596
13135W        W78362   3.330  16.200   0.220
13136W        W78363  23.510   7.801  12.727
13137W        W78364   2.859  26.768   3.343
13138W        W78365  18.148  13.129  10.460
13139W        W78366  26.164  35.322  13.869
13140W        W78367  42.824  33.164   3.205
13141W        W78368  40.256  25.827   2.261
13142W        W78369  10.791  44.370  11.627
13143W        W78370  38.422  26.565  14.627
13144W        W78371  39.701  12.950  13.526
13145W        W78372  44.698  24.319   3.143
13146W        W78373  37.313   4.661  12.233
13147W        W78374   9.276  34.067   4.281
13148W        W78375  25.106   0.995  13.399
13149W        W78376   3.862  30.183  13.549
13150W        W78377  25.759  14.882  14.004
13151W        W78378  29.034  41.272  10.550
13152W        W78379   8.805  23.941  10.720
13153W        W78380  40.770  26.709   2.975
13154W        W78381  32.920  38.345  12.829
13155W        W78382  19.439  24.123  10.487
13156W        W78383  16.197  25.181   4.621
13157W        W78384  21.810   2.718  12.515
13158W        W78385  21.566   1.505  12.880
13159W        W78386   9.192  41.031  10.492
13160W        W78387   4.515  30.030   1.393
13161W        W78388  20.330   8.162  11.003
13162W        W78389  38.028   8.664  13.611
13163W        W78390  29.267   3.344   0.386
13164W        W78391  39.411  15.121  11.417
13165W        W78392  26.383  36.796   1.321
13166W        W78393   5.002  41.448   2.791
13167W        W78394  23.859  28.621  14.445
13168W        W78395  24.605  12.158  11.397
13169W        W78396   1.684  12.940   1.901
13170W        W78397  23.241  33.331  12.158
13171W        W78398  29.983  34.248   2.654
13172W        W78399  32.692  32.028   3.713
13173W        W78400   3.883  10.499   2.309
13174W        W78401  10.620  38.847   2.386
13175W        W78402  26.684   0.985   2.596
13176W        W78403  43.341  29.586   1.076
13177W        W78404  16.370  37.590  12.168
13178W        W78405  26.009  39.298   1.728
13179W        W78406   9.731  42.941  10.773
13180W        W78407  16.212   1.556   3.638
13181W        W78408  27.789  26.484   2.777
13182W        W78409  11.459  41.516   4.605
13183W        W78410  17.253  31.672   1.789
13184W        W78411   6.095  38.760   0.305
13185W        W78412   5.636  32.566   2.978
13186W        W78413  15.627   4.787  13.074
13187W        W78414  33.987  22.640   3.727
13188W        W78415   6.916  37.960  12.260
13189W        W78416  20.581  43.589  14.779
13190W        W78417   8.854  29.416   2.729
13191W        W78418   9.410  20.197   1.560
13192W        W78419  17.422  10.832   3.096
13193W        W78420  20.720   6.398  13.078
13194W        W78421   3.852  22.160  10.725
13195W        W78422  41.428   0.464   1.700
13196W        W78423  43.384  23.244   0.334
13197W        W78424  29.121  32.408  11.672
13198W        W78425  44.044   5.745  11.172
13199W        W78426  18.860  23.455  11.040
13200W        W78427  19.524   2.272   1.928
13201W        W78428  37.538  10.759  12.997
13202W        W78429  39.774  33.156  14.529
13203W        W78430  19.181  35.534  13.388
13204W        W78431  26.796  44.399  13.397
13205W        W78432  31.188   1.993  12.475
13206W        W78433  15.056  12.315   1.352
13207W        W78434  24.985  19.247  11.045
13208W        W78435   6.686  33.105   4.690
13209W        W78436  12.688   2.210  12.782
13210W        W78437  34.495  27.050   2.348
13211W        W78438  44.932  44.332  10.590
13212W        W78439  25.660  25.285  13.965
13213W        W78440   3.546  31.718   1.912
13214W        W78441  42.293  29.955   1.834
13215W        W78442  27.494  13.588  11.528
13216W        W78443  32.589  29.521  12.465
13217W        W78444  29.234  16.128  11.151
13218W        W78445  19.043  10.836  14.891
13219W        W78446  20.849   8.175  11.884
13220W        W78447  14.265  35.320   1.442
13221W        W78448  43.345  33.710   4.681
13222W        W78449  11.751  19.594  14.945
13223W        W78450  39.616  41.096   2.329
13224W        W78451  29.702  17.558  12.039
13225W        W78452  19.191  24.945  14.959
13226W        W78453  29.540  22.896   1.109
13227W        W78454  40.285   5.943  12.561
13228W        W78455  21.375  27.127  11.949
13229W        W78456  21.751  14.825   2.202
13230W        W78457   0.788  23.709   1.892
13231W        W78458  43.790  21.820   1.937
13232W        W78459  44.762  22.646  11.070
13233W        W78460  41.241  17.779  12.972
13234W        W78461  39.545  19.046  14.437
13235W        W78462   9.332  22.978   2.636
13236W        W78463   0.807  44.823  13.651
13237W        W78464  10.830  32.083   0.586
13238W        W78465  30.656  42.491  14.736
13239W        W78466  23.135  21.654  13.899
13240W        W78467  23.864  30.217   0.879
13241W        W78468  30.022  36.565   3.126
13242W        W78469  39.007  41.048   4.139
13243W        W78470  12.904   4.978  12.746
13244W        W78471  35.526  18.004   1.514
13245W        W78472  10.953  44.382   0.572
13246W        W78473  14.530   0.398  13.523
13247W        W78474  17.860   0.537   4.502
13248W        W78475  29.989  20.624   4.345
13249W        W78476   2.952  32.535  10.735
13250W        W78477  26.625   9.342   0.761
13251W        W78478  31.858   0.389   1.696
13252W        W78479  26.643  17.642  11.921
13253W        W78480  28.053  21.201   2.648
13254W        W78481  29.075  27.934   4.675
13255W        W78482  16.761  39.387  13.429
13256W        W78483  41.867  41.269  11.241
13257W        W78484  22.143  38.910  13.489
13258W        W78485  21.032  35.481   4.364
13259W        W78486  42.770  22.330  14.052
13260W        W78487  17.247  39.272   1.370
13261W        W78488  26.171  34.398   1.704
13262W        W78489  27.129  13.065   1.304
13263W        W78490  44.106  41.796   0.738
13264W        W78491  43.792  32.943  13.455
13265W        W78492  43.291  38.223  12.437
13266W        W78493  10.592  19.278   0.451
13267W        W78494  31.038  22.585   0.950
13268W        W78495  30.773  14.595   0.801
13269W        W78496   4.878  42.529   3.644
13270W        W78497   0.216  44.793  14.990
13271W        W78498  18.171  16.726   4.157
13272W        W78499  25.563  14.534  11.819
13273W        W78500  34.523  24.538   3.619
13274W        W78501  10.824   5.133   1.901
13275W        W78502  30.868  32.119  13.556
13276W        W78503  20.785  13.473  12.431
13277W        W78504  37.004  19.570   3.871
13278W        W78505  19.619  44.418   2.673
13279W        W78506  21.099  39.974   0.791
13280W        W78507  31.124   1.395  14.054
13281W        W78508  24.452  27.979  12.026
13282W        W78509   4.173  22.922  13.324
13283W        W78510  37.003  32.597   2.920
13284W        W78511   6.836  42.451   2.278
13285W        W78512  36.354  40.377   3.828
13286W        W78513   6.792  35.084  12.041
13287W        W78514  17.215   7.735   1.846
13288W        W78515  42.075  11.351  10.798
13289W        W78516   4.669  29.987  14.573
13290W        W78517  13.377   9.909   2.438
13291W        W78518  36.476  28.452   2.872
13292W        W78519  24.765  33.399   0.319
13293W        W78520  15.331  33.556   2.290
13294W        W78521  14.816   3.261   1.309
13295W        W78522  17.344  20.014  13.138
13296W        W78523  44.192  28.578  13.982
13297W        W78524  16.751  14.836  14.506
13298W        W78525  39.970  39.265  13.297
13299W        W78526  37.331   6.098   3.613
13300W        W78527   6.419  21.546   0.977
13301W        W78528  33.978  43.967   2.299
13302W        W78529  26.492   1.579   5.448
13303W        W78530  21.011  41.546  11.609
13304W        W78531  33.009  34.603   3.207
13305W        W78532  30.670  19.336   2.486
13306W        W78533  43.543   6.906  11.994
13307W        W78534  20.279  10.398  12.520
13308W        W78535  37.940  40.466  14.707
13309W        W78536   3.044  39.007   0.336
13310W        W78537   8.695  13.372   4.093
13311W        W78538  20.257  38.955  12.385
13312W        W78539  16.501  32.101  13.717
13313W        W78540  37.420   3.219  12.835
13314W        W78541   4.248   0.765   1.244
13315W        W78542   4.645  43.325   2.779
13316W        W78543  36.307   4.916  10.960
13317W        W78544  23.176   9.645   0.407
13318W        W78545   3.956   1.064   5.475
13319W        W78546  40.432  13.316   4.575
13320W        W78547  24.268   1.212   0.458
13321W        W78548  30.783  10.969  12.507
13322W        W78549  32.692  32.603  12.570
13323W        W78550  38.945  38.102   2.719
13324W        W78551  18.334  39.542   0.352
13325W        W78552  26.569   5.485  11.658
13326W        W78553  42.507  27.455   3.762
13327W        W78554   5.873   6.873  11.475
13328W        W78555  35.783  42.122   1.212
13329W        W78556  37.327   8.791   3.567
13330W        W78557  15.341  16.318  10.491
13331W        W78558   5.304  33.391   3.728
13332W        W78559  29.872  36.499   0.370
13333W        W78560  35.573  22.595   3.586
13334W        W78561  30.332   6.830   2.568
13335W        W78562  15.985  28.062   4.518
13336W        W78563  23.240  27.704   3.073
13337W        W78564  34.899   5.105  13.040
13338W        W78565  13.129  29.333   3.675
13339W        W78566  32.289  35.402  10.351
13340W        W78567  21.553  31.616   3.350
13341W        W78568  33.119  27.672  12.459
13342W        W78569  36.917  44.531  10.638
13343W        W78570  19.034  36.035  10.636
13344W        W78571  24.835   2.978   4.167
13345W        W78572  22.733  16.094  13.513
13346W        W78573  34.413  12.249  10.807
13347W        W78574   9.905   6.411  14.558
13348W        W78575  35.888  11.189  10.607
13349W        W78576  13.303  18.396   1.426
13350W        W78577   0.412   2.819   0.996
13351W        W78578  10.891  26.775   2.810
13352W        W78579  33.635   7.376   2.405
13353W        W78580  30.673  33.463  11.020
13354W        W78581   9.694  27.413  13.884
13355W        W78582   8.323   7.087   2.907
13356W        W78583  37.509  43.995  14.948
13357W        W78584  11.401  18.725  14.136
13358W        W78585  34.318  32.650  10.595
13359W        W78586  41.599  33.656  13.130
13360W        W78587  16.920   2.673  11.597
13361W        W78588   7.243   6.456  13.924
13362W        W78589  41.879  20.840   4.541
13363W        W78590  39.334  40.423  10.900
13364W        W78591  39.962  36.707   1.022
13365W        W78592  34.799  42.042  14.001
13366W        W78593  21.227   6.910  11.626
13367W        W78594  44.828  31.349  10.675
13368W        W78595   2.905  25.286   2.315
13369W        W78596  22.156  34.957  11.389
13370W        W78597  14.345  11.743   1.303
13371W        W78598   9.916  16.603   0.243
13372W        W78599  28.579  21.428   4.455
13373W        W78600  24.246  24.095   0.498
13374W        W78601  39.386  10.388  10.157
13375W        W78602  17.477   7.216  11.651
13376W        W78603  24.934  11.081  13.881
13377W        W78604  10.290  13.585  12.922
13378W        W78605  36.197   3.673  13.118
13379W        W78606   7.743  22.825   2.770
13380W        W78607  43.938   8.378   0.939
13381W        W78608  33.582  28.137   1.740
13382W        W78609  43.904   5.462  14.920
13383W        W78610  44.950  43.273   1.588
13384W        W78611  18.057  20.533   1.039
13385W        W78612  18.601  38.007   1.297
13386W        W78613  30.540  39.504   2.500
13387W        W78614  16.259  18.222   4.307
13388W        W78615  11.926  15.417   3.164
13389W        W78616  36.547  16.061  11.009
13390W        W78617   2.820  14.590  12.080
13391W        W78618  36.774  33.432   1.887
13392W        W78619  34.818  38.973  14.404
13393W        W78620  37.233  25.215  10.774
13394W        W78621  34.693   9.771   2.745
13395W        W78622  37.403  26.439   4.167
13396W        W78623  24.886  22.133  11.862
13397W        W78624  23.664   0.334   2.317
13398W        W78625  12.163  33.076   2.735
13399W        W78626  34.909  36.049   0.203
13400W        W78627  22.457  42.970  12.979
13401W        W78628  44.827  15.463   4.019
13402W        W78629  39.589   9.676   2.681
13403W        W78630   7.205  21.065  14.049
13404W        W78631  19.835   8.951   5.237
13405W        W78632  23.094  11.685   3.580
13406W        W78633  44.545  33.436   3.573
13407W        W78634  19.684  27.237  14.247
13408W        W78635   2.233  30.894   3.988
13409W        W78636  33.219  34.678  11.046
13410W        W78637  13.997  11.680  11.170
13411W        W78638  19.336  18.673   4.998
13412W        W78639  15.906  28.618  13.506
13413W        W78640   2.539   0.488  12.690
13414W        W78641   0.043  24.633  14.080
13415W        W78642  12.246  11.338  13.080
13416W        W78643  44.418  17.578   0.771
13417W        W78644  44.358   6.930   3.757
13418W        W78645  24.892  30.898  12.541
13419W        W78646  43.453  17.807  10.379
13420W        W78647  15.332   5.653  12.036
13421W        W78648  15.082  43.949  10.400
13422W        W78649  44.541  31.696  11.985
13423W        W78650  41.426  11.057   0.170
13424W        W78651  13.789  31.224   1.801
13425W        W78652  39.084  22.294  13.010
13426W        W78653  16.009  44.034   1.667
13427W        W78654  25.516  14.510   0.345
13428W        W78655  36.544  28.068   4.161
13429W        W78656  21.356  19.737   5.004
13430W        W78657  23.277  10.672   4.518
13431W        W78658  12.601  29.249  11.176
13432W        W78659   2.703  15.182  14.910
13433W        W78660  31.618  43.014   5.235
13434W        W78661  15.189  22.828   1.225
13435W        W78662  23.158  30.185  12.628
13436W        W78663   7.838  35.811   3.728
13437W        W78664   1.059  14.296  13.367
13438W        W78665  32.666  18.793  13.488
13439W        W78666   2.773  20.372  13.425
13440W        W78667  15.186  11.298   0.448
13441W        W78668  41.086  21.512   2.280
13442W        W78669   3.839  12.719  12.454
13443W        W78670  28.504  20.077   0.926
13444W        W78671  34.900  28.032   3.712
13445W        W78672  29.826  40.790  10.998
13446W        W78673   2.289  25.044  14.805
13447W        W78674  25.032  37.007   0.101
13448W        W78675  42.964  40.825   0.865
13449W        W78676  31.597  27.467   2.673
13450W        W78677   6.227  40.476  14.658
13451W        W78678   0.262  37.322  14.562
13452W        W78679   0.255  30.229   2.289
13453W        W78680  14.041   8.368  14.149
13454W        W78681  30.951   9.458   4.330
13455W        W78682  21.534  37.359   3.718
13456W        W78683  19.312  14.308  14.379
13457W        W78684  14.247  25.695   0.866
13458W        W78685  36.945  43.853   3.682
13459W        W78686  39.431  42.281  12.413
13460W        W78687  25.339  22.983   1.186
13461W        W78688  20.102  25.285  12.028
13462W        W78689  37.513  33.640   0.475
13463W        W78690  21.054  24.039   0.015
13464W        W78691  27.654   4.620  12.687
13465W        W78692  30.641  29.875   0.761
13466W        W78693  35.352   3.531   2.149
13467W        W78694   5.922  36.378  10.755
13468W        W78695  19.184  22.098  14.875
13469W        W78696  21.194  40.415   4.276
13470W        W78697  19.593   3.277   2.718
13471W        W78698  29.994  35.540  13.517
13472W        W78699   5.264  35.185   0.662
13473W        W78700  23.447  21.816  11.088
13474W        W78701  29.129   7.446   2.829
13475W        W78702  26.805  24.229  13.072
13476W        W78703  25.331  44.254  14.987
13477W        W78704  38.872  44.487  12.924
13478W        W78705  33.015   1.542   0.256
13479W        W78706  36.029  33.018  13.558
13480W        W78707  44.188  44.822   2.232
13481W        W78708   7.334  16.682  12.502
13482W        W78709   3.189   7.539   1.165
13483W        W78710   3.371  19.317  12.886
13484W        W78711  28.222  31.129  13.021
13485W        W78712   7.765  29.835   2.512
13486W        W78713  29.924  41.293  11.407
13487W        W78714   7.259  42.456   2.596
13488W        W78715  15.709  27.878  12.380
13489W        W78716   5.850   2.793  13.569
13490W        W78717  13.433  18.145  11.135
13491W        W78718   4.828  20.107   4.780
13492W        W78719  12.588  20.508  13.257
13493W        W78720  14.821  31.347   4.325
13494W        W78721  25.366   4.556  12.910
13495W        W78722  44.558  11.381   2.387
13496W        W78723  17.281  29.195  12.089
13497W        W78724   3.664  19.679  12.044
13498W        W78725  12.263  25.028   2.882
13499W        W78726  16.271  37.628  13.046
13500W        W78727  25.135  34.114   2.384
13501W        W78728   9.383  32.860  13.232
13502W        W78729  32.095  28.115  13.460
13503W        W78730  12.986  42.768   4.215
13504W        W78731  23.739   5.868   0.579
13505W        W78732  41.737  23.627   1.085
13506W        W78733   7.339  22.306   4.758
13507W        W78734  15.988  32.293  14.281
13508W        W78735  11.939  18.732   1.422
13509W        W78736  39.305  31.079   3.156
13510W        W78737  14.178  18.803   4.696
13511W        W78738   8.928  39.074   1.424
13512W        W78739  15.545  28.856   4.080
13513W        W78740  23.930  33.511   3.475
13514W        W78741  32.491  36.151   1.705
13515W        W78742  28.537   1.740   1.379
13516W        W78743  20.170   7.822   3.172
13517W        W78744  25.332  16.288  11.863
13518W        W78745  12.141  16.723   4.744
13519W        W78746  43.171  12.937  10.606
13520W        W78747  33.484  17.494  14.881
13521W        W78748   9.779  37.104   3.862
13522W        W78749  26.647  40.122   1.004
13523W        W78750  31.155  30.621  11.110
13524W        W78751  36.557  13.408   2.291
13525W        W78752  39.885   0.296   4.509
13526W        W78753  40.599  18.699   5.278
13527W        W78754  19.067  14.851  13.591
13528W        W78755  44.211   1.119   4.105
13529W        W78756  26.722  15.777  12.085
13530W        W78757  15.726  23.769   1.252
13531W        W78758  41.459   0.010   1.923
13532W        W78759  19.165  26.457   3.412
13533W        W78760  44.453  27.295   3.322
13534W        W78761   1.144  11.890  10.298
13535W        W78762  36.371  22.523   1.266
13536W        W78763  35.357  32.099   2.332
13537W        W78764  19.227   7.449  11.110
13538W        W78765  28.534  32.838   0.893
13539W        W78766  41.427  33.999   2.697
13540W        W78767   9.295  30.541  11.475
13541W        W78768  22.270  10.441  11.668
13542W        W78769   8.824   5.476  13.382
13543W        W78770  19.010  20.774   3.677
13544W        W78771  13.723  43.041   2.394
13545W        W78772  33.564  30.093   4.363
13546W        W78773  17.002  25.669  11.242
13547W        W78774  41.751  29.931   3.709
13548W        W78775  38.035  42.732   4.587
13549W        W78776  21.468  43.220  14.397
13550W        W78777   6.158   9.757  14.259
13551W        W78778  34.533  21.433   1.908
13552W        W78779  20.792  44.989  10.520
13553W        W78780  32.860   0.341  11.741
13554W        W78781  31.419  38.524  12.071
13555W        W78782  24.988  15.780  14.273
13556W        W78783   4.571  19.705  11.041
13557W        W78784   1.464  44.867  11.927
13558W        W78785  10.070   8.898   3.285
13559W        W78786   0.768  39.828   0.331
13560W        W78787   9.931  30.111  12.035
13561W        W78788   1.560  10.209  12.502
13562W        W78789  37.422  36.416   1.698
13563W        W78790  25.108  31.044  13.941
13564W        W78791  35.659  15.920   2.651
13565W        W78792   0.933  24.516  14.486
13566W        W78793   2.204  22.289   4.218
13567W        W78794  15.985  36.838   0.290
13568W        W78795  38.086   1.994  13.696
13569W        W78796  32.182  32.526   1.270
13570W        W78797  24.173  28.403  14.794
13571W        W78798  14.910   5.619  11.149
13572W        W78799  42.603  41.583   2.729
13573W        W78800  16.127  38.354  12.546
13574W        W78801  10.268  10.177   1.695
13575W        W78802   4.803  32.688  10.732
13576W        W78803  13.779  35.777   4.661
13577W        W78804  22.316  29.092   3.250
13578W        W78805  40.127  20.269  12.486
13579W        W78806  44.238  36.671   4.792
13580W        W78807  18.002   8.834   2.620
13581W        W78808   2.240  17.297  14.450
13582W        W78809   9.645  26.172  14.397
13583W        W78810  21.102  43.474  12.658
13584W        W78811  19.603  32.564   0.362
13585W        W78812  42.615  40.479  11.486
13586W        W78813  37.139   3.447   0.765
13587W        W78814   1.608  42.216  14.362
13588W        W78815   8.385  37.792   2.389
13589W        W78816  37.989  19.159  12.429
13590W        W78817  15.006   6.540   0.844
13591W        W78818  22.123   3.745   2.264
13592W        W78819  35.956  37.947   0.672
13593W        W78820  33.688  23.107  11.708
13594W        W78821   4.322  23.016  14.383
13595W        W78822  22.703  29.123   2.581
13596W        W78823  34.002  34.881   0.374
13597W        W78824  24.475   0.608   2.573
13598W        W78825  20.161  11.159   2.591
13599W        W78826  44.362   2.103  14.771
13600W        W78827  42.722  38.233  13.535
13601W        W78828  25.908   7.686  14.777
13602W        W78829  16.346  39.012   4.506
13603W        W78830  19.195  32.118  14.540
13604W        W78831  27.086  24.535  12.763
13605W        W78832   2.426  30.887  10.132
13606W        W78833   2.922  19.216  14.488
13607W        W78834  29.531   2.865   0.937
13608W        W78835  13.264  41.572  13.160
13609W        W78836  43.896  21.429   0.227
13610W        W78837  27.357   5.920   0.337
13611W        W78838  11.650  37.427   1.222
13612W        W78839   1.602  19.096   2.797
13613W        W78840  31.078  16.184   1.434
13614W        W78841   2.689  25.027  13.266
13615W        W78842  27.725  31.873  10.767
13616W        W78843  16.538   5.829   0.797
13617W        W78844  11.628  15.767   0.788
13618W        W78845   8.726  24.799  14.224
13619W        W78846  31.870  18.402   5.016
13620W        W78847  15.887  34.184  12.029
13621W        W78848  41.789  41.031  13.519
13622W        W78849  14.897  44.194   1.333
13623W        W78850   1.059  31.884   3.740
13624W        W78851   8.383  11.245   0.269
13625W        W78852  25.629   9.426  11.539
13626W        W78853  34.185  17.575   4.361
13627W        W78854  10.436  33.036   3.564
13628W        W78855  40.460  35.575   4.053
13629W        W78856  10.149  26.076   3.283
13630W        W78857  27.155  28.360  12.174
13631W        W78858   9.895  39.022   1.853
13632W        W78859  36.410  24.305  11.608
13633W        W78860  33.199   5.292  14.754
13634W        W78861  19.015   2.946   3.308
13635W        W78862  43.874  10.067  12.969
13636W        W78863  17.027  17.754   4.126
13637W        W78864  37.625  33.418   4.609
13638W        W78865  16.447  15.293  10.760
13639W        W78866   8.817  42.021   4.580
13640W        W78867  17.076   9.069  14.469
13641W        W78868   8.172  17.022  11.575
13642W        W78869  44.092  43.507  12.646
13643W        W78870  28.433  26.655  10.978
13644W        W78871   5.806  44.325   0.306
13645W        W78872   5.156   1.077  12.853
13646W        W78873   2.153  25.994  13.945
13647W        W78874  40.810  42.911   1.910
13648W        W78875  36.101  42.932  12.567
13649W        W78876   9.835  41.043  12.891
13650W        W78877  44.340  32.221   4.231
13651W        W78878   8.215  35.224  14.349
13652W        W78879  17.894  28.061   1.331
13653W        W78880  27.640   8.227   1.408
13654W        W78881  21.314   5.350   0.242
13655W        W78882  35.228  27.484  13.572
13656W        W78883  18.212  20.010  11.103
13657W        W78884  16.560  12.389  14.440
13658W        W78885  28.701  31.900  12.454
13659W        W78886  14.780  26.339   0.600
13660W        W78887  33.820  21.525  14.001
13661W        W78888  25.280  12.272  11.191
13662W        W78889  34.707  34.005   0.232
13663W        W78890  32.846  29.182   4.569
13664W        W78891  42.195  31.457   2.771
13665W        W78892  13.039  32.991  13.374
13666W        W78893  40.549  29.478  12.940
13667W        W78894   2.392  34.708  10.713
13668W        W78895  38.300  11.088   4.594
13669W        W78896   6.555   3.861  11.274
13670W        W78897  25.196   3.350  11.626
13671W        W78898  42.009  17.551   1.270
13672W        W78899  34.165  19.997  14.910
13673W        W78900   0.623   0.387  11.528
13674W        W78901  10.683  19.183   3.190
13675W        W78902   9.530  42.163  12.067
13676W        W78903   8.127   4.987   2.845
13677W        W78904  41.839  24.449  12.458
13678W        W78905  10.903  30.161   0.677
13679W        W78906  34.052  26.152  13.337
13680W        W78907  26.701  32.615  12.041
13681W        W78908  16.286   2.539  11.626
13682W        W78909  38.351  43.487   4.797
13683W        W78910  27.948  42.252  11.633
13684W        W78911  43.829  42.869  13.960
13685W        W78912   2.291   3.270   2.416
13686W        W78913   4.610  39.950  12.659
13687W        W78914  15.768  23.252   3.189
13688W        W78915  35.370  24.200   3.752
13689W        W78916   1.734  22.422   3.221
13690W        W78917   0.946  41.709  11.819
13691W        W78918  23.831  34.584  13.210
13692W        W78919   8.650  23.640  11.104
13693W        W78920  12.444   2.209   0.652
13694W        W78921  25.753  44.463   1.907
13695W        W78922  42.553  26.631  11.586
13696W        W78923  41.823  43.832  12.365
13697W        W78924  35.067  36.968   0.648
13698W        W78925  11.852  14.082  13.846
13699W        W78926  10.081  14.320  13.421
13700W        W78927  14.308  39.039   4.960
13701W        W78928  23.480  17.261   0.467
13702W        W78929  16.172  12.603   3.872
13703W        W78930   8.151  18.629  11.373
13704W        W78931  11.807  41.126  13.916
13705W        W78932  23.961  33.006  11.268
13706W        W78933  13.479  32.145   1.953
13707W        W78934  41.286  36.318   1.136
13708W        W78935  38.264  37.803  14.914
13709W        W78936  22.757  43.219  14.811
13710W        W78937  26.159  24.935   1.287
13711W        W78938   3.298  20.426   1.995
13712W        W78939  38.985  32.118  12.552
13713W        W78940   0.279  31.102  11.495
13714W        W78941  43.174  18.535   2.978
13715W        W78942   0.907  13.543  12.424
13716W        W78943   5.604  20.191   1.492
13717W        W78944  31.861  14.840  12.223
13718W        W78945  22.925  13.210   2.304
13719W        W78946  21.034   8.179   4.199
13720W        W78947   8.609  26.212  14.332
13721W        W78948  37.648  42.304  11.430
13722W        W78949  22.117   8.798  11.709
13723W        W78950  39.985  37.297   3.318
13724W        W78951   1.924   3.764   1.908
13725W        W78952  21.589  25.395  12.973
13726W        W78953  38.657   1.020  10.699
13727W        W78954  23.163  15.097  10.928
13728W        W78955  20.290   3.396  13.956
13729W        W78956   8.393   9.258   3.707
13730W        W78957  25.018  36.616   4.306
13731W        W78958  35.905  32.632   0.850
13732W        W78959   8.296  11.782  12.169
13733W        W78960  10.269  15.067  12.812
13734W        W78961  19.616  31.137  12.374
13735W        W78962  14.021  28.039  14.902
13736W        W78963  42.850  14.078  12.919
13737W        W78964  40.318  12.511   0.265
13738W        W78965  29.950  42.623  14.024
13739W        W78966   5.245   9.676   0.908
13740W        W78967   8.428  40.102   0.321
13741W        W78968  41.467  43.870   4.478
13742W        W78969  15.462  40.019   4.122
13743W        W78970   2.415  29.690  13.831
13744W        W78971   7.610  30.522   3.250
13745W        W78972  30.950   6.654   1.927
13746W        W78973   5.457  34.046  10.651
13747W        W78974  16.883   0.881  11.597
13748W        W78975  22.136  12.918  13.461
13749W        W78976   3.739  22.730  10.542
13750W        W78977   8.223   8.127  14.838
13751W        W78978  32.755  10.677   4.440
13752W        W78979  16.302  22.254  10.448
13753W        W78980  30.306  28.081   3.071
13754W        W78981   9.848  16.591   2.163
13755W        W78982  26.632  38.478  13.181
13756W        W78983  20.296  14.115   1.251
13757W        W78984  23.518  26.480   0.344
13758W        W78985  21.604   8.843  11.059
13759W        W78986  24.604  21.729   4.121
13760W        W78987  34.985  13.554   1.137
13761W        W78988  16.576  40.067   2.976
13762W        W78989  29.403  44.017  14.752
13763W        W78990   6.518  20.440  13.789
13764W        W78991   2.978  11.187   4.683
13765W        W78992   4.826  29.175   2.528
13766W        W78993  38.118  30.020   1.961
13767W        W78994  33.944   9.215  13.055
13768W        W78995  10.837  40.796  12.881
13769W        W78996  27.711   1.296   0.448
13770W        W78997   2.053  28.771   4.845
13771W        W78998  36.372  13.354   3.290
13772W        W78999  25.917  28.497   1.834
13773W        W79000   6.490  17.193  13.510
13774W        W79001  41.352  35.440   3.618
13775W        W79002  38.937   2.970  14.866
13776W        W79003  24.078  33.934   2.204
13777W        W79004  25.788   8.663   2.840
13778W        W79005  44.876   4.893   3.661
13779W        W79006  14.234  31.673  13.446
13780W        W79007  29.550  25.508   4.130
13781W        W79008  38.546  21.440  14.200
13782W        W79009  31.148  14.012  10.408
13783W        W79010  25.984  36.896  12.151
13784W        W79011  30.862  26.188  10.214
13785W        W79012  43.806  21.497  12.412
13786W        W79013  33.613  12.541  13.010
13787W        W79014  41.066  15.906  10.142
13788W        W79015  12.157  44.778  13.595
13789W        W79016  31.972  39.656  14.861
13790W        W79017  17.246  17.051   3.748
13791W        W79018  40.572  31.123   3.621
13792W        W79019   9.432   5.303   4.342
13793W        W79020   9.093  37.193  12.068
13794W        W79021   8.308  25.684   2.782
13795W        W79022  35.426  24.455   0.424
13796W        W79023  13.651  31.927   0.700
13797W        W79024  40.466   3.863   4.025
13798W        W79025  37.511  34.685  11.235
13799W        W79026  11.739   9.091  12.120
13800W        W79027   8.162  42.436  10.830
13801W        W79028  11.654  10.185  14.852
13802W        W79029  23.704   6.400   4.088
13803W        W79030  18.753  31.910   2.427
13804W        W79031   8.822  24.694   1.877
13805W        W79032  10.899  28.045  11.667
13806W        W79033  30.869  17.128  14.344
13807W        W79034  25.153  44.914   2.902
13808W        W79035   5.896   8.719   1.934
13809W        W79036  28.604  33.686   1.256
13810W        W79037  33.694  30.544  11.221
13811W        W79038  43.810  15.618   1.632
13812W        W79039  11.701  43.542  12.577
13813W        W79040  21.109  19.964  14.942
13814W        W79041  36.467  11.612  13.874
13815W        W79042  40.361   2.431   2.177
13816W        W79043   1.796   2.511   4.102
13817W        W79044  10.889   2.437  13.472
13818W        W79045  27.198  28.606   2.533
13819W        W79046  30.543  10.234   3.243
13820W        W79047   7.740  12.836   0.963
13821W        W79048   8.627  10.696  12.631
13822W        W79049   3.870  39.384   4.563
13823W        W79050   1.266  15.751   4.696
13824W        W79051  41.852  17.900  12.558
13825W        W79052   2.023  30.962  10.903
13826W        W79053  44.931  10.704   3.198
13827W        W79054   0.554  26.451   3.441
13828W        W79055  10.234  21.300   3.386
13829W        W79056  16.611  32.616   0.311
13830W        W79057  22.161  34.594   1.147
13831W        W79058  37.889  13.772   2.255
13832W        W79059   5.303  20.910  13.124
13833W        W79060  28.593  19.500  14.261
13834W        W79061  22.561  14.285  11.149
13835W        W79062  30.662  14.330  14.294
13836W        W79063  15.394  24.973  14.228
13837W        W79064   0.782  36.636   3.252
13838W        W79065   5.444  34.941  11.622
13839W        W79066   1.493  31.434   3.149
13840W        W79067  43.501  14.789  13.810
13841W        W79068  28.943  22.087  11.267
13842W        W79069  10.467  26.466  11.190
13843W        W79070  19.055   2.533  11.119
13844W        W79071  14.619  13.429  10.823
13845W        W79072  13.670  26.159   0.513
13846W        W79073  32.964  38.042   0.804
13847W        W79074   2.349  39.245  13.057
13848W        W79075  35.476  29.456  13.393
13849W        W79076  31.947   4.765  10.255
13850W        W79077  17.373  41.912  11.985
13851W        W79078  40.932  41.893   2.326
13852W        W79079  22.689  28.481  12.122
13853W        W79080  24.028  23.067  13.295
13854W        W79081  11.225  36.111  12.221
13855W        W79082  20.200  23.093   3.331
13856W        W79083  13.441  39.391  11.525
13857W        W79084  36.777  20.628   3.257
13858W        W79085  30.572  36.054  12.924
13859W        W79086  13.358   3.370  11.238
13860W        W79087   4.944  44.717   4.627
13861W        W79088  16.219  43.449   0.799
13862W        W79089  27.525  37.911   2.437
13863W        W79090  27.957   0.803   4.070
13864W        W79091  22.643  21.186  14.735
13865W        W79092  44.481  34.942  12.549
13866W        W79093  37.436  28.926   2.444
13867W        W79094  22.052  30.883  14.897
13868W        W79095  42.735   0.769   0.329
13869W        W79096  23.954   7.710  11.564
13870W        W79097  43.669  28.273   4.339
13871W        W79098  39.530  18.548   2.438
13872W        W79099  41.147  17.107  12.559
13873W        W79100  34.170   9.321  13.510
13874W        W79101  14.997  33.901  13.588
13875W        W79102  10.174  12.223  11.559
13876W        W79103  20.630  32.935  12.100
13877W        W79104   1.977  41.609   1.622
13878W        W79105  35.554  10.927   3.007
13879W        W79106   9.464  21.482   1.221
13880W        W79107   2.573  36.945   2.972
13881W        W79108  29.520  34.454   2.401
13882W        W79109  31.442  36.858   3.509
13883W        W79110  11.260  43.608  11.571
13884W        W79111  34.416  28.488  10.065
13885W        W79112  34.006  19.820  12.544
13886W        W79113  32.375  37.330  12.113
13887W        W79114   6.515  34.173   0.486
13888W        W79115  11.912  29.645   4.620
13889W        W79116  24.821  22.168   2.340
13890W        W79117   9.694  24.929   1.630
13891W        W79118  19.385  34.634   4.117
13892W        W79119  24.266  32.886  11.701
13893W        W79120   1.041  10.636   1.966
13894W        W79121  20.146   2.524   4.079
13895W        W79122  30.681   4.002  11.054
13896W        W79123  25.376  22.564  11.904
13897W        W79124  19.921  41.342  13.694
13898W        W79125  26.495  20.523  13.928
13899W        W79126   7.869   8.159   4.059
13900W        W79127  31.876  37.396  14.371
13901W        W79128   8.539  19.015  12.055
13902W        W79129  12.217  27.508  14.518
13903W        W79130  35.438  20.802  12.547
13904W        W79131  44.381  16.503   3.797
13905W        W79132   6.963  16.818   4.677
13906W        W79133  11.930  18.144   4.732
13907W        W79134  42.352  10.567   2.294
13908W        W79135  14.513  17.182   4.425
13909W        W79136  34.382   8.195   0.878
13910W        W79137  10.775  11.585   2.260
13911W        W79138  42.815   7.394   2.550
13912W        W79139   7.366   0.470   3.120
13913W        W79140  23.042  30.524  14.296
13914W        W79141  21.584   0.904   2.191
13915W        W79142  33.182  36.768  12.549
13916W        W79143  35.170   4.255   2.663
13917W        W79144   5.470  19.247   2.674
13918W        W79145  35.101  31.460  11.528
13919W        W79146   3.715  34.950   0.727
13920W        W79147   9.452  31.213   1.419
13921W        W79148  24.157   4.777   2.734
13922W        W79149  27.958   4.464   1.744
13923W        W79150  30.412  33.765   0.644
13924W        W79151   2.585  39.227   0.430
13925W        W79152  22.063  26.719  11.600
13926W        W79153  40.493  28.048   2.846
13927W        W79154  22.433  30.521   1.654
13928W        W79155  34.628   5.365  14.453
13929W        W79156  12.643  10.743  10.365
13930W        W79157  15.133  31.697  11.397
13931W        W79158   1.359  12.403   9.659
13932W        W79159  40.942   7.281   2.680
13933W        W79160  22.498  32.719  13.609
13934W        W79161  34.962  12.910   2.185
13935W        W79162   0.682   9.845  11.197
13936W        W79163  18.085  32.598   3.722
13937W        W79164  31.691   9.157  13.459
13938W        W79165  38.881  41.722  11.284
13939W        W79166   3.784   5.376   4.484
13940W        W79167  24.747  23.092  13.027
13941W        W79168  40.557  30.709   4.688
13942W        W79169  14.853   6.212   3.337
13943W        W79170   9.365   6.226   3.304
13944W        W79171  21.279  40.221  13.832
13945W        W79172   5.593  13.419  14.550
13946W        W79173  19.720  13.142   4.302
13947W        W79174  28.892   8.438   3.731
13948W        W79175  36.431  18.358   1.266
13949W        W79176  29.979  41.048  13.342
13950W        W79177   3.888   5.342  10.602
13951W        W79178  41.559   6.438  14.861
13952W        W79179  18.577  13.486  14.324
13953W        W79180   2.800  15.671  14.989
13954W        W79181   1.250   8.935   1.215
13955W        W79182  22.420  13.802  13.469
13956W        W79183  37.136   8.323   4.300
13957W        W79184  30.665  21.253   0.882
13958W        W79185  17.536   3.665   0.269
13959W        W79186  16.612  33.134   0.242
13960W        W79187   6.461  23.389   1.911
13961W        W79188   8.835  43.687  12.408
13962W        W79189  23.482  27.839  10.937
13963W        W79190  27.952   5.337   2.001
13964W        W79191   3.040   7.615  11.619
13965W        W79192  11.168  23.524   0.893
13966W        W79193  28.300  19.374  12.025
13967W        W79194   5.447  28.164   1.230
13968W        W79195   2.463  17.892  11.437
13969W        W79196  37.422  33.851  14.973
13970W        W79197   7.888   4.296  11.165
13971W        W79198   9.799  40.794  13.345
13972W        W79199   7.143   8.536  11.037
13973W        W79200  20.090  39.526   3.959
13974W        W79201  20.175  42.005   3.330
13975W        W79202  30.186  30.368  12.007
13976W        W79203  23.240  34.462   4.190
13977W        W79204   6.144   5.155  11.740
13978W        W79205  20.917  26.938   0.992
13979W        W79206  10.299  20.063   1.024
13980W        W79207  33.947  31.434   3.228
13981W        W79208  32.906  12.501   5.469
13982W        W79209   7.382   1.945  14.715
13983W        W79210  23.053  35.433  11.882
13984W        W79211   0.235  42.956   3.890
13985W        W79212  22.994   7.904  12.961
13986W        W79213  43.966  29.019  13.146
13987W        W79214  17.668  27.611   1.495
13988W        W79215  23.873  16.318   0.880
13989W        W79216  28.103  44.177   0.768
13990W        W79217  18.126   8.130  14.744
13991W        W79218  28.882  14.776   3.669
13992W        W79219  13.675  12.266  13.054
13993W        W79220  38.076   5.254   9.820
13994W        W79221  13.803   5.549   2.272
13995W        W79222  13.310  21.860   0.759
13996W        W79223  26.469  35.304   1.715
13997W        W79224  39.376  43.781   2.238
13998W        W79225  33.599  28.148  11.037
13999W        W79226  18.088  18.066   2.461
14000W        W79227  28.848   9.282   0.482
14001W        W79228  27.719  39.879   1.725
14002W        W79229   8.965  21.784  11.899
14003W        W79230   8.765  30.164  14.403
14004W        W79231   7.302   1.721   1.726
14005W        W79232   0.123  11.513  11.095
14006W        W79233   7.266   0.395  14.588
14007W        W79234  33.162   3.809  12.955
14008W        W79235  24.708  21.454   1.774
14009W        W79236  41.424   4.625   1.006
14010W        W79237  20.129  42.829   2.983
14011W        W79238  44.510  12.767  12.976
14012W        W79239  44.491  24.963  11.907
14013W        W79240  36.049  29.166  11.121
14014W        W79241  38.386  42.828   0.579
14015W        W79242  11.660   3.396   0.435
14016W        W79243  24.553  43.391   2.666
14017W        W79244  25.016   1.203  13.901
14018W        W79245  17.341  36.350   3.368
14019W        W79246  12.214  40.923   0.657
14020W        W79247  35.847   7.348   2.673
14021W        W79248  33.627   8.847   4.537
14022W        W79249  33.116  39.023   1.923
14023W        W79250   3.541  23.776   3.651
14024W        W79251  10.135  37.268  13.303
14025W        W79252   8.099   3.007  12.906
14026W        W79253  25.961   5.361   2.325
14027W        W79254  27.104  43.996  14.375
14028W        W79255  13.209  18.771  14.141
14029W        W79256  38.341  16.758   4.664
14030W        W79257  24.575  35.943  12.049
14031W        W79258  16.232  12.160  10.372
14032W        W79259  39.395  11.628  10.980
14033W        W79260  38.502   3.209   5.003
14034W        W79261  16.179  27.626  12.442
14035W        W79262  17.678  12.226   3.864
14036W        W79263  39.101  20.073  12.618
14037W        W79264  31.665   3.174   1.506
14038W        W79265  39.357  39.793   5.023
14039W        W79266   1.432   9.327   0.206
14040W        W79267   6.186  19.024   3.083
14041W        W79268  34.136  27.043   3.570
14042W        W79269  20.618  10.973   0.806
14043W        W79270  41.861  44.179   4.660
14044W        W79271  19.297  42.282   0.688
14045W        W79272  14.596  36.382  14.862
14046W        W79273  32.318   7.782   0.919
14047W        W79274   6.838   3.773  12.152
14048W        W79275  24.068  14.861   2.634
14049W        W79276  16.805  26.438  10.613
14050W        W79277  24.288  43.704   4.683
14051W        W79278  17.239  27.744   4.223
14052W        W79279  13.721  35.344   2.662
14053W        W79280  40.037  10.276  13.116
14054W        W79281  11.773  29.388   1.536
14055W        W79282  26.672  23.174   1.689
14056W        W79283  15.733  34.150  14.766
14057W        W79284  28.161   5.587  10.717
14058W        W79285  33.233  28.448   4.109
14059W        W79286  43.437  39.154   3.357
14060W        W79287  23.041   4.527   4.370
14061W        W79288  14.975  25.930   3.349
14062W        W79289  29.635  30.392  10.695
14063W        W79290  15.906  17.113  14.923
14064W        W79291  22.805  10.132   1.593
14065W        W79292  30.343  35.018  11.679
14066W        W79293  18.552   3.478   4.159
14067W        W79294  40.326   7.593   1.939
14068W        W79295  29.067  42.820   0.865
14069W        W79296   8.158  21.149  10.783
14070W        W79297  37.848   8.224   0.352
14071W        W79298   5.412  13.921   1.777
14072W        W79299  41.564  30.436  11.890
14073W        W79300  32.970   0.193   3.727
14074W        W79301  17.211   4.474  13.956
14075W        W79302  32.386   7.108  13.547
14076W        W79303   8.277  41.999  14.828
14077W        W79304  31.369  20.012   1.393
14078W        W79305  32.327  19.013  13.986
14079W        W79306  10.642   1.232   2.880
14080W        W79307   4.804  22.564   0.380
14081W        W79308  23.032  39.818  14.816
14082W        W79309  20.357  44.887   3.483
14083W        W79310  13.602  15.769  11.582
14084W        W79311  24.142  33.722  12.016
14085W        W79312  27.479  44.916   5.638
14086W        W79313  20.168  26.508  10.600
14087W        W79314  31.065  27.559  13.834
14088W        W79315  15.864   4.461   1.347
14089W        W79316   1.048   5.374  14.296
14090W        W79317  40.539  38.540  13.953
14091W        W79318  17.216   1.672  13.053
14092W        W79319   5.731  36.360   2.339
14093W        W79320   2.197  12.279   2.196
14094W        W79321   3.726   7.686   3.104
14095W        W79322  11.523   2.007   5.220
14096W        W79323   1.584  37.129   5.033
14097W        W79324  12.580  21.723   1.957
14098W        W79325  41.686   2.482   0.826
14099W        W79326  13.647  27.035  10.952
14100W        W79327  30.863  10.459  12.404
14101W        W79328  13.262  20.145   0.375
14102W        W79329   1.780  10.217   3.266
14103W        W79330  41.018  35.039   2.744
14104W        W79331   3.741  37.857   4.693
14105W        W79332  17.820  31.150  12.604
14106W        W79333  14.794   8.451   0.909
14107W        W79334  19.667  35.101  14.292
14108W        W79335  11.786   7.140   9.931
14109W        W79336  24.159  21.637  10.372
14110W        W79337  39.529  26.062   5.008
14111W        W79338  15.395  34.107  12.018
14112W        W79339   8.575  15.927  10.087
14113W        W79340  35.893  36.400   2.237
14114W        W79341   1.660  31.454  13.071
14115W        W79342  32.168  30.666  12.893
14116W        W79343  16.737  33.506   2.818
14117W        W79344  38.872  44.285  11.603
14118W        W79345  21.094  24.862  12.357
14119W        W79346  20.299  32.581  14.965
14120W        W79347  30.540  39.991  12.667
14121W        W79348  28.461  37.440  10.977
14122W        W79349  10.920  29.102  13.050
14123W        W79350   5.284  15.830  13.831
14124W        W79351  33.486   6.648   1.786
14125W        W79352  41.283  11.789  14.996
14126W        W79353  39.923  38.519   2.788
14127W        W79354   3.915  38.643  12.982
14128W        W79355   0.534  41.871  11.539
14129W        W79356  36.175   0.225  11.218
14130W        W79357  30.138  18.776  10.941
14131W        W79358  10.669  34.474   1.404
14132W        W79359  27.228  41.886   2.274
14133W        W79360  40.540   8.105  13.555
14134W        W79361   5.140  30.396  14.871
14135W        W79362  13.671  11.337  14.509
14136W        W79363   2.210  17.088   2.294
14137W        W79364  34.344   0.709  11.686
14138W        W79365  16.444  24.058   1.287
14139W        W79366  24.155   4.344   1.639
14140W        W79367  33.120  29.490   0.755
14141W        W79368  13.149  40.332  13.428
14142W        W79369   2.827  21.180   4.546
14143W        W79370   6.734  29.175   2.623
14144W        W79371  31.008  26.476   4.111
14145W        W79372  37.986   7.145  12.877
14146W        W79373  34.570   6.963  12.005
14147W        W79374  16.373  37.269  13.898
14148W        W79375  24.707  17.464  10.814
14149W        W79376  40.809  12.659   3.764
14150W        W79377   4.908  13.826   2.397
14151W        W79378  40.386  14.011  12.835
14152W        W79379  10.286  14.856   4.044
14153W        W79380  17.740   6.780   2.321
14154W        W79381  40.201  35.807   1.780
14155W        W79382  22.998  39.925  13.844
14156W        W79383  40.049  27.800   2.683
14157W        W79384   0.131  23.483  11.812
14158W        W79385  18.775  10.289   4.944
14159W        W79386  15.711  34.156   1.259
14160W        W79387  40.845  29.643   2.760
14161W        W79388  40.501  31.666  13.642
14162W        W79389  14.839  23.164   3.141
14163W        W79390  17.728   6.817   3.197
14164W        W79391  26.534  25.534   3.934
14165W        W79392   8.005  29.632   3.817
14166W        W79393  32.880  23.105  13.874
14167W        W79394  36.473  18.743   4.739
14168W        W79395  24.862  37.931  10.731
14169W        W79396  42.055  25.202  14.800
14170W        W79397  25.145   9.880  11.898
14171W        W79398  35.069  23.132  13.192
14172W        W79399  29.584  32.151  13.302
14173W        W79400  38.812  14.363  14.013
14174W        W79401  38.281   3.481   2.206
14175W        W79402  16.017  29.586   2.846
14176W        W79403  24.756  43.587  11.463
14177W        W79404  41.000  36.653   2.439
14178W        W79405  37.892  17.617   1.285
14179W        W79406  32.132  20.486   1.300
14180W        W79407  28.938  12.237   2.868
14181W        W79408  22.691  12.836  10.805
14182W        W79409  41.817  29.234   2.199
14183W        W79410   9.598  18.141   4.310
14184W        W79411  39.500   3.203  11.172
14185W        W79412  24.065  29.458   3.776
14186W        W79413  25.725  26.785  12.958
14187W        W79414  29.446   7.350  10.739
14188W        W79415   6.140  37.009  14.800
14189W        W79416  11.900  23.240   4.253
14190W        W79417  16.186  32.164   2.476
14191W        W79418  18.112  31.423  13.799
14192W        W79419  30.626  44.208  13.147
14193W        W79420  18.093  28.076   4.425
14194W        W79421  19.053   5.918   3.727
14195W        W79422  44.449  37.588   0.911
14196W        W79423  35.625  41.559   1.228
14197W        W79424  21.418  32.765   2.720
14198W        W79425  31.766  44.901  10.616
14199W        W79426  28.679  32.632   1.365
14200W        W79427  12.048  13.614  13.979
14201W        W79428  14.283  24.014  13.268
14202W        W79429  14.588  32.728   1.079
14203W        W79430  28.629  13.264  13.982
14204W        W79431  24.122  10.333   3.263
14205W        W79432  40.450  10.822   1.984
14206W        W79433  12.124  42.877   4.922
14207W        W79434  34.989  32.469   3.597
14208W        W79435  28.660   5.798  14.942
14209W        W79436  31.022   0.787  11.095
14210W        W79437  19.107  39.384  13.537
14211W        W79438  43.640  42.618   4.673
14212W        W79439   1.825  25.536  11.086
14213W        W79440  17.255  16.907  11.152
14214W        W79441  17.177   9.192   3.181
14215W        W79442   8.408  27.237  13.564
14216W        W79443  19.195   7.092   2.000
14217W        W79444   4.746  28.633  11.705
14218W        W79445  12.175  31.072   5.071
14219W        W79446  15.703  11.393  10.697
14220W        W79447  10.085  17.166   3.232
14221W        W79448  29.163  24.520   0.772
14222W        W79449  22.973  24.323  14.741
14223W        W79450  23.310  17.307  14.498
14224W        W79451  34.115  26.924   1.702
14225W        W79452  33.092  26.078  14.826
14226W        W79453  17.339   0.504  13.414
14227W        W79454  36.961  14.860  13.627
14228W        W79455  24.146  32.551  13.003
14229W        W79456  24.472  11.718  11.139
14230W        W79457   9.332  35.162  13.087
14231W        W79458  16.571  37.564   4.076
14232W        W79459  28.373  27.757  11.581
14233W        W79460  32.941  35.961   1.973
14234W        W79461  40.255   2.644   0.847
14235W        W79462   9.787   7.824   4.862
14236W        W79463  41.319  23.086   1.646
14237W        W79464  25.721  20.697   4.418
14238W        W79465  20.987  23.294   2.688
14239W        W79466   8.798   2.321  10.299
14240W        W79467  26.992   1.830   2.799
14241W        W79468   2.273  25.529  11.607
14242W        W79469  20.644  10.385  14.798
14243W        W79470  10.347  18.436   1.272
14244W        W79471  17.597  34.938  10.601
14245W        W79472  26.091  23.058  14.946
14246W        W79473  22.742  25.922   3.635
14247W        W79474  29.332  42.456   4.579
14248W        W79475  12.930  11.106   1.462
14249W        W79476   2.253   8.740  10.206
14250W        W79477  29.948  31.022  12.853
14251W        W79478  43.417  43.305   3.060
14252W        W79479   5.228  13.747  14.361
14253W        W79480   4.870  13.168  12.177
14254W        W79481  41.027  10.282   4.305
14255W        W79482  26.692  34.375   1.691
14256W        W79483  20.503  27.639  11.099
14257W        W79484  41.969   2.780  10.727
14258W        W79485  20.994  32.508  12.027
14259W        W79486   6.689   0.308   1.856
14260W        W79487  30.230  19.132   2.830
14261W        W79488   2.459  21.961  11.508
14262W        W79489  38.910   9.695  14.508
14263W        W79490   8.170  23.185  13.527
14264W        W79491  32.243  30.990  13.528
14265W        W79492  40.599  21.749   2.232
14266W        W79493  27.805  29.873   1.241
14267W        W79494   0.899  23.425   0.289
14268W        W79495  43.976  19.725   2.270
14269W        W79496  19.089  20.644  11.014
14270W        W79497  28.579  11.231  13.599
14271W        W79498  13.632   6.910   2.459
14272W        W79499   7.185  33.172   1.803
14273W        W79500  14.295  23.655   2.771
14274W        W79501   1.214  28.897   3.172
14275W        W79502  11.390  12.912   4.048
14276W        W79503  10.221   9.202   3.696
14277W        W79504  18.161   8.577  11.759
14278W        W79505  10.462  28.003  11.410
14279W        W79506  44.889  17.968  10.160
14280W        W79507  14.204  11.527  13.637
14281W        W79508   5.807  23.155  13.769
14282W        W79509  30.035  37.439  12.888
14283W        W79510   4.942  26.557  12.663
14284W        W79511  12.050  33.875   1.790
14285W        W79512  43.035  39.784  13.964
14286W        W79513  28.452  43.489   4.570
14287W        W79514  12.252  43.813   2.310
14288W        W79515  30.091  10.494   3.232
14289W        W79516  40.953   3.908   1.638
14290W        W79517  35.676   6.335   1.471
14291W        W79518   6.949  40.101   3.251
14292W        W79519   1.877  23.253   0.393
14293W        W79520  16.846  27.463  12.533
14294W        W79521  10.874   1.717  11.504
14295W        W79522  33.993  25.459  12.964
14296W        W79523  11.191  31.590  12.140
14297W        W79524   7.608   1.289  13.085
14298W        W79525  12.288   8.371   2.410
14299W        W79526  11.160  15.258  14.244
14300W        W79527   2.268  20.570  14.875
14301W        W79528  21.609  42.985  11.736
14302W        W79529  12.252  24.463  11.793
14303W        W79530  16.594  31.533  11.046
14304W        W79531  29.686  13.761   2.187
14305W        W79532  34.510  22.261  12.388
14306W        W79533   4.508  36.989  13.886
14307W        W79534   3.164  38.520   0.512
14308W        W79535  22.937  38.399  13.588
14309W        W79536   9.571  23.669   5.014
14310W        W79537  25.954  12.591  14.452
14311W        W79538  19.099  38.923   0.273
14312W        W79539   7.365   0.322  12.893
14313W        W79540  13.366  28.535  12.981
14314W        W79541  25.955  26.911  14.528
14315W        W79542  16.950  19.760  13.378
14316W        W79543  16.664  20.310   1.693
14317W        W79544  37.471  27.604   2.886
14318W        W79545  31.964  32.071   1.294
14319W        W79546  36.945  25.967  11.963
14320W        W79547   7.748  27.474  11.502
14321W        W79548  33.868  38.819   4.200
14322W        W79549  43.293  41.776   4.162
14323W        W79550  27.040  26.584  14.403
14324W        W79551  38.368   1.315  12.402
14325W        W79552  24.674  22.956   0.383
14326W        W79553   2.821  43.411  13.773
14327W        W79554   7.439   4.142   4.217
14328W        W79555  33.887  12.170   1.955
14329W        W79556   5.850  13.167   0.692
14330W        W79557  18.026  37.429   3.162
14331W        W79558  42.472  40.444  10.633
14332W        W79559  31.344  31.921  13.462
14333W        W79560  11.094  36.974   0.834
14334W        W79561  29.470  20.597  10.659
14335W        W79562   7.479  34.637   1.963
14336W        W79563  21.551  38.856  13.811
14337W        W79564  39.042   2.698   4.249
14338W        W79565  26.833  29.532  14.569
14339W        W79566  24.146  27.291   2.805
14340W        W79567  31.193  39.839  12.573
14341W        W79568  15.592  24.720   2.354
14342W        W79569  34.628  34.472   4.883
14343W        W79570   9.571  32.894  12.724
14344W        W79571  33.481  10.256   3.826
14345W        W79572  18.802  44.660  12.381
14346W        W79573  38.960   5.393   0.361
14347W        W79574   2.274   7.848  10.759
14348W        W79575  16.102  18.794  10.735
14349W        W79576  11.723  40.293  13.136
14350W        W79577  28.890   0.475  12.971
14351W        W79578  27.956  41.971  14.527
14352W        W79579  36.065  38.003   3.567
14353W        W79580  29.707  20.996  11.017
14354W        W79581   3.358  38.153   2.869
14355W        W79582   9.072   4.062  14.988
14356W        W79583  43.467   1.539   2.430
14357W        W79584  16.787  24.507  12.036
14358W        W79585  18.725  21.733  11.182
14359W        W79586  20.159   0.228   1.662
14360W        W79587  27.772  23.582   3.893
14361W        W79588  42.038  23.654  12.070
14362W        W79589  17.105  29.335   4.540
14363W        W79590  39.784  41.405  14.022
14364W        W79591  29.509  32.096  10.716
14365W        W79592  36.970  44.708  14.214
14366W        W79593   0.475  43.030   4.960
14367W        W79594  32.816  22.966   3.125
14368W        W79595  14.325  30.483   3.575
14369W        W79596   7.681   8.485  11.759
14370W        W79597   7.192   5.197   3.738
14371W        W79598  24.542   4.303  14.343
14372W        W79599  31.204  41.629   1.353
14373W        W79600  41.404   3.635  10.918
14374W        W79601   5.568  30.756   4.119
14375W        W79602  16.665   0.594  14.728
14376W        W79603  44.719  44.368   1.468
14377W        W79604  17.125  28.115  13.871
14378W        W79605  18.818  12.750   3.759
14379W        W79606  16.691  31.320   3.734
14380W        W79607  29.458  17.402   4.095
14381W        W79608  16.944   5.820   3.722
14382W        W79609  41.579  27.234   4.084
14383W        W79610  17.480   7.265   3.237
14384W        W79611  11.611  42.269   4.032
14385W        W79612   9.971   9.723   1.669
14386W        W79613   9.282  35.814  12.445
14387W        W79614  20.989  40.854   4.145
14388W        W79615  17.374   2.922   3.436
14389W        W79616  30.944   4.264   4.172
14390W        W79617  36.705  19.365   2.747
14391W        W79618   6.331  34.961  12.908
14392W        W79619  15.521  38.726  13.314
14393W        W79620  36.988  30.368   2.585
14394W        W79621  11.136  32.897  12.659
14395W        W79622  35.670  18.164  10.847
14396W        W79623   4.282  29.959  13.763
14397W        W79624   7.533  40.234   4.928
14398W        W79625  13.777  32.277   1.541
14399W        W79626  34.693  17.231   2.423
14400W        W79627  25.600   2.762   2.884
14401W        W79628  20.088   7.975   0.397
14402W        W79629  19.537   6.010   4.953
14403W        W79630  28.716  39.572  13.514
14404W        W79631  29.526  33.531  10.688
14405W        W79632  32.174  19.222   0.394
14406W        W79633  13.940  30.937   4.210
14407W        W79634  10.857  31.055   0.029
14408W        W79635  33.958  44.344   3.614
14409W        W79636   4.804  20.550  11.648
14410W        W79637  20.712  11.408  13.305
14411W        W79638  22.103  15.149   4.447
14412W        W79639  33.243  13.787   3.606
14413W        W79640   9.884   3.121   3.586
14414W        W79641  35.288   4.719  14.854
14415W        W79642  43.319  20.438  12.156
14416W        W79643   7.394  12.367   1.303
14417W        W79644  18.777   2.996  13.985
14418W        W79645  19.092   1.399   0.899
14419W        W79646  31.050   7.979  13.047
14420W        W79647  44.781  22.064   3.633
14421W        W79648  37.866  43.535  10.604
14422W        W79649  39.789  23.707  13.836
14423W        W79650  33.951   2.267   2.966
14424W        W79651  20.240  21.066  11.658
14425W        W79652   8.798  25.491  11.667
14426W        W79653  32.616  15.208   0.066
14427W        W79654   4.905   3.795  10.680
14428W        W79655  28.907  12.671  10.745
14429W        W79656  29.714   9.188  14.651
14430W        W79657  42.023  36.425  11.202
14431W        W79658  16.010  33.603  12.835
14432W        W79659  33.131  31.121  13.554
14433W        W79660  19.393  21.576  12.509
14434W        W79661  30.850  31.659   4.785
14435W        W79662  27.590   4.423   3.133
14436W        W79663  31.804  10.826  12.557
14437W        W79664  21.136  19.742   4.123
14438W        W79665  40.808  21.281   4.900
14439W        W79666   9.470   2.814   3.522
14440W        W79667  39.805  16.772  11.413
14441W        W79668  19.060  43.341  13.987
14442W        W79669  42.296  12.833   1.347
14443W        W79670  42.400  28.986  10.664
14444W        W79671  40.598  28.260  13.545
14445W        W79672   1.626  28.869  14.950
14446W        W79673   3.992  29.795  11.153
14447W        W79674  28.209  19.999   0.378
14448W        W79675   4.220   7.360   2.719
14449W        W79676  44.640  13.759   9.795
14450W        W79677  18.040  31.410  11.175
14451W        W79678  20.990   4.189  10.877
14452W        W79679  39.598  25.300   2.650
14453W        W79680  11.625   2.830  11.169
14454W        W79681  19.309  30.678  14.426
14455W        W79682  16.357  43.029  13.197
14456W        W79683  25.557   4.711  14.840
14457W        W79684  28.484   4.656  12.520
14458W        W79685  25.019  41.918   0.201
14459W        W79686  21.948  20.870   0.236
14460W        W79687  22.338  27.631  12.966
14461W        W79688  35.689  14.695  12.346
14462W        W79689  22.056  37.120   2.823
14463W        W79690  18.963   8.143  11.603
14464W        W79691  13.182  30.670  12.005
14465W        W79692  26.264  13.875  12.939
14466W        W79693  22.676  41.029  14.467
14467W        W79694  27.474  14.618  12.659
14468W        W79695  34.549  15.948   1.992
14469W        W79696  19.423  32.866   3.171
14470W        W79697   1.835  19.765  13.063
14471W        W79698  27.109  17.808  14.498
14472W        W79699   8.175  41.839  13.377
14473W        W79700  36.162  12.818   2.846
14474W        W79701  41.258  34.214   4.570
14475W        W79702  39.351  10.671  12.501
14476W        W79703  10.615  36.591   4.016
14477W        W79704   3.387  12.486   1.254
14478W        W79705  17.798  16.625  13.054
14479W        W79706  30.821  35.415   2.526
14480W        W79707  38.830  26.506  11.266
14481W        W79708   5.269   2.035   0.410
14482W        W79709  36.023  14.291  10.905
14483W        W79710  20.088   8.376   1.671
14484W        W79711  33.169  31.059  14.072
14485W        W79712  39.207  28.436   3.666
14486W        W79713  25.563  19.911   2.833
14487W        W79714  37.811  30.931  12.105
14488W        W79715  38.506  23.406  14.370
14489W        W79716  32.994  28.367  13.327
14490W        W79717  17.035  15.052  13.526
14491W        W79718  30.370  11.648   2.148
14492W        W79719  24.985  13.704   0.250
14493W        W79720  13.401  24.106   4.127
14494W        W79721  29.279   7.964   4.174
14495W        W79722  28.764  37.380   2.662
14496W        W79723   6.581  11.151  13.396
14497W        W79724  41.858   8.382  12.079
14498W        W79725  35.398  39.066  13.417
14499W        W79726  26.813  18.685  14.059
14500W        W79727   1.485   5.265   2.770
14501W        W79728  42.038  19.665   9.967
14502W        W79729  28.587   3.797  13.487
14503W        W79730  40.291  17.791  10.674
14504W        W79731  25.992   6.519  11.087
14505W        W79732  36.210  20.858   1.707
14506W        W79733  29.665  31.048  13.815
14507W        W79734  41.008   3.154  12.499
14508W        W79735  37.544   4.675  13.624
14509W        W79736  32.088  19.477  11.406
14510W        W79737  42.838  24.531   3.836
14511W        W79738  32.640   3.714  14.302
14512W        W79739   8.860  39.260  12.487
14513W        W79740  24.105  44.976   4.894
14514W        W79741   0.751   6.931   1.816
14515W        W79742  21.401   7.437   2.857
14516W        W79743  28.011   8.592   2.210
14517W        W79744  16.454  27.209  13.359
14518W        W79745  21.453  44.324   3.542
14519W        W79746  12.079  32.544   0.814
14520W        W79747   7.950   5.486  11.584
14521W        W79748  36.923  23.330   3.467
14522W        W79749  11.072  10.799   0.886
14523W        W79750  33.143  16.854   0.845
14524W        W79751  30.876  15.686   4.006
14525W        W79752  18.217  34.389  12.537
14526W        W79753  25.525  41.404   3.606
14527W        W79754   7.477   2.904   3.723
14528W        W79755  21.806  20.687  11.123
14529W        W79756  19.203   7.858  14.520
14530W        W79757  17.170  38.584  12.478
14531W        W79758  15.577  13.719   0.190
14532W        W79759  44.811  37.830   4.875
14533W        W79760  38.140  24.409  11.667
14534W        W79761  11.171  16.756   2.732
14535W        W79762  37.373  14.267   1.443
14536W        W79763  15.325  14.010  13.476
14537W        W79764  26.652  39.316  13.581
14538W        W79765  14.326   7.703   0.902
14539W        W79766  44.842  11.246   4.458
14540W        W79767  22.623  37.082   3.176
14541W        W79768  30.239  16.195   3.541
14542W        W79769   8.410  27.958  14.263
14543W        W79770  14.102  17.105  11.194
14544W        W79771   8.922   2.740   1.738
14545W        W79772  22.641  25.639   1.300
14546W        W79773  15.261   1.225  13.879
14547W        W79774   5.838  40.307  10.491
14548W        W79775  36.322  22.624  10.847
14549W        W79776  14.811  14.264  14.113
14550W        W79777   8.275  10.955   2.412
14551W        W79778   3.343   0.949   3.331
14552W        W79779   3.236  41.384  10.170
14553W        W79780  42.404  22.607   1.345
14554W        W79781  18.130  23.178   0.450
14555W        W79782  30.888  11.161   2.902
14556W        W79783  24.487  15.374  13.527
14557W        W79784  29.161  24.728   1.724
14558W        W79785  19.493   8.528  13.068
14559W        W79786  33.200  44.455   2.123
14560W        W79787  43.841  22.042  10.697
14561W        W79788  36.462  23.450  11.887
14562W        W79789  29.477  26.239   0.721
14563W        W79790  35.896  28.097   1.344
14564W        W79791  17.603   0.859  14.729
14565W        W79792  25.756   3.173   2.605
14566W        W79793  38.760  14.556  10.602
14567W        W79794   6.522  43.499  11.205
14568W        W79795  43.663  23.661  13.499
14569W        W79796  35.901  29.576   1.135
14570W        W79797  21.970  16.897  12.749
14571W        W79798  14.139  24.549   2.943
14572W        W79799  29.294   1.232  14.338
14573W        W79800   3.245  24.127  12.464
14574W        W79801   8.980  10.892  10.468
14575W        W79802  34.048   3.664  13.807
14576W        W79803  10.906  27.308  12.823
14577W        W79804  32.130  39.811   1.627
14578W        W79805  26.138  40.293   1.201
14579W        W79806  31.068  11.360   0.443
14580W        W79807   3.102  33.371   0.406
14581W        W79808  35.410  19.140  12.223
14582W        W79809   1.205  16.805   3.735
14583W        W79810  18.320   1.442   1.273
14584W        W79811  23.070   7.576   3.705
14585W        W79812  43.788  19.426  11.653
14586W        W79813   4.609  29.828   3.200
14587W        W79814   9.112  44.698   0.283
14588W        W79815  41.232  13.294  11.055
14589W        W79816  16.809  16.312  12.174
14590W        W79817  19.148  30.143  11.688
14591W        W79818  42.819  26.515  10.055
14592W        W79819  41.038  20.413  10.876
14593W        W79820  18.520  35.729   5.272
14594W        W79821  43.576  33.624   3.222
14595W        W79822  41.486   2.764  10.525
14596W        W79823  21.636  18.297   0.238
14597W        W79824  39.860  24.143   3.886
14598W        W79825  22.829  38.310   2.308
14599W        W79826  20.183  17.807  14.457
14600W        W79827  21.559  24.086   2.325
14601W        W79828  36.786   5.177  14.488
14602W        W79829  21.597   9.668   3.239
14603W        W79830  25.193  18.760  14.978
14604W        W79831  40.061  10.234   0.819
14605W        W79832  28.614  19.151   1.241
14606W        W79833   2.547  24.641   0.006
14607W        W79834  24.403  22.843   2.653
14608W        W79835  40.797  33.121  14.532
14609W        W79836  34.871   9.126   3.168
14610W        W79837  21.073  19.073  14.572
14611W        W79838  38.328  44.672   0.306
14612W        W79839  12.146  28.590   4.157
14613W        W79840  39.954  11.572  14.457
14614W        W79841  15.522   5.337   3.393
14615W        W79842  33.441  10.851  14.211
14616W        W79843  29.578  15.873   1.380
14617W        W79844  21.558  33.493   1.419
14618W        W79845   7.487  15.800  12.863
14619W        W79846   9.689   4.018   4.058
14620W        W79847  24.138  21.617  10.905
14621W        W79848  10.633  36.906  10.548
14622W        W79849  38.741  10.117   0.237
14623W        W79850  25.497  21.036  14.324
14624W        W79851  42.372  16.296   0.304
14625W        W79852  11.874  16.298  14.526
14626W        W79853  25.033  27.988   2.482
14627W        W79854   5.979  28.996   3.703
14628W        W79855  42.035  43.754   0.056
14629W        W79856  29.147  31.860   2.290
14630W        W79857   3.405  28.676  11.529
14631W        W79858   9.153   4.621  12.132
14632W        W79859  26.076  40.832   2.641
14633W        W79860  28.794  23.575   4.846
14634W        W79861  44.928  33.680  11.100
14635W        W79862  32.122  17.357   0.203
14636W        W79863  30.929  18.442  11.164
14637W        W79864   8.757  25.421   0.854
14638W        W79865   9.336  23.896   2.007
14639W        W79866   6.215   3.974  10.911
14640W        W79867  25.091   5.261   9.626
14641W        W79868  24.723  23.782  13.969
14642W        W79869  24.247   1.469  11.576
14643W        W79870   7.203  35.863   0.433
14644W        W79871   6.235   1.447  12.130
14645W        W79872  18.452  16.025   1.025
14646W        W79873  43.448  27.082   1.247
14647W        W79874  18.279  43.253  11.185
14648W        W79875  35.018  36.634  13.390
14649W        W79876  32.356  30.438   2.717
14650W        W79877  29.034  36.106  14.936
14651W        W79878   4.896  39.471  12.604
14652W        W79879  13.876  31.843   4.497
14653W        W79880  13.889  33.767   4.608
14654W        W79881   4.700  10.833  13.755
14655W        W79882  39.585  43.960   3.133
14656W        W79883  26.171   6.804   2.166
14657W        W79884  44.555  17.994  12.281
14658W        W79885  33.899  35.134   3.125
14659W        W79886  33.393   9.015  10.040
14660W        W79887  10.832  35.872   1.267
14661W        W79888  21.030   5.739  14.358
14662W        W79889  15.506  25.029  11.110
14663W        W79890  43.044   5.297  10.536
14664W        W79891  19.682  27.561  10.986
14665W        W79892   8.867  32.579  13.190
14666W        W79893  22.129  14.584  11.190
14667W        W79894   4.200  26.435   3.003
14668W        W79895   7.269  29.893   2.226
14669W        W79896  33.092  19.683   1.850
14670W        W79897  44.538   0.484  12.935
14671W        W79898  31.642  14.260   2.293
14672W        W79899  24.057  40.537   0.479
14673W        W79900  42.777  21.438   1.985
14674W        W79901   7.751  33.541   2.720
14675W        W79902  18.449  37.356   2.810
14676W        W79903  32.903  10.729   3.080
14677W        W79904   7.680  38.949  12.886
14678W        W79905  34.144   5.795   3.509
14679W        W79906   8.276  38.398   1.716
14680W        W79907  12.037   2.175  11.383
14681W        W79908  25.504  38.025   3.624
14682W        W79909   7.561  38.328   3.870
14683W        W79910  12.139  10.256   0.303
14684W        W79911  41.394   8.914  11.638
14685W        W79912   4.359  28.614  12.636
14686W        W79913   5.875  35.374  11.967
14687W        W79914   9.454  22.816   3.432
14688W        W79915  22.106  16.963   2.785
14689W        W79916  21.652  40.602   4.155
14690W        W79917  44.488  18.748  12.963
14691W        W79918  20.645  22.933  11.682
14692W        W79919   7.661  28.621   0.797
14693W        W79920   8.694  11.796   1.202
14694W        W79921  27.298  29.724  14.469
14695W        W79922  16.816  18.787   0.737
14696W        W79923  14.210  29.841   2.469
14697W        W79924  10.770  35.373  14.821
14698W        W79925  41.672  13.818   0.954
14699W        W79926  25.795  43.981  14.981
14700W        W79927  41.645  24.151  13.048
14701W        W79928   1.220  26.037   3.189
14702W        W79929  22.365   9.825   1.601
14703W        W79930  27.219  34.010   1.367
14704W        W79931  43.768   6.397  12.149
14705W        W79932   4.883  18.755  13.977
14706W        W79933  31.575  20.053  11.242
14707W        W79934  21.228  16.057  10.922
14708W        W79935  37.516   2.225   1.915
14709W        W79936  35.382  27.291   3.838
14710W        W79937  22.041  28.385  13.390
14711W        W79938  34.916   7.213  13.846
14712W        W79939  42.903  16.817   1.350
14713W        W79940   2.352  18.181  13.441
14714W        W79941  13.714  30.551   1.027
14715W        W79942  41.416   8.613   3.074
14716W        W79943  13.639   9.924  10.834
14717W        W79944  30.522  13.328   1.439
14718W        W79945  16.237  33.490   2.664
14719W        W79946   2.982  32.072   1.818
14720W        W79947   1.563  12.679   3.120
14721W        W79948   5.800  35.345  10.646
14722W        W79949  28.111  38.010  12.565
14723W        W79950   4.681   7.745  12.434
14724W        W79951  13.119  20.169   1.901
14725W        W79952  26.908  41.418  11.040
14726W        W79953   8.558  35.990  11.974
14727W        W79954  36.948   4.836  13.104
14728W        W79955  31.043  23.935  12.648
14729W        W79956  18.701  43.628  11.583
14730W        W79957  38.238  16.533   2.582
14731W        W79958  14.713  14.666   4.635
14732W        W79959  28.960  40.592  14.994
14733W        W79960  21.009   9.893  11.472
14734W        W79961  18.823  13.092  13.446
14735W        W79962   7.260   1.812  11.740
14736W        W79963  36.758  30.123  13.926
14737W        W79964  14.981  32.403  11.137
14738W        W79965  28.740  17.747  13.862
14739W        W79966  39.394  40.112   0.590
14740W        W79967   9.838   3.592   3.806
14741W        W79968   5.844  36.338   3.249
14742W        W79969  15.209   3.241  13.965
14743W        W79970  25.643  14.895   4.201
14744W        W79971   1.756  41.409  10.785
14745W        W79972  19.003   4.506   1.773
14746W        W79973  28.789   3.560   2.305
14747W        W79974   4.122  38.370   4.618
14748W        W79975   0.995  33.399   3.710
14749W        W79976  39.394  26.012  12.083
14750W        W79977   6.734  14.818   0.990
14751W        W79978   1.371   3.870  14.348
14752W        W79979  38.882  12.870   1.873
14753W        W79980  13.352   0.445   3.232
14754W        W79981  14.239  12.572  10.801
14755W        W79982   2.429  23.240   1.693
14756W        W79983   1.392  16.761  13.175
14757W        W79984  26.419   9.073   5.061
14758W        W79985  15.867  37.591  12.021
14759W        W79986  17.733  10.383   2.470
14760W        W79987  28.155  38.195   4.126
14761W        W79988  36.311  24.669  14.528
14762W        W79989  11.284  18.902  10.501
14763W        W79990   6.830  14.232   4.692
14764W        W79991  41.921  26.819  13.345
14765W        W79992  17.126  32.319  12.547
14766W        W79993  14.646  10.394   1.801
14767W        W79994  18.057  38.595   3.225
14768W        W79995  36.317  18.271   4.425
14769W        W79996   4.955  27.923   1.302
14770W        W79997  20.147  26.230  13.470
14771W        W79998  21.479  14.584  14.349
14772W        W79999   1.723   2.438   2.172
14773W        W80000  19.777  13.250   3.740
14774W        W80001  10.213   0.424   5.107
14775W        W80002  13.325   6.269  12.523
14776W        W80003  23.719  11.732   0.729
14777W        W80004  35.859  37.312   0.093
14778W        W80005   7.720  23.696   1.403
14779W        W80006  27.475  43.032   3.247
14780W        W80007  24.689  19.705  12.604
14781W        W80008  13.581  27.900  14.021
14782W        W80009  39.759  19.613  12.953
14783W        W80010   3.263  33.445   1.585
14784W        W80011  30.405  13.313   0.436
14785W        W80012  38.526  36.653  12.155
14786W        W80013  43.288  40.279  12.431
14787W        W80014  32.717   0.770  10.631
14788W        W80015  40.864  18.126   2.112
14789W        W80016   2.420   9.309   4.580
14790W        W80017   9.184  27.274  11.420
14791W        W80018  26.397  43.289  14.284
14792W        W80019  15.240   8.654   3.575
14793W        W80020  36.167  18.567   4.012
14794W        W80021  44.809   6.001   2.760
14795W        W80022  20.533  19.045   0.320
14796W        W80023   6.254  29.148   4.139
14797W        W80024  30.234   7.154  14.063
14798W        W80025  21.726   1.945   0.419
14799W        W80026  26.003  24.530   3.262
14800W        W80027  16.539  15.179  13.450
14801W        W80028  41.436   7.648   0.417
14802W        W80029   4.766   0.965  14.459
14803W        W80030   6.526  40.282   5.164
14804W        W80031   7.127  37.074   0.989
14805W        W80032   3.037  25.580   2.765
14806W        W80033  37.064  26.206   3.059
14807W        W80034   6.864  39.349  10.497
14808W        W80035  17.289   5.366  14.540
14809W        W80036   9.474   2.060  11.936
14810W        W80037  39.832  27.619   4.525
14811W        W80038   5.700  20.246   0.049
14812W        W80039  44.952  11.867  10.751
14813W        W80040   1.450  28.381   2.276
14814W        W80041  16.817  35.589   1.383
14815W        W80042  12.777  14.084   0.362
14816W        W80043   1.490  22.780  11.447
14817W        W80044  10.697  12.812  13.634
14818W        W80045   6.495  24.525  10.943
14819W        W80046  31.321  10.207   4.461
14820W        W80047  14.865  16.045  12.913
14821W        W80048  13.570   4.516   2.371
14822W        W80049   9.651  43.252  14.430
14823W        W80050  15.738  25.817  10.782
14824W        W80051  35.595  12.878   1.244
14825W        W80052   7.842   9.070   3.103
14826W        W80053   5.976   2.299  12.670
14827W        W80054  11.852  17.132   4.950
14828W        W80055  32.647   3.958  11.512
14829W        W80056   1.174   5.785  13.995
14830W        W80057   6.735  39.644  13.088
14831W        W80058  31.218   9.228  10.290
14832W        W80059  21.434  44.224  12.370
14833W        W80060   5.002  12.209   3.021
14834W        W80061   7.691  36.240   4.685
14835W        W80062  31.818   2.566   5.101
14836W        W80063  37.523  25.156   3.796
14837W        W80064  30.032  10.361   4.627
14838W        W80065  38.590  17.151   3.972
14839W        W80066  23.498  42.345  12.501
14840W        W80067  33.248  22.736  14.944
14841W        W80068  23.180   4.409  11.229
14842W        W80069  18.119  29.102  14.503
14843W        W80070  18.915  13.900  14.302
14844W        W80071  21.334  18.269  12.518
14845W        W80072  27.216   8.215  14.903
14846W        W80073  11.019   1.671  11.002
14847W        W80074  25.674  25.085   0.799
14848W        W80075   5.463  21.794   0.633
14849W        W80076  37.184  20.772  13.454
14850W        W80077   1.025  34.977  14.832
14851W        W80078   8.198  38.850  10.239
14852W        W80079   6.169  17.741   3.642
14853W        W80080  23.438  42.942   9.946
14854W        W80081   0.991  29.633  11.115
14855W        W80082  31.980  26.099   2.354
14856W        W80083  24.877  35.310  13.039
14857W        W80084  41.208   0.257  12.161
14858W        W80085   3.917  23.653   3.330
14859W        W80086  38.411  20.564  11.706
14860W        W80087  11.653  10.186  13.411
14861W        W80088  31.738  38.113  10.321
14862W        W80089  44.009  27.036  10.748
14863W        W80090  25.355  16.878  14.850
14864W        W80091  36.473  12.831  13.450
14865W        W80092  16.670  10.708  14.666
14866W        W80093  24.686  42.424   4.446
14867W        W80094   9.226  23.001   0.430
14868W        W80095   2.933  28.213   1.851
14869W        W80096   0.453  33.159  14.093
14870W        W80097  13.276  27.654   4.553
14871W        W80098  39.855  26.567  11.899
14872W        W80099  18.270  27.605   4.610
14873W        W80100  32.712   0.785  14.730
14874W        W80101  26.651  34.173   0.073
14875W        W80102   3.301   6.681   4.995
14876W        W80103  30.448  19.016   3.304
14877W        W80104  37.776  23.152   4.054
14878W        W80105  10.814  36.328   2.781
14879W        W80106  14.144  15.164   0.625
14880W        W80107  26.001  36.021  11.964
14881W        W80108   7.622  13.832   9.873
14882W        W80109   1.767   2.797   3.623
14883W        W80110  30.094   7.956   3.669
14884W        W80111  42.071  39.920  11.289
14885W        W80112   7.618  10.306   5.004
14886W        W80113  35.953  21.164  13.568
14887W        W80114  42.539  41.829   2.260
14888W        W80115  10.027  27.465  10.288
14889W        W80116  16.372  34.612   1.176
14890W        W80117  21.995  26.436  14.968
14891W        W80118  15.511  36.262   3.479
14892W        W80119  36.443  44.481   4.730
14893W        W80120  16.616  44.104  13.917
14894W        W80121  34.631  38.089  11.739
14895W        W80122  35.914  16.054   1.220
14896W        W80123   0.122  22.906  14.041
14897W        W80124  43.089  41.051   3.667
14898W        W80125   4.718  26.727   4.559
14899W        W80126  11.844  14.115  14.357
14900W        W80127  38.408  35.635  10.691
14901W        W80128  30.013  14.112   3.163
14902W        W80129  33.345  22.297   3.201
14903W        W80130  21.972  33.903   4.169
14904W        W80131  29.585  32.085   2.149
14905W        W80132  30.023  25.067   0.911
14906W        W80133  41.583   4.817   4.220
14907W        W80134  32.494  27.417   1.175
14908W        W80135  34.468   5.349   1.967
14909W        W80136   3.367  10.266  12.019
14910W        W80137   9.279  18.542  11.644
14911W        W80138  39.564  34.412   1.913
14912W        W80139  26.205  14.212  11.043
14913W        W80140  44.733  34.898   1.847
14914W        W80141  13.182  18.268  12.059
14915W        W80142  19.085   4.737   0.837
14916W        W80143  18.183   8.222  12.123
14917W        W80144  44.042  38.459  14.927
14918W        W80145  11.083  41.356  14.448
14919W        W80146  14.686  27.524  11.476
14920W        W80147   0.370  37.319  13.516
14921W        W80148   3.427  28.440  13.289
14922W        W80149  29.010   3.677   2.765
14923W        W80150  36.539  24.620  10.737
14924W        W80151   0.009  34.489  10.608
14925W        W80152   1.986  31.954   3.734
14926W        W80153  22.993  18.699  11.127
14927W        W80154   3.331  26.508  10.606
14928W        W80155  28.329  22.810  14.357
14929W        W80156  31.922  29.987   0.833
14930W        W80157  15.377  11.777  10.549
14931W        W80158  21.569  36.721  12.286
14932W        W80159   5.533   2.142   1.433
14933W        W80160  39.531  31.072  11.532
14934W        W80161  33.212   1.329   4.575
14935W        W80162  38.574   9.301   0.296
14936W        W80163  10.083  40.272   2.632
14937W        W80164  11.663  30.901  11.558
14938W        W80165   2.620  36.230   1.261
14939W        W80166   2.250   5.251   2.324
14940W        W80167   1.249  26.042   1.357
14941W        W80168  30.010  15.537  14.781
14942W        W80169  15.217  36.510  14.664
14943W        W80170  35.453  10.453   1.342
14944W        W80171   9.849  40.914  11.122
14945W        W80172  10.778  27.549  11.484
14946W        W80173  44.354  42.744  13.116
14947W        W80174  35.518  40.053  11.127
14948W        W80175  44.828   4.769   0.475
14949W        W80176   6.391   1.930  13.352
14950W        W80177  44.906  15.697  11.603
14951W        W80178  16.848  17.341  11.951
14952W        W80179  18.228  38.409   0.704
14953W        W80180  31.080  24.922   5.068
14954W        W80181  14.909  19.802   0.187
14955W        W80182  31.295   3.222   4.494
14956W        W80183  42.945  42.914   4.060
14957W        W80184  15.777   5.044  11.184
14958W        W80185  15.045  25.622  11.463
14959W        W80186   4.240  15.699   9.757
14960W        W80187   3.457  28.776  14.185
14961W        W80188   4.530  27.536   0.383
14962W        W80189  13.232  27.561  10.479
14963W        W80190  16.409  14.069  13.330
14964W        W80191  12.464  35.456   3.180
14965W        W80192  34.684  30.509   3.710
14966W        W80193  23.382  40.305  13.991
14967W        W80194  27.267  11.649  10.745
14968W        W80195  29.085   4.220   0.631
14969W        W80196  37.590   4.437   0.816
14970W        W80197   6.796  36.090  14.045
14971W        W80198  19.285  40.931  10.726
14972W        W80199  42.229  39.979   4.082
14973W        W80200  23.568  29.014  12.094
14974W        W80201   8.512  36.882  11.122
14975W        W80202  22.607  39.118   2.867
14976W        W80203  31.545  23.040   0.386
14977W        W80204  31.773  28.769   3.197
14978W        W80205  42.078  20.616   2.689
14979W        W80206  12.835  34.916   2.674
14980W        W80207  30.872  13.799   2.801
14981W        W80208  40.663  14.650  12.103
14982W        W80209  25.450   5.286   2.513
14983W        W80210  39.577   6.949   0.664
14984W        W80211  25.501  10.326  14.391
14985W        W80212  44.040  27.114   5.313
14986W        W80213  20.560  21.265  11.285
14987W        W80214  34.676  28.348  12.026
14988W        W80215  43.591   6.018   3.401
14989W        W80216  21.748  34.137   3.145
14990W        W80217  28.829  21.063  11.402
14991W        W80218  36.013  19.709  12.847
14992W        W80219  19.699  23.723   2.718
14993W        W80220  28.136  12.142   2.284
14994W        W80221   0.851  16.882   4.093
14995W        W80222  12.257  38.062  12.348
14996W        W80223  40.986   9.399   4.150
14997W        W80224  26.217  10.891   2.823
14998W        W80225  39.369   8.182  13.289
14999W        W80226  11.922  15.317   0.739
15000W        W80227  43.000  16.221   3.598
15001W        W80228  37.052   3.238  10.740
15002W        W80229  25.260  24.857  12.759
15003W        W80230  20.925  14.345   2.752
15004W        W80231  16.665  43.274   3.646
15005W        W80232   9.040  13.344   1.460
15006W        W80233   3.312   5.509   1.310
15007W        W80234  34.009  24.430   4.784
15008W        W80235  11.225  22.021  12.091
15009W        W80236  36.126   5.809  12.915
15010W        W80237  39.667   4.741   1.251
15011W        W80238  16.832  33.485  11.053
15012W        W80239  26.638  17.150   2.612
15013W        W80240  31.052  44.280  11.977
15014W        W80241   4.281  11.743   4.663
15015W        W80242  16.258   9.131   4.615
15016W        W80243  13.631  25.247   0.528
15017W        W80244  37.870  11.209  11.506
15018W        W80245  21.661  27.554  13.676
15019W        W80246   4.486   1.669  12.844
15020W        W80247  43.116   5.265  11.921
15021W        W80248  44.747  19.249   0.476
15022W        W80249  44.228  42.428   3.859
15023W        W80250   1.795  16.569  13.504
15024W        W80251  13.384  30.437  14.796
15025W        W80252  29.870  38.863  11.506
15026W        W80253  29.149  28.662  10.737
15027W        W80254  17.132  31.021   2.709
15028W        W80255  41.545   1.145  12.565
15029W        W80256   1.907   8.197  10.606
15030W        W80257  20.989   7.322   3.624
15031W        W80258  42.062   0.378  10.836
15032W        W80259  44.764  29.448   1.239
15033W        W80260  17.092   7.657  14.676
15034W        W80261   1.793  19.796  14.502
15035W        W80262  11.294  18.395   0.421
15036W        W80263  32.493  43.461  11.487
15037W        W80264  36.841   4.181  11.055
15038W        W80265   5.816  13.198   4.701
15039W        W80266  18.823  37.714   2.878
15040W        W80267  22.494   0.254  13.053
15041W        W80268   1.938  36.879  11.018
15042W        W80269  22.964  27.085  12.013
15043W        W80270  41.522  42.709  12.051
15044W        W80271  38.892  40.391  14.295
15045W        W80272  36.831  44.533  12.925
15046W        W80273   4.209  40.082   2.223
15047W        W80274  34.032  31.178  13.508
15048W        W80275  17.607  19.306   4.052
15049W        W80276   0.038  35.668   0.305
15050W        W80277  41.274  34.975  13.370
15051W        W80278  25.511  38.097  12.502
15052W        W80279  31.543  15.761  10.347
15053W        W80280  39.779  34.475  14.821
15054W        W80281  27.768   4.985   3.953
15055W        W80282  25.081  25.190   3.196
15056W        W80283  27.503  29.660  11.968
15057W        W80284  29.236  35.991   1.805
15058W        W80285  44.849  18.049  10.667
15059W        W80286  44.796   5.931   0.450
15060W        W80287   0.047   4.166   3.272
15061W        W80288  13.350  20.591   1.119
15062W        W80289  36.998  27.246  11.487
15063W        W80290  43.859  10.167  10.624
15064W        W80291  35.177  38.050   3.682
15065W        W80292  24.149  28.871  13.178
15066W        W80293  32.104  12.147   4.552
15067W        W80294  39.477   9.915   3.789
15068W        W80295  23.802  42.307  13.887
15069W        W80296  43.786  14.232  11.266
15070W        W80297  19.123  23.448   0.578
15071W        W80298  24.368  11.678   1.955
15072W        W80299   0.942  28.538  14.475
15073W        W80300  21.747  42.348  11.045
15074W        W80301  13.064   1.822   1.401
15075W        W80302  40.221   1.528  11.628
15076W        W80303  30.417  23.627   3.736
15077W        W80304  31.832  38.385   2.734
15078W        W80305   1.765  17.671   2.596
15079W        W80306  35.716  13.073   0.773
15080W        W80307  39.111  19.371   4.606
15081W        W80308   3.960  18.047  14.402
15082W        W80309   1.365  32.860  13.211
15083W        W80310  40.543   3.613   2.726
15084W        W80311   3.543  32.525  14.918
15085W        W80312  21.490  25.432   2.252
15086W        W80313  35.078  36.152   3.135
15087W        W80314  40.005   1.988  11.439
15088W        W80315  39.313   0.983  10.329
15089W        W80316  44.698   8.577   3.155
15090W        W80317  32.683  37.563  13.051
15091W        W80318  39.325  15.791  10.786
15092W        W80319  10.840  41.428   2.668
15093W        W80320  29.052  44.413   9.964
15094W        W80321   1.290  41.002  12.875
15095W        W80322  12.998  17.111  14.844
15096W        W80323   7.258   1.796  11.211
15097W        W80324  12.350  34.480   4.525
15098W        W80325  28.353  20.132   4.288
15099W        W80326  35.491  31.980   1.330
15100W        W80327  43.820   0.066   2.966
15101W        W80328   7.889  39.923  14.478
15102W        W80329  33.931  31.857   2.266
15103W        W80330   6.955  40.289  12.433
15104W        W80331  14.415  27.483   4.268
15105W        W80332   6.623  16.570  11.892
15106W        W80333  30.408   4.736  11.678
15107W        W80334  11.778  31.267   9.770
15108W        W80335   1.485  34.917   2.606
15109W        W80336  22.036  35.885  12.321
15110W        W80337  30.321  16.558   1.305
15111W        W80338   8.473  18.998  11.209
15112W        W80339  17.205   2.296   1.266
15113W        W80340  21.814  23.619  14.644
15114W        W80341  16.589  21.847   2.825
15115W        W80342  18.001  23.698  13.170
15116W        W80343  42.000   2.495  14.480
15117W        W80344   8.749  21.103   0.685
15118W        W80345  27.615  17.196   3.116
15119W        W80346  32.107  18.093   3.001
15120W        W80347   0.755  23.997   3.242
15121W        W80348  13.043  40.088  12.979
15122W        W80349  16.716   9.010  11.106
15123W        W80350  27.035  25.029   1.694
15124W        W80351  17.694   7.818   1.597
15125W        W80352   4.562  23.117  11.788
15126W        W80353  35.894  44.449  13.028
15127W        W80354   5.468  36.272   1.856
15128W        W80355  43.419  43.789   0.520
15129W        W80356   8.769   5.993   4.654
15130W        W80357  37.955  23.744   1.756
15131W        W80358  39.800  23.023   2.214
15132W        W80359  11.413  21.946  13.594
15133W        W80360  32.617  40.396   4.984
15134W        W80361  30.795  41.781  11.190
15135W        W80362  34.131  27.964   4.239
15136W        W80363  25.694  12.257   4.963
15137W        W80364  40.511  33.818   4.650
15138W        W80365  10.600  27.201   3.082
15139W        W80366  39.334  39.089   2.458
15140W        W80367  12.691  32.656  14.450
15141W        W80368   5.515  12.863   5.075
15142W        W80369  27.540  30.870   1.854
15143W        W80370   4.751  28.009   0.382
15144W        W80371  25.952  43.242  14.561
15145W        W80372   8.407   3.026  14.373
15146W        W80373  16.062  13.834  12.440
15147W        W80374   7.146   0.480  10.516
15148W        W80375  28.530  44.263  12.516
15149W        W80376   9.329  24.597  12.419
15150W        W80377  25.993  42.594   0.965
15151W        W80378  11.553  20.731   4.243
15152W        W80379  28.119  16.269   4.168
15153W        W80380  35.257  29.299   0.411
15154W        W80381   5.057  28.959  14.255
15155W        W80382  37.556  38.011   3.107
15156W        W80383   1.441   1.540   0.765
15157W        W80384   5.397  39.304   4.547
15158W        W80385  36.551  29.107  11.155
15159W        W80386  18.180  16.047  12.096
15160W        W80387  40.973  43.782   3.284
15161W        W80388  44.448  42.464   0.070
15162W        W80389  19.178  39.960   3.096
15163W        W80390  11.623  20.390   0.502
15164W        W80391  29.580   6.319   0.944
15165W        W80392   2.432  26.109   2.893
15166W        W80393  26.981  13.830   1.670
15167W        W80394  14.367  38.463   0.774
15168W        W80395  16.443   1.788  11.574
15169W        W80396  15.074  31.154  14.940
15170W        W80397  44.273  26.817   3.430
15171W        W80398   7.334  43.855   4.419
15172W        W80399  14.552  40.111  11.227
15173W        W80400  23.812   6.344  11.703
15174W        W80401  22.289  42.981  14.777
15175W        W80402  15.261  27.951  13.034
15176W        W80403  20.712  37.045  14.372
15177W        W80404  21.387  33.437  12.029
15178W        W80405   9.737  22.130   0.470
15179W        W80406   6.169  16.287   4.495
15180W        W80407   1.917  24.292  12.508
15181W        W80408  30.977  43.436   4.672
15182W        W80409  15.076  40.322  12.108
15183W        W80410  16.330   9.914   3.488
15184W        W80411  43.349   0.491   3.719
15185W        W80412  28.579   1.005   0.878
15186W        W80413  40.854  39.593  10.780
15187W        W80414  13.166  26.599   2.678
15188W        W80415  38.356  33.000   2.172
15189W        W80416  23.488  42.965  10.999
15190W        W80417  40.329  14.708  10.693
15191W        W80418  30.487  37.349   3.168
15192W        W80419   1.818   7.211   1.572
15193W        W80420   3.902  30.485  12.585
15194W        W80421  16.775  35.105   2.142
15195W        W80422  30.183  33.423   0.331
15196W        W80423   0.541  42.725  11.948
15197W        W80424   9.910  23.922   4.041
15198W        W80425  32.956   4.652  13.970
15199W        W80426  10.987  44.545   1.923
15200W        W80427   0.074  16.595  14.837
15201W        W80428  13.894  38.863  14.399
15202W        W80429  20.970  43.248   1.477
15203W        W80430  31.090  29.914   1.068
15204W        W80431  42.127  21.990  13.492
15205W        W80432  34.058  30.407  14.087
15206W        W80433  33.671   4.722   1.025
15207W        W80434  38.041  29.110   4.129
15208W        W80435  36.251  27.960   3.732
15209W        W80436   5.436  10.407   4.184
15210W        W80437  37.386   4.949  14.025
15211W        W80438   8.231  26.132   1.190
15212W        W80439  33.439   7.199   1.859
15213W        W80440   6.015  24.087   4.804
15214W        W80441  24.533  41.644   4.053
15215W        W80442  26.156   4.313  12.589
15216W        W80443  22.561  19.652  12.056
15217W        W80444  19.214  24.938   5.012
15218W        W80445  32.908  32.488   0.588
15219W        W80446  35.763   3.608   2.660
15220W        W80447  19.672  17.764   4.622
15221W        W80448  18.727  33.786  11.945
15222W        W80449  33.973   5.203   1.798
15223W        W80450   9.393  37.604  11.989
15224W        W80451  16.064   9.915   3.019
15225W        W80452  19.590  12.132  12.312
15226W        W80453  25.743  27.108  12.501
15227W        W80454  36.934   3.048  13.049
15228W        W80455  35.987  14.851  13.479
15229W        W80456  25.182   1.562  11.188
15230W        W80457  28.109  22.982   3.061
15231W        W80458   5.181   1.371  13.625
15232W        W80459   8.952  29.846   4.642
15233W        W80460  40.673  24.261   5.002
15234W        W80461  20.703  12.154   2.314
15235W        W80462  35.787  16.147   0.149
15236W        W80463  42.763  42.749  13.487
15237W        W80464  20.324  13.680  14.479
15238W        W80465  10.763  20.717  10.814
15239W        W80466   8.800  35.836   1.156
15240W        W80467  35.851  35.500   2.244
15241W        W80468  14.750  20.642  13.511
15242W        W80469  42.000  33.931  12.892
15243W        W80470   8.765   1.241   2.863
15244W        W80471  13.505  42.705  10.328
15245W        W80472  42.525  42.718  12.042
15246W        W80473   2.508  15.627   0.429
15247W        W80474  16.258  43.472   4.637
15248W        W80475  25.188  11.583  14.568
15249W        W80476  34.983  44.942   2.107
15250W        W80477   1.584  42.162  10.778
15251W        W80478   1.196  41.971  13.158
15252W        W80479  29.749  26.720   1.888
15253W        W80480  31.785  29.480  10.353
15254W        W80481  22.545  38.621  13.331
15255W        W80482  15.820  43.044   2.346
15256W        W80483   2.267   2.837   2.696
15257W        W80484  24.463  15.521  11.012
15258W        W80485   1.630  30.225   2.303
15259W        W80486  39.103  43.754   3.210
15260W        W80487  13.980   6.065  14.325
15261W        W80488   9.917  27.846   3.419
15262W        W80489  41.353  35.866  11.742
15263W        W80490   3.100  37.126   1.823
15264W        W80491  34.996  13.017  14.837
15265W        W80492  34.049  42.143  11.195
15266W        W80493  20.661   0.815  12.010
15267W        W80494   6.797  23.646  12.096
15268W        W80495  12.113   6.988  12.558
15269W        W80496  20.732  30.354   1.050
15270W        W80497  38.307  41.252   1.186
15271W        W80498  43.943   5.338   4.136
15272W        W80499  10.404  42.240  12.517
15273W        W80500  33.208   7.128  12.018
15274W        W80501   3.742  39.862  14.007
15275W        W80502  31.171  31.339   0.476
15276W        W80503   1.881  16.181   2.688
15277W        W80504   0.518  38.549  11.908
15278W        W80505  19.791   9.865   2.762
15279W        W80506  15.491  35.983  13.440
15280W        W80507  19.437  35.181   2.331
15281W        W80508  34.427  20.561   4.328
15282W        W80509   9.154   8.423  12.448
15283W        W80510  16.589   9.301  13.868
15284W        W80511  40.547   9.588  12.519
15285W        W80512  22.552   7.891   2.413
15286W        W80513  35.918  30.626  11.949
15287W        W80514  11.746  16.146  12.491
15288W        W80515  27.006  14.926  14.795
15289W        W80516   2.515  28.747  12.825
15290W        W80517  12.675  37.747   4.496
15291W        W80518   8.422   0.730   0.297
15292W        W80519  25.780  15.090  13.066
15293W        W80520  43.857  27.121   3.463
15294W        W80521  11.337  42.520  11.770
15295W        W80522  17.897  19.830   4.097
15296W        W80523  25.096  10.395  12.824
15297W        W80524  14.749  29.431   1.828
15298W        W80525   5.298   9.284  10.608
15299W        W80526  34.995  17.019  12.901
15300W        W80527   3.497  27.541   0.340
15301W        W80528  16.143  26.367  13.235
15302W        W80529  10.699  21.745   2.567
15303W        W80530   8.194  41.482   2.339
15304W        W80531   9.823   8.652   4.624
15305W        W80532  25.062  17.085  10.778
15306W        W80533  33.612  43.510   0.316
15307W        W80534  26.959   4.218   2.685
15308W        W80535  18.765   7.537   0.805
15309W        W80536  23.560   3.433  12.192
15310W        W80537  39.935   0.106   1.154
15311W        W80538  38.785  17.374  12.916
15312W        W80539  35.110  14.546   5.182
15313W        W80540  37.592  11.906   2.658
15314W        W80541  41.250  10.225  13.586
15315W        W80542  20.965  39.992   3.059
15316W        W80543  18.648  22.160   1.704
15317W        W80544  18.408  10.194   3.812
15318W        W80545  18.192   9.648   2.098
15319W        W80546  38.916  44.880   3.776
15320W        W80547   5.138  15.268   0.005
15321W        W80548  18.566  43.022  13.028
15322W        W80549  31.586  30.045   1.350
15323W        W80550  41.852  22.536   3.308
15324W        W80551  19.185  44.482  14.653
15325W        W80552  25.501  24.574   3.098
15326W        W80553   1.234  35.871   2.878
15327W        W80554  18.802   6.828  11.537
15328W        W80555   0.302  29.185   3.653
15329W        W80556   9.381   9.376  14.443
15330W        W80557  42.479  22.706  13.794
15331W        W80558  33.579  28.942   1.496
15332W        W80559   5.744  33.374  14.453
15333W        W80560  30.216  21.106  14.972
15334W        W80561  34.020   1.883  14.552
15335W        W80562  35.664   9.974   1.334
15336W        W80563   3.639  26.138   1.339
15337W        W80564  37.366  22.714   4.648
15338W        W80565   2.379  24.196  12.757
15339W        W80566   2.539  16.151  13.382
15340W        W80567  35.709   3.191   2.312
15341W        W80568  22.727  28.515   4.580
15342W        W80569  42.336  22.722  12.315
15343W        W80570  37.654  40.806  14.417
15344W        W80571  24.977  11.349   0.496
15345W        W80572   9.146   1.614  13.531
15346W        W80573  32.593  22.943  12.497
15347W        W80574  14.285  32.828  11.917
15348W        W80575   5.909  36.406   1.330
15349W        W80576  24.706   5.419   4.471
15350W        W80577  21.368   2.123   4.926
15351W        W80578  11.049  37.069  11.898
15352W        W80579  21.351  10.862  11.491
15353W        W80580  20.869  23.563   3.163
15354W        W80581  29.655  37.795  12.965
15355W        W80582  15.056  39.208   3.725
15356W        W80583   0.026   5.233   1.283
15357W        W80584  23.562  25.950   0.319
15358W        W80585  23.273  36.112  13.993
15359W        W80586  39.826   1.781  12.461
15360W        W80587  35.575  33.818  10.643
15361W        W80588  26.201  17.797  14.506
15362W        W80589  41.577  36.910   2.530
15363W        W80590  17.879  38.573  12.014
15364W        W80591  25.964  38.821   1.899
15365W        W80592  11.890  34.451  11.606
15366W        W80593   5.877   6.238   2.836
15367W        W80594  33.047  21.826  10.702
15368W        W80595  25.530   1.967  14.813
15369W        W80596  22.221  14.182   3.967
15370W        W80597  33.749  12.815  13.461
15371W        W80598  30.843   2.408  12.535
15372W        W80599  29.230  37.019  12.499
15373W        W80600  12.361  14.408  11.062
15374W        W80601   8.628  11.957   1.705
15375W        W80602  24.452  18.170   2.550
15376W        W80603  17.590  13.791  12.517
15377W        W80604  31.390   2.665  11.918
15378W        W80605  34.702   3.149  13.481
15379W        W80606  27.939  44.383  13.463
15380W        W80607  25.984  23.466   4.116
15381W        W80608  17.806  40.679  12.010
15382W        W80609  36.946   1.727   1.814
15383W        W80610  30.558  13.952  13.392
15384W        W80611  33.349  16.691   1.845
15385W        W80612  10.181  12.811   2.103
15386W        W80613  43.949  36.946  12.335
15387W        W80614  16.649  35.968  13.768
15388W        W80615   3.756   5.532   1.805
15389W        W80616  32.560  12.190  13.441
15390W        W80617   6.336  28.298   5.040
15391W        W80618  37.096  36.336  12.869
15392W        W80619  13.015  42.016  10.997
15393W        W80620  35.526   4.211   3.781
15394W        W80621  36.907  16.334   4.562
15395W        W80622   6.066  44.713  13.480
15396W        W80623  35.465  30.722   4.136
15397W        W80624  14.640  21.737   4.594
15398W        W80625  22.582   0.576   2.657
15399W        W80626  14.525  41.511  13.738
15400W        W80627  32.052   3.520   4.183
15401W        W80628  36.400   7.871   4.284
15402W        W80629  35.940  43.771  13.449
15403W        W80630  15.735  35.570   0.690
15404W        W80631  40.337  22.688   1.187
15405W        W80632  29.853  43.274  11.163
15406W        W80633   6.285   2.468   0.696
15407W        W80634  21.590  33.595   0.431
15408W        W80635   9.684  12.404  11.470
15409W        W80636  25.984  12.741  11.003
15410W        W80637  25.709  36.394  13.917
15411W        W80638  30.836  36.954  12.865
15412W        W80639  42.216  38.523  11.001
15413W        W80640  24.534  33.675   2.279
15414W        W80641  25.443   4.382  14.462
15415W        W80642   2.253   9.650   2.281
15416W        W80643  29.091  30.220  14.259
15417W        W80644  24.172   5.554  12.115
15418W        W80645  19.145  34.391   2.211
15419W        W80646  44.486   5.482  12.376
15420W        W80647  14.907  17.129  12.608
15421W        W80648  42.095  14.785  12.997
15422W        W80649  32.778   8.159  11.171
15423W        W80650  41.998  18.700  11.164
15424W        W80651  33.126  12.652   3.692
15425W        W80652  10.915  27.685  12.456
15426W        W80653  27.649   9.755   2.095
15427W        W80654  33.157   9.769   2.834
15428W        W80655   4.016  10.765   0.849
15429W        W80656  16.646  24.523   1.370
15430W        W80657  19.789  10.197  10.450
15431W        W80658  21.144  36.648  11.506
15432W        W80659  29.510  12.693  14.247
15433W        W80660  31.793  33.262  14.478
15434W        W80661  19.241  14.644   1.934
15435W        W80662  36.309   1.717   3.063
15436W        W80663   1.691  16.290   4.171
15437W        W80664  29.875  42.654  11.992
15438W        W80665  10.154  12.554  12.782
15439W        W80666   4.980  25.550  14.057
15440W        W80667  40.082   2.035  12.857
15441W        W80668  10.445  35.948  12.929
15442W        W80669  25.559  11.929  11.476
15443W        W80670  30.082  13.199   1.834
15444W        W80671   8.260  11.439   2.197
15445W        W80672  14.730  18.478  14.894
15446W        W80673  16.608  22.079   3.308
15447W        W80674  43.458   8.808   5.070
15448W        W80675   2.327  44.129   1.342
15449W        W80676   5.813  10.578   0.309
15450W        W80677  33.882   8.686  11.227
15451W        W80678  19.333  31.747  11.631
15452W        W80679   7.911  29.127   3.607
15453W        W80680  23.617  12.510  11.679
15454W        W80681  22.844   6.422   1.765
15455W        W80682  37.017  35.109  10.726
15456W        W80683  20.553  27.211  10.675
15457W        W80684  43.928  36.073  11.206
15458W        W80685  43.585   5.080  12.866
15459W        W80686  13.160   7.608   1.854
15460W        W80687  36.476  29.672  13.500
15461W        W80688  43.440  17.325  12.533
15462W        W80689   1.249  43.282   0.471
15463W        W80690  10.943  11.361   0.237
15464W        W80691  26.459  40.719   4.992
15465W        W80692  24.057   0.673  14.723
15466W        W80693   9.404  12.262   9.583
15467W        W80694  27.766  36.225  10.661
15468W        W80695  23.738   7.985   4.220
15469W        W80696  34.623   0.699   4.222
15470W        W80697  29.981   2.913  12.210
15471W        W80698  20.944  43.745  13.106
15472W        W80699  30.108  40.285  11.516
15473W        W80700   6.858   3.712   0.807
15474W        W80701  42.079   8.778   4.708
15475W        W80702   9.238  25.110   4.742
15476W        W80703  35.384  36.092  11.440
15477W        W80704  34.487  30.422  13.460
15478W        W80705  30.158  28.631  13.369
15479W        W80706  40.349  15.954   2.349
15480W        W80707  37.621  29.758   3.622
15481W        W80708  17.224   8.846  10.758
15482W        W80709  10.863  40.753   1.092
15483W        W80710  44.924  14.752  12.602
15484W        W80711  10.607   8.161  12.576
15485W        W80712  19.620   6.608  13.973
15486W        W80713   1.889  41.744  12.105
15487W        W80714  31.639  36.948  11.697
15488W        W80715  11.289  16.094  14.350
15489W        W80716   6.842  21.568  11.923
15490W        W80717   4.624   4.455  11.616
15491W        W80718  10.243   3.591  13.742
15492W        W80719  22.435  16.266  12.955
15493W        W80720  36.362  21.073  13.904
15494W        W80721  27.148  18.905   1.310
15495W        W80722  10.335   4.296  12.881
15496W        W80723  42.790  34.450   0.114
15497W        W80724  19.677  22.598   0.348
15498W        W80725  23.394  35.644  14.212
15499W        W80726  19.031  37.155  11.539
15500W        W80727  29.208  12.345   5.543
15501W        W80728  30.732  31.409   2.225
15502W        W80729  42.814  38.466   3.217
15503W        W80730  33.278  30.632   3.609
15504W        W80731  28.926  27.008   3.578
15505W        W80732  15.681  25.160   0.990
15506W        W80733  38.967  23.372   3.876
15507W        W80734  30.575  24.515  13.955
15508W        W80735  32.876   9.424   1.972
15509W        W80736  17.040   4.943  13.159
15510W        W80737   7.733  34.055  11.120
15511W        W80738  40.535  44.570   4.111
15512W        W80739   6.694   7.844  11.387
15513W        W80740  44.619  42.846   4.636
15514W        W80741  14.116  30.476   4.041
15515W        W80742   2.324  21.472   3.696
15516W        W80743   2.835  24.584  14.540
15517W        W80744  30.424  30.704   2.753
15518W        W80745   7.874  24.609   4.861
15519W        W80746  18.996   6.355  12.130
15520W        W80747  40.891   3.329   2.445
15521W        W80748  31.022   4.631   0.338
15522W        W80749  13.605  37.346   0.438
15523W        W80750  40.685  42.319  14.397
15524W        W80751  14.130  10.105   4.072
15525W        W80752   3.274   9.927  10.639
15526W        W80753   1.053  32.474  14.994
15527W        W80754  14.904  34.021  12.197
15528W        W80755  28.446  21.096  12.409
15529W        W80756   3.622  24.008  10.306
15530W        W80757  44.033  18.890  14.752
15531W        W80758  30.590  41.053  14.427
15532W        W80759  34.892  12.817  12.303
15533W        W80760  17.688  28.220  11.521
15534W        W80761  28.132  14.550  13.815
15535W        W80762  20.159  27.921   3.680
15536W        W80763   1.725   6.196   1.385
15537W        W80764  15.723   1.456  12.848
15538W        W80765  30.465   1.430  12.420
15539W        W80766  14.759  16.349  13.313
15540W        W80767  16.562  15.118   1.724
15541W        W80768   3.649   1.841   0.195
15542W        W80769  14.330   0.167  10.700
15543W        W80770   9.834  27.077   3.287
15544W        W80771  43.190  30.353  13.428
15545W        W80772  10.441  10.226  13.563
15546W        W80773  15.601  16.599   3.074
15547W        W80774  42.285  39.411   0.409
15548W        W80775  20.964  44.895  13.430
15549W        W80776  36.364   6.674  13.387
15550W        W80777  36.829  25.438   1.272
15551W        W80778  37.375  10.251   1.843
15552W        W80779  15.590  35.276  10.547
15553W        W80780  19.842   5.158   1.270
15554W        W80781  43.908  14.222  10.775
15555W        W80782  22.875  33.594   5.186
15556W        W80783  21.580  12.598   4.002
15557W        W80784  24.936  38.508  13.977
15558W        W80785  34.023  41.742  13.439
15559W        W80786  44.162  38.642   2.111
15560W        W80787   3.505  26.186  10.955
15561W        W80788   7.970  18.829  13.379
15562W        W80789  44.390  40.012   5.269
15563W        W80790  16.343  13.292   3.275
15564W        W80791   0.686   4.835  11.639
15565W        W80792  21.006  17.490  13.043
15566W        W80793  25.641  21.737  11.224
15567W        W80794  36.406  13.555   0.421
15568W        W80795  37.594  33.463  11.726
15569W        W80796   8.879  12.772  14.002
15570W        W80797  35.079  10.160   1.018
15571W        W80798  10.486   8.271   0.703
15572W        W80799  28.653   8.593  12.797
15573W        W80800   7.828  12.749  11.915
15574W        W80801  22.263  39.798   4.043
15575W        W80802  34.913   9.686   0.780
15576W        W80803  36.378  25.110   0.024
15577W        W80804  35.920  14.277  12.511
15578W        W80805  25.688   7.822   4.069
15579W        W80806  27.178  22.778   3.354
15580W        W80807  36.136  39.425  11.102
15581W        W80808  32.131   9.194   3.973
15582W        W80809  20.761  27.236  14.905
15583W        W80810  16.299  21.297   2.075
15584W        W80811   9.122  17.781   2.729
15585W        W80812  14.631  13.372   3.700
15586W        W80813   7.918  43.912   1.285
15587W        W80814  15.117   1.138  11.198
15588W        W80815  41.912  43.616  13.938
15589W        W80816   8.487  41.505  14.109
15590W        W80817   0.405  31.029  13.600
15591W        W80818  35.272  35.611  10.680
15592W        W80819  19.247  15.015  10.505
15593W        W80820  17.019  23.006  10.631
15594W        W80821  28.254  37.466   2.529
15595W        W80822   4.825  37.002   0.377
15596W        W80823  30.165   6.503  13.421
15597W        W80824  36.688   8.225  11.096
15598W        W80825  36.524  26.487  10.595
15599W        W80826  44.040  41.831   2.777
15600W        W80827  38.349  18.432   3.698
15601W        W80828  36.530   4.074  11.453
15602W        W80829  28.723  43.063  10.604
15603W        W80830   1.453  21.325   2.151
15604W        W80831  13.837  44.269   3.439
15605W        W80832   4.964  14.812  14.841
15606W        W80833  41.079  31.869  11.071
15607W        W80834  11.876  12.207  13.386
15608W        W80835   1.778  30.970  14.014
15609W        W80836  42.889  11.687  10.372
15610W        W80837  35.493  32.903  12.782
15611W        W80838  42.026  26.014  13.026
15612W        W80839   6.886   4.920  11.586
15613W        W80840  12.167  16.661  10.654
15614W        W80841  34.618   1.220   4.133
15615W        W80842  18.417  33.565   1.318
15616W        W80843  43.287  29.439   2.472
15617W        W80844  20.773  34.896   5.035
15618W        W80845  21.293  43.104   4.938
15619W        W80846  17.490  43.116   2.728
15620W        W80847  11.705   8.273  11.561
15621W        W80848  17.617   2.283  11.577
15622W        W80849   8.803  35.989  12.412
15623W        W80850  19.466  17.219   0.764
15624W        W80851  32.735  39.050   1.451
15625W        W80852  32.056   3.337   0.775
15626W        W80853   3.312  18.355  11.575
15627W        W80854  13.592  29.944  14.784
15628W        W80855  30.360  24.174   3.336
15629W        W80856  18.781   2.612  10.658
15630W        W80857  15.633  17.411  11.941
15631W        W80858  19.463  27.904   0.414
15632W        W80859   1.924  24.631  10.765
15633W        W80860   6.457  29.025  13.876
15634W        W80861  36.555  26.136   3.158
15635W        W80862  33.089  41.839  12.131
15636W        W80863  27.464   7.314   4.080
15637W        W80864  37.526  35.964   1.467
15638W        W80865  24.595  44.970  14.936
15639W        W80866   8.325   4.718   2.464
15640W        W80867   9.095  23.903  11.162
15641W        W80868  38.928  34.204  14.304
15642W        W80869  39.557  15.573   4.136
15643W        W80870  17.287  32.655  10.697
15644W        W80871   4.741  42.000   4.451
15645W        W80872  34.714  18.727   2.857
15646W        W80873  20.337  33.204  11.070
15647W        W80874  39.850  14.245   4.158
15648W        W80875  14.029  29.621   1.173
15649W        W80876  15.360  20.685  11.857
15650W        W80877  21.433  24.771  11.973
15651W        W80878   1.295   5.663   0.740
15652W        W80879  24.934  27.181  13.156
15653W        W80880  17.625  14.581   2.768
15654W        W80881  43.887  17.322  12.104
15655W        W80882   0.185  43.855   2.302
15656W        W80883  18.517  34.006   2.890
15657W        W80884  28.987   8.735   0.826
15658W        W80885  33.401  27.748   0.820
15659W        W80886   7.920   7.666   2.163
15660W        W80887  33.595   4.861   1.909
15661W        W80888  44.083  29.137   4.475
15662W        W80889  22.380  24.425   3.376
15663W        W80890   9.595  33.220   2.992
15664W        W80891  17.091   5.924  13.825
15665W        W80892   6.072  44.311   2.743
15666W        W80893  21.175   4.912  14.961
15667W        W80894   8.117  43.701  11.469
15668W        W80895  27.483  16.541  10.590
15669W        W80896   1.913  27.716  11.232
15670W        W80897  37.918   4.702  11.106
15671W        W80898   9.722  22.302   0.971
15672W        W80899   5.745  22.064   0.980
15673W        W80900   6.124   2.349  14.393
15674W        W80901  39.625  39.074   3.891
15675W        W80902  32.776   0.394   0.494
15676W        W80903  44.302  40.207   3.657
15677W        W80904  10.972  41.078   0.349
15678W        W80905   8.290  10.193  11.444
15679W        W80906  19.186  39.898   1.258
15680W        W80907  34.068  17.246  11.010
15681W        W80908   3.013  12.787   0.748
15682W        W80909  42.509  14.142  11.570
15683W        W80910  35.433   1.945   2.685
15684W        W80911  32.264  37.119   2.826
15685W        W80912  37.944  35.132   0.325
15686W        W80913  20.998   4.891  12.022
15687W        W80914  23.800  15.717  11.515
15688W        W80915  12.823  13.667   2.262
15689W        W80916  14.274   9.362   0.136
15690W        W80917  15.552  33.371  11.967
15691W        W80918  38.542  24.504   0.781
15692W        W80919  39.819  38.609   0.796
15693W        W80920  19.848  23.224   3.732
15694W        W80921  39.226  20.265   1.394
15695W        W80922  41.972  29.721  13.077
15696W        W80923  40.370   9.364   0.424
15697W        W80924   0.942   7.702   4.226
15698W        W80925   3.766  25.480   4.366
15699W        W80926  13.342  35.099   1.687
15700W        W80927  26.613   7.933   4.040
15701W        W80928   9.310  39.688   2.240
15702W        W80929  17.245  36.474   2.860
15703W        W80930   4.374  10.330   1.800
15704W        W80931  38.878  35.273   1.112
15705W        W80932  37.328  43.836  13.240
15706W        W80933  19.927  43.030  13.782
15707W        W80934  40.626  32.416  10.683
15708W        W80935  12.262  34.358   1.718
15709W        W80936  14.089  23.665   3.247
15710W        W80937  10.646  13.225  12.495
15711W        W80938  37.715  38.143  12.850
15712W        W80939  23.387   9.743   4.834
15713W        W80940  34.564  23.990  14.972
15714W        W80941   2.972  12.497  14.218
15715W        W80942  36.395  33.376   2.362
15716W        W80943  32.478  36.347  13.040
15717W        W80944  39.882  44.509   3.693
15718W        W80945   9.205  25.083   1.436
15719W        W80946  39.810  10.975  11.654
15720W        W80947  21.124  28.106  14.352
15721W        W80948  19.066  36.625   4.168
15722W        W80949  41.984  40.629  12.529
15723W        W80950  35.001  30.188  12.793
15724W        W80951   8.620   6.289  11.067
15725W        W80952  19.248  29.489   2.358
15726W        W80953  21.948   7.517  11.486
15727W        W80954  25.081  43.388  11.095
15728W        W80955  19.782   5.218  12.955
15729W        W80956  30.436  32.734   4.543
15730W        W80957  21.057   0.396  13.614
15731W        W80958   6.143  35.979  12.476
15732W        W80959  26.894  41.919   4.201
15733W        W80960  43.801  21.063   2.353
15734W        W80961  20.096  24.183   3.587
15735W        W80962  12.605   5.286   2.383
15736W        W80963  31.159  23.471  11.136
15737W        W80964   1.958  12.798   0.936
15738W        W80965  21.056  30.383   3.145
15739W        W80966   9.556  16.970   1.699
15740W        W80967  43.743   8.764   3.235
15741W        W80968  14.349   1.181  14.021
15742W        W80969  26.806  28.074  12.472
15743W        W80970  24.902  40.395  14.395
15744W        W80971  41.406  25.088  11.656
15745W        W80972  31.156  39.949  14.810
15746W        W80973  12.415  22.889   3.307
15747W        W80974   3.997  33.284  12.073
15748W        W80975  21.256  24.984   4.131
15749W        W80976  30.707  22.789  13.116
15750W        W80977  36.922  15.182  11.600
15751W        W80978  29.190  35.028   1.799
15752W        W80979  41.757  39.526  13.405
15753W        W80980   9.387  30.456   0.948
15754W        W80981  14.133   7.148   1.642
15755W        W80982   1.496  27.468   4.280
15756W        W80983  12.675   2.246  14.492
15757W        W80984  36.743  29.825  12.666
15758W        W80985  16.609   3.878   3.638
15759W        W80986  12.544  30.091  11.534
15760W        W80987   5.756   8.492  13.192
15761W        W80988  13.795  42.288   2.901
15762W        W80989  29.729  12.351   1.728
15763W        W80990  37.328   0.048   0.631
15764W        W80991  15.562  30.737   5.006
15765W        W80992  13.308  36.823   3.705
15766W        W80993  17.154   1.024  14.940
15767W        W80994  18.854  27.560  11.653
15768W        W80995   9.831  12.686  13.598
15769W        W80996  36.061  11.272  11.822
15770W        W80997  21.416  40.290  12.338
15771W        W80998  33.697  40.656   3.218
15772W        W80999   8.400  28.664   1.502
15773W        W81000  37.796  44.291  14.639
15774W        W81001   4.203  10.347   4.323
15775W        W81002  16.452  34.867  12.239
15776W        W81003  21.124  32.532  14.382
15777W        W81004   4.444  10.683  10.774
15778W        W81005  17.568   8.380  12.983
15779W        W81006  29.840   9.797  12.527
15780W        W81007  36.891  29.649  11.232
15781W        W81008  25.803  34.470   3.523
15782W        W81009   2.217  11.842   4.654
15783W        W81010  28.579   5.799   0.474
15784W        W81011  22.424  19.308   0.866
15785W        W81012  11.106  27.693   3.610
15786W        W81013   8.385  11.232  14.380
15787W        W81014  10.099   0.744  12.071
15788W        W81015  23.504  30.038  12.978
15789W        W81016  11.106  44.057  12.894
15790W        W81017  36.266  40.469  10.575
15791W        W81018  23.271   6.845   4.501
15792W        W81019  22.096  19.457   2.635
15793W        W81020  17.344  25.987  11.458
15794W        W81021  25.775  30.479   4.650
15795W        W81022  18.302  35.403   1.434
15796W        W81023   4.333  19.743  11.484
15797W        W81024  31.383  11.004   1.923
15798W        W81025   1.666  16.204  11.292
15799W        W81026   7.152  21.247  10.744
15800W        W81027  26.984  34.457   2.165
15801W        W81028  25.207  38.129  12.947
15802W        W81029   6.781  18.051   3.713
15803W        W81030  41.768  28.121  12.140
15804W        W81031  21.579  22.533  10.656
15805W        W81032  29.278   8.360   2.697
15806W        W81033  40.229   3.940   4.486
15807W        W81034  34.501   3.567   4.576
15808W        W81035  44.718  15.180  11.562
15809W        W81036  17.494  21.350   1.463
15810W        W81037  23.111  13.029   0.872
15811W        W81038  10.425   4.264   4.303
15812W        W81039  38.026  44.444   3.733
15813W        W81040  39.790  15.392   1.853
15814W        W81041   0.319   8.417  11.097
15815W        W81042  30.159  25.271  11.680
15816W        W81043  25.759  39.498   0.260
15817W        W81044  26.093  32.952  13.969
15818W        W81045   6.206  44.092   0.565
15819W        W81046  43.276  23.316  13.506
15820W        W81047  26.443  12.851   3.320
15821W        W81048  30.327  33.283  12.944
15822W        W81049  41.484  25.114   2.711
15823W        W81050   2.405  20.057  14.771
15824W        W81051  18.649  15.712   0.666
15825W        W81052   2.326  24.512  14.536
15826W        W81053  31.655  37.819  12.521
15827W        W81054   7.198  20.697   1.686
15828W        W81055   1.426  33.626   3.857
15829W        W81056   8.321   7.389   3.773
15830W        W81057  44.828   6.300   3.640
15831W        W81058  18.636  28.372   4.259
15832W        W81059  36.804  32.766  12.429
15833W        W81060  26.463   8.319   4.344
15834W        W81061  34.354  37.283  14.911
15835W        W81062   9.050  10.451   0.424
15836W        W81063  23.560  24.949   4.545
15837W        W81064  23.231   1.301   0.308
15838W        W81065   9.709  37.934  11.503
15839W        W81066  40.909  26.027   4.322
15840W        W81067  14.882  44.380   2.586
15841W        W81068   5.734  11.725  11.912
15842W        W81069   1.289  12.300  11.136
15843W        W81070  26.546  44.829   4.543
15844W        W81071  37.443   8.646  12.769
15845W        W81072  12.796  17.324   4.239
15846W        W81073  12.259  25.120   3.394
15847W        W81074  11.788   5.090  12.507
15848W        W81075   0.482  37.962   4.281
15849W        W81076   1.718  24.651  14.073
15850W        W81077  12.752   5.686  10.623
15851W        W81078  18.282   7.381  12.280
15852W        W81079   0.485   0.809  14.358
15853W        W81080  27.386   0.089  12.271
15854W        W81081   9.277  29.161   3.633
15855W        W81082  42.930   8.366  10.828
15856W        W81083  24.157  37.724   2.273
15857W        W81084  44.487  25.990  14.475
15858W        W81085  10.075  14.321   2.887
15859W        W81086  33.317  24.283   0.837
15860W        W81087  38.156  31.338  13.038
15861W        W81088   9.655  32.842   3.349
15862W        W81089  25.412  30.628  11.622
15863W        W81090  37.312  41.940   3.723
15864W        W81091  30.120   8.132   0.039
15865W        W81092  28.033  41.759  13.427
15866W        W81093  31.588  19.127  13.552
15867W        W81094  14.407  31.630   0.761
15868W        W81095   1.848   9.292   4.565
15869W        W81096  39.213  35.327  13.542
15870W        W81097  16.904  31.133  11.548
15871W        W81098  35.497   2.009   0.460
15872W        W81099  13.808  42.492  11.495
15873W        W81100   5.221  22.960  11.224
15874W        W81101   4.149  34.807  13.925
15875W        W81102  20.117  20.385  12.404
15876W        W81103  29.239   9.942  12.005
15877W        W81104  18.532  11.665   3.854
15878W        W81105  41.606  17.898   1.228
15879W        W81106  27.223  14.298   1.631
15880W        W81107   4.290  33.920  12.533
15881W        W81108  19.958  35.581  11.333
15882W        W81109  10.245  11.376   3.316
15883W        W81110   9.996  11.821   1.392
15884W        W81111  16.880  44.460  12.500
15885W        W81112  20.995  34.822  14.208
15886W        W81113  32.241   4.875   3.461
15887W        W81114   8.179  38.316   0.801
15888W        W81115  43.718  11.796   2.472
15889W        W81116   5.954  39.832  12.997
15890W        W81117  16.578  19.336   2.758
15891W        W81118  18.162   3.202   0.817
15892W        W81119  19.261  40.796  11.656
15893W        W81120  16.123  43.400  11.477
15894W        W81121  38.178  34.337   2.027
15895W        W81122  38.937  42.302   4.110
15896W        W81123  34.566  10.250  11.668
15897W        W81124   6.545  37.105  11.146
15898W        W81125  30.846  29.439  11.675
15899W        W81126   4.396   0.800   0.735
15900W        W81127   6.877  35.403  13.489
15901W        W81128  24.431  32.083  13.845
15902W        W81129  20.759  15.849   0.245
15903W        W81130  22.068  10.126  14.801
15904W        W81131  34.717  19.573  13.337
15905W        W81132   4.434  13.584  10.490
15906W        W81133  32.841  19.490  12.102
15907W        W81134   5.399   0.554   3.633
15908W        W81135  11.618  21.635   2.796
15909W        W81136   4.956  20.709  12.628
15910W        W81137  39.875  15.136   4.671
15911W        W81138   9.481   6.112  14.435
15912W        W81139  33.108  12.223  13.497
15913W        W81140  15.568  43.085   4.121
15914W        W81141  38.946   0.710  11.689
15915W        W81142   2.387  29.725  10.648
15916W        W81143  27.635   2.420   4.569
15917W        W81144   7.428  35.849   2.766
15918W        W81145  40.975  13.682  13.625
15919W        W81146  27.202  20.589  14.309
15920W        W81147   1.872  42.975  13.760
15921W        W81148  13.778   7.268  14.024
15922W        W81149  35.430  34.418  11.488
15923W        W81150  30.986  28.602  11.136
15924W        W81151  31.802  38.693   5.377
15925W        W81152  36.573  11.931   2.402
15926W        W81153   6.878   3.327  10.386
15927W        W81154  23.801  30.462  13.804
15928W        W81155   4.688  42.203  12.070
15929W        W81156   6.764   5.383   1.891
15930W        W81157   2.374  43.094  14.924
15931W        W81158  32.049  41.255   0.408
15932W        W81159  33.060  17.694  14.028
15933W        W81160   6.051  38.550  11.152
15934W        W81161  36.620   9.032   2.666
15935W        W81162  43.049  16.659  11.490
15936W        W81163  34.774  20.581  12.006
15937W        W81164   6.479  16.781   1.458
15938W        W81165   5.894  41.221   3.139
15939W        W81166  42.827  36.486   4.628
15940W        W81167  14.359  15.197   2.668
15941W        W81168  20.763  44.449  13.620
15942W        W81169  10.773  29.386  12.308
15943W        W81170   8.874   0.558   0.044
15944W        W81171  10.905  18.166  10.635
15945W        W81172  10.435   2.971  14.857
15946W        W81173  43.919  24.664   4.633
15947W        W81174   1.372  32.964   0.467
15948W        W81175  13.020   3.980  13.988
15949W        W81176   0.545  14.527   3.857
15950W        W81177  26.046  26.834   3.836
15951W        W81178  24.930  13.248   4.551
15952W        W81179   3.710  36.673  13.915
15953W        W81180  14.598   3.910   4.295
15954W        W81181  12.921  36.250   4.436
15955W        W81182  44.823  33.984  13.312
15956W        W81183  32.020  37.646   9.837
15957W        W81184   6.247   7.972   1.444
15958W        W81185   5.420  12.357   1.336
15959W        W81186   8.544  36.760  13.797
15960W        W81187   9.354   0.152   0.235
15961W        W81188  21.145  43.329   3.770
15962W        W81189   9.855   0.802   0.292
15963W        W81190  40.502  26.453  14.953
15964W        W81191  24.276  35.895   0.424
15965W        W81192  33.000  33.346   2.600
15966W        W81193  41.633  22.433  12.367
15967W        W81194   1.964  17.509   2.121
15968W        W81195  28.679  30.223  13.929
15969W        W81196  33.092  41.304  14.384
15970W        W81197  29.588  32.220  14.757
15971W        W81198  37.936   7.938  11.168
15972W        W81199  38.319  19.719  11.615
15973W        W81200  12.103   8.589  11.942
15974W        W81201   5.987   6.751   2.626
15975W        W81202  37.845  14.042  12.108
15976W        W81203  27.457  34.461   3.612
15977W        W81204  42.906  21.206   4.163
15978W        W81205   6.850  44.766   0.739
15979W        W81206  42.648  21.689  10.728
15980W        W81207   0.404  44.834   0.509
15981W        W81208   5.280  11.842  12.169
15982W        W81209  37.086  17.831  14.198
15983W        W81210  12.675  42.471  12.134
15984W        W81211  25.109  22.693  12.499
15985W        W81212  20.258   2.259  14.702
15986W        W81213  35.169   4.377  11.604
15987W        W81214   2.413  19.040  10.039
15988W        W81215  21.508  24.091  11.448
15989W        W81216  25.136  28.450   3.576
15990W        W81217  36.420  13.121  13.924
15991W        W81218  28.658  30.046  12.075
15992W        W81219  22.114  22.229  13.039
15993W        W81220  29.077  31.375  11.700
15994W        W81221  15.854  28.591   0.782
15995W        W81222  29.887  23.538  10.608
15996W        W81223  38.387  14.820   1.755
15997W        W81224  34.449  11.387   1.248
15998W        W81225   6.291  15.541  12.890
15999W        W81226  16.209  15.104   4.211
16000W        W81227   7.428  21.634  14.817
16001W        W81228  25.750  29.913  13.711
16002W        W81229  44.064  37.898   2.799
16003W        W81230  13.863  31.865   5.412
16004W        W81231   8.185  36.483  11.015
16005W        W81232   7.637  12.321  13.135
16006W        W81233  37.975  27.499   4.209
16007W        W81234  15.093  25.905  12.993
16008W        W81235  17.067  12.168  10.617
16009W        W81236  13.328  39.890   0.686
16010W        W81237  32.427   9.583   1.732
16011W        W81238   3.252  13.636   0.420
16012W        W81239  21.165   3.700   0.558
16013W        W81240  10.682  15.153  13.376
16014W        W81241  34.555   1.709  11.475
16015W        W81242  26.829  23.467   5.173
16016W        W81243  22.497  27.228  10.828
16017W        W81244   2.842  18.511   3.629
16018W        W81245  43.613  30.810  12.949
16019W        W81246   5.202   0.506  11.471
16020W        W81247  16.193   1.296  11.271
16021W        W81248  27.092  10.323   1.336
16022W        W81249  17.250  44.578  10.745
16023W        W81250  39.915  17.557  12.507
16024W        W81251  18.238  33.064   2.324
16025W        W81252   9.528  41.315  13.923
16026W        W81253  23.789  43.321   1.338
16027W        W81254  34.138  10.617  12.560
16028W        W81255   8.196  12.192  11.212
16029W        W81256  26.374  25.734  11.014
16030W        W81257  18.124  24.197   4.547
16031W        W81258  39.558  28.147   0.420
16032W        W81259  29.373  37.042   0.308
16033W        W81260  26.988  20.768   3.934
16034W        W81261  32.455  36.304  12.005
16035W        W81262  27.002  41.450   4.905
16036W        W81263  13.919  24.542   3.863
16037W        W81264   8.780  10.903  13.071
16038W        W81265  12.836  37.574   2.771
16039W        W81266  34.820  18.150  12.045
16040W        W81267  37.106  16.954   3.519
16041W        W81268  12.138   4.356   2.081
16042W        W81269  39.921  25.247  13.241
16043W        W81270   9.945   0.415   4.228
16044W        W81271  13.601  27.136   2.846
16045W        W81272  10.836  10.426  13.320
16046W        W81273  41.859   4.879   1.188
16047W        W81274  17.761   0.240  13.513
16048W        W81275  17.602  21.332  13.415
16049W        W81276  26.110  34.436  10.792
16050W        W81277  25.068   3.283   3.267
16051W        W81278  26.964  15.889  14.978
16052W        W81279  33.183   8.649  12.781
16053W        W81280  42.269   3.751  14.882
16054W        W81281   0.413  15.311  13.134
16055W        W81282   7.191  35.322   0.414
16056W        W81283   8.140  13.905  13.978
16057W        W81284  15.286  21.154   4.762
16058W        W81285  16.678   9.909  10.739
16059W        W81286  33.543  39.720  11.895
16060W        W81287  24.611  22.073  14.813
16061W        W81288  13.530   4.494   0.678
16062W        W81289  43.881  28.173   2.389
16063W        W81290  28.115  26.087   3.527
16064W        W81291  15.999  10.787  13.424
16065W        W81292  19.077  28.499  13.798
16066W        W81293  17.404  32.900   0.661
16067W        W81294  18.091  41.583   2.543
16068W        W81295   5.263  19.979  13.153
16069W        W81296  28.228   4.868   4.226
16070W        W81297  20.010  34.313  12.048
16071W        W81298  11.008  24.039  12.974
16072W        W81299  35.992  43.731   4.612
16073W        W81300  37.257  15.265  13.844
16074W        W81301  25.359  38.565  12.668
16075W        W81302   5.906   4.856   9.688
16076W        W81303   6.249  28.224   3.318
16077W        W81304   2.077   2.255   3.136
16078W        W81305  30.868  29.223   5.059
16079W        W81306  22.888  35.486   2.867
16080W        W81307  12.388  19.798   0.345
16081W        W81308  10.060   3.993   2.210
16082W        W81309  31.627  19.430  14.476
16083W        W81310  26.103  42.537   0.472
16084W        W81311   0.302  40.029   2.390
16085W        W81312  38.549  38.255  14.913
16086W        W81313   8.681  44.817   3.574
16087W        W81314  20.834  32.872   4.395
16088W        W81315  43.061  17.157   4.566
16089W        W81316   1.967   0.321  14.035
16090W        W81317  24.773  25.047  14.934
16091W        W81318  10.335  31.608   1.260
16092W        W81319  21.899  42.572   4.076
16093W        W81320   9.554  33.461   2.171
16094W        W81321  41.283  32.530   2.276
16095W        W81322  17.417  39.959   4.236
16096W        W81323  13.814  28.363   3.214
16097W        W81324  14.142  44.379   0.063
16098W        W81325  41.399  34.223   0.445
16099W        W81326  27.295   7.574   2.960
16100W        W81327   9.844   8.949  12.979
16101W        W81328  36.014  24.153   1.511
16102W        W81329  39.072   3.999  10.234
16103W        W81330  29.628  23.093   1.589
16104W        W81331   8.602  33.175   2.136
16105W        W81332  24.462  26.713  11.561
16106W        W81333  40.463  19.006  14.945
16107W        W81334  20.623   2.965   9.871
16108W        W81335  26.501   6.811   0.829
16109W        W81336   3.168  29.987   5.313
16110W        W81337   3.173  17.518  13.485
16111W        W81338  17.068  10.346   4.802
16112W        W81339  24.968   1.948  12.579
16113W        W81340  10.863  12.212   3.150
16114W        W81341   5.208   2.385   2.301
16115W        W81342  23.385  17.170  11.210
16116W        W81343  27.379  42.388   2.395
16117W        W81344  32.673  30.346  11.987
16118W        W81345   9.132  33.545   3.868
16119W        W81346  44.550  10.381  13.549
16120W        W81347  13.293  38.526  10.671
16121W        W81348  13.864  34.029  10.706
16122W        W81349   2.353  36.460   0.284
16123W        W81350  38.078  10.693   0.364
16124W        W81351   0.522  15.098  11.154
16125W        W81352  11.281  31.611   5.045
16126W        W81353   5.734   2.454   2.325
16127W        W81354  11.596   7.400   3.181
16128W        W81355  12.299   8.062  14.215
16129W        W81356   5.798   0.466   3.287
16130W        W81357   2.237  17.891  12.837
16131W        W81358  35.892  28.650  13.306
16132W        W81359  44.566  22.176  13.208
16133W        W81360  11.292  41.553  14.010
16134W        W81361  17.882  28.577   1.272
16135W        W81362  43.686  39.884   3.777
16136W        W81363  22.412  21.440   4.907
16137W        W81364  36.890  39.993  14.336
16138W        W81365  10.407  35.472   3.226
16139W        W81366  25.110  26.012   2.602
16140W        W81367  13.626  33.101  14.660
16141W        W81368   4.863  40.801   0.613
16142W        W81369  32.767  32.145  12.344
16143W        W81370  30.998  33.088  11.678
16144W        W81371  31.461  34.068  10.664
16145W        W81372  34.064   9.814  14.827
16146W        W81373   5.611  23.342   1.442
16147W        W81374   4.624  24.174   1.190
16148W        W81375  14.166  14.098  12.116
16149W        W81376  24.200  10.391  12.975
16150W        W81377   9.789  14.169   1.946
16151W        W81378  40.918  38.557   4.395
16152W        W81379  24.680  21.205   0.827
16153W        W81380  31.567  25.605   4.823
16154W        W81381  11.192   5.825   4.841
16155W        W81382  11.850  15.129   2.290
16156W        W81383  13.161  35.980  10.284
16157W        W81384  25.803  19.998  13.583
16158W        W81385  38.015  28.574  11.915
16159W        W81386  40.930  13.856  10.670
16160W        W81387  40.458  33.850   1.221
16161W        W81388  33.437  38.036  13.998
16162W        W81389  28.378  15.600   3.634
16163W        W81390  35.489   9.812  14.467
16164W        W81391  13.592  28.231  12.034
16165W        W81392  16.284  11.076  14.688
16166W        W81393  38.369  34.697   2.350
16167W        W81394  34.114   3.749   0.376
16168W        W81395  34.579  43.893   4.594
16169W        W81396  20.142  23.100   1.705
16170W        W81397  24.505  17.257   1.816
16171W        W81398  41.188  19.161   0.229
16172W        W81399   8.588  22.069   4.194
16173W        W81400  27.581  44.619   4.086
16174W        W81401  44.777  37.322   4.118
16175W        W81402   1.794  30.691   3.179
16176W        W81403  12.553   9.779  12.569
16177W        W81404  22.312   0.185   2.337
16178W        W81405   0.355  38.536   2.945
16179W        W81406  39.915  29.996   3.806
16180W        W81407  37.909  34.497  10.489
16181W        W81408  14.757   1.405   1.218
16182W        W81409  38.613  28.981   2.810
16183W        W81410  34.792  20.483   0.347
16184W        W81411   9.176  11.166   2.629
16185W        W81412  26.434  31.738   0.874
16186W        W81413  35.510  18.718   3.309
16187W        W81414  24.188  33.437   1.948
16188W        W81415  24.306  23.549  14.139
16189W        W81416  10.549  16.256   2.837
16190W        W81417   2.121  28.707  14.882
16191W        W81418  23.573  31.321   3.595
16192W        W81419   6.175  14.676  10.794
16193W        W81420  24.281   5.094   4.508
16194W        W81421  15.848  42.415  11.331
16195W        W81422  19.440  43.715  14.864
16196W        W81423  17.103   7.604   3.255
16197W        W81424   7.082  31.966   3.328
16198W        W81425   5.450   0.868  10.569
16199W        W81426  36.123  39.994   1.163
16200W        W81427  44.741  22.051   1.261
16201W        W81428  29.552   6.372  13.458
16202W        W81429  24.243  20.834   4.114
16203W        W81430  31.859  15.821  10.759
16204W        W81431  44.014  22.590   0.020
16205W        W81432  28.625  16.910   0.395
16206W        W81433  30.958  11.048  13.132
16207W        W81434  41.989   4.901   0.677
16208W        W81435   2.827   5.362  12.438
16209W        W81436  27.190  34.090  11.225
16210W        W81437  30.401  33.988  12.398
16211W        W81438  25.431  42.338  12.299
16212W        W81439  14.352  36.351  12.037
16213W        W81440  29.229  10.200  10.690
16214W        W81441  40.480  32.921   1.398
16215W        W81442  14.747  31.019  11.641
16216W        W81443   8.332  28.115   2.760
16217W        W81444  31.405  23.900   1.188
16218W        W81445   0.743  14.525   2.356
16219W        W81446  43.815  22.005   3.785
16220W        W81447   7.557  14.126   2.699
16221W        W81448  12.424  40.475   3.661
16222W        W81449  20.888  19.403  10.807
16223W        W81450  32.318   2.844  11.913
16224W        W81451  11.369  26.041  14.367
16225W        W81452  18.750  30.852   0.292
16226W        W81453  12.753  44.941  13.355
16227W        W81454  18.143  24.628  12.057
16228W        W81455   8.221  13.528  12.042
16229W        W81456  23.315  10.798  13.507
16230W        W81457   6.225  16.747  14.289
16231W        W81458  38.465   3.850   3.985
16232W        W81459   4.172  20.823   0.687
16233W        W81460  10.905  43.760  10.727
16234W        W81461  28.511   0.274  13.337
16235W        W81462  18.218   4.066  14.264
16236W        W81463   2.006  30.156   0.658
16237W        W81464  15.349  12.901  13.868
16238W        W81465  16.888  37.490  10.396
16239W        W81466  17.664   6.055   3.629
16240W        W81467  34.340  27.981  11.901
16241W        W81468  38.572  15.064   2.178
16242W        W81469  31.187   0.879  12.381
16243W        W81470  31.970  40.865   4.542
16244W        W81471  13.560   0.315  13.313
16245W        W81472  11.753  11.747   4.552
16246W        W81473  10.729  39.848   0.956
16247W        W81474  38.492  40.025   4.750
16248W        W81475  24.311   3.493   2.313
16249W        W81476  31.171  24.896  13.559
16250W        W81477   1.022  37.200  10.738
16251W        W81478  42.229  42.459   1.365
16252W        W81479  26.042  34.823  14.794
16253W        W81480  19.430   1.912  13.386
16254W        W81481  37.132  34.381   0.930
16255W        W81482   5.813   5.045   2.155
16256W        W81483   8.684  40.614  13.893
16257W        W81484  22.118   1.959  11.861
16258W        W81485  12.171  14.208  11.507
16259W        W81486   1.001  27.686   3.584
16260W        W81487  16.663   2.895   0.921
16261W        W81488  22.345  44.210   0.743
16262W        W81489  23.166  31.622  11.615
16263W        W81490   7.931  10.348   3.624
16264W        W81491  13.707  35.392  14.574
16265W        W81492  39.874  32.227  11.612
16266W        W81493  26.934  23.768  13.328
16267W        W81494  41.946  16.231  10.763
16268W        W81495  16.900  19.687   0.819
16269W        W81496  37.449   6.240   0.736
16270W        W81497  39.280  34.036   2.688
16271W        W81498  20.609  36.614  13.024
16272W        W81499  30.128   6.409   4.734
16273W        W81500   4.486  22.175   4.120
16274W        W81501  41.238  32.414   1.771
16275W        W81502  16.168  39.988   0.331
16276W        W81503  20.603  20.467  12.164
16277W        W81504   6.098   4.332  14.140
16278W        W81505   7.628  15.570  14.269
16279W        W81506  19.246  23.937   0.036
16280W        W81507  19.295  17.758  10.710
16281W        W81508  20.409  43.585  13.241
16282W        W81509  24.534  44.283   2.448
16283W        W81510  28.672  10.496  11.470
16284W        W81511  14.333  22.618  11.501
16285W        W81512  21.926  39.638  12.883
16286W        W81513  29.417   5.709   3.709
16287W        W81514  27.975  41.074   4.199
16288W        W81515  16.805  43.166   0.558
16289W        W81516  38.041  13.894  14.005
16290W        W81517  14.966  38.345  12.442
16291W        W81518  21.731  41.810  11.166
16292W        W81519  39.938   1.316   3.758
16293W        W81520  42.545  39.538   0.858
16294W        W81521   9.143   9.161  12.948
16295W        W81522  35.046  12.065  14.854
16296W        W81523  11.855  19.771  14.045
16297W        W81524  10.892  26.573  14.785
16298W        W81525  36.131  34.461  13.086
16299W        W81526  17.643  17.354  14.001
16300W        W81527  38.818   0.238  11.621
16301W        W81528  23.565   7.408  14.990
16302W        W81529   2.912   8.245   2.445
16303W        W81530  21.676  23.442  11.766
16304W        W81531   1.840  24.659   1.492
16305W        W81532   1.324  34.914   3.477
16306W        W81533  19.938   2.600  12.959
16307W        W81534   6.194   0.252   2.856
16308W        W81535   8.631  22.813   4.928
16309W        W81536  15.142  17.335  11.809
16310W        W81537  15.852  38.325   0.317
16311W        W81538  27.572   5.505  11.243
16312W        W81539  23.448   5.998  11.723
16313W        W81540  43.833  40.950  11.356
16314W        W81541  43.528  42.503  14.572
16315W        W81542  38.577   1.401   5.094
16316W        W81543   7.476  28.047   0.887
16317W        W81544  40.829  29.682  12.534
16318W        W81545  35.992  32.238   3.732
16319W        W81546   0.519   1.767   3.260
16320W        W81547   1.884   4.914  14.752
16321W        W81548  11.113  43.273   1.249
16322W        W81549   1.278   7.619   0.821
16323W        W81550  20.814   6.743   2.214
16324W        W81551  38.869  28.243  11.386
16325W        W81552  37.417  42.578  14.935
16326W        W81553  44.690  28.100  10.756
16327W        W81554  39.043  25.300   1.250
16328W        W81555   7.669  22.544  12.534
16329W        W81556   5.432  15.867  12.889
16330W        W81557  29.148   1.738   0.957
16331W        W81558  33.554   3.774   4.757
16332W        W81559  29.456   4.330  11.423
16333W        W81560  23.875   8.983   2.172
16334W        W81561   6.929  27.165   0.480
16335W        W81562   9.207   1.489   2.725
16336W        W81563  23.007  35.791   3.278
16337W        W81564   2.816  28.591   2.188
16338W        W81565  44.860  18.315   0.743
16339W        W81566  39.481  29.751   4.321
16340W        W81567   3.749   8.271  11.910
16341W        W81568  40.482   6.687   1.746
16342W        W81569  22.579   2.627  12.943
16343W        W81570  14.492  43.429  11.560
16344W        W81571  14.830  32.959   3.203
16345W        W81572  15.180  38.298  11.368
16346W        W81573  30.555  28.152  10.798
16347W        W81574   7.175  42.247   1.241
16348W        W81575  23.712  44.021  10.462
16349W        W81576  17.719  35.703  14.355
16350W        W81577  42.529  20.471   9.903
16351W        W81578  20.250  22.163  10.466
16352W        W81579   5.796  33.403   0.347
16353W        W81580   3.328  27.387   3.847
16354W        W81581  19.062  14.453   3.334
16355W        W81582   7.206  28.594  11.175
16356W        W81583  42.879  11.208   0.871
16357W        W81584  30.976   7.598  14.311
16358W        W81585  10.203  38.851  12.589
16359W        W81586  29.398  19.598   3.300
16360W        W81587  35.968   6.191   4.624
16361W        W81588  38.707  16.079   0.007
16362W        W81589  17.595   5.112  12.899
16363W        W81590  39.355  17.147   1.333
16364W        W81591  31.128  30.784  11.982
16365W        W81592  19.630  31.895   2.184
16366W        W81593  23.626  42.344   4.374
16367W        W81594  44.609   0.100   1.729
16368W        W81595  17.735  11.319  12.978
16369W        W81596   2.650   4.351   1.248
16370W        W81597  18.202  16.233   2.593
16371W        W81598  14.187   7.584   1.879
16372W        W81599  39.884  31.940   3.711
16373W        W81600   4.712   7.848   4.507
16374W        W81601  37.467  30.472  14.793
16375W        W81602  41.039   8.949  13.307
16376W        W81603  22.599   6.401  13.319
16377W        W81604   7.687  12.536  11.147
16378W        W81605   7.744  14.083  13.658
16379W        W81606  21.405  16.659   3.313
16380W        W81607  41.535   8.701   1.276
16381W        W81608   3.425  23.968  13.344
16382W        W81609  41.441  40.637  12.969
16383W        W81610  43.380   4.846   0.585
16384W        W81611   0.407   5.864  14.653
16385W        W81612   2.915  22.675  12.484
16386W        W81613  42.562  40.716   1.214
16387W        W81614  36.015  19.624   0.218
16388W        W81615   2.455  19.216  14.245
16389W        W81616  12.092  23.593   0.449
16390W        W81617  10.931   7.744  12.412
16391W        W81618  31.969  25.067  12.609
16392W        W81619  26.322   4.313  14.895
16393W        W81620   9.347   9.458   2.246
16394W        W81621  34.891  20.628   1.764
16395W        W81622  31.500   3.298  13.626
16396W        W81623  26.002  12.222   1.689
16397W        W81624  20.989  23.027   2.253
16398W        W81625  14.322  20.175   3.275
16399W        W81626   8.012   1.602   4.704
16400W        W81627  22.987  18.323   1.863
16401W        W81628  19.582  23.419   3.137
16402W        W81629  42.353   6.884   3.185
16403W        W81630   7.946  11.947   1.331
16404W        W81631  20.273  16.178   4.144
16405W        W81632  33.464   8.881  11.418
16406W        W81633  39.093  19.852   4.869
16407W        W81634  24.962  16.296   0.186
16408W        W81635  23.945   7.162   1.855
16409W        W81636  40.244   3.750   3.123
16410W        W81637  17.339  40.647  11.108
16411W        W81638  16.244   6.586   3.634
16412W        W81639  25.746  37.431  13.944
16413W        W81640  22.063   2.346   1.188
16414W        W81641  29.611  13.269   0.048
16415W        W81642   5.929  34.035   4.691
16416W        W81643   6.672  10.465  10.066
16417W        W81644   8.560  34.406   5.674
16418W        W81645  18.699   6.566   4.664
16419W        W81646   3.245  35.157  11.223
16420W        W81647  20.807  36.112   0.285
16421W        W81648  40.243  37.033   4.818
16422W        W81649  32.431  12.605  13.777
16423W        W81650  28.439  16.368  14.277
16424W        W81651  16.105  30.297   0.789
16425W        W81652   1.776  27.955   4.459
16426W        W81653  29.624  20.810   0.371
16427W        W81654  18.275   7.176   4.311
16428W        W81655  15.287   0.881   4.095
16429W        W81656  42.481  10.722   0.281
16430W        W81657  34.317  14.045   2.788
16431W        W81658  31.460  27.809  14.046
16432W        W81659  22.953  26.505  14.850
16433W        W81660  26.320   2.298  11.666
16434W        W81661  38.408  31.594  14.506
16435W        W81662  34.343  44.922   0.866
16436W        W81663  25.570   9.765  11.139
16437W        W81664  28.583  12.069   1.387
16438W        W81665  27.419  13.540  10.058
16439W        W81666  35.658  26.404  10.330
16440W        W81667  34.645  37.728  13.083
16441W        W81668  21.996  31.353   3.361
16442W        W81669  20.290  21.138   2.682
16443W        W81670   9.675  42.504   2.298
16444W        W81671  40.597  20.105   2.797
16445W        W81672  37.038  10.232   1.452
16446W        W81673  27.600   1.195   1.392
16447W        W81674  27.563  27.643   3.238
16448W        W81675  40.482  36.162  11.680
16449W        W81676  11.924   7.144  12.128
16450W        W81677  35.849  37.833   2.152
16451W        W81678  23.136  22.010   2.834
16452W        W81679  44.735  39.836  12.381
16453W        W81680   9.712  39.477   1.660
16454W        W81681  21.009  26.133  12.601
16455W        W81682  30.177  41.847  14.538
16456W        W81683  23.617   8.754   0.622
16457W        W81684  34.833   1.466   1.303
16458W        W81685  37.838  11.805  13.364
16459W        W81686  24.442  19.805  12.063
16460W        W81687  23.973  25.093   9.987
16461W        W81688   5.030   3.849   0.716
16462W        W81689  39.517  33.931   2.220
16463W        W81690  15.417  44.943   0.872
16464W        W81691   0.014  13.203  11.718
16465W        W81692  27.389   9.172   4.567
16466W        W81693   7.728  12.454   1.836
16467W        W81694  29.757  19.378   2.796
16468W        W81695  16.111  40.006  14.411
16469W        W81696   0.763  32.073  13.673
16470W        W81697  42.887  12.143   1.675
16471W        W81698  32.490   8.210  11.630
16472W        W81699   8.384  21.523   1.693
16473W        W81700  39.796   0.810  14.830
16474W        W81701  27.724   4.925   1.811
16475W        W81702   8.897  25.132   4.137
16476W        W81703  39.964   2.675   4.159
16477W        W81704   1.938  12.854  10.667
16478W        W81705   7.703  13.650   5.508
16479W        W81706   7.237   2.421  14.885
16480W        W81707   0.773  11.232   0.742
16481W        W81708   2.634  39.742   0.320
16482W        W81709  37.436   5.185   2.539
16483W        W81710  21.447  32.605   3.215
16484W        W81711  19.181  23.747   3.224
16485W        W81712  17.145   2.523  12.035
16486W        W81713  20.661   3.379   3.564
16487W        W81714  31.215  16.502  12.107
16488W        W81715  44.068  13.198  12.574
16489W        W81716   3.350  10.524   1.202
16490W        W81717  34.968  36.518   4.341
16491W        W81718   9.377  17.751   3.211
16492W        W81719  27.952  34.845  13.048
16493W        W81720  40.507  34.904  13.160
16494W        W81721  40.413  27.498   2.904
16495W        W81722  43.983  39.781   2.919
16496W        W81723  21.167  29.231   2.191
16497W        W81724   7.196   6.358   3.303
16498W        W81725  39.148   0.947  10.808
16499W        W81726  40.530   8.885  13.325
16500W        W81727  27.709   7.742   1.244
16501W        W81728  18.291  39.823   4.425
16502W        W81729  14.083  29.088   4.855
16503W        W81730  11.588  10.837  12.983
16504W        W81731   8.719   7.528  13.367
16505W        W81732  41.935   7.154   0.682
16506W        W81733  15.930  13.673  14.827
16507W        W81734  12.172  19.843  12.548
16508W        W81735   7.706  36.216  12.883
16509W        W81736  17.894   9.357   0.355
16510W        W81737   4.968  32.898  11.971
16511W        W81738   5.871  41.442  14.918
16512W        W81739  32.590  13.197   2.203
16513W        W81740   3.012  27.743   3.131
16514W        W81741  36.313  43.933  12.446
16515W        W81742  22.389  36.180  12.049
16516W        W81743  24.047   6.067  12.118
16517W        W81744  40.385  34.546   3.677
16518W        W81745  19.208  20.550  12.485
16519W        W81746  22.674  16.151  14.918
16520W        W81747  29.012   8.365   0.400
16521W        W81748  12.825  34.421   5.133
16522W        W81749  31.090  36.410  12.933
16523W        W81750   2.893  10.165   4.652
16524W        W81751  31.802  36.024   1.261
16525W        W81752  38.864  40.023   2.075
16526W        W81753  20.421  13.131  12.833
16527W        W81754  35.401  20.991   0.016
16528W        W81755   6.174  18.094  11.152
16529W        W81756   6.613   1.430  10.690
16530W        W81757  14.125  25.058   2.333
16531W        W81758  13.062  38.837  14.042
16532W        W81759   8.067  34.535  10.831
16533W        W81760  31.460  20.278   0.939
16534W        W81761  24.203  24.786   3.037
16535W        W81762  35.015   8.269   2.579
16536W        W81763   8.869  41.797   2.686
16537W        W81764  14.404  34.826  12.477
16538W        W81765   8.679   2.159  14.864
16539W        W81766  36.360  24.964   1.553
16540W        W81767  24.751  28.380  11.114
16541W        W81768  31.858  14.189   2.783
16542W        W81769  34.162   8.768  12.894
16543W        W81770  11.043  36.566  12.432
16544W        W81771  29.420  33.897  12.302
16545W        W81772  44.144  23.527  13.363
16546W        W81773  40.051  39.387   3.400
16547W        W81774   1.962   3.520   1.274
16548W        W81775  17.514   9.616   3.143
16549W        W81776  15.629  31.731  12.742
16550W        W81777  25.287   9.062  14.159
16551W        W81778  12.927  34.485   4.197
16552W        W81779  14.783   8.140   1.347
16553W        W81780  29.489  10.373  11.192
16554W        W81781   7.423  32.498   4.698
16555W        W81782   2.237  36.359  13.817
16556W        W81783   7.126  28.461   4.187
16557W        W81784  30.219  33.094  12.476
16558W        W81785   9.945  42.963   3.933
16559W        W81786  32.173   0.808  12.388
16560W        W81787  44.853   2.878  12.829
16561W        W81788   2.452  21.009  14.018
16562W        W81789   5.946  40.244   1.282
16563W        W81790   6.715  33.905  14.525
16564W        W81791   4.739  40.349  14.226
16565W        W81792  15.765   6.563   4.516
16566W        W81793  35.590   6.701  13.799
16567W        W81794   2.372   5.143  13.490
16568W        W81795  18.332  10.886  11.573
16569W        W81796  42.790  40.876   4.070
16570W        W81797  13.960   2.404   1.389
16571W        W81798   3.320   2.369  11.471
16572W        W81799  28.640  21.614  11.692
16573W        W81800   4.463  44.520   4.549
16574W        W81801  13.607  38.182   1.083
16575W        W81802   5.725  24.701   1.950
16576W        W81803  23.935  13.603   0.829
16577W        W81804  37.585  12.630   2.665
16578W        W81805   4.768   9.209   2.466
16579W        W81806  25.966  15.626  14.463
16580W        W81807  31.144  31.110   2.152
16581W        W81808   2.088   8.536  12.542
16582W        W81809   3.944  17.399  14.050
16583W        W81810  38.325  38.827  10.719
16584W        W81811  25.612  18.571  13.576
16585W        W81812  24.547   5.192  13.860
16586W        W81813  42.602  25.193   4.727
16587W        W81814  44.787  32.809   0.270
16588W        W81815  42.032  13.629  14.850
16589W        W81816  32.107  44.043   1.724
16590W        W81817  28.115   5.430  13.903
16591W        W81818  30.777  28.630   3.268
16592W        W81819  34.662  37.906  12.610
16593W        W81820  29.600  36.423  12.964
16594W        W81821   1.273  40.909   4.570
16595W        W81822  33.575  19.516   5.145
16596W        W81823  37.960  10.754   3.832
16597W        W81824  30.730   4.756  11.244
16598W        W81825  39.482   2.361   3.569
16599W        W81826   5.628  35.352  12.841
16600W        W81827   4.052  30.503   4.422
16601W        W81828   2.352   3.981   1.716
16602W        W81829  39.071   9.205   0.182
16603W        W81830  39.861  25.197  13.777
16604W        W81831  39.175  17.672   1.419
16605W        W81832   3.856  23.035   0.914
16606W        W81833   1.852  14.726  12.621
16607W        W81834  36.470  12.124   4.706
16608W        W81835  38.862  39.712  10.977
16609W        W81836  13.190   1.692   2.306
16610W        W81837  29.335   6.882   0.919
16611W        W81838   0.135   0.461   2.399
16612W        W81839   5.192  42.584   4.879
16613W        W81840   2.948  34.086   3.116
16614W        W81841  25.045  18.443  10.606
16615W        W81842  35.116  34.658  12.436
16616W        W81843  14.667  25.934   0.271
16617W        W81844  34.450  27.455   3.704
16618W        W81845  44.677   6.657  13.865
16619W        W81846  15.459  34.856  14.347
16620W        W81847  21.219  36.006  10.290
16621W        W81848  39.023  36.102  14.880
16622W        W81849  14.145  26.491  11.950
16623W        W81850   5.694  14.438   5.267
16624W        W81851  14.566  40.853  14.334
16625W        W81852   3.012  37.461  10.642
16626W        W81853   6.359   4.300  13.246
16627W        W81854   7.569  31.832   2.426
16628W        W81855  20.584   2.396  13.375
16629W        W81856  39.352   6.637   4.501
16630W        W81857  33.534   1.327  14.055
16631W        W81858  30.882  35.971   1.119
16632W        W81859  15.307   1.727   4.264
16633W        W81860   8.807   2.766   3.999
16634W        W81861  23.518  25.175   4.075
16635W        W81862   5.399  30.378  11.513
16636W        W81863   4.434  19.759   3.331
16637W        W81864  31.653  42.037   2.407
16638W        W81865   1.775  11.585  14.563
16639W        W81866  43.888  21.030  14.251
16640W        W81867  18.176  17.332   1.905
16641W        W81868  17.591  40.749  12.494
16642W        W81869  10.346   3.474  14.671
16643W        W81870  29.177  44.562   0.092
16644W        W81871  41.305  10.130   3.530
16645W        W81872  38.492  30.516   0.372
16646W        W81873  33.907  41.886   1.637
16647W        W81874  39.146  14.206  10.540
16648W        W81875  19.309  25.973  10.542
16649W        W81876  22.172  19.259  11.263
16650W        W81877  24.561   3.717   1.724
16651W        W81878  28.916  26.936   1.254
16652W        W81879  27.060   4.249   4.028
16653W        W81880  35.649   6.125  14.935
16654W        W81881  26.958  10.831   1.418
16655W        W81882  14.895   2.276   0.372
16656W        W81883  36.169  25.017   5.031
16657W        W81884  44.334  18.155   4.526
16658W        W81885  16.584  40.235  11.184
16659W        W81886   8.904  38.097  11.122
16660W        W81887  32.983  38.378   3.363
16661W        W81888  14.729   5.702   0.339
16662W        W81889  43.239  31.881   2.125
16663W        W81890  24.576  32.939   1.697
16664W        W81891  12.453  36.031   4.526
16665W        W81892  38.997  44.994   4.746
16666W        W81893  34.237  44.748  14.787
16667W        W81894  14.714   6.003   4.402
16668W        W81895   4.311  25.952   2.846
16669W        W81896   7.429  18.975   5.014
16670W        W81897  34.976   7.775   2.325
16671W        W81898  15.277  19.589  11.634
16672W        W81899   9.319  34.324   2.410
16673W        W81900  29.582  20.665  12.948
16674W        W81901   6.808  11.166  12.538
16675W        W81902   2.389   7.769   2.994
16676W        W81903  44.111   6.464   0.038
16677W        W81904  34.778  42.785  12.242
16678W        W81905  30.090  30.103   1.915
16679W        W81906  41.648  33.701  11.941
16680W        W81907   6.333  36.605   1.030
16681W        W81908   3.415  13.064   5.144
16682W        W81909  27.044  28.383   5.124
16683W        W81910  35.234  14.991  12.305
16684W        W81911  28.936   4.194  14.062
16685W        W81912  22.760  32.410   0.810
16686W        W81913  36.786  43.331   4.373
16687W        W81914  44.306   9.404  14.628
16688W        W81915   6.336  32.527  13.941
16689W        W81916  18.987   7.797  12.977
16690W        W81917  40.753  13.301   4.161
16691W        W81918  27.441  12.445   1.905
16692W        W81919  24.090  37.935  13.759
16693W        W81920  26.780  25.478  14.435
16694W        W81921  22.545  29.696  12.674
16695W        W81922  44.954  44.729   1.771
16696W        W81923  16.767  42.031  13.883
16697W        W81924  39.466   7.496  10.314
16698W        W81925  39.656  41.773  12.435
16699W        W81926  39.905  32.680  14.951
16700W        W81927   1.929  40.432  11.841
16701W        W81928  15.306  27.251  12.004
16702W        W81929  16.094  33.203  12.503
16703W        W81930  43.535   4.475  13.780
16704W        W81931  42.344   4.934  14.098
16705W        W81932  25.284  42.896   2.738
16706W        W81933   6.620  17.106  14.292
16707W        W81934  27.386  30.689   0.842
16708W        W81935  20.016  23.240  14.927
16709W        W81936  10.691  12.203   0.935
16710W        W81937   4.716  41.916  13.915
16711W        W81938  20.527  36.570   0.261
16712W        W81939   0.417  14.839  12.918
16713W        W81940  25.674   6.130  12.051
16714W        W81941   0.024  24.956   2.075
16715W        W81942  26.922  42.396  14.397
16716W        W81943  37.165   2.187   2.709
16717W        W81944   6.721  37.159   2.735
16718W        W81945   5.763  23.650   3.733
16719W        W81946  27.349  42.851   0.728
16720W        W81947  37.472   6.708  14.910
16721W        W81948   3.481  18.495   1.238
16722W        W81949  20.901  28.620   0.017
16723W        W81950  40.454  22.553   1.694
16724W        W81951  33.333   4.806  12.591
16725W        W81952   1.218  25.369   5.390
16726W        W81953  23.790  13.804   2.187
16727W        W81954  26.645  15.840   2.701
16728W        W81955   8.709  19.200   3.841
16729W        W81956   4.869  38.852  13.742
16730W        W81957  28.726  15.318   1.647
16731W        W81958  26.394  24.465  10.703
16732W        W81959   7.661  40.915   2.636
16733W        W81960  23.400   5.942   2.485
16734W        W81961  37.705  30.968  14.897
16735W        W81962  27.459   8.128  11.080
16736W        W81963  19.078  37.128  14.845
16737W        W81964  22.659   8.038  12.219
16738W        W81965   3.753  24.161  12.539
16739W        W81966   0.295  35.892  10.674
16740W        W81967  41.909  16.103   0.542
16741W        W81968  34.949  40.071   3.151
16742W        W81969  34.037   4.909  12.029
16743W        W81970  14.132  20.087  13.428
16744W        W81971  44.208  11.789  12.590
16745W        W81972  25.092   4.373   1.148
16746W        W81973   8.736   2.675   0.851
16747W        W81974  25.683  31.987   0.365
16748W        W81975   8.321  30.805  11.404
16749W        W81976   4.861  17.167   0.189
16750W        W81977  33.361  18.672   0.679
16751W        W81978   4.556  39.629  14.903
16752W        W81979  43.447   3.747   4.661
16753W        W81980  20.601   0.581  11.534
16754W        W81981  35.342  42.374   4.192
16755W        W81982   7.111  12.588  11.709
16756W        W81983  21.900  35.063   1.140
16757W        W81984  32.922  12.650   4.558
16758W        W81985  10.191  24.550   0.165
16759W        W81986  14.016   3.346   1.585
16760W        W81987   8.759  17.109  12.570
16761W        W81988  43.329   8.087   5.425
16762W        W81989  13.201  15.090   3.668
16763W        W81990  39.864  20.587  14.785
16764W        W81991  13.231  27.083   2.459
16765W        W81992  36.847  34.757  13.774
16766W        W81993  23.538  40.453   3.784
16767W        W81994  39.510  43.030  10.774
16768W        W81995  32.067  43.589   0.824
16769W        W81996  38.857  21.679  13.425
16770W        W81997  36.134  34.286  14.036
16771W        W81998  18.642  41.303  13.365
16772W        W81999  43.751  21.009  12.888
16773W        W82000  22.732  31.083  12.904
16774W        W82001  34.414   4.920   1.692
16775W        W82002   9.974  29.997   3.219
16776W        W82003  37.471   6.813  12.921
16777W        W82004   6.637  26.762   9.960
16778W        W82005  32.394   2.352  12.028
16779W        W82006  11.337  41.252  11.923
16780W        W82007  36.991  14.887  14.140
16781W        W82008   3.418  29.468  12.018
16782W        W82009  19.602   3.830  12.584
16783W        W82010   0.112  44.937   3.658
16784W        W82011   0.429  14.821  10.712
16785W        W82012  32.156   2.203   0.480
16786W        W82013   9.715  23.621   2.306
16787W        W82014   8.726  13.866   3.171
16788W        W82015   5.051  32.237  14.480
16789W        W82016  16.085  19.034   3.396
16790W        W82017   5.939   6.031  11.237
16791W        W82018  44.350  28.053   3.672
16792W        W82019  19.254  36.487   3.272
16793W        W82020  16.561  21.592  10.642
16794W        W82021  24.766  30.690  10.976
16795W        W82022   9.712  10.120   3.406
16796W        W82023   7.277  19.294   2.217
16797W        W82024  43.307  37.605  13.440
16798W        W82025  41.450  34.976   3.428
16799W        W82026   1.258  23.208  11.207
16800W        W82027   5.992  42.795   4.688
16801W        W82028  10.493  42.839  13.050
16802W        W82029  42.109   8.319  12.964
16803W        W82030  18.723  24.020   1.394
16804W        W82031  21.795  16.395   1.800
16805W        W82032  19.056   2.682   1.505
16806W        W82033   9.424  20.071   2.632
16807W        W82034  39.834   0.803   0.682
16808W        W82035   7.879  38.823   3.164
16809W        W82036  20.091  27.573  14.189
16810W        W82037   6.644  28.600   3.434
16811W        W82038  14.351  10.226  10.393
16812W        W82039  24.162  40.708   3.992
16813W        W82040  36.053  41.866  14.340
16814W        W82041  19.376  41.043   1.376
16815W        W82042  25.418   6.719   4.459
16816W        W82043  44.445   7.083  11.356
16817W        W82044  33.107  36.529   3.093
16818W        W82045  44.143  12.358   4.480
16819W        W82046   6.689  17.157   0.098
16820W        W82047  38.957  41.917   4.431
16821W        W82048  26.507   7.187   0.468
16822W        W82049   4.003  11.885   3.393
16823W        W82050  44.926  32.021  12.007
16824W        W82051  25.741  29.060   3.675
16825W        W82052  39.934   3.782   4.077
16826W        W82053  16.288  31.691  10.633
16827W        W82054   5.725  39.345  13.032
16828W        W82055  19.044  36.120   0.024
16829W        W82056  36.126  16.841  11.197
16830W        W82057   3.678  32.549   1.404
16831W        W82058   9.458   3.088   3.989
16832W        W82059   3.416  41.065  13.845
16833W        W82060  43.796  11.657  14.466
16834W        W82061   6.443  23.196  13.490
16835W        W82062  27.914  42.289  13.449
16836W        W82063  26.972  43.229   2.369
16837W        W82064  31.663   4.854  14.397
16838W        W82065   3.259  12.330   3.340
16839W        W82066  16.181  32.486   5.107
16840W        W82067  25.488  35.787  11.582
16841W        W82068   4.109  42.499   4.011
16842W        W82069  29.081  11.677   2.156
16843W        W82070   1.465  15.339   1.312
16844W        W82071  40.756  38.056  13.845
16845W        W82072  11.865  14.155   0.316
16846W        W82073   1.946  42.198   4.173
16847W        W82074  20.292  37.972  11.963
16848W        W82075   5.845   4.247  14.962
16849W        W82076  24.950  18.109  13.290
16850W        W82077  35.872   8.761  11.977
16851W        W82078  12.137  20.259   1.618
16852W        W82079   4.180  24.276   2.760
16853W        W82080  10.704  31.036  14.511
16854W        W82081  35.690   0.590   0.531
16855W        W82082   7.380   1.430  13.987
16856W        W82083  26.498  36.540   1.780
16857W        W82084  43.956  36.835  11.585
16858W        W82085  29.454  11.453   3.510
16859W        W82086  18.278  25.940  14.847
16860W        W82087   4.203  29.554  12.499
16861W        W82088  19.907  16.037  12.982
16862W        W82089  37.402  39.449  12.091
16863W        W82090  29.209  27.813   5.377
16864W        W82091  26.385  31.481   3.704
16865W        W82092  20.212  20.606   3.395
16866W        W82093  23.476  27.869  11.954
16867W        W82094   6.216   0.322   1.438
16868W        W82095  26.042  13.199   3.426
16869W        W82096  37.938  33.060  12.520
16870W        W82097  36.129  36.918  14.856
16871W        W82098  36.336  16.862   2.363
16872W        W82099  20.147   1.784  10.654
16873W        W82100  35.428  22.629  12.612
16874W        W82101  28.198  41.233   4.649
16875W        W82102  43.456  13.032   2.398
16876W        W82103   2.657  39.487   3.559
16877W        W82104  14.843   2.046  10.418
16878W        W82105   1.737  12.033  13.120
16879W        W82106  15.405  30.551   2.823
16880W        W82107  14.545  28.058  14.841
16881W        W82108   5.731   7.799  13.912
16882W        W82109   3.757  12.263   0.943
16883W        W82110  12.773   6.722   0.832
16884W        W82111  20.236  36.114   4.565
16885W        W82112   7.462   5.611   3.615
16886W        W82113  39.821  32.946  13.149
16887W        W82114  43.939  40.351   2.898
16888W        W82115  41.079  11.123   2.839
16889W        W82116  10.819  13.328   4.541
16890W        W82117  35.523  28.015   4.298
16891W        W82118  30.888  15.206  12.108
16892W        W82119  36.859  44.344  14.836
16893W        W82120  43.949  36.472  13.430
16894W        W82121  34.903  32.334  14.958
16895W        W82122  35.073  12.774   3.561
16896W        W82123  13.643   0.550  14.495
16897W        W82124  36.068  25.851  11.190
16898W        W82125  24.733  41.108   2.888
16899W        W82126  20.175  39.866   1.306
16900W        W82127  24.040  28.198   2.359
16901W        W82128  34.032  40.348  12.563
16902W        W82129   0.409  31.796  14.217
16903W        W82130  21.386  14.215   4.336
16904W        W82131   5.628  41.821   4.557
16905W        W82132  11.635   4.941   4.477
16906W        W82133  31.041  17.527   0.823
16907W        W82134  40.818  24.563   3.151
16908W        W82135  10.404  33.710  10.250
16909W        W82136  29.210  41.896  14.872
16910W        W82137  26.657  37.343   3.320
16911W        W82138  41.078  31.308   2.849
16912W        W82139  28.417  24.982  12.474
16913W        W82140  27.978  40.380   2.288
16914W        W82141  23.595  30.021   4.477
16915W        W82142  17.556  27.962   0.385
16916W        W82143   6.235  12.285  14.405
16917W        W82144  30.034   3.206   0.924
16918W        W82145  18.281  19.130  12.841
16919W        W82146  11.172  34.401   2.048
16920W        W82147   2.982  34.566  11.525
16921W        W82148  39.858  12.266  11.094
16922W        W82149   7.499   7.445  10.587
16923W        W82150  22.537   3.262   0.231
16924W        W82151  20.374  26.582  12.185
16925W        W82152   3.318   0.835  12.791
16926W        W82153  40.789  12.281   0.458
16927W        W82154  28.544  35.913  14.977
16928W        W82155  39.907  22.269   3.995
16929W        W82156   6.284   9.956  14.701
16930W        W82157  29.337  36.596   2.790
16931W        W82158  19.355  41.064   0.426
16932W        W82159  33.399   7.312   4.543
16933W        W82160  25.234  41.634  11.678
16934W        W82161  12.828  13.576   0.399
16935W        W82162  43.913  13.665  14.341
16936W        W82163  43.937  18.278   1.338
16937W        W82164  30.545  40.727   4.118
16938W        W82165   9.364  43.724   1.298
16939W        W82166   5.172  10.978   1.987
16940W        W82167  18.963  12.370   2.337
16941W        W82168  34.811  25.155  14.710
16942W        W82169  28.895   0.995  13.053
16943W        W82170  28.462  41.941   2.702
16944W        W82171   6.252  42.961   3.827
16945W        W82172   7.651  43.330   2.674
16946W        W82173   0.895  32.559   2.370
16947W        W82174  11.473   7.612  13.853
16948W        W82175   8.916  39.216   4.555
16949W        W82176  27.566  25.140   0.355
16950W        W82177  19.810  10.783   2.546
16951W        W82178  25.472  30.606   2.724
16952W        W82179  42.596  17.394  12.047
16953W        W82180  15.159  35.076   4.472
16954W        W82181  30.232  39.370  11.428
16955W        W82182  27.995  34.697  12.459
16956W        W82183  23.735  28.199  11.617
16957W        W82184  11.135  39.620   4.075
16958W        W82185  41.106  15.172   4.327
16959W        W82186  35.308  35.527  11.596
16960W        W82187  26.619  10.837   3.214
16961W        W82188  29.225  21.963   3.278
16962W        W82189  17.694  14.350  10.385
16963W        W82190  16.839  42.493   4.124
16964W        W82191  21.308  14.042   1.358
16965W        W82192  26.272  16.774   3.282
16966W        W82193  28.080  42.822   3.499
16967W        W82194  37.134  12.673   4.229
16968W        W82195   3.385   8.846   1.843
16969W        W82196  33.548  40.532  12.518
16970W        W82197  38.207  16.621   3.099
16971W        W82198  27.941  35.713  13.437
16972W        W82199  42.797  38.746   4.172
16973W        W82200   2.189  36.486   1.455
16974W        W82201  19.719  22.541   2.875
16975W        W82202  17.975  23.017   2.333
16976W        W82203   2.678  19.661  14.574
16977W        W82204   1.890   4.900   0.287
16978W        W82205  21.133  14.742   2.060
16979W        W82206   7.444  26.877   0.482
16980W        W82207  20.614  43.903   1.829
16981W        W82208  29.420   5.900   2.841
16982W        W82209  33.468  37.429  13.543
16983W        W82210   2.528  35.094  12.153
16984W        W82211  30.605  38.457  14.922
16985W        W82212  14.941  32.900   9.778
16986W        W82213  20.750  34.382  14.919
16987W        W82214  11.118  36.897   2.164
16988W        W82215  10.910   4.590  14.514
16989W        W82216  19.039  26.534   0.488
16990W        W82217  14.741  28.413   3.597
16991W        W82218  23.265  37.014   3.719
16992W        W82219  20.230   1.776  13.905
16993W        W82220   8.847  35.777  11.564
16994W        W82221   2.849  26.022  14.511
16995W        W82222  22.030  19.004   3.767
16996W        W82223   0.549  44.423  14.821
16997W        W82224  30.019   0.623  11.853
16998W        W82225   2.348   7.340  12.971
16999W        W82226  33.638  20.987   1.424
17000W        W82227  35.157  37.512   1.713
17001W        W82228  44.515   7.551  11.182
17002W        W82229  34.045  21.927   1.414
17003W        W82230   1.240   7.582  11.546
17004W        W82231  15.308  41.439  11.559
17005W        W82232  23.583  29.529   4.086
17006W        W82233  35.020   4.764   2.590
17007W        W82234  14.609  25.247   1.776
17008W        W82235   8.361  14.909  14.687
17009W        W82236  26.728  36.695   0.908
17010W        W82237  38.782   0.072   2.898
17011W        W82238  36.179  15.882   0.397
17012W        W82239  19.487  19.196  14.358
17013W        W82240  40.322  42.127  13.501
17014W        W82241  13.269  17.741  14.962
17015W        W82242   0.063  38.493   1.563
17016W        W82243  43.666   7.799   4.249
17017W        W82244  39.903  40.605   1.692
17018W        W82245   4.810  10.214   3.383
17019W        W82246  36.511  17.148  12.462
17020W        W82247  27.101  40.851   1.136
17021W        W82248  34.190  33.628   1.946
17022W        W82249  33.375  33.931  11.170
17023W        W82250  32.494  10.253   4.897
17024W        W82251  33.528   8.397  13.080
17025W        W82252  19.227  17.119  11.529
17026W        W82253  19.655  44.294   0.473
17027W        W82254  31.601  41.919   0.488
17028W        W82255  34.562  41.112  13.484
17029W        W82256  38.224   9.375  11.260
17030W        W82257   0.289  35.614   2.557
17031W        W82258  38.932  28.991   4.166
17032W        W82259  40.959  37.035  12.388
17033W        W82260  23.295  35.665  11.130
17034W        W82261  37.824   2.989  11.156
17035W        W82262  32.997  44.558   4.702
17036W        W82263  16.300   8.686   1.950
17037W        W82264  23.918  18.231  13.523
17038W        W82265  25.447  23.565   4.109
17039W        W82266  35.994  39.000  14.427
17040W        W82267  26.579  29.007  10.094
17041W        W82268  23.114  21.594  10.472
17042W        W82269  16.126   2.328  14.479
17043W        W82270   7.689  31.860   3.806
17044W        W82271  16.613  30.048   4.495
17045W        W82272  14.022  27.960   0.746
17046W        W82273  13.631  20.061   0.022
17047W        W82274  18.519  37.062  12.952
17048W        W82275  42.668  32.688   3.270
17049W        W82276  34.647  15.291  10.300
17050W        W82277   1.002  34.801   0.330
17051W        W82278  33.178  23.444   2.298
17052W        W82279  32.074  10.479   2.141
17053W        W82280   6.366   5.650  11.944
17054W        W82281  23.666  29.211   0.899
17055W        W82282  35.805   1.424  14.883
17056W        W82283   6.772  26.649   2.384
17057W        W82284   7.657  37.701  11.638
17058W        W82285  10.145  16.718   3.554
17059W        W82286  37.887   0.955   1.422
17060W        W82287   0.945   0.155  14.216
17061W        W82288  34.401  17.809  12.950
17062W        W82289  22.663  33.375  11.188
17063W        W82290   6.043   2.067   1.373
17064W        W82291  31.017  38.371   1.269
17065W        W82292  28.196   4.806   3.695
17066W        W82293  30.070   2.837   2.278
17067W        W82294  36.375  31.463  13.962
17068W        W82295   2.284  34.841   3.702
17069W        W82296  18.356  37.862   3.736
17070W        W82297  40.896  39.865   1.426
17071W        W82298  41.353  19.464  14.320
17072W        W82299  14.833  33.169  14.010
17073W        W82300   3.762  34.644   4.431
17074W        W82301   2.169  41.059   0.281
17075W        W82302   3.899  28.257  14.902
17076W        W82303   3.873  18.487  13.081
17077W        W82304   6.910  35.979   3.622
17078W        W82305  29.361  40.282   3.916
17079W        W82306   9.503  24.926  10.289
17080W        W82307   0.347  13.175  13.002
17081W        W82308  17.105   3.780  10.815
17082W        W82309  43.392  42.257   4.419
17083W        W82310  15.731   3.579   1.021
17084W        W82311  44.995   4.887  11.158
17085W        W82312   2.386   2.523   1.277
17086W        W82313  15.649  32.579   5.468
17087W        W82314  34.007  36.580  13.384
17088W        W82315  22.275  30.809  11.131
17089W        W82316  11.893  44.422  14.100
17090W        W82317  23.816  38.866  14.508
17091W        W82318  16.001  39.025   1.571
17092W        W82319  20.606  28.423  11.534
17093W        W82320   0.992   5.739  11.709
17094W        W82321  36.485  17.844   1.224
17095W        W82322   0.017  36.938   4.349
17096W        W82323   2.560  33.595  14.504
17097W        W82324  28.001  12.828   2.835
17098W        W82325  24.652  18.959   4.162
17099W        W82326  23.906  44.821   0.365
17100W        W82327  32.050   0.884   1.827
17101W        W82328  43.825  35.614  14.419
17102W        W82329   4.168   0.957   2.244
17103W        W82330  44.924  32.726   3.726
17104W        W82331  38.507  32.103   2.346
17105W        W82332  40.361  37.474   2.030
17106W        W82333  20.812   2.861  12.449
17107W        W82334  17.728   9.647   2.657
17108W        W82335   4.181  34.721   4.789
17109W        W82336  37.535  23.143   1.351
17110W        W82337  28.014  17.451   2.787
17111W        W82338  39.465  32.079   0.192
17112W        W82339  18.525  29.733  13.427
17113W        W82340  34.043  14.483  13.900
17114W        W82341  32.511  16.006   1.241
17115W        W82342  30.097  17.494   3.607
17116W        W82343   9.376  19.066  14.847
17117W        W82344  25.478   4.732   0.354
17118W        W82345   8.316  22.363  12.913
17119W        W82346   1.915  42.485   2.804
17120W        W82347  22.555  12.593  12.617
17121W        W82348  13.997   0.184  14.463
17122W        W82349  41.750   1.908  11.845
17123W        W82350  14.193  19.981  14.193
17124W        W82351  22.533  16.251   3.315
17125W        W82352  41.827   6.261   2.802
17126W        W82353  23.270  12.204   3.571
17127W        W82354   4.857  18.021  12.829
17128W        W82355   9.611  28.048   3.061
17129W        W82356  18.174  25.836  13.430
17130W        W82357  43.430   1.769  13.009
17131W        W82358  19.449   8.820  11.892
17132W        W82359  34.025  23.278   0.401
17133W        W82360  28.141   8.219  11.036
17134W        W82361  23.929  10.354   0.798
17135W        W82362   1.786  23.652  13.629
17136W        W82363   4.799  37.960  10.185
17137W        W82364  31.922  20.883  10.746
17138W        W82365   8.085  36.560  13.354
17139W        W82366  31.024  27.576   4.347
17140W        W82367  22.667  30.529   2.549
17141W        W82368  30.442  12.114   5.474
17142W        W82369  38.938   0.535   3.117
17143W        W82370  35.217  34.182   0.233
17144W        W82371  36.993   7.327   3.276
17145W        W82372  26.427  12.589  12.431
17146W        W82373  18.425  27.232  13.485
17147W        W82374  15.894  42.527   2.311
17148W        W82375  18.189  22.553  14.294
17149W        W82376  22.165  24.970   0.820
17150W        W82377   4.391  23.502  13.383
17151W        W82378  23.220  31.952   2.389
17152W        W82379  11.642  43.044   2.310
17153W        W82380   1.420  37.173   9.988
17154W        W82381  13.887  29.152  12.929
17155W        W82382  14.026  35.232   0.337
17156W        W82383  19.103  21.553  12.963
17157W        W82384   2.817  39.454  12.920
17158W        W82385   8.624  35.550  13.031
17159W        W82386  44.439  10.770   1.189
17160W        W82387  27.170  43.216   1.473
17161W        W82388  42.821   3.929   3.730
17162W        W82389  33.293  25.075   0.327
17163W        W82390   6.500  36.284   3.982
17164W        W82391   4.655  28.101  11.922
17165W        W82392  27.706  38.923   1.814
17166W        W82393  41.737  12.746  12.792
17167W        W82394  32.739  14.320   2.454
17168W        W82395  18.617  21.312  12.899
17169W        W82396  18.677  24.143  11.180
17170W        W82397  21.630  37.629   4.230
17171W        W82398   7.614  13.683   0.437
17172W        W82399   4.857  23.136  14.492
17173W        W82400   9.925  16.761   4.086
17174W        W82401  44.633  28.097   4.118
17175W        W82402  27.956  10.857  10.747
17176W        W82403   6.718  29.529   0.214
17177W        W82404  37.437  17.521  12.904
17178W        W82405  27.437  43.300   3.701
17179W        W82406  13.519   3.401  10.754
17180W        W82407  13.937  29.196  11.885
17181W        W82408  10.241  18.420  12.412
17182W        W82409  29.395  21.206   4.089
17183W        W82410  43.989  12.249  12.413
17184W        W82411  18.238  38.278   2.869
17185W        W82412  16.164  27.132   0.326
17186W        W82413   6.128  37.522   9.971
17187W        W82414  28.039  11.072   1.608
17188W        W82415  44.756  20.907   1.355
17189W        W82416  21.752  13.275   0.961
17190W        W82417  16.294  41.015   3.841
17191W        W82418  22.718   5.382  11.246
17192W        W82419  21.514  12.960  11.322
17193W        W82420   0.986   1.391  12.378
17194W        W82421  10.575  30.355   4.049
17195W        W82422  21.465   9.945   0.401
17196W        W82423  37.980   7.219  13.389
17197W        W82424  20.044   5.903  11.704
17198W        W82425  36.272  17.887  13.981
17199W        W82426  43.459   2.250   4.219
17200W        W82427  32.881   1.733  11.065
17201W        W82428   9.580  19.094   0.330
17202W        W82429   3.725  23.609  13.944
17203W        W82430   8.915  17.942   3.204
17204W        W82431  33.331  44.443   3.273
17205W        W82432  40.024  11.388  10.912
17206W        W82433  15.743   0.015  11.643
17207W        W82434  11.300  17.889  10.438
17208W        W82435  10.193  37.636   4.587
17209W        W82436   4.958   3.148  13.044
17210W        W82437  17.565  44.334   4.641
17211W        W82438  19.167  25.146  13.052
17212W        W82439  29.392   2.183   0.234
17213W        W82440  17.447  38.799   1.368
17214W        W82441  40.665  42.358   3.760
17215W        W82442  11.873  32.543  11.998
17216W        W82443  12.581  34.672   2.289
17217W        W82444  12.662  22.244   1.857
17218W        W82445   9.301   9.440   4.666
17219W        W82446  12.672  40.510   1.843
17220W        W82447  39.314  44.060   0.428
17221W        W82448  37.061  39.332  12.481
17222W        W82449  20.315  17.784  11.539
17223W        W82450  23.652  32.150  14.377
17224W        W82451  42.379  29.377  13.080
17225W        W82452  30.884   1.695  14.471
17226W        W82453  13.471  43.742  14.890
17227W        W82454  44.480   5.868   1.951
17228W        W82455  41.337  27.465  14.507
17229W        W82456  27.534  41.143  14.429
17230W        W82457  40.009  12.771  10.371
17231W        W82458  15.335  28.061  11.134
17232W        W82459  27.074  40.372   1.300
17233W        W82460  40.419  20.744  12.660
17234W        W82461  31.426  21.274  12.508
17235W        W82462  26.614  17.577   4.024
17236W        W82463  22.737  31.879   0.903
17237W        W82464   7.857  31.089  12.565
17238W        W82465  17.338  34.454  11.770
17239W        W82466  22.445  23.083  11.168
17240W        W82467  42.178  19.754  14.919
17241W        W82468  16.243  32.047  14.670
17242W        W82469  22.742  34.423   3.275
17243W        W82470   8.869  31.593  11.213
17244W        W82471   6.130  19.229   3.536
17245W        W82472  11.423  29.170  12.980
17246W        W82473  42.704  43.261   2.284
17247W        W82474  37.205   8.649  13.382
17248W        W82475  28.667   8.085  11.061
17249W        W82476  41.610  40.437  11.703
17250W        W82477   4.208  18.656  12.730
17251W        W82478  33.231  44.901  10.482
17252W        W82479  30.646   5.909   3.357
17253W        W82480  27.772  13.154   0.795
17254W        W82481  21.245  38.730   3.644
17255W        W82482  18.466  34.858  10.285
17256W        W82483  24.585  29.130   0.863
17257W        W82484  20.711   7.982   1.217
17258W        W82485  41.148  36.951  14.481
17259W        W82486  31.662   9.850   2.680
17260W        W82487  39.599  33.012   1.642
17261W        W82488  20.282  30.813  12.058
17262W        W82489  10.575  29.031   3.256
17263W        W82490  31.183  12.302  12.531
17264W        W82491  23.605  11.399  12.936
17265W        W82492  12.205  37.057   3.282
17266W        W82493  38.927   9.143   3.645
17267W        W82494   0.374   6.873  11.430
17268W        W82495   2.763  34.334   2.283
17269W        W82496  44.957  14.826  14.331
17270W        W82497  24.726  24.220   2.230
17271W        W82498  24.232  42.792   0.899
17272W        W82499  16.222   2.006   2.706
17273W        W82500  26.354  20.056  13.607
17274W        W82501  39.411  35.082   1.394
17275W        W82502  26.053  26.156   4.596
17276W        W82503   1.295   4.956  12.615
17277W        W82504  40.596  41.517   0.840
17278W        W82505   6.577  34.902  12.466
17279W        W82506  18.822   6.845  14.872
17280W        W82507  29.909  18.628  11.440
17281W        W82508  25.521  23.772   0.956
17282W        W82509  40.049  25.679  13.611
17283W        W82510   0.172  23.914  14.776
17284W        W82511  34.892  39.168   2.191
17285W        W82512  17.685  24.888  14.313
17286W        W82513   5.388  14.935   2.659
17287W        W82514  19.056  41.497  11.191
17288W        W82515  20.706  44.045  11.529
17289W        W82516   7.943  21.131  12.572
17290W        W82517  10.082   5.710  11.233
17291W        W82518  40.240   7.860   4.643
17292W        W82519  20.676  44.937  12.339
17293W        W82520  29.068  23.565  14.968
17294W        W82521  11.624   7.780   1.882
17295W        W82522   3.490  26.996  11.587
17296W        W82523  14.090  34.149  13.210
17297W        W82524   8.480   6.452  12.324
17298W        W82525   0.841  43.805  13.819
17299W        W82526  36.916   0.737   1.834
17300W        W82527  11.950   2.162   0.792
17301W        W82528  42.000   2.862   0.922
17302W        W82529   0.971  10.655   3.100
17303W        W82530  38.443  18.327  12.526
17304W        W82531  21.592  38.261   0.025
17305W        W82532  21.643  20.210   2.705
17306W        W82533  32.463  16.121   3.366
17307W        W82534  38.291  12.189   2.047
17308W        W82535  28.610  32.015  10.536
17309W        W82536  29.668  23.188   2.114
17310W        W82537  39.975  24.250  10.434
17311W        W82538  38.483  24.716  14.744
17312W        W82539  11.667  19.292  11.205
17313W        W82540   3.553   4.359  13.816
17314W        W82541  21.674  28.267   9.872
17315W        W82542  23.752   1.154   0.497
17316W        W82543  28.605   1.168   2.251
17317W        W82544  28.084  35.915   3.603
17318W        W82545  10.502   0.679   4.584
17319W        W82546  23.622  38.750  10.686
17320W        W82547   2.051  31.542   1.759
17321W        W82548  10.718  29.176   0.015
17322W        W82549  28.809  44.926   1.731
17323W        W82550  43.621   9.912  12.395
17324W        W82551  29.121  18.217   4.844
17325W        W82552  31.156   9.833   2.775
17326W        W82553  35.820   9.426   4.685
17327W        W82554   9.422  30.506  11.995
17328W        W82555   9.745  30.703  14.817
17329W        W82556  39.724  14.352   0.936
17330W        W82557  14.748   9.169   0.285
17331W        W82558  30.279  24.058  12.161
17332W        W82559  23.164  16.775   3.308
17333W        W82560   0.358  10.599   4.091
17334W        W82561   4.740  25.983   0.392
17335W        W82562  24.011  44.986  13.647
17336W        W82563   4.817  21.180   4.249
17337W        W82564  15.733  19.623   3.449
17338W        W82565  36.655   0.542  13.120
17339W        W82566   4.757  18.948  11.502
17340W        W82567  30.177   7.871  12.286
17341W        W82568   1.464  33.727  11.581
17342W        W82569  42.380  19.747  12.260
17343W        W82570   6.484  40.779  11.478
17344W        W82571  11.999   2.495   4.535
17345W        W82572  27.817  14.507  14.712
17346W        W82573  15.177   9.452  13.128
17347W        W82574  22.041  10.657  13.193
17348W        W82575  18.735  40.063   4.229
17349W        W82576  43.487  35.344  12.573
17350W        W82577   7.831   7.274   9.605
17351W        W82578   2.021  28.662   3.173
17352W        W82579  29.072   7.143   3.268
17353W        W82580  32.490  42.981  13.340
17354W        W82581  24.227   1.928   3.646
17355W        W82582   2.729  16.449  11.466
17356W        W82583  17.513  38.467   4.535
17357W        W82584  39.747  32.540  10.832
17358W        W82585  42.515  28.304   3.911
17359W        W82586   6.784  28.074   4.305
17360W        W82587  12.012  38.110  12.814
17361W        W82588  39.356  27.907   0.003
17362W        W82589  30.347  23.170  14.915
17363W        W82590   2.796  12.334  11.206
17364W        W82591  38.774   6.405   2.278
17365W        W82592  41.270  15.111  10.616
17366W        W82593  27.251  37.535   4.195
17367W        W82594  23.764  33.109  14.404
17368W        W82595  32.458  10.608   4.011
17369W        W82596  37.703  21.275   1.352
17370W        W82597   8.252  11.917   3.553
17371W        W82598   0.259  29.672   2.180
17372W        W82599   2.907  44.582   4.538
17373W        W82600  37.047  26.676  14.806
17374W        W82601  41.871   8.309   1.716
17375W        W82602  35.004  29.632   0.076
17376W        W82603  27.941  16.934   2.807
17377W        W82604  12.642  14.175  12.783
17378W        W82605  40.218   8.660   5.106
17379W        W82606  40.212   0.983  10.747
17380W        W82607  29.399  24.985  13.881
17381W        W82608   0.848  13.492  13.719
17382W        W82609  21.177   6.190   3.293
17383W        W82610  41.302   2.321   2.442
17384W        W82611  28.619  19.811  12.017
17385W        W82612  15.571  17.221   2.311
17386W        W82613  44.735  11.242  12.409
17387W        W82614  33.594   1.903  11.566
17388W        W82615  21.670   9.183  12.384
17389W        W82616   6.967  10.785  13.466
17390W        W82617   3.648  28.671   0.663
17391W        W82618  19.008  34.102   3.057
17392W        W82619  18.976  25.043   1.923
17393W        W82620  36.729   1.140   2.173
17394W        W82621  16.185  19.614  11.231
17395W        W82622  31.425   0.798   0.395
17396W        W82623  24.643   7.184   1.274
17397W        W82624  42.777  33.576   0.222
17398W        W82625  14.803  23.064   2.218
17399W        W82626   5.008  31.286  13.016
17400W        W82627  26.517   9.780   3.195
17401W        W82628  18.260   9.581  14.899
17402W        W82629   8.425  12.254  10.691
17403W        W82630  27.105   4.590   3.024
17404W        W82631   0.060  24.081  11.483
17405W        W82632  21.711  39.588  13.360
17406W        W82633  15.286   1.408  10.764
17407W        W82634  20.580  17.293  10.665
17408W        W82635  27.416  27.098  12.394
17409W        W82636  29.205  18.402  14.014
17410W        W82637  11.346  29.698  11.241
17411W        W82638  31.136   3.908  11.721
17412W        W82639  19.184   3.438  11.116
17413W        W82640  31.356   4.099  12.163
17414W        W82641  32.033  41.755   4.037
17415W        W82642  31.068  11.632   1.145
17416W        W82643  29.949   1.871   4.512
17417W        W82644  40.836  37.950  12.457
17418W        W82645  10.178   4.958   3.759
17419W        W82646  37.648  21.199  14.392
17420W        W82647  27.810  31.436  10.491
17421W        W82648  11.873   2.042  12.492
17422W        W82649  40.239  24.639   1.297
17423W        W82650  41.886   3.998   4.074
17424W        W82651  27.641  43.006   0.287
17425W        W82652  44.374   4.935  11.486
17426W        W82653  37.267   5.060  10.351
17427W        W82654   6.293  37.066  14.312
17428W        W82655  32.632   7.513  11.955
17429W        W82656   3.491  12.216  13.611
17430W        W82657  21.901  28.554  11.839
17431W        W82658  35.956   9.341  12.927
17432W        W82659  28.716  34.499  10.431
17433W        W82660  36.313  40.002  13.672
17434W        W82661  13.244  44.366   2.274
17435W        W82662  21.725  10.980  14.485
17436W        W82663  33.963  18.544  11.663
17437W        W82664  26.601  26.077   1.887
17438W        W82665  26.705  34.881   2.338
17439W        W82666  21.823   6.364  10.663
17440W        W82667   8.449   2.523  14.529
17441W        W82668  17.617  22.249  13.537
17442W        W82669  13.972   2.739  14.616
17443W        W82670  26.972  15.932  11.635
17444W        W82671   5.261   7.140   0.062
17445W        W82672  11.266  26.399   1.020
17446W        W82673   2.087  40.051  10.158
17447W        W82674  40.794  25.985   4.838
17448W        W82675  13.136   0.393   2.712
17449W        W82676  16.026   9.806   0.447
17450W        W82677  27.133  35.567   2.214
17451W        W82678  43.550  18.478   3.360
17452W        W82679   0.269  43.085   2.627
17453W        W82680  29.514   1.298  13.359
17454W        W82681   3.583  18.577  10.477
17455W        W82682   2.274  16.981   4.159
17456W        W82683   3.705  22.757   2.853
17457W        W82684   9.367  25.714  14.351
17458W        W82685  44.859  35.142  14.558
17459W        W82686  14.343  35.349  11.144
17460W        W82687   6.323  40.717   2.928
17461W        W82688   4.670  38.235  11.956
17462W        W82689   9.975  27.708  13.546
17463W        W82690  36.975   5.495   1.208
17464W        W82691  31.437  19.496   3.150
17465W        W82692  25.685  11.550  11.766
17466W        W82693  17.190  16.193  12.983
17467W        W82694  14.290  31.661  11.142
17468W        W82695  39.883   9.450  10.699
17469W        W82696  38.530   0.438   0.754
17470W        W82697   4.733   0.843  11.717
17471W        W82698  22.326   2.753  14.344
17472W        W82699  38.414  13.995   4.917
17473W        W82700   9.566   1.349  12.975
17474W        W82701  11.778  14.529   1.405
17475W        W82702  26.638  28.530   1.233
17476W        W82703  26.653  26.132   4.276
17477W        W82704  34.525  28.132  14.842
17478W        W82705   5.613   9.616   2.687
17479W        W82706  40.402  25.142   1.317
17480W        W82707   6.800  31.514  14.488
17481W        W82708   1.359   1.887  13.541
17482W        W82709  37.689  44.372   4.134
17483W        W82710  15.339  44.877   3.182
17484W        W82711  31.815  10.705  11.662
17485W        W82712   0.427   3.219   4.878
17486W        W82713  21.443  19.625  12.724
17487W        W82714   4.900  11.192   4.248
17488W        W82715   8.240   7.444  13.533
17489W        W82716   6.379  22.314   4.851
17490W        W82717  12.465  16.561   4.296
17491W        W82718   7.129   9.453  10.993
17492W        W82719  33.618  38.826   1.809
17493W        W82720  40.385  25.814   3.637
17494W        W82721  12.269  41.081  13.117
17495W        W82722  42.334   3.776  13.605
17496W        W82723  33.960  28.563   3.741
17497W        W82724  32.397  30.394  11.561
17498W        W82725   6.272  11.808  11.976
17499W        W82726   9.850   2.467   2.168
17500W        W82727  31.683   8.468   3.864
17501W        W82728  34.039  27.708  14.877
17502W        W82729  12.703   4.407   3.369
17503W        W82730  22.159  13.536   3.039
17504W        W82731  31.435  42.723   1.727
17505W        W82732   1.496  33.394   4.335
17506W        W82733  17.354   6.659  12.486
17507W        W82734  12.293  20.981   2.270
17508W        W82735  32.747  12.701  13.380
17509W        W82736  37.536  26.120   3.263
17510W        W82737  19.653   0.906   9.689
17511W        W82738  36.472  31.141  14.382
17512W        W82739   0.688  13.939  13.468
17513W        W82740  32.082  38.529  13.781
17514W        W82741  42.258  31.893   0.452
17515W        W82742  43.946  29.568  13.422
17516W        W82743  11.860  10.167  11.234
17517W        W82744  34.801  23.262   4.576
17518W        W82745  39.506   7.886   3.912
17519W        W82746   7.873   6.418  11.736
17520W        W82747  25.470  25.085  14.412
17521W        W82748  40.905  18.053  14.340
17522W        W82749   3.639  33.220   4.422
17523W        W82750  44.180  38.465  11.181
17524W        W82751  34.989   8.111  10.985
17525W        W82752  20.048   0.438   3.136
17526W        W82753   1.821  31.013   3.590
17527W        W82754  37.813  30.589   2.659
17528W        W82755  16.542  43.053   1.011
17529W        W82756  39.378  24.898   4.099
17530W        W82757  41.063  10.272  13.110
17531W        W82758  32.333  25.976   4.383
17532W        W82759  19.957  38.988   1.793
17533W        W82760   4.687  20.753   0.782
17534W        W82761  11.491   2.578  14.028
17535W        W82762  18.295  37.138   0.337
17536W        W82763  28.470  19.629   1.165
17537W        W82764  37.027  40.386   2.571
17538W        W82765  21.246  10.094   4.094
17539W        W82766  16.594  18.736  12.185
17540W        W82767  22.566  33.447   4.701
17541W        W82768  15.985  33.814  11.111
17542W        W82769  32.526  40.312   0.927
17543W        W82770  27.916  29.121   4.132
17544W        W82771   2.905  20.107  14.865
17545W        W82772   9.541  30.947  11.729
17546W        W82773  38.810  43.937   0.389
17547W        W82774  18.351  12.724  11.690
17548W        W82775  32.988   3.755  14.918
17549W        W82776  13.783  42.039  11.060
17550W        W82777  39.064  14.755   2.338
17551W        W82778  29.438   9.629  14.775
17552W        W82779  28.873  44.856   0.914
17553W        W82780  20.741  41.444   1.863
17554W        W82781  37.962  30.379  11.101
17555W        W82782  30.410  39.560  12.965
17556W        W82783  36.501  37.923  11.954
17557W        W82784  13.592  40.073   2.367
17558W        W82785   5.685  22.764   0.431
17559W        W82786   7.507  16.652   2.307
17560W        W82787  28.966   6.779   2.861
17561W        W82788  29.335   5.040  12.656
17562W        W82789  20.684   3.691   4.494
17563W        W82790  34.162   5.396  13.553
17564W        W82791  30.998  23.474   0.725
17565W        W82792   9.823  24.911  10.713
17566W        W82793  16.798   4.351  10.665
17567W        W82794  29.881   7.176  10.563
17568W        W82795   6.887   2.541  10.903
17569W        W82796  21.308  30.883   3.813
17570W        W82797  32.303   8.678   3.619
17571W        W82798  27.510  19.012   4.111
17572W        W82799  15.306  39.491   2.730
17573W        W82800  39.533  13.133   1.485
17574W        W82801  22.331  21.615   1.707
17575W        W82802  32.007  42.614   0.541
17576W        W82803  39.108  13.576  13.441
17577W        W82804  30.387  13.581  13.824
17578W        W82805  30.038  19.618  12.698
17579W        W82806   1.879  20.702   3.677
17580W        W82807  24.699  18.883  10.760
17581W        W82808  23.700  13.869   4.557
17582W        W82809  38.575  27.429   2.098
17583W        W82810  18.026  25.327  11.197
17584W        W82811  37.040  18.619   4.499
17585W        W82812   2.533  37.750   0.285
17586W        W82813   4.646  38.029   1.228
17587W        W82814  41.874  16.625  11.178
17588W        W82815  17.040  30.530  13.355
17589W        W82816  43.517  24.616   0.912
17590W        W82817  44.506  20.732   3.557
17591W        W82818  42.346  17.566   2.753
17592W        W82819   1.885  27.773  11.735
17593W        W82820  40.928  18.692   4.861
17594W        W82821  33.948  23.539  11.613
17595W        W82822  13.766  22.567  14.690
17596W        W82823  15.173  12.118  14.490
17597W        W82824   4.280  42.309   3.085
17598W        W82825  38.522  44.569  12.041
17599W        W82826  38.401   6.651   0.234
17600W        W82827   9.132  41.865  11.880
17601W        W82828  23.564  44.196   2.348
17602W        W82829  18.352  41.440  14.064
17603W        W82830   6.248  13.999   3.118
17604W        W82831  39.130   3.276   3.063
17605W        W82832   3.017  35.319  12.072
17606W        W82833   8.103  35.289  13.833
17607W        W82834  36.987  12.479   0.630
17608W        W82835   2.476  44.481   0.984
17609W        W82836  44.659  20.658  12.072
17610W        W82837   9.239  12.593  12.536
17611W        W82838  33.034  39.377   0.705
17612W        W82839   7.715  12.764  12.904
17613W        W82840  43.974  25.718  14.433
17614W        W82841  15.159  11.479   4.348
17615W        W82842  18.260  18.775   0.602
17616W        W82843   5.157  36.827  12.303
17617W        W82844  18.571  38.612   3.322
17618W        W82845  11.816  30.491   4.559
17619W        W82846  11.062   7.543   2.588
17620W        W82847  19.288  44.089   1.747
17621W        W82848  40.838  10.648   1.662
17622W        W82849  32.517  24.499   1.824
17623W        W82850   5.911   8.390  10.586
17624W        W82851  40.916  41.103   0.810
17625W        W82852  31.313  27.162   2.973
17626W        W82853  17.338  28.643  14.495
17627W        W82854  43.243  10.027   4.768
17628W        W82855  25.733  13.669  11.290
17629W        W82856  17.736  23.484   0.247
17630W        W82857   8.693   7.156   1.295
17631W        W82858  34.852  15.700  11.137
17632W        W82859  18.829  14.605   2.268
17633W        W82860  43.298  44.712   1.188
17634W        W82861  28.394  19.076  11.626
17635W        W82862  35.437  14.221  11.584
17636W        W82863   5.216  35.633   1.380
17637W        W82864   2.142  16.493   4.386
17638W        W82865  30.698  17.455   4.624
17639W        W82866  25.036   1.746  13.052
17640W        W82867  38.736   9.297  14.800
17641W        W82868  29.695  25.310   3.669
17642W        W82869  16.484  17.148  11.665
17643W        W82870  20.499  31.712  14.582
17644W        W82871   8.306  43.482  14.527
17645W        W82872  37.714  19.660   1.940
17646W        W82873  40.448  37.038   3.386
17647W        W82874   5.352  43.539   3.144
17648W        W82875  26.694   1.417  10.451
17649W        W82876  13.987   2.505  11.471
17650W        W82877   7.140  42.479  12.478
17651W        W82878  40.826   1.921  14.389
17652W        W82879   4.419   2.774  10.884
17653W        W82880   4.002   6.286   4.935
17654W        W82881   4.694  40.061  11.001
17655W        W82882  11.844  26.007  12.495
17656W        W82883  11.924  38.359   1.284
17657W        W82884  13.793   3.839  13.742
17658W        W82885  34.067  29.461   0.452
17659W        W82886  33.090   8.747   0.004
17660W        W82887  17.735  33.195   2.225
17661W        W82888  37.563  34.412  13.755
17662W        W82889  17.942   7.963   0.863
17663W        W82890  38.384  10.919   4.095
17664W        W82891  35.417  33.168  14.307
17665W        W82892  25.682   0.526   3.228
17666W        W82893  41.323  38.580   2.778
17667W        W82894  19.283  15.119  11.000
17668W        W82895   6.431  32.626   3.547
17669W        W82896   3.782  19.301   1.336
17670W        W82897  44.591  16.299   3.372
17671W        W82898  11.204  35.119   4.136
17672W        W82899  29.418   1.065   2.773
17673W        W82900  10.967  23.542  11.262
17674W        W82901  13.862  37.895   3.285
17675W        W82902  14.222  34.384  14.027
17676W        W82903  42.507   5.303   3.630
17677W        W82904  40.453  31.192  12.986
17678W        W82905  16.218  16.183   3.228
17679W        W82906  27.667  20.182  12.553
17680W        W82907   2.800  38.933   4.154
17681W        W82908   2.747  12.330   0.764
17682W        W82909  43.176  10.965  10.586
17683W        W82910  37.053  23.235  14.453
17684W        W82911  13.580  16.103   1.296
17685W        W82912  18.004  30.896  13.035
17686W        W82913   1.260  30.533  14.080
17687W        W82914  19.143  18.635   4.509
17688W        W82915   5.933  16.579   3.233
17689W        W82916  37.124  34.287  12.086
17690W        W82917  38.070   5.298  11.923
17691W        W82918  32.551   1.749  10.650
17692W        W82919  21.193  40.286  13.328
17693W        W82920  13.187  29.919   2.080
17694W        W82921  43.421   3.843   4.131
17695W        W82922   2.371  31.716   3.492
17696W        W82923  18.181  19.648   0.498
17697W        W82924  21.230  10.849   3.602
17698W        W82925  26.219   6.308  13.207
17699W        W82926  19.349  26.038   3.179
17700W        W82927  32.560  30.197  11.095
17701W        W82928   0.007  16.459   4.235
17702W        W82929  40.332  35.876  10.862
17703W        W82930   1.211  23.193  12.553
17704W        W82931   5.653  30.291  11.089
17705W        W82932  30.428  22.726   3.294
17706W        W82933  11.658  20.269   1.399
17707W        W82934  42.501  27.840   3.284
17708W        W82935  39.252   3.720  14.314
17709W        W82936  24.434  15.504   2.488
17710W        W82937  43.403   7.533  10.815
17711W        W82938  15.920  32.599   0.959
17712W        W82939  13.625  28.315   0.848
17713W        W82940  16.046  38.865   4.114
17714W        W82941  18.593  22.714  14.618
17715W        W82942   6.228  25.739  13.605
17716W        W82943   9.984  14.418   0.286
17717W        W82944  37.796  33.023  11.585
17718W        W82945  34.083  18.198  14.333
17719W        W82946  24.188   7.002   4.126
17720W        W82947  15.255  21.494  10.689
17721W        W82948  24.760  29.342   2.868
17722W        W82949  15.895   3.065  10.587
17723W        W82950  18.917  12.479  14.452
17724W        W82951  40.844   1.429  13.199
17725W        W82952   4.841  40.322   0.928
17726W        W82953   3.474  40.382   4.515
17727W        W82954   8.665  40.261  10.619
17728W        W82955  31.756  24.672   3.284
17729W        W82956   5.499  38.059  14.826
17730W        W82957   2.529  21.759  10.633
17731W        W82958   5.957  18.882   0.250
17732W        W82959   8.393   0.074   0.982
17733W        W82960   6.904  25.858   3.545
17734W        W82961  40.032  10.194  11.220
17735W        W82962  11.304   8.907   1.417
17736W        W82963  22.790  41.500  11.223
17737W        W82964   9.195  33.094  12.391
17738W        W82965  42.640  28.911  13.226
17739W        W82966  26.551  31.611  11.331
17740W        W82967  26.219   2.962   0.043
17741W        W82968  10.345  16.809   1.269
17742W        W82969  42.496   8.760   1.272
17743W        W82970  41.019  21.236  10.680
17744W        W82971   3.304  11.413  11.601
17745W        W82972  11.082   1.729   0.129
17746W        W82973   6.273  29.495  14.935
17747W        W82974   5.397   8.410  10.630
17748W        W82975  26.309   0.234  13.453
17749W        W82976  37.271  44.251  10.377
17750W        W82977   8.414  11.286  11.980
17751W        W82978  33.704  23.207  14.077
17752W        W82979  31.424   8.907  14.352
17753W        W82980  37.036   9.807   0.723
17754W        W82981  34.387   6.733   1.808
17755W        W82982  26.157  22.620  11.088
17756W        W82983   6.875  41.171  11.638
17757W        W82984   3.281  11.498   4.969
17758W        W82985  34.122  25.410  12.004
17759W        W82986  11.972  21.869   3.061
17760W        W82987   9.414  43.817   2.615
17761W        W82988  24.638  17.000   1.401
17762W        W82989  20.052  23.145  12.443
17763W        W82990  37.825   8.806   0.763
17764W        W82991   4.994  34.918  12.595
17765W        W82992  34.622   1.010  12.629
17766W        W82993  10.841  39.357  14.811
17767W        W82994  19.793   3.657   2.398
17768W        W82995  18.771  34.334   0.871
17769W        W82996  24.954  13.440  11.065
17770W        W82997   6.363   3.698   4.459
17771W        W82998  13.558  21.180   4.226
17772W        W82999  42.487  32.955   2.872
17773W        W83000  43.846  42.823  11.916
17774W        W83001  24.653  41.740  11.568
17775W        W83002  12.291  20.965   0.766
17776W        W83003  28.541   4.737   4.666
17777W        W83004  11.681  28.672   1.213
17778W        W83005  17.266  37.405   1.400
17779W        W83006  20.623  29.512   1.664
17780W        W83007   4.409  28.076   0.778
17781W        W83008  15.161  39.470  14.492
17782W        W83009  19.338  30.517  10.385
17783W        W83010   0.883   8.552  10.772
17784W        W83011   6.314  15.113   0.737
17785W        W83012  39.693  21.951  10.724
17786W        W83013  22.041   0.173   9.857
17787W        W83014  14.683  31.563   2.170
17788W        W83015   8.760  42.934  13.872
17789W        W83016  38.562  20.987   9.950
17790W        W83017  27.895  15.427  14.928
17791W        W83018  35.257  12.868  10.990
17792W        W83019   1.996   5.291   2.775
17793W        W83020   8.769  10.386  13.032
17794W        W83021  42.394  41.463  10.517
17795W        W83022  24.222  26.571  11.135
17796W        W83023   7.694  36.068   0.426
17797W        W83024  10.704   0.864  12.592
17798W        W83025  37.289  11.829  12.465
17799W        W83026  35.940  18.236  14.893
17800W        W83027  41.744  39.406   4.373
17801W        W83028  43.638  39.524   1.210
17802W        W83029  37.960  27.998  12.932
17803W        W83030  19.430  24.991  12.585
17804W        W83031  44.214   4.095  14.843
17805W        W83032  43.034  30.008   0.902
17806W        W83033  27.070  11.553  12.110
17807W        W83034  12.112   7.702   4.537
17808W        W83035  40.528  16.539  14.761
17809W        W83036  10.273   5.578   2.678
17810W        W83037   5.483   0.410   2.167
17811W        W83038  44.209  11.705  11.167
17812W        W83039  29.030   0.512   1.306
17813W        W83040  20.649  32.537   0.342
17814W        W83041  34.756  43.967  14.339
17815W        W83042  11.074  16.707   1.796
17816W        W83043  23.107  28.834   2.236
17817W        W83044  35.141   2.879  13.373
17818W        W83045   6.629  38.838   1.381
17819W        W83046  14.514  42.311   0.234
17820W        W83047  36.622   1.740   1.401
17821W        W83048  31.446  15.191   1.342
17822W        W83049  39.842  19.823   3.676
17823W        W83050   2.717  38.467   2.294
17824W        W83051  40.936  42.833   0.519
17825W        W83052   4.333   0.531   2.479
17826W        W83053  37.330  19.344  11.644
17827W        W83054  36.054  14.659  13.951
17828W        W83055  30.039  23.114  11.408
17829W        W83056  43.922  16.800   0.387
17830W        W83057  43.764  28.873  12.318
17831W        W83058  36.615   2.263   1.359
17832W        W83059   3.156  38.549   2.575
17833W        W83060  31.154  33.562  11.816
17834W        W83061  18.378  37.646   0.481
17835W        W83062   5.799  40.818   2.774
17836W        W83063  14.195  42.588  14.290
17837W        W83064  29.936  24.349   3.636
17838W        W83065  40.912  31.041  12.803
17839W        W83066  44.831   6.627   4.609
17840W        W83067  20.503  20.569   3.829
17841W        W83068  14.602  19.955   4.443
17842W        W83069  22.192  15.526  10.622
17843W        W83070  12.318   9.654   1.663
17844W        W83071   0.800  10.466   0.233
17845W        W83072  27.615  26.386   3.256
17846W        W83073  11.698  17.638   2.914
17847W        W83074  25.669   8.796   4.468
17848W        W83075  41.030  10.957  14.687
17849W        W83076  41.584   9.451  12.995
17850W        W83077  14.167  30.866  14.300
17851W        W83078  31.048  21.775   3.783
17852W        W83079  22.191  40.292  13.627
17853W        W83080  35.962   1.916   1.231
17854W        W83081   2.496   5.018   4.703
17855W        W83082  33.062  44.425   2.641
17856W        W83083  44.265  19.742   2.728
17857W        W83084  41.859  36.061  11.577
17858W        W83085  11.727   3.012   3.365
17859W        W83086  28.140  26.988   4.943
17860W        W83087  30.105  32.683   4.155
17861W        W83088  35.480  23.079  14.816
17862W        W83089  26.629  33.396   0.818
17863W        W83090  19.518   4.900   2.666
17864W        W83091  41.811  23.935  12.533
17865W        W83092  42.029   1.222  10.505
17866W        W83093  24.551  36.364   3.707
17867W        W83094  40.258  28.693   0.327
17868W        W83095  26.466  33.403   4.549
17869W        W83096  18.014   7.217   3.321
17870W        W83097  44.714  20.696   1.834
17871W        W83098  44.354   6.908  13.305
17872W        W83099  44.731   0.726  13.877
17873W        W83100  29.707  22.798   4.239
17874W        W83101  38.398  19.697  14.160
17875W        W83102   1.261  15.839   2.301
17876W        W83103  36.419  16.357   2.361
17877W        W83104  33.613   2.949  11.569
17878W        W83105  28.672  32.662  14.001
17879W        W83106  17.186  13.671  10.439
17880W        W83107  13.931  22.652  12.452
17881W        W83108  27.543  40.001  12.366
17882W        W83109  27.603   6.867   1.641
17883W        W83110  12.390  21.185  14.440
17884W        W83111  19.116  13.117   1.350
17885W        W83112  35.188  32.933   2.680
17886W        W83113  22.773  42.350  11.129
17887W        W83114   8.232  26.941  13.960
17888W        W83115  35.171  20.898   3.177
17889W        W83116  24.295  18.176  11.158
17890W        W83117  17.667  30.601  12.771
17891W        W83118  11.135  26.487   3.770
17892W        W83119   0.049  30.051  14.351
17893W        W83120  28.553  41.429  13.537
17894W        W83121  33.415  39.507   0.384
17895W        W83122   1.943  32.915  11.666
17896W        W83123  27.583  43.971   1.441
17897W        W83124  38.563  42.982   2.419
17898W        W83125  10.823  31.376  11.286
17899W        W83126  14.267  23.135   1.311
17900W        W83127  42.662  17.661  12.522
17901W        W83128  27.280  23.936  14.735
17902W        W83129  43.441  38.577   0.799
17903W        W83130  17.468  19.885  10.893
17904W        W83131  38.859  15.268   0.757
17905W        W83132  10.981   9.051   2.411
17906W        W83133  34.030   2.927   1.257
17907W        W83134   0.686  14.277  11.731
17908W        W83135  31.926  15.233   2.863
17909W        W83136  16.574   6.275  12.008
17910W        W83137  21.208  23.944   4.197
17911W        W83138  22.003  12.744   2.431
17912W        W83139  22.247   5.474  13.761
17913W        W83140  36.976   2.018  13.027
17914W        W83141  19.518  14.634  13.472
17915W        W83142  41.327  42.826  13.362
17916W        W83143  25.198  42.669  13.858
17917W        W83144  22.250  28.235  12.092
17918W        W83145  38.105  12.732   4.497
17919W        W83146  39.023  13.846  12.965
17920W        W83147  17.617  15.085   2.863
17921W        W83148  25.535  34.557  12.600
17922W        W83149  28.109  20.415  14.334
17923W        W83150  11.344  43.045   0.850
17924W        W83151  16.321   4.359  12.535
17925W        W83152  15.762   6.216   1.099
17926W        W83153   1.948   6.645  14.492
17927W        W83154   2.964   6.959  14.360
17928W        W83155  30.881  14.674   0.221
17929W        W83156  28.666   6.706   4.703
17930W        W83157  29.044  15.716  14.721
17931W        W83158  36.394  25.065  13.155
17932W        W83159   1.739   2.677   3.102
17933W        W83160  13.883  23.284   0.371
17934W        W83161  43.922   9.825   1.646
17935W        W83162  28.685  17.862   1.906
17936W        W83163  34.983  31.760  11.119
17937W        W83164  29.148  21.937   2.324
17938W        W83165  16.294  33.416  11.834
17939W        W83166  11.403  23.128   4.616
17940W        W83167  22.757   1.692  13.182
17941W        W83168  19.844  27.962  10.667
17942W        W83169  20.059  22.250  11.438
17943W        W83170  21.230   2.730   1.262
17944W        W83171  44.517  26.611  14.939
17945W        W83172  31.661  42.261   1.778
17946W        W83173  24.980  25.201  12.529
17947W        W83174   6.908  32.047   2.819
17948W        W83175  27.112  44.542  14.301
17949W        W83176  17.271  15.987  13.454
17950W        W83177  27.816  19.585  11.227
17951W        W83178  19.217  17.063   4.333
17952W        W83179  22.644  30.889   3.721
17953W        W83180  40.750  43.973   0.279
17954W        W83181  27.728   1.384  12.885
17955W        W83182  17.603  25.610   2.993
17956W        W83183  33.632   4.461  13.468
17957W        W83184  17.286   4.056  14.533
17958W        W83185  30.387  11.797  11.156
17959W        W83186   1.014  11.496  14.021
17960W        W83187  10.724  22.784  14.991
17961W        W83188  30.531  34.771   3.742
17962W        W83189  17.184  31.849  12.704
17963W        W83190   1.963  25.555  10.581
17964W        W83191  10.410  33.788   2.280
17965W        W83192  36.192  17.506  11.414
17966W        W83193  23.744  44.868  12.753
17967W        W83194   3.019  23.779   2.132
17968W        W83195   8.675  38.378   0.908
17969W        W83196  33.686  22.341  11.976
17970W        W83197  19.080  35.601  11.180
17971W        W83198  32.171   8.181  13.462
17972W        W83199  36.393   7.836   3.698
17973W        W83200   9.127  33.657  10.523
17974W        W83201   0.340  35.336  11.018
17975W        W83202   5.501   1.830   0.851
17976W        W83203  29.272  23.192  14.665
17977W        W83204  24.735   8.316  12.053
17978W        W83205   5.849  30.592   2.436
17979W        W83206   6.849  35.931  12.313
17980W        W83207  26.954  34.628   3.583
17981W        W83208  27.044   9.666   0.787
17982W        W83209   7.758   6.014   9.785
17983W        W83210  24.477  26.677  13.591
17984W        W83211   6.837  43.754  12.137
17985W        W83212  20.767  23.583  12.506
17986W        W83213  21.218  36.934  11.930
17987W        W83214  37.687  20.732  13.505
17988W        W83215  40.928  40.582  12.963
17989W        W83216  18.701   2.482   3.272
17990W        W83217  14.861  27.011   0.828
17991W        W83218  22.937  13.662   2.616
17992W        W83219   2.933  41.822   0.317
17993W        W83220  26.552  31.401  14.862
17994W        W83221   0.759  33.640  12.089
17995W        W83222  20.014  12.586   1.356
17996W        W83223  28.057   5.847  12.958
17997W        W83224  39.539  12.194   1.278
17998W        W83225   4.348  16.001   4.163
17999W        W83226   5.744  31.411  14.356
18000W        W83227  38.333   3.554  11.961
18001W        W83228  40.758  26.660  13.030
18002W        W83229  21.372  42.404   0.579
18003W        W83230  16.700  25.415   1.208
18004W        W83231  14.325  36.551  12.991
18005W        W83232   0.756  35.406   2.704
18006W        W83233   6.350  22.408  10.800
18007W        W83234  41.005  31.217  14.358
18008W        W83235  29.862  32.328   2.868
18009W        W83236  41.796   3.476  11.213
18010W        W83237  14.343   3.259  11.099
18011W        W83238  25.490  34.511   3.121
18012W        W83239  25.297  23.033   3.561
18013W        W83240   5.785   7.854   3.194
18014W        W83241  17.340  17.898   5.113
18015W        W83242  43.916  44.508   1.812
18016W        W83243  13.011   8.218   3.746
18017W        W83244  25.198  29.466   2.416
18018W        W83245   4.850  44.364   4.246
18019W        W83246  36.799  17.685   0.843
18020W        W83247  10.459  27.519  13.673
18021W        W83248  29.379  26.025   4.179
18022W        W83249  32.704   6.272  13.327
18023W        W83250   4.941  34.432   2.439
18024W        W83251  25.064  40.953  10.860
18025W        W83252  39.537  17.107   2.215
18026W        W83253   4.864  12.147   0.519
18027W        W83254  22.411  28.205   2.785
18028W        W83255  25.856   2.796   3.328
18029W        W83256   9.341  29.675   3.865
18030W        W83257  19.262   2.906   4.744
18031W        W83258   6.917  15.421   1.907
18032W        W83259   5.356  13.073   2.953
18033W        W83260  22.295  31.611  12.583
18034W        W83261   1.298  34.140   1.475
18035W        W83262  28.941  11.578  13.054
18036W        W83263   0.963  25.526  13.118
18037W        W83264  20.199   5.029  14.530
18038W        W83265  44.868  35.455   3.276
18039W        W83266  29.547   8.277  11.125
18040W        W83267  42.883  38.416   0.828
18041W        W83268  16.409  13.147  13.279
18042W        W83269   2.342  26.689  13.955
18043W        W83270   1.920  37.479  14.017
18044W        W83271  13.318  16.852   0.964
18045W        W83272  11.286  31.558  12.674
18046W        W83273   2.649  16.156  12.878
18047W        W83274  23.747  40.590   4.755
18048W        W83275  19.767  37.554   1.460
18049W        W83276  31.197  39.524   3.751
18050W        W83277  29.412  16.262  11.663
18051W        W83278   8.191  43.384   4.625
18052W        W83279  44.621   8.784   4.494
18053W        W83280  31.624  37.567  11.142
18054W        W83281   2.065  19.223   4.579
18055W        W83282  29.495  44.593   1.776
18056W        W83283  20.190  36.919  14.324
18057W        W83284  14.884  24.084  12.440
18058W        W83285  23.759   0.819   4.049
18059W        W83286  24.905  40.409  12.000
18060W        W83287  28.724  38.919   1.966
18061W        W83288  15.436  28.049   1.145
18062W        W83289  13.334  37.813  11.603
18063W        W83290  34.636  23.174  12.425
18064W        W83291  34.122  41.290  12.707
18065W        W83292  33.339   0.877   3.960
18066W        W83293  23.057  35.739  12.309
18067W        W83294  24.312   8.617  11.994
18068W        W83295  16.152  15.795   0.932
18069W        W83296  18.160  29.885  14.000
18070W        W83297  10.338  33.623   5.114
18071W        W83298  36.830  14.042  13.844
18072W        W83299  42.518  24.275  11.518
18073W        W83300  23.189  10.135  11.646
18074W        W83301   3.937  43.312   0.970
18075W        W83302  23.142  39.407   0.778
18076W        W83303  33.336  13.606   2.107
18077W        W83304  11.768  22.517  14.230
18078W        W83305  11.811  34.839   0.331
18079W        W83306  14.163   6.891   3.043
18080W        W83307  15.644  36.825   4.687
18081W        W83308  43.320  10.367  14.245
18082W        W83309  29.966   2.863   3.716
18083W        W83310  29.084  30.670  12.230
18084W        W83311  18.517  35.423   0.627
18085W        W83312  15.986  13.677   3.226
18086W        W83313  12.911  16.294  14.627
18087W        W83314  30.076  43.439   1.296
18088W        W83315  37.207  40.383   0.550
18089W        W83316  31.055  26.013   9.744
18090W        W83317  13.731  40.539  12.565
18091W        W83318   0.092  23.953   5.796
18092W        W83319  28.039   3.804   4.555
18093W        W83320  13.338  27.950   1.393
18094W        W83321  34.010  20.521  14.960
18095W        W83322  23.113  25.536   1.040
18096W        W83323  27.634  41.337  11.085
18097W        W83324  10.590   8.287   3.962
18098W        W83325  22.035   3.863   0.710
18099W        W83326  38.664  32.640  12.075
18100W        W83327  16.734  38.015   3.745
18101W        W83328  32.488  12.393   2.772
18102W        W83329  14.597  35.107  13.678
18103W        W83330  27.565   3.910   2.392
18104W        W83331   6.802  14.649   2.485
18105W        W83332  29.580  31.583   4.597
18106W        W83333  41.951  26.381   4.497
18107W        W83334  14.264  17.187  12.653
18108W        W83335   5.469  23.685   1.804
18109W        W83336  34.627  26.670   2.731
18110W        W83337   3.409  11.249   1.807
18111W        W83338  29.136   4.447   1.947
18112W        W83339  24.968  24.550  10.700
18113W        W83340  32.191  10.909   3.657
18114W        W83341   3.772  39.010   0.939
18115W        W83342   6.925  43.729   3.636
18116W        W83343  26.607  19.564  14.941
18117W        W83344   2.782   3.835  11.633
18118W        W83345  25.609   8.896  11.556
18119W        W83346   1.057  23.672   4.995
18120W        W83347  21.187  20.965  13.427
18121W        W83348  35.603  22.582  13.639
18122W        W83349  28.493  37.996  14.973
18123W        W83350   1.873  33.722   4.102
18124W        W83351   6.871  16.850  13.832
18125W        W83352   7.400  44.416   0.671
18126W        W83353  12.254  18.241   0.693
18127W        W83354  44.275  17.046  11.917
18128W        W83355  15.159   0.028  11.944
18129W        W83356  36.966   7.144  12.020
18130W        W83357  43.090   4.939  12.518
18131W        W83358   3.176  29.267  10.799
18132W        W83359   9.337   8.896   0.216
18133W        W83360  37.874  43.549   2.842
18134W        W83361  41.028  40.076  12.969
18135W        W83362  18.319  24.423   3.295
18136W        W83363  15.216   5.129  13.802
18137W        W83364  24.338  22.769  11.965
18138W        W83365   0.773  30.421  14.229
18139W        W83366  31.509   1.827   2.375
18140W        W83367  17.766   3.446  12.820
18141W        W83368  27.632  33.913   0.379
18142W        W83369  44.190  37.857  11.549
18143W        W83370  44.076  13.523  11.991
18144W        W83371  20.563   2.304  11.751
18145W        W83372  15.261  27.127   2.708
18146W        W83373  25.530   9.638  12.982
18147W        W83374  15.699  20.971  11.436
18148W        W83375  20.502  17.899   0.450
18149W        W83376  21.522  31.956   2.980
18150W        W83377   4.184  36.564  11.133
18151W        W83378  11.755  27.080   2.439
18152W        W83379  14.617  32.533  12.184
18153W        W83380   0.490  37.056   1.336
18154W        W83381  25.383  17.035   3.953
18155W        W83382  41.266  42.043  11.528
18156W        W83383  12.729   6.348   2.678
18157W        W83384  39.941  10.637   0.476
18158W        W83385  18.738  33.985   4.662
18159W        W83386  38.623  42.317   3.679
18160W        W83387   1.717  37.477   4.076
18161W        W83388  28.966   7.202  11.920
18162W        W83389  10.433  28.184  13.921
18163W        W83390  39.579  26.953   1.143
18164W        W83391  32.730  13.647   3.467
18165W        W83392  38.513  40.946  11.454
18166W        W83393   4.534  35.924  11.526
18167W        W83394  36.454  43.851   3.468
18168W        W83395  42.638   9.699  10.692
18169W        W83396  35.644  36.817  14.963
18170W        W83397  31.146  27.681   3.829
18171W        W83398  40.853  20.516   0.772
18172W        W83399  27.558  17.269   2.604
18173W        W83400  20.223  33.511   2.766
18174W        W83401  39.118  39.517  14.745
18175W        W83402   1.840  18.232   1.187
18176W        W83403  12.375  19.680   2.895
18177W        W83404  15.902   1.214  13.271
18178W        W83405  18.228  34.525   3.645
18179W        W83406  26.208  38.433  13.461
18180W        W83407  22.977  25.664  11.896
18181W        W83408  38.942   9.714   1.931
18182W        W83409  42.586  33.490   2.861
18183W        W83410  41.730  16.024   1.415
18184W        W83411   7.784  37.073   0.315
18185W        W83412  24.747  13.981   4.782
18186W        W83413  42.388  35.328   2.749
18187W        W83414  43.673  28.074   4.873
18188W        W83415   5.729  19.929   4.779
18189W        W83416   8.978   1.814  10.103
18190W        W83417   8.262  10.562   1.422
18191W        W83418   2.885  23.950   4.100
18192W        W83419  36.716  44.914  11.255
18193W        W83420  27.930  43.029  11.124
18194W        W83421  32.612  35.966   0.390
18195W        W83422   3.890   0.297   2.266
18196W        W83423   6.890  18.966   4.973
18197W        W83424   3.037  28.368  14.936
18198W        W83425  35.573  20.446  10.775
18199W        W83426   7.414   1.840   3.102
18200W        W83427   3.658  19.700   1.644
18201W        W83428  15.141  33.814   0.433
18202W        W83429  10.602  17.489  11.568
18203W        W83430  14.903  24.747  14.289
18204W        W83431  32.214  39.407   9.628
18205W        W83432   4.252   7.596  11.177
18206W        W83433   3.778   0.896  12.581
18207W        W83434  22.067  24.727   0.281
18208W        W83435  14.980  25.149  10.243
18209W        W83436  32.753  28.181   4.952
18210W        W83437  25.258   7.175   0.265
18211W        W83438  42.809  36.518   2.231
18212W        W83439  44.730  31.397  14.200
18213W        W83440  26.521   6.730  13.336
18214W        W83441  42.258  40.451  13.317
18215W        W83442  19.036   4.738  14.298
18216W        W83443   2.513  27.039   2.710
18217W        W83444   5.644  32.509   2.450
18218W        W83445   1.198  40.998   0.147
18219W        W83446  33.580  24.545   2.410
18220W        W83447  43.531  14.739   2.140
18221W        W83448  11.911   1.528  12.604
18222W        W83449   8.660  38.770   4.771
18223W        W83450  33.049  21.648  12.039
18224W        W83451   1.673  43.300   1.418
18225W        W83452  29.114  35.467   1.219
18226W        W83453   1.291   2.367  11.630
18227W        W83454  31.384  15.697   4.076
18228W        W83455   2.051  11.248  12.450
18229W        W83456  34.145  20.734  13.405
18230W        W83457  42.520  34.486  12.098
18231W        W83458  25.791  37.952   0.099
18232W        W83459  28.388  23.497  10.795
18233W        W83460  22.443   6.717   3.362
18234W        W83461   5.609  18.404   2.492
18235W        W83462  12.211   3.653   4.437
18236W        W83463   0.444  22.624   0.288
18237W        W83464  30.956  13.662  13.226
18238W        W83465  22.711   3.782  11.552
18239W        W83466  19.116  13.799  12.134
18240W        W83467  16.122  36.237  12.557
18241W        W83468  32.449  34.087  12.559
18242W        W83469  20.024  18.686  11.634
18243W        W83470  42.803  22.127   3.215
18244W        W83471  34.791   0.524  12.479
18245W        W83472  41.413  22.837   3.278
18246W        W83473   6.792  35.699   2.273
18247W        W83474  17.266  18.909   4.308
18248W        W83475  17.782  37.820  14.817
18249W        W83476  20.634  25.341   3.265
18250W        W83477  34.602  23.214  11.386
18251W        W83478   0.484   1.847  13.944
18252W        W83479  29.907   4.890  14.876
18253W        W83480  33.194  24.778   0.825
18254W        W83481  26.205  17.373  14.181
18255W        W83482  25.295  42.524   3.806
18256W        W83483  30.410  21.693  11.943
18257W        W83484  20.870  28.467  12.747
18258W        W83485  16.640  10.211  12.668
18259W        W83486  39.813  27.977   4.075
18260W        W83487  39.174  40.793  14.499
18261W        W83488  29.147  14.958   0.789
18262W        W83489  28.474   4.889   3.239
18263W        W83490   4.840  15.257   4.933
18264W        W83491  42.452  22.633   3.641
18265W        W83492  36.065  33.960  14.415
18266W        W83493  40.634  39.959   1.893
18267W        W83494  16.532  41.538  14.931
18268W        W83495  22.609  35.672  14.572
18269W        W83496   2.020  17.232  13.762
18270W        W83497  18.613  24.485   3.704
18271W        W83498  33.583   4.263   3.826
18272W        W83499  27.204  20.806   2.507
18273W        W83500  37.300  12.243   1.750
18274W        W83501   0.407  36.916  12.555
18275W        W83502  38.703  39.354  13.102
18276W        W83503  33.189   0.814   2.203
18277W        W83504  21.225   0.406   0.040
18278W        W83505  11.879  31.554  11.020
18279W        W83506  32.540   8.790  13.561
18280W        W83507  20.652   8.810   3.704
18281W        W83508  12.745   8.313  12.437
18282W        W83509   5.662  42.448  11.935
18283W        W83510   1.453   4.391   2.272
18284W        W83511  43.952  15.779  10.631
18285W        W83512  13.530  26.254   3.219
18286W        W83513  11.723   7.264   3.686
18287W        W83514   5.500   7.395   0.461
18288W        W83515  27.932  41.472   0.330
18289W        W83516  42.938  16.141   2.224
18290W        W83517  15.717  40.229   1.259
18291W        W83518  26.150   2.768  12.377
18292W        W83519  29.945  39.420   3.196
18293W        W83520  30.111  41.916  10.542
18294W        W83521  28.668  30.911  10.610
18295W        W83522   1.319   7.270  14.246
18296W        W83523  23.140  36.383   2.688
18297W        W83524   7.455  40.698   4.688
18298W        W83525   9.795   1.818   3.900
18299W        W83526   6.932  39.096   1.962
18300W        W83527  14.200   3.814   3.644
18301W        W83528  25.887   7.842  12.518
18302W        W83529  21.103  25.958  11.127
18303W        W83530   2.694  29.976  10.277
18304W        W83531  31.200  27.596   1.258
18305W        W83532  17.982   3.228  11.625
18306W        W83533   3.246  33.172  13.826
18307W        W83534  33.496  34.816   2.357
18308W        W83535   9.753  25.754  11.129
18309W        W83536  35.079   6.763  10.772
18310W        W83537  43.749  30.504   4.038
18311W        W83538   8.169  19.063   0.323
18312W        W83539  30.333   9.630  12.561
18313W        W83540  39.376  38.317   0.867
18314W        W83541  44.524   9.400  13.288
18315W        W83542  32.868  19.753   2.377
18316W        W83543   3.157  33.165   3.204
18317W        W83544  42.152  41.983  10.718
18318W        W83545  36.663  20.259   1.222
18319W        W83546  22.733  11.585   2.609
18320W        W83547  16.232  34.347  13.972
18321W        W83548  26.102  43.438  10.917
18322W        W83549  21.478  21.945   1.810
18323W        W83550  21.097  27.784   0.824
18324W        W83551  39.038  16.117  12.337
18325W        W83552  43.466  40.779   4.631
18326W        W83553  37.409  16.296   3.212
18327W        W83554  19.195  42.440  11.938
18328W        W83555  13.561  30.078  11.543
18329W        W83556  25.256  37.572  11.603
18330W        W83557  26.010   6.938   0.898
18331W        W83558  41.227   5.169   4.114
18332W        W83559  10.841  24.442   1.020
18333W        W83560  30.119   7.344  12.356
18334W        W83561  28.553  28.052   4.666
18335W        W83562  44.381  16.572   0.352
18336W        W83563  19.995   0.252  12.132
18337W        W83564  10.362  27.397   4.316
18338W        W83565  26.203   3.815  14.834
18339W        W83566  28.218  23.863  11.140
18340W        W83567  33.894  17.741  11.108
18341W        W83568  13.766  11.860   4.108
18342W        W83569  15.744  40.742   0.289
18343W        W83570   9.200  18.251   1.981
18344W        W83571  21.966  27.734  11.570
18345W        W83572  44.332   3.148   2.966
18346W        W83573  24.216  29.719  11.915
18347W        W83574  37.903  17.283  14.847
18348W        W83575  10.606  38.333   0.371
18349W        W83576  17.198  10.912   1.246
18350W        W83577  20.356  21.100   1.763
18351W        W83578  42.472   1.700  12.915
18352W        W83579   4.994  24.753  10.549
18353W        W83580  42.580  19.994  13.113
18354W        W83581  43.986   1.337   4.656
18355W        W83582  42.842  23.455  14.807
18356W        W83583  16.696   2.400   1.151
18357W        W83584   7.727  14.087  14.247
18358W        W83585  41.514  32.991   2.460
18359W        W83586  14.575   0.871  13.111
18360W        W83587  34.878   2.679  11.917
18361W        W83588  32.996  38.151   5.022
18362W        W83589   3.389  38.038   0.525
18363W        W83590  29.842  21.635  11.094
18364W        W83591  23.255  34.073  11.846
18365W        W83592  32.594   2.513   3.582
18366W        W83593   9.858  28.843  11.497
18367W        W83594  10.351  12.466  12.007
18368W        W83595  43.426  28.007   1.272
18369W        W83596  13.935  22.992  14.934
18370W        W83597  31.755  41.580  13.162
18371W        W83598  25.615  17.852  14.797
18372W        W83599  28.129  42.334  10.740
18373W        W83600  38.539  21.268   0.029
18374W        W83601  28.908  39.315   2.293
18375W        W83602   3.705  32.524  14.369
18376W        W83603  18.951  42.696   0.759
18377W        W83604   3.913   9.749   2.397
18378W        W83605   9.203   0.366  12.281
18379W        W83606  38.321   6.232   2.042
18380W        W83607   8.207  15.383  12.449
18381W        W83608  44.371  15.362   2.424
18382W        W83609  42.334   4.359   4.122
18383W        W83610  28.421  17.130   2.813
18384W        W83611  41.261  12.539  12.834
18385W        W83612  44.227  39.686   3.547
18386W        W83613  25.033  11.950   0.985
18387W        W83614   4.813  37.262  12.140
18388W        W83615   8.097  27.430   3.255
18389W        W83616  27.439  16.953  11.945
18390W        W83617   4.173  16.229  12.470
18391W        W83618  20.781  13.936   4.150
18392W        W83619  25.679  34.970   0.772
18393W        W83620   4.914   6.788   3.217
18394W        W83621  29.920  35.943  14.503
18395W        W83622  35.526  20.858   3.809
18396W        W83623  42.773  42.857  10.029
18397W        W83624  11.701  18.795   2.303
18398W        W83625   1.157  32.465   0.523
18399W        W83626  13.571   1.261   0.680
18400W        W83627  36.406  28.469  14.935
18401W        W83628  26.770  18.401   2.734
18402W        W83629  37.415   3.757   3.845
18403W        W83630  42.208  25.701  13.411
18404W        W83631  34.464  39.547   2.567
18405W        W83632   1.736  27.255  11.057
18406W        W83633  11.606   0.571   2.764
18407W        W83634  26.425  36.367   4.202
18408W        W83635  17.243   7.226  13.802
18409W        W83636  18.165  12.618  13.009
18410W        W83637  22.740  11.084  14.328
18411W        W83638  19.739  42.094  13.936
18412W        W83639  25.479  16.651  11.558
18413W        W83640   6.257  32.963   4.419
18414W        W83641  23.454  20.610   3.710
18415W        W83642   8.550   1.373  12.928
18416W        W83643  13.809   3.887  10.657
18417W        W83644   9.268  36.639   0.886
18418W        W83645   2.857  23.467   4.304
18419W        W83646   8.905  13.312  11.643
18420W        W83647  10.255  37.539  14.025
18421W        W83648  16.476  42.858  10.494
18422W        W83649  29.867  29.695  12.617
18423W        W83650  30.351  28.428   3.449
18424W        W83651  14.410   1.289   4.739
18425W        W83652  43.555  29.081   4.534
18426W        W83653  10.945  22.583   3.134
18427W        W83654  31.680  29.123   1.410
18428W        W83655  21.171   2.333  10.656
18429W        W83656  30.414  35.931  14.285
18430W        W83657  17.717  23.331  11.791
18431W        W83658  22.976  36.689   1.413
18432W        W83659  19.323  19.373  11.533
18433W        W83660  18.840  28.957   2.202
18434W        W83661  12.165  15.629  14.039
18435W        W83662  24.435  21.287  10.654
18436W        W83663   8.181  22.185   2.350
18437W        W83664  40.749  35.974   0.387
18438W        W83665  29.368  40.234  10.197
18439W        W83666  10.248   0.179  13.589
18440W        W83667  24.545   0.228   1.346
18441W        W83668  27.999  31.156   1.854
18442W        W83669  42.736  10.055  14.790
18443W        W83670  42.331  31.995   5.083
18444W        W83671  23.857   0.285  11.498
18445W        W83672  15.369  11.048   2.343
18446W        W83673  25.036  16.841   3.597
18447W        W83674  34.900  38.932  13.545
18448W        W83675   5.425  21.412  12.522
18449W        W83676  25.506  36.169  10.603
18450W        W83677  20.046   7.247  14.509
18451W        W83678   0.925  19.876  12.003
18452W        W83679   7.855  21.127  13.501
18453W        W83680  15.192  14.291  10.785
18454W        W83681  15.369  40.955   3.864
18455W        W83682  37.480  18.541  12.922
18456W        W83683  10.805  36.516   0.725
18457W        W83684   3.447  32.201   0.940
18458W        W83685  17.829  29.189  13.909
18459W        W83686  17.105  17.612  13.391
18460W        W83687  26.521  15.347  11.896
18461W        W83688  40.956  24.241   0.775
18462W        W83689  43.370  15.095  11.208
18463W        W83690   1.871   3.679  12.598
18464W        W83691  17.919  19.834  13.813
18465W        W83692  42.481  44.437   2.755
18466W        W83693  28.814  24.434   5.013
18467W        W83694  17.143  43.303  14.316
18468W        W83695  42.950   2.782   2.444
18469W        W83696   4.223   5.699   1.915
18470W        W83697  34.956  30.627   4.134
18471W        W83698   5.181   6.366   3.118
18472W        W83699  35.991  29.392  10.607
18473W        W83700  23.111  32.600  12.515
18474W        W83701  40.355  29.499   2.809
18475W        W83702  35.000  15.887  14.355
18476W        W83703  37.416  23.181   4.418
18477W        W83704  28.037  40.220  12.400
18478W        W83705   6.359  37.067  11.616
18479W        W83706   6.148  34.503  12.762
18480W        W83707  30.668  18.207   1.087
18481W        W83708  24.076   4.001  14.396
18482W        W83709   5.197  13.569  14.860
18483W        W83710   4.643  33.957   1.006
18484W        W83711   0.981   8.808  14.069
18485W        W83712  42.703  35.117  11.444
18486W        W83713  11.212  34.812   2.371
18487W        W83714  43.537  21.751   0.046
18488W        W83715   7.811   4.221  13.969
18489W        W83716  30.457  25.067   3.164
18490W        W83717   1.087  24.158  13.361
18491W        W83718   3.349   3.642   2.259
18492W        W83719   1.750  30.689   4.087
18493W        W83720  23.218  43.331   2.642
18494W        W83721  17.106  21.585   4.345
18495W        W83722  35.047   0.421   4.218
18496W        W83723  13.337  10.409  11.983
18497W        W83724  13.045  26.185  11.616
18498W        W83725  10.182  19.905   3.275
18499W        W83726  43.888  16.318   0.226
18500W        W83727   8.013  31.391   1.327
18501W        W83728  35.064  22.228  11.027
18502W        W83729  14.808  11.747  10.776
18503W        W83730  14.886  42.384  11.334
18504W        W83731  25.989   0.745   2.466
18505W        W83732  15.218  32.120   2.330
18506W        W83733  36.438  16.024  12.981
18507W        W83734  25.065   9.691  13.294
18508W        W83735  39.785   9.754   4.187
18509W        W83736  33.703  33.585  11.478
18510W        W83737  44.434  15.117  11.115
18511W        W83738  44.880  37.293  13.311
18512W        W83739  39.383  31.491  10.691
18513W        W83740  30.899  20.062   1.599
18514W        W83741   1.672   9.673   1.866
18515W        W83742  34.017  19.747   0.350
18516W        W83743  12.334  24.121  10.448
18517W        W83744  30.606  15.360   3.635
18518W        W83745  13.843   1.876  14.441
18519W        W83746  13.166   4.957  11.759
18520W        W83747  34.616  44.073   0.343
18521W        W83748  31.112  20.248  12.238
18522W        W83749   3.523  13.162   3.469
18523W        W83750  34.204  44.427   1.208
18524W        W83751  34.481  11.417  10.420
18525W        W83752  37.183  43.621   1.933
18526W        W83753  13.797   8.061  12.532
18527W        W83754  35.313   3.942  11.335
18528W        W83755  44.716   7.409  11.631
18529W        W83756  29.482  25.094  12.487
18530W        W83757  23.394  25.077   1.369
18531W        W83758  21.187  18.121   3.344
18532W        W83759  15.240  42.930  11.909
18533W        W83760  41.454  21.666  12.523
18534W        W83761  34.309  25.393   0.411
18535W        W83762  22.114  33.445   1.287
18536W        W83763  29.363   9.326   0.561
18537W        W83764  22.241  32.376   0.779
18538W        W83765   4.457  22.441   2.372
18539W        W83766  35.480   8.098  10.574
18540W        W83767  42.191  14.268  11.177
18541W        W83768  17.365  28.538   0.545
18542W        W83769  12.264   5.189   3.175
18543W        W83770  31.054  12.322  10.179
18544W        W83771  39.297  44.298  12.424
18545W        W83772  26.232   8.820  11.148
18546W        W83773  24.597  44.950   4.210
18547W        W83774  27.048   0.182   0.776
18548W        W83775  30.381   0.508   4.146
18549W        W83776   0.119   0.259  11.599
18550W        W83777   0.631  41.345  11.642
18551W        W83778  35.841   5.987   5.093
18552W        W83779  32.938  21.183  14.306
18553W        W83780  20.795  30.810   1.287
18554W        W83781  18.855  43.153   2.793
18555W        W83782  39.539   4.792   3.662
18556W        W83783  36.047  33.577   0.478
18557W        W83784  32.510  42.477  13.457
18558W        W83785  31.404   7.886   1.893
18559W        W83786  29.980  18.505   4.503
18560W        W83787   9.354  31.865  10.635
18561W        W83788  35.131  38.876  11.934
18562W        W83789  41.605  15.200   4.219
18563W        W83790  25.577  44.960  12.869
18564W        W83791  31.041   2.781   4.564
18565W        W83792  35.088  17.654   4.579
18566W        W83793  35.901   8.304  10.817
18567W        W83794  10.303   8.996  12.185
18568W        W83795  42.056  22.942   0.352
18569W        W83796   0.385  24.115   2.186
18570W        W83797  14.047  27.646  13.521
18571W        W83798  30.964   0.924  13.761
18572W        W83799  10.410  12.221  12.454
18573W        W83800  19.749   4.290  12.349
18574W        W83801   6.051  44.340  11.574
18575W        W83802  14.769  39.483   0.449
18576W        W83803  19.051  13.132   0.808
18577W        W83804   6.404   6.300   2.746
18578W        W83805  41.569  12.072   2.835
18579W        W83806  24.265  13.248   3.514
18580W        W83807  24.872  33.661   3.140
18581W        W83808   4.824  44.960   1.674
18582W        W83809  10.216   3.715   1.412
18583W        W83810   3.196   8.835   0.289
18584W        W83811   6.830  16.883  12.877
18585W        W83812   5.657  39.384   1.203
18586W        W83813   8.250  42.862   4.656
18587W        W83814  12.281  13.131  13.938
18588W        W83815   4.426  40.350   0.424
18589W        W83816  36.350  43.003   0.976
18590W        W83817  17.840  22.061   0.868
18591W        W83818  36.457  17.555  13.596
18592W        W83819  41.206   9.282   1.474
18593W        W83820  18.272   3.385   2.400
18594W        W83821   6.433  24.547  12.183
18595W        W83822  41.110  35.846   1.315
18596W        W83823   1.290   8.070   4.146
18597W        W83824  28.403  26.547   1.653
18598W        W83825  41.339   8.296   2.129
18599W        W83826   2.348  34.131   2.537
18600W        W83827  20.497  10.419   0.494
18601W        W83828  27.562  24.709  12.893
18602W        W83829  27.987  20.675  13.869
18603W        W83830  21.400  44.633   0.723
18604W        W83831  30.486  40.997   0.509
18605W        W83832  24.881  20.570   2.003
18606W        W83833  23.668  36.059  14.415
18607W        W83834  15.760  26.928   2.673
18608W        W83835   8.490  30.090  13.835
18609W        W83836  26.904  27.551  14.563
18610W        W83837  29.190  20.275   2.703
18611W        W83838  14.814  11.734   9.941
18612W        W83839  31.508   9.699   3.164
18613W        W83840  11.679  18.171  10.656
18614W        W83841  39.413  38.979  12.883
18615W        W83842  24.343  17.049   5.206
18616W        W83843  16.873  27.319  14.230
18617W        W83844  20.098   9.320   3.136
18618W        W83845  44.228  30.596   2.205
18619W        W83846  30.253  14.559   0.785
18620W        W83847  23.370  11.574  12.482
18621W        W83848  21.993  29.545   0.350
18622W        W83849  11.929  37.541  10.662
18623W        W83850  35.590  42.609   1.295
18624W        W83851  19.103  25.482  10.691
18625W        W83852  16.269  32.683   3.321
18626W        W83853  11.996  33.982   0.859
18627W        W83854   9.405  14.848  14.527
18628W        W83855  28.463   2.395   0.368
18629W        W83856   9.135  13.301   2.850
18630W        W83857  11.114  43.398  11.133
18631W        W83858  27.262  17.219   3.950
18632W        W83859  29.563  31.103   2.978
18633W        W83860  28.003   3.311  10.650
18634W        W83861  39.541  11.330   1.540
18635W        W83862  14.884   8.749  11.646
18636W        W83863  43.916  25.215  14.303
18637W        W83864  29.666  33.515   0.303
18638W        W83865  21.508  33.683   0.930
18639W        W83866  41.237  31.559   0.436
18640W        W83867  20.823  35.582  13.162
18641W        W83868  40.083  34.517   1.897
18642W        W83869  37.505  34.612   0.650
18643W        W83870   5.460  36.019  13.516
18644W        W83871  23.046  16.283   3.287
18645W        W83872  12.289  16.884  10.216
18646W        W83873  33.315  31.585  12.934
18647W        W83874  16.749   7.596   1.372
18648W        W83875  33.559  37.345   2.776
18649W        W83876  12.602  32.340   3.151
18650W        W83877   4.674   6.808  10.964
18651W        W83878  40.442  35.936  10.365
18652W        W83879   0.009  42.106  13.975
18653W        W83880  43.854  34.124  11.197
18654W        W83881   1.756  10.158   2.619
18655W        W83882  39.412  27.638   4.190
18656W        W83883   8.101  37.046   3.411
18657W        W83884  21.564  30.027  11.748
18658W        W83885  38.678  34.924  11.687
18659W        W83886  41.326  42.833   3.549
18660W        W83887   3.894  11.729   3.853
18661W        W83888  32.973  33.400  11.942
18662W        W83889   0.369  16.153   4.548
18663W        W83890  39.620  19.995   0.913
18664W        W83891  25.461  15.896  13.280
18665W        W83892  40.464  13.094   0.984
18666W        W83893  26.999  42.856  12.422
18667W        W83894  23.788  18.069  11.155
18668W        W83895  17.295  41.914   2.666
18669W        W83896   2.877   1.052  11.367
18670W        W83897  43.855   8.871  12.658
18671W        W83898   8.258  21.806  14.491
18672W        W83899  13.646  29.530   2.847
18673W        W83900   8.375  14.668   3.840
18674W        W83901  10.268  44.962   0.836
18675W        W83902  12.249   8.235  10.538
18676W        W83903  42.077  20.607   3.575
18677W        W83904  42.962  44.417  12.832
18678W        W83905  19.611  25.971   1.903
18679W        W83906  15.245  40.260   0.974
18680W        W83907   4.758  32.627  14.777
18681W        W83908  40.364  20.556   0.918
18682W        W83909  28.527  29.445   3.600
18683W        W83910  40.505  41.062   4.076
18684W        W83911  16.100  25.535  11.666
18685W        W83912  36.017  24.566  10.680
18686W        W83913  15.222   4.787   2.674
18687W        W83914  38.336   3.748  13.840
18688W        W83915  35.587  25.151  14.386
18689W        W83916   4.353   5.244   4.503
18690W        W83917  27.660  24.606   1.594
18691W        W83918  33.131  31.498   0.894
18692W        W83919  32.949  43.940  13.603
18693W        W83920  11.699  13.005   1.426
18694W        W83921  29.023  33.350   2.504
18695W        W83922  26.706   6.865  14.300
18696W        W83923  42.087  18.814  10.254
18697W        W83924   3.240  40.908   0.168
18698W        W83925  25.833  43.058   0.762
18699W        W83926  21.192  17.242  12.317
18700W        W83927  41.785  15.474  13.520
18701W        W83928  34.846  24.183  10.734
18702W        W83929  42.926  42.356  11.909
18703W        W83930  30.376  26.413   2.172
18704W        W83931  44.528  32.903  12.898
18705W        W83932   2.231   1.372  14.534
18706W        W83933  22.305  36.807   0.813
18707W        W83934   8.415  32.501   0.988
18708W        W83935  26.597  27.715  14.165
18709W        W83936  23.920  12.112  12.407
18710W        W83937   2.914  42.849  11.152
18711W        W83938  30.539   2.731   1.313
18712W        W83939  27.809  34.059  14.319
18713W        W83940  36.546  37.916   2.736
18714W        W83941  18.279   9.974   0.880
18715W        W83942   4.929   8.118  10.704
18716W        W83943  41.813  10.307   2.368
18717W        W83944  24.496  12.605  11.609
18718W        W83945  13.501  32.840   1.258
18719W        W83946  35.495  43.610   4.434
18720W        W83947  19.751   4.709  12.637
18721W        W83948  13.309  25.611  12.455
18722W        W83949   5.195  33.799   1.877
18723W        W83950  16.052  38.648  13.052
18724W        W83951  40.819  14.227  13.517
18725W        W83952  12.334  14.343  14.417
18726W        W83953  20.659  25.376  12.185
18727W        W83954  24.897  34.278  11.848
18728W        W83955  44.513  39.314  14.717
18729W        W83956  40.675   1.069   2.331
18730W        W83957  38.669  23.740  13.998
18731W        W83958  27.111  37.056  12.131
18732W        W83959   1.978  25.486   1.351
18733W        W83960  34.898  16.343   3.276
18734W        W83961  40.926   3.391   0.743
18735W        W83962  40.888  26.254  11.222
18736W        W83963  23.256  26.796   4.268
18737W        W83964   5.930  20.960  13.468
18738W        W83965   9.820  28.152  10.858
18739W        W83966  38.869   9.101   0.701
18740W        W83967   5.913   7.709  12.574
18741W        W83968  34.868  41.229  10.207
18742W        W83969   5.250  16.863  10.332
18743W        W83970  11.614   2.045   4.152
18744W        W83971  38.902  37.556  13.752
18745W        W83972  18.659  42.448  11.223
18746W        W83973  44.984  11.779   0.734
18747W        W83974  33.622   2.778  14.743
18748W        W83975  33.541   2.381   2.633
18749W        W83976  23.922   8.720   2.703
18750W        W83977  19.246  24.064   3.634
18751W        W83978  19.711   5.915   0.883
18752W        W83979  35.547   1.493   0.330
18753W        W83980  28.973  10.281   0.769
18754W        W83981  34.760  32.151  12.036
18755W        W83982   0.444  17.283   2.568
18756W        W83983  39.334  40.841   1.690
18757W        W83984  19.910  29.707   4.234
18758W        W83985  38.900  33.534  12.115
18759W        W83986  12.247  41.066  11.117
18760W        W83987   9.533  23.185  11.395
18761W        W83988  39.155  22.478  11.558
18762W        W83989  30.671  13.274  13.021
18763W        W83990  35.885  38.355  13.878
18764W        W83991  36.947  36.540  11.886
18765W        W83992   0.392  36.074   1.198
18766W        W83993  10.790  19.753  11.151
18767W        W83994   0.937  31.081   4.100
18768W        W83995  10.896   9.195   0.174
18769W        W83996  42.022  36.034  13.411
18770W        W83997  32.577  12.230   1.720
18771W        W83998  37.145   1.692   3.618
18772W        W83999  26.203  39.375   3.652
18773W        W84000  38.040  32.516  14.448
18774W        W84001  29.402  12.864  13.765
18775W        W84002  41.842  23.057  14.455
18776W        W84003  14.660  16.782  14.404
18777W        W84004  26.499  13.392   0.445
18778W        W84005  21.665   4.734   0.790
18779W        W84006   9.283  12.090  13.348
18780W        W84007  41.453  44.214  14.527
18781W        W84008  25.019   4.064  14.469
18782W        W84009  17.503   2.235  13.328
18783W        W84010  25.045  21.753   2.817
18784W        W84011  10.187  10.837  14.749
18785W        W84012   5.994  12.177   4.565
18786W        W84013  25.214  39.070  14.445
18787W        W84014   3.373  42.926  13.048
18788W        W84015  21.006   5.291  12.349
18789W        W84016  11.968  16.340   3.430
18790W        W84017  42.788  15.863  13.931
18791W        W84018  12.216  13.274   4.216
18792W        W84019  17.983  40.124  13.480
18793W        W84020  37.205  40.720   3.777
18794W        W84021  16.846   3.410   0.875
18795W        W84022   2.651  38.651   0.371
18796W        W84023  43.759   3.685  10.756
18797W        W84024  44.888  21.009   3.789
18798W        W84025  11.686  34.884  13.426
18799W        W84026   0.090   8.379   0.911
18800W        W84027  30.783  43.506   3.756
18801W        W84028  41.301  40.961  13.374
18802W        W84029   3.032  28.592  13.929
18803W        W84030  44.406  26.163  11.655
18804W        W84031   5.944   7.669   3.649
18805W        W84032  12.493   9.115  10.878
18806W        W84033  41.322  22.179  13.164
18807W        W84034  21.950   4.630   1.914
18808W        W84035   9.396  41.447  11.708
18809W        W84036  25.717   2.844   1.433
18810W        W84037  17.067   1.154   4.618
18811W        W84038   4.245  26.440  12.008
18812W        W84039   3.929  25.713  11.592
18813W        W84040  39.558  23.486   4.498
18814W        W84041  18.086   5.916  13.578
18815W        W84042  15.575  29.056   4.550
18816W        W84043   8.442   4.386  12.596
18817W        W84044   8.300  10.622   3.370
18818W        W84045  13.134  25.305   1.011
18819W        W84046  20.618  41.919  13.741
18820W        W84047  42.794  10.352  12.702
18821W        W84048  34.659  42.248   2.892
18822W        W84049  37.229  38.004  10.744
18823W        W84050   7.727  36.971   0.912
18824W        W84051   4.409  20.214  11.178
18825W        W84052  34.390   2.861   3.292
18826W        W84053  37.587   0.472   3.718
18827W        W84054   9.860  25.454  14.782
18828W        W84055  20.589  21.526   1.009
18829W        W84056  17.223  32.259   2.225
18830W        W84057  27.125  33.702   4.565
18831W        W84058  38.381   4.090  14.434
18832W        W84059  38.999   9.425   1.523
18833W        W84060   5.258  37.830   9.945
18834W        W84061  37.372  32.571   3.560
18835W        W84062   4.457  27.084   5.441
18836W        W84063   8.378  43.777  13.796
18837W        W84064   0.441  19.247   3.147
18838W        W84065   4.405   1.706   4.324
18839W        W84066  23.481  38.351  14.997
18840W        W84067  19.798  22.212  10.999
18841W        W84068  12.643  32.902  11.129
18842W        W84069  36.034  44.900  14.728
18843W        W84070   1.643  35.470   4.184
18844W        W84071   8.360   1.993   2.696
18845W        W84072   7.936  35.911   0.915
18846W        W84073  13.761   2.899   4.022
18847W        W84074  28.593  40.916  12.392
18848W        W84075  36.096  40.394  11.473
18849W        W84076   6.613  28.450  11.955
18850W        W84077   3.944   0.871   1.690
18851W        W84078  13.899  34.551   3.281
18852W        W84079  26.997  28.932   3.075
18853W        W84080  12.327  10.815   2.085
18854W        W84081  18.090  18.733  11.621
18855W        W84082  19.308  19.320   3.932
18856W        W84083  10.185   0.727   2.282
18857W        W84084   9.131  36.049  13.341
18858W        W84085   9.103   4.342  13.799
18859W        W84086  17.148  14.668   4.326
18860W        W84087   0.002  37.013   0.499
18861W        W84088  38.966   8.815  14.865
18862W        W84089  28.966  11.788   1.639
18863W        W84090  43.715   3.655   2.175
18864W        W84091  39.491  13.648  13.056
18865W        W84092  30.472  41.320  12.561
18866W        W84093   2.167   0.927  13.557
18867W        W84094  11.570  42.782   0.450
18868W        W84095   0.963   1.543   3.597
18869W        W84096  16.642  30.691  13.636
18870W        W84097  28.124   7.068   4.147
18871W        W84098  37.127   8.273  12.929
18872W        W84099  34.386  17.711   0.931
18873W        W84100  32.531  20.088   2.159
18874W        W84101   6.169  33.670  11.511
18875W        W84102  38.837  13.321   4.377
18876W        W84103  33.166   4.253   2.842
18877W        W84104   5.285  32.359  14.040
18878W        W84105  15.991  42.787   4.108
18879W        W84106  41.374  22.322   3.184
18880W        W84107   3.467  32.450  12.662
18881W        W84108  20.484  37.086  13.914
18882W        W84109   9.816  15.810  12.984
18883W        W84110   7.961  42.045   4.241
18884W        W84111  21.325  21.466  13.369
18885W        W84112   7.596  30.788   5.024
18886W        W84113   7.509  39.134   5.039
18887W        W84114   4.173  22.565   4.247
18888W        W84115  28.618  39.434  10.672
18889W        W84116  12.777  19.607   2.405
18890W        W84117   8.383   3.686   0.412
18891W        W84118  19.365  41.963  12.012
18892W        W84119   0.239  34.947   1.949
18893W        W84120  19.217  27.817   0.878
18894W        W84121  32.515  17.079  12.504
18895W        W84122  28.197  31.743  11.540
18896W        W84123  11.241  38.516  13.061
18897W        W84124  13.348  18.882  12.723
18898W        W84125  10.522  28.267   0.454
18899W        W84126  38.027  35.884   2.752
18900W        W84127  29.258  31.406  14.422
18901W        W84128   9.916  31.212   0.052
18902W        W84129  23.172  15.261   1.688
18903W        W84130  33.603  13.804   1.709
18904W        W84131  22.491  17.153   4.513
18905W        W84132  23.762  31.555   2.669
18906W        W84133   6.206   3.479  10.770
18907W        W84134   3.730  22.261  14.813
18908W        W84135  34.496   5.365  11.182
18909W        W84136  17.020  33.553   1.993
18910W        W84137  15.603  13.274   1.048
18911W        W84138  23.402  15.255   3.110
18912W        W84139   5.752  44.963   0.661
18913W        W84140  40.531  13.343   2.270
18914W        W84141   7.525  34.452  10.805
18915W        W84142  36.914  28.799  12.420
18916W        W84143  41.328  27.663   3.040
18917W        W84144   2.856  38.423  14.113
18918W        W84145  27.664  42.499  13.876
18919W        W84146   7.646  28.582  10.921
18920W        W84147  14.521   6.455   4.589
18921W        W84148  44.678   7.607  13.757
18922W        W84149   2.602  37.038  12.943
18923W        W84150   5.426   6.838   3.335
18924W        W84151  44.371   7.351  10.427
18925W        W84152  34.421  10.216   2.639
18926W        W84153  36.797  15.027  10.721
18927W        W84154   8.309   4.690   0.292
18928W        W84155  31.126  38.967   4.586
18929W        W84156   8.807  37.321  14.365
18930W        W84157  26.923  11.266  10.529
18931W        W84158  29.390   2.483   4.140
18932W        W84159  16.668   0.983  13.077
18933W        W84160  24.080  31.969   0.885
18934W        W84161  29.716  37.895   0.943
18935W        W84162   2.359   5.204  11.668
18936W        W84163   3.693  22.954  13.123
18937W        W84164  28.571  25.496  11.607
18938W        W84165   7.993  35.347  12.499
18939W        W84166  15.689  37.364   0.791
18940W        W84167  36.334  34.038  11.849
18941W        W84168  35.792  11.342   0.022
18942W        W84169  41.518  22.297   2.164
18943W        W84170  32.800  35.478  10.626
18944W        W84171  32.726  18.620   2.780
18945W        W84172  32.731  21.275   1.505
18946W        W84173  34.623  13.307   2.247
18947W        W84174  20.607  37.356  12.538
18948W        W84175  34.083  13.658  11.549
18949W        W84176  43.727  15.126   1.421
18950W        W84177  18.779  23.742  13.398
18951W        W84178  14.280  36.593  13.503
18952W        W84179  35.145  42.069   1.838
18953W        W84180  38.495  10.087  11.474
18954W        W84181  32.125  10.917  11.218
18955W        W84182  37.909  34.062   2.709
18956W        W84183  30.874  23.285   0.184
18957W        W84184   4.274  20.536   3.678
18958W        W84185   7.923  13.637  14.401
18959W        W84186   3.380  28.235  14.254
18960W        W84187  15.270  18.262   3.311
18961W        W84188  43.335  35.093   4.249
18962W        W84189  33.489  37.105  12.852
18963W        W84190  14.686   5.914  13.850
18964W        W84191  36.014   2.746  13.474
18965W        W84192   5.430  35.621  11.094
18966W        W84193  25.962  29.884  13.235
18967W        W84194  11.758  39.947  12.307
18968W        W84195  25.469   3.749   0.451
18969W        W84196  17.043   5.567   4.939
18970W        W84197  44.490   2.457   0.158
18971W        W84198  43.335  29.738   0.559
18972W        W84199  38.000  36.582   3.818
18973W        W84200   7.932   2.716  11.795
18974W        W84201  26.597  18.197  13.021
18975W        W84202  41.016  42.504  11.545
18976W        W84203   4.875   7.464   4.813
18977W        W84204  13.406  23.913  12.626
18978W        W84205  11.665  29.906  11.655
18979W        W84206  14.184  13.141  11.534
18980W        W84207  44.010  12.296   3.996
18981W        W84208  21.671  42.826   1.822
18982W        W84209   0.021  12.199  11.549
18983W        W84210  29.232  33.643  11.101
18984W        W84211   6.967  37.491  13.908
18985W        W84212  32.152  18.692   1.886
18986W        W84213  19.225  19.549  13.006
18987W        W84214  36.610  24.059  12.818
18988W        W84215  44.367  20.568   4.925
18989W        W84216  18.528  27.619  13.923
18990W        W84217  33.478   3.987  13.604
18991W        W84218  33.401  38.530  12.452
18992W        W84219  12.562   8.807   0.417
18993W        W84220   2.152  34.096   0.856
18994W        W84221  44.301  44.230  12.145
18995W        W84222  27.045   4.730  12.039
18996W        W84223  37.553  13.670  14.009
18997W        W84224  26.040  17.234   0.187
18998W        W84225  42.522   2.476   2.572
18999W        W84226  34.528  12.860  10.602
19000W        W84227  25.021   6.701   2.753
19001W        W84228  16.226  29.810  13.651
19002W        W84229  27.218   1.331  11.607
19003W        W84230   6.878  34.587  12.146
19004W        W84231  42.360  40.489   1.673
19005W        W84232  22.208  32.578  10.635
19006W        W84233   8.154   7.145   1.988
19007W        W84234  17.221  36.655  11.187
19008W        W84235  17.377  41.393  14.004
19009W        W84236  39.048   4.183  14.400
19010W        W84237  39.930  15.670   1.409
19011W        W84238  19.566  39.531   3.816
19012W        W84239  43.991  32.548   3.581
19013W        W84240  10.284  43.076  12.199
19014W        W84241   6.830  44.742  11.957
19015W        W84242  16.496  11.133  12.466
19016W        W84243   1.705  26.079   2.278
19017W        W84244  20.006  14.073  13.552
19018W        W84245  26.028  20.592   3.537
19019W        W84246  21.652  41.337  12.626
19020W        W84247   7.200  26.404   0.430
19021W        W84248   4.403  37.385   2.746
19022W        W84249  44.997  43.277   0.836
19023W        W84250  31.953  10.597   4.109
19024W        W84251  35.778  13.734  13.003
19025W        W84252   4.450   3.225  13.079
19026W        W84253   5.279  44.457   3.538
19027W        W84254  16.382  29.410  13.963
19028W        W84255   4.518  26.241  14.092
19029W        W84256  17.300   3.963  14.046
19030W        W84257  22.737  18.028  12.297
19031W        W84258  10.342  44.002  11.350
19032W        W84259  14.611  34.621   1.382
19033W        W84260  13.028   0.398  13.350
19034W        W84261  21.549  28.720   2.829
19035W        W84262  11.169  13.024  12.100
19036W        W84263  40.787  27.046  11.471
19037W        W84264   9.811  41.383  10.889
19038W        W84265  11.363   5.394  13.295
19039W        W84266  30.919  20.992   3.696
19040W        W84267  34.702  43.548  13.459
19041W        W84268  35.113  24.016   1.816
19042W        W84269  10.869  25.296  13.383
19043W        W84270   7.299  35.990  10.802
19044W        W84271  38.430  10.269  14.088
19045W        W84272  37.348  29.072  10.662
19046W        W84273  15.262  40.949   4.850
19047W        W84274  14.576  17.091   2.240
19048W        W84275  15.834  21.944   2.796
19049W        W84276  11.702  31.300   5.018
19050W        W84277  22.190  38.600   2.670
19051W        W84278  33.657  40.371   3.635
19052W        W84279  35.014  41.785  10.446
19053W        W84280  20.089  17.461   4.731
19054W        W84281  31.241  36.036   1.475
19055W        W84282  29.390  13.740   1.334
19056W        W84283  17.810  23.270   0.894
19057W        W84284  16.923  14.749  11.606
19058W        W84285  22.814  20.295  11.537
19059W        W84286  44.057  23.301   3.240
19060W        W84287  38.860  43.850   4.505
19061W        W84288   1.705  36.168  11.520
19062W        W84289   7.376  39.869   2.291
19063W        W84290   1.469  43.940   1.819
19064W        W84291  35.558  13.560   0.333
19065W        W84292  20.643  34.902  10.617
19066W        W84293  32.215  41.703  12.390
19067W        W84294  10.195  20.076   0.512
19068W        W84295   7.130  37.573   1.778
19069W        W84296  43.899  38.014   4.345
19070W        W84297  10.371  28.707   0.745
19071W        W84298  41.513  30.562   2.217
19072W        W84299  25.717  36.906  13.831
19073W        W84300  19.415  18.073   3.560
19074W        W84301  36.376  20.575  13.077
19075W        W84302  17.906  18.162  11.928
19076W        W84303  38.000  22.454   2.237
19077W        W84304  33.652   7.093  11.182
19078W        W84305   3.047  21.696  13.593
19079W        W84306  19.194  10.900  13.540
19080W        W84307  20.540  24.598  10.679
19081W        W84308  23.700  38.883   2.898
19082W        W84309  43.769  13.768  10.549
19083W        W84310  24.082  20.615  12.146
19084W        W84311  28.664  19.521   3.814
19085W        W84312  35.779  34.792  12.865
19086W        W84313  10.229  10.671  11.597
19087W        W84314  26.146  25.305   3.680
19088W        W84315  26.564   7.698   0.333
19089W        W84316   0.787  24.905   9.743
19090W        W84317  29.831   7.785   2.426
19091W        W84318  12.782  44.504  13.636
19092W        W84319  41.772  22.856   2.895
19093W        W84320  10.736   0.225   4.616
19094W        W84321  39.322  43.107  14.324
19095W        W84322  20.930  31.039   4.568
19096W        W84323   2.069   3.422  13.020
19097W        W84324  43.260  42.105   2.692
19098W        W84325  41.907  15.596   4.130
19099W        W84326  31.599   9.882  10.759
19100W        W84327  12.194  20.147  13.389
19101W        W84328  20.117   2.697  14.395
19102W        W84329  14.381  33.411  14.049
19103W        W84330   2.941   5.284  13.768
19104W        W84331   3.400  25.158   2.215
19105W        W84332  36.230  41.593  13.925
19106W        W84333  42.904   1.868   3.739
19107W        W84334  42.947  15.703   3.515
19108W        W84335  41.807  30.630   4.124
19109W        W84336  21.992   6.720   3.787
19110W        W84337  29.205   9.864   3.687
19111W        W84338  17.134  40.352   0.181
19112W        W84339  43.086  15.217   3.771
19113W        W84340   1.733  11.671   4.746
19114W        W84341  18.257  36.301   1.671
19115W        W84342   0.338  28.511  12.307
19116W        W84343  34.593   0.409   2.716
19117W        W84344  44.353  19.261  14.079
19118W        W84345   9.393  16.537   0.353
19119W        W84346  14.826   9.294  10.792
19120W        W84347  26.514  38.731   2.305
19121W        W84348  40.011  34.958  14.754
19122W        W84349  22.225   1.834  13.876
19123W        W84350   8.824  37.874   3.706
19124W        W84351   9.162  36.499   3.887
19125W        W84352  29.515  30.146   1.740
19126W        W84353  20.155   1.880  12.861
19127W        W84354  30.456  29.901   3.631
19128W        W84355  23.303  33.097  14.050
19129W        W84356  39.138  41.140   0.796
19130W        W84357   8.775  15.409   3.226
19131W        W84358  24.501  33.402  10.639
19132W        W84359  11.321  16.139   4.615
19133W        W84360  31.870   3.300  13.970
19134W        W84361   3.203  41.423   2.499
19135W        W84362   3.790  23.330  12.212
19136W        W84363  34.571  14.690  11.904
19137W        W84364   7.232  43.771  12.568
19138W        W84365  18.649  18.579   1.825
19139W        W84366  27.584  40.844   4.427
19140W        W84367   4.941   6.943   1.019
19141W        W84368   7.844   5.805  11.188
19142W        W84369  30.071   0.014  13.587
19143W        W84370   1.866  28.753  14.435
19144W        W84371  23.152  24.110   1.916
19145W        W84372  28.543  43.213  12.344
19146W        W84373  16.156  26.809  11.513
19147W        W84374   9.166  13.901  14.764
19148W        W84375  24.421  25.851  13.089
19149W        W84376  42.402  10.252  11.944
19150W        W84377  25.399  21.261   5.001
19151W        W84378  37.136  40.317   1.556
19152W        W84379   5.540  34.258  13.429
19153W        W84380  16.763  10.882  11.633
19154W        W84381  31.112  13.277  14.302
19155W        W84382   5.188  25.622   4.230
19156W        W84383  23.677  34.300  11.090
19157W        W84384  18.860  42.905  14.866
19158W        W84385   3.983   8.575   3.230
19159W        W84386  32.990  14.875  13.031
19160W        W84387   7.806  10.337   2.786
19161W        W84388  14.157  13.276  10.652
19162W        W84389  28.152  11.608   4.534
19163W        W84390  11.984  39.527   0.363
19164W        W84391  37.298   5.281  14.402
19165W        W84392   7.258   0.417   2.099
19166W        W84393  25.997  22.461  13.744
19167W        W84394   9.852  39.545  10.861
19168W        W84395   6.603   2.982  11.566
19169W        W84396  28.356  19.051  12.427
19170W        W84397   6.915  42.814  12.147
19171W        W84398  40.509  15.581  12.950
19172W        W84399  19.140   2.774   4.261
19173W        W84400  44.986  15.851  14.420
19174W        W84401   5.875  38.253  13.203
19175W        W84402  41.021  17.577  14.167
19176W        W84403  42.927  37.607   3.570
19177W        W84404  28.608  34.300   2.114
19178W        W84405  20.168   9.577   4.171
19179W        W84406  29.397   0.184   4.160
19180W        W84407  18.336  25.825   3.075
19181W        W84408  25.318  18.746   1.865
19182W        W84409  14.092  27.154  11.172
19183W        W84410  36.158  26.278  10.295
19184W        W84411  42.160  40.290   3.681
19185W        W84412  20.643  28.274   2.806
19186W        W84413  39.546  35.613   3.628
19187W        W84414  27.150   1.443   3.798
19188W        W84415  16.725  31.413  14.898
19189W        W84416  13.084  19.760   3.165
19190W        W84417  10.199  29.927  14.430
19191W        W84418  20.838  42.490   1.865
19192W        W84419  24.759  28.453   3.226
19193W        W84420  30.508  36.508   1.719
19194W        W84421  25.620   4.952  12.405
19195W        W84422   6.365  37.293   3.392
19196W        W84423   4.329   8.573  11.136
19197W        W84424  27.802  28.524  10.129
19198W        W84425  16.567  36.040   1.332
19199W        W84426   7.169  33.066  13.107
19200W        W84427  42.878  36.853  10.787
19201W        W84428  10.266   6.822   0.748
19202W        W84429  17.482  13.395  12.181
19203W        W84430  28.337   7.701  11.011
19204W        W84431  42.045  19.595   2.744
19205W        W84432  11.338   9.203   2.724
19206W        W84433  12.876   0.921  12.686
19207W        W84434   5.728  17.760   1.286
19208W        W84435  25.084  14.609  11.615
19209W        W84436  12.171  26.576  11.730
19210W        W84437  28.190  44.338   1.265
19211W        W84438  19.277  19.644  14.504
19212W        W84439  35.638  34.529   4.875
19213W        W84440  14.973   2.458   1.311
19214W        W84441   4.187  20.492   2.694
19215W        W84442  37.423   3.256  11.954
19216W        W84443  24.534  25.029   1.867
19217W        W84444  25.293  22.413   4.211
19218W        W84445  32.661   4.816  11.450
19219W        W84446  20.075   6.327   2.436
19220W        W84447  25.083  37.997   2.391
19221W        W84448  20.422   1.455  14.703
19222W        W84449  39.120   8.136  11.031
19223W        W84450   4.678  33.061  11.102
19224W        W84451   3.729  18.494   0.781
19225W        W84452   2.810  30.026  14.087
19226W        W84453  23.080  44.155   4.561
19227W        W84454  22.987  24.188  13.494
19228W        W84455   9.415  14.663  12.667
19229W        W84456  40.841  16.717   0.284
19230W        W84457   1.470  38.513  11.457
19231W        W84458  32.856  38.579  13.666
19232W        W84459   7.149  30.961  12.038
19233W        W84460  16.790  12.290   4.116
19234W        W84461   0.348  30.455  11.908
19235W        W84462   2.769  33.556   3.944
19236W        W84463   0.823   3.043   3.130
19237W        W84464   9.924  24.653  13.833
19238W        W84465  41.366  41.938   0.926
19239W        W84466   4.905  28.666  11.216
19240W        W84467  27.257  28.312   0.993
19241W        W84468  22.693  28.625  14.760
19242W        W84469  37.459   7.604   3.932
19243W        W84470  13.710   0.493   4.635
19244W        W84471   5.886  18.466   1.105
19245W        W84472  31.013   3.396  13.850
19246W        W84473   4.758  17.759   0.844
19247W        W84474   7.622  40.809   0.719
19248W        W84475  12.722  10.417   2.797
19249W        W84476  11.258   5.223  12.291
19250W        W84477  16.048   2.451  14.970
19251W        W84478  44.502  21.668   3.076
19252W        W84479  20.661  15.256  11.622
19253W        W84480  27.383  25.266  13.279
19254W        W84481  44.288  39.128   3.540
19255W        W84482  12.396  41.936   0.038
19256W        W84483  17.009  34.187   2.817
19257W        W84484  10.349   9.995   3.951
19258W        W84485  40.007  40.816   0.373
19259W        W84486  19.243   1.593   2.337
19260W        W84487   2.768  21.204   3.665
19261W        W84488  16.791  11.333  11.158
19262W        W84489  32.948  41.830  13.119
19263W        W84490  36.546   4.510   1.877
19264W        W84491  14.447   9.636  14.438
19265W        W84492  36.997   6.285   1.391
19266W        W84493  40.637   3.350   1.208
19267W        W84494  37.631  29.214   2.835
19268W        W84495  31.887  42.913  11.248
19269W        W84496  29.002  12.666   2.108
19270W        W84497  18.584  25.118   4.930
19271W        W84498  30.172   8.330   1.546
19272W        W84499  27.699  34.521  11.994
19273W        W84500  33.938  27.749  10.226
19274W        W84501  16.998  40.333  13.387
19275W        W84502  44.484   0.726  13.400
19276W        W84503  26.218  26.484  12.060
19277W        W84504   5.742  34.638  13.897
19278W        W84505  40.963  31.542  12.910
19279W        W84506  17.735  20.277   2.689
19280W        W84507   9.664  15.687   1.150
19281W        W84508  23.434  29.121  14.967
19282W        W84509  32.673  12.367   3.815
19283W        W84510   0.309  22.648   3.172
19284W        W84511   1.695   8.136  14.735
19285W        W84512  29.143  26.179  12.893
19286W        W84513   7.173  13.108   3.928
19287W        W84514  13.788   0.708  12.509
19288W        W84515  19.840  25.743  12.882
19289W        W84516  36.511  29.256  11.829
19290W        W84517  42.004  42.040   1.180
19291W        W84518  21.033   0.810  12.939
19292W        W84519   8.399  10.362  13.455
19293W        W84520  34.558   9.748  14.890
19294W        W84521   8.591   6.789  11.955
19295W        W84522  31.556  12.570  11.408
19296W        W84523  26.465  30.756   3.177
19297W        W84524  38.809  28.442   0.743
19298W        W84525   9.124  27.494   3.658
19299W        W84526  10.361  24.700   0.814
19300W        W84527   6.940  29.278   4.664
19301W        W84528   3.058  10.796   2.637
19302W        W84529   0.431  18.271   2.874
19303W        W84530   9.328  32.567  12.398
19304W        W84531  26.984   0.042  14.388
19305W        W84532  27.247  30.064  12.897
19306W        W84533  34.825  39.801  14.478
19307W        W84534   5.183  39.102   1.309
19308W        W84535  25.519  29.580  11.706
19309W        W84536  22.525  15.303   4.193
19310W        W84537   3.818   3.021  11.963
19311W        W84538   1.547  22.604   3.676
19312W        W84539  33.899  16.477   4.031
19313W        W84540  17.315  33.159  14.877
19314W        W84541  18.140  27.644   4.110
19315W        W84542  13.140  43.346  10.870
19316W        W84543  25.109  17.643   3.008
19317W        W84544   3.796   8.116  13.954
19318W        W84545  18.090   5.797   2.304
19319W        W84546  34.303   2.102   2.268
19320W        W84547  42.283   6.782  12.420
19321W        W84548  21.628  37.586   0.670
19322W        W84549  36.472  26.548   1.387
19323W        W84550   3.281  26.757   1.924
19324W        W84551  34.363  23.673  14.334
19325W        W84552  16.106  26.578  14.098
19326W        W84553   6.829  22.363  14.129
19327W        W84554  30.277  23.390  12.632
19328W        W84555  37.094  23.141   1.072
19329W        W84556  21.519  26.801   2.702
19330W        W84557  24.825  14.674   2.102
19331W        W84558  35.347  19.208  11.715
19332W        W84559   5.359   7.462  10.431
19333W        W84560  19.842   0.501   2.658
19334W        W84561  14.223  32.429   0.343
19335W        W84562   4.825   9.703   2.258
19336W        W84563  38.398  25.151   4.658
19337W        W84564  25.243  41.563   1.007
19338W        W84565  16.593  21.204  10.972
19339W        W84566  22.073   6.824   1.697
19340W        W84567   2.751  41.004  13.761
19341W        W84568   5.273   8.404   0.440
19342W        W84569   9.257  22.950  14.461
19343W        W84570   9.268   0.370  14.772
19344W        W84571   3.682  14.869  13.799
19345W        W84572   0.176   1.994  13.512
19346W        W84573  21.583  18.492   1.873
19347W        W84574   3.267  32.092   3.367
19348W        W84575  34.983   5.914  13.327
19349W        W84576  40.794   9.358  13.534
19350W        W84577  26.445  40.367  13.014
19351W        W84578   8.841   7.022  13.296
19352W        W84579  10.349  22.680   1.578
19353W        W84580   4.155   3.402  12.106
19354W        W84581   4.998  20.373   2.118
19355W        W84582  26.941  33.253  11.464
19356W        W84583   0.446  31.994   0.212
19357W        W84584  33.429  17.019   2.255
19358W        W84585   5.781  29.254   1.675
19359W        W84586   9.459  22.634  10.741
19360W        W84587   1.022  27.020  13.785
19361W        W84588  42.566  33.980  11.714
19362W        W84589   1.473  18.334   0.403
19363W        W84590  38.470  12.333   4.476
19364W        W84591  42.857  44.917   0.246
19365W        W84592   0.512  29.489  12.563
19366W        W84593  37.592  27.160   3.648
19367W        W84594  22.019  39.988  14.221
19368W        W84595  31.795  34.989  11.894
19369W        W84596  10.817   4.350  12.664
19370W        W84597  40.004  10.282  12.595
19371W        W84598  36.503  35.740   4.118
19372W        W84599  26.700  11.106   2.764
19373W        W84600   1.353  38.575  12.332
19374W        W84601  23.009  18.466  14.930
19375W        W84602  31.013  43.593  13.384
19376W        W84603  12.237  24.517  14.772
19377W        W84604  41.188  39.894   4.579
19378W        W84605  21.046   2.740  13.962
19379W        W84606  41.829  27.628  11.991
19380W        W84607  19.122  34.008   0.235
19381W        W84608  39.303  42.281   4.883
19382W        W84609  16.044  10.293   3.812
19383W        W84610  19.596  33.276   0.898
19384W        W84611  14.092  29.018   2.173
19385W        W84612  41.859   0.453   4.356
19386W        W84613  20.461  11.885  13.851
19387W        W84614  35.275   6.110   1.233
19388W        W84615   1.748  10.382   4.214
19389W        W84616  30.474  24.713  10.525
19390W        W84617  37.367   4.228   0.326
19391W        W84618  28.710  13.199  10.685
19392W        W84619  18.341  12.572   3.685
19393W        W84620  23.268  10.289   3.033
19394W        W84621  22.652   7.052   0.762
19395W        W84622  32.353  15.586  14.836
19396W        W84623  38.825  13.778  11.242
19397W        W84624  25.428  10.022   3.852
19398W        W84625   4.524  29.547  14.050
19399W        W84626  11.148  12.570  14.012
19400W        W84627  19.324  22.070  10.863
19401W        W84628  34.356   7.650   4.076
19402W        W84629  17.058  42.113  13.451
19403W        W84630  30.146  20.361  12.004
19404W        W84631  32.980  44.017   2.272
19405W        W84632  21.953   0.047   1.963
19406W        W84633   9.444  21.831   3.138
19407W        W84634   5.151  28.408   4.080
19408W        W84635  13.568   2.554  13.108
19409W        W84636  34.683  28.515   2.492
19410W        W84637   1.990  35.836   0.227
19411W        W84638  35.727  34.697   0.867
19412W        W84639   6.921  37.080  11.550
19413W        W84640  10.555  34.004   0.732
19414W        W84641   2.748  21.642  14.075
19415W        W84642  43.780   1.787  11.843
19416W        W84643  30.537  22.529  14.079
19417W        W84644  29.518  34.380   2.935
19418W        W84645   0.440  30.206   4.364
19419W        W84646   2.788  36.010   4.437
19420W        W84647  30.419  25.471  12.058
19421W        W84648  25.050   0.068   0.868
19422W        W84649  41.633  35.201   2.159
19423W        W84650   3.713  23.278   0.089
19424W        W84651  38.346  24.188  10.669
19425W        W84652   9.284  44.823  10.718
19426W        W84653   1.743  20.508   0.782
19427W        W84654  26.447  12.190   1.413
19428W        W84655  11.792  30.627  12.900
19429W        W84656  17.850  17.452   4.578
19430W        W84657  19.528  31.915  14.057
19431W        W84658  37.598  27.731   0.918
19432W        W84659  21.160  23.733   1.005
19433W        W84660  18.210  20.212   0.236
19434W        W84661  19.510  30.163  14.382
19435W        W84662   3.393   7.037  11.270
19436W        W84663  13.980  27.922   5.264
19437W        W84664  26.023  28.752   0.818
19438W        W84665   5.908  11.896   0.246
19439W        W84666  12.730  29.240  10.327
19440W        W84667  43.272  14.324   1.383
19441W        W84668  31.160   4.693  14.432
19442W        W84669  15.367   2.411   0.181
19443W        W84670  10.252  19.870  12.571
19444W        W84671   8.140  39.484   4.093
19445W        W84672  19.654   6.863   4.327
19446W        W84673  26.935  10.788  11.576
19447W        W84674  24.712  20.762  13.871
19448W        W84675   6.245   3.172   4.610
19449W        W84676  33.658  19.261  11.985
19450W        W84677   5.721  10.389   4.632
19451W        W84678  34.516  10.929   0.663
19452W        W84679   0.894  37.708  10.690
19453W        W84680  27.902   0.816   0.487
19454W        W84681  33.414  33.110   2.302
19455W        W84682  15.807  39.440   1.869
19456W        W84683  29.649  21.974   2.961
19457W        W84684  26.430  35.474  12.586
19458W        W84685  38.000   2.173   2.080
19459W        W84686  36.422  31.945  11.877
19460W        W84687   0.227  30.508   0.339
19461W        W84688   2.590  31.391  10.247
19462W        W84689  33.847  29.221  11.440
19463W        W84690  18.551   6.798   2.727
19464W        W84691  38.234  41.528  13.965
19465W        W84692   4.630  24.129  11.100
19466W        W84693   1.831  20.240  11.545
19467W        W84694   1.342   5.254   4.108
19468W        W84695  19.506  22.215   3.731
19469W        W84696  28.766  29.609   2.296
19470W        W84697  36.883   3.894  13.571
19471W        W84698  14.801  13.857   1.876
19472W        W84699   0.891  42.302  10.658
19473W        W84700   3.397  28.937  11.978
19474W        W84701  21.700  26.605  14.553
19475W        W84702  12.666   1.454   2.288
19476W        W84703  11.115  15.797   0.869
19477W        W84704   2.100  29.269   4.854
19478W        W84705  32.892   4.368   1.326
19479W        W84706  21.235  35.828   0.378
19480W        W84707  36.788   4.948   1.752
19481W        W84708   6.094  37.680  12.880
19482W        W84709  37.428  19.838   3.193
19483W        W84710  25.506   2.415   3.553
19484W        W84711  30.748  15.858  14.499
19485W        W84712  44.327  40.737   0.904
19486W        W84713  12.533  16.994   4.575
19487W        W84714  34.943  43.807   2.180
19488W        W84715  32.618   9.122  14.506
19489W        W84716  15.932  38.862  11.431
19490W        W84717  24.107  24.503   4.010
19491W        W84718  43.948  35.568  11.226
19492W        W84719  40.312   9.453   3.399
19493W        W84720   5.431  10.309  14.739
19494W        W84721  26.626  36.128   0.933
19495W        W84722  25.935  38.900  13.582
19496W        W84723  36.447  41.300  10.941
19497W        W84724   7.361  37.112   0.043
19498W        W84725  24.974   9.179   4.244
19499W        W84726  15.062  22.734   4.097
19500W        W84727  37.016  16.844   4.655
19501W        W84728  25.179   5.179  12.605
19502W        W84729  19.113  44.738   4.023
19503W        W84730  39.098  13.358  12.094
19504W        W84731  30.884   5.360   4.633
19505W        W84732   1.197  43.273   2.993
19506W        W84733  28.581  23.004   4.295
19507W        W84734   6.263   0.465   4.306
19508W        W84735   6.729  33.303  11.135
19509W        W84736  16.804  11.709   2.301
19510W        W84737  37.836  17.641  12.524
19511W        W84738  43.395  20.218   3.194
19512W        W84739   4.951   5.334  13.674
19513W        W84740  14.488  14.925   0.889
19514W        W84741  10.196  18.686  14.939
19515W        W84742  25.433   1.950   3.358
19516W        W84743  15.181  35.922   3.215
19517W        W84744  38.737  36.499  11.689
19518W        W84745  18.777   9.850   0.760
19519W        W84746  37.861  21.506  13.402
19520W        W84747  20.497  15.028   1.301
19521W        W84748  16.767  44.507   0.620
19522W        W84749  36.080  43.569  12.080
19523W        W84750  43.569  28.071   3.198
19524W        W84751  38.858  43.115  14.832
19525W        W84752   5.060   5.688   0.264
19526W        W84753  30.122  13.689  12.497
19527W        W84754  23.474  29.217   2.126
19528W        W84755  37.252  22.716   1.405
19529W        W84756  11.072  17.470   3.910
19530W        W84757  37.578  21.480  12.962
19531W        W84758  26.804   5.686   2.711
19532W        W84759  31.842  25.591   2.279
19533W        W84760   9.257   2.457  11.678
19534W        W84761   6.688  12.494   0.527
19535W        W84762  13.838  43.382   3.299
19536W        W84763  16.120  32.921   1.329
19537W        W84764  30.995  31.871  11.549
19538W        W84765  31.362  30.637  14.109
19539W        W84766  12.664  27.439  13.356
19540W        W84767  21.265  42.496   1.099
19541W        W84768  23.752   7.573  11.116
19542W        W84769  23.536  33.603  14.441
19543W        W84770  15.739  15.129   4.426
19544W        W84771  39.378  13.374  10.558
19545W        W84772  28.581  36.258  12.134
19546W        W84773  25.805  11.084   1.091
19547W        W84774  21.026   4.465  11.722
19548W        W84775  30.960  35.132  13.376
19549W        W84776  33.170  25.584  10.468
19550W        W84777  36.628  20.521   1.662
19551W        W84778  30.609  10.203  12.058
19552W        W84779  35.168  12.411  14.072
19553W        W84780  22.075  29.193   3.680
19554W        W84781   3.065  19.568  14.905
19555W        W84782  22.769  19.701  12.945
19556W        W84783  18.816  21.656  13.875
19557W        W84784  25.596  35.752  12.949
19558W        W84785   0.040  37.473   2.287
19559W        W84786  19.432  31.363  11.284
19560W        W84787  31.371  20.306  11.652
19561W        W84788  27.939  39.052   4.050
19562W        W84789   1.412  15.856   1.422
19563W        W84790   4.783  12.647   1.476
19564W        W84791  23.380  37.429   2.669
19565W        W84792  14.173  13.682   2.856
19566W        W84793  40.341  13.832   1.407
19567W        W84794  37.492  11.264   3.677
19568W        W84795  26.660  17.529  14.423
19569W        W84796  18.234  17.061   2.861
19570W        W84797  40.982  30.729  14.490
19571W        W84798  17.765  43.002  10.240
19572W        W84799  33.998  22.985  13.067
19573W        W84800  27.090  28.409   0.106
19574W        W84801  11.448  12.648   0.896
19575W        W84802  18.888  12.720  11.642
19576W        W84803   6.343  38.432  11.580
19577W        W84804   1.612  24.980   4.588
19578W        W84805   4.922  13.571   0.476
19579W        W84806   8.636  23.672   2.142
19580W        W84807  21.532  43.571   0.679
19581W        W84808  14.523  28.994   5.137
19582W        W84809  12.566  23.412   4.966
19583W        W84810   8.951  21.489  11.489
19584W        W84811  12.618  12.378   4.564
19585W        W84812  12.339  38.378   0.927
19586W        W84813  38.090  38.453  11.536
19587W        W84814  22.193  19.822   0.284
19588W        W84815  39.422   7.257   2.260
19589W        W84816   1.709  41.886   1.965
19590W        W84817  10.201  12.588  10.288
19591W        W84818   4.234  16.889   4.534
19592W        W84819  29.434  11.819  12.935
19593W        W84820   3.433   2.556   2.665
19594W        W84821  30.785   1.728   1.768
19595W        W84822  29.660  43.682   2.758
19596W        W84823  34.205  26.627  13.280
19597W        W84824  29.284  12.776   5.271
19598W        W84825  44.039  11.359  10.678
19599W        W84826  30.596   3.426  13.406
19600W        W84827  29.218  34.459  12.078
19601W        W84828  17.590  31.643  11.494
19602W        W84829  26.140  35.901   2.621
19603W        W84830  24.767  23.548   4.726
19604W        W84831  16.601  30.601  13.086
19605W        W84832  11.683   7.656   2.640
19606W        W84833  43.249  29.214   4.111
19607W        W84834  40.793  36.199   1.094
19608W        W84835  16.760  24.472  13.992
19609W        W84836  33.875  43.334   3.538
19610W        W84837   9.331  26.289  10.777
19611W        W84838  17.319  16.317   2.380
19612W        W84839   8.443   1.882  12.827
19613W        W84840  32.020  13.999  12.939
19614W        W84841   7.596  35.087  11.147
19615W        W84842  26.936  20.979   4.987
19616W        W84843  18.045  11.565   4.015
19617W        W84844  44.989  38.024  11.153
19618W        W84845  17.730  21.778   2.317
19619W        W84846   5.463   5.237   1.384
19620W        W84847  27.543  38.781  10.181
19621W        W84848   2.370  18.551  10.821
19622W        W84849   1.299   0.124  10.943
19623W        W84850  26.923  29.408   5.273
19624W        W84851   6.415  31.155  13.071
19625W        W84852  28.551  33.806   9.959
19626W        W84853  42.339   4.732  14.585
19627W        W84854  20.206  24.158   4.105
19628W        W84855  34.068   8.274  13.130
19629W        W84856  20.969  23.543  12.974
19630W        W84857   4.360  16.614  10.736
19631W        W84858  35.161  31.584   3.833
19632W        W84859   2.797   2.957  11.128
19633W        W84860  36.998   0.510   3.676
19634W        W84861  44.712  37.885   2.294
19635W        W84862  44.705  10.677  10.642
19636W        W84863  27.686  28.609   3.577
19637W        W84864   2.326  39.984   1.170
19638W        W84865  39.908  26.116  12.152
19639W        W84866  44.177   9.262  10.227
19640W        W84867   3.018  18.234   1.231
19641W        W84868  44.920  35.648   3.772
19642W        W84869  40.880  15.794  14.343
19643W        W84870   9.934  22.343   4.532
19644W        W84871  22.746  33.346  12.509
19645W        W84872  25.783  16.128  14.677
19646W        W84873  41.891  42.513   0.439
19647W        W84874   4.873   9.682  11.601
19648W        W84875  31.583  16.581   0.387
19649W        W84876  14.890   7.918   4.311
19650W        W84877  29.539   7.682  13.850
19651W        W84878  27.847  11.223  11.461
19652W        W84879  18.640  27.740   1.813
19653W        W84880  26.877  21.297   4.584
19654W        W84881  17.282   8.127   1.445
19655W        W84882  40.021  44.875   1.634
19656W        W84883  31.353  15.736   4.926
19657W        W84884  13.686  31.050   0.898
19658W        W84885  40.772  15.548  13.403
19659W        W84886   7.125   6.906   4.146
19660W        W84887  14.181  43.602   1.816
19661W        W84888  37.308  18.854  12.578
19662W        W84889  28.637  30.702   0.434
19663W        W84890   4.677  34.842  13.146
19664W        W84891  33.985  23.647  13.975
19665W        W84892  30.233   6.335  12.528
19666W        W84893   2.836   6.273  14.917
19667W        W84894  31.050  38.317   3.873
19668W        W84895  15.898   8.300   2.497
19669W        W84896  30.281  40.941  10.749
19670W        W84897  37.863  12.975  10.397
19671W        W84898  37.839  39.102   2.200
19672W        W84899  43.995  33.919  14.835
19673W        W84900   0.312  40.976   1.044
19674W        W84901  19.016  40.571  11.087
19675W        W84902  40.332  26.775   4.549
19676W        W84903  11.668  24.184  12.509
19677W        W84904  31.466   5.443   1.762
19678W        W84905  19.683  30.391  13.959
19679W        W84906  18.600   2.836   3.631
19680W        W84907  34.294  12.354   2.210
19681W        W84908  35.441   6.949  14.578
19682W        W84909  38.457  24.765   1.211
19683W        W84910  40.267  31.007   0.994
19684W        W84911  30.928  15.774  14.005
19685W        W84912  26.044   8.193   3.503
19686W        W84913   3.130  41.975  12.827
19687W        W84914  13.359  23.056  13.982
19688W        W84915  24.685  25.451  12.889
19689W        W84916  23.842  35.952   2.263
19690W        W84917  18.758  44.169  12.446
19691W        W84918   0.793  31.525  10.800
19692W        W84919  10.630  41.005   1.473
19693W        W84920  24.038   2.427   1.678
19694W        W84921  12.855  22.639   0.737
19695W        W84922  28.629  44.178  10.216
19696W        W84923  22.577  22.566  10.286
19697W        W84924   0.238   1.479  10.295
19698W        W84925  10.837  40.551   0.405
19699W        W84926  13.512  32.957  13.201
19700W        W84927  11.259  43.411   3.990
19701W        W84928  16.192  19.693   2.662
19702W        W84929  22.066  24.714   3.715
19703W        W84930  14.598  24.602  11.532
19704W        W84931  34.312  28.962  13.370
19705W        W84932   7.992   7.645  13.950
19706W        W84933  37.573  35.021   2.392
19707W        W84934  44.739   6.715   1.622
19708W        W84935  30.404  12.857   2.627
19709W        W84936  40.087   0.981   0.234
19710W        W84937  39.218  19.200  13.573
19711W        W84938   7.248  35.930  11.998
19712W        W84939   3.699   0.168   3.668
19713W        W84940  22.246  12.731   0.603
19714W        W84941   1.663   5.352   0.930
19715W        W84942  30.573  19.824   0.861
19716W        W84943  35.813   6.871   0.245
19717W        W84944  27.476  30.408   1.607
19718W        W84945  35.197  39.527  12.552
19719W        W84946  19.568   3.685   4.734
19720W        W84947  15.992   4.943   0.875
19721W        W84948  37.835   7.430   3.602
19722W        W84949   1.902   4.436  14.547
19723W        W84950  37.793  44.774  14.837
19724W        W84951  31.424  32.816  13.499
19725W        W84952   8.804   0.356  14.506
19726W        W84953   0.425   1.471   1.746
19727W        W84954  34.826   6.663   4.527
19728W        W84955  18.168  26.135   2.485
19729W        W84956   4.123  12.817  12.898
19730W        W84957  22.164   7.427  14.938
19731W        W84958  11.080  29.499   9.807
19732W        W84959  31.637  35.552  12.767
19733W        W84960   1.671   2.399  14.312
19734W        W84961  14.589  41.977   1.006
19735W        W84962   0.976  22.561   4.236
19736W        W84963  26.671  32.079   2.636
19737W        W84964  39.560  39.315  14.561
19738W        W84965  12.043   8.263  11.164
19739W        W84966  35.606   1.919  14.386
19740W        W84967  27.959  25.272  12.411
19741W        W84968  33.062  42.043   2.802
19742W        W84969  19.710  40.455  12.298
19743W        W84970  16.612  35.985   0.259
19744W        W84971   3.771  42.364   4.393
19745W        W84972   2.378   3.696  13.315
19746W        W84973   0.941  35.926  12.084
19747W        W84974  37.144  16.649  11.057
19748W        W84975  35.907  36.859  11.421
19749W        W84976   9.696   8.433  13.024
19750W        W84977   3.344  26.913   3.596
19751W        W84978   3.391   1.371   3.053
19752W        W84979  34.476  13.520   1.803
19753W        W84980  30.586  11.698  12.052
19754W        W84981  28.988  17.233   4.093
19755W        W84982  39.305   8.926   1.761
19756W        W84983  34.804  22.325  11.471
19757W        W84984  28.933  31.148   1.689
19758W        W84985   6.360   9.395  11.512
19759W        W84986  22.672  14.603  14.858
19760W        W84987  25.928   6.786   4.562
19761W        W84988   8.249   0.218   2.137
19762W        W84989   5.864   7.429  12.071
19763W        W84990  26.324  37.044   0.862
19764W        W84991  32.987  37.786   3.195
19765W        W84992  18.621   1.162  14.358
19766W        W84993  42.984  10.818   3.681
19767W        W84994  35.619  42.453   3.749
19768W        W84995  14.096  25.527  11.867
19769W        W84996  29.726   6.826  13.299
19770W        W84997  43.730   1.800   1.045
19771W        W84998  37.805  18.972   4.600
19772W        W84999  44.353  23.531   0.693
19773W        W85000  25.991  16.687   0.992
19774W        W85001  43.685  12.657  13.336
19775W        W85002  13.425  38.636   3.124
19776W        W85003  25.993  16.713   4.576
19777W        W85004  24.900  40.354  10.631
19778W        W85005  27.135  41.269  12.270
19779W        W85006  43.803  15.673   0.726
19780W        W85007  42.853   2.743  14.892
19781W        W85008  26.244  37.333  12.369
19782W        W85009  39.068  24.021  10.897
19783W        W85010  12.117  36.748  11.628
19784W        W85011   7.128  27.065   4.126
19785W        W85012   0.587   2.319   2.655
19786W        W85013  31.945  17.676   4.168
19787W        W85014  16.410   9.084  13.351
19788W        W85015  20.224   5.487   1.427
19789W        W85016  39.385  24.047   3.695
19790W        W85017  28.991  18.572  14.442
19791W        W85018  34.405   6.201   0.036
19792W        W85019  38.392  17.685   4.065
19793W        W85020  33.772  34.856  13.067
19794W        W85021  27.936  21.595   1.828
19795W        W85022  33.317  20.960   3.693
19796W        W85023  37.017  20.155  12.242
19797W        W85024  26.331  10.378  12.130
19798W        W85025  21.253  27.943  11.136
19799W        W85026  38.212  32.928   3.581
19800W        W85027  35.367  28.991   1.199
19801W        W85028  42.105  12.924   4.152
19802W        W85029   2.734  25.493   4.079
19803W        W85030  14.796  19.103  10.815
19804W        W85031  15.544  17.633  12.654
19805W        W85032  32.362  13.725   3.063
19806W        W85033  37.320  11.273  14.858
19807W        W85034   7.622  29.825  11.214
19808W        W85035  32.570  23.230   0.362
19809W        W85036  12.834   5.483  12.870
19810W        W85037  15.111  26.419  14.402
19811W        W85038   4.563  36.858  11.351
19812W        W85039  16.502  44.598  13.848
19813W        W85040  37.148  26.397  12.761
19814W        W85041  11.568  37.461   2.650
19815W        W85042  21.071  29.605   1.014
19816W        W85043  41.504  15.097  11.902
19817W        W85044  18.486   7.692  12.918
19818W        W85045  44.336   2.433   4.576
19819W        W85046  38.573  35.476  11.543
19820W        W85047  18.800   8.883   3.683
19821W        W85048  26.163   5.794  13.469
19822W        W85049  20.142  32.673   0.467
19823W        W85050  16.040  22.390   1.384
19824W        W85051  43.416   6.655   2.183
19825W        W85052  14.315   4.959   2.766
19826W        W85053   8.461   0.511   1.745
19827W        W85054  23.433   1.765  12.475
19828W        W85055  42.974  24.133   2.237
19829W        W85056  14.649  20.220  10.746
19830W        W85057  31.948  10.494  10.332
19831W        W85058  26.605   5.501   0.068
19832W        W85059  25.823   0.188  10.222
19833W        W85060  26.140  34.041   4.652
19834W        W85061   8.879  29.258  13.845
19835W        W85062   2.700  31.637   0.431
19836W        W85063   9.757  37.470   2.839
19837W        W85064   1.982  23.578   4.183
19838W        W85065   0.532  41.893   2.365
19839W        W85066  36.430  44.317   2.789
19840W        W85067  16.746  32.202   4.593
19841W        W85068  13.177  21.145   1.924
19842W        W85069  44.782  30.440   2.296
19843W        W85070  23.227   7.197   3.239
19844W        W85071  36.511  14.853  13.872
19845W        W85072  32.295  28.597   3.240
19846W        W85073  31.665  33.694   2.137
19847W        W85074  28.065  15.861  11.167
19848W        W85075  39.680  31.151  13.422
19849W        W85076  20.688  35.651   4.007
19850W        W85077  19.240   9.345  14.567
19851W        W85078  12.107  30.534  13.792
19852W        W85079  18.260  41.199  14.529
19853W        W85080  44.629   6.281   3.153
19854W        W85081  34.794  42.652   0.847
19855W        W85082   1.887  20.888  12.149
19856W        W85083   3.914  11.376  12.077
19857W        W85084  34.793   4.742  13.858
19858W        W85085  16.832  20.168  12.062
19859W        W85086  28.131  12.685   0.623
19860W        W85087  24.604   1.730   2.834
19861W        W85088  38.537  42.107  11.162
19862W        W85089  36.407   9.603   3.350
19863W        W85090  42.696  42.342   0.986
19864W        W85091  15.613   9.847   1.710
19865W        W85092  26.635  29.497  12.558
19866W        W85093  10.144   4.762  13.008
19867W        W85094   8.180  28.888   4.062
19868W        W85095  27.079   2.128   0.061
19869W        W85096  29.013  20.771   2.712
19870W        W85097  42.287  13.098  11.181
19871W        W85098  35.520  10.119  14.043
19872W        W85099  11.457   5.496   3.791
19873W        W85100  27.441  18.718  14.386
19874W        W85101   6.157  10.196  10.228
19875W        W85102   9.307  23.320  12.965
19876W        W85103  37.284  18.118   1.876
19877W        W85104  24.456   4.908   0.945
19878W        W85105  24.592  34.021   0.992
19879W        W85106   8.914   2.919   2.266
19880W        W85107  35.178  43.345   1.801
19881W        W85108  27.950   4.031   1.297
19882W        W85109  33.042  39.948  11.068
19883W        W85110  41.337  20.224   2.261
19884W        W85111  10.752  31.716   0.955
19885W        W85112  10.637  11.645  12.143
19886W        W85113  34.488  25.692   3.777
19887W        W85114  37.356  10.565  13.587
19888W        W85115  43.276  26.027   4.707
19889W        W85116  14.846  44.704   1.307
19890W        W85117  36.539  43.224  10.597
19891W        W85118  16.373  31.180  12.416
19892W        W85119  24.049  43.322   0.873
19893W        W85120  41.627  15.140   1.655
19894W        W85121  23.778  43.788  12.015
19895W        W85122  44.200  28.146   5.505
19896W        W85123  36.089  40.473   2.770
19897W        W85124  22.657   9.908  12.478
19898W        W85125  26.337  40.294  12.014
19899W        W85126  21.498  22.815   3.423
19900W        W85127  25.958   9.754   1.792
19901W        W85128  33.650  10.759  13.744
19902W        W85129   5.643  42.050   0.765
19903W        W85130  39.660  10.664   4.229
19904W        W85131  14.935  23.110   3.665
19905W        W85132   4.045  14.090   0.360
19906W        W85133  42.093  15.106   3.850
19907W        W85134   7.746   2.966   3.271
19908W        W85135  10.668  27.512   0.911
19909W        W85136  15.093   6.690   1.647
19910W        W85137  21.072  22.983   4.636
19911W        W85138  23.296  24.116  13.890
19912W        W85139  44.718  34.134   3.793
19913W        W85140  44.342   8.938  12.451
19914W        W85141  35.427  29.174  14.945
19915W        W85142  23.079  28.181  12.026
19916W        W85143  30.554   7.899  14.371
19917W        W85144  20.080  24.608   2.300
19918W        W85145  13.224  24.089   1.533
19919W        W85146   8.255   4.481  14.050
19920W        W85147  35.765   8.146  12.609
19921W        W85148  11.209  20.508  14.291
19922W        W85149  29.913  24.197   2.168
19923W        W85150   9.957  21.101   2.438
19924W        W85151  36.400  39.723   2.301
19925W        W85152  21.546   4.950   2.083
19926W        W85153   6.357  25.220  13.531
19927W        W85154  18.047  35.812   3.253
19928W        W85155   0.188  41.983   4.222
19929W        W85156  35.581   0.722   3.295
19930W        W85157  20.576  44.162   2.288
19931W        W85158  44.935  31.927   2.222
19932W        W85159  25.636   3.812  13.597
19933W        W85160   5.729  37.524  13.558
19934W        W85161  18.599  11.936  10.727
19935W        W85162  16.764  14.381   4.136
19936W        W85163  31.412  15.072  13.555
19937W        W85164   1.496  42.171   4.968
19938W        W85165   7.883  44.833  10.787
19939W        W85166  31.976  43.948   3.586
19940W        W85167  41.381  27.611   4.684
19941W        W85168  35.498  37.998   2.484
19942W        W85169   0.941  23.499   3.299
19943W        W85170  29.705  25.034  14.688
19944W        W85171  36.391  12.777  14.909
19945W        W85172  41.206   4.733   1.454
19946W        W85173  36.390   5.788  11.528
19947W        W85174  20.580  25.972   1.251
19948W        W85175  40.824  37.072  11.420
19949W        W85176   5.225  15.989  10.843
19950W        W85177  10.776  37.863   0.244
19951W        W85178  41.678  20.654  12.466
19952W        W85179  34.812  42.406   4.256
19953W        W85180   3.438  12.545  13.997
19954W        W85181   1.406  33.633  13.316
19955W        W85182   0.786   9.306   2.717
19956W        W85183   0.993  14.767  13.562
19957W        W85184  42.541  36.731   1.225
19958W        W85185  35.435  29.744  11.653
19959W        W85186   2.814  42.015  12.415
19960W        W85187  15.019  43.965  14.544
19961W        W85188  40.747  39.043   0.809
19962W        W85189  44.093  37.370  13.010
19963W        W85190   4.179  13.883  11.148
19964W        W85191   9.368  43.688   3.608
19965W        W85192  43.347  27.017   3.594
19966W        W85193   8.812  44.629   1.785
19967W        W85194  25.369  42.020   2.122
19968W        W85195  27.485  20.810  12.990
19969W        W85196  38.437   2.542   0.739
19970W        W85197   7.597  23.582  13.940
19971W        W85198   2.297  38.661  11.077
19972W        W85199  37.839   7.424  13.864
19973W        W85200  16.069  44.288  13.645
19974W        W85201  17.737  25.957  13.174
19975W        W85202  17.028  37.485   3.776
19976W        W85203  14.268  17.879  14.046
19977W        W85204  13.683   2.280   0.944
19978W        W85205   0.079  12.010  14.862
19979W        W85206  28.159  43.900  10.591
19980W        W85207   4.677  38.372   0.333
19981W        W85208  17.869  34.981  11.041
19982W        W85209  18.759  28.618   1.301
19983W        W85210  28.194   9.834   2.705
19984W        W85211  25.917  16.569  10.609
19985W        W85212   2.140  40.569  11.014
19986W        W85213  33.866   5.179  12.957
19987W        W85214  37.985  30.122   2.863
19988W        W85215  44.244  35.700   2.188
19989W        W85216   8.759   7.210   2.365
19990W        W85217  40.546   4.151  11.160
19991W        W85218  12.132  12.333   0.417
19992W        W85219  20.466  22.709  12.135
19993W        W85220  35.473  19.642   2.919
19994W        W85221   9.552  24.161  11.095
19995W        W85222  24.075   1.712   0.565
19996W        W85223   1.185  13.133  14.047
19997W        W85224  11.497  27.637   0.931
19998W        W85225  11.408   1.202   1.293
19999W        W85226  38.052  23.496   2.975
20000W        W85227  12.945  19.791   1.123
20001W        W85228  12.792  42.981  12.091
20002W        W85229  36.704  38.689  12.344
20003W        W85230  42.925  13.768  11.546
20004W        W85231   4.318  18.401  12.286
20005W        W85232   6.035  39.730   1.387
20006W        W85233   9.611  32.137   1.392
20007W        W85234   0.622  31.942   4.097
20008W        W85235  12.384  40.067   4.376
20009W        W85236   6.659   6.896   0.016
20010W        W85237  23.940  19.120  14.432
20011W        W85238   2.921  10.237  13.936
20012W        W85239   0.508  11.902   2.337
20013W        W85240   5.830  42.568   9.907
20014W        W85241   4.972  26.384   3.615
20015W        W85242  19.421  10.643   3.167
20016W        W85243  34.261   5.802   1.813
20017W        W85244  41.503   7.222   1.352
20018W        W85245  24.771  39.948  12.954
20019W        W85246  40.877  31.007  11.812
20020W        W85247  36.069  19.790   4.208
20021W        W85248  22.789   4.919  13.417
20022W        W85249  26.989  28.876  14.831
20023W        W85250   5.112  15.907   4.267
20024W        W85251   1.438  44.361  14.651
20025W        W85252  31.797  43.538   3.831
20026W        W85253   9.333  15.520  13.029
20027W        W85254  10.364  22.709   3.625
20028W        W85255  19.368  40.818   3.600
20029W        W85256  26.029  27.700  11.612
20030W        W85257  11.769  35.548  11.129
20031W        W85258  22.673  22.696  12.459
20032W        W85259  25.494  12.079   3.975
20033W        W85260  21.785  24.578  14.376
20034W        W85261  21.432  29.502  10.019
20035W        W85262  41.100  39.793  12.101
20036W        W85263  20.994  39.998   4.064
20037W        W85264   1.927   7.932  14.227
20038W        W85265  16.466  20.809   1.880
20039W        W85266  33.160  40.999  13.292
20040W        W85267  23.836  42.798   4.505
20041W        W85268  25.673   0.351   2.287
20042W        W85269  43.533  39.871   2.702
20043W        W85270  35.103  35.932  13.735
20044W        W85271  18.408  25.660   2.335
20045W        W85272  37.810  35.574   0.024
20046W        W85273  31.862  12.119   4.087
20047W        W85274   4.737   7.687   3.143
20048W        W85275  35.560  38.818  14.821
20049W        W85276  17.865  41.344   4.698
20050W        W85277   8.293  32.969  10.536
20051W        W85278  25.688   3.362  11.785
20052W        W85279  18.195  32.136   0.872
20053W        W85280   5.476   2.417  13.075
20054W        W85281  18.278   5.437   3.141
20055W        W85282  14.012  30.379  11.520
20056W        W85283  27.760   6.857  14.296
20057W        W85284  37.349   2.472   4.404
20058W        W85285  36.631  43.099  13.360
20059W        W85286   8.951  27.217  12.600
20060W        W85287  11.820  24.719   0.056
20061W        W85288  10.558  29.977  13.336
20062W        W85289  32.068   1.234   2.696
20063W        W85290  36.500  26.911   4.566
20064W        W85291  44.195   1.951   1.315
20065W        W85292   3.822  15.402  13.771
20066W        W85293  12.857  10.682  12.591
20067W        W85294  12.095  31.541  12.006
20068W        W85295  36.836  31.361   2.387
20069W        W85296   4.647  32.656  12.317
20070W        W85297  30.875  43.236  13.013
20071W        W85298  14.594  11.850   3.751
20072W        W85299  21.041  14.702  12.825
20073W        W85300  18.661  19.778  10.408
20074W        W85301  39.714  42.923  14.998
20075W        W85302   9.966  23.346  11.127
20076W        W85303  44.697  23.704   1.067
20077W        W85304  42.056  20.588   1.145
20078W        W85305   6.629  43.315  13.946
20079W        W85306  22.107  12.321   4.647
20080W        W85307   5.111  21.751  11.659
20081W        W85308  29.643  15.911   2.226
20082W        W85309   9.254  36.270   0.515
20083W        W85310  25.809   7.150   3.607
20084W        W85311  33.788  40.610   0.331
20085W        W85312  28.034  16.556   4.601
20086W        W85313  42.900  27.096  10.577
20087W        W85314   5.762   3.787  13.402
20088W        W85315  32.001  29.878  13.062
20089W        W85316  42.919   6.405   3.755
20090W        W85317  28.926  22.410  12.465
20091W        W85318  35.499   8.845   4.778
20092W        W85319   3.851   6.413   2.335
20093W        W85320  31.911   7.168   0.212
20094W        W85321  15.864  19.228   0.022
20095W        W85322  24.554  40.739   3.227
20096W        W85323  25.729  23.534  10.908
20097W        W85324  10.795  15.568   3.552
20098W        W85325  28.125  42.502   4.301
20099W        W85326  32.105  12.323  14.244
20100W        W85327  22.750   9.343   0.391
20101W        W85328  24.230  33.136   4.703
20102W        W85329  31.643  37.326  14.890
20103W        W85330  23.046  34.094  13.513
20104W        W85331  38.969  22.565  13.913
20105W        W85332  21.864  25.753   3.576
20106W        W85333  14.704  41.914  12.573
20107W        W85334  24.829  40.308  12.572
20108W        W85335  31.603  19.002   2.209
20109W        W85336   0.884  32.898   3.741
20110W        W85337  42.040   9.307   2.700
20111W        W85338   9.330  23.578  12.519
20112W        W85339   1.995  34.389  10.577
20113W        W85340  18.202  13.644   0.997
20114W        W85341  41.519  18.530  12.405
20115W        W85342   3.360  20.687   0.414
20116W        W85343  13.073  21.910   1.820
20117W        W85344  27.640   2.887   3.959
20118W        W85345  41.836  38.111  11.489
20119W        W85346  37.806  18.192   4.557
20120W        W85347   3.018  32.592  14.930
20121W        W85348  31.822   2.861  14.241
20122W        W85349  25.191  15.306   3.758
20123W        W85350  15.749  14.245  12.667
20124W        W85351  21.941  23.953   0.025
20125W        W85352  15.867  37.094  14.824
20126W        W85353  25.463  26.356  13.838
20127W        W85354   1.002  33.586  14.670
20128W        W85355  30.608  38.416  12.964
20129W        W85356  42.035  42.854  12.860
20130W        W85357  34.733  26.151   4.885
20131W        W85358   2.784   6.285   0.437
20132W        W85359  21.666   1.482   3.215
20133W        W85360  16.849   6.161   4.102
20134W        W85361  41.296  21.090  11.161
20135W        W85362   5.606  26.091  12.235
20136W        W85363  24.250  40.972  11.573
20137W        W85364  29.503  15.479   0.989
20138W        W85365   7.775  29.272  14.577
20139W        W85366  16.398  32.152   4.175
20140W        W85367  22.926  13.335   3.241
20141W        W85368   2.090  32.678   2.315
20142W        W85369  22.681  11.654  11.591
20143W        W85370  37.540  33.764   1.869
20144W        W85371   0.491  24.550   4.174
20145W        W85372  35.659  15.141  12.091
20146W        W85373  29.126  18.011  14.994
20147W        W85374  22.763   3.801  12.516
20148W        W85375  42.337  16.885  11.203
20149W        W85376  44.984  29.678  12.606
20150W        W85377  15.155  17.520   0.527
20151W        W85378  19.714   2.514  10.741
20152W        W85379  16.617  28.058  13.119
20153W        W85380   4.792  36.253   3.187
20154W        W85381  23.578  23.576  10.629
20155W        W85382  41.291  11.746  12.523
20156W        W85383  16.077  11.289  12.713
20157W        W85384  38.173  32.037  14.362
20158W        W85385   6.889  34.848   1.340
20159W        W85386  24.206  18.699   4.194
20160W        W85387  44.387   9.161   0.111
20161W        W85388  31.392  26.058  13.618
20162W        W85389  25.993  29.044   2.284
20163W        W85390  31.618  28.914   2.223
20164W        W85391  39.845  41.580  14.829
20165W        W85392   0.635   8.839  11.124
20166W        W85393   3.387  34.098   3.399
20167W        W85394  32.528   1.977   4.320
20168W        W85395  28.229  25.161  10.708
20169W        W85396  37.160  31.686   0.349
20170W        W85397  25.199  10.685  14.689
20171W        W85398   0.597  11.104   1.402
20172W        W85399   0.292  23.441  14.574
20173W        W85400  19.966  32.830  11.152
20174W        W85401   1.402  38.919   2.886
20175W        W85402  32.840  37.797   2.287
20176W        W85403  42.578  24.294  13.133
20177W        W85404  36.900  31.147   3.283
20178W        W85405  21.139  16.138  13.833
20179W        W85406  36.365  20.601   4.104
20180W        W85407  18.994  35.740   2.254
20181W        W85408   5.737  38.438   0.529
20182W        W85409  16.592  15.280   3.471
20183W        W85410  37.332  19.836  11.465
20184W        W85411  15.345  20.954  14.429
20185W        W85412  23.277  12.406  14.891
20186W        W85413  34.800   2.477   0.485
20187W        W85414  37.094  33.953   0.500
20188W        W85415  26.713  12.255   2.702
20189W        W85416   0.503  22.157  12.871
20190W        W85417  16.986  18.810  12.548
20191W        W85418  24.716  10.169  11.686
20192W        W85419  19.852  11.814   4.124
20193W        W85420  23.088  42.105  12.298
20194W        W85421  33.689  34.603  14.457
20195W        W85422   2.021  35.879   3.196
20196W        W85423   0.622  34.558   4.150
20197W        W85424  23.669  23.927   1.745
20198W        W85425   6.618  23.312  11.641
20199W        W85426  42.827  33.313   4.530
20200W        W85427   0.346   6.669   4.443
20201W        W85428  40.935  22.023   3.212
20202W        W85429  29.593  28.126  12.869
20203W        W85430   5.768  26.550  13.155
20204W        W85431  11.131   4.699  12.008
20205W        W85432  14.636   0.918   3.270
20206W        W85433   6.385  22.896   0.343
20207W        W85434  41.635   6.304   3.810
20208W        W85435   2.227  16.651  14.088
20209W        W85436  26.345  32.853  10.714
20210W        W85437  10.295  19.139   2.827
20211W        W85438  29.937  38.414  12.564
20212W        W85439  13.912  36.665   2.554
20213W        W85440  44.426  12.041  14.300
20214W        W85441  20.686  14.331  11.718
20215W        W85442  37.836  31.128   1.358
20216W        W85443   8.683   0.521  12.920
20217W        W85444  15.767   9.287   4.663
20218W        W85445   7.995  19.052  13.900
20219W        W85446  24.812  13.294   2.672
20220W        W85447  21.941   6.647   0.368
20221W        W85448   4.466  27.826  14.929
20222W        W85449  10.763  17.148  13.823
20223W        W85450  41.329  39.977  13.527
20224W        W85451  21.531   5.947   3.604
20225W        W85452  36.457   6.726  10.664
20226W        W85453  15.290  38.396  10.792
20227W        W85454  17.223  23.603  14.065
20228W        W85455  39.490   3.281   3.463
20229W        W85456   3.711  16.863   1.277
20230W        W85457  22.264  30.892   3.365
20231W        W85458  38.486  36.534  12.989
20232W        W85459   9.451  33.320   3.495
20233W        W85460  18.755  16.895   4.970
20234W        W85461  24.869  41.157   2.393
20235W        W85462  14.773  12.252  13.726
20236W        W85463  34.978  41.479   4.250
20237W        W85464  15.705   9.136  11.184
20238W        W85465   3.256  39.136   0.930
20239W        W85466  35.055  17.330  12.488
20240W        W85467  22.621   2.746   1.647
20241W        W85468  40.348  33.309   4.669
20242W        W85469  27.523  19.255  13.043
20243W        W85470  33.811   0.491  13.888
20244W        W85471  18.655  26.129  12.355
20245W        W85472  27.051   3.083   0.431
20246W        W85473  10.598  24.449  12.035
20247W        W85474   2.854   5.878  11.947
20248W        W85475   2.808  37.795  13.333
20249W        W85476  32.475  44.490   3.745
20250W        W85477  21.770  18.594   3.308
20251W        W85478   8.141  44.514  11.113
20252W        W85479  42.710  36.163   3.771
20253W        W85480  17.050  38.588   4.737
20254W        W85481  43.955  14.694   3.897
20255W        W85482  32.490  41.306   1.769
20256W        W85483  19.016  37.390   3.876
20257W        W85484   9.434  18.702   2.913
20258W        W85485   8.948  30.371  10.183
20259W        W85486  37.468  31.887  14.957
20260W        W85487  21.152  41.467   0.285
20261W        W85488  22.753  21.668   2.494
20262W        W85489  43.886  25.764  13.927
20263W        W85490   9.839  18.152   0.370
20264W        W85491  13.025   5.369   1.585
20265W        W85492  35.810  39.530   1.150
20266W        W85493  29.608  21.694  11.597
20267W        W85494  28.456  17.625  11.675
20268W        W85495  32.043  42.713  13.454
20269W        W85496  43.942  16.319  13.891
20270W        W85497  12.137  40.934   4.580
20271W        W85498  36.372  35.392   2.863
20272W        W85499  20.195  26.736  14.086
20273W        W85500  42.305   1.409  14.838
20274W        W85501  39.851  20.471   0.817
20275W        W85502   4.925  23.469  13.502
20276W        W85503   5.805  23.769   3.189
20277W        W85504  26.901  17.766   2.185
20278W        W85505  27.111  40.095   3.705
20279W        W85506   6.853  22.910   4.286
20280W        W85507  23.698   3.145   0.296
20281W        W85508  34.107  13.866   1.796
20282W        W85509  26.956  12.193   1.236
20283W        W85510  15.357   1.892  14.378
20284W        W85511   1.468   5.181  13.076
20285W        W85512  35.603   7.411   1.488
20286W        W85513  34.545  26.349  11.603
20287W        W85514  26.686  16.969   4.558
20288W        W85515  11.897   7.805  11.401
20289W        W85516   3.855  40.905   1.436
20290W        W85517  41.767   8.923   4.017
20291W        W85518  20.579  20.602   1.362
20292W        W85519  14.396   8.774   2.370
20293W        W85520  21.175  38.337  11.790
20294W        W85521   9.647  33.561   0.310
20295W        W85522  24.065  44.892  13.145
20296W        W85523   0.512  32.852  11.992
20297W        W85524  32.081  13.966  11.576
20298W        W85525  39.422   9.624  13.989
20299W        W85526  41.499  31.628   2.223
20300W        W85527  24.959  33.894  11.035
20301W        W85528   7.599  36.629  13.147
20302W        W85529  24.302  26.188  12.255
20303W        W85530  23.982   9.613   2.827
20304W        W85531  42.286  10.847   1.831
20305W        W85532  22.959   5.474  14.283
20306W        W85533  35.074  35.925   1.156
20307W        W85534  22.065  34.588   4.570
20308W        W85535  26.736  18.201   0.505
20309W        W85536   0.904  22.313   9.482
20310W        W85537  20.043  16.842   3.679
20311W        W85538  37.840  18.465  10.815
20312W        W85539  18.918   1.275   2.596
20313W        W85540   3.236   5.666  13.500
20314W        W85541  32.670  32.897   3.344
20315W        W85542  24.940  37.849   0.397
20316W        W85543  30.563  43.752   1.827
20317W        W85544   2.221   7.260  14.787
20318W        W85545  28.660   5.454  10.703
20319W        W85546  17.393  13.334   3.212
20320W        W85547  28.903  36.770  10.616
20321W        W85548  26.634  37.631   2.853
20322W        W85549  26.490   2.986   1.022
20323W        W85550  32.787  41.845  14.993
20324W        W85551  40.389  39.777   4.155
20325W        W85552   5.929  31.928  14.381
20326W        W85553  31.839  17.051  14.296
20327W        W85554  32.562  31.675  14.517
20328W        W85555  29.131  25.258   3.598
20329W        W85556   6.459  11.306  12.899
20330W        W85557  43.845   1.955  14.910
20331W        W85558  42.950  14.273   3.855
20332W        W85559  31.859   1.377  13.308
20333W        W85560  37.040  39.969   2.886
20334W        W85561  40.197  41.356   0.385
20335W        W85562   3.732   3.291   2.242
20336W        W85563  34.881   7.635   4.145
20337W        W85564   9.409  13.170   0.431
20338W        W85565  39.861  25.533  11.399
20339W        W85566  34.328  17.992  12.162
20340W        W85567  22.713  40.403   3.142
20341W        W85568  10.572  37.133  14.405
20342W        W85569   8.684  25.724   3.859
20343W        W85570   4.273   0.474  11.745
20344W        W85571  13.314  44.807   3.522
20345W        W85572  21.511   5.759   0.474
20346W        W85573  14.681  41.539   1.271
20347W        W85574  29.912   4.145  12.581
20348W        W85575  16.649  28.982   2.720
20349W        W85576  13.173  38.903   0.661
20350W        W85577  35.818  14.087   2.984
20351W        W85578   9.017  29.703  14.522
20352W        W85579  31.590  14.009   3.709
20353W        W85580   4.292  44.754   1.254
20354W        W85581  43.739  43.688   4.557
20355W        W85582  39.699  39.805   2.225
20356W        W85583  42.424   3.464  10.622
20357W        W85584  28.216  44.904  13.548
20358W        W85585  32.565  41.877   2.908
20359W        W85586  35.121  10.601  14.913
20360W        W85587  23.793   3.168  14.624
20361W        W85588   0.248  21.627  13.521
20362W        W85589  38.845   7.258   0.004
20363W        W85590  11.979   1.975   4.505
20364W        W85591  23.198  33.382   2.461
20365W        W85592   1.716  31.520   3.659
20366W        W85593   5.418  18.352  14.620
20367W        W85594  11.421  36.956  13.972
20368W        W85595  15.199  14.297   0.376
20369W        W85596  11.804  25.617  14.249
20370W        W85597  20.860  14.232   0.357
20371W        W85598   2.867  42.714   1.325
20372W        W85599   0.034  29.999   4.106
20373W        W85600   4.548  25.514   2.596
20374W        W85601  35.759   3.218  11.040
20375W        W85602  27.140  34.899  10.791
20376W        W85603   2.312  19.654   2.282
20377W        W85604  37.229  35.401   2.684
20378W        W85605  25.991  10.163   1.277
20379W        W85606   9.375  35.924  10.649
20380W        W85607  33.161   5.391  13.426
20381W        W85608  33.215  13.137  14.344
20382W        W85609  41.831   4.967   3.799
20383W        W85610  16.193  37.936  13.478
20384W        W85611  23.585  32.656   4.033
20385W        W85612   5.727  10.656  14.265
20386W        W85613   3.795   9.080   3.199
20387W        W85614  25.276   6.321  10.719
20388W        W85615  12.296  10.838  13.373
20389W        W85616   5.061  34.320  10.456
20390W        W85617  35.591   2.900   0.305
20391W        W85618  44.867  32.394  10.749
20392W        W85619   3.828  29.149   0.660
20393W        W85620   0.334  17.782   2.709
20394W        W85621  17.349   9.595   2.246
20395W        W85622  39.445  36.003  10.762
20396W        W85623  15.560  40.172  12.541
20397W        W85624   2.212  21.195   2.790
20398W        W85625  23.988  10.852   1.579
20399W        W85626  23.143   3.949  14.491
20400W        W85627   0.796  42.878   2.224
20401W        W85628  21.168  18.065   1.494
20402W        W85629   0.653  34.591  10.673
20403W        W85630   9.737   8.294   1.156
20404W        W85631   1.011  41.567   3.285
20405W        W85632   3.321  39.370  13.035
20406W        W85633  38.238  29.739  14.119
20407W        W85634  10.209   7.307   2.293
20408W        W85635   3.919  15.506  10.967
20409W        W85636   8.137   3.487  14.567
20410W        W85637  22.517  40.392  13.057
20411W        W85638  27.206   9.691  11.300
20412W        W85639  26.559  21.536   2.350
20413W        W85640   6.954   1.176  13.880
20414W        W85641   5.852  17.756  14.411
20415W        W85642  35.357  27.053  14.347
20416W        W85643  39.479  32.407  14.795
20417W        W85644  12.265   9.736   4.112
20418W        W85645  13.057  43.776  14.558
20419W        W85646  12.783  14.026  12.302
20420W        W85647  41.225  29.364  12.451
20421W        W85648   7.186   1.580  13.017
20422W        W85649  38.004  30.692   0.276
20423W        W85650  34.620  39.996  14.967
20424W        W85651   1.031  25.180   1.009
20425W        W85652  18.827  14.222   4.021
20426W        W85653   3.458  15.227  11.106
20427W        W85654  13.025  31.144   0.681
20428W        W85655  31.209  14.469  10.157
20429W        W85656  44.804   4.963  10.614
20430W        W85657  10.297  37.842   3.467
20431W        W85658  44.938  13.786  14.412
20432W        W85659  23.898  32.579   2.724
20433W        W85660  24.881   6.844  10.591
20434W        W85661  31.894  34.989   3.632
20435W        W85662  42.770  43.896  10.667
20436W        W85663  22.555  28.465   1.742
20437W        W85664   5.688   0.985  14.227
20438W        W85665  43.070  43.506  11.247
20439W        W85666  30.471  27.415  13.011
20440W        W85667   9.871  37.638   1.741
20441W        W85668  44.482  37.374  11.547
20442W        W85669   4.213  40.640  14.917
20443W        W85670  11.112   9.274   3.180
20444W        W85671  18.672  22.142  13.373
20445W        W85672  15.198  14.384   4.158
20446W        W85673  11.583  29.281  13.812
20447W        W85674  34.974   4.386   0.719
20448W        W85675  16.684  17.421   1.637
20449W        W85676  10.261  27.078   1.381
20450W        W85677  40.353  41.901   3.718
20451W        W85678  21.737   1.310   1.192
20452W        W85679   4.920   8.156   3.253
20453W        W85680  24.910  33.870   1.992
20454W        W85681  23.429   7.642  11.581
20455W        W85682  40.031  14.574  12.728
20456W        W85683  19.221   2.254  10.724
20457W        W85684  37.069   9.266   2.744
20458W        W85685  33.055  29.380  14.313
20459W        W85686  29.465   5.472   0.825
20460W        W85687  39.788  13.109   2.237
20461W        W85688  23.151  22.582   4.121
20462W        W85689  42.335   0.472   2.878
20463W        W85690  40.076   0.869  12.088
20464W        W85691  44.308   1.560   5.041
20465W        W85692  19.840  12.740   4.624
20466W        W85693   7.025  16.788   3.236
20467W        W85694  12.111   0.414   1.771
20468W        W85695  44.938   2.690   3.197
20469W        W85696  44.769  17.564   3.323
20470W        W85697  30.942  39.886  13.863
20471W        W85698  20.209   7.085   1.776
20472W        W85699  44.351  14.179   4.567
20473W        W85700   2.894  17.463   1.511
20474W        W85701  35.942  34.134   4.677
20475W        W85702  14.504  36.516  10.779
20476W        W85703  37.613  10.511   3.176
20477W        W85704  40.364  20.868  14.983
20478W        W85705  38.898  11.770  12.009
20479W        W85706  28.770  23.559   0.964
20480W        W85707  40.277  30.576  11.153
20481W        W85708   5.883  37.429   1.522
20482W        W85709  17.765  28.695  12.407
20483W        W85710  21.057  11.157  11.148
20484W        W85711  17.789  42.985   1.806
20485W        W85712   7.159  35.099   4.638
20486W        W85713  24.508  16.800  12.129
20487W        W85714  40.568  29.061   5.117
20488W        W85715  15.229  35.593  13.128
20489W        W85716   1.201  17.596  12.388
20490W        W85717  29.222  23.296   2.779
20491W        W85718   1.237   6.309  14.909
20492W        W85719  18.645  29.006  10.779
20493W        W85720  44.003  10.262  13.516
20494W        W85721   8.738  19.925   5.310
20495W        W85722  35.856  17.601  12.905
20496W        W85723  24.345  37.993   1.668
20497W        W85724   4.295   0.023   1.722
20498W        W85725  19.650  19.199   0.417
20499W        W85726  29.457  16.280   3.174
20500W        W85727  12.834  26.517  13.063
20501W        W85728  10.532  21.470   0.665
20502W        W85729   6.870  12.811   2.833
20503W        W85730  10.850  28.536  11.843
20504W        W85731  28.625  14.314   3.743
20505W        W85732   9.315  41.265   4.636
20506W        W85733  22.519   9.242  11.139
20507W        W85734   0.944  30.189   1.802
20508W        W85735  12.391  36.063  13.989
20509W        W85736  15.677  20.220   5.013
20510W        W85737   9.131  34.941   1.969
20511W        W85738   3.884  11.111   4.529
20512W        W85739   3.486  25.168  13.059
20513W        W85740  35.928   1.251  12.546
20514W        W85741  25.239  20.438   2.342
20515W        W85742  12.512  31.612  11.665
20516W        W85743   8.889  34.481   0.799
20517W        W85744   5.296  37.316  12.350
20518W        W85745  29.603  24.683   1.032
20519W        W85746  41.903  13.797  12.859
20520W        W85747  34.018   6.335   3.819
20521W        W85748  12.090  40.890   3.587
20522W        W85749  33.073  11.352   3.149
20523W        W85750  17.297  34.358   4.633
20524W        W85751   7.761  35.746  13.729
20525W        W85752  26.902  41.319   2.981
20526W        W85753  20.598  15.144   0.807
20527W        W85754  25.163   7.126  11.431
20528W        W85755  13.610  19.209  12.088
20529W        W85756  10.257  39.980  13.456
20530W        W85757  26.168  10.795   1.880
20531W        W85758  24.782   4.273  13.815
20532W        W85759  15.818  22.500  13.763
20533W        W85760  19.057  17.228   1.789
20534W        W85761  34.470  27.985  10.886
20535W        W85762  37.992  37.229   1.129
20536W        W85763   2.498  41.868  10.397
20537W        W85764  33.983  12.897  12.012
20538W        W85765  21.668  13.031   3.732
20539W        W85766  42.017  18.561   0.275
20540W        W85767   0.684  42.374   2.184
20541W        W85768  25.579  41.869  12.449
20542W        W85769   0.518   8.682   4.566
20543W        W85770  42.857  28.169  14.926
20544W        W85771  32.586   0.357   2.876
20545W        W85772  36.798  42.493  11.267
20546W        W85773  36.029  30.227   1.892
20547W        W85774  28.072  26.602   0.807
20548W        W85775  21.361  10.400  10.092
20549W        W85776   3.877   4.525   4.152
20550W        W85777  20.075  10.250   2.535
20551W        W85778  25.249   2.385   0.491
20552W        W85779  21.139  30.043   0.409
20553W        W85780  28.467  39.306  14.466
20554W        W85781  25.958  29.447  14.673
20555W        W85782  37.035   9.710   1.234
20556W        W85783  13.823  24.184   3.186
20557W        W85784  44.885  40.282   0.361
20558W        W85785  17.769  27.699  14.424
20559W        W85786  35.521  33.460  12.939
20560W        W85787   7.700  40.478   4.263
20561W        W85788  22.795  20.011   1.280
20562W        W85789  15.370  42.253  11.215
20563W        W85790  20.199  39.335  10.747
20564W        W85791  23.885   4.291  12.818
20565W        W85792   6.318   2.461  14.837
20566W        W85793  30.349  36.324   0.322
20567W        W85794   3.898  35.587  13.802
20568W        W85795  37.008  12.661   0.144
20569W        W85796  37.377   0.767  10.874
20570W        W85797   4.752  42.601  10.307
20571W        W85798   5.297  31.906  14.804
20572W        W85799  19.195   3.914   1.328
20573W        W85800  34.864  20.082  14.123
20574W        W85801  12.343   7.677  13.824
20575W        W85802  34.319  35.625  11.611
20576W        W85803  30.897   0.977   2.475
20577W        W85804   4.045  44.830   4.571
20578W        W85805  28.142   1.250   0.163
20579W        W85806   4.006  24.358   4.201
20580W        W85807  30.867  37.961  12.995
20581W        W85808  27.522  29.442  12.434
20582W        W85809  38.477  42.788   4.180
20583W        W85810  35.999  13.387  13.831
20584W        W85811  14.727  32.115   1.459
20585W        W85812  11.265   6.126  11.128
20586W        W85813   9.347   0.935   0.678
20587W        W85814  22.152  41.018   0.936
20588W        W85815  35.098  30.674   2.812
20589W        W85816  15.679  36.313  12.881
20590W        W85817  33.564  30.956  14.781
20591W        W85818   8.656   3.436  14.536
20592W        W85819  27.968  35.043   4.126
20593W        W85820  41.950  27.152  10.604
20594W        W85821  13.870  30.535  14.571
20595W        W85822   8.708  10.281   4.403
20596W        W85823  18.292   7.378  14.058
20597W        W85824   6.698  31.098  10.637
20598W        W85825  28.818  27.998  11.738
20599W        W85826  22.237  31.723   3.608
20600W        W85827  35.086  27.617   2.413
20601W        W85828  43.564  19.065  14.559
20602W        W85829   0.769  12.242  12.864
20603W        W85830   6.421  17.646  11.842
20604W        W85831  35.612  30.049   1.630
20605W        W85832  30.997   7.122  13.281
20606W        W85833  40.924  28.633   2.786
20607W        W85834  13.117   6.807  13.291
20608W        W85835  32.247  20.286   1.757
20609W        W85836  10.277  23.630   3.790
20610W        W85837  21.409  33.845  12.802
20611W        W85838   7.762  26.560  11.563
20612W        W85839  39.618  22.015   3.253
20613W        W85840  11.355  41.095   2.929
20614W        W85841  11.564   1.480   3.207
20615W        W85842   4.810   9.911   3.781
20616W        W85843  36.363  16.145   9.798
20617W        W85844  44.336  43.750  10.988
20618W        W85845  31.291  33.429  14.418
20619W        W85846  28.171  15.694  14.582
20620W        W85847  11.817   9.236   2.436
20621W        W85848  42.820  32.973   3.674
20622W        W85849  14.699  29.588   1.340
20623W        W85850   7.662  29.954  12.276
20624W        W85851  28.087  37.035   4.783
20625W        W85852  10.195  16.049  13.664
20626W        W85853  13.282  30.692   0.796
20627W        W85854  19.260   6.930   1.512
20628W        W85855  28.692  16.237  13.733
20629W        W85856  19.318  22.850  14.010
20630W        W85857  42.032  41.839  12.909
20631W        W85858  13.128   7.894  12.968
20632W        W85859  28.272  29.019   0.393
20633W        W85860  26.040  38.982   2.399
20634W        W85861   0.761  17.333   4.320
20635W        W85862  16.706   7.906   3.332
20636W        W85863  42.674   8.221   2.104
20637W        W85864  16.800  20.245  14.308
20638W        W85865  13.674   8.208   2.438
20639W        W85866  20.819  15.907   4.176
20640W        W85867  42.856  21.940  11.125
20641W        W85868  10.485  10.701   0.753
20642W        W85869  19.089  25.896   1.841
20643W        W85870  40.250  36.707  13.408
20644W        W85871  39.760  38.987   1.606
20645W        W85872  36.948  44.269  13.834
20646W        W85873  24.246   6.737   1.898
20647W        W85874  23.865  21.735  12.772
20648W        W85875  36.631  11.884  14.277
20649W        W85876   4.313   5.293  10.943
20650W        W85877  19.259  19.734   0.464
20651W        W85878   4.449  20.729  11.059
20652W        W85879  17.675  30.914   4.029
20653W        W85880  31.398   7.205  11.601
20654W        W85881   7.382   8.792   0.417
20655W        W85882   4.865  34.312   0.261
20656W        W85883  18.651   1.008   0.369
20657W        W85884  18.774   6.932   2.262
20658W        W85885   2.000  22.759   3.510
20659W        W85886  43.552  23.169  12.216
20660W        W85887  40.475   8.755  11.566
20661W        W85888  29.414  39.753  11.455
20662W        W85889  15.839   6.657   1.380
20663W        W85890  19.532   2.233   3.012
20664W        W85891  35.393  22.272  10.633
20665W        W85892  21.583  33.853   1.837
20666W        W85893  34.572  11.819   2.702
20667W        W85894  19.773  22.412  13.402
20668W        W85895  17.000  25.986   3.329
20669W        W85896  26.662   2.462   1.149
20670W        W85897  40.558  26.294   0.777
20671W        W85898  21.710  26.948   2.236
20672W        W85899   3.057   7.631  14.379
20673W        W85900  40.750  38.049   2.339
20674W        W85901  38.931  16.757  12.133
20675W        W85902  11.889  10.266   3.860
20676W        W85903  10.321  20.701  10.517
20677W        W85904  34.356  15.219   9.861
20678W        W85905  44.030   4.217   2.646
20679W        W85906   2.114  26.660  12.018
20680W        W85907  36.531  39.396   0.515
20681W        W85908  33.367  18.535   2.422
20682W        W85909   2.873  41.178  11.881
20683W        W85910  44.991  26.287   1.689
20684W        W85911  37.122  39.886  12.846
20685W        W85912  39.498  41.010  11.652
20686W        W85913  29.936  38.230  13.055
20687W        W85914  19.053  23.572   3.696
20688W        W85915  24.179  33.042   2.860
20689W        W85916  29.463  12.538  12.215
20690W        W85917  23.141   4.729   1.330
20691W        W85918  12.910  10.280   3.712
20692W        W85919  32.661  23.537  14.951
20693W        W85920   3.405  18.099  10.609
20694W        W85921   8.323  15.661  11.452
20695W        W85922  26.824  41.807  14.796
20696W        W85923  15.252  18.522  13.921
20697W        W85924  12.157  32.462   3.373
20698W        W85925  33.491  36.321   5.564
20699W        W85926  37.569  28.146  10.948
20700W        W85927  28.355  39.119  11.937
20701W        W85928  28.007  22.486   1.762
20702W        W85929  34.821   3.604  12.054
20703W        W85930  29.039  42.553   0.402
20704W        W85931  14.099  27.059   0.400
20705W        W85932  27.532  35.986  14.535
20706W        W85933  44.824  40.167   2.916
20707W        W85934   0.133  31.153   0.979
20708W        W85935  35.499  40.285   3.062
20709W        W85936   9.622  10.597   3.178
20710W        W85937  30.473   9.203   4.999
20711W        W85938  13.189  39.806  11.913
20712W        W85939   4.698  35.475   1.538
20713W        W85940   2.945  14.806  13.464
20714W        W85941  23.467  42.791   2.571
20715W        W85942  39.178  25.173   0.746
20716W        W85943   6.512  38.045  10.727
20717W        W85944  25.648  44.207   3.775
20718W        W85945  22.301   6.904   4.743
20719W        W85946  34.380  27.563  10.607
20720W        W85947  27.173   4.340   2.201
20721W        W85948   7.127  38.892   3.825
20722W        W85949  18.120  28.251   0.905
20723W        W85950  17.225  16.771   4.182
20724W        W85951   8.348  29.273   2.712
20725W        W85952  27.889  16.198   2.002
20726W        W85953  32.670   6.366   1.295
20727W        W85954   0.006  17.760  13.367
20728W        W85955   7.035  19.041  13.657
20729W        W85956  19.334  22.612  14.966
20730W        W85957   7.322   1.511   2.226
20731W        W85958  40.218  39.874   2.164
20732W        W85959   5.450   0.870  11.091
20733W        W85960   8.940  32.534   3.698
20734W        W85961  12.853  15.600  11.050
20735W        W85962   1.343  10.652   4.018
20736W        W85963  14.593  33.233  10.616
20737W        W85964  15.832  37.132  11.180
20738W        W85965   0.001  16.540  13.977
20739W        W85966  22.781   4.145   4.072
20740W        W85967  30.502   7.227   0.847
20741W        W85968  42.823   2.703  11.278
20742W        W85969  33.079  31.893   2.203
20743W        W85970  10.761   4.213   1.228
20744W        W85971  40.524  25.634   1.437
20745W        W85972  36.304  25.896   2.769
20746W        W85973   9.610   4.991  12.868
20747W        W85974  26.126  43.836  11.655
20748W        W85975  13.078  33.402  14.245
20749W        W85976  23.991   8.661   0.285
20750W        W85977  30.035   8.026  13.548
20751W        W85978  28.228   4.448   2.195
20752W        W85979  20.266  15.421   1.553
20753W        W85980  10.211  39.855   4.553
20754W        W85981  21.261  32.077  13.974
20755W        W85982  17.783   5.600   3.838
20756W        W85983  12.746  28.121  11.637
20757W        W85984  44.620  36.921  12.124
20758W        W85985  43.272  32.160   0.411
20759W        W85986   0.523  38.999   2.796
20760W        W85987  14.270  16.520   0.928
20761W        W85988  15.240  35.372   0.679
20762W        W85989  32.046  18.173  13.747
20763W        W85990  25.648  17.804  11.998
20764W        W85991  30.156   7.091  13.465
20765W        W85992   9.831  16.294  12.069
20766W        W85993  15.677   5.325  14.771
20767W        W85994  21.227  24.719  13.543
20768W        W85995  38.876  23.263   3.395
20769W        W85996  20.019  15.071  14.486
20770W        W85997  29.203   5.825   2.346
20771W        W85998  41.578  11.084  10.470
20772W        W85999  10.472   0.762   0.578
20773W        W86000  10.092  31.515  13.578
20774W        W86001  15.985   5.421   0.232
20775W        W86002  34.935  15.247   4.154
20776W        W86003   7.270   5.786   5.138
20777W        W86004  16.044  18.074   1.323
20778W        W86005  16.572   0.499   4.269
20779W        W86006  32.548  27.567   2.732
20780W        W86007  41.735   2.473   2.173
20781W        W86008   7.658  40.291   0.711
20782W        W86009  32.449   3.505  11.237
20783W        W86010  22.421  20.836   3.590
20784W        W86011  13.784  12.416  11.561
20785W        W86012   4.367  13.121  13.917
20786W        W86013  42.756   6.211  14.053
20787W        W86014  33.544  30.291  14.115
20788W        W86015  25.132   8.210  10.792
20789W        W86016  17.111   9.596  14.431
20790W        W86017  43.029  40.079   1.522
20791W        W86018  16.019  42.369   0.734
20792W        W86019  17.025  11.196   1.647
20793W        W86020   9.450  19.059  13.632
20794W        W86021  28.548   6.319  10.735
20795W        W86022  21.324   4.129   0.260
20796W        W86023  31.709  28.713   1.743
20797W        W86024   2.442   5.469  10.692
20798W        W86025  10.255  38.859   1.479
20799W        W86026   0.302  39.397  12.480
20800W        W86027  32.073   6.416  12.915
20801W        W86028  29.568  35.047   4.094
20802W        W86029  12.088  21.079  12.938
20803W        W86030  11.482   0.228   4.144
20804W        W86031  41.019   6.786   0.678
20805W        W86032  11.436  13.168  11.074
20806W        W86033   7.816  30.134   2.955
20807W        W86034  25.705  39.000  10.244
20808W        W86035   3.519  11.828   0.876
20809W        W86036  14.739  41.483   2.192
20810W        W86037  43.504  17.068   0.322
20811W        W86038  34.003  20.329   3.391
20812W        W86039   4.451  29.065   1.716
20813W        W86040  10.063  33.402   2.259
20814W        W86041  22.298  35.014  12.396
20815W        W86042   6.744  40.466   4.317
20816W        W86043  13.736   0.940   2.165
20817W        W86044  14.799  21.857  13.005
20818W        W86045   4.792  36.555   2.307
20819W        W86046  34.937  16.320   0.713
20820W        W86047   1.959  36.860   1.165
20821W        W86048  27.174  24.695  11.982
20822W        W86049  23.245  25.207  10.680
20823W        W86050  37.555  44.692  12.970
20824W        W86051   7.474   3.251   4.101
20825W        W86052  12.778  14.039  14.201
20826W        W86053  29.927  31.491  13.663
20827W        W86054   4.178   5.189  11.469
20828W        W86055  36.297   9.597  11.035
20829W        W86056  20.213  42.309  13.041
20830W        W86057  10.447  16.417  10.737
20831W        W86058  30.488  22.207   2.215
20832W        W86059  15.731  32.216   5.107
20833W        W86060   2.212  30.677  14.017
20834W        W86061  21.430   2.630   2.701
20835W        W86062  13.619  18.100   1.692
20836W        W86063  44.416  36.343  12.806
20837W        W86064  40.817  24.984   4.549
20838W        W86065  12.852  20.636  14.954
20839W        W86066  16.972  34.797  13.510
20840W        W86067  11.873  17.895  12.065
20841W        W86068  26.835   4.294  14.818
20842W        W86069   8.803  24.561   2.382
20843W        W86070   6.516  32.156  13.099
20844W        W86071   0.276  34.619   2.352
20845W        W86072  39.809  14.087  14.963
20846W        W86073  28.123  21.774   4.394
20847W        W86074  24.411   1.267  12.892
20848W        W86075  43.092  41.605   1.355
20849W        W86076  23.733  16.531  12.478
20850W        W86077  34.894  30.497  13.752
20851W        W86078   5.543  41.535   0.872
20852W        W86079  19.124  35.386  12.398
20853W        W86080   3.387   6.303   4.659
20854W        W86081  10.090  44.850   0.373
20855W        W86082  29.231  43.573  14.170
20856W        W86083  22.283  21.731   2.755
20857W        W86084  16.333  28.579  14.294
20858W        W86085  41.315  20.077  11.215
20859W        W86086  28.849  27.626   3.456
20860W        W86087  37.125  21.697  13.033
20861W        W86088  31.176  20.753   2.150
20862W        W86089  12.811  23.172   1.454
20863W        W86090  11.884  14.619  14.453
20864W        W86091   9.332   6.709   4.550
20865W        W86092  32.505   3.959   3.617
20866W        W86093  22.084  18.014   2.846
20867W        W86094  23.763  12.551  13.890
20868W        W86095  17.127  21.492   4.869
20869W        W86096  33.595  20.031   1.169
20870W        W86097  41.288  36.947   4.632
20871W        W86098  42.494  35.196  12.641
20872W        W86099  29.369  25.249  14.337
20873W        W86100  34.067   1.974   1.463
20874W        W86101  34.240  38.409   3.131
20875W        W86102  24.481  15.149  11.780
20876W        W86103  26.257  35.772  11.191
20877W        W86104   8.309  16.300   4.182
20878W        W86105  24.002  12.914  13.568
20879W        W86106  22.717  40.607  11.094
20880W        W86107  35.017  22.764   4.690
20881W        W86108  23.493  28.862   1.273
20882W        W86109  30.161  11.647   0.195
20883W        W86110  22.430  43.296  12.033
20884W        W86111  25.277  28.087  10.720
20885W        W86112   6.026  14.768   3.239
20886W        W86113  33.708  44.699  14.714
20887W        W86114   6.180  34.139   2.858
20888W        W86115   2.361   0.459  10.435
20889W        W86116  10.308  35.569  11.410
20890W        W86117  34.357  15.681  10.097
20891W        W86118  40.862  28.756   4.702
20892W        W86119  34.952  22.589   0.996
20893W        W86120   7.362  35.100  14.892
20894W        W86121  36.495  32.524  14.435
20895W        W86122   9.228  36.566   2.861
20896W        W86123  27.217  35.505  14.799
20897W        W86124   8.295  21.596   3.538
20898W        W86125  17.228  19.953  14.230
20899W        W86126   3.685   8.134   4.379
20900W        W86127  22.624   4.658   4.064
20901W        W86128  10.819  10.366   1.001
20902W        W86129   0.870  20.437   2.708
20903W        W86130  15.131   6.448   3.756
20904W        W86131   2.513  10.575  13.848
20905W        W86132  11.163   7.565   1.806
20906W        W86133  26.218  10.183  13.042
20907W        W86134  20.239   7.850  11.860
20908W        W86135  43.998  36.093  12.035
20909W        W86136  41.555   7.454   0.887
20910W        W86137  24.736  38.333   1.845
20911W        W86138   9.214  20.185   4.673
20912W        W86139  44.093   5.663  13.578
20913W        W86140  42.594  34.850   2.781
20914W        W86141  13.219  39.762   3.604
20915W        W86142  25.026   0.507   1.182
20916W        W86143  10.712  30.354   3.524
20917W        W86144  44.248  19.242   0.520
20918W        W86145  35.069  13.143  11.876
20919W        W86146  32.999   2.942  14.261
20920W        W86147  33.725   1.803   9.843
20921W        W86148  31.576  35.669  11.202
20922W        W86149  29.431  19.797   2.810
20923W        W86150   7.336  32.508  10.936
20924W        W86151  38.809  40.285   2.905
20925W        W86152  13.230  17.044  11.725
20926W        W86153  24.868  29.578  14.966
20927W        W86154  40.047   1.649  13.842
20928W        W86155  15.810  41.268  14.381
20929W        W86156  34.562  36.597  10.821
20930W        W86157  28.162  41.503   2.953
20931W        W86158  26.596   5.635  12.166
20932W        W86159  39.149   0.825   4.099
20933W        W86160  22.689  13.897   4.836
20934W        W86161  33.122  15.747  14.080
20935W        W86162   7.329   6.939  10.629
20936W        W86163  39.892  44.786  12.479
20937W        W86164  20.746  39.982   4.938
20938W        W86165  41.971  44.334   1.698
20939W        W86166  13.331  37.073   4.630
20940W        W86167   3.320  31.612   3.622
20941W        W86168   6.357  31.246   3.323
20942W        W86169  42.800   9.051   0.255
20943W        W86170  16.815  41.824   2.821
20944W        W86171  26.236  12.124  12.205
20945W        W86172   2.514   4.389  14.832
20946W        W86173   7.217  29.491  13.845
20947W        W86174   3.829  42.547  13.023
20948W        W86175   2.035  13.354  11.540
20949W        W86176  42.041   9.947   0.339
20950W        W86177  18.535  32.011   0.479
20951W        W86178  30.497  38.520  10.328
20952W        W86179  41.071  27.574   0.054
20953W        W86180   6.937   2.922   3.842
20954W        W86181   3.294   0.181   4.071
20955W        W86182   2.810   3.239   4.671
20956W        W86183  42.406  44.504   4.473
20957W        W86184  31.249  39.415  13.105
20958W        W86185  20.952   5.929  13.100
20959W        W86186  39.503  40.479  12.378
20960W        W86187  39.570   2.184   2.524
20961W        W86188  32.883  12.757   0.575
20962W        W86189  24.458  36.200  10.517
20963W        W86190  13.847  20.556   0.259
20964W        W86191  44.394  41.594   0.369
20965W        W86192   7.779  11.625  12.279
20966W        W86193   2.248  37.517   1.436
20967W        W86194   6.747  42.677  14.495
20968W        W86195  42.276  39.305   1.949
20969W        W86196  30.159  22.732  13.767
20970W        W86197  24.728  30.083   3.179
20971W        W86198  27.664  13.750   3.424
20972W        W86199   4.304  37.924   2.821
20973W        W86200  30.525  29.696   2.619
20974W        W86201   9.604   0.202  12.597
20975W        W86202  35.106  30.360   4.542
20976W        W86203   6.344  42.365  13.108
20977W        W86204  17.589  12.677   4.181
20978W        W86205   5.198  32.414  14.938
20979W        W86206  17.111  12.077  12.439
20980W        W86207   9.562  31.246   3.731
20981W        W86208  39.064   1.745  13.355
20982W        W86209  43.286  39.545   1.891
20983W        W86210  20.273   8.731   0.756
20984W        W86211   2.523  37.362  11.725
20985W        W86212   1.464  20.826   3.179
20986W        W86213  37.116  11.630   3.719
20987W        W86214  25.176   2.010  13.471
20988W        W86215   2.027  43.603  12.535
20989W        W86216  37.542   2.405   1.439
20990W        W86217  41.979  29.135   3.157
20991W        W86218  25.541  28.722   2.820
20992W        W86219  38.039  22.955   2.345
20993W        W86220  39.372  20.784  14.048
20994W        W86221  10.653   4.833   4.786
20995W        W86222  22.609   7.174   0.020
20996W        W86223  13.845  15.710  11.136
20997W        W86224  31.448  19.305  10.778
20998W        W86225  20.786  32.041  11.935
20999W        W86226  14.073  35.119  12.822
21000W        W86227   7.025  11.591  14.386
21001W        W86228  39.560  39.287  13.635
21002W        W86229  31.074   0.517  11.534
21003W        W86230  29.386  33.915  12.804
21004W        W86231  23.728  35.327  13.868
21005W        W86232   1.892   0.184  13.138
21006W        W86233  16.624  25.665   3.165
21007W        W86234  35.599   4.980   4.846
21008W        W86235  41.240  38.879  10.952
21009W        W86236   2.972  27.511   0.358
21010W        W86237  18.191  44.509   2.268
21011W        W86238  29.607  11.320   4.146
21012W        W86239   8.900  43.139  12.885
21013W        W86240  21.587  42.739  13.053
21014W        W86241  31.482  11.895  12.576
21015W        W86242   6.220  21.929  10.693
21016W        W86243   8.354   2.655   0.481
21017W        W86244  15.416   0.215  14.877
21018W        W86245  16.013  44.775  13.838
21019W        W86246  38.526  39.437   2.801
21020W        W86247  24.570  25.664   2.684
21021W        W86248  23.760  21.246  12.927
21022W        W86249   5.143  24.111  11.003
21023W        W86250  13.474   9.116   1.516
21024W        W86251  36.611  24.901   2.852
21025W        W86252   3.826   7.826   2.103
21026W        W86253  10.214  30.183   2.768
21027W        W86254  13.799   0.247  10.692
21028W        W86255  43.438   3.373  11.381
21029W        W86256  42.375   1.612   4.558
21030W        W86257  32.430  41.851   0.904
21031W        W86258  12.515  23.719  12.139
21032W        W86259  44.308  41.824  13.845
21033W        W86260   2.080  22.950   0.758
21034W        W86261  25.897  32.379   4.043
21035W        W86262  12.855  26.930   4.885
21036W        W86263  21.302  42.664  12.014
21037W        W86264  42.035  19.193  13.431
21038W        W86265  28.614  27.172   5.064
21039W        W86266   7.792   3.454   3.108
21040W        W86267   2.322  20.420   4.817
21041W        W86268  30.156  33.096   3.805
21042W        W86269  36.907  27.688   1.678
21043W        W86270  40.818  44.483   3.650
21044W        W86271  44.279  35.241   0.851
21045W        W86272  20.629   8.888  14.617
21046W        W86273  12.594  40.302  12.844
21047W        W86274   9.308  34.142  14.023
21048W        W86275  29.173  24.983   1.032
21049W        W86276  21.777  33.936  13.176
21050W        W86277  33.504   1.764  10.695
21051W        W86278  38.040  21.337   4.933
21052W        W86279  28.139  44.890   3.022
21053W        W86280   0.321  26.071   3.168
21054W        W86281   5.974   0.430   0.381
21055W        W86282  12.206  12.246  11.632
21056W        W86283   0.837  40.488   1.280
21057W        W86284  11.352  21.129   3.999
21058W        W86285   6.894  37.268   1.445
21059W        W86286   0.025  22.094  12.997
21060W        W86287   7.350  42.364  11.550
21061W        W86288  23.655  34.392   2.733
21062W        W86289  19.070  19.679  14.983
21063W        W86290  10.104  44.443  12.063
21064W        W86291  25.473  28.117   2.199
21065W        W86292  29.912   1.976  10.649
21066W        W86293  26.343   4.372   0.452
21067W        W86294  33.909   4.742   1.510
21068W        W86295  39.302  40.927  12.193
21069W        W86296   2.522  28.458   0.288
21070W        W86297  21.417  12.836   0.091
21071W        W86298  35.149  39.917   4.325
21072W        W86299  41.803  28.478  13.535
21073W        W86300  10.455  26.459  12.995
21074W        W86301  33.804  12.388   2.411
21075W        W86302  20.149  28.972   2.821
21076W        W86303   0.441  42.962   0.232
21077W        W86304  11.185  41.112   4.378
21078W        W86305   7.177  18.304   3.526
21079W        W86306  11.783  36.813  11.991
21080W        W86307  19.664   3.524  10.928
21081W        W86308  18.062   4.234  11.477
21082W        W86309  23.554  19.646   4.603
21083W        W86310   0.811   8.271   4.314
21084W        W86311  31.633  28.796   0.692
21085W        W86312  12.167  16.084  14.944
21086W        W86313  17.025   3.308   4.163
21087W        W86314  32.791  34.777   3.803
21088W        W86315  10.105  23.744  13.867
21089W        W86316  24.382  43.245  11.428
21090W        W86317  11.215  33.398  12.900
21091W        W86318   8.249   0.806  13.040
21092W        W86319  20.105  26.975   1.853
21093W        W86320  28.467  26.390  13.431
21094W        W86321  14.091  14.235  14.861
21095W        W86322  14.405   4.869  11.575
21096W        W86323  24.483  24.553  10.527
21097W        W86324  19.504  14.813   4.117
21098W        W86325   6.211  35.877  14.289
21099W        W86326  17.361  24.616  11.196
21100W        W86327  14.232  41.747  11.804
21101W        W86328  12.664  31.903   2.893
21102W        W86329  19.398   1.401   0.488
21103W        W86330  25.045  20.495  12.000
21104W        W86331  25.737   4.961   2.771
21105W        W86332   5.003   1.363  12.408
21106W        W86333  44.917  33.680  10.176
21107W        W86334  43.356  28.481   1.431
21108W        W86335   0.227  16.061  10.108
21109W        W86336  38.524  42.049  14.305
21110W        W86337  30.892  35.379   3.168
21111W        W86338   2.950  34.814  11.987
21112W        W86339  17.573  13.309   4.494
21113W        W86340   7.511   5.905   2.344
21114W        W86341  35.062   5.235  14.076
21115W        W86342   1.729  18.954   2.292
21116W        W86343   0.402  19.284   2.154
21117W        W86344   4.740   7.331  13.111
21118W        W86345  31.910   4.412  12.951
21119W        W86346  13.997  11.159   4.145
21120W        W86347   8.747  44.818  14.424
21121W        W86348   2.729   5.512  13.342
21122W        W86349   3.391  14.537   1.068
21123W        W86350   1.965   7.687  12.952
21124W        W86351  23.020  10.150   0.225
21125W        W86352  32.883  42.185  14.109
21126W        W86353  36.585  18.353   2.574
21127W        W86354  19.187   1.403   4.378
21128W        W86355  44.861  42.121   3.496
21129W        W86356   5.459  30.974   4.589
21130W        W86357   0.372  13.764   0.886
21131W        W86358  39.750   8.850  10.257
21132W        W86359  33.996  43.816  12.409
21133W        W86360  34.778   4.636   3.160
21134W        W86361  10.319   8.717   1.756
21135W        W86362  44.396  24.949   0.305
21136W        W86363  11.680  37.586   4.685
21137W        W86364  10.277   7.106  10.270
21138W        W86365  44.975  34.312   0.389
21139W        W86366  36.882   9.322   3.238
21140W        W86367  17.730   1.476   1.354
21141W        W86368  30.570  42.346   1.142
21142W        W86369  18.569   8.299   3.713
21143W        W86370  19.205  19.445   2.554
21144W        W86371  31.809   6.278  10.718
21145W        W86372  40.489   8.877   0.273
21146W        W86373  29.201  28.694  14.327
21147W        W86374  18.803  22.338  12.898
21148W        W86375  19.175  23.899  12.471
21149W        W86376  23.583   3.889  13.006
21150W        W86377  29.499  20.024  14.316
21151W        W86378   8.586  23.500   4.124
21152W        W86379  10.694   9.871  10.728
21153W        W86380  31.659  40.626  11.934
21154W        W86381  34.080   6.482   2.889
21155W        W86382  13.687  22.193   0.882
21156W        W86383  27.092  30.506   1.214
21157W        W86384  27.205  37.580   2.189
21158W        W86385   9.897  21.814   1.264
21159W        W86386  24.657  44.434   0.064
21160W        W86387  35.263   2.178  11.065
21161W        W86388  25.895   9.347  14.495
21162W        W86389   2.975  19.567   1.630
21163W        W86390  14.549  15.362   2.009
21164W        W86391  12.909  11.547   2.243
21165W        W86392  10.227  44.137  13.809
21166W        W86393  33.422   5.988  13.988
21167W        W86394   1.971  12.287   0.321
21168W        W86395  18.010  21.754   3.915
21169W        W86396  42.809  23.041   3.605
21170W        W86397  27.936  36.579  12.399
21171W        W86398  25.202  26.745   3.726
21172W        W86399  37.697  31.027   2.941
21173W        W86400  43.337  26.128   2.662
21174W        W86401  13.813   7.187   4.201
21175W        W86402   2.764  13.145   3.607
21176W        W86403  35.675   8.615  12.433
21177W        W86404  24.112  22.060  14.446
21178W        W86405  38.189   5.212   3.444
21179W        W86406  29.439   7.164  11.634
21180W        W86407  17.593   0.520   1.069
21181W        W86408  18.247  19.666  10.713
21182W        W86409   7.900  31.031  13.510
21183W        W86410  44.387  38.994   1.781
21184W        W86411  32.987  27.660   0.455
21185W        W86412  13.669  36.450   1.019
21186W        W86413  22.469  41.730  10.530
21187W        W86414  16.640  41.699   3.713
21188W        W86415  17.378  43.067   4.104
21189W        W86416  32.161  31.829   0.875
21190W        W86417   8.875   2.670  13.168
21191W        W86418   7.339  25.238   2.901
21192W        W86419  25.075  21.140   1.951
21193W        W86420  28.022  36.351   2.667
21194W        W86421  39.965  12.180   2.158
21195W        W86422  33.040  36.630   2.611
21196W        W86423  23.104  26.176   0.359
21197W        W86424  22.475  19.128  12.097
21198W        W86425   0.025  37.529  10.727
21199W        W86426  19.067  43.471   3.578
21200W        W86427  16.284  30.826  13.982
21201W        W86428   9.586  33.695  12.933
21202W        W86429  39.725   6.886  12.559
21203W        W86430   0.847  38.011  13.079
21204W        W86431  26.214  26.747   0.893
21205W        W86432  43.016  11.576  14.910
21206W        W86433  16.099  20.037  11.587
21207W        W86434   1.669   6.691   1.803
21208W        W86435  31.841  21.529  12.331
21209W        W86436  17.296   2.068   2.204
21210W        W86437  24.233   4.200  12.082
21211W        W86438  34.421   3.032   4.631
21212W        W86439  29.919  40.084   2.145
21213W        W86440  35.405  29.548   2.839
21214W        W86441  32.506   8.249   0.769
21215W        W86442  30.987   7.171  14.580
21216W        W86443  19.559  31.480  10.769
21217W        W86444  34.975  39.206  13.126
21218W        W86445   8.026  42.374   4.657
21219W        W86446  40.548  25.333  11.199
21220W        W86447  44.010  11.363  13.690
21221W        W86448  40.813  20.768  10.516
21222W        W86449  18.748  41.377   3.217
21223W        W86450  25.591  21.431   2.686
21224W        W86451  44.742  33.034  12.446
21225W        W86452  39.465  19.277   1.345
21226W        W86453  29.590  23.276  10.280
21227W        W86454  20.635   1.089   4.038
21228W        W86455   0.228   1.923  10.769
21229W        W86456  12.735  40.973  12.700
21230W        W86457  27.808   3.537   9.841
21231W        W86458  24.509  24.519   2.703
21232W        W86459  17.659   4.741  14.499
21233W        W86460  14.440  10.162  12.805
21234W        W86461  17.562   4.064   0.774
21235W        W86462  19.221  30.571   4.076
21236W        W86463  24.266  34.577  12.933
21237W        W86464  32.056  15.995  14.664
21238W        W86465  44.871  27.092  11.694
21239W        W86466  17.514  10.425  11.545
21240W        W86467  33.997   9.804  13.611
21241W        W86468  16.534  10.644   0.652
21242W        W86469  42.492  16.140  10.809
21243W        W86470   7.800  37.756  10.793
21244W        W86471  21.661  34.226  14.004
21245W        W86472  25.000  28.217   2.016
21246W        W86473  17.575   3.267   1.845
21247W        W86474   6.172  10.664  13.959
21248W        W86475  12.821  15.295   3.957
21249W        W86476  19.009  30.145   2.348
21250W        W86477  34.366  32.997   2.731
21251W        W86478  41.419  31.601   0.917
21252W        W86479  28.619  13.483  10.210
21253W        W86480  26.916  12.612   3.293
21254W        W86481  35.667  40.576   0.298
21255W        W86482   7.231  23.687   4.149
21256W        W86483  32.643   1.585  13.901
21257W        W86484  42.964  17.870   1.306
21258W        W86485  21.846  32.749   0.819
21259W        W86486  35.116  29.368   0.937
21260W        W86487  37.835  18.080  13.528
21261W        W86488  40.567  17.743   1.010
21262W        W86489  40.919  42.808  14.273
21263W        W86490  35.846   6.356  14.108
21264W        W86491  41.847  21.989  12.611
21265W        W86492  21.493  20.724  12.083
21266W        W86493   4.888   8.775  11.686
21267W        W86494  40.024  16.650  13.588
21268W        W86495  28.394  30.406   3.579
21269W        W86496  29.904  24.453   2.888
21270W        W86497  44.418  15.049   3.926
21271W        W86498   8.019   6.408  14.450
21272W        W86499  24.675  11.682  11.607
21273W        W86500   6.826   8.446   4.570
21274W        W86501  20.833  36.972   2.210
21275W        W86502   7.827  23.564  13.359
21276W        W86503  21.533  17.434  11.956
21277W        W86504  17.538  12.297  11.523
21278W        W86505  31.573  21.784   2.584
21279W        W86506  33.546  41.582  14.448
21280W        W86507  22.167  28.215   3.672
21281W        W86508  23.389   0.983   1.674
21282W        W86509  21.959  22.040   1.950
21283W        W86510   8.424  16.571   1.221
21284W        W86511  43.370  34.967   1.721
21285W        W86512  22.505   4.466  13.414
21286W        W86513  38.082   3.286   0.839
21287W        W86514  38.220  22.686  13.281
21288W        W86515  37.038   1.973  11.190
21289W        W86516  27.545  28.748   9.717
21290W        W86517  28.131  40.528  14.778
21291W        W86518  19.530  36.823  14.929
21292W        W86519  31.394  32.392   1.657
21293W        W86520  40.948  15.553   1.238
21294W        W86521  23.816  44.144   1.461
21295W        W86522  43.749  18.044   0.931
21296W        W86523   0.410  10.740  14.523
21297W        W86524  28.083  36.636  10.704
21298W        W86525  39.161  25.624  13.968
21299W        W86526  18.586  11.643   1.384
21300W        W86527  35.319  18.292   1.936
21301W        W86528  37.356  18.287  10.964
21302W        W86529  19.808  24.836  11.136
21303W        W86530  44.782  12.673   0.454
21304W        W86531  32.815  11.236  14.982
21305W        W86532   6.469  27.951  11.561
21306W        W86533  25.527  32.310   4.394
21307W        W86534   5.436  15.624  11.139
21308W        W86535  17.512  34.889   3.237
21309W        W86536  39.891   3.365  11.475
21310W        W86537  21.862  17.308   2.379
21311W        W86538  13.666  18.577   2.439
21312W        W86539  21.290  25.528   0.874
21313W        W86540  43.946   2.914   4.645
21314W        W86541   5.440   1.827  13.489
21315W        W86542  41.422  25.007  13.470
21316W        W86543   6.817  33.335   0.825
21317W        W86544   5.264   9.326  12.397
21318W        W86545  31.394  38.511   2.441
21319W        W86546   3.424  44.003   2.742
21320W        W86547  24.786  10.236  10.220
21321W        W86548  28.417  16.193   4.642
21322W        W86549  44.253  36.327  14.251
21323W        W86550  43.591  21.737  14.543
21324W        W86551  26.674   3.510  10.701
21325W        W86552  42.917  11.802  12.880
21326W        W86553   8.942  16.359  12.155
21327W        W86554  19.562  17.245   3.201
21328W        W86555  26.447  17.070  11.185
21329W        W86556   9.181  19.121   3.636
21330W        W86557  35.413  14.822  12.757
21331W        W86558  23.079   9.178   0.007
21332W        W86559   1.678  41.461   3.544
21333W        W86560   2.834   3.233  12.353
21334W        W86561  10.959  31.140  12.828
21335W        W86562  21.007   9.592  12.004
21336W        W86563  26.880  38.846  13.476
21337W        W86564   4.201  31.220   0.738
21338W        W86565  27.218  19.314  12.021
21339W        W86566   1.903   7.801  13.726
21340W        W86567   8.821   5.932   1.693
21341W        W86568  32.603  19.789  14.328
21342W        W86569   1.715  12.264   0.775
21343W        W86570  32.958  16.304  12.394
21344W        W86571  10.130  13.680  10.993
21345W        W86572  22.440  32.113  10.510
21346W        W86573  11.434  17.936   4.586
21347W        W86574  14.479  28.605   4.031
21348W        W86575  15.250  33.903   1.226
21349W        W86576   5.680  12.357  13.510
21350W        W86577  31.580  42.431  13.422
21351W        W86578  14.966  36.291   0.942
21352W        W86579   2.997  43.902   0.162
21353W        W86580   7.483  35.414   1.173
21354W        W86581  21.784  25.048   2.426
21355W        W86582  36.890   4.495   1.426
21356W        W86583  30.424  28.857   0.819
21357W        W86584  37.562  28.023  13.344
21358W        W86585   2.099  14.534   1.004
21359W        W86586  42.881  28.679   4.665
21360W        W86587  18.752  11.146  13.417
21361W        W86588  14.297  44.431  13.525
21362W        W86589  30.701   0.999  14.962
21363W        W86590  38.982  35.314   2.156
21364W        W86591  34.675  11.283  13.418
21365W        W86592   5.659   3.964   4.523
21366W        W86593  16.247  41.215  11.112
21367W        W86594   0.555   1.177  12.634
21368W        W86595  19.791  33.378   2.398
21369W        W86596  23.669  32.372  13.119
21370W        W86597  18.298  30.330  12.289
21371W        W86598  40.753  20.877  12.315
21372W        W86599  27.057  24.925   4.855
21373W        W86600  21.258  19.757   0.464
21374W        W86601   9.006   0.322   1.977
21375W        W86602  11.308  21.997  11.596
21376W        W86603  13.269  17.630  13.438
21377W        W86604  42.300  25.270  11.570
21378W        W86605  36.056  36.002  14.830
21379W        W86606  24.792   5.327  11.863
21380W        W86607  28.991  16.924  10.089
21381W        W86608  41.361  28.816  10.739
21382W        W86609  23.726  38.657   0.483
21383W        W86610  23.462  20.040   3.320
21384W        W86611  35.474  30.046   0.179
21385W        W86612  25.998  33.933  14.248
21386W        W86613  34.520  30.177  13.912
21387W        W86614  32.520  44.729   4.229
21388W        W86615  43.058  44.916  13.737
21389W        W86616  41.854  40.050  13.425
21390W        W86617  44.685  39.893   3.800
21391W        W86618  12.895   2.669   3.603
21392W        W86619  39.438  13.149   2.971
21393W        W86620  33.341  21.990   0.353
21394W        W86621  30.474  43.756  12.519
21395W        W86622  27.930  27.675  14.472
21396W        W86623  38.262  36.914  14.744
21397W        W86624  36.887   6.407   3.741
21398W        W86625  22.794  33.583  13.429
21399W        W86626  17.301  17.843   3.276
21400W        W86627  28.758  28.816   4.315
21401W        W86628  11.683  22.648   1.205
21402W        W86629  43.660  29.501   2.129
21403W        W86630  37.885  13.154   1.903
21404W        W86631  17.343  17.612   1.410
21405W        W86632  23.914  20.269   2.819
21406W        W86633  14.517  40.310  12.011
21407W        W86634  42.389  13.927   0.468
21408W        W86635   1.504  39.918  11.468
21409W        W86636   1.442  19.565   3.870
21410W        W86637   1.819  32.870  11.156
21411W        W86638  12.860   5.378  14.958
21412W        W86639  12.075  40.429   0.782
21413W        W86640  10.208   9.299  13.480
21414W        W86641  42.504  32.689  14.848
21415W        W86642   5.998  14.667  14.910
21416W        W86643  22.620   9.719  12.958
21417W        W86644  12.464  16.222   3.544
21418W        W86645  24.029  18.241  10.724
21419W        W86646  24.779  21.767   1.370
21420W        W86647  41.446  21.204   0.687
21421W        W86648  41.076  32.646  10.578
21422W        W86649  37.374  18.205   2.903
21423W        W86650   8.422  43.791   2.936
21424W        W86651   9.867  15.816  12.212
21425W        W86652   1.373  13.272   3.605
21426W        W86653  33.482  22.434   3.699
21427W        W86654  19.224  33.968  13.707
21428W        W86655  36.194  44.724  11.263
21429W        W86656  34.936  22.443  11.982
21430W        W86657  15.380   0.296   2.663
21431W        W86658  21.487  34.334  12.998
21432W        W86659  38.390  34.004  14.933
21433W        W86660  36.350  39.540  10.641
21434W        W86661   1.897  19.698   3.525
21435W        W86662  32.916  21.216  11.556
21436W        W86663  23.948   3.288  11.419
21437W        W86664  29.708   7.487   2.886
21438W        W86665  40.081  25.058   3.585
21439W        W86666  12.197  11.610   4.212
21440W        W86667  20.523  32.017  12.704
21441W        W86668  43.477  21.054  10.828
21442W        W86669  43.469  43.347  14.748
21443W        W86670  15.668   8.597  11.185
21444W        W86671   0.243  35.918  13.412
21445W        W86672   4.853   8.291   0.834
21446W        W86673  24.569  13.585   3.855
21447W        W86674  24.523  41.035  14.079
21448W        W86675  18.450   3.951   3.246
21449W        W86676  17.309  28.917  12.526
21450W        W86677  41.566   1.367  10.694
21451W        W86678   7.371  23.259  13.616
21452W        W86679  38.903  39.372  12.214
21453W        W86680  33.226  25.626  14.218
21454W        W86681   5.222   3.420   3.875
21455W        W86682   2.286  23.978  10.300
21456W        W86683  34.889  21.045  11.201
21457W        W86684   0.314   9.873   1.850
21458W        W86685  38.931   5.211  12.454
21459W        W86686  37.917  36.691   2.243
21460W        W86687  19.136  10.188  12.986
21461W        W86688  40.445  37.776  13.534
21462W        W86689  34.026  34.778  14.045
21463W        W86690  30.090  39.322   0.803
21464W        W86691  31.413  38.841  11.642
21465W        W86692  29.874   5.800  10.982
21466W        W86693  38.405   7.664   1.160
21467W        W86694   2.346   8.287  11.921
21468W        W86695  34.049  15.364  12.492
21469W        W86696  26.415  28.065   1.328
21470W        W86697  25.447  12.072   0.212
21471W        W86698   2.300   8.039   3.423
21472W        W86699  35.561  40.434  13.523
21473W        W86700  30.723  21.077  14.888
21474W        W86701   6.561  33.624  10.712
21475W        W86702  33.543  23.927  12.310
21476W        W86703   2.869   5.005  10.985
21477W        W86704  13.832  12.257  14.112
21478W        W86705  26.466   0.543   1.696
21479W        W86706  41.933  12.381  12.504
21480W        W86707  21.108  31.104  14.397
21481W        W86708  27.046   0.973   4.773
21482W        W86709  38.633  10.214  12.523
21483W        W86710  37.125  32.189   2.658
21484W        W86711  10.624  29.624   1.667
21485W        W86712   4.310  22.879  11.390
21486W        W86713  11.299   2.916   4.195
21487W        W86714   1.353  17.343   0.405
21488W        W86715   9.883  40.392  11.020
21489W        W86716  32.113  15.636  13.885
21490W        W86717   5.869  36.581   3.709
21491W        W86718  12.381  39.645   1.165
21492W        W86719   1.288   7.958  11.170
21493W        W86720   6.072  17.808  10.419
21494W        W86721  19.843   0.217  13.006
21495W        W86722   9.939  16.049   3.486
21496W        W86723  38.278  24.221   1.203
21497W        W86724  26.087  19.439  11.630
21498W        W86725  21.612  23.658   4.385
21499W        W86726   0.368  31.209  12.661
21500W        W86727  33.452  19.593  10.192
21501W        W86728  42.611   9.178  13.089
21502W        W86729   6.816   6.520  11.190
21503W        W86730   3.306  10.169   5.016
21504W        W86731  31.855  38.074   1.790
21505W        W86732  31.678  36.596   4.362
21506W        W86733   1.239   7.410  12.405
21507W        W86734   3.689  13.309  14.837
21508W        W86735  31.492  18.248   4.252
21509W        W86736  43.969  31.904  14.889
21510W        W86737   6.273  26.589  10.573
21511W        W86738  29.934   6.952  11.560
21512W        W86739   3.662   1.339   0.852
21513W        W86740  42.259   7.012  11.172
21514W        W86741   6.099  44.721  10.872
21515W        W86742   1.523  24.897   2.455
21516W        W86743  40.928  43.171  13.907
21517W        W86744   1.189  30.456   2.206
21518W        W86745  33.370   6.819  13.468
21519W        W86746   4.039  16.402   4.056
21520W        W86747  44.938   8.573  13.536
21521W        W86748  23.849  17.347  12.095
21522W        W86749  13.220  41.262   3.742
21523W        W86750  16.803  12.537  10.921
21524W        W86751  40.224   1.801   1.729
21525W        W86752   6.676  18.858   3.110
21526W        W86753  23.061  31.837   3.295
21527W        W86754   6.150  41.848   4.513
21528W        W86755  44.900  41.531   2.908
21529W        W86756  40.848  23.875   4.717
21530W        W86757  28.051  30.378   4.901
21531W        W86758  39.323  23.659  11.169
21532W        W86759  24.301  31.708  11.519
21533W        W86760   7.896  21.679  11.005
21534W        W86761   3.843  29.688  14.983
21535W        W86762  31.141  19.644   1.767
21536W        W86763   4.264   3.244   2.296
21537W        W86764  32.899   8.451   2.224
21538W        W86765  16.134   6.720  10.729
21539W        W86766  25.651  13.376   0.013
21540W        W86767  25.561  12.428   3.185
21541W        W86768  14.233   2.215   4.777
21542W        W86769  34.179  11.699  11.657
21543W        W86770   8.312  17.599   4.788
21544W        W86771  17.383  14.029  11.668
21545W        W86772   5.086  24.411  13.414
21546W        W86773  43.721  28.101  13.097
21547W        W86774   5.029  24.934  13.401
21548W        W86775  41.455  26.564   4.523
21549W        W86776  22.205   7.890   0.851
21550W        W86777  15.359   2.855  14.345
21551W        W86778  25.174  43.526  13.522
21552W        W86779  20.760   2.762   0.352
21553W        W86780  20.542  17.800  12.455
21554W        W86781   8.154   6.518  11.032
21555W        W86782  18.569  37.386   4.553
21556W        W86783  28.576   8.133   4.721
21557W        W86784  34.649  14.604   0.477
21558W        W86785  40.978  40.907   2.295
21559W        W86786  27.927  18.430  10.177
21560W        W86787  19.977   9.815   3.251
21561W        W86788  22.966  13.740  14.895
21562W        W86789   9.485  14.223   2.377
21563W        W86790  44.105  41.861  12.028
21564W        W86791  21.625  15.520   2.785
21565W        W86792  26.696  31.217   3.300
21566W        W86793  37.481  31.594   4.579
21567W        W86794   6.912  30.182  14.504
21568W        W86795  26.669  13.370  12.114
21569W        W86796  24.974  36.716   4.831
21570W        W86797   3.598   1.774   2.814
21571W        W86798  21.677  38.659   3.338
21572W        W86799  11.860  38.064  10.623
21573W        W86800  16.524  33.094  10.688
21574W        W86801   1.863  25.921  11.706
21575W        W86802  37.907  17.291  12.907
21576W        W86803  35.349  33.741   4.201
21577W        W86804  27.263   8.332  11.542
21578W        W86805  24.613  15.462  14.948
21579W        W86806  17.769  16.050   4.591
21580W        W86807  40.735  17.210  11.644
21581W        W86808  32.676  25.820  10.571
21582W        W86809  43.902  43.054   0.870
21583W        W86810   1.334  29.520   5.019
21584W        W86811  22.802  33.965  14.911
21585W        W86812  36.969  41.332  12.342
21586W        W86813  27.715  27.202  14.498
21587W        W86814   7.523  43.608   2.259
21588W        W86815   8.249  33.363  13.968
21589W        W86816  29.002  10.306  13.449
21590W        W86817  22.804  29.422   0.944
21591W        W86818  19.721  18.590   0.338
21592W        W86819  14.487  21.042   4.627
21593W        W86820  41.938  21.083   1.937
21594W        W86821  42.413  24.094  10.654
21595W        W86822   0.101  41.798  13.537
21596W        W86823  28.983  34.804  11.612
21597W        W86824   0.829   4.681   2.801
21598W        W86825  38.482  23.254   1.219
21599W        W86826  42.581   9.820  14.341
21600W        W86827   1.343  41.786  14.052
21601W        W86828  17.965  13.460  12.336
21602W        W86829  36.569  19.638   4.170
21603W        W86830  15.078  34.810   4.060
21604W        W86831  24.914  25.476   4.307
21605W        W86832  26.529  12.635  11.609
21606W        W86833   2.913  10.610   4.307
21607W        W86834   3.952  22.538   0.767
21608W        W86835  17.699   9.194   2.368
21609W        W86836  33.638   0.572   2.258
21610W        W86837  34.377  32.673   2.230
21611W        W86838  11.871  34.408   4.362
21612W        W86839  33.819  42.929   1.683
21613W        W86840  31.498  12.448   3.869
21614W        W86841  18.071  37.132   4.513
21615W        W86842  20.370  31.139   3.877
21616W        W86843  40.865  21.854  11.285
21617W        W86844  40.712   9.342  14.056
21618W        W86845  13.560  38.133   2.344
21619W        W86846   5.171   6.152   1.617
21620W        W86847  36.950  24.161   3.732
21621W        W86848  33.963   7.351   1.970
21622W        W86849  34.345  13.738  12.017
21623W        W86850  13.145   3.493  13.885
21624W        W86851  38.078  44.919   3.368
21625W        W86852   9.219  13.276  13.902
21626W        W86853  12.171   8.915  12.343
21627W        W86854  36.502  14.244  14.611
21628W        W86855  40.945   9.744   4.554
21629W        W86856  14.105  15.593   0.877
21630W        W86857  40.343  27.548  11.084
21631W        W86858  30.526  32.409  10.754
21632W        W86859  42.458  37.482   3.298
21633W        W86860  27.709  30.979  14.501
21634W        W86861  17.995  37.937   0.293
21635W        W86862   2.522  23.917   2.278
21636W        W86863  12.213  32.045   5.197
21637W        W86864  21.162   4.937  11.537
21638W        W86865  22.486  19.717  13.868
21639W        W86866  12.676  37.803   1.229
21640W        W86867  33.456  28.763   3.798
21641W        W86868  21.170   9.342  12.433
21642W        W86869  15.039   4.844   2.182
21643W        W86870  24.418  29.129   3.979
21644W        W86871  14.900  21.265   2.318
21645W        W86872   1.736   6.675   2.783
21646W        W86873  30.413  39.833   1.004
21647W        W86874  42.226  19.030   0.310
21648W        W86875  35.648  22.710  10.636
21649W        W86876   3.641  34.267   4.061
21650W        W86877  29.376   8.164   3.155
21651W        W86878  32.775  35.629   3.190
21652W        W86879   5.460  12.702  10.509
21653W        W86880   7.769  18.341   3.779
21654W        W86881  41.486   6.023  12.913
21655W        W86882   1.950  35.147   3.931
21656W        W86883  34.394  22.651  13.162
21657W        W86884   9.811   0.547  13.907
21658W        W86885  38.509  25.262   1.417
21659W        W86886   7.743   6.807  11.427
21660W        W86887  40.227  35.060   0.411
21661W        W86888  34.539  19.723  10.879
21662W        W86889  13.228  19.865  12.701
21663W        W86890  19.281  41.507  12.867
21664W        W86891  40.051  33.046  12.182
21665W        W86892  35.716  42.553  12.578
21666W        W86893  12.744  37.126  14.330
21667W        W86894  17.525  39.605   3.735
21668W        W86895  11.411  23.476  13.445
21669W        W86896  18.399   7.181  10.720
21670W        W86897  20.247  29.715  14.027
21671W        W86898  13.712   5.067  12.960
21672W        W86899  14.274  28.068   1.742
21673W        W86900  14.655   5.634   2.231
21674W        W86901  20.186  41.955   0.998
21675W        W86902  41.932  12.895  13.230
21676W        W86903   1.981  36.650   3.775
21677W        W86904   3.920  39.336  13.715
21678W        W86905  42.202  26.167  12.568
21679W        W86906  32.693  17.737   4.598
21680W        W86907   2.447   0.113  13.902
21681W        W86908  20.797   3.448  13.955
21682W        W86909  30.979   4.405  10.951
21683W        W86910  23.598  11.418  10.762
21684W        W86911  26.099  42.714   3.887
21685W        W86912  44.956  23.180   3.189
21686W        W86913  34.523  17.117  11.204
21687W        W86914   2.815  35.628  13.000
21688W        W86915  12.068  33.931   5.212
21689W        W86916   3.427  23.386   4.738
21690W        W86917  41.879  13.359   0.900
21691W        W86918   6.577  19.017  12.058
21692W        W86919   1.045  37.521   3.231
21693W        W86920  20.338  16.829  10.706
21694W        W86921  30.396   3.926   2.661
21695W        W86922  26.061  39.064   4.962
21696W        W86923   7.723  17.961   2.872
21697W        W86924  30.711  30.581  12.941
21698W        W86925  31.326  42.335  13.917
21699W        W86926  28.896  31.728   0.104
21700W        W86927   1.180  23.159   4.996
21701W        W86928  41.352   5.085   1.786
21702W        W86929   1.330   9.690  10.637
21703W        W86930  27.823  32.913  13.829
21704W        W86931  43.553  11.096   3.721
21705W        W86932  24.243   8.022   4.139
21706W        W86933  18.706   6.612  10.808
21707W        W86934  32.010  44.100   0.873
21708W        W86935  12.520  30.164   0.307
21709W        W86936   9.685  32.061  13.128
21710W        W86937  38.714  27.506  13.909
21711W        W86938  11.742  15.665   4.437
21712W        W86939  33.855  30.909   1.928
21713W        W86940  35.075  14.413  10.658
21714W        W86941   6.963  19.734   3.804
21715W        W86942  38.855  20.281   3.723
21716W        W86943   4.383  44.433   3.986
21717W        W86944  41.732  22.561  14.439
21718W        W86945  19.861  39.992  12.492
21719W        W86946  37.853  28.581   4.173
21720W        W86947  36.568  43.718  12.064
21721W        W86948  31.792   9.812  12.925
21722W        W86949  43.283  29.944   0.065
21723W        W86950   6.147  25.451   4.630
21724W        W86951  13.658   9.022  13.385
21725W        W86952  37.063  17.310   3.894
21726W        W86953  30.092  15.225   1.851
21727W        W86954  20.285  40.161   1.710
21728W        W86955  36.985   8.857  10.636
21729W        W86956  43.846  24.814  13.000
21730W        W86957  19.571  13.380   1.317
21731W        W86958  22.633  28.191   2.190
21732W        W86959  40.594  41.440   3.676
21733W        W86960  14.320  17.698   2.904
21734W        W86961   4.667  30.448  10.234
21735W        W86962  18.226  25.554  14.510
21736W        W86963  28.558  15.701  14.953
21737W        W86964  28.387   2.979  10.663
21738W        W86965  12.202  14.767   4.577
21739W        W86966   0.310   7.250  12.808
21740W        W86967  14.851  27.066  14.941
21741W        W86968  37.421  38.037  12.001
21742W        W86969  33.374  12.133  12.156
21743W        W86970  24.542   7.647   1.009
21744W        W86971  21.206  33.164   1.111
21745W        W86972   3.595  25.129   4.016
21746W        W86973  30.504   7.958   1.708
21747W        W86974  16.972  15.508   4.620
21748W        W86975   3.050  30.589   1.710
21749W        W86976  15.642  24.106   4.659
21750W        W86977  24.253   9.282   3.339
21751W        W86978   4.764  12.854  11.717
21752W        W86979   4.751   4.891   4.109
21753W        W86980  18.640   3.311  14.381
21754W        W86981  23.815  29.256   9.735
21755W        W86982  44.059  43.414   3.290
21756W        W86983  10.790  11.121   1.662
21757W        W86984   9.152   7.332  13.559
21758W        W86985  14.888  22.822   0.423
21759W        W86986  32.631  11.813   0.939
21760W        W86987  30.502  44.035   2.260
21761W        W86988  11.718   7.840   4.864
21762W        W86989  17.046   4.191  11.634
21763W        W86990  17.613  40.992  11.660
21764W        W86991  19.423   1.810   1.693
21765W        W86992   6.746  14.189   1.290
21766W        W86993  22.245  40.018   2.256
21767W        W86994   4.344   8.825  10.662
21768W        W86995  37.952  32.125  11.377
21769W        W86996  11.805   0.393   4.651
21770W        W86997  43.008  19.481   2.995
21771W        W86998  24.633  21.437  13.130
21772W        W86999  25.321  36.922   2.793
21773W        W87000  23.792  16.245  10.554
21774W        W87001  43.472   5.691   0.833
21775W        W87002   5.903   3.511   3.183
21776W        W87003  36.306  38.967  10.282
21777W        W87004   5.654  14.872   9.970
21778W        W87005  31.271  24.295  10.101
21779W        W87006   9.903  14.676  10.781
21780W        W87007  38.114  10.719   4.928
21781W        W87008  14.046  24.110   2.691
21782W        W87009   5.948   2.661  11.137
21783W        W87010   7.378  34.611   4.660
21784W        W87011  21.196  12.265  10.826
21785W        W87012  34.010   9.862   3.251
21786W        W87013  13.128  36.652  14.923
21787W        W87014  19.130  20.068  11.045
21788W        W87015  19.043  10.319   3.246
21789W        W87016  21.019   4.432   2.675
21790W        W87017  41.754   9.667  11.890
21791W        W87018  26.561  26.532  11.650
21792W        W87019  36.002  13.239   1.180
21793W        W87020  23.490  43.423   0.889
21794W        W87021  37.026  41.649   1.020
21795W        W87022  33.868   1.898  12.840
21796W        W87023  10.399   7.120   1.456
21797W        W87024  20.546  28.394   1.728
21798W        W87025   7.235   3.944  14.021
21799W        W87026  32.579   3.061  11.529
21800W        W87027  18.115  35.274   0.952
21801W        W87028  40.662  28.996   0.421
21802W        W87029  21.549  30.720   0.040
21803W        W87030  39.974  19.612  10.771
21804W        W87031  10.119  19.656   1.326
21805W        W87032  19.496   6.284  12.008
21806W        W87033  15.745  44.730  10.554
21807W        W87034  40.433  34.080   3.512
21808W        W87035   9.463   3.750  10.533
21809W        W87036   1.916  18.246   1.705
21810W        W87037  17.031  32.650   4.642
21811W        W87038  44.918  25.392  13.113
21812W        W87039   2.967   1.788  14.372
21813W        W87040  18.915  38.562  11.547
21814W        W87041  31.297  31.979  10.197
21815W        W87042  25.235   8.709  11.164
21816W        W87043  43.404  38.850  11.153
21817W        W87044  12.935  26.006   2.438
21818W        W87045  28.705  44.541   4.196
21819W        W87046  37.987  31.662   3.724
21820W        W87047  34.235  35.421  10.803
21821W        W87048  27.205  14.207   2.560
21822W        W87049  21.543  33.428  10.041
21823W        W87050  13.640   8.778   0.177
21824W        W87051  16.713  34.752   4.180
21825W        W87052  13.789  24.251  13.372
21826W        W87053  17.156   0.823  12.518
21827W        W87054  15.169  21.700   2.210
21828W        W87055  42.348  12.133  11.053
21829W        W87056  21.833   3.157  10.855
21830W        W87057  17.355  29.805   2.082
21831W        W87058   2.744  25.559   1.881
21832W        W87059  13.740   2.044   4.698
21833W        W87060  26.575  22.452   5.014
21834W        W87061  28.172  23.197   2.588
21835W        W87062  31.059  24.878  10.741
21836W        W87063  33.625   5.292   2.214
21837W        W87064  32.616  24.516  11.888
21838W        W87065  34.599   1.708   0.398
21839W        W87066  41.754  35.521  13.329
21840W        W87067  27.667  33.504   2.807
21841W        W87068  35.432  12.131  12.022
21842W        W87069  25.415  40.718   5.064
21843W        W87070  22.936  25.050  13.352
21844W        W87071  30.643  25.020  10.144
21845W        W87072  23.752  40.032   3.019
21846W        W87073  22.720  10.775   3.322
21847W        W87074  12.959  43.780   0.052
21848W        W87075   9.907  12.605   4.299
21849W        W87076  29.671   6.801   1.304
21850W        W87077  18.756  12.753   4.429
21851W        W87078  40.201   3.240   1.693
21852W        W87079  12.758  15.604   1.406
21853W        W87080  39.782  42.300  14.166
21854W        W87081  38.418  31.568   0.530
21855W        W87082  27.236  42.088  12.134
21856W        W87083  43.728  21.368   3.222
21857W        W87084   0.404  23.293  10.969
21858W        W87085   9.260   9.750  13.658
21859W        W87086  30.444  34.305  10.722
21860W        W87087   0.035  35.916   4.192
21861W        W87088  33.491  29.714  14.288
21862W        W87089   1.456   7.278  13.738
21863W        W87090  34.585  40.258  13.879
21864W        W87091  41.286  16.101   0.625
21865W        W87092   9.043  20.956   1.753
21866W        W87093  28.422  39.435   4.881
21867W        W87094   5.788  14.122  11.610
21868W        W87095  34.812   0.448  10.253
21869W        W87096  44.089  36.336   2.755
21870W        W87097  21.694   4.449  13.052
21871W        W87098  35.494  22.470  14.865
21872W        W87099  22.675  39.081   4.809
21873W        W87100  23.937  35.513  12.445
21874W        W87101  37.958   0.275  10.642
21875W        W87102  42.853   5.929  12.448
21876W        W87103   4.505  15.236   1.278
21877W        W87104   7.582  24.045  14.187
21878W        W87105  19.302   5.411   1.344
21879W        W87106  36.760   7.885   2.622
21880W        W87107   8.954  19.135  11.072
21881W        W87108  19.013  17.844  11.132
21882W        W87109  14.195  31.457   1.296
21883W        W87110   0.352   9.688   0.365
21884W        W87111  11.629  19.647  11.633
21885W        W87112   7.330   6.580   1.700
21886W        W87113  31.662  42.080   4.208
21887W        W87114   6.615   4.748  13.319
21888W        W87115   8.285   6.884  10.690
21889W        W87116  10.609  21.669  13.066
21890W        W87117  13.329   4.889   1.056
21891W        W87118   7.846  34.935   2.257
21892W        W87119   6.975   3.968   2.189
21893W        W87120  22.680  24.588  13.348
21894W        W87121   6.714   7.629   1.441
21895W        W87122  26.262  34.906   1.998
21896W        W87123  13.187  18.600  13.605
21897W        W87124  37.906   1.959  14.922
21898W        W87125  31.253  43.347   0.972
21899W        W87126   1.124   5.450   0.298
21900W        W87127   6.333   9.660   2.194
21901W        W87128  41.738  11.941  12.642
21902W        W87129  43.843   1.715  14.438
21903W        W87130  34.359  17.202   0.848
21904W        W87131  20.661  24.828  12.649
21905W        W87132  24.565  40.402  13.082
21906W        W87133  32.607  41.968   1.374
21907W        W87134  43.487  35.078   3.478
21908W        W87135  35.999  44.605   2.464
21909W        W87136  30.528  12.939   1.859
21910W        W87137   8.378   2.437  12.069
21911W        W87138   0.972  11.280  11.062
21912W        W87139  33.528  31.952   2.893
21913W        W87140  43.885  29.785   1.225
21914W        W87141   5.978  23.215   0.389
21915W        W87142  15.243  15.583  12.051
21916W        W87143  23.796  42.049  13.446
21917W        W87144  17.616  43.703   3.240
21918W        W87145  32.862   8.642  13.189
21919W        W87146   1.490  41.908   4.079
21920W        W87147   3.291  41.381  12.163
21921W        W87148   9.288  31.043  12.617
21922W        W87149  41.812   4.355   0.654
21923W        W87150   8.403  35.138   0.886
21924W        W87151  23.191  34.022  14.010
21925W        W87152  35.163  15.553   4.494
21926W        W87153  43.644  44.075  10.394
21927W        W87154  37.054  10.625   0.394
21928W        W87155  31.775  29.618   2.055
21929W        W87156  19.332   2.951  14.843
21930W        W87157  34.526  28.468   3.642
21931W        W87158  30.026  32.572   0.373
21932W        W87159  33.775  11.817  14.417
21933W        W87160  17.368  36.508   4.841
21934W        W87161   4.726  22.019  13.457
21935W        W87162  26.891   1.874   4.608
21936W        W87163   9.078   2.350   4.249
21937W        W87164  29.185  13.064  10.976
21938W        W87165  12.028  43.079  11.447
21939W        W87166  20.266  38.682   4.556
21940W        W87167  42.768  40.467  12.345
21941W        W87168  40.907   8.156   1.879
21942W        W87169   9.600  25.747   2.569
21943W        W87170  33.524  31.720   3.366
21944W        W87171  23.007  27.425   2.248
21945W        W87172  18.795  40.535  12.968
21946W        W87173  26.970  32.310  11.709
21947W        W87174  32.572   4.970   4.932
21948W        W87175  21.783  40.527  11.444
21949W        W87176   5.890   2.100  13.139
21950W        W87177  41.330   8.901   2.223
21951W        W87178   5.221  40.094  11.646
21952W        W87179  39.892  20.354   4.687
21953W        W87180  33.083  22.008  12.895
21954W        W87181  38.539  37.201  13.863
21955W        W87182  37.824   8.943  14.000
21956W        W87183  43.662  34.114   2.387
21957W        W87184  30.672  19.359   2.987
21958W        W87185   6.230   7.425   1.417
21959W        W87186   1.348   6.605  11.562
21960W        W87187  38.986   0.861   0.300
21961W        W87188  38.339  38.896   1.964
21962W        W87189  30.585  44.252   1.248
21963W        W87190  18.925  41.742   3.713
21964W        W87191  12.854  21.487  12.039
21965W        W87192  24.087  11.623   1.527
21966W        W87193  20.490  39.305   0.837
21967W        W87194  29.987  29.560   0.789
21968W        W87195   9.806  30.863  12.617
21969W        W87196  37.258   8.042  10.407
21970W        W87197  24.629   9.098   0.708
21971W        W87198   1.346  37.990  10.732
21972W        W87199  40.011  21.371   4.532
21973W        W87200  12.571  35.032  12.140
21974W        W87201  13.641  30.399  11.153
21975W        W87202  30.833   7.238   3.732
21976W        W87203  41.750   8.014   2.393
21977W        W87204  38.406   6.886  13.333
21978W        W87205  36.750  19.119   2.261
21979W        W87206  15.643  33.544   3.704
21980W        W87207  40.493  43.798  10.606
21981W        W87208  37.863  28.456   1.879
21982W        W87209   6.307  25.009  13.054
21983W        W87210  44.920  20.350  12.419
21984W        W87211  38.424  20.089  11.955
21985W        W87212   7.377   8.017   0.028
21986W        W87213   1.197  18.756   0.347
21987W        W87214   6.633  11.619   2.290
21988W        W87215  20.682  11.137  11.494
21989W        W87216  40.277  20.317  13.364
21990W        W87217  43.099  25.591  11.553
21991W        W87218  43.649  22.152   2.991
21992W        W87219   2.446  32.957  11.731
21993W        W87220  21.523   5.392  13.357
21994W        W87221  26.180  29.946   3.269
21995W        W87222  18.736  20.164   4.005
21996W        W87223  13.695  25.758   3.195
21997W        W87224   5.411   1.255   2.393
21998W        W87225  14.335  33.586   2.315
21999W        W87226  11.457  27.093   0.310
22000W        W87227  42.046   7.136  13.521
22001W        W87228  32.120  44.836  11.305
22002W        W87229  23.739   9.643  13.004
22003W        W87230   0.870  34.460  13.128
22004W        W87231  15.024   7.962  12.287
22005W        W87232   2.307  26.616  12.895
22006W        W87233  30.395  29.493   1.677
22007W        W87234  27.691  14.126   3.764
22008W        W87235  22.588  40.814   2.813
22009W        W87236  11.881   8.240   1.010
22010W        W87237  12.351  44.446   1.517
22011W        W87238  27.997  32.922   4.985
22012W        W87239  12.958  37.388  10.760
22013W        W87240  37.741   1.994   1.186
22014W        W87241  22.122  41.294  12.877
22015W        W87242  30.078  10.689   0.332
22016W        W87243  30.186  37.289   0.208
22017W        W87244   3.164  10.187   4.128
22018W        W87245  30.976  22.095   0.506
22019W        W87246   0.295  32.998  12.450
22020W        W87247  38.384  42.046  12.007
22021W        W87248   0.174  27.692   2.937
22022W        W87249  39.459  21.019  14.525
22023W        W87250  17.353   9.719  12.536
22024W        W87251  43.073  40.115   0.081
22025W        W87252   0.032  41.301  13.382
22026W        W87253   5.579  42.585  12.429
22027W        W87254  38.782  18.863  10.721
22028W        W87255   7.864   8.827  10.339
22029W        W87256  19.047  22.957  11.090
22030W        W87257  36.636  23.391   1.274
22031W        W87258  21.156  12.190   2.853
22032W        W87259  12.241  38.773  12.199
22033W        W87260  25.050  29.377  11.114
22034W        W87261  18.544  12.860   3.317
22035W        W87262   3.139  39.330  12.019
22036W        W87263   8.766  37.778   2.766
22037W        W87264  31.701   6.710   3.349
22038W        W87265  32.555  12.136   0.195
22039W        W87266  20.037  38.932   2.676
22040W        W87267  40.288   2.053  12.390
22041W        W87268  27.508   7.049   2.216
22042W        W87269   1.727  17.753   1.695
22043W        W87270   3.545  38.573  12.615
22044W        W87271  43.962   7.494   0.988
22045W        W87272  23.623  35.218  14.346
22046W        W87273  20.175  37.386   5.064
22047W        W87274  11.414  22.166  14.571
22048W        W87275   8.979  44.068  10.653
22049W        W87276   0.540  36.233  12.029
22050W        W87277  34.154   1.937  12.391
22051W        W87278  23.245  21.800   2.363
22052W        W87279  29.239  27.253  14.749
22053W        W87280  15.579  38.789   2.774
22054W        W87281  12.591  10.652   0.720
22055W        W87282  14.010  32.059  10.317
22056W        W87283   6.957  37.083   2.270
22057W        W87284  35.966  40.340   2.273
22058W        W87285  16.657  34.818  13.083
22059W        W87286  31.107  19.515   2.719
22060W        W87287   9.739  35.704   0.920
22061W        W87288  15.654  40.110   3.086
22062W        W87289  36.756  30.675  12.520
22063W        W87290  34.421  38.265  14.898
22064W        W87291  26.979  35.953   4.159
22065W        W87292  34.566  37.297   4.677
22066W        W87293  18.853   3.460  10.524
22067W        W87294  26.259   3.893  13.761
22068W        W87295   3.202   1.740  12.520
22069W        W87296  16.795  33.975  13.145
22070W        W87297  19.018  30.075  12.827
22071W        W87298   0.247  43.434   0.398
22072W        W87299  18.713  13.507  12.008
22073W        W87300  17.046  35.659   0.529
22074W        W87301   1.514  10.669   3.099
22075W        W87302  34.718  17.119  14.993
22076W        W87303   2.378  14.547   0.450
22077W        W87304  40.129   4.269   4.106
22078W        W87305  31.937  12.204  14.735
22079W        W87306   2.784  20.033   0.764
22080W        W87307  38.304  27.187  13.910
22081W        W87308  22.024  18.470  14.912
22082W        W87309  41.345  36.569   0.276
22083W        W87310  18.328  17.290  11.570
22084W        W87311  41.838  19.169   2.469
22085W        W87312  37.597  15.411  13.448
22086W        W87313  25.796  14.486  14.362
22087W        W87314   0.345  25.477  14.353
22088W        W87315  38.057  21.364  14.062
22089W        W87316  17.305  18.143  13.042
22090W        W87317  36.530  24.543  13.075
22091W        W87318   9.152  34.828   3.154
22092W        W87319  20.773   5.436  11.911
22093W        W87320  41.484  36.745  13.757
22094W        W87321  19.052   2.949  13.059
22095W        W87322  43.605  20.027  13.058
22096W        W87323  11.498  22.329  11.096
22097W        W87324  36.806  19.183  14.921
22098W        W87325  27.125  31.925   2.879
22099W        W87326  30.120  17.909  11.118
22100W        W87327  39.834  10.456  10.814
22101W        W87328  33.886  39.883   1.079
22102W        W87329  43.565  34.153  12.989
22103W        W87330  29.408  26.438  13.389
22104W        W87331  29.891   3.896   2.724
22105W        W87332  14.754  28.067  12.495
22106W        W87333  14.312  15.635   2.948
22107W        W87334  38.387  43.961   2.184
22108W        W87335  42.731  13.757   4.118
22109W        W87336  17.533  27.189  11.535
22110W        W87337  35.060  20.935   4.004
22111W        W87338  14.803  14.680  13.219
22112W        W87339  26.632  27.165   0.320
22113W        W87340  30.591  30.704   3.265
22114W        W87341   3.642  27.651  12.000
22115W        W87342  36.424   8.807  13.159
22116W        W87343  14.404  17.513   1.924
22117W        W87344  27.515  19.888   4.640
22118W        W87345  25.720   4.145   3.198
22119W        W87346  24.245  35.885   3.728
22120W        W87347  18.273  23.400   2.140
22121W        W87348   6.213   8.049  12.852
22122W        W87349   0.268   5.135  11.566
22123W        W87350  28.946  44.708   4.615
22124W        W87351  13.142  15.059   3.144
22125W        W87352  15.913  28.976   1.455
22126W        W87353  14.980   5.924  10.320
22127W        W87354  24.975  22.738   1.455
22128W        W87355  12.830  32.098   0.791
22129W        W87356   6.144   3.814  13.039
22130W        W87357  13.403  40.442  10.653
22131W        W87358   1.644   4.148   3.623
22132W        W87359   0.378  15.082  14.512
22133W        W87360  10.066  31.674  11.464
22134W        W87361   9.909  20.862   0.730
22135W        W87362   2.773  23.503  11.648
22136W        W87363  43.257  36.128   3.121
22137W        W87364   2.310  31.182   3.579
22138W        W87365   9.390  25.225  14.759
22139W        W87366  13.735  14.247   0.742
22140W        W87367  44.992   6.472   4.113
22141W        W87368  22.169  11.452  13.524
22142W        W87369   9.341  39.091  12.510
22143W        W87370  29.585  28.683   2.732
22144W        W87371  24.147   1.312  13.445
22145W        W87372  22.829  16.270   0.419
22146W        W87373  30.893  38.604   2.289
22147W        W87374  33.214   8.420  13.508
22148W        W87375   4.359  23.608   1.346
22149W        W87376  15.739  32.587  11.569
22150W        W87377  20.083  41.305   2.601
22151W        W87378  42.858  16.047   3.105
22152W        W87379   3.399  31.498  13.796
22153W        W87380   2.827  12.255   4.146
22154W        W87381   5.837   8.931  12.908
22155W        W87382  17.431  36.831   3.203
22156W        W87383  18.480   6.005  12.526
22157W        W87384  18.355  10.375  13.416
22158W        W87385  13.044  16.784   0.533
22159W        W87386  38.973   3.417   3.536
22160W        W87387   8.395  31.402   4.945
22161W        W87388  44.356   3.733   4.720
22162W        W87389   4.599   8.307   4.335
22163W        W87390  25.688  41.163   2.746
22164W        W87391  25.636   7.640   3.570
22165W        W87392  23.109  22.958  12.437
22166W        W87393   8.277   0.960   2.676
22167W        W87394  36.288  28.513   4.260
22168W        W87395  25.190   1.850   5.609
22169W        W87396  22.659  39.794  11.632
22170W        W87397  34.870  36.435   2.366
22171W        W87398  20.643  41.859  10.839
22172W        W87399  24.581  29.192   4.476
22173W        W87400   9.794  12.905  10.429
22174W        W87401  27.600   6.362  10.758
22175W        W87402  12.654  22.328  14.048
22176W        W87403  29.682   7.272  13.560
22177W        W87404  28.068   0.358  10.568
22178W        W87405   0.791  36.028   0.839
22179W        W87406  28.623  37.393   2.167
22180W        W87407  29.102  12.167   3.885
22181W        W87408  34.085  40.065  12.998
22182W        W87409  35.686  43.463   4.937
22183W        W87410  30.353  26.111   0.897
22184W        W87411   7.214  37.950   0.322
22185W        W87412  15.682  12.291  14.399
22186W        W87413   8.892   6.364   0.915
22187W        W87414  15.605  39.652  12.620
22188W        W87415  16.612  18.960  13.476
22189W        W87416  14.287  30.360  14.280
22190W        W87417  26.509  17.506  11.460
22191W        W87418  44.226  36.317   3.976
22192W        W87419  16.278  37.967  14.402
22193W        W87420  20.797  13.166  11.498
22194W        W87421  19.594  25.138   1.173
22195W        W87422  42.772  37.811  14.795
22196W        W87423  27.382  32.003  12.532
22197W        W87424  14.851  22.501  14.995
22198W        W87425  26.717  24.016   2.686
22199W        W87426  33.037  13.797  13.928
22200W        W87427  20.945  30.599   3.596
22201W        W87428   3.768  27.014   2.225
22202W        W87429  38.198  30.304   3.282
22203W        W87430  13.410   1.407   1.358
22204W        W87431  20.083  33.510  12.584
22205W        W87432  31.575  26.916  13.461
22206W        W87433  39.482  23.980  12.583
22207W        W87434  33.350  11.119  12.937
22208W        W87435   4.826  16.998   5.047
22209W        W87436  18.020  21.576   2.697
22210W        W87437  10.467  16.222   0.923
22211W        W87438  11.664  39.669   2.576
22212W        W87439   5.502  36.519   0.135
22213W        W87440   0.739   0.399   3.234
22214W        W87441  18.191  21.120   0.430
22215W        W87442  44.985  40.116  13.986
22216W        W87443   9.349  19.796   4.982
22217W        W87444  16.657  22.542  11.004
22218W        W87445  27.465  33.920  12.974
22219W        W87446  22.078  22.962   1.634
22220W        W87447  27.225  43.359  12.541
22221W        W87448  23.112  43.451  13.398
22222W        W87449  39.892  25.025   1.381
22223W        W87450  31.849   7.389  12.963
22224W        W87451  30.467   2.875   3.692
22225W        W87452   7.273  22.902  14.010
22226W        W87453  10.011  10.271   4.228
22227W        W87454  24.105   4.591   4.482
22228W        W87455  17.502  35.633  11.543
22229W        W87456   5.615   8.627  14.233
22230W        W87457   9.215  44.174   3.417
22231W        W87458  25.562   2.784  14.441
22232W        W87459  28.009  19.017   2.308
22233W        W87460  22.229  10.810   4.073
22234W        W87461   1.885   3.414   4.297
22235W        W87462  22.073   6.434  13.970
22236W        W87463  18.620  34.590   2.229
22237W        W87464  24.263  22.352   3.197
22238W        W87465  16.635  11.327   0.480
22239W        W87466   5.975  12.936   1.146
22240W        W87467  25.998  14.316   2.386
22241W        W87468  38.015   2.244   4.690
22242W        W87469  37.608  11.339  11.069
22243W        W87470  18.743   5.756   3.120
22244W        W87471   6.391   4.757   2.486
22245W        W87472  14.120  21.129  10.441
22246W        W87473  44.478  40.432  11.183
22247W        W87474  34.939  23.550   1.634
22248W        W87475  12.496  29.463   1.444
22249W        W87476  39.006  10.743  11.199
22250W        W87477  33.539  38.826  11.750
22251W        W87478  28.928  35.930   1.395
22252W        W87479  25.577   2.028   5.304
22253W        W87480  31.615  34.521   4.750
22254W        W87481  13.814   8.394  10.749
22255W        W87482  13.844  36.626  12.833
22256W        W87483  25.567   4.092  12.021
22257W        W87484  32.981  26.542   2.532
22258W        W87485  21.309  41.561  13.783
22259W        W87486  43.714  20.749   3.953
22260W        W87487  14.401  13.004  11.035
22261W        W87488  26.479  40.800  12.130
22262W        W87489  32.928  42.589   0.901
22263W        W87490  24.730   5.023  10.430
22264W        W87491  22.117   3.254  12.408
22265W        W87492  14.397  22.161   4.193
22266W        W87493   9.219  26.196  13.483
22267W        W87494  39.443  29.747   3.823
22268W        W87495  31.415   2.663   3.398
22269W        W87496  14.650  28.353  10.348
22270W        W87497  16.937   4.097  13.704
22271W        W87498  18.098  21.288  14.952
22272W        W87499  22.610  16.680   1.332
22273W        W87500   5.151  14.202  12.455
22274W        W87501   3.131  19.295   4.220
22275W        W87502  14.104  16.688  12.955
22276W        W87503   8.098  16.763   4.914
22277W        W87504   0.481   9.813  14.441
22278W        W87505  17.736  36.382   4.510
22279W        W87506  19.269   5.794   3.280
22280W        W87507  39.655  15.769   2.738
22281W        W87508   7.790  37.995  11.240
22282W        W87509  12.802  35.301  13.422
22283W        W87510   6.729   4.001  10.798
22284W        W87511  17.035  19.274  13.542
22285W        W87512  18.190  33.526   0.136
22286W        W87513  23.673   9.973   1.444
22287W        W87514  38.440  28.396  11.683
22288W        W87515  28.791  26.439   1.330
22289W        W87516   1.899  27.918   2.683
22290W        W87517  37.805  29.154  12.950
22291W        W87518  35.516  33.491   0.417
22292W        W87519  29.460   3.239  13.572
22293W        W87520  38.484  35.518  13.858
22294W        W87521  22.601  30.459   4.563
22295W        W87522   2.896  18.569  14.374
22296W        W87523  23.113  22.155  14.046
22297W        W87524  15.270  20.666  13.982
22298W        W87525  17.023  32.644   1.922
22299W        W87526  27.081  37.538   3.682
22300W        W87527  31.590  34.887  13.536
22301W        W87528  32.912  23.940   2.281
22302W        W87529  30.870  25.684  12.026
22303W        W87530  34.334  11.459   4.018
22304W        W87531  35.090  35.403  11.140
22305W        W87532  18.656  11.803   0.872
22306W        W87533   5.404  36.100  12.060
22307W        W87534  17.064  23.081  13.910
22308W        W87535  19.536  36.297  14.867
22309W        W87536  39.248   1.996   1.693
22310W        W87537  22.791  21.620   1.983
22311W        W87538   3.133  39.073   4.846
22312W        W87539   8.174  14.357  13.472
22313W        W87540  36.080  35.330  14.052
22314W        W87541  30.059  39.007   4.329
22315W        W87542  17.671  26.966   4.104
22316W        W87543  16.125  13.511   3.726
22317W        W87544  42.398  42.855   4.594
22318W        W87545  40.606  30.897  10.931
22319W        W87546  38.478  41.527   4.720
22320W        W87547  32.619  20.043  12.516
22321W        W87548  24.772   0.291   0.358
22322W        W87549   7.797   2.051   4.889
22323W        W87550   8.912  36.787  11.460
22324W        W87551   0.693  37.481  12.400
22325W        W87552  25.881  22.180  11.109
22326W        W87553  42.795   6.896   2.821
22327W        W87554  17.668  24.932  12.970
22328W        W87555  13.209  34.757   5.009
22329W        W87556  13.209  29.618  12.869
22330W        W87557  26.145  16.506  14.350
22331W        W87558  32.112  16.193  12.270
22332W        W87559   4.141  11.711  11.297
22333W        W87560  19.088  41.429   4.130
22334W        W87561  12.889  39.117  14.432
22335W        W87562  36.584  13.840  14.325
22336W        W87563  17.251  15.019  11.315
22337W        W87564  40.279  29.019   0.807
22338W        W87565  27.614  16.592   0.328
22339W        W87566  39.455  17.511   4.710
22340W        W87567  37.378  44.777   2.818
22341W        W87568   8.474  19.239  14.039
22342W        W87569  21.275  44.959   1.286
22343W        W87570   8.687  41.558   0.435
22344W        W87571  36.958  11.866  13.876
22345W        W87572  28.169  34.880   3.685
22346W        W87573  17.155   8.917   3.722
22347W        W87574   9.483   3.809  14.087
22348W        W87575  31.151  29.054   1.391
22349W        W87576  10.339  37.437  11.052
22350W        W87577  33.949  11.810   3.192
22351W        W87578  44.382  43.734  13.031
22352W        W87579  18.811   7.998  12.515
22353W        W87580  36.002  35.545   3.381
22354W        W87581   2.411  22.006  14.238
22355W        W87582  19.705  24.054   0.262
22356W        W87583  30.982  23.218   1.624
22357W        W87584  38.594   1.432  13.329
22358W        W87585  16.786  44.961   2.342
22359W        W87586  21.076   0.368   3.670
22360W        W87587  22.041  33.421   3.383
22361W        W87588  12.727  12.222  12.100
22362W        W87589   7.118  20.459   1.195
22363W        W87590  11.620  38.542   0.365
22364W        W87591  10.303   5.719   4.087
22365W        W87592  12.308  37.031   0.147
22366W        W87593  19.681   2.005  10.661
22367W        W87594  30.328  29.480  12.572
22368W        W87595  32.939   0.764   1.339
22369W        W87596  29.507  31.712  11.057
22370W        W87597   0.835   2.405   4.415
22371W        W87598  40.624  32.864   4.699
22372W        W87599  27.117  27.179  10.231
22373W        W87600  22.107  28.199   0.242
22374W        W87601  10.512  29.179   0.536
22375W        W87602   2.272  24.228   1.822
22376W        W87603  33.396  23.878   0.542
22377W        W87604  30.551  40.539  13.891
22378W        W87605  12.536   0.366  13.552
22379W        W87606  14.542   4.256  13.172
22380W        W87607  21.466  12.400  13.070
22381W        W87608  35.300  27.986   2.062
22382W        W87609  40.395  19.065  13.888
22383W        W87610  25.881  13.685  12.604
22384W        W87611  25.053  23.129   0.727
22385W        W87612  19.026   9.232  10.725
22386W        W87613  17.670   9.130   4.882
22387W        W87614   7.766   5.882   3.920
22388W        W87615  12.844  28.821   0.757
22389W        W87616   0.874   8.152  12.120
22390W        W87617   3.082  31.561   1.705
22391W        W87618   9.794  28.007   4.404
22392W        W87619  13.521   2.189   4.231
22393W        W87620  31.893   5.177   3.766
22394W        W87621   5.638  22.695  12.555
22395W        W87622   1.646  10.156  11.917
22396W        W87623  21.044  25.667  12.387
22397W        W87624  27.253   2.739  10.962
22398W        W87625  29.821  30.715  10.165
22399W        W87626   9.266  30.653   4.571
22400W        W87627  18.597  16.686  11.008
22401W        W87628  26.504  43.644  12.031
22402W        W87629  25.083   7.886   3.674
22403W        W87630  38.012  22.391  13.794
22404W        W87631  38.365  15.542   4.921
22405W        W87632  12.928  29.208  10.799
22406W        W87633   3.946   2.028  14.484
22407W        W87634   0.419  23.476  12.240
22408W        W87635  11.378  29.059   1.448
22409W        W87636  42.341  10.282  14.236
22410W        W87637   2.358  38.287  13.982
22411W        W87638  20.722  39.875  14.387
22412W        W87639   4.497  11.198   3.872
22413W        W87640  12.358  41.375   4.721
22414W        W87641  37.316  21.023  14.028
22415W        W87642  17.036  15.450  12.129
22416W        W87643   9.034  27.405   4.214
22417W        W87644  36.085  37.927  12.637
22418W        W87645  20.073  38.459   3.361
22419W        W87646  40.403   8.142   0.773
22420W        W87647  24.980  41.536   0.567
22421W        W87648  36.888  26.087   3.525
22422W        W87649  23.656  17.622  10.949
22423W        W87650   7.397   9.235  10.616
22424W        W87651  25.515  18.025   4.111
22425W        W87652   2.668   5.462   3.349
22426W        W87653  36.071  11.367  13.664
22427W        W87654  10.897  18.970  14.941
22428W        W87655   0.464  25.011  12.525
22429W        W87656   8.551  12.365  13.139
22430W        W87657   6.860  31.666   2.353
22431W        W87658  19.959  25.480   4.667
22432W        W87659   5.663  12.305   4.178
22433W        W87660  19.180  29.039   4.907
22434W        W87661   0.769  18.646   2.604
22435W        W87662   4.932   2.765   0.854
22436W        W87663  32.590  21.018   4.131
22437W        W87664   6.463  24.057  10.179
22438W        W87665  30.272  31.376   2.010
22439W        W87666  28.545   1.205   1.377
22440W        W87667   4.202  20.594  11.479
22441W        W87668  14.809  15.671   2.780
22442W        W87669  12.556   4.527   0.345
22443W        W87670  22.540  34.763   3.690
22444W        W87671  28.605   9.937  11.489
22445W        W87672  25.537   2.427  11.254
22446W        W87673  28.421  33.023   0.424
22447W        W87674   7.794  13.421   5.060
22448W        W87675  26.215  24.390  11.928
22449W        W87676  28.529  23.601   3.525
22450W        W87677  42.933  15.211   0.969
22451W        W87678  38.367   9.693   4.513
22452W        W87679  16.553  28.595  13.155
22453W        W87680  31.015  38.257  10.966
22454W        W87681   0.972  12.646   2.400
22455W        W87682  11.318  28.971  13.448
22456W        W87683  28.525   8.111  11.903
22457W        W87684  11.167  43.368   2.777
22458W        W87685  17.360  29.984   0.308
22459W        W87686  21.233  41.240  12.879
22460W        W87687  37.910  43.893   3.651
22461W        W87688  33.616  21.147  11.293
22462W        W87689   6.516  34.444   2.219
22463W        W87690   8.937   6.699  14.283
22464W        W87691  22.137  26.444   0.820
22465W        W87692  25.449   5.442  10.625
22466W        W87693  21.716  11.638   1.230
22467W        W87694  30.050   0.007  14.451
22468W        W87695  34.200  15.151   4.700
22469W        W87696  26.046  27.966  11.171
22470W        W87697   5.196  25.679   2.918
22471W        W87698  29.001  17.646  14.284
22472W        W87699  28.135  20.705   2.370
22473W        W87700  43.104   3.211  14.866
22474W        W87701  38.521   0.971   0.779
22475W        W87702  17.586  38.081  11.968
22476W        W87703  31.645  16.414   3.755
22477W        W87704  40.931  42.982   3.838
22478W        W87705  21.492  20.992   0.487
22479W        W87706  20.166  40.546  10.812
22480W        W87707  25.529  30.015  12.525
22481W        W87708  19.476  23.124  14.795
22482W        W87709  17.140   4.548  14.472
22483W        W87710  19.212   2.252  11.549
22484W        W87711  17.589  35.768   3.454
22485W        W87712  19.206   7.645   4.241
22486W        W87713  26.464  13.709   0.868
22487W        W87714  36.480  42.203   2.761
22488W        W87715  36.617  18.107  14.321
22489W        W87716  43.229  26.854   4.941
22490W        W87717  26.806  37.809  14.519
22491W        W87718  44.027  26.140   1.890
22492W        W87719  36.535   9.588  10.531
22493W        W87720  27.070  13.627  11.918
22494W        W87721  41.079  23.452   0.293
22495W        W87722   3.876  35.782   3.114
22496W        W87723  24.687  20.008  13.531
22497W        W87724   9.258  27.662  12.680
22498W        W87725  29.459  34.920   0.625
22499W        W87726   0.681   6.666   2.717
22500W        W87727  25.027  36.934   3.523
22501W        W87728  25.156  37.092   4.535
22502W        W87729   9.484  37.972   0.774
22503W        W87730  39.650  15.900   1.773
22504W        W87731   7.684  11.843  12.866
22505W        W87732  19.182   0.207  12.474
22506W        W87733  12.875   1.667   2.715
22507W        W87734   2.185   7.831  11.263
22508W        W87735   3.268  16.679  13.291
22509W        W87736  11.285   9.920   1.345
22510W        W87737   2.414  30.409   0.896
22511W        W87738  38.648  19.231   4.481
22512W        W87739  23.956  13.859  13.347
22513W        W87740  34.654  14.091  13.110
22514W        W87741  42.887  31.126   0.793
22515W        W87742  25.484   0.971  12.969
22516W        W87743  24.309  13.898   2.314
22517W        W87744   3.137  41.125  13.417
22518W        W87745  34.784  24.728  14.371
22519W        W87746  31.105   4.627   1.981
22520W        W87747  30.080  38.507   4.201
22521W        W87748   5.690  19.776   0.773
22522W        W87749  15.715  12.108   3.927
22523W        W87750  29.542   8.599  12.803
22524W        W87751  24.213  20.822  10.663
22525W        W87752   7.170   8.261   0.468
22526W        W87753  25.271  19.278  14.290
22527W        W87754  31.596  19.581   4.594
22528W        W87755   7.771  33.667   2.202
22529W        W87756  22.461   8.814   2.871
22530W        W87757  30.500   5.439   2.869
22531W        W87758  38.026   5.137  12.419
22532W        W87759   4.651  37.589   0.315
22533W        W87760  33.466  27.536  14.241
22534W        W87761  17.136  22.098   3.499
22535W        W87762  21.541   7.159  10.534
22536W        W87763  13.642  30.044   2.872
22537W        W87764  10.731  35.586  14.347
22538W        W87765  22.724   1.501   1.283
22539W        W87766  19.281  42.934  11.120
22540W        W87767  10.143   6.398   0.478
22541W        W87768  35.592  21.527  14.886
22542W        W87769   0.159   1.500  11.890
22543W        W87770   7.180  10.888   0.261
22544W        W87771  21.785  21.134  12.154
22545W        W87772  36.435   9.091  14.043
22546W        W87773   1.480  36.825   2.929
22547W        W87774  25.222   5.358  13.139
22548W        W87775  12.288  30.511  12.847
22549W        W87776  32.901  31.507   3.895
22550W        W87777  32.790  44.731  12.593
22551W        W87778  10.710  11.863  12.658
22552W        W87779  20.345   8.387   1.188
22553W        W87780  18.915   7.735  13.779
22554W        W87781  23.479  12.284  13.034
22555W        W87782  37.342  13.176  10.552
22556W        W87783  44.711   7.807   3.611
22557W        W87784  40.160  22.213   2.582
22558W        W87785   8.750  20.032  12.035
22559W        W87786  43.336  31.381   4.253
22560W        W87787  15.654   9.417  14.525
22561W        W87788   1.018  23.724  10.603
22562W        W87789   7.721  21.746   3.109
22563W        W87790   0.401   9.592   2.288
22564W        W87791  21.306  25.095   2.603
22565W        W87792  32.170   6.194  13.366
22566W        W87793   4.531   4.097  12.900
22567W        W87794  28.419  28.131  12.051
22568W        W87795  14.164  32.152  14.911
22569W        W87796  31.308  10.961  12.553
22570W        W87797  27.585  24.017   2.936
22571W        W87798  31.622  20.059  13.595
22572W        W87799  40.540  25.473   2.806
22573W        W87800   8.164  10.884   0.591
22574W        W87801  22.635   1.901  11.944
22575W        W87802  29.434  37.993  14.805
22576W        W87803  10.686  27.726   1.802
22577W        W87804  39.276  34.359   4.655
22578W        W87805   1.063  38.592  11.786
22579W        W87806  20.168  32.065  13.069
22580W        W87807  25.126  37.758  12.506
22581W        W87808   9.704  23.829  13.528
22582W        W87809  44.696  31.540  13.276
22583W        W87810  18.672  15.681   2.432
22584W        W87811  18.623  25.629   4.483
22585W        W87812  17.781   3.272   0.491
22586W        W87813  34.413   4.483  11.246
22587W        W87814  14.570   3.446  10.675
22588W        W87815   6.825  23.990  12.484
22589W        W87816  41.489   8.634   0.333
22590W        W87817  33.261  25.184  11.066
22591W        W87818  34.921  26.173  10.184
22592W        W87819  39.520  19.804   0.044
22593W        W87820  19.824  32.066  13.492
22594W        W87821   6.814  17.359  13.895
22595W        W87822  16.708   2.229   2.710
22596W        W87823  10.081  32.880  12.575
22597W        W87824  42.913  44.987  11.066
22598W        W87825   5.938  21.017   3.180
22599W        W87826  34.611   2.233   0.933
22600W        W87827  13.058   3.360   2.959
22601W        W87828   6.545   5.187   0.468
22602W        W87829  20.332  14.997   2.440
22603W        W87830   8.176  37.967  13.550
22604W        W87831  30.090  24.165  14.359
22605W        W87832  34.050   8.817   0.206
22606W        W87833   6.386  27.048  13.503
22607W        W87834  10.826   0.710  10.082
22608W        W87835  14.450  33.645   5.255
22609W        W87836  42.947   5.557   0.906
22610W        W87837  43.160  38.941  12.908
22611W        W87838  14.643  10.836  11.588
22612W        W87839  28.384  17.253   4.841
22613W        W87840  27.696  15.886   2.741
22614W        W87841  19.176  18.776   0.510
22615W        W87842  19.693  44.907  10.620
22616W        W87843   5.642   0.251  11.527
22617W        W87844   7.299  11.240   4.116
22618W        W87845  12.273  12.115   0.865
22619W        W87846  42.583  35.919   1.532
22620W        W87847  37.952   6.747  13.622
22621W        W87848  36.066  44.376   1.561
22622W        W87849   2.606  34.306   5.100
22623W        W87850  26.190  36.459  11.242
22624W        W87851  29.955   3.839  14.999
22625W        W87852  23.993  33.525   1.198
22626W        W87853   3.207  27.748   0.735
22627W        W87854   4.703  27.606  10.702
22628W        W87855  23.095  23.802   3.119
22629W        W87856  35.940  31.967  12.068
22630W        W87857  15.825  37.899  12.552
22631W        W87858   5.179  28.073   3.304
22632W        W87859  12.720  20.761  11.040
22633W        W87860  11.613  37.527   0.312
22634W        W87861  12.436  34.138  10.732
22635W        W87862  44.754  26.078   0.794
22636W        W87863   6.701  18.759  13.966
22637W        W87864  18.875  38.020   1.765
22638W        W87865  19.738  14.421  12.637
22639W        W87866   8.657  16.806   0.325
22640W        W87867  42.060  25.502   4.772
22641W        W87868  21.793  20.582   0.674
22642W        W87869  33.459   3.388   2.822
22643W        W87870   1.710  14.409   4.065
22644W        W87871  25.258  27.484  11.153
22645W        W87872   4.905  14.682  11.553
22646W        W87873  22.209  12.416  13.450
22647W        W87874  37.935  42.526   1.914
22648W        W87875  39.807   8.315  14.027
22649W        W87876  22.640  12.570  10.362
22650W        W87877  39.334  34.009  12.657
22651W        W87878   6.240  18.108  13.015
22652W        W87879   6.212  23.663  10.432
22653W        W87880  40.793  28.031  11.659
22654W        W87881  33.181  35.938  13.586
22655W        W87882  39.372  10.265   2.100
22656W        W87883   0.358  24.597   2.818
22657W        W87884  33.399  25.667  13.727
22658W        W87885  23.372  37.955   2.729
22659W        W87886  20.241  19.545   3.879
22660W        W87887   5.924  23.295  11.981
22661W        W87888  38.039  10.279   3.074
22662W        W87889  44.427  35.301  14.350
22663W        W87890  37.451  25.510  11.520
22664W        W87891   9.790  33.976  11.972
22665W        W87892   9.970  31.170   0.579
22666W        W87893   5.744  20.732   0.799
22667W        W87894   3.030  31.123  13.865
22668W        W87895   7.762   9.394   0.802
22669W        W87896  12.676  39.732  13.994
22670W        W87897  36.473  12.406  14.357
22671W        W87898  16.848  25.953  11.681
22672W        W87899  16.106   7.888   0.364
22673W        W87900  17.021  41.607  13.660
22674W        W87901  18.201   6.890   0.807
22675W        W87902   4.336  31.944   0.306
22676W        W87903   0.640   2.825   4.622
22677W        W87904  20.042   5.488  14.380
22678W        W87905  24.488   5.489  10.537
22679W        W87906  41.651   8.133   0.405
22680W        W87907  23.466   4.811   3.201
22681W        W87908  31.534  11.677   3.248
22682W        W87909  14.146  25.472  11.341
22683W        W87910  30.156  11.925   4.709
22684W        W87911  14.841  21.622  10.995
22685W        W87912   5.808  26.631  11.632
22686W        W87913  44.987  32.634  11.275
22687W        W87914  22.226  29.690   3.555
22688W        W87915  25.036  40.025  14.802
22689W        W87916  31.699  39.098   3.215
22690W        W87917  22.496  34.138   2.782
22691W        W87918  42.012   6.707  14.389
22692W        W87919  36.137  32.548   0.393
22693W        W87920  17.265  29.460   2.448
22694W        W87921  23.060   6.527  13.040
22695W        W87922  34.432   7.801  11.676
22696W        W87923  23.073  41.916   2.135
22697W        W87924  44.343  20.004  11.043
22698W        W87925  30.986  14.748  11.881
22699W        W87926  27.227  44.415  11.150
22700W        W87927  31.418  10.149  10.356
22701W        W87928   2.892  40.429  10.422
22702W        W87929   4.531  26.496  13.614
22703W        W87930   4.422   9.681  11.878
22704W        W87931  44.289  42.984  11.715
22705W        W87932  11.628   0.023  11.527
22706W        W87933   3.259  12.307   2.322
22707W        W87934  27.351  25.315   0.836
22708W        W87935  15.274  33.085  14.894
22709W        W87936  24.435   7.354  11.570
22710W        W87937  41.112  22.476   4.839
22711W        W87938  29.555  36.840   3.178
22712W        W87939  43.110  21.945  13.411
22713W        W87940  36.157  12.362   1.536
22714W        W87941  13.062  19.689   1.604
22715W        W87942  12.127  35.578  14.023
22716W        W87943  11.201   6.651   4.562
22717W        W87944  43.392   1.194   3.853
22718W        W87945   2.941  26.631   5.368
22719W        W87946  20.177  10.099  11.198
22720W        W87947   4.877  19.047  14.389
22721W        W87948  12.271  42.007  10.733
22722W        W87949  30.834  39.885  11.085
22723W        W87950  32.147   5.386  14.924
22724W        W87951  30.877  40.819   3.727
22725W        W87952   2.396  43.634  14.856
22726W        W87953  29.583  31.568   2.706
22727W        W87954  39.063  21.076  12.111
22728W        W87955  12.224  37.930  10.975
22729W        W87956   8.604  13.621  13.882
22730W        W87957  31.115  36.161   5.381
22731W        W87958  41.823  16.609   2.814
22732W        W87959  30.599   4.659   3.113
22733W        W87960  23.957  41.667  14.428
22734W        W87961  19.168  44.467  13.249
22735W        W87962  38.520  23.992  13.368
22736W        W87963  17.925  40.348  12.399
22737W        W87964  19.483  12.927   0.568
22738W        W87965   5.787  30.752   1.950
22739W        W87966  42.331  16.723  13.346
22740W        W87967  41.363  34.981   4.445
22741W        W87968   7.823  36.306  14.846
22742W        W87969   2.768  29.726   0.046
22743W        W87970  41.855  11.775  13.351
22744W        W87971  33.726  31.102  10.574
22745W        W87972  38.616   2.518  13.385
22746W        W87973  25.560  21.254   1.786
22747W        W87974   7.296  36.546   4.579
22748W        W87975  10.925  23.973   1.790
22749W        W87976  27.606  18.251  14.588
22750W        W87977   6.941  43.270  11.858
22751W        W87978   4.675  42.312  10.752
22752W        W87979  33.429  27.204  12.926
22753W        W87980   7.699   1.892  11.500
22754W        W87981  40.343  29.174   2.365
22755W        W87982  24.111  11.739  12.071
22756W        W87983  19.147  24.326   1.463
22757W        W87984  35.874  27.056  11.627
22758W        W87985   2.165   5.435   3.252
22759W        W87986  32.196  29.065   3.399
22760W        W87987   2.919  43.596  11.679
22761W        W87988   8.102  42.818  11.470
22762W        W87989   9.105  22.600   4.241
22763W        W87990  13.919   0.732   3.424
22764W        W87991   5.980   7.744  14.807
22765W        W87992  21.472  31.464  14.468
22766W        W87993   7.342  27.551   4.099
22767W        W87994  38.458  28.926  13.591
22768W        W87995  24.731   2.068   5.511
22769W        W87996  28.577   4.172  12.572
22770W        W87997   9.607  23.484   1.816
22771W        W87998   9.378  36.118   3.607
22772W        W87999  33.551   4.255   0.816
22773W        W88000   2.368  43.942   3.005
22774W        W88001   5.002  28.755   5.068
22775W        W88002  14.509   8.325  14.788
22776W        W88003  32.022  44.526   2.724
22777W        W88004  14.584   0.564   2.857
22778W        W88005   3.571  41.302   0.126
22779W        W88006  32.325  23.593   1.276
22780W        W88007  25.026  37.828   3.411
22781W        W88008   0.323  19.946  10.262
22782W        W88009  42.817  11.761   4.519
22783W        W88010  11.292  32.407  12.831
22784W        W88011   0.241  22.910  13.529
22785W        W88012  29.775   0.196  11.997
22786W        W88013   9.723  37.017   0.487
22787W        W88014  25.410  24.682  14.994
22788W        W88015  41.624  44.505  11.603
22789W        W88016   4.922   3.355  10.372
22790W        W88017  38.752  24.484  13.428
22791W        W88018  42.597  27.236  11.057
22792W        W88019   2.828  27.240   3.115
22793W        W88020  17.816   7.297   2.348
22794W        W88021  37.375   7.157   2.888
22795W        W88022  32.891  18.791   0.922
22796W        W88023  13.652  36.779   3.314
22797W        W88024  27.559  43.309   4.232
22798W        W88025   9.356  13.764   2.855
22799W        W88026  41.491  23.112   2.528
22800W        W88027  39.365  34.827   0.960
22801W        W88028  33.202   9.374  13.385
22802W        W88029  23.572   0.809  13.085
22803W        W88030  21.961  32.560   3.198
22804W        W88031  11.083  12.811  14.930
22805W        W88032   3.430  34.075  12.024
22806W        W88033   7.458   0.014  14.877
22807W        W88034  33.930  31.075   1.420
22808W        W88035  26.063  24.421   1.264
22809W        W88036  19.210  34.025   2.575
22810W        W88037   5.373  11.230  14.861
22811W        W88038  10.085  28.298   3.212
22812W        W88039  26.507  41.570  10.738
22813W        W88040  17.645  42.594   4.145
22814W        W88041  39.595  12.282   2.918
22815W        W88042   5.519  17.088  13.372
22816W        W88043  28.396   6.147   4.160
22817W        W88044  25.627  33.559  11.443
22818W        W88045  14.259   4.943   3.584
22819W        W88046  37.591  13.199  14.261
22820W        W88047   7.221  18.708  12.596
22821W        W88048  31.201  17.176   3.353
22822W        W88049  10.779  15.468   1.716
22823W        W88050  42.336  37.571   4.162
22824W        W88051  43.188   8.743  12.119
22825W        W88052  22.631  11.870  12.036
22826W        W88053  12.328   0.535   2.235
22827W        W88054  17.761  35.840  11.080
22828W        W88055  26.652  44.564   1.955
22829W        W88056   3.658   4.467  14.565
22830W        W88057   8.343  32.996   2.574
22831W        W88058  43.020  40.919  13.085
22832W        W88059  21.186  16.128  10.431
22833W        W88060   9.381  24.669  14.743
22834W        W88061  43.434  11.530   1.655
22835W        W88062  32.151  16.940  10.632
22836W        W88063  25.206  23.486  10.837
22837W        W88064  41.657  19.157   1.128
22838W        W88065  41.395   2.499  13.941
22839W        W88066   6.131  21.231  14.248
22840W        W88067  43.760  12.265   1.112
22841W        W88068  20.423  28.516   4.042
22842W        W88069  41.892  20.164  12.493
22843W        W88070  17.018  22.946   2.155
22844W        W88071  24.073  41.119   1.782
22845W        W88072   5.202  38.997   2.599
22846W        W88073  36.996   6.391   5.271
22847W        W88074  19.724  18.069   0.280
22848W        W88075  24.603   2.350   0.764
22849W        W88076  41.940  13.874  13.367
22850W        W88077  11.157  21.540  11.780
22851W        W88078  34.191  17.251  13.527
22852W        W88079  34.866  32.429   0.827
22853W        W88080  24.573  30.574   3.144
22854W        W88081  23.090   6.203  11.448
22855W        W88082  34.451  19.398  13.783
22856W        W88083   6.654   0.993  14.491
22857W        W88084  14.260  11.923   2.352
22858W        W88085  21.070  42.519  12.597
22859W        W88086  12.729   5.994  11.070
22860W        W88087  21.065  13.575   2.274
22861W        W88088  33.402  13.579   0.298
22862W        W88089  36.421  40.103  12.314
22863W        W88090  16.291  43.898  13.368
22864W        W88091  13.399  22.637  12.460
22865W        W88092  17.151   6.367   4.749
22866W        W88093   1.012   5.271  14.823
22867W        W88094  18.725   7.290   3.775
22868W        W88095  25.655   0.209  11.218
22869W        W88096  26.492  35.093  12.009
22870W        W88097  11.162  13.274  12.562
22871W        W88098  26.396   8.159   0.507
22872W        W88099  11.165  16.177  13.298
22873W        W88100  16.699  20.377  14.855
22874W        W88101  30.892  18.533  14.958
22875W        W88102   4.825  17.643  10.172
22876W        W88103  10.787  26.966   1.647
22877W        W88104  44.603  23.178   1.046
22878W        W88105  20.545  35.252  12.901
22879W        W88106  41.441  34.009  13.954
22880W        W88107  33.014  44.623   0.813
22881W        W88108   2.261  19.078  12.357
22882W        W88109  15.822  24.133  12.052
22883W        W88110  28.790  24.585  11.270
22884W        W88111   9.736  29.425  13.981
22885W        W88112  41.915  38.106  12.453
22886W        W88113   0.743   0.994   2.806
22887W        W88114   7.412  15.236   0.741
22888W        W88115  14.060  11.202   0.516
22889W        W88116  22.643  41.554  13.531
22890W        W88117  24.971   3.770   0.793
22891W        W88118  32.125  32.641  11.204
22892W        W88119   1.002  13.678  14.428
22893W        W88120  42.968  18.101   3.231
22894W        W88121  26.214  23.171   3.018
22895W        W88122  34.972   9.245  10.502
22896W        W88123  35.362  23.575  11.702
22897W        W88124  18.764   0.113   4.713
22898W        W88125   1.438  10.831   2.262
22899W        W88126  11.625  14.160  13.389
22900W        W88127   3.272  17.106   1.447
22901W        W88128  15.140  35.597   4.525
22902W        W88129   2.730   2.059   2.852
22903W        W88130   3.450  23.073   1.245
22904W        W88131  33.852  39.511  13.847
22905W        W88132  40.435  41.367   4.978
22906W        W88133   0.590  38.943   4.321
22907W        W88134  19.753  14.599   3.702
22908W        W88135  23.364  16.318   0.712
22909W        W88136  15.724  33.643   1.119
22910W        W88137  27.236  26.493  11.926
22911W        W88138  33.062  10.945   2.219
22912W        W88139  17.119   8.603   5.102
22913W        W88140  26.543  32.126  11.915
22914W        W88141   8.199  40.311  14.892
22915W        W88142  25.188  37.006   4.022
22916W        W88143  43.153  15.773  12.284
22917W        W88144   4.393   6.773   4.907
22918W        W88145  31.116  34.088   1.341
22919W        W88146  16.599  29.043   0.874
22920W        W88147  42.464  11.825   1.567
22921W        W88148  30.138   9.839  14.055
22922W        W88149  35.908  24.473  11.503
22923W        W88150  30.000  14.586  13.114
22924W        W88151  38.959  17.615   2.782
22925W        W88152  42.280  13.680   4.803
22926W        W88153  11.618   0.732   1.390
22927W        W88154  42.570  35.583  11.201
22928W        W88155  37.589   6.855   4.928
22929W        W88156   5.400  36.991   0.433
22930W        W88157  17.743   0.915   0.768
22931W        W88158   3.718   2.978   2.655
22932W        W88159   3.137  20.242   4.689
22933W        W88160  14.874  39.649  14.090
22934W        W88161  13.557  44.922  13.934
22935W        W88162  31.127  26.090  14.761
22936W        W88163  39.398  34.625   3.780
22937W        W88164  40.827  42.326  13.493
22938W        W88165  21.969  24.288  12.573
22939W        W88166  41.297   8.667  11.191
22940W        W88167  36.680   3.416  13.374
22941W        W88168  20.181  12.392  11.635
22942W        W88169   0.045  13.964   2.631
22943W        W88170  35.893  14.090   4.332
22944W        W88171   6.750   6.238   2.204
22945W        W88172  25.510  41.761   4.450
22946W        W88173   2.643  13.186  12.414
22947W        W88174  37.365  36.856   1.442
22948W        W88175  26.597   3.957   0.151
22949W        W88176  18.926  43.028   4.102
22950W        W88177  33.911  26.937  13.587
22951W        W88178  37.356  36.304   2.740
22952W        W88179  28.848  40.358   2.447
22953W        W88180   2.257   2.655  12.009
22954W        W88181  43.835  24.065   1.338
22955W        W88182   0.624  37.667  14.367
22956W        W88183  39.042   2.390  14.260
22957W        W88184  39.260  26.148   2.565
22958W        W88185  38.677  43.677  13.992
22959W        W88186  36.297   0.913  13.910
22960W        W88187  33.658  23.343  13.231
22961W        W88188  36.303  23.607   5.094
22962W        W88189  16.477  32.808   3.783
22963W        W88190   6.614   7.731  14.205
22964W        W88191  26.135  44.742   0.902
22965W        W88192   8.644  31.887  12.634
22966W        W88193  32.653  35.704  14.865
22967W        W88194  17.717  14.252  12.272
22968W        W88195  37.046  32.920  10.918
22969W        W88196   3.286   5.766   0.854
22970W        W88197   7.813  12.664   3.305
22971W        W88198  23.323  44.233   1.280
22972W        W88199  23.922  18.125   3.316
22973W        W88200   7.786  33.063  10.478
22974W        W88201  29.765   3.666  14.517
22975W        W88202   0.370   8.354  12.015
22976W        W88203  13.121  22.167  13.834
22977W        W88204  40.941  37.538  11.238
22978W        W88205   0.351   4.234   4.614
22979W        W88206   9.909  27.943  11.332
22980W        W88207   6.382  44.120   4.124
22981W        W88208   4.788  29.756  13.201
22982W        W88209   0.846  39.024   1.215
22983W        W88210  19.601  15.834  10.640
22984W        W88211  40.767  23.762   3.997
22985W        W88212   2.704  14.600  13.869
22986W        W88213  44.328  20.166   3.351
22987W        W88214  37.240  38.594  11.107
22988W        W88215  18.086   8.447   3.702
22989W        W88216  27.115  37.014  14.051
22990W        W88217  43.566   8.749  11.760
22991W        W88218  12.366   3.283  11.472
22992W        W88219  29.282  35.052   4.525
22993W        W88220  43.932   8.303  11.015
22994W        W88221  13.231   0.747  11.258
22995W        W88222  44.649  24.700  12.659
22996W        W88223  28.928  26.662  12.887
22997W        W88224  13.416  24.669   3.954
22998W        W88225  44.779  44.238  12.355
22999W        W88226  33.796  29.062  13.325
23000W        W88227   4.518  32.159   0.785
23001W        W88228  33.334  44.057  11.734
23002W        W88229  25.832   3.972  14.045
23003W        W88230  35.065  32.051  13.007
23004W        W88231  18.775  37.461   1.220
23005W        W88232  16.115  15.499   4.540
23006W        W88233   3.172  10.697  11.209
23007W        W88234  39.337  20.409   0.912
23008W        W88235  33.996  34.397   1.434
23009W        W88236  13.383  20.560   1.631
23010W        W88237   9.789  18.979   4.520
23011W        W88238  29.681   0.302   2.147
23012W        W88239   8.291   8.137  12.929
23013W        W88240  36.451  36.673  14.498
23014W        W88241   7.066  16.329  14.722
23015W        W88242   8.109  15.122   3.641
23016W        W88243  20.047  16.842  14.798
23017W        W88244  21.998  13.807  12.652
23018W        W88245   3.418  16.334  10.766
23019W        W88246  27.921  16.554  13.264
23020W        W88247  35.400  12.197   3.616
23021W        W88248  16.081  19.800   0.924
23022W        W88249  31.119   9.285  11.173
23023W        W88250  35.373   3.936  11.842
23024W        W88251  33.919  14.733  11.088
23025W        W88252   6.964  28.169  11.641
23026W        W88253   2.171  40.834  13.009
23027W        W88254  35.808  13.161   4.644
23028W        W88255  21.107   6.249   2.360
23029W        W88256  38.814  29.250  13.430
23030W        W88257  11.821  34.645   3.539
23031W        W88258  14.119  11.714   2.817
23032W        W88259  21.110  15.611   4.522
23033W        W88260  35.616  36.605  10.181
23034W        W88261  26.541   9.850   0.603
23035W        W88262  44.335  30.604  10.592
23036W        W88263  40.054  22.842   4.782
23037W        W88264  19.628  43.156   2.136
23038W        W88265  17.501   6.384  13.326
23039W        W88266   7.299  10.575  14.852
23040W        W88267  44.764  30.499  14.420
23041W        W88268  20.209  13.582  13.085
23042W        W88269  36.294  20.017  13.974
23043W        W88270  23.904  22.430   9.922
23044W        W88271   8.662  16.819  12.152
23045W        W88272  39.757   5.478  12.732
23046W        W88273  24.002   8.143   0.377
23047W        W88274  39.288   7.118  13.911
23048W        W88275  31.186  39.374   5.338
23049W        W88276  13.895  33.748  10.279
23050W        W88277  26.645  21.321   2.820
23051W        W88278  22.425   2.164   4.095
23052W        W88279   3.695  31.831   4.555
23053W        W88280   4.799   9.474  13.530
23054W        W88281   7.134  35.366  12.908
23055W        W88282  32.990  41.664  14.007
23056W        W88283  22.624   5.150  11.682
23057W        W88284  37.298  22.796  14.392
23058W        W88285  14.829  44.917  10.340
23059W        W88286   0.911  13.052  12.264
23060W        W88287   8.828  14.166  10.698
23061W        W88288  24.223  23.502  12.086
23062W        W88289   9.607  42.465  13.764
23063W        W88290  32.444  32.478   3.623
23064W        W88291  10.851  16.151   0.539
23065W        W88292  22.587  32.409  14.028
23066W        W88293  16.938  14.209  11.502
23067W        W88294  39.048  38.598   2.815
23068W        W88295  43.829   1.903   3.514
23069W        W88296   4.842   6.446   0.866
23070W        W88297   8.794  27.597  14.234
23071W        W88298   0.742   7.787   0.778
23072W        W88299   2.691  39.424  13.405
23073W        W88300  30.182   5.247  11.729
23074W        W88301   8.181  38.904   0.256
23075W        W88302   3.014  29.044   2.230
23076W        W88303  38.352  28.146   3.759
23077W        W88304  17.129   4.410   0.780
23078W        W88305  28.032  13.522   3.737
23079W        W88306  31.134  11.512   4.127
23080W        W88307  42.890  42.818  11.670
23081W        W88308  22.018   4.838  13.044
23082W        W88309  33.121  39.412  11.201
23083W        W88310   0.411  42.125   0.883
23084W        W88311  27.920  25.655  12.845
23085W        W88312  14.324   3.482  14.419
23086W        W88313   9.664  37.593   3.793
23087W        W88314  12.352  14.017  11.975
23088W        W88315  37.951   3.585   1.645
23089W        W88316   4.984  44.446   1.762
23090W        W88317  37.156  22.496   0.497
23091W        W88318  34.008  44.754  14.278
23092W        W88319  27.944   1.777  10.654
23093W        W88320  24.809  19.777  14.965
23094W        W88321  23.714   9.206   2.597
23095W        W88322  43.564   0.744   1.202
23096W        W88323   7.203  23.497   3.645
23097W        W88324  29.947  16.235   1.433
23098W        W88325  21.412  30.620   2.834
23099W        W88326  35.195  17.165   1.194
23100W        W88327   9.758  12.758   0.484
23101W        W88328   7.227  16.061  12.496
23102W        W88329   6.637  13.266   1.707
23103W        W88330  13.637  37.603   2.278
23104W        W88331  11.605   5.810  10.596
23105W        W88332  16.798  40.973  11.952
23106W        W88333   2.455   9.300   3.705
23107W        W88334  32.948  38.904   3.301
23108W        W88335  34.929  15.815   1.636
23109W        W88336   9.146  39.327  12.919
23110W        W88337   5.895  29.461  13.473
23111W        W88338  11.275  30.519   9.679
23112W        W88339   5.951  32.835   2.187
23113W        W88340  28.121  15.518  13.571
23114W        W88341  39.061   7.344  11.543
23115W        W88342  25.563  11.741   4.352
23116W        W88343  32.311  21.811  11.123
23117W        W88344  13.077  13.373   4.243
23118W        W88345  36.128  10.205   2.697
23119W        W88346   9.708  33.075   2.470
23120W        W88347  20.496  24.471  12.990
23121W        W88348   5.468  29.051   1.150
23122W        W88349  41.086  40.837   3.178
23123W        W88350  35.695  22.515   4.537
23124W        W88351   5.658  15.761  10.646
23125W        W88352  36.371  28.556  11.057
23126W        W88353  21.153  12.374   3.795
23127W        W88354  39.694  23.758   1.995
23128W        W88355  35.190   8.400   3.669
23129W        W88356   7.299  30.082   4.268
23130W        W88357  28.559   7.855   2.129
23131W        W88358  37.478   4.693   2.888
23132W        W88359  11.663  21.202  10.781
23133W        W88360  37.929  10.655   2.313
23134W        W88361  15.548  30.313  11.340
23135W        W88362   2.870  32.059   0.222
23136W        W88363   5.407   3.397  11.221
23137W        W88364  26.519  33.242   0.013
23138W        W88365  44.423  24.081   0.772
23139W        W88366  19.961  37.783  11.576
23140W        W88367   9.513  38.598  10.721
23141W        W88368  14.088  44.558   3.786
23142W        W88369  35.402  21.291  12.424
23143W        W88370  43.191  17.728  14.247
23144W        W88371  19.758  29.870  14.035
23145W        W88372  12.864  29.928   0.626
23146W        W88373  16.771   9.462   3.397
23147W        W88374   5.945  40.040  14.504
23148W        W88375  35.946   6.351   2.825
23149W        W88376  20.324  17.009  14.378
23150W        W88377  18.615  31.147  12.046
23151W        W88378  35.580  19.112  14.351
23152W        W88379  20.203  18.685   4.941
23153W        W88380  14.084   0.481   0.891
23154W        W88381  30.393   8.938   3.679
23155W        W88382  12.890  32.580  13.993
23156W        W88383  29.234  35.412  11.999
23157W        W88384   2.312  17.005  13.106
23158W        W88385   4.426   9.862  12.368
23159W        W88386   3.129  16.179  11.649
23160W        W88387  30.090  19.249   2.347
23161W        W88388  15.725  37.600  10.971
23162W        W88389  44.933  10.321  14.967
23163W        W88390  41.023  42.464   2.637
23164W        W88391  44.805   6.680  12.379
23165W        W88392  19.724  24.716   0.894
23166W        W88393  18.775  28.658   0.718
23167W        W88394  12.680  23.579   1.742
23168W        W88395  37.534  14.866  14.066
23169W        W88396  40.330   4.677  14.843
23170W        W88397  36.016  11.604  11.434
23171W        W88398   8.167   0.519  13.557
23172W        W88399  28.967  44.941  14.100
23173W        W88400  30.943  34.655  14.768
23174W        W88401  29.866  13.056   0.858
23175W        W88402  28.932  29.910   2.721
23176W        W88403   7.041   4.418  14.109
23177W        W88404  16.716  12.747  13.521
23178W        W88405  11.832  21.976   4.508
23179W        W88406  26.414  22.566  12.667
23180W        W88407   8.322  32.298   5.157
23181W        W88408  25.137  41.327   3.260
23182W        W88409  21.690  38.589   2.841
23183W        W88410  39.839  15.039   0.887
23184W        W88411  16.858   7.889  10.574
23185W        W88412  22.352  24.303   2.240
23186W        W88413  41.568  20.155  12.090
23187W        W88414  42.943  35.943  11.359
23188W        W88415  16.678  26.621  14.881
23189W        W88416  41.881   7.204   4.075
23190W        W88417   2.561   9.223  12.308
23191W        W88418  35.467   1.488   2.425
23192W        W88419  42.308  36.157   0.376
23193W        W88420  38.929  21.161  13.459
23194W        W88421  19.274  35.949   0.473
23195W        W88422  14.858  33.845   5.003
23196W        W88423  21.093  36.496   0.107
23197W        W88424  19.003   9.677  10.447
23198W        W88425  20.911  37.026   0.871
23199W        W88426  40.538   8.873   3.217
23200W        W88427  32.580  41.355  14.249
23201W        W88428  11.321   4.254  12.429
23202W        W88429   6.752   8.252   0.782
23203W        W88430   0.961  13.274   3.909
23204W        W88431  25.813  24.060  12.812
23205W        W88432   2.308  28.869   5.447
23206W        W88433   0.240  23.287   2.373
23207W        W88434  22.567  35.577   0.617
23208W        W88435  21.831   8.967   1.675
23209W        W88436  32.187  24.547  11.594
23210W        W88437  34.276  27.877   5.018
23211W        W88438   2.806  38.459   4.331
23212W        W88439  26.649   0.005   4.062
23213W        W88440  41.076  32.530  15.000
23214W        W88441  24.781  17.257  13.605
23215W        W88442   7.305  23.469   1.648
23216W        W88443  13.803  10.346  11.073
23217W        W88444   8.260  39.786  14.834
23218W        W88445  13.397   2.288  11.257
23219W        W88446  20.095  17.549  12.495
23220W        W88447  30.478  18.155   0.588
23221W        W88448   4.947   3.299   0.833
23222W        W88449  25.095  40.068   4.640
23223W        W88450  19.248  17.918  14.652
23224W        W88451  32.936  12.826  10.284
23225W        W88452   8.282  18.159  12.090
23226W        W88453  26.378  29.733  12.943
23227W        W88454  26.198  29.125  11.505
23228W        W88455  43.092   7.900  10.999
23229W        W88456  37.895   3.037  12.021
23230W        W88457  44.545  25.170  12.863
23231W        W88458  41.979  22.736  14.865
23232W        W88459  26.449   4.090  12.958
23233W        W88460  39.587   0.879  12.142
23234W        W88461   0.757   6.367   3.719
23235W        W88462  42.735  39.708   1.300
23236W        W88463  38.418  27.979  11.389
23237W        W88464  40.837   7.641   2.057
23238W        W88465   0.031   3.480   1.164
23239W        W88466   1.527  38.797  11.885
23240W        W88467  31.036  15.109  11.214
23241W        W88468  25.794   1.607  10.078
23242W        W88469  26.939  29.688   4.323
23243W        W88470  36.507  17.496  14.999
23244W        W88471  29.554  24.101  10.583
23245W        W88472   9.671  28.463  11.215
23246W        W88473  44.399  15.496   3.666
23247W        W88474  12.217  28.626  14.997
23248W        W88475  26.193  44.148  14.251
23249W        W88476  40.761  22.315  14.445
23250W        W88477  40.921  36.240   3.390
23251W        W88478  21.053  18.702  14.207
23252W        W88479  11.102   0.362  13.216
23253W        W88480  30.520   1.926   2.222
23254W        W88481  44.026  29.293   1.192
23255W        W88482  21.592  39.956  10.741
23256W        W88483  16.051   9.155   5.113
23257W        W88484  39.075  15.367   4.193
23258W        W88485   5.520  31.579   1.528
23259W        W88486  44.951  15.311   3.204
23260W        W88487   2.615  35.896  14.501
23261W        W88488  23.954  31.425   1.642
23262W        W88489  30.213  20.841  12.174
23263W        W88490  38.542  19.634  10.345
23264W        W88491  28.222  27.052  10.683
23265W        W88492  25.750  38.003  11.134
23266W        W88493  28.076   5.361   2.523
23267W        W88494   8.190  13.144  11.096
23268W        W88495  18.334  33.037   3.785
23269W        W88496  18.219  33.113  13.032
23270W        W88497  28.181  42.992   0.538
23271W        W88498  13.407  42.370   3.710
23272W        W88499  38.006  41.225  12.174
23273W        W88500   6.490   6.115  12.112
23274W        W88501  22.218  37.161   0.029
23275W        W88502  34.828  14.810  14.407
23276W        W88503   8.526  40.967  12.058
23277W        W88504   4.833   9.730  13.964
23278W        W88505  39.622   3.148   2.998
23279W        W88506  29.519  39.962  13.264
23280W        W88507   2.409  40.101  14.447
23281W        W88508  11.408  14.242  10.978
23282W        W88509  25.572  31.320  12.100
23283W        W88510  20.923  13.257  12.905
23284W        W88511  27.952   4.895   2.297
23285W        W88512  35.806   3.730   0.794
23286W        W88513   0.910  22.497   1.457
23287W        W88514  36.990  27.375  12.004
23288W        W88515  21.603   5.749   4.554
23289W        W88516   3.995   7.415  13.456
23290W        W88517  16.859   9.327  14.860
23291W        W88518  33.855  26.968  13.080
23292W        W88519  35.082   3.463  10.745
23293W        W88520  24.043  38.424  10.631
23294W        W88521   2.780  22.652   4.657
23295W        W88522  25.331   0.042  10.194
23296W        W88523  42.832  29.632  14.792
23297W        W88524  14.723  35.384   0.700
23298W        W88525  26.477  33.852  10.938
23299W        W88526  38.615  12.440  14.913
23300W        W88527  11.624  20.749  12.073
23301W        W88528   2.321  30.004  11.488
23302W        W88529  32.519   1.048   1.747
23303W        W88530  19.651   8.570   4.941
23304W        W88531   6.932   0.015  14.803
23305W        W88532  30.275  31.451   1.481
23306W        W88533   0.870  18.356  12.116
23307W        W88534  10.566  10.349   0.370
23308W        W88535   5.417  27.612  10.366
23309W        W88536  15.656  20.195   1.723
23310W        W88537  33.095  15.727   1.925
23311W        W88538   9.185  29.206  14.418
23312W        W88539  12.337  16.083   0.875
23313W        W88540  36.498  22.643   4.163
23314W        W88541  28.465  22.594  10.799
23315W        W88542  10.813  31.231  14.019
23316W        W88543  15.686   5.531   2.940
23317W        W88544  32.738  40.787   3.241
23318W        W88545  33.496   6.114  12.730
23319W        W88546   9.386  13.774  14.310
23320W        W88547  13.307  37.504  12.873
23321W        W88548  41.607  27.980  13.491
23322W        W88549  30.554  14.636   4.611
23323W        W88550  41.109   7.614   1.172
23324W        W88551  40.550   2.741  14.848
23325W        W88552   0.854  23.658  13.947
23326W        W88553  37.897   1.676  11.603
23327W        W88554  33.781  38.355   4.455
23328W        W88555  34.055   8.220  11.411
23329W        W88556  30.910  39.042  11.595
23330W        W88557  37.232  34.474   2.810
23331W        W88558  17.718  27.676  11.487
23332W        W88559  21.042  37.411   3.180
23333W        W88560  23.435  37.063   4.549
23334W        W88561  13.484  37.010  13.810
23335W        W88562   5.746  19.244  12.877
23336W        W88563  38.429   0.835  11.625
23337W        W88564   6.244   2.687   3.142
23338W        W88565  35.492  30.834  11.042
23339W        W88566  24.760  24.554   4.721
23340W        W88567   3.690  29.380  14.280
23341W        W88568   3.386   0.745  13.281
23342W        W88569  28.473  43.494  10.726
23343W        W88570  41.436   6.736  14.421
23344W        W88571   9.193   0.959   2.727
23345W        W88572  33.710  40.518  13.923
23346W        W88573  18.922   8.911   4.214
23347W        W88574  41.518  38.138  12.877
23348W        W88575  25.637  41.610  14.403
23349W        W88576  29.624  44.765   2.915
23350W        W88577  38.325  19.139  13.756
23351W        W88578  27.138  40.304  12.393
23352W        W88579  25.159  12.062  14.736
23353W        W88580   8.793  30.025  11.617
23354W        W88581  37.438  38.792   4.543
23355W        W88582  29.529   3.599  11.710
23356W        W88583  22.028   4.522  11.695
23357W        W88584  13.195  12.229  12.327
23358W        W88585  30.697   2.226   3.592
23359W        W88586  12.103  21.713   3.543
23360W        W88587  30.400  19.759   3.158
23361W        W88588  19.822   4.092  14.394
23362W        W88589  44.318   0.508   0.835
23363W        W88590  24.964   2.508   1.921
23364W        W88591  11.682  18.454  12.964
23365W        W88592  18.252  40.729   0.744
23366W        W88593   9.193  31.491   3.974
23367W        W88594   1.392  23.523   2.717
23368W        W88595   0.183  39.416  11.476
23369W        W88596  21.825   2.918   0.587
23370W        W88597  24.260  25.076   1.415
23371W        W88598   7.330  22.495   2.723
23372W        W88599  18.624  22.961  11.620
23373W        W88600  11.888  24.111   2.665
23374W        W88601  39.958  28.476   3.206
23375W        W88602   1.798  18.236  11.556
23376W        W88603   2.143  40.024   4.526
23377W        W88604   3.497  41.909   3.305
23378W        W88605  37.347  32.578  13.309
23379W        W88606   0.706  17.152  10.960
23380W        W88607  38.044  25.073   1.218
23381W        W88608  29.165  20.079   3.884
23382W        W88609  38.841   7.895  10.646
23383W        W88610  43.332  39.505   3.739
23384W        W88611  36.701  38.510  11.122
23385W        W88612  44.291  33.572   2.049
23386W        W88613  29.552  39.416   2.872
23387W        W88614  38.757  32.997   3.581
23388W        W88615  24.139   2.317  13.579
23389W        W88616  25.510   9.119   0.004
23390W        W88617   1.984   5.342   1.858
23391W        W88618  10.549   9.608   3.683
23392W        W88619  31.637  33.525  14.016
23393W        W88620  34.535  40.719   1.253
23394W        W88621   7.652  13.076   4.167
23395W        W88622  30.965   6.242   3.575
23396W        W88623  42.969  17.652   0.345
23397W        W88624   8.418  35.469   4.174
23398W        W88625  31.758  41.786  12.637
23399W        W88626   8.882   9.848  12.940
23400W        W88627  12.877   8.374   0.069
23401W        W88628  31.213   2.848   4.058
23402W        W88629  35.879  18.300  12.138
23403W        W88630  42.944   2.741  10.766
23404W        W88631   3.723   1.704  12.520
23405W        W88632  42.781   3.722   2.006
23406W        W88633  31.295  34.939  12.053
23407W        W88634  35.393  31.544  13.668
23408W        W88635  39.918   8.813  14.724
23409W        W88636  16.576   0.485  12.990
23410W        W88637  17.478   2.982  12.916
23411W        W88638  20.206  27.481   1.955
23412W        W88639  21.773  43.100   4.085
23413W        W88640  12.889  41.995  11.557
23414W        W88641  26.363  42.013  14.902
23415W        W88642  26.791  34.841   1.844
23416W        W88643  38.841  34.580  11.235
23417W        W88644  28.866   4.055  11.091
23418W        W88645   1.251   7.685  12.874
23419W        W88646  42.742   3.550   4.069
23420W        W88647  36.470  42.325  10.878
23421W        W88648  33.928  36.654  14.324
23422W        W88649   7.968   9.302  11.274
23423W        W88650  33.612  19.948   1.693
23424W        W88651  24.454  19.806   1.394
23425W        W88652   2.499  25.221  14.368
23426W        W88653  42.391  42.010  12.484
23427W        W88654  42.443   2.766   0.681
23428W        W88655   9.171  39.221   2.072
23429W        W88656  24.367  24.615   0.469
23430W        W88657  16.664   0.989  12.569
23431W        W88658  24.219  31.627  14.428
23432W        W88659   5.122  42.347   0.318
23433W        W88660   1.013  29.115   4.133
23434W        W88661  18.204  43.476  11.667
23435W        W88662   0.624  16.629   4.512
23436W        W88663  17.373  22.419   4.820
23437W        W88664  33.858  44.624  11.154
23438W        W88665  41.303  13.605  14.045
23439W        W88666  23.540   6.274  11.239
23440W        W88667  10.812   7.351   4.883
23441W        W88668  19.634  27.603  13.871
23442W        W88669  19.309   7.593   2.129
23443W        W88670  35.577   1.373  14.406
23444W        W88671  35.602  36.189  10.992
23445W        W88672  16.023  26.595  12.423
23446W        W88673  23.193  12.791  11.015
23447W        W88674  22.354   5.635   0.523
23448W        W88675   9.642  35.966  13.357
23449W        W88676  29.577   2.109  11.939
23450W        W88677   7.488  30.101  13.510
23451W        W88678   9.845   2.909  14.608
23452W        W88679  43.734  20.822  14.925
23453W        W88680  13.654  22.628   4.299
23454W        W88681  31.345  32.570  12.956
23455W        W88682   1.464   7.145   2.785
23456W        W88683  25.980   2.923   0.949
23457W        W88684   1.991  35.166   4.931
23458W        W88685  24.853   2.838   3.472
23459W        W88686   9.801  39.579   3.790
23460W        W88687  28.724  27.982  14.400
23461W        W88688  43.167  35.858   4.105
23462W        W88689  44.413  15.045  12.016
23463W        W88690  34.282  40.828  12.517
23464W        W88691  14.383  35.493  13.075
23465W        W88692  10.693  31.808   5.127
23466W        W88693  33.813   2.210   0.442
23467W        W88694  31.373  31.708   0.784
23468W        W88695  36.354  39.001  12.621
23469W        W88696   4.815  32.117  14.026
23470W        W88697  10.100  18.494   0.805
23471W        W88698  29.778   3.112   0.429
23472W        W88699  31.719  33.685   0.319
23473W        W88700  30.732   3.432  12.490
23474W        W88701  44.439  30.796  11.954
23475W        W88702  35.642  13.090   4.157
23476W        W88703  15.632  20.563  12.593
23477W        W88704  36.544  12.428  12.443
23478W        W88705  39.293  38.594  11.159
23479W        W88706  13.206   6.771  11.220
23480W        W88707  18.989   8.427   3.964
23481W        W88708  24.221  32.614  14.021
23482W        W88709  16.523  14.196   1.841
23483W        W88710  11.527  40.857   3.643
23484W        W88711  13.790  18.336  13.435
23485W        W88712   7.070  20.310  11.941
23486W        W88713  39.907  42.893  11.141
23487W        W88714   8.559  32.558   2.771
23488W        W88715  43.261  32.968   2.961
23489W        W88716   6.817  17.820   3.261
23490W        W88717  34.875   5.395   2.298
23491W        W88718  12.565  23.724  14.047
23492W        W88719  42.081  15.876  13.641
23493W        W88720  18.736   1.734   3.857
23494W        W88721   3.335   6.438  12.115
23495W        W88722   2.488  33.669  12.969
23496W        W88723  10.399  29.525   1.219
23497W        W88724  11.689   3.967   2.062
23498W        W88725  27.688  13.713   1.286
23499W        W88726   7.184   1.413   1.301
23500W        W88727  43.732  35.804  10.808
23501W        W88728  15.769  39.081  13.015
23502W        W88729  23.595  40.001  12.610
23503W        W88730   2.987  27.124  12.361
23504W        W88731  31.382  29.551   1.326
23505W        W88732   0.028  33.916   0.084
23506W        W88733  26.086  23.458  13.983
23507W        W88734   9.100  25.618  14.954
23508W        W88735   2.027  38.426   0.009
23509W        W88736  13.189  33.032   2.363
23510W        W88737  19.225  35.561   3.670
23511W        W88738  10.650   5.678  14.673
23512W        W88739  14.582  43.803   3.710
23513W        W88740  30.091  36.357   3.594
23514W        W88741  22.430  18.493   1.301
23515W        W88742  39.863  44.836  13.627
23516W        W88743  38.480  14.724  14.885
23517W        W88744  25.645   2.532   4.551
23518W        W88745  43.857  44.640   0.431
23519W        W88746  24.092  35.055   0.063
23520W        W88747  23.591  37.172   1.876
23521W        W88748  25.550  25.840  13.763
23522W        W88749   7.110  19.081   1.329
23523W        W88750   4.512   3.054  12.247
23524W        W88751  27.541  17.200   4.779
23525W        W88752  40.355  12.708   2.778
23526W        W88753  35.434   9.140   1.865
23527W        W88754   8.119   4.885   1.087
23528W        W88755  23.951  44.046  12.493
23529W        W88756  15.206  33.051   4.167
23530W        W88757  33.386  20.515   1.237
23531W        W88758  31.721  26.977   2.555
23532W        W88759  34.914  16.884  10.976
23533W        W88760  16.117  15.077  12.028
23534W        W88761  23.223   9.252   3.140
23535W        W88762  41.430  32.884  13.539
23536W        W88763  44.269  37.296   4.053
23537W        W88764  23.795  33.090   0.300
23538W        W88765  28.444   4.428   3.919
23539W        W88766  35.921  30.866   3.246
23540W        W88767  44.579   9.983   2.751
23541W        W88768  29.846  38.300  13.932
23542W        W88769   2.858  29.874   0.572
23543W        W88770  36.718   0.080  12.865
23544W        W88771  35.899  17.150   3.241
23545W        W88772  10.408   7.409  14.869
23546W        W88773  33.650  14.366   5.016
23547W        W88774  36.102  39.515  13.467
23548W        W88775  44.313  16.605  13.510
23549W        W88776  24.937   3.273  13.965
23550W        W88777  40.775  35.821  11.130
23551W        W88778  22.776  15.617  12.615
23552W        W88779   8.536  35.361  10.224
23553W        W88780  33.204  26.153  13.848
23554W        W88781  21.175  11.258   2.630
23555W        W88782  15.169  31.866  11.912
23556W        W88783  40.288  36.912  10.704
23557W        W88784  36.858  33.652  10.586
23558W        W88785  41.231  39.473   1.248
23559W        W88786  41.987  22.759  11.539
23560W        W88787   6.657  38.386  11.988
23561W        W88788   0.310  37.378  14.041
23562W        W88789  41.902  43.859  13.294
23563W        W88790  39.425  27.095  13.048
23564W        W88791  29.973  14.764  13.688
23565W        W88792   2.874  24.373   1.350
23566W        W88793  11.047  31.689  10.260
23567W        W88794   2.153  10.124  11.749
23568W        W88795  16.385   8.641  12.132
23569W        W88796  10.686   1.405   2.393
23570W        W88797  35.398  16.132   3.804
23571W        W88798  12.290  26.980  11.449
23572W        W88799   6.484  23.217  10.353
23573W        W88800  33.096  24.926   1.329
23574W        W88801   1.295  31.850   0.645
23575W        W88802   6.160  31.882  11.712
23576W        W88803   7.385   3.286  12.172
23577W        W88804  33.114  12.769  12.992
23578W        W88805   7.687  14.131  12.607
23579W        W88806  14.284  31.157  12.510
23580W        W88807  41.546  12.235  14.998
23581W        W88808  43.386  23.765   3.831
23582W        W88809   4.766   6.617  14.372
23583W        W88810  19.771  29.652  12.612
23584W        W88811  26.556   4.466   4.551
23585W        W88812  39.879  41.699  12.882
23586W        W88813  39.384   7.184   1.727
23587W        W88814   9.348   3.226   2.217
23588W        W88815  35.823  24.449   2.802
23589W        W88816  43.013  28.546  11.042
23590W        W88817  43.286  20.500   0.760
23591W        W88818   7.716  10.414   1.831
23592W        W88819  38.924   2.479  14.749
23593W        W88820  12.379  35.389   1.895
23594W        W88821  44.473  29.514  10.661
23595W        W88822  40.375  23.790  11.108
23596W        W88823  36.504   9.830   4.684
23597W        W88824  35.804  23.195  13.900
23598W        W88825  31.078  14.442   1.389
23599W        W88826  34.518   9.445   2.212
23600W        W88827  12.244   3.338  12.671
23601W        W88828  12.342  30.499   4.473
23602W        W88829  12.453  31.876  11.204
23603W        W88830  17.249  20.604  13.106
23604W        W88831  41.951   0.741   1.760
23605W        W88832   4.935  30.424  12.463
23606W        W88833   0.443   3.013  12.265
23607W        W88834   5.568   3.348   4.665
23608W        W88835  16.565   0.556  11.251
23609W        W88836  44.312  29.579  14.095
23610W        W88837  40.328   4.018  11.601
23611W        W88838  26.956  20.775  13.869
23612W        W88839   7.593  28.198  10.364
23613W        W88840  22.516   2.747   0.778
23614W        W88841  33.655  13.200   4.903
23615W        W88842  24.723  40.593   1.208
23616W        W88843  20.076  19.791   1.419
23617W        W88844  37.412  41.069  14.830
23618W        W88845   0.998  24.420   1.407
23619W        W88846  17.351   3.861  12.830
23620W        W88847  17.490  27.189   3.036
23621W        W88848  17.718   4.190  11.098
23622W        W88849   3.447  21.318   4.003
23623W        W88850  42.736  24.142   3.256
23624W        W88851  15.816  11.281   2.144
23625W        W88852  38.827  22.860   1.568
23626W        W88853  25.107   9.892   0.839
23627W        W88854  20.327  42.748  14.888
23628W        W88855  21.194   7.895   0.425
23629W        W88856   6.227   4.865   2.984
23630W        W88857  19.573  25.627   4.370
23631W        W88858  22.947  37.806  14.975
23632W        W88859  17.453  25.607  14.929
23633W        W88860  38.434  25.066  12.962
23634W        W88861   7.051  14.054   2.690
23635W        W88862  27.467  19.001   3.250
23636W        W88863  40.285  42.200  14.081
23637W        W88864  14.355  11.937   3.256
23638W        W88865  11.016  31.049   4.512
23639W        W88866  15.681  13.251   0.532
23640W        W88867   6.923  31.290   0.804
23641W        W88868  14.223  28.618   1.349
23642W        W88869  32.432   0.449  14.387
23643W        W88870  39.332   5.916   4.501
23644W        W88871   1.740  19.692   2.652
23645W        W88872  36.188   7.200   1.006
23646W        W88873  38.722  32.061   1.276
23647W        W88874  24.594  19.663   4.292
23648W        W88875  28.591  33.138  12.656
23649W        W88876  37.777  18.075  11.168
23650W        W88877  13.645  32.591  14.535
23651W        W88878  19.982   0.509   9.769
23652W        W88879  17.394  19.038  12.024
23653W        W88880  40.159  17.636  13.077
23654W        W88881  38.075  38.003   3.238
23655W        W88882  20.545  25.706   0.351
23656W        W88883  12.119   1.844  13.842
23657W        W88884  10.856  43.173  12.873
23658W        W88885   6.232   6.867   0.350
23659W        W88886  26.996  38.001  12.535
23660W        W88887  36.088  22.307  14.408
23661W        W88888  11.318  15.511   0.064
23662W        W88889   8.145  43.462   1.405
23663W        W88890  36.806   7.362  14.034
23664W        W88891   2.231  22.979  13.098
23665W        W88892  15.695   0.576  13.189
23666W        W88893   6.325  13.362   1.257
23667W        W88894  30.034  12.253   4.363
23668W        W88895  13.723  38.565  12.997
23669W        W88896  27.436  20.762   1.262
23670W        W88897  14.303   2.492  12.003
23671W        W88898  44.958  24.109   3.572
23672W        W88899   2.236  16.277  11.462
23673W        W88900   5.173  15.666  14.347
23674W        W88901   0.957  23.257   1.668
23675W        W88902  21.970  14.386   3.112
23676W        W88903  41.314   6.733   3.106
23677W        W88904  20.591  33.599  12.452
23678W        W88905  33.070  33.521  13.742
23679W        W88906  29.628  23.028  11.715
23680W        W88907  29.224   3.380  13.118
23681W        W88908   4.435  23.250   3.652
23682W        W88909  14.844  27.679   2.775
23683W        W88910  34.377   7.915   3.613
23684W        W88911  40.749   9.685   0.835
23685W        W88912   8.946  12.987   0.580
23686W        W88913  39.033  34.280  11.599
23687W        W88914  12.856   5.207   4.915
23688W        W88915  37.256  15.650  10.786
23689W        W88916  24.597   2.056   3.247
23690W        W88917   1.438  39.885   1.205
23691W        W88918  30.065  22.494   2.131
23692W        W88919  22.236  39.713  12.418
23693W        W88920  14.069  33.992   3.631
23694W        W88921  40.959  36.445  13.122
23695W        W88922  44.821  33.406  13.882
23696W        W88923  14.140  27.009  12.873
23697W        W88924  19.696  42.114   2.254
23698W        W88925   0.778  32.638   3.305
23699W        W88926  26.756  41.413   4.378
23700W        W88927  22.665  44.794  12.870
23701W        W88928  39.609  26.966  12.172
23702W        W88929  27.081  12.093  10.500
23703W        W88930  11.414  36.845   0.434
23704W        W88931  37.040  44.892   2.263
23705W        W88932   1.513  23.695   4.372
23706W        W88933   1.762  44.497  12.364
23707W        W88934  20.009  27.196  13.838
23708W        W88935  18.368  32.120  14.959
23709W        W88936  37.069  16.221   0.850
23710W        W88937  27.451  14.386  12.055
23711W        W88938   7.731   3.236   2.631
23712W        W88939  31.998  32.707   0.429
23713W        W88940  33.542  10.495  11.462
23714W        W88941  16.169  24.598   0.447
23715W        W88942  37.929   8.898  12.409
23716W        W88943  24.826   8.393   2.605
23717W        W88944  37.489  21.196  13.572
23718W        W88945  10.366  41.791   4.183
23719W        W88946   8.399   9.694   0.862
23720W        W88947  14.157   4.299  14.867
23721W        W88948   3.684  36.925  10.409
23722W        W88949  41.581  33.209   1.519
23723W        W88950  38.737  32.525  14.880
23724W        W88951  21.707  16.079  11.099
23725W        W88952  44.726  22.017   0.352
23726W        W88953  20.297   1.938   2.778
23727W        W88954  29.516   3.488  12.216
23728W        W88955  31.082  11.835   0.667
23729W        W88956  15.542   6.511  14.551
23730W        W88957  11.512  16.651  11.640
23731W        W88958  18.624   9.938   2.263
23732W        W88959  17.666  41.075   4.071
23733W        W88960  34.061  39.563   1.450
23734W        W88961  14.127  43.987  13.733
23735W        W88962  28.672  37.958  12.947
23736W        W88963  38.486  10.011   1.984
23737W        W88964  21.234  35.882  13.061
23738W        W88965  39.373  35.097   2.413
23739W        W88966  27.480   3.166  11.991
23740W        W88967  37.913  41.391   1.467
23741W        W88968  29.748  11.655  11.635
23742W        W88969  12.784  19.455   0.777
23743W        W88970  13.479  11.416   4.062
23744W        W88971  14.734   3.525   0.860
23745W        W88972  30.517   2.647  13.812
23746W        W88973  18.109  43.240   1.003
23747W        W88974  19.306  20.699  13.969
23748W        W88975  20.823  42.902   5.000
23749W        W88976  17.344   1.934   3.246
23750W        W88977  16.364  23.351  13.572
23751W        W88978  26.867   2.253   2.452
23752W        W88979  25.221  15.253   0.269
23753W        W88980  12.805  11.707  10.406
23754W        W88981  18.671  25.138   4.374
23755W        W88982  21.258  14.645  10.733
23756W        W88983  41.352  30.464  14.737
23757W        W88984  27.050   2.145   5.018
23758W        W88985   1.799  39.043   0.652
23759W        W88986  17.715   7.586   1.142
23760W        W88987  34.146  13.596  14.981
23761W        W88988   8.521  15.773   3.988
23762W        W88989  26.421   9.373  12.344
23763W        W88990  17.658  11.533  13.464
23764W        W88991  17.052   3.781   4.974
23765W        W88992   1.408  21.113  13.552
23766W        W88993  24.051   3.826   1.706
23767W        W88994  41.943  39.612   2.246
23768W        W88995   1.413  19.154   5.050
23769W        W88996  17.699  41.767   2.257
23770W        W88997  26.899  18.037   3.962
23771W        W88998  13.945  19.660   1.421
23772W        W88999  14.891  13.038   1.507
23773W        W89000   2.870  37.833  14.287
23774W        W89001  13.003  24.062  11.557
23775W        W89002  41.059  11.596   3.105
23776W        W89003  16.366  20.120  14.003
23777W        W89004  32.542  30.974  10.603
23778W        W89005  42.530  35.124   0.397
23779W        W89006  26.718  26.988  11.521
23780W        W89007  12.088  36.771   2.830
23781W        W89008  16.326  44.752   3.191
23782W        W89009  28.392  28.696  11.824
23783W        W89010  16.869  30.064   0.121
23784W        W89011  25.731  35.305   4.180
23785W        W89012  22.048  44.940  14.817
23786W        W89013  29.001  33.781  11.546
23787W        W89014  24.845  20.083   4.522
23788W        W89015  24.608   9.563   4.197
23789W        W89016  34.816  10.193   0.017
23790W        W89017   4.492   5.850   3.406
23791W        W89018  14.704  35.757  11.130
23792W        W89019  25.696  29.678   3.101
23793W        W89020  40.141  17.451   4.144
23794W        W89021   1.471  37.055   4.232
23795W        W89022  10.373  32.051   0.837
23796W        W89023  11.456  29.910  10.767
23797W        W89024  21.959   6.232   3.636
23798W        W89025  19.605  36.930  12.077
23799W        W89026  27.544  37.338  14.091
23800W        W89027  39.893  27.200   3.602
23801W        W89028  26.059  19.238   4.109
23802W        W89029  39.767  40.087  14.020
23803W        W89030  33.394  31.561  11.972
23804W        W89031   8.824  19.858   4.781
23805W        W89032  43.145  18.280   4.145
23806W        W89033  29.239  29.490   2.605
23807W        W89034   8.254  41.236   0.374
23808W        W89035   9.086  32.570   2.838
23809W        W89036  22.700  21.401  13.717
23810W        W89037   6.817  26.544  14.819
23811W        W89038  35.617  17.002   1.430
23812W        W89039  26.336  19.021  14.260
23813W        W89040  30.226  20.160  13.857
23814W        W89041  12.798   6.243  10.631
23815W        W89042  19.769  42.538   2.731
23816W        W89043  33.580   9.670   4.361
23817W        W89044   1.768  30.427  13.973
23818W        W89045  10.616  28.519   4.449
23819W        W89046  24.254  24.439   2.238
23820W        W89047   6.718  26.715  14.317
23821W        W89048  40.680   8.559   3.664
23822W        W89049  31.843  14.849   1.901
23823W        W89050  23.667   7.918  11.937
23824W        W89051   9.406  28.613  11.631
23825W        W89052  15.112  23.893   2.704
23826W        W89053  34.091   3.160  13.425
23827W        W89054   8.059  25.120   3.587
23828W        W89055  28.562  10.904  12.535
23829W        W89056  43.485  28.169   0.766
23830W        W89057  25.899  15.793  11.224
23831W        W89058  11.664  14.670   9.597
23832W        W89059  28.587  41.463   0.080
23833W        W89060  24.722  19.068   0.371
23834W        W89061  13.204  17.160  11.214
23835W        W89062  15.766   5.896  13.902
23836W        W89063   3.891  21.857  12.180
23837W        W89064  24.939  29.707  13.837
23838W        W89065  44.763   4.900  14.008
23839W        W89066  39.904  10.708   2.213
23840W        W89067  10.763  28.614  12.367
23841W        W89068   0.817  26.063  13.860
23842W        W89069  16.678  11.693   2.807
23843W        W89070  29.660   5.007   0.749
23844W        W89071  32.489  25.174   0.132
23845W        W89072  36.537  42.279  12.983
23846W        W89073  28.578  35.596   1.223
23847W        W89074  15.323  17.697   2.427
23848W        W89075  35.118  23.458  13.592
23849W        W89076  31.531  19.019  11.216
23850W        W89077  20.458  31.134  13.532
23851W        W89078  37.818  43.810  14.442
23852W        W89079  35.164   6.625   5.040
23853W        W89080  29.609  41.827  12.032
23854W        W89081  10.373  18.814   0.442
23855W        W89082  38.459   6.786  12.078
23856W        W89083  41.602  39.311  14.965
23857W        W89084  20.099  20.832   1.402
23858W        W89085  41.011  26.595  11.626
23859W        W89086  26.211   5.646  11.237
23860W        W89087  34.465  15.381  11.229
23861W        W89088   1.456  26.608  12.495
23862W        W89089  29.012  33.144   0.846
23863W        W89090  29.026   4.969   0.177
23864W        W89091   2.018  20.068  12.071
23865W        W89092  31.003   1.768  12.895
23866W        W89093  21.956  43.128  12.985
23867W        W89094   4.223   0.091  12.140
23868W        W89095  15.080   3.413  10.605
23869W        W89096  31.162   1.474  10.494
23870W        W89097  34.673  27.092   3.994
23871W        W89098  13.379  15.199   4.156
23872W        W89099  23.877  35.374   3.065
23873W        W89100  24.718  21.903  14.320
23874W        W89101  20.616   8.853   1.440
23875W        W89102  42.951  11.344   4.805
23876W        W89103  22.683  35.168   1.857
23877W        W89104   3.248  21.196   0.419
23878W        W89105  15.018   0.903   0.874
23879W        W89106  19.495  36.049   2.291
23880W        W89107  26.472  32.511  13.296
23881W        W89108   4.475  14.159  14.311
23882W        W89109  27.109  14.911  10.573
23883W        W89110  25.440  28.086  14.861
23884W        W89111  17.515  32.983  14.398
23885W        W89112  36.103  34.968  10.555
23886W        W89113  31.421   1.421  13.616
23887W        W89114  38.999  23.040  13.658
23888W        W89115  31.331   1.307  12.116
23889W        W89116  44.491  21.452  14.845
23890W        W89117   9.882  34.513   1.009
23891W        W89118  31.496   8.689  13.402
23892W        W89119  14.122  16.149  11.165
23893W        W89120  38.875  21.022  13.956
23894W        W89121  35.012  33.378   2.448
23895W        W89122  10.987  37.111   4.991
23896W        W89123  41.494   0.940   0.843
23897W        W89124  23.021  19.002   4.491
23898W        W89125   3.670   0.753   2.098
23899W        W89126  21.489   2.292  13.391
23900W        W89127   2.143  39.583   0.396
23901W        W89128  13.289  31.220  11.128
23902W        W89129  25.082   3.655   3.661
23903W        W89130  16.158  38.917   0.298
23904W        W89131  43.834  38.851   3.453
23905W        W89132  25.387   8.290   0.418
23906W        W89133   3.103   9.876   1.792
23907W        W89134   4.192   4.169  11.722
23908W        W89135  17.856   2.916  13.796
23909W        W89136  23.739  40.461  14.973
23910W        W89137   0.930  26.661  12.458
23911W        W89138  41.645  16.117   4.163
23912W        W89139  10.539  18.497   9.893
23913W        W89140  29.562  42.559  10.773
23914W        W89141  16.799  13.821   4.876
23915W        W89142  27.762   8.706  13.064
23916W        W89143  18.101  34.518   2.119
23917W        W89144  10.325   5.225   1.374
23918W        W89145   3.765  29.487   1.303
23919W        W89146  33.873  16.069  11.270
23920W        W89147   3.480  38.840   2.232
23921W        W89148  14.095   3.779   2.321
23922W        W89149  17.522  21.204  11.516
23923W        W89150  12.396   0.960  10.909
23924W        W89151  17.946  35.460  13.052
23925W        W89152  43.345  39.333  13.989
23926W        W89153   2.163   9.255   4.137
23927W        W89154  14.334  44.878   4.580
23928W        W89155  38.444  21.759   1.246
23929W        W89156  28.212  44.892   3.531
23930W        W89157   9.441  42.966  11.190
23931W        W89158   4.559  40.821  14.398
23932W        W89159   4.701  16.184  14.831
23933W        W89160  20.726  23.133   3.468
23934W        W89161  27.617  44.445  14.021
23935W        W89162  31.379  30.577   1.269
23936W        W89163  44.507  15.719  10.373
23937W        W89164  14.895  32.205  10.218
23938W        W89165  14.730  38.524  14.521
23939W        W89166  34.184  33.698  12.403
23940W        W89167   1.625  19.611  10.310
23941W        W89168  15.141   0.812   3.208
23942W        W89169   9.258  10.560  10.752
23943W        W89170  39.509  38.826   2.894
23944W        W89171   0.909  17.348   2.782
23945W        W89172   0.040  22.652   9.812
23946W        W89173   5.768  34.500  12.409
23947W        W89174  15.861  21.164   4.035
23948W        W89175  21.135  37.283   4.928
23949W        W89176  43.929  42.641   2.855
23950W        W89177  39.988   8.907  11.568
23951W        W89178   7.936  25.112   0.220
23952W        W89179   0.858   0.219   4.065
23953W        W89180  44.756   1.421   2.366
23954W        W89181  20.072  23.656   0.248
23955W        W89182   2.396  23.793   0.853
23956W        W89183  14.879  32.601   1.464
23957W        W89184  32.891  18.024   4.981
23958W        W89185   8.816  39.224  11.953
23959W        W89186  28.154   4.061   4.111
23960W        W89187  23.645  38.354   2.890
23961W        W89188  12.225  10.320  13.397
23962W        W89189  33.901  43.513  13.360
23963W        W89190  22.573   3.436  12.175
23964W        W89191  37.870  23.749  11.067
23965W        W89192  18.656  18.855  13.952
23966W        W89193  31.168  44.880   4.562
23967W        W89194   2.212   0.377   2.291
23968W        W89195   0.133  20.708  14.728
23969W        W89196  17.090   8.908   0.994
23970W        W89197  18.591  43.777   3.298
23971W        W89198  28.268  27.644   4.514
23972W        W89199   7.628  18.704  10.702
23973W        W89200  11.924  22.055  14.385
23974W        W89201  19.120  26.821   0.942
23975W        W89202  44.795  12.598   2.534
23976W        W89203  36.010  19.171   4.639
23977W        W89204  10.432  34.931  12.574
23978W        W89205  23.785  18.250  14.014
23979W        W89206  40.979  26.741  12.557
23980W        W89207  27.371  19.546   5.010
23981W        W89208  30.503  11.634  10.693
23982W        W89209  39.095  14.116   0.325
23983W        W89210  31.663   3.773   3.990
23984W        W89211  11.215  20.171  12.458
23985W        W89212   2.727  31.420  12.588
23986W        W89213   2.489  37.073  14.614
23987W        W89214  20.833  40.493  13.695
23988W        W89215  38.405   7.709  11.222
23989W        W89216   7.445  29.063  11.035
23990W        W89217  22.387  35.093   2.780
23991W        W89218  43.551  22.568   1.561
23992W        W89219  39.079  43.324   2.397
23993W        W89220  43.745  23.311  10.811
23994W        W89221  10.478  14.433  10.762
23995W        W89222  29.443  17.196  10.131
23996W        W89223  14.562   7.318   4.700
23997W        W89224   8.261   5.948   4.049
23998W        W89225   1.933  38.830   2.569
23999W        W89226   2.838  14.067  12.025
24000W        W89227  41.769  28.997  11.714
24001W        W89228  12.255  26.562   2.796
24002W        W89229  16.141  42.818  12.682
24003W        W89230   7.224  26.684  11.544
24004W        W89231  15.702  17.634   4.616
24005W        W89232  12.052  44.656   2.073
24006W        W89233  13.999  42.353   0.247
24007W        W89234  13.612   3.124   4.468
24008W        W89235  27.563  17.461  14.335
24009W        W89236  30.689  12.178   3.656
24010W        W89237   8.336  31.302   1.705
24011W        W89238  22.333  16.239  14.508
24012W        W89239   5.241  37.114  11.872
24013W        W89240  18.618  40.779  13.374
24014W        W89241  32.917  34.390   4.140
24015W        W89242   0.800  33.779   0.323
24016W        W89243  26.140  11.310  11.048
24017W        W89244  26.136  42.741   3.383
24018W        W89245   1.687  18.192  13.985
24019W        W89246  42.705  23.716   4.187
24020W        W89247   9.370  42.518   1.861
24021W        W89248  15.302  18.315  12.106
24022W        W89249  15.905  30.040   2.644
24023W        W89250  36.884  21.322   3.618
24024W        W89251   4.879  27.468  12.644
24025W        W89252  23.228  26.504   2.151
24026W        W89253   1.027  11.379  12.414
24027W        W89254   6.152   9.833  10.606
24028W        W89255  26.220  32.425   0.953
24029W        W89256  44.984   8.362   0.034
24030W        W89257  24.123   0.805  10.809
24031W        W89258   0.852   8.173  14.989
24032W        W89259   0.385  41.138   0.573
24033W        W89260  26.002  13.202  12.417
24034W        W89261  14.098  21.292  13.923
24035W        W89262  19.709  16.816  14.420
24036W        W89263  39.549  25.936  14.430
24037W        W89264  11.155  34.075   3.004
24038W        W89265  41.072  41.678  13.732
24039W        W89266  18.534   9.333   3.572
24040W        W89267  18.681  18.513   0.787
24041W        W89268   1.236  10.659   3.531
24042W        W89269   9.205  20.559   3.822
24043W        W89270  28.594  18.175  12.418
24044W        W89271  20.272  26.397   1.316
24045W        W89272   6.200  40.024   1.832
24046W        W89273  18.064  36.412  14.410
24047W        W89274  16.347  38.380  10.731
24048W        W89275   7.827  30.665   4.569
24049W        W89276  24.571  39.873  12.478
24050W        W89277  37.491  41.879   3.218
24051W        W89278  44.106  34.437  10.620
24052W        W89279  13.786  32.651   3.075
24053W        W89280  36.974  11.307   4.433
24054W        W89281  13.142   1.916  12.838
24055W        W89282  34.304  17.738   2.820
24056W        W89283  27.076  20.154   1.483
24057W        W89284  14.242  25.556   2.265
24058W        W89285   7.184  43.399   4.658
24059W        W89286  14.770  19.092   3.713
24060W        W89287   0.476  26.514   2.922
24061W        W89288  13.248  14.082  12.053
24062W        W89289  42.365  20.205   2.368
24063W        W89290  11.480   3.402   9.944
24064W        W89291  28.435  44.432  13.471
24065W        W89292  14.625  42.078   3.289
24066W        W89293  39.748  20.987  12.885
24067W        W89294  31.240  25.438   1.798
24068W        W89295  37.981   8.485  12.709
24069W        W89296   8.862  39.531   2.861
24070W        W89297   5.492  31.385   2.374
24071W        W89298  41.456  15.943   3.196
24072W        W89299   4.319   3.719   4.319
24073W        W89300  13.597  43.266   2.848
24074W        W89301  34.124   7.651   4.612
24075W        W89302  18.599  40.324   4.664
24076W        W89303  37.322  26.472   4.669
24077W        W89304  37.826  20.897  14.007
24078W        W89305  39.528  21.886  14.924
24079W        W89306  13.274  41.610   0.113
24080W        W89307  38.323   6.278   2.592
24081W        W89308  42.455   3.040  11.905
24082W        W89309  30.123   1.806  12.485
24083W        W89310  29.630  10.456  14.434
24084W        W89311  21.154   3.524   2.416
24085W        W89312  42.854  24.773  13.510
24086W        W89313  17.836  29.659  13.650
24087W        W89314  15.169  16.092  11.175
24088W        W89315  32.140  36.967  14.233
24089W        W89316   1.832  44.308  13.269
24090W        W89317   0.508  33.358  13.341
24091W        W89318  26.442  42.277  11.142
24092W        W89319  17.916   4.707  12.956
24093W        W89320  17.052   5.815   0.779
24094W        W89321   2.712  13.757   1.390
24095W        W89322   6.350  43.109   4.905
24096W        W89323  16.356   7.160   3.712
24097W        W89324  12.604   2.147   1.561
24098W        W89325  44.190  36.474   1.172
24099W        W89326  39.980  30.654  10.740
24100W        W89327  26.919  24.412  12.304
24101W        W89328  20.087   3.669  13.465
24102W        W89329  40.314  42.532   4.103
24103W        W89330   1.034  20.836   4.268
24104W        W89331  26.466   9.255  11.041
24105W        W89332  21.046  39.533   4.310
24106W        W89333   2.686  10.955  13.503
24107W        W89334  29.348  22.752  10.769
24108W        W89335   5.215   7.052   1.457
24109W        W89336  40.561   0.514  11.557
24110W        W89337  29.606  38.471   0.234
24111W        W89338  27.486  39.879  13.704
24112W        W89339  20.083  33.426   0.445
24113W        W89340  25.628   7.221   4.446
24114W        W89341  21.428  42.470   2.712
24115W        W89342  39.094  11.730   1.741
24116W        W89343  28.385  30.481  11.500
24117W        W89344  13.724  26.910  11.456
24118W        W89345   8.208  42.586  13.061
24119W        W89346   1.320  40.805   2.790
24120W        W89347  31.068  39.319   4.205
24121W        W89348  22.017  38.820  11.578
24122W        W89349  26.432  30.152   3.758
24123W        W89350  34.474   1.249   2.200
24124W        W89351   4.900  26.058  13.831
24125W        W89352  18.622  28.207  12.472
24126W        W89353   9.843  14.204   4.839
24127W        W89354  28.048  42.605   0.199
24128W        W89355  19.049  34.930   0.839
24129W        W89356  24.034  23.434   0.042
24130W        W89357  42.177  15.336   3.391
24131W        W89358   4.148   7.029   3.094
24132W        W89359  18.958  26.941   3.143
24133W        W89360  35.907  40.268  12.491
24134W        W89361  23.601  40.656   1.320
24135W        W89362   5.656   9.198   0.392
24136W        W89363  39.505   9.153  10.936
24137W        W89364  14.202  18.343  11.611
24138W        W89365  12.787  13.893  13.676
24139W        W89366   6.130   5.148   1.706
24140W        W89367  13.021  23.601  13.144
24141W        W89368   8.851  16.094  13.945
24142W        W89369  33.529  11.952   0.738
24143W        W89370  16.340   5.680  14.345
24144W        W89371  11.369  21.050  13.532
24145W        W89372  25.202  25.027  13.949
24146W        W89373  42.494  31.936   1.829
24147W        W89374  14.402  41.545   4.808
24148W        W89375  42.267  32.685  12.641
24149W        W89376   2.959   6.128   4.902
24150W        W89377  23.664  44.455  10.725
24151W        W89378  34.530  15.532   4.004
24152W        W89379  39.786  42.026  11.653
24153W        W89380  18.324  35.922   2.438
24154W        W89381  43.928  17.001  10.305
24155W        W89382  27.234  44.927   0.249
24156W        W89383  43.146   3.707   2.686
24157W        W89384  31.321  24.422  13.442
24158W        W89385  15.976  11.759  13.336
24159W        W89386   9.191  17.267  13.015
24160W        W89387  42.527  37.394  14.973
24161W        W89388  37.626  33.545   1.407
24162W        W89389  21.113  25.007   1.104
24163W        W89390  30.522  40.270   1.265
24164W        W89391  13.388  27.344   4.148
24165W        W89392  35.078   6.170   1.700
24166W        W89393  22.998  42.891   0.518
24167W        W89394   6.696  32.369   1.781
24168W        W89395  32.448  24.905  14.355
24169W        W89396  36.105  36.569   1.728
24170W        W89397  14.124  31.956  12.962
24171W        W89398  28.622  17.301  14.162
24172W        W89399  31.359  29.733  11.058
24173W        W89400  36.077  13.892  14.422
24174W        W89401  10.386  21.543  11.278
24175W        W89402  28.501   5.311  14.263
24176W        W89403  15.723   6.744   0.017
24177W        W89404  33.513  39.614   4.132
24178W        W89405  38.314  19.552  12.573
24179W        W89406  31.279  42.459   2.854
24180W        W89407   1.572  26.755  14.845
24181W        W89408  21.324   0.980   2.681
24182W        W89409  11.395  17.905   0.430
24183W        W89410  13.762   5.699   3.673
24184W        W89411  15.565  17.479  13.657
24185W        W89412  14.827  34.201  10.486
24186W        W89413   3.243  12.986   1.244
24187W        W89414  11.142  26.938  10.732
24188W        W89415  11.638  42.844  10.570
24189W        W89416  15.701  12.201  11.137
24190W        W89417  10.792  44.813   0.860
24191W        W89418  19.570  22.135   2.221
24192W        W89419  15.402   6.865  12.502
24193W        W89420  13.222  12.659   0.335
24194W        W89421  14.547  29.166   4.641
24195W        W89422   7.091  10.749  14.402
24196W        W89423  19.011  38.878   2.836
24197W        W89424  23.578  39.617   1.326
24198W        W89425  32.320   8.968   2.741
24199W        W89426  20.079  29.082   0.076
24200W        W89427  29.999   1.277  12.586
24201W        W89428  30.196  43.385   1.820
24202W        W89429  21.988  19.757   4.330
24203W        W89430  35.582  11.068   0.458
24204W        W89431   6.778  24.192  11.999
24205W        W89432  23.166  33.588  12.623
24206W        W89433  35.101  14.752  13.526
24207W        W89434  27.559   8.610  11.211
24208W        W89435  32.416  42.848  12.219
24209W        W89436  25.338  18.794   0.958
24210W        W89437  27.209   9.092   2.008
24211W        W89438  13.888  17.371  14.947
24212W        W89439  16.598  21.327  13.470
24213W        W89440  44.363  33.965  12.661
24214W        W89441  26.185  19.200  12.069
24215W        W89442  43.307   2.654   0.149
24216W        W89443  38.453  25.940   2.213
24217W        W89444  38.957  28.053  10.542
24218W        W89445  23.159  30.019   3.640
24219W        W89446  33.029  40.575   4.682
24220W        W89447  10.817  40.471  10.630
24221W        W89448  19.782  25.593   1.015
24222W        W89449  35.468  28.969  12.583
24223W        W89450  17.345  12.845   4.622
24224W        W89451  25.520  13.875  13.603
24225W        W89452  37.096  19.498   2.270
24226W        W89453   8.087  24.018  12.453
24227W        W89454  11.086   8.217  13.546
24228W        W89455  32.107  42.044   4.491
24229W        W89456  33.544  44.858   1.941
24230W        W89457  31.949   3.801   2.788
24231W        W89458  19.553  37.599   2.315
24232W        W89459  37.200  20.811   2.251
24233W        W89460   2.348  40.571   2.009
24234W        W89461  10.801  21.274   1.078
24235W        W89462  42.486  26.533  13.858
24236W        W89463   8.959   1.792  14.478
24237W        W89464  42.064   4.421  11.128
24238W        W89465  29.549  24.518   2.508
24239W        W89466  44.162  38.761  13.000
24240W        W89467  28.959  14.746   1.242
24241W        W89468  38.987  20.710   1.180
24242W        W89469   7.878  17.064  14.950
24243W        W89470   0.922   7.704   1.264
24244W        W89471  39.315  28.413   2.962
24245W        W89472  42.739  13.562   5.189
24246W        W89473   1.607   7.772  13.303
24247W        W89474  44.832  15.760   3.521
24248W        W89475  24.784  37.333   0.479
24249W        W89476  43.743  24.859   5.088
24250W        W89477   7.309   6.416  10.766
24251W        W89478  20.722  37.440   0.448
24252W        W89479   4.325  22.901   0.737
24253W        W89480  27.058  17.720  10.648
24254W        W89481  40.845  38.612  14.563
24255W        W89482  38.884  18.110   2.504
24256W        W89483   7.195  24.459  12.971
24257W        W89484   6.759  13.246  13.745
24258W        W89485  28.765  12.495   4.601
24259W        W89486  33.049  44.737  10.020
24260W        W89487  21.978  23.565   4.032
24261W        W89488  20.945  11.133  12.734
24262W        W89489  18.575   4.946  14.103
24263W        W89490  22.938  17.276   0.369
24264W        W89491  11.561  43.013   1.351
24265W        W89492  35.107   0.916  12.461
24266W        W89493  43.232  36.407   1.447
24267W        W89494  31.726   2.358   3.690
24268W        W89495   9.875  35.895  13.816
24269W        W89496  25.687  37.647   3.903
24270W        W89497  22.093   7.678  14.492
24271W        W89498  15.589  36.661   3.821
24272W        W89499  25.010  42.919   2.252
24273W        W89500  41.047  19.693   2.167
24274W        W89501   6.346  17.182  11.605
24275W        W89502  28.052   9.644  12.492
24276W        W89503  33.356  42.329   2.447
24277W        W89504   0.233   6.365  11.502
24278W        W89505  30.179  26.969  12.976
24279W        W89506  28.569  30.711  11.082
24280W        W89507  40.355  12.368   4.498
24281W        W89508  43.632   7.892  11.099
24282W        W89509   9.214  40.658   2.265
24283W        W89510  23.908  18.231  14.522
24284W        W89511   1.844  22.499   0.004
24285W        W89512  19.537  34.245   4.418
24286W        W89513  29.489  42.098  12.451
24287W        W89514  33.347   4.906  13.444
24288W        W89515  30.376  10.038  14.961
24289W        W89516  37.088  17.746   3.146
24290W        W89517  33.081  24.671  10.414
24291W        W89518  15.282  16.313  14.912
24292W        W89519  37.164   0.391   2.331
24293W        W89520  27.416  34.806  13.022
24294W        W89521  21.214  38.604  11.338
24295W        W89522  21.492   7.257   4.830
24296W        W89523   7.432  28.483   4.605
24297W        W89524   9.125  32.142   1.181
24298W        W89525  11.934  28.678   3.650
24299W        W89526  12.790  40.523  11.470
24300W        W89527  43.476  15.860   2.792
24301W        W89528  27.461  24.412  12.414
24302W        W89529   5.911  14.881   2.755
24303W        W89530  34.897  27.680   1.899
24304W        W89531  42.858  38.205   4.964
24305W        W89532  17.632   2.352   1.852
24306W        W89533  21.757   4.593   2.401
24307W        W89534  37.025  23.049  14.945
24308W        W89535  31.305  32.806  11.367
24309W        W89536  32.195  29.216   1.404
24310W        W89537  35.352  25.038   0.929
24311W        W89538  44.003  41.393  11.204
24312W        W89539  39.281  25.772  12.622
24313W        W89540  16.046  12.747   2.442
24314W        W89541  15.092  26.603  14.885
24315W        W89542   2.773  18.762   9.691
24316W        W89543  10.107  25.964  14.783
24317W        W89544   6.421  30.642   4.785
24318W        W89545  39.227   8.771  10.247
24319W        W89546  19.669  38.056   1.360
24320W        W89547  42.872  25.601  12.897
24321W        W89548  22.723  36.582  11.973
24322W        W89549  29.521   5.395   1.812
24323W        W89550  16.628   5.878  10.595
24324W        W89551   3.334  19.578   1.228
24325W        W89552  37.501   7.076  13.563
24326W        W89553   5.047  26.483  13.550
24327W        W89554  22.263  28.912   1.688
24328W        W89555  19.812  42.362   0.766
24329W        W89556  18.829  19.482  13.444
24330W        W89557  19.571  15.795  11.516
24331W        W89558  31.159  10.924  14.494
24332W        W89559  34.813   0.725   0.373
24333W        W89560  17.690  42.345   0.051
24334W        W89561  37.359  21.484  12.193
24335W        W89562  40.846  19.671   2.649
24336W        W89563  20.034  35.763  14.973
24337W        W89564  10.611  20.808  11.522
24338W        W89565  38.055  24.492  14.891
24339W        W89566  40.665  28.771  14.249
24340W        W89567  23.069  22.181   3.688
24341W        W89568  44.018  31.852   0.753
24342W        W89569  26.036  33.000  14.892
24343W        W89570  37.906  26.091   1.171
24344W        W89571   8.414  39.341  11.108
24345W        W89572  16.483  15.539  12.981
24346W        W89573  26.985   5.907  13.146
24347W        W89574  17.167  14.489   3.828
24348W        W89575  42.359   9.753   2.888
24349W        W89576  11.954  43.948   3.134
24350W        W89577  32.049  44.345  10.608
24351W        W89578  43.910  20.265   3.074
24352W        W89579  13.979  13.010   0.480
24353W        W89580   1.029  36.955   0.282
24354W        W89581  30.909  25.513  12.923
24355W        W89582  43.400  14.658  14.285
24356W        W89583  36.944  41.796  11.619
24357W        W89584  43.923  40.517   4.434
24358W        W89585  24.108  42.607   1.823
24359W        W89586  41.964  16.785   3.710
24360W        W89587  36.525   2.817   3.583
24361W        W89588   8.954  36.760   5.203
24362W        W89589  41.869  23.256  10.794
24363W        W89590  36.956  44.376   2.190
24364W        W89591  10.619   5.888   3.665
24365W        W89592  35.649  38.197  12.563
24366W        W89593   1.487  27.987  11.464
24367W        W89594  34.624  12.758   3.312
24368W        W89595  18.297   5.507  13.339
24369W        W89596  16.030  15.141  13.422
24370W        W89597  30.909  12.293  12.995
24371W        W89598  29.356  23.777  13.391
24372W        W89599  34.921   3.288   4.690
24373W        W89600  30.648  13.228  13.532
24374W        W89601  38.334  41.751   1.861
24375W        W89602  32.819  39.956  11.536
24376W        W89603  15.027  23.014   4.544
24377W        W89604  43.476   7.676  12.464
24378W        W89605  41.503  33.271   2.034
24379W        W89606  36.438  33.667  13.173
24380W        W89607  27.068   2.456  13.273
24381W        W89608  30.103  22.463   4.183
24382W        W89609   2.041  30.330   2.806
24383W        W89610  29.095  21.331  11.728
24384W        W89611   7.237  24.279  12.502
24385W        W89612  18.045  33.961  12.773
24386W        W89613  44.948  34.591   3.661
24387W        W89614   2.646  24.649   0.957
24388W        W89615  27.296  24.132  13.008
24389W        W89616  18.079   5.858  14.087
24390W        W89617  38.122  36.345   4.868
24391W        W89618  43.661   6.984   2.949
24392W        W89619  25.922  16.197   4.203
24393W        W89620  28.685  28.492  14.409
24394W        W89621  23.739  11.515   2.748
24395W        W89622  42.564   9.585  12.766
24396W        W89623  42.268  36.885  11.241
24397W        W89624  11.799  39.328  14.929
24398W        W89625  32.715   6.900  14.521
24399W        W89626  37.440  12.801   3.208
24400W        W89627  19.074  21.963  12.624
24401W        W89628  38.322  44.750   2.800
24402W        W89629  35.632  42.788   4.183
24403W        W89630  27.762  37.790   4.983
24404W        W89631  34.364  41.686   1.545
24405W        W89632  36.624   5.741  12.904
24406W        W89633   1.260  17.596  11.137
24407W        W89634  25.677  43.601  10.598
24408W        W89635  31.722   1.300  14.101
24409W        W89636   9.029  14.328  13.925
24410W        W89637  12.237  13.341  14.386
24411W        W89638   6.253  38.122  14.332
24412W        W89639   8.404   7.223   4.720
24413W        W89640  43.710  12.396  11.530
24414W        W89641  23.142   9.430  14.567
24415W        W89642   3.568  19.840  11.540
24416W        W89643  11.390  12.293   3.217
24417W        W89644  30.997   4.122   0.300
24418W        W89645  28.717  32.288  13.075
24419W        W89646  42.769  13.631   1.855
24420W        W89647  14.342  28.900  12.987
24421W        W89648   2.759  18.727   4.495
24422W        W89649  34.974  30.832  10.899
24423W        W89650  15.682  40.231   0.342
24424W        W89651  27.803  38.466  11.323
24425W        W89652  35.826  28.174   2.547
24426W        W89653  20.552  40.046  13.021
24427W        W89654  21.772  41.517   2.769
24428W        W89655   9.074   8.181   0.408
24429W        W89656  26.778  25.591  11.957
24430W        W89657   2.947  29.596  13.820
24431W        W89658  18.111   1.018  13.023
24432W        W89659  36.346  29.817   0.979
24433W        W89660  14.333  40.354   1.044
24434W        W89661  31.142   1.946  14.836
24435W        W89662  38.192   5.888   0.982
24436W        W89663  12.222  11.770  13.375
24437W        W89664  38.143  35.336   1.759
24438W        W89665  28.922   0.755  10.509
24439W        W89666  35.641  24.586   4.588
24440W        W89667   0.763   7.724  11.552
24441W        W89668  42.947  32.428  11.525
24442W        W89669  11.484  31.350   3.267
24443W        W89670  15.206  15.574  14.346
24444W        W89671  22.790  12.257   3.360
24445W        W89672  29.322  38.390  13.861
24446W        W89673  33.568   3.833  10.721
24447W        W89674  17.977  40.289  11.623
24448W        W89675   5.434   2.975   2.718
24449W        W89676  33.364  41.102  10.394
24450W        W89677  39.088  16.107  12.874
24451W        W89678  24.786   4.312   4.282
24452W        W89679  35.310  10.341   4.764
24453W        W89680  16.635  25.525  10.924
24454W        W89681  42.267  40.356  11.112
24455W        W89682   8.764  13.270  13.159
24456W        W89683  23.768  11.798  14.776
24457W        W89684   5.727  12.710   2.818
24458W        W89685   1.462  40.577  12.623
24459W        W89686   6.654  27.506   0.792
24460W        W89687   6.987  25.002   1.881
24461W        W89688  34.420  20.634   0.728
24462W        W89689  40.867  21.061   2.456
24463W        W89690  11.205   7.337   3.577
24464W        W89691  40.732  44.209  12.600
24465W        W89692   5.612  24.230   1.791
24466W        W89693  27.499  16.768  12.826
24467W        W89694  32.830   7.636   4.922
24468W        W89695  28.409  27.571   0.748
24469W        W89696  35.928  25.178   1.717
24470W        W89697   1.808  37.269   4.582
24471W        W89698  43.712   1.406   3.269
24472W        W89699  27.594  14.870  14.095
24473W        W89700  28.049  23.848   3.120
24474W        W89701  34.583   0.221  13.903
24475W        W89702   3.062  17.267  11.541
24476W        W89703  27.882  39.455  11.052
24477W        W89704  36.789   2.708  14.376
24478W        W89705  39.889   6.989   2.854
24479W        W89706  14.381  26.030   4.255
24480W        W89707  32.160  35.841  14.914
24481W        W89708  33.704  38.092  12.449
24482W        W89709  25.609   2.804  13.426
24483W        W89710  33.362   5.448  11.729
24484W        W89711  39.531  26.069   2.104
24485W        W89712  28.487  10.404  12.342
24486W        W89713  22.495  43.999   0.013
24487W        W89714  33.573   9.669   4.910
24488W        W89715   2.676  35.052   3.412
24489W        W89716   7.709  14.342   4.097
24490W        W89717   2.400   8.286  14.280
24491W        W89718   3.651  26.016   2.245
24492W        W89719  13.945  30.107   1.029
24493W        W89720   0.116  19.367   0.791
24494W        W89721   6.772  23.020  14.976
24495W        W89722   2.319  27.661  12.842
24496W        W89723  11.105   6.136   2.849
24497W        W89724  21.981  23.605  14.121
24498W        W89725  22.514  34.385  14.933
24499W        W89726  29.899  42.384  10.425
24500W        W89727  39.754  27.425   1.303
24501W        W89728  11.130   1.760   3.309
24502W        W89729  36.590   2.547  11.626
24503W        W89730  43.288  34.548   4.260
24504W        W89731  28.133   9.902  12.026
24505W        W89732  13.595  15.087   2.892
24506W        W89733   0.477  12.764   1.832
24507W        W89734  43.776  26.601  12.986
24508W        W89735  14.139  22.526   2.112
24509W        W89736  42.460   1.078   4.584
24510W        W89737   5.982  24.147  13.012
24511W        W89738  12.802  14.083  10.906
24512W        W89739  27.549  34.824   2.533
24513W        W89740  34.863  24.729  10.655
24514W        W89741   7.800   9.580   3.106
24515W        W89742  13.786  32.087   3.113
24516W        W89743  19.329  18.821   4.074
24517W        W89744   0.672  14.092   0.022
24518W        W89745  10.761  19.817   0.970
24519W        W89746  20.976  25.359   1.848
24520W        W89747  41.117  20.756  13.743
24521W        W89748   1.547  12.785   3.615
24522W        W89749  13.826  11.607   0.196
24523W        W89750   3.440  19.269  11.518
24524W        W89751  40.850  34.633  14.815
24525W        W89752   5.762  24.805   2.948
24526W        W89753  19.064   1.905  14.724
24527W        W89754  31.908  26.628   2.175
24528W        W89755  38.528  36.362   4.481
24529W        W89756  26.100  28.473   0.359
24530W        W89757  26.525  29.151   4.112
24531W        W89758  40.973  23.602   2.946
24532W        W89759  13.770  23.683  11.416
24533W        W89760  27.760   8.703   1.306
24534W        W89761  17.383  38.585  12.022
24535W        W89762  14.016   6.491   4.523
24536W        W89763  29.167  32.220  11.141
24537W        W89764  16.337  38.892  11.090
24538W        W89765  15.589  29.967   4.590
24539W        W89766  18.479  19.074   2.922
24540W        W89767  42.787  22.797  12.047
24541W        W89768   3.782  16.610   4.472
24542W        W89769  16.615  14.606  14.957
24543W        W89770  15.712  25.059  14.999
24544W        W89771  34.560  18.753  10.495
24545W        W89772  14.597  37.343  12.469
24546W        W89773  25.423   0.406   2.744
24547W        W89774   3.456  35.108   0.013
24548W        W89775   9.080  35.957  11.988
24549W        W89776  17.323   2.008  13.894
24550W        W89777  24.775   3.807  10.973
24551W        W89778   4.730  40.244   1.878
24552W        W89779   6.089  10.137  12.148
24553W        W89780  29.663   0.965   1.684
24554W        W89781   8.823  19.009  10.584
24555W        W89782  44.417  42.497  14.542
24556W        W89783  42.266  19.512  14.456
24557W        W89784  20.041  37.826   4.096
24558W        W89785   7.481  21.302   0.925
24559W        W89786   4.935  32.225  12.988
24560W        W89787  10.999  36.884  14.293
24561W        W89788  14.728  28.698   4.477
24562W        W89789  28.536   6.652  14.858
24563W        W89790  30.645  18.624  10.759
24564W        W89791  31.860  30.063   2.287
24565W        W89792  30.612  15.698  10.764
24566W        W89793  16.174   1.728   4.617
24567W        W89794  20.165  29.426  12.363
24568W        W89795  26.601   0.997   4.247
24569W        W89796  19.960  24.979   4.495
24570W        W89797   0.949  15.086  14.002
24571W        W89798  42.306  37.056   4.287
24572W        W89799  39.971  41.938   1.205
24573W        W89800  13.040  13.838  10.500
24574W        W89801  44.410   2.642   2.966
24575W        W89802  43.282  15.650   1.706
24576W        W89803  40.471  26.962   1.681
24577W        W89804  10.586  44.409  11.115
24578W        W89805  15.102  16.808  13.030
24579W        W89806   7.640  40.036   2.852
24580W        W89807  17.736  13.106   1.900
24581W        W89808   9.278  35.410  10.794
24582W        W89809   2.426  38.901   2.352
24583W        W89810   3.889   0.816  13.455
24584W        W89811   7.476  18.842  13.486
24585W        W89812   3.352  40.586   1.976
24586W        W89813  30.870  23.761  14.418
24587W        W89814  19.017  24.636   2.242
24588W        W89815  18.005  44.733  11.202
24589W        W89816  37.896  23.513  12.364
24590W        W89817   9.344  16.008  12.204
24591W        W89818  42.871   0.289   3.696
24592W        W89819  42.884  19.979  12.712
24593W        W89820  23.032  12.856   1.467
24594W        W89821  32.086  42.290   4.018
24595W        W89822   9.762  32.891  13.941
24596W        W89823  43.878  23.695  11.167
24597W        W89824   5.488  30.426  14.435
24598W        W89825  41.545  16.353  12.995
24599W        W89826  43.922  43.346  11.774
24600W        W89827  41.702  19.719   1.321
24601W        W89828   8.790  42.270  12.019
24602W        W89829   9.217  23.630   3.239
24603W        W89830  18.639  22.273  14.340
24604W        W89831  14.719  23.336   0.476
24605W        W89832  35.022  40.097  11.313
24606W        W89833   8.272  20.665  11.718
24607W        W89834  27.504  13.308   2.600
24608W        W89835   7.071  33.318   3.173
24609W        W89836  20.159  10.607  14.920
24610W        W89837  24.539  21.130  12.445
24611W        W89838   7.342  43.153  11.153
24612W        W89839   8.372  25.757  11.510
24613W        W89840  13.655  11.266   4.533
24614W        W89841  43.775  27.084   4.856
24615W        W89842  38.066  28.565  12.888
24616W        W89843  43.829   3.053   2.316
24617W        W89844  33.171  43.713   3.642
24618W        W89845  19.651  41.862   0.948
24619W        W89846  25.213  18.552  13.219
24620W        W89847  25.173  32.054   2.723
24621W        W89848  19.649  19.625   1.804
24622W        W89849  35.354   9.307  14.971
24623W        W89850  44.532   0.384   0.389
24624W        W89851  36.434  14.071   0.488
24625W        W89852   6.121  25.976  14.580
24626W        W89853   0.055  41.259   1.689
24627W        W89854   8.088  24.543   2.406
24628W        W89855  15.870   7.841  14.070
24629W        W89856  27.375   1.719  13.112
24630W        W89857  39.208   6.321   0.136
24631W        W89858  42.605   4.938   2.860
24632W        W89859   4.727  37.451   4.483
24633W        W89860  41.071  19.581   1.657
24634W        W89861  19.080   3.440  12.426
24635W        W89862  12.632  19.102   1.162
24636W        W89863  23.570  14.782   4.477
24637W        W89864  40.446  38.298  14.408
24638W        W89865  41.291  43.465   1.783
24639W        W89866  15.998  42.500  14.287
24640W        W89867  40.610  24.371   3.802
24641W        W89868  42.574  23.616   1.823
24642W        W89869   7.679  44.048  14.417
24643W        W89870   0.806  21.737  13.741
24644W        W89871   1.500  30.105  14.273
24645W        W89872   0.440   3.711  13.544
24646W        W89873   1.741   1.442   1.185
24647W        W89874  44.582  39.494   0.563
24648W        W89875  33.809   0.316   4.628
24649W        W89876  33.902  34.845   2.698
24650W        W89877  43.986   6.756   4.814
24651W        W89878  10.684  14.966   2.898
24652W        W89879   6.623  29.865  14.828
24653W        W89880   2.361  25.513   3.713
24654W        W89881  23.977  23.455   1.312
24655W        W89882   9.343  29.369  13.510
24656W        W89883  43.974  40.726   0.257
24657W        W89884  31.728  42.136   2.897
24658W        W89885  21.963  31.640  11.179
24659W        W89886  27.416  14.766   1.744
24660W        W89887   8.066  16.208  14.424
24661W        W89888  25.465   6.301   2.300
24662W        W89889   8.271  24.465  14.927
24663W        W89890  34.486  16.877  10.642
24664W        W89891  32.401   7.781   3.871
24665W        W89892   5.448  19.890  14.460
24666W        W89893   8.105   7.654  12.119
24667W        W89894   4.402   6.038   1.565
24668W        W89895  29.680  25.574  12.489
24669W        W89896  36.391  11.907   3.307
24670W        W89897  13.830   7.411  11.629
24671W        W89898   7.679  24.542   3.863
24672W        W89899   8.698  28.272   1.309
24673W        W89900  16.180   7.689   2.173
24674W        W89901  42.946  34.585  10.272
24675W        W89902   7.762  32.174   2.843
24676W        W89903  14.364   8.807  14.045
24677W        W89904   9.664  42.919  14.029
24678W        W89905  13.200  24.969   0.604
24679W        W89906  36.925  28.942   1.225
24680W        W89907  22.922  34.368   0.364
24681W        W89908   1.441  41.987   0.997
24682W        W89909  10.149  35.790  13.367
24683W        W89910  34.260  33.987   1.185
24684W        W89911  12.304   2.983   2.414
24685W        W89912  32.038  35.473  12.095
24686W        W89913  36.397  40.507  11.992
24687W        W89914  31.090  41.503   2.781
24688W        W89915  17.212   3.030   0.776
24689W        W89916  14.876  21.685   2.659
24690W        W89917  44.697   4.223  11.774
24691W        W89918  10.590  21.509  14.616
24692W        W89919  17.182  34.786   1.663
24693W        W89920  32.039  10.948   0.394
24694W        W89921  28.493  12.641  12.772
24695W        W89922  11.575  33.678   1.835
24696W        W89923   5.813  19.231   4.163
24697W        W89924  15.186  33.866   4.541
24698W        W89925  19.563  24.185  12.324
24699W        W89926  41.225  26.176  13.817
24700W        W89927   8.217  19.076  11.665
24701W        W89928   2.353  41.825  11.897
24702W        W89929  22.576  10.761  14.787
24703W        W89930  38.368   4.010   0.789
24704W        W89931  14.909  21.686  12.537
24705W        W89932  17.361  24.804  14.784
24706W        W89933  41.302  12.120   4.161
24707W        W89934  15.584  19.658   3.944
24708W        W89935  20.299  36.111   0.254
24709W        W89936   0.955   1.386   0.978
24710W        W89937  24.525  12.315   1.650
24711W        W89938   6.362  35.986   0.269
24712W        W89939  11.866   1.781   2.871
24713W        W89940   2.922  38.953  13.142
24714W        W89941  15.516  23.720  14.753
24715W        W89942  44.081  26.480  14.719
24716W        W89943  23.030  14.117   0.895
24717W        W89944  25.524  29.174  13.002
24718W        W89945  27.578  15.704  12.517
24719W        W89946   7.501  33.656   1.275
24720W        W89947  23.936  31.086  12.859
24721W        W89948  23.621   6.930  10.462
24722W        W89949   9.452  24.208   0.757
24723W        W89950  10.198  32.113   3.560
24724W        W89951  21.475   0.446  13.955
24725W        W89952  11.638  31.278  14.038
24726W        W89953   4.453  28.159   1.271
24727W        W89954  43.491   4.282   2.671
24728W        W89955  38.624   3.266   2.591
24729W        W89956  25.917  22.692   1.844
24730W        W89957  39.194  14.284   0.984
24731W        W89958  38.072  38.539   1.074
24732W        W89959  44.251  18.244  11.956
24733W        W89960   7.376  41.513   2.017
24734W        W89961   8.388  34.949  14.780
24735W        W89962  16.779  11.637   1.314
24736W        W89963  19.957   0.368   4.661
24737W        W89964  13.309  33.072   0.799
24738W        W89965  38.217  32.075   1.164
24739W        W89966  19.772  14.225  11.305
24740W        W89967  30.675  38.301  13.456
24741W        W89968  29.664  37.413  14.598
24742W        W89969  35.602   0.734   1.076
24743W        W89970   7.160   8.251   1.098
24744W        W89971  26.243  13.246   4.254
24745W        W89972   5.609  32.721   0.208
24746W        W89973  10.196  18.675  12.983
24747W        W89974  17.669  35.145  11.528
24748W        W89975  16.648  35.846  14.751
24749W        W89976  28.720   6.687   1.538
24750W        W89977  17.971  29.645  10.567
24751W        W89978   9.223   4.385  11.541
24752W        W89979  15.312  40.748   1.906
24753W        W89980  21.593  24.966  12.560
24754W        W89981   2.434  42.965  12.924
24755W        W89982  12.911  37.519  12.532
24756W        W89983   0.230  38.952  11.726
24757W        W89984  23.193  20.104  12.410
24758W        W89985  16.348  14.857   1.292
24759W        W89986   3.364   0.305   2.053
24760W        W89987  24.263   8.823   1.882
24761W        W89988  12.240  28.249  12.586
24762W        W89989   9.376  12.430   4.560
24763W        W89990   7.125  39.917  13.356
24764W        W89991  17.765  43.479  14.501
24765W        W89992  41.278   8.388  14.838
24766W        W89993  21.259  18.830   1.009
24767W        W89994   2.791  43.058  11.631
24768W        W89995   6.838  34.462  12.640
24769W        W89996  32.884  20.474  13.903
24770W        W89997  21.313  41.306   3.651
24771W        W89998  23.909  27.235   1.149
24772W        W89999  33.189  39.922  14.533
24773W        W90000  30.404  16.681   4.047
24774W        W90001  11.882  40.416  10.504
24775W        W90002  35.415  18.958  13.207
24776W        W90003  32.884   1.482   4.918
24777W        W90004   8.075  11.772  14.422
24778W        W90005  41.037  29.427   1.794
24779W        W90006  32.036  23.719   1.720
24780W        W90007  26.683   5.910   3.607
24781W        W90008   6.385   2.347  13.015
24782W        W90009   7.856  11.202   0.323
24783W        W90010  37.273  21.165   2.678
24784W        W90011  12.092  10.872  12.913
24785W        W90012   5.279  42.807  12.061
24786W        W90013  43.675  30.702   0.229
24787W        W90014  42.413  27.049  12.380
24788W        W90015  28.064  27.570  11.966
24789W        W90016  28.897   6.675  12.302
24790W        W90017   0.086  23.716   5.324
24791W        W90018   6.750  17.100   2.554
24792W        W90019  23.630  34.319   1.309
24793W        W90020  44.105  22.004   4.204
24794W        W90021  35.846   9.566   1.061
24795W        W90022  23.786  20.075  14.298
24796W        W90023  12.619  30.584   3.495
24797W        W90024  19.951  23.517  12.097
24798W        W90025  32.225  18.550   2.789
24799W        W90026  21.780   5.713   0.020
24800W        W90027   9.439  27.699   4.125
24801W        W90028  28.947  23.961   2.203
24802W        W90029  14.981  37.627   4.993
24803W        W90030  20.103  43.805  12.836
24804W        W90031  22.463   3.037   2.044
24805W        W90032  13.684   1.937   2.320
24806W        W90033  42.769  26.078  13.741
24807W        W90034   8.891   0.840   0.489
24808W        W90035  12.391   0.847  12.857
24809W        W90036  21.099  27.417   0.461
24810W        W90037  19.388  20.205  10.608
24811W        W90038  13.266   8.690   3.582
24812W        W90039  26.491  14.742   4.636
24813W        W90040  12.543  13.564  13.986
24814W        W90041   6.202  43.467  14.497
24815W        W90042   4.796  33.978  11.341
24816W        W90043  20.037  43.395   1.903
24817W        W90044  44.456   0.257  10.699
24818W        W90045  33.321  41.491  13.069
24819W        W90046  29.605  28.122  14.261
24820W        W90047   0.626  21.592   0.509
24821W        W90048   7.772   2.725   4.093
24822W        W90049  26.691   6.718   2.129
24823W        W90050  35.867  25.966  11.647
24824W        W90051  27.128  24.865  11.064
24825W        W90052  43.924  10.221   3.983
24826W        W90053  35.908   0.887  11.605
24827W        W90054  44.041  13.370   4.063
24828W        W90055   3.472   2.703  13.423
24829W        W90056  30.166  38.656   4.703
24830W        W90057   9.242  42.775   2.312
24831W        W90058  43.138   2.373   4.655
24832W        W90059  30.988  43.408   2.357
24833W        W90060  43.393  10.778  13.320
24834W        W90061   1.349   7.100   1.802
24835W        W90062   0.798   6.275  12.629
24836W        W90063  25.295  16.317   1.328
24837W        W90064  17.933  31.207  11.637
24838W        W90065  13.019  21.559   2.190
24839W        W90066  42.381  29.034  13.943
24840W        W90067  13.370  43.313   4.663
24841W        W90068  32.427  40.082  11.892
24842W        W90069  41.984  27.042   0.463
24843W        W90070  42.467   2.953  13.628
24844W        W90071  19.212  24.766   0.925
24845W        W90072  38.009   1.530  13.982
24846W        W90073  10.308   6.657  14.362
24847W        W90074  16.032  15.086   0.596
24848W        W90075  10.681  21.887   0.364
24849W        W90076   0.792   4.604  13.402
24850W        W90077  14.161  30.863  14.877
24851W        W90078  11.688  27.500   4.557
24852W        W90079  11.467  12.638   3.587
24853W        W90080  27.631  39.038  12.115
24854W        W90081   7.784  15.226   3.181
24855W        W90082  34.940  19.775  14.516
24856W        W90083  16.628   1.690   2.783
24857W        W90084  14.118  41.736   0.853
24858W        W90085  39.271  17.113  12.973
24859W        W90086  24.297  43.786   2.294
24860W        W90087  43.853  23.756   3.349
24861W        W90088  31.063   4.675   3.847
24862W        W90089  40.613   1.894   4.038
24863W        W90090  37.029  25.310  11.745
24864W        W90091  15.481  14.335  11.813
24865W        W90092  19.314  10.820   2.673
24866W        W90093  13.265  13.773  10.959
24867W        W90094  38.460  21.761   2.567
24868W        W90095  14.612  11.494   3.339
24869W        W90096   8.354  44.271   4.131
24870W        W90097   7.726   2.260   0.954
24871W        W90098  33.999  29.254  14.934
24872W        W90099  31.696  42.934   4.469
24873W        W90100  25.114  17.948  13.768
24874W        W90101   6.533  44.168   2.946
24875W        W90102  26.182  12.562   2.758
24876W        W90103  30.335  24.658  14.429
24877W        W90104  36.836  22.089  12.559
24878W        W90105  31.868  23.529   0.363
24879W        W90106  14.121  37.900  11.081
24880W        W90107  30.497  29.900  13.983
24881W        W90108  37.574   2.263  14.268
24882W        W90109   4.898  41.686  13.476
24883W        W90110  23.232   4.219   1.387
24884W        W90111   3.810  41.824   1.992
24885W        W90112  40.987   5.924   1.903
24886W        W90113   4.570  21.149   5.271
24887W        W90114  10.950   8.735  14.889
24888W        W90115  41.830   2.246  14.876
24889W        W90116  25.776  36.987   0.891
24890W        W90117  32.508  23.249  13.555
24891W        W90118  27.999  38.797   2.441
24892W        W90119  30.547  33.332  13.410
24893W        W90120  19.093  16.330  12.082
24894W        W90121   5.278  40.829   2.654
24895W        W90122  17.936  10.742   4.887
24896W        W90123  32.460  38.598   2.290
24897W        W90124  18.309  11.147  12.018
24898W        W90125  16.057  42.893  11.282
24899W        W90126   4.075  34.966   0.354
24900W        W90127  25.168  20.163  14.363
24901W        W90128  23.162  37.330   2.183
24902W        W90129  22.155  44.939  12.805
24903W        W90130  13.636  11.108  10.693
24904W        W90131  10.131  42.036   3.765
24905W        W90132  12.611  25.912  11.412
24906W        W90133   2.714   5.798   4.545
24907W        W90134   8.119  34.836  12.403
24908W        W90135  43.965  13.851   3.371
24909W        W90136  32.561  42.793   4.432
24910W        W90137  31.592  29.914   0.395
24911W        W90138   2.820  40.406  12.462
24912W        W90139  29.233  44.735  13.414
24913W        W90140  32.647  28.729  13.877
24914W        W90141   4.729   3.078  13.937
24915W        W90142  44.341  11.396   4.607
24916W        W90143  10.366  24.229  12.957
24917W        W90144  19.317  10.198  12.365
24918W        W90145  44.349   8.414   4.251
24919W        W90146  18.068  38.511  11.551
24920W        W90147  36.923  18.682   4.983
24921W        W90148  35.839  14.888  11.680
24922W        W90149  11.988   2.635   0.066
24923W        W90150  22.756  21.506  11.658
24924W        W90151  41.706  14.967  12.722
24925W        W90152   4.892  32.950   4.891
24926W        W90153  15.736  33.648   2.858
24927W        W90154  36.098  34.994   0.276
24928W        W90155  36.573  13.477  11.527
24929W        W90156  24.698  43.977  12.463
24930W        W90157   0.816   4.951   1.213
24931W        W90158  18.876  17.287  12.272
24932W        W90159   5.206  27.096  14.792
24933W        W90160  22.718  40.210   0.341
24934W        W90161   5.231  37.299   4.578
24935W        W90162  33.636  31.164  14.309
24936W        W90163  15.268   9.231  12.126
24937W        W90164  16.292  17.062  10.820
24938W        W90165   5.376  26.719  12.431
24939W        W90166  17.159  14.502  12.021
24940W        W90167  39.809  11.209  14.097
24941W        W90168  26.034  25.819   3.623
24942W        W90169   4.089  19.681  10.793
24943W        W90170  31.722  27.678  13.563
24944W        W90171  28.549  17.864   3.672
24945W        W90172  23.485  41.764   2.481
24946W        W90173  19.795  44.633   1.437
24947W        W90174  15.346  39.127  14.848
24948W        W90175  10.086   6.429   1.844
24949W        W90176  43.810  25.639  12.529
24950W        W90177   8.804  11.618  14.896
24951W        W90178  34.530  32.864  12.532
24952W        W90179  23.740   5.825   0.066
24953W        W90180  22.716  22.739  13.493
24954W        W90181   9.949   6.426  10.936
24955W        W90182  13.552  19.656  11.196
24956W        W90183  36.586  36.556   0.864
24957W        W90184   4.198  14.898  11.676
24958W        W90185  28.948  14.520  14.509
24959W        W90186  19.269  27.426   1.814
24960W        W90187   9.897  33.562   2.730
24961W        W90188  39.804  28.900   1.426
24962W        W90189   7.002  23.077  12.639
24963W        W90190  24.586  13.344   3.131
24964W        W90191   2.630   5.391  11.194
24965W        W90192  38.111   1.044  12.011
24966W        W90193  37.093   9.092  12.157
24967W        W90194  44.929  37.391   4.616
24968W        W90195  27.756  33.423   0.203
24969W        W90196  23.693  15.626  12.591
24970W        W90197  21.298  43.722  10.799
24971W        W90198   4.759  31.662  13.359
24972W        W90199  21.499  31.009   4.670
24973W        W90200  43.575  31.601   2.417
24974W        W90201  17.703  25.349   0.327
24975W        W90202  14.668  18.319   1.510
24976W        W90203  30.417  42.444   4.607
24977W        W90204  10.354  22.357   2.316
24978W        W90205  42.301  42.724  11.183
24979W        W90206  42.742   7.826   3.289
24980W        W90207  20.212   0.282  11.671
24981W        W90208   5.387  18.082  13.477
24982W        W90209   4.753  29.214  13.142
24983W        W90210  35.876   9.416   1.774
24984W        W90211  10.766  34.620  11.191
24985W        W90212  19.013  12.783   1.809
24986W        W90213   5.280  20.716  11.427
24987W        W90214  19.048  15.835  13.015
24988W        W90215  37.003  12.190   4.082
24989W        W90216   2.012  28.250   4.850
24990W        W90217  32.854  39.817  12.063
24991W        W90218  31.124  18.091  14.754
24992W        W90219  28.999  19.240   2.304
24993W        W90220  27.313  10.940  13.437
24994W        W90221  19.205  40.205   3.993
24995W        W90222  30.480  30.192   2.739
24996W        W90223   1.761  13.447   1.787
24997W        W90224  25.121  21.697  13.017
24998W        W90225  14.253  42.048   1.809
24999W        W90226  39.828  12.463  13.545
25000W        W90227  43.625  26.220  13.954
25001W        W90228  43.553  39.718   3.298
25002W        W90229  40.529  19.696   2.224
25003W        W90230  23.964  19.797   2.642
25004W        W90231  11.266   6.577   1.570
25005W        W90232   1.463  36.246   4.577
25006W        W90233  11.065  17.494  13.575
25007W        W90234  33.462   3.231   0.806
25008W        W90235  21.956   5.240  11.210
25009W        W90236  19.774  28.640   2.838
25010W        W90237  35.608  38.270   3.429
25011W        W90238  37.392  28.644   1.872
25012W        W90239  29.501   4.158   3.643
25013W        W90240  25.477  39.476  12.661
25014W        W90241   3.875  37.908  11.624
25015W        W90242  38.974  44.630   2.542
25016W        W90243  42.486  19.330  13.996
25017W        W90244  16.131  12.348   3.118
25018W        W90245   7.295  26.169   3.371
25019W        W90246  31.031   1.745   4.611
25020W        W90247  34.354  28.622   0.781
25021W        W90248  41.430  18.075  13.387
25022W        W90249  17.734  41.289  12.849
25023W        W90250  13.139   4.568  12.134
25024W        W90251  35.880  12.051   3.463
25025W        W90252  40.012  20.935   2.584
25026W        W90253  36.115  33.126   0.843
25027W        W90254  25.394   5.809  14.442
25028W        W90255  29.939  38.165  12.088
25029W        W90256  14.281  29.145   0.303
25030W        W90257  18.378   8.159   2.448
25031W        W90258   7.221   2.003  12.673
25032W        W90259  34.182  37.925  12.907
25033W        W90260  40.875  36.130   4.598
25034W        W90261   0.455  13.492  13.375
25035W        W90262  44.451  43.686   1.573
25036W        W90263   3.502  28.143  10.675
25037W        W90264  17.973  32.348  12.998
25038W        W90265  26.912  32.228   3.226
25039W        W90266  37.012   9.109   0.458
25040W        W90267   8.336  40.856   4.576
25041W        W90268  36.204  26.202   4.063
25042W        W90269  23.187   0.277  11.572
25043W        W90270  35.927  20.285   2.480
25044W        W90271  23.654  20.881   1.024
25045W        W90272  23.303  36.707  11.207
25046W        W90273   4.937  30.038  10.827
25047W        W90274  41.780   9.152   4.488
25048W        W90275  37.956  43.248   4.576
25049W        W90276  40.257  32.412  14.707
25050W        W90277  44.219  29.850  11.913
25051W        W90278  32.077   4.441   0.895
25052W        W90279   0.709  18.636  11.688
25053W        W90280  24.309  39.646  14.507
25054W        W90281  37.442  11.799  13.004
25055W        W90282  22.370  12.847   5.023
25056W        W90283  15.851   8.249   1.226
25057W        W90284  10.340  30.018   1.423
25058W        W90285  37.496  38.269  14.536
25059W        W90286  21.998  30.828   4.735
25060W        W90287  30.320  36.008   2.583
25061W        W90288  17.138   8.113  12.004
25062W        W90289   7.991  28.512   2.792
25063W        W90290   5.351  18.580  13.313
25064W        W90291  29.882  14.532   4.454
25065W        W90292  33.630   7.612  11.128
25066W        W90293  40.388  27.786  13.579
25067W        W90294   1.091  35.902   1.639
25068W        W90295  11.268  21.638   4.703
25069W        W90296  42.802  33.017  11.553
25070W        W90297  33.561  37.139  13.959
25071W        W90298   9.447  43.976   0.830
25072W        W90299  11.105  17.470  12.494
25073W        W90300   9.215   5.297   4.938
25074W        W90301  25.265   0.184   0.387
25075W        W90302   3.822   1.696   3.731
25076W        W90303  28.259  36.074  10.600
25077W        W90304  18.218  12.571   2.381
25078W        W90305  29.659   8.943  14.203
25079W        W90306  23.696  26.706   4.029
25080W        W90307  33.244  14.969  11.579
25081W        W90308   4.230  25.840  11.990
25082W        W90309  37.978  34.020   0.324
25083W        W90310  12.021  38.009   2.825
25084W        W90311   7.180  12.361  13.343
25085W        W90312   3.645  24.896  10.226
25086W        W90313   8.902  22.248   1.284
25087W        W90314   4.940  36.437   3.668
25088W        W90315  24.959  32.453   2.350
25089W        W90316  42.837  34.994   4.181
25090W        W90317  14.667  38.676   0.037
25091W        W90318  33.973   3.992  12.414
25092W        W90319  36.312   9.019   4.973
25093W        W90320  18.572  27.878   4.272
25094W        W90321  19.790  33.860  12.877
25095W        W90322  12.275   2.730   4.175
25096W        W90323  43.265  23.963  10.293
25097W        W90324  35.239  41.997  14.299
25098W        W90325  37.532  18.021  14.398
25099W        W90326   5.399   7.726   1.856
25100W        W90327   5.203  29.986   0.217
25101W        W90328  28.898  35.538   3.210
25102W        W90329  12.540   7.795  10.668
25103W        W90330  20.265  33.548  11.740
25104W        W90331  16.278   4.215   0.414
25105W        W90332  10.115  40.469   3.951
25106W        W90333  43.993  30.017  11.084
25107W        W90334   7.783  11.940  11.888
25108W        W90335  26.834  31.726  10.030
25109W        W90336  11.190  27.875   0.574
25110W        W90337  25.450  29.588  14.610
25111W        W90338  30.353  35.912   4.102
25112W        W90339  25.157   9.639   4.102
25113W        W90340  17.545  31.636   1.347
25114W        W90341  35.463  13.751   0.820
25115W        W90342  30.516  43.453  14.596
25116W        W90343  31.437  36.520   0.697
25117W        W90344  17.507  43.611  14.076
25118W        W90345  38.147  36.863  13.857
25119W        W90346  41.361  40.037   0.569
25120W        W90347  16.593  17.788  11.986
25121W        W90348   5.711  14.241  14.823
25122W        W90349  27.460  42.724   3.696
25123W        W90350  20.033  36.930  11.586
25124W        W90351  11.779  21.825  12.945
25125W        W90352  10.236  19.600  11.461
25126W        W90353  41.484  43.263   4.516
25127W        W90354  34.907  41.821   2.623
25128W        W90355  33.938  34.274  14.058
25129W        W90356  44.966  13.547   2.954
25130W        W90357  13.142  10.366   2.333
25131W        W90358  26.022  20.824   0.823
25132W        W90359  23.267  41.974   0.600
25133W        W90360  21.738  29.830   1.706
25134W        W90361   4.953  25.700  12.528
25135W        W90362  17.134  18.524   1.089
25136W        W90363  34.610  23.507  14.791
25137W        W90364  19.629  16.092   3.523
25138W        W90365  29.596  35.431  12.791
25139W        W90366  33.177  35.790  12.500
25140W        W90367   5.296   9.143  12.899
25141W        W90368  31.976   5.358   1.749
25142W        W90369   1.472   8.155   1.907
25143W        W90370  27.909  21.038   5.001
25144W        W90371  29.433  27.604  13.084
25145W        W90372  39.577  41.551   2.611
25146W        W90373  28.026   4.279   3.626
25147W        W90374  32.403  36.461   0.377
25148W        W90375  40.378  38.509   3.616
25149W        W90376   4.443   4.364  12.118
25150W        W90377  23.502  25.808  14.581
25151W        W90378  21.304  18.004  11.530
25152W        W90379  11.699  25.967  13.868
25153W        W90380  30.978  27.201   3.965
25154W        W90381  41.945   3.242   1.887
25155W        W90382  10.184  31.920   2.194
25156W        W90383  38.917  42.353  14.432
25157W        W90384  16.227  40.504   3.868
25158W        W90385  17.308  21.994   1.565
25159W        W90386   9.384  30.766   3.713
25160W        W90387  11.510  37.210   9.287
25161W        W90388  17.559  38.755   4.116
25162W        W90389  21.629  44.080  10.498
25163W        W90390  19.816  28.043  13.026
25164W        W90391  31.283  15.307  10.315
25165W        W90392  16.192  36.766  11.278
25166W        W90393  11.347  14.127  13.895
25167W        W90394  31.931   8.171  14.944
25168W        W90395  20.476  41.275  14.941
25169W        W90396  25.966  24.063   0.271
25170W        W90397  32.886  40.322  11.937
25171W        W90398  16.147  21.765   0.766
25172W        W90399  18.470   7.565   4.675
25173W        W90400   1.071  19.354  11.525
25174W        W90401   5.635  22.048   1.811
25175W        W90402  12.238   5.721   4.816
25176W        W90403  10.810  17.201   1.199
25177W        W90404  25.832   0.937   2.025
25178W        W90405  29.385  10.194   3.248
25179W        W90406   9.013   9.395   0.255
25180W        W90407  42.751   5.805  14.492
25181W        W90408  26.196   7.408   1.769
25182W        W90409  37.333  18.675   1.855
25183W        W90410   4.652  33.756  13.322
25184W        W90411  29.932  16.552  13.281
25185W        W90412  41.595  30.980  11.102
25186W        W90413  12.341  18.248  11.483
25187W        W90414   1.035   4.802   4.173
25188W        W90415  39.886  16.042  12.475
25189W        W90416  35.540  44.790   3.326
25190W        W90417  19.205  42.623   3.371
25191W        W90418  37.751  43.979  11.938
25192W        W90419  31.426  32.715   4.951
25193W        W90420  42.780  41.845  13.628
25194W        W90421  17.897  10.157   3.752
25195W        W90422  35.627  41.943   0.746
25196W        W90423  38.791  27.920   0.873
25197W        W90424  35.238  19.735   0.933
25198W        W90425  30.430   0.386  12.059
25199W        W90426  34.846  19.151  11.600
25200W        W90427  27.016  31.488  13.092
25201W        W90428  30.794  29.638  11.202
25202W        W90429   4.392  37.577  12.911
25203W        W90430  29.365   8.134  14.059
25204W        W90431   8.311   1.833  13.327
25205W        W90432  14.634  26.633  11.951
25206W        W90433  11.318  23.488  14.935
25207W        W90434  12.654  18.750   4.673
25208W        W90435  39.390   8.022   4.390
25209W        W90436   3.797  44.891   1.856
25210W        W90437  15.663  16.756  12.946
25211W        W90438  37.437  27.633  11.205
25212W        W90439  30.286  14.002  14.330
25213W        W90440   6.823  29.142   4.184
25214W        W90441  27.660   9.313  12.653
25215W        W90442  39.330   6.400   2.238
25216W        W90443   4.665  39.235  11.928
25217W        W90444  28.212  25.268   2.857
25218W        W90445  19.846  10.652  12.431
25219W        W90446  26.432   6.517   4.429
25220W        W90447  30.323  44.974   2.170
25221W        W90448  33.619   2.870   1.680
25222W        W90449   1.438  21.559  11.098
25223W        W90450  34.984   8.878  14.014
25224W        W90451   3.120   0.310  13.421
25225W        W90452  13.274   6.500   3.866
25226W        W90453  40.773  22.100  14.927
25227W        W90454  26.574  39.772  10.208
25228W        W90455  39.500  19.152   0.845
25229W        W90456  16.483  43.343  11.861
25230W        W90457   3.205   0.717   2.329
25231W        W90458  28.091  12.683  13.611
25232W        W90459  44.714  29.854  11.599
25233W        W90460   9.922   5.864  13.958
25234W        W90461  32.952  28.001   3.625
25235W        W90462   9.777   9.984  13.125
25236W        W90463   7.605  18.774   1.908
25237W        W90464  41.314  18.310   1.349
25238W        W90465   7.665  17.797  13.086
25239W        W90466  34.881  16.540  11.365
25240W        W90467   8.874   4.426  13.355
25241W        W90468   1.211  30.619   4.139
25242W        W90469  11.656  15.115  12.913
25243W        W90470  11.129  10.278   3.314
25244W        W90471  26.006  29.381  13.064
25245W        W90472  30.157  24.608   1.904
25246W        W90473   1.363  18.052  13.324
25247W        W90474  20.291  22.795  14.045
25248W        W90475  26.132  17.067  13.098
25249W        W90476  43.017  42.276  13.379
25250W        W90477  22.264   0.401  14.756
25251W        W90478   6.223  29.616  11.878
25252W        W90479  43.427  27.561   1.041
25253W        W90480  42.391  29.570   3.314
25254W        W90481  33.379   8.097   3.091
25255W        W90482  27.581  12.166  12.965
25256W        W90483  30.592   5.993   2.251
25257W        W90484  18.236  30.658   4.088
25258W        W90485  10.169  11.434  12.041
25259W        W90486  30.550   5.637  10.679
25260W        W90487  15.709  24.547  14.056
25261W        W90488  15.720  23.737  11.749
25262W        W90489  15.842  24.741  12.839
25263W        W90490  17.615  36.859   4.333
25264W        W90491   5.216  13.372  13.575
25265W        W90492  18.913  10.868   2.157
25266W        W90493   7.272  34.233  14.471
25267W        W90494  38.091   6.143   1.456
25268W        W90495   6.726  34.815   3.337
25269W        W90496  28.213  17.644   1.835
25270W        W90497  28.548  37.341  10.481
25271W        W90498   2.870  32.009  10.756
25272W        W90499  35.949  15.581  12.993
25273W        W90500   3.351  41.504   1.481
25274W        W90501  44.886  35.304  13.120
25275W        W90502   4.024   3.475   1.848
25276W        W90503  26.272  26.838  12.938
25277W        W90504   5.250   2.742   1.288
25278W        W90505  35.382  26.739   2.266
25279W        W90506  43.370  20.788   1.223
25280W        W90507  31.840  24.393  13.384
25281W        W90508  12.590  33.993   0.882
25282W        W90509  31.699  36.419   3.596
25283W        W90510  19.991  12.376  12.566
25284W        W90511   3.968   2.714  11.591
25285W        W90512  20.670   6.447   3.717
25286W        W90513   8.441  27.633  12.796
25287W        W90514  33.686  44.382   1.210
25288W        W90515  20.505  32.549   0.835
25289W        W90516   4.674  14.973   3.163
25290W        W90517  11.609  33.182   0.937
25291W        W90518  10.918  33.349  12.473
25292W        W90519  11.818   2.509   3.227
25293W        W90520  43.838  28.468   3.743
25294W        W90521  15.836  41.586   1.826
25295W        W90522  39.496  25.583  11.755
25296W        W90523  19.551  23.631   3.602
25297W        W90524   6.860  27.928  11.202
25298W        W90525  26.206  36.596  12.916
25299W        W90526  17.336  33.361   0.408
25300W        W90527  15.693  30.791   1.982
25301W        W90528   3.294  42.162  10.056
25302W        W90529  27.370   9.394  10.922
25303W        W90530  43.931  22.313   3.381
25304W        W90531   6.341   8.473  13.298
25305W        W90532  19.272  21.289   2.814
25306W        W90533   7.354  12.184   2.633
25307W        W90534  28.530  37.234   4.547
25308W        W90535  20.431  28.956   0.937
25309W        W90536  21.132  15.626   2.106
25310W        W90537  41.744  22.682   0.760
25311W        W90538   7.616   6.340   4.175
25312W        W90539  29.753  22.517   0.767
25313W        W90540  15.723   5.903  10.680
25314W        W90541   1.926  19.245  11.964
25315W        W90542  22.514  27.494   1.880
25316W        W90543  19.677   7.375  12.454
25317W        W90544   9.603  15.450  14.778
25318W        W90545  17.858  10.771  14.848
25319W        W90546  16.034   6.840   2.392
25320W        W90547  31.049  18.217  14.231
25321W        W90548  13.570  15.742  14.518
25322W        W90549  12.620  10.349  10.745
25323W        W90550  21.691  41.379  13.132
25324W        W90551   3.738  29.950   0.404
25325W        W90552  36.934  32.356   4.407
25326W        W90553  37.026  40.547   3.074
25327W        W90554  26.870  22.351  12.597
25328W        W90555  37.777  13.508  12.024
25329W        W90556  17.302  32.447  13.620
25330W        W90557  16.597  42.235   3.742
25331W        W90558  34.357  11.811   0.299
25332W        W90559   8.921  21.307   2.288
25333W        W90560  27.366  23.432   3.642
25334W        W90561   7.942  24.256  13.851
25335W        W90562  26.002  25.291  12.335
25336W        W90563  38.713  23.975  12.349
25337W        W90564  16.365  22.124   1.742
25338W        W90565  24.349   2.454   3.575
25339W        W90566  43.508   3.269  12.911
25340W        W90567  42.395  12.334   1.472
25341W        W90568  13.086  25.728   4.600
25342W        W90569  14.541   6.172  12.036
25343W        W90570  27.344   8.439   2.653
25344W        W90571  31.447  43.916  13.421
25345W        W90572   9.325   2.866  13.760
25346W        W90573  12.404  33.689  12.508
25347W        W90574  14.863   9.085  12.952
25348W        W90575  21.212  31.213   1.784
25349W        W90576  37.114   3.738   0.329
25350W        W90577  21.356  28.406  12.817
25351W        W90578   8.770  13.544  14.772
25352W        W90579  11.805  42.292  14.583
25353W        W90580  17.343  42.559  12.398
25354W        W90581   9.201   3.864  13.654
25355W        W90582  11.713  34.472  11.127
25356W        W90583  24.569  35.116  14.776
25357W        W90584   0.011  30.068  12.003
25358W        W90585  11.175   2.771   3.704
25359W        W90586   1.096  31.281  11.530
25360W        W90587  28.181  14.022   3.682
25361W        W90588  11.781  15.128   4.551
25362W        W90589   7.896  10.128   2.268
25363W        W90590  31.564   3.285   4.073
25364W        W90591  16.826   5.538  14.389
25365W        W90592   1.770  13.115  11.937
25366W        W90593  12.089  26.869  10.478
25367W        W90594  36.934  17.155  10.709
25368W        W90595  20.715  23.538   1.229
25369W        W90596  43.774  19.653  14.222
25370W        W90597   6.915  21.736   3.676
25371W        W90598  36.831  13.406  13.099
25372W        W90599  17.393  23.748   4.908
25373W        W90600  39.531  32.527  13.746
25374W        W90601  30.681   4.166   3.043
25375W        W90602  24.199   8.803  12.894
25376W        W90603   7.203   1.387  14.930
25377W        W90604  10.332  17.469  13.829
25378W        W90605   1.683  39.531  13.599
25379W        W90606  40.201   8.374  13.279
25380W        W90607  28.301  31.627  14.273
25381W        W90608  12.055  15.720  12.439
25382W        W90609  38.482  14.226  13.421
25383W        W90610  34.174  28.542   1.586
25384W        W90611   3.309  20.604   1.338
25385W        W90612  18.652  35.849  13.412
25386W        W90613  12.551  41.745   3.155
25387W        W90614   4.787  26.743   1.776
25388W        W90615  15.691  41.079   3.193
25389W        W90616   6.914  17.569  12.007
25390W        W90617   0.351   6.466   0.055
25391W        W90618   4.562  19.027   0.557
25392W        W90619  24.438  20.766  14.952
25393W        W90620  32.156  30.597   4.757
25394W        W90621  44.836  44.023  12.998
25395W        W90622  13.294   5.772   0.084
25396W        W90623   2.417  11.153   1.788
25397W        W90624   6.442  11.919   4.644
25398W        W90625   3.376   7.853   4.808
25399W        W90626  12.159  17.271   1.374
25400W        W90627  36.471  25.129   2.400
25401W        W90628  20.074   4.972  13.336
25402W        W90629  41.581   6.829  10.626
25403W        W90630  27.583  16.560   0.861
25404W        W90631  11.606  21.514  12.550
25405W        W90632  22.900  32.515   1.310
25406W        W90633  41.840   9.221  14.374
25407W        W90634  26.945  22.178  13.080
25408W        W90635  39.886  20.986   2.086
25409W        W90636  24.141  11.492  12.947
25410W        W90637   1.745  44.798  13.996
25411W        W90638   6.123  28.710  11.993
25412W        W90639  10.652  24.254  13.387
25413W        W90640  31.131  10.869   0.304
25414W        W90641  27.120  30.219  14.542
25415W        W90642  43.214  18.489   2.432
25416W        W90643  44.154  27.917   2.050
25417W        W90644   2.634  30.681  13.076
25418W        W90645  22.486   0.867   0.356
25419W        W90646  31.135  18.204   9.997
25420W        W90647   5.157   2.411   4.755
25421W        W90648  30.413  32.882  13.601
25422W        W90649   0.708  24.093  13.030
25423W        W90650  40.433   5.698  14.976
25424W        W90651  33.976  21.689  13.501
25425W        W90652  11.805   0.436  10.497
25426W        W90653   3.344   9.676   2.328
25427W        W90654  32.002  20.777  12.023
25428W        W90655  32.987  20.844   0.461
25429W        W90656  41.307  27.892  11.172
25430W        W90657  40.120  15.608  11.167
25431W        W90658  41.913  19.058   2.954
25432W        W90659  12.459  15.184  14.045
25433W        W90660  38.076  39.502   1.929
25434W        W90661  24.803   5.117   3.211
25435W        W90662  16.833  13.714  12.223
25436W        W90663  26.087  31.437  14.626
25437W        W90664  31.363  22.993  11.148
25438W        W90665  23.615  37.622   2.222
25439W        W90666  14.275  42.552  10.553
25440W        W90667  30.634   9.781  12.987
25441W        W90668   5.266  10.942  12.502
25442W        W90669  35.407  15.844   0.836
25443W        W90670  27.156  25.028  12.892
25444W        W90671   3.458   6.769   2.844
25445W        W90672  20.087   2.842   2.830
25446W        W90673  13.913  31.669  11.590
25447W        W90674   5.794  32.450  10.682
25448W        W90675  13.130  44.677  12.934
25449W        W90676  32.098  44.783   3.509
25450W        W90677  13.290  34.458  14.546
25451W        W90678   5.640  33.406   1.419
25452W        W90679  39.823  10.957  10.753
25453W        W90680  43.265  11.871   1.271
25454W        W90681  39.141  20.899   3.319
25455W        W90682  14.327  29.474   2.128
25456W        W90683  41.766  35.434   4.983
25457W        W90684  38.234  32.244   4.080
25458W        W90685  19.073  14.014   3.608
25459W        W90686  27.729  20.081  13.507
25460W        W90687  38.859  22.707  12.613
25461W        W90688   5.826  13.694   4.002
25462W        W90689  29.073  40.729  14.483
25463W        W90690   0.545  41.228   2.160
25464W        W90691  10.873  29.071  10.577
25465W        W90692  15.649  21.627   3.789
25466W        W90693   5.800  18.198  13.805
25467W        W90694   9.822  17.734   1.873
25468W        W90695  27.274  42.950  12.854
25469W        W90696   4.827  14.386  12.061
25470W        W90697  34.517  26.209   3.556
25471W        W90698   5.935  23.966   2.661
25472W        W90699   1.870  14.115   3.589
25473W        W90700   7.588   3.097  11.671
25474W        W90701  38.837   2.956  13.573
25475W        W90702   7.943  18.058   3.354
25476W        W90703  29.583   7.291   3.349
25477W        W90704  22.976  39.478   2.703
25478W        W90705  29.945  16.512   3.240
25479W        W90706  24.105  13.734   3.662
25480W        W90707  35.344  33.957  12.960
25481W        W90708   9.656  12.345   2.803
25482W        W90709  17.342  27.556  13.321
25483W        W90710   5.967  26.345   4.201
25484W        W90711  36.810  26.049  10.610
25485W        W90712   6.884  30.002   3.358
25486W        W90713  19.594  10.564  14.915
25487W        W90714  27.525  34.446  12.477
25488W        W90715  44.365   6.005   9.984
25489W        W90716  16.580   8.815  12.583
25490W        W90717  38.029  20.433  14.225
25491W        W90718   5.236  20.218  11.602
25492W        W90719   4.471  35.536  11.119
25493W        W90720  24.880  42.195  12.490
25494W        W90721  34.019  32.509   4.801
25495W        W90722  34.060   9.740  11.515
25496W        W90723  31.623   1.426  10.717
25497W        W90724   8.304  23.681  10.703
25498W        W90725   5.615  21.797  13.447
25499W        W90726  18.829  11.489   4.254
25500W        W90727  17.948  31.887  14.728
25501W        W90728  22.476  21.663  14.531
25502W        W90729  38.490   8.411   3.092
25503W        W90730  20.799   8.899  10.884
25504W        W90731  22.707  26.958   0.537
25505W        W90732  11.242   2.198  13.164
25506W        W90733  14.809  38.337  11.002
25507W        W90734   4.257  17.877  10.946
25508W        W90735   0.056  13.295   3.535
25509W        W90736  44.023   1.961  13.821
25510W        W90737  20.274  29.203  14.109
25511W        W90738   4.319  23.490  14.589
25512W        W90739  29.999   5.453   1.273
25513W        W90740  30.178  28.996  11.929
25514W        W90741   7.756  15.908   2.600
25515W        W90742  16.094   6.853   4.045
25516W        W90743  35.035  28.164  14.805
25517W        W90744  36.545  41.090   2.166
25518W        W90745  37.088  13.294  11.530
25519W        W90746  25.632  30.501   0.393
25520W        W90747   5.412  34.410   3.377
25521W        W90748  31.671   0.325   2.849
25522W        W90749   6.144  35.529   0.059
25523W        W90750  18.826  26.196  11.427
25524W        W90751  37.075  17.361   4.405
25525W        W90752  40.306  41.503  13.119
25526W        W90753   0.944  18.986   0.750
25527W        W90754  32.312  43.981  12.332
25528W        W90755  28.240   3.416   0.508
25529W        W90756  42.370  15.070  14.800
25530W        W90757  38.826   4.032   1.004
25531W        W90758  42.023   3.094  12.176
25532W        W90759  44.901   1.127  10.525
25533W        W90760  31.092   9.346   0.569
25534W        W90761  26.609   8.710  10.131
25535W        W90762  44.789  35.594   4.512
25536W        W90763   1.893  32.330  11.164
25537W        W90764  37.929   1.146  11.546
25538W        W90765   4.855   0.180  11.117
25539W        W90766  36.837  26.883   0.970
25540W        W90767  18.295  16.802  12.987
25541W        W90768  21.009   0.833   1.274
25542W        W90769  15.772   0.179  12.548
25543W        W90770   6.017   9.332   2.506
25544W        W90771  11.393  29.646   4.505
25545W        W90772  36.093  38.760  14.921
25546W        W90773  15.650  15.900  12.171
25547W        W90774   2.352  20.138  11.624
25548W        W90775  29.303  35.738  11.586
25549W        W90776  21.203  37.899  13.124
25550W        W90777  41.629  40.473   5.097
25551W        W90778  43.229  34.153  14.834
25552W        W90779  24.457   6.372  12.537
25553W        W90780  24.201  25.941   2.410
25554W        W90781  22.387   1.567   3.494
25555W        W90782  32.949  25.272   1.692
25556W        W90783  28.984  38.066  10.744
25557W        W90784  33.108  20.949  13.819
25558W        W90785  37.104  20.282   2.640
25559W        W90786  38.567  26.708  12.079
25560W        W90787   0.775  35.605   1.317
25561W        W90788  11.100  12.323   0.111
25562W        W90789  41.711  38.594  11.786
25563W        W90790  30.506  20.646   0.101
25564W        W90791   0.000  28.147  11.176
25565W        W90792  11.657  28.254  13.870
25566W        W90793  43.761  17.306  14.914
25567W        W90794  10.445  12.975  11.964
25568W        W90795  15.504  11.764  12.055
25569W        W90796  30.491  30.907  11.730
25570W        W90797  20.744  38.891   2.199
25571W        W90798  15.028  38.022  12.882
25572W        W90799  26.211   9.160   2.159
25573W        W90800  11.695  42.244   0.484
25574W        W90801   9.240  16.798  14.828
25575W        W90802  36.614   7.140   4.908
25576W        W90803  14.574  35.024  12.919
25577W        W90804  19.734  30.559  10.735
25578W        W90805   9.336  12.936  14.846
25579W        W90806  41.994  12.199  13.020
25580W        W90807  44.457  32.615   3.281
25581W        W90808  16.693  33.951   3.592
25582W        W90809   7.299  30.374   3.690
25583W        W90810  32.109  23.173   1.786
25584W        W90811  30.896  29.451  14.838
25585W        W90812  22.238  10.838   2.737
25586W        W90813   9.427  39.560   0.779
25587W        W90814   2.465  17.518  13.100
25588W        W90815  20.091   2.824  10.550
25589W        W90816  22.046  21.849  14.265
25590W        W90817  30.260  34.108   5.053
25591W        W90818  12.024  42.988   3.888
25592W        W90819  19.866   7.706  13.396
25593W        W90820  39.776  23.247  14.835
25594W        W90821  16.599  25.690   2.666
25595W        W90822   7.040  38.749   2.789
25596W        W90823   4.228  15.632   3.300
25597W        W90824  26.316  24.148  12.926
25598W        W90825  18.589  36.021   4.269
25599W        W90826   6.164  14.125  12.504
25600W        W90827  22.740   6.311   2.656
25601W        W90828   6.184   2.310  12.010
25602W        W90829   8.790  39.151  14.123
25603W        W90830  22.173  31.425   0.206
25604W        W90831   6.744  44.279  12.182
25605W        W90832  18.458  38.929  12.733
25606W        W90833  18.150  10.212   2.764
25607W        W90834   8.927  11.957  11.904
25608W        W90835   5.490  16.730   2.355
25609W        W90836  36.064  28.159  12.558
25610W        W90837  31.186  32.898  13.967
25611W        W90838  28.682  39.851   1.819
25612W        W90839  10.702  20.284   0.434
25613W        W90840  28.678  37.405   0.739
25614W        W90841  17.276   4.469  11.198
25615W        W90842  15.892  28.425   2.258
25616W        W90843  28.059  44.912  13.016
25617W        W90844   3.155  35.848  13.573
25618W        W90845  35.415  11.869   2.637
25619W        W90846  15.841  25.691  12.626
25620W        W90847   6.919  38.415   0.251
25621W        W90848  34.574  35.468  11.213
25622W        W90849  37.330   1.414   0.592
25623W        W90850  12.270  30.699   3.123
25624W        W90851   0.218  24.188  13.834
25625W        W90852   5.226  21.521   3.122
25626W        W90853  24.562   3.046   3.102
25627W        W90854  16.184  34.820   1.896
25628W        W90855  39.322   4.678  12.345
25629W        W90856  42.920   6.416  12.219
25630W        W90857  23.162  28.703   4.905
25631W        W90858   4.747  33.633  12.420
25632W        W90859  21.250   6.798  13.774
25633W        W90860  34.350  31.111  12.093
25634W        W90861  12.549  32.126  13.062
25635W        W90862  13.802   1.270   1.682
25636W        W90863   1.310  25.471   4.133
25637W        W90864   4.737  37.816   0.766
25638W        W90865  26.147  21.664   4.236
25639W        W90866  22.121  37.907   1.885
25640W        W90867  24.176  17.736  12.053
25641W        W90868  12.268  25.575  14.951
25642W        W90869   9.433  31.985   0.330
25643W        W90870  20.674  42.851  14.271
25644W        W90871   9.742   0.462  10.668
25645W        W90872   7.069  27.979  14.353
25646W        W90873  40.330  10.657   0.932
25647W        W90874  11.065  32.601  14.708
25648W        W90875   9.423  36.034  12.886
25649W        W90876  37.569  15.421  11.136
25650W        W90877  19.103  26.360  12.474
25651W        W90878  12.833  23.114   1.968
25652W        W90879  26.053  44.399   4.037
25653W        W90880  38.045  16.816  11.665
25654W        W90881  34.460  37.090  13.886
25655W        W90882  33.698  24.637   0.909
25656W        W90883   2.534  22.248   0.690
25657W        W90884  10.763   7.902   1.670
25658W        W90885  13.086  44.335   3.745
25659W        W90886  34.794  34.504   0.302
25660W        W90887   6.722  38.950  10.797
25661W        W90888  27.223  27.023   4.100
25662W        W90889   6.785  40.862  12.099
25663W        W90890  38.975  28.553  12.357
25664W        W90891  25.233  34.320  11.106
25665W        W90892  16.529  43.951   2.237
25666W        W90893   3.874  15.763   2.199
25667W        W90894  35.445  43.242   4.085
25668W        W90895  23.549  20.443  11.168
25669W        W90896   2.344  10.748  14.327
25670W        W90897  41.319   7.436  14.878
25671W        W90898  16.328  19.205  13.841
25672W        W90899  23.114  34.767   3.339
25673W        W90900   7.158   2.863  12.469
25674W        W90901  24.257  20.318  11.449
25675W        W90902   7.227   3.251  14.490
25676W        W90903  30.010  35.366   3.327
25677W        W90904  16.700  37.443  10.868
25678W        W90905   3.921   7.966   0.752
25679W        W90906  40.934  33.792  13.837
25680W        W90907  41.606  30.739   3.314
25681W        W90908  40.298   4.833  12.786
25682W        W90909  44.443  36.549  11.056
25683W        W90910  43.216  36.920   4.696
25684W        W90911  44.719  26.462   1.208
25685W        W90912  44.631  43.869  10.568
25686W        W90913  39.623   8.250   2.186
25687W        W90914  34.216  34.905   4.098
25688W        W90915  35.568  20.109  11.920
25689W        W90916  12.758  25.125  10.810
25690W        W90917  11.424   6.229  13.237
25691W        W90918  40.777   0.986  11.566
25692W        W90919  13.798   8.790   1.736
25693W        W90920  35.625  17.412   2.865
25694W        W90921  10.610  14.593   4.382
25695W        W90922  27.567  20.521  11.562
25696W        W90923  34.792  15.787  13.459
25697W        W90924  35.030  18.963   0.105
25698W        W90925   7.873   8.241   4.586
25699W        W90926  27.917  31.012   0.480
25700W        W90927  35.307   8.655  11.174
25701W        W90928  25.542  19.793   4.585
25702W        W90929  20.913  17.288   1.870
25703W        W90930  35.057   0.443  13.853
25704W        W90931  17.254  16.780   2.019
25705W        W90932  16.811  44.076   4.968
25706W        W90933  32.045  33.818  13.863
25707W        W90934  16.174  33.934  14.952
25708W        W90935   4.870  11.233  14.912
25709W        W90936  36.499  23.760  13.410
25710W        W90937  23.097   6.272  10.953
25711W        W90938  35.385  21.238   4.260
25712W        W90939  17.587  33.923   1.219
25713W        W90940  27.726  39.334  13.716
25714W        W90941   9.593  35.098   3.307
25715W        W90942  17.719  34.826  13.767
25716W        W90943  21.274  17.176   3.237
25717W        W90944  23.271  42.381   1.301
25718W        W90945   4.201   3.663  11.666
25719W        W90946  11.469  33.399  14.778
25720W        W90947  20.735  44.209   4.981
25721W        W90948  25.952  13.385  13.587
25722W        W90949  15.556  23.084  14.494
25723W        W90950  25.293  18.211  11.021
25724W        W90951  37.388  34.306   3.284
25725W        W90952  22.423   9.968   4.653
25726W        W90953  25.740  25.275   1.315
25727W        W90954   5.931  10.905   2.321
25728W        W90955  32.161   0.926   0.914
25729W        W90956  21.288  40.758  13.090
25730W        W90957  37.501  29.575  10.534
25731W        W90958  23.609   4.876   2.699
25732W        W90959  41.827   6.300   0.306
25733W        W90960  15.758  21.801  14.367
25734W        W90961  26.704  40.033  14.447
25735W        W90962  11.901   3.713  11.643
25736W        W90963  43.391  25.751  12.861
25737W        W90964   9.428  21.852  12.101
25738W        W90965  37.966  41.696  11.975
25739W        W90966  31.321  32.028   3.001
25740W        W90967   3.768  40.850   0.384
25741W        W90968  30.473  35.480  14.877
25742W        W90969  18.212  20.996  10.803
25743W        W90970  38.678  42.558  11.407
25744W        W90971  40.675  24.813  10.445
25745W        W90972  28.424  29.874   2.669
25746W        W90973  27.649  14.370  14.001
25747W        W90974  27.796   5.702  14.240
25748W        W90975  30.686  15.625   1.324
25749W        W90976  37.569  19.208  14.391
25750W        W90977  17.331  18.055  10.376
25751W        W90978  31.571  42.863   0.754
25752W        W90979  18.313   3.490   2.959
25753W        W90980  31.308  41.271  11.499
25754W        W90981  15.722  12.908  11.642
25755W        W90982  34.213   5.905  14.318
25756W        W90983  18.679   8.832   2.115
25757W        W90984  31.494  17.274   0.724
25758W        W90985  39.891  43.065   2.918
25759W        W90986  32.885   1.794   2.707
25760W        W90987  28.055  11.224   0.761
25761W        W90988   2.530  41.412  14.020
25762W        W90989   6.937  12.840  14.899
25763W        W90990   0.851  38.748  12.367
25764W        W90991   9.865  26.114   4.201
25765W        W90992  36.726  27.548  14.791
25766W        W90993  16.712  12.355   0.417
25767W        W90994  39.955  30.457  12.108
25768W        W90995  39.289  26.611  14.939
25769W        W90996  22.557  28.690  12.571
25770W        W90997   5.251  26.222   2.743
25771W        W90998   2.937  29.130   3.276
25772W        W90999  17.764  12.614   2.837
25773W        W91000  18.574  17.033   1.706
25774W        W91001  34.949  16.194  12.080
25775W        W91002  33.613   0.475   4.168
25776W        W91003  35.673  35.285   0.955
25777W        W91004   0.012   2.335  11.112
25778W        W91005  41.523  35.028  14.748
25779W        W91006  17.172   5.418  12.963
25780W        W91007   7.143  36.101   2.215
25781W        W91008  40.422  25.138  14.412
25782W        W91009  18.059  34.648  14.315
25783W        W91010  38.428  13.552   2.202
25784W        W91011   2.676  44.654  12.917
25785W        W91012  35.030   0.954  10.977
25786W        W91013  32.586  17.032   2.252
25787W        W91014  20.168  22.407  13.075
25788W        W91015  10.916  22.091   2.892
25789W        W91016  29.558  28.697   0.815
25790W        W91017   1.000  24.530  12.949
25791W        W91018  17.134  24.191  12.914
25792W        W91019  17.976   2.722  14.308
25793W        W91020   1.808  13.413  12.382
25794W        W91021   3.185  21.172  12.398
25795W        W91022   9.099  33.023   3.786
25796W        W91023   5.995  15.129   1.558
25797W        W91024  14.028  33.412   1.869
25798W        W91025  40.333   3.060   3.595
25799W        W91026   0.826   3.425   0.483
25800W        W91027  21.904   5.111   1.701
25801W        W91028  16.218  23.652  10.428
25802W        W91029  30.905  12.095  10.620
25803W        W91030  11.174   7.341  14.372
25804W        W91031  20.838  29.493   4.076
25805W        W91032   0.428  31.023   3.879
25806W        W91033  27.985  24.314  11.176
25807W        W91034   0.515   5.420   1.169
25808W        W91035  24.720  18.152  14.023
25809W        W91036  16.822   4.184  14.776
25810W        W91037  18.813  17.608  10.698
25811W        W91038  42.434  35.882  13.121
25812W        W91039  35.999  31.800   5.082
25813W        W91040   2.062  40.977  10.708
25814W        W91041  13.022  37.896  14.128
25815W        W91042   8.627  17.362  13.011
25816W        W91043  21.064  41.475   3.234
25817W        W91044  40.866  40.999   3.681
25818W        W91045  21.386   4.215   5.425
25819W        W91046  38.632  17.550   2.386
25820W        W91047  14.037   8.726   2.771
25821W        W91048  30.764  27.577  11.234
25822W        W91049  12.523  12.300  14.980
25823W        W91050  40.847  27.203   2.832
25824W        W91051  11.729  16.361  11.153
25825W        W91052  18.195  28.798   3.222
25826W        W91053  20.780  44.896  14.386
25827W        W91054  11.146   8.337   2.669
25828W        W91055  29.374  11.541  13.384
25829W        W91056   8.887  19.475   1.627
25830W        W91057  20.456  23.469  11.210
25831W        W91058  31.858  43.582   1.760
25832W        W91059  24.029  39.861   2.202
25833W        W91060  16.747  34.023  14.042
25834W        W91061  13.261  17.866   1.380
25835W        W91062  24.141   5.962   3.237
25836W        W91063  21.285  22.043   4.262
25837W        W91064   6.955  37.413  11.079
25838W        W91065  32.508  22.948   4.094
25839W        W91066  40.260  44.139   2.349
25840W        W91067  30.981  22.981   0.595
25841W        W91068  30.981   1.502  12.447
25842W        W91069  26.514  12.502  13.857
25843W        W91070  36.477  39.117  14.605
25844W        W91071  37.386  31.144   4.849
25845W        W91072  10.705   6.045   4.150
25846W        W91073  44.955  17.246   3.733
25847W        W91074  15.443  35.005  12.497
25848W        W91075  24.601   3.920   3.768
25849W        W91076  44.289   9.542   4.196
25850W        W91077  10.836  18.106   3.279
25851W        W91078  39.376  31.296   0.869
25852W        W91079  20.515   8.174   4.016
25853W        W91080   2.926  20.137   2.233
25854W        W91081  10.337   2.994  14.349
25855W        W91082  34.382  25.119  13.064
25856W        W91083  10.666  34.680   4.455
25857W        W91084  34.438   3.622  14.259
25858W        W91085  23.839  10.489  11.161
25859W        W91086   0.645  25.480   1.565
25860W        W91087   6.791  32.576  12.974
25861W        W91088  39.298  34.495  10.311
25862W        W91089   0.943  18.141   3.750
25863W        W91090  41.238   4.376   0.338
25864W        W91091  26.762   5.868  12.625
25865W        W91092   9.227  10.659  11.621
25866W        W91093  29.043  15.455   0.687
25867W        W91094  32.151  34.019  10.328
25868W        W91095  27.870   9.519   0.226
25869W        W91096  12.930  42.848  14.722
25870W        W91097  37.845  33.075   4.027
25871W        W91098  40.976  16.968  13.446
25872W        W91099  28.029  31.574   0.790
25873W        W91100  35.744  44.061   1.258
25874W        W91101  18.212  41.031  11.097
25875W        W91102  19.926   3.948   3.855
25876W        W91103  41.483  23.679  12.874
25877W        W91104  43.552   7.195  10.016
25878W        W91105  34.143  36.326   1.360
25879W        W91106  43.292   8.670  13.529
25880W        W91107  36.353  11.494  12.277
25881W        W91108  18.449   7.251   1.961
25882W        W91109  12.115  35.693  12.560
25883W        W91110  44.081  40.282   1.281
25884W        W91111  28.563   8.890  10.579
25885W        W91112  31.390  27.536   2.144
25886W        W91113  17.335  20.174   0.138
25887W        W91114  31.996  12.870   3.263
25888W        W91115   0.852  16.989   2.402
25889W        W91116  22.200   8.136  13.451
25890W        W91117  43.136  13.304   4.731
25891W        W91118  31.615   6.307   4.157
25892W        W91119  24.492  32.089  12.097
25893W        W91120  35.287   1.357  14.863
25894W        W91121  13.860  22.439  11.591
25895W        W91122  34.534   3.704   2.386
25896W        W91123  25.162   6.132  13.578
25897W        W91124  16.112   3.326  11.758
25898W        W91125   9.663   0.832  13.439
25899W        W91126  17.987   7.039   1.913
25900W        W91127  40.306   7.022  13.377
25901W        W91128  40.984  14.356  12.420
25902W        W91129  31.542  41.189  12.882
25903W        W91130  31.838  44.724   2.157
25904W        W91131  11.183   5.186   0.308
25905W        W91132  44.296  36.636  14.704
25906W        W91133  36.089   8.294   3.233
25907W        W91134   1.774  40.492  11.367
25908W        W91135  32.580  29.602  14.383
25909W        W91136  27.532   2.975   2.679
25910W        W91137   3.937  10.600  14.577
25911W        W91138  27.458  44.225  13.468
25912W        W91139  20.544   4.338  10.636
25913W        W91140  40.430  38.645  11.775
25914W        W91141  21.760  12.257  13.965
25915W        W91142  20.204   8.282   4.856
25916W        W91143  31.259  14.565  13.660
25917W        W91144   7.954  11.801   4.454
25918W        W91145  21.378  12.469   0.448
25919W        W91146  17.626  38.159  13.099
25920W        W91147  19.204  43.272  14.866
25921W        W91148   5.647   1.885  13.995
25922W        W91149  31.176  25.507   2.659
25923W        W91150  21.291  17.683  10.639
25924W        W91151  19.233  41.444  12.044
25925W        W91152   1.469  11.234  11.232
25926W        W91153   8.983  14.632  12.416
25927W        W91154  10.206  39.404  12.580
25928W        W91155  42.435  34.813  14.988
25929W        W91156  14.588  29.936   1.807
25930W        W91157   3.764   3.926  13.583
25931W        W91158  41.563   1.865   2.929
25932W        W91159   3.486  43.510   1.900
25933W        W91160   0.392   2.990  13.053
25934W        W91161  10.464  11.258  14.476
25935W        W91162   7.069  22.249   0.453
25936W        W91163  33.168   9.869  14.724
25937W        W91164   3.456  25.025  12.043
25938W        W91165  30.424  11.707   3.753
25939W        W91166  14.677   4.395  14.462
25940W        W91167   6.207  20.095  12.891
25941W        W91168  43.774  33.205   2.331
25942W        W91169  33.954  11.603  11.195
25943W        W91170  27.017  42.911   3.533
25944W        W91171  16.671  38.691  12.470
25945W        W91172  13.990  27.178   1.913
25946W        W91173  34.130  27.201  14.950
25947W        W91174  22.910  37.758  11.579
25948W        W91175  43.993  18.580  12.876
25949W        W91176   4.272  14.741   5.436
25950W        W91177  11.307  41.991  11.701
25951W        W91178  30.999  41.046   1.778
25952W        W91179  24.619  14.273  12.931
25953W        W91180  26.238  32.309  10.655
25954W        W91181   9.921  44.207   0.736
25955W        W91182  20.820  33.598  13.332
25956W        W91183  43.366   0.942  12.491
25957W        W91184  13.534   0.814  14.059
25958W        W91185  41.664  11.780   1.730
25959W        W91186  23.726  37.249  10.501
25960W        W91187  16.226   2.440   0.987
25961W        W91188  13.110   9.316   1.824
25962W        W91189  31.112  17.891  12.065
25963W        W91190  13.800  33.245  10.357
25964W        W91191  26.174  30.232   2.794
25965W        W91192  17.700   3.864  10.698
25966W        W91193   1.440   4.677  14.681
25967W        W91194  20.443   9.817  14.242
25968W        W91195  32.992  14.797   0.794
25969W        W91196  43.359  30.419  10.793
25970W        W91197  39.425  18.385   3.700
25971W        W91198  33.188   4.367   4.172
25972W        W91199  11.275  43.803  12.452
25973W        W91200  31.062  19.580   4.581
25974W        W91201  21.787  29.533   4.348
25975W        W91202  12.369  12.849   4.459
25976W        W91203  18.264   2.870   2.287
25977W        W91204  33.936  32.925  14.440
25978W        W91205  42.886  28.147   4.656
25979W        W91206   5.399  44.483   4.524
25980W        W91207  17.001  19.341  12.498
25981W        W91208   5.300   8.739   4.818
25982W        W91209  34.673  33.529  14.287
25983W        W91210  30.442  29.177  14.425
25984W        W91211  17.648  41.596  11.323
25985W        W91212   5.808  38.913  14.854
25986W        W91213  38.172  29.069  14.011
25987W        W91214   7.637  26.496   2.841
25988W        W91215  40.602  28.034   1.887
25989W        W91216  33.553  24.565  10.262
25990W        W91217   0.511   3.829  12.124
25991W        W91218   5.907  13.818  13.340
25992W        W91219  38.476  43.946  11.078
25993W        W91220  33.861  44.196  14.979
25994W        W91221  43.754  27.026  11.660
25995W        W91222  38.797  38.677   1.841
25996W        W91223  22.635  27.724  10.982
25997W        W91224   8.845  26.008   0.239
25998W        W91225  40.661   5.024  12.488
25999W        W91226   4.791  25.285   4.361
26000W        W91227   1.510  11.589   1.795
26001W        W91228  10.146  41.244   1.318
26002W        W91229  19.783  21.576   0.401
26003W        W91230  16.194  30.753   2.400
26004W        W91231  28.267  14.715   9.955
26005W        W91232  43.226  21.265   4.572
26006W        W91233   5.613  27.573  14.177
26007W        W91234  10.331   3.980   2.651
26008W        W91235  13.031  33.543   0.846
26009W        W91236   1.293  25.189   1.490
26010W        W91237  19.013   1.990  11.141
26011W        W91238  39.118  24.285  12.807
26012W        W91239  23.815  31.580  13.432
26013W        W91240  27.857  42.978   2.522
26014W        W91241  35.083   0.434   2.854
26015W        W91242  27.547  36.486  13.291
26016W        W91243  18.264   2.697   0.630
26017W        W91244  34.371  19.453   1.242
26018W        W91245  12.581  31.815  13.912
26019W        W91246  27.582  27.460  11.779
26020W        W91247  25.606  21.534  12.737
26021W        W91248   3.290  27.375   3.340
26022W        W91249  28.667  20.379   4.657
26023W        W91250  11.122  23.608  12.108
26024W        W91251  32.984  25.336   2.211
26025W        W91252  17.200  35.149   2.430
26026W        W91253  10.817  13.829  14.435
26027W        W91254  33.124  35.925  14.835
26028W        W91255  23.083  35.085   4.964
26029W        W91256  17.013  39.535   1.786
26030W        W91257   7.826  33.641  13.830
26031W        W91258  36.369  38.784   1.434
26032W        W91259  25.158  33.309  14.396
26033W        W91260  20.022  22.279   0.083
26034W        W91261  35.119  26.410   4.598
26035W        W91262  20.180  11.335  10.715
26036W        W91263  21.588  11.114   4.806
26037W        W91264   0.862  12.357  14.729
26038W        W91265  28.662  42.412   4.494
26039W        W91266  25.005  39.815   1.267
26040W        W91267  15.064  24.112   1.677
26041W        W91268   5.266  44.769   1.464
26042W        W91269  36.449  41.133  13.010
26043W        W91270  24.683  29.134  13.313
26044W        W91271  42.182  42.015  11.575
26045W        W91272  23.543  33.581   4.300
26046W        W91273  32.591  43.450  13.584
26047W        W91274  20.765   0.946  12.511
26048W        W91275   0.591  22.801  10.658
26049W        W91276  35.384  12.603   2.136
26050W        W91277  15.787  40.922  14.754
26051W        W91278  27.005  23.628   2.423
26052W        W91279  31.608  11.526  14.580
26053W        W91280   6.985  16.102   0.868
26054W        W91281  40.651  44.828   1.614
26055W        W91282  16.024  42.803   3.285
26056W        W91283   8.885  21.948   0.018
26057W        W91284   7.924  15.212   4.217
26058W        W91285  36.803  20.571  12.511
26059W        W91286   4.761  31.243   0.289
26060W        W91287  18.164  44.779  10.705
26061W        W91288  19.720  33.133  13.869
26062W        W91289  31.106  44.904   1.742
26063W        W91290  26.790   0.814   1.179
26064W        W91291  23.768  15.334   1.741
26065W        W91292  24.576  28.565   0.041
26066W        W91293  43.751  37.622   0.463
26067W        W91294   0.383  37.415   2.691
26068W        W91295   9.277  10.176  12.886
26069W        W91296  44.099  27.045  11.271
26070W        W91297   5.990  40.855  11.570
26071W        W91298  33.151  13.155   2.329
26072W        W91299   9.281  40.087   0.737
26073W        W91300  20.008  37.314   1.870
26074W        W91301  22.031  22.224   0.076
26075W        W91302  39.322  43.593  10.888
26076W        W91303  39.676  33.201   2.727
26077W        W91304  12.293  17.168  10.681
26078W        W91305  20.339  19.810  13.589
26079W        W91306   5.204  14.261  14.815
26080W        W91307   9.142  31.386  10.490
26081W        W91308  39.279  42.243   0.433
26082W        W91309  42.128  43.948   0.514
26083W        W91310  38.026   5.434   2.189
26084W        W91311  30.946  43.459  14.312
26085W        W91312  22.251  42.091   4.124
26086W        W91313   9.388  18.504   0.296
26087W        W91314  14.821  18.853  12.884
26088W        W91315  38.205  26.146  11.305
26089W        W91316  26.243  34.980  13.420
26090W        W91317  11.187  29.116   0.939
26091W        W91318  10.739  10.651   4.491
26092W        W91319   7.958  19.815  13.353
26093W        W91320  32.424  29.644   1.241
26094W        W91321   9.865  23.494  11.620
26095W        W91322  44.596  10.737  12.410
26096W        W91323  42.961  28.394  11.975
26097W        W91324  31.207  20.265   3.321
26098W        W91325  22.040  42.824   3.639
26099W        W91326  26.466  42.971   4.945
26100W        W91327   6.593  25.679   2.321
26101W        W91328   0.243   9.031  12.537
26102W        W91329   0.101  13.274   4.867
26103W        W91330   1.901  32.889   3.690
26104W        W91331  12.356  28.485  13.029
26105W        W91332  17.812  25.256  11.696
26106W        W91333  30.251  11.825  11.639
26107W        W91334  24.644   9.296   1.182
26108W        W91335  12.765  22.460  14.546
26109W        W91336   4.759  33.639   4.510
26110W        W91337  16.262  44.979  10.609
26111W        W91338   9.335  44.698   3.271
26112W        W91339  41.437  27.918   2.108
26113W        W91340  35.371  27.579   2.858
26114W        W91341   1.255   0.375   3.233
26115W        W91342  37.008  18.346  12.765
26116W        W91343  16.357   6.897   1.236
26117W        W91344  24.962  44.435  12.366
26118W        W91345  33.817   5.384  11.979
26119W        W91346  12.047   3.764   2.880
26120W        W91347  38.263  32.889  12.942
26121W        W91348  34.011   3.016  10.746
26122W        W91349  44.900   6.224  12.612
26123W        W91350  42.596  41.858   3.187
26124W        W91351   9.824  25.224   4.103
26125W        W91352  21.261  22.599   2.155
26126W        W91353   6.777  40.510  13.105
26127W        W91354   0.378   4.168   0.415
26128W        W91355   9.797  39.821  13.650
26129W        W91356  26.168   6.143  14.940
26130W        W91357   2.387  35.165   2.794
26131W        W91358  26.470  37.705   4.631
26132W        W91359  19.065  22.489  14.538
26133W        W91360  23.093  42.850  14.981
26134W        W91361  25.628  12.320  14.797
26135W        W91362  14.601  21.038   3.221
26136W        W91363  33.406  26.193   1.865
26137W        W91364  17.744  22.673  12.599
26138W        W91365   9.574  26.815  12.117
26139W        W91366  16.705   5.898   3.250
26140W        W91367   4.843  14.229   4.406
26141W        W91368  36.453  32.004  12.384
26142W        W91369   8.322  41.365   1.737
26143W        W91370  36.724  26.653  14.313
26144W        W91371  44.939  22.182  14.565
26145W        W91372  12.758   5.716   0.824
26146W        W91373  38.489  36.377  13.520
26147W        W91374   2.902  44.590   5.430
26148W        W91375  31.302  17.717   3.548
26149W        W91376  15.057   6.157   1.664
26150W        W91377  22.568   5.163   4.053
26151W        W91378  29.596   0.806  11.589
26152W        W91379  17.640  26.497   1.702
26153W        W91380  30.127   0.382  11.063
26154W        W91381  16.558  28.137  14.515
26155W        W91382   3.298   1.647  13.435
26156W        W91383  15.272   1.960  10.760
26157W        W91384  22.023  19.851  10.587
26158W        W91385  31.967  22.049  13.423
26159W        W91386  27.162  22.860  11.189
26160W        W91387  33.547   5.282  10.749
26161W        W91388   6.321   7.108  11.630
26162W        W91389  18.189  40.291   2.807
26163W        W91390   2.424   7.395  10.989
26164W        W91391  37.366  39.839   1.656
26165W        W91392  16.768  33.602  10.541
26166W        W91393  31.071  28.270   4.978
26167W        W91394  31.790  44.556   0.797
26168W        W91395   5.661   5.306  11.549
26169W        W91396  21.391  30.294   4.103
26170W        W91397  20.944  34.230   1.126
26171W        W91398  42.333   5.803  14.171
26172W        W91399   7.261  23.466  14.865
26173W        W91400  33.050   2.036  10.693
26174W        W91401  12.534  40.913   2.163
26175W        W91402  22.549  10.441   1.932
26176W        W91403  29.667  30.174   2.242
26177W        W91404  13.244  18.210   0.948
26178W        W91405  22.166   1.393   2.542
26179W        W91406  35.967  43.981  12.842
26180W        W91407   1.905  18.126   3.771
26181W        W91408  38.283  20.802   2.709
26182W        W91409   2.260  19.474  13.809
26183W        W91410  23.175   7.732  13.687
26184W        W91411  44.468  10.957   0.636
26185W        W91412   2.645  35.564   4.177
26186W        W91413  16.124   3.467   2.617
26187W        W91414  21.278  21.171  11.433
26188W        W91415   9.721  35.533  13.066
26189W        W91416  22.078  16.668  11.974
26190W        W91417  27.428  11.188  10.532
26191W        W91418  14.694  18.418  11.514
26192W        W91419  34.201  19.434  13.338
26193W        W91420  15.929  12.867  13.961
26194W        W91421  14.024  17.270   4.528
26195W        W91422  29.475  28.093  14.944
26196W        W91423   2.503  25.957  11.421
26197W        W91424   6.730   0.855  11.958
26198W        W91425  39.857  10.128  12.112
26199W        W91426  24.984  41.061  13.825
26200W        W91427  10.233   9.774  13.282
26201W        W91428  19.686  20.672  12.302
26202W        W91429   4.557  44.779   2.545
26203W        W91430   5.759  34.874  12.038
26204W        W91431  39.664  24.447  14.469
26205W        W91432   8.051  36.595  12.842
26206W        W91433  31.149  14.848   1.074
26207W        W91434   2.842  13.216  10.472
26208W        W91435  19.350  26.738  14.417
26209W        W91436  19.765   6.754  14.881
26210W        W91437  15.055  43.893   1.718
26211W        W91438  23.274  38.683   3.137
26212W        W91439  18.229  40.057   1.014
26213W        W91440   4.516  24.243  13.921
26214W        W91441  39.563  26.158  14.888
26215W        W91442   7.701  38.009   0.473
26216W        W91443   9.704  20.976  12.848
26217W        W91444  34.069  15.201  14.980
26218W        W91445  11.777   6.862  11.402
26219W        W91446  11.029   5.453   0.711
26220W        W91447  21.113  26.134  11.604
26221W        W91448  41.960  24.666  14.866
26222W        W91449   8.419  36.025  10.663
26223W        W91450  24.703  17.641  13.943
26224W        W91451  42.345  38.749   2.783
26225W        W91452   0.331  30.085  11.399
26226W        W91453  14.030  20.015   1.899
26227W        W91454  18.846  38.114   4.152
26228W        W91455  10.271  19.637  12.062
26229W        W91456  14.753  10.044   1.441
26230W        W91457  39.274  28.850   1.461
26231W        W91458   8.959  14.112  10.195
26232W        W91459  31.428  38.514   0.453
26233W        W91460  34.871  18.106  11.534
26234W        W91461  26.032  11.846   3.597
26235W        W91462  26.159   8.841   4.290
26236W        W91463  28.591  19.810   1.928
26237W        W91464  30.164  11.136  12.830
26238W        W91465  24.681  28.495   4.679
26239W        W91466  20.623  25.798  12.651
26240W        W91467   1.440   3.435   1.190
26241W        W91468  14.370  16.343  12.496
26242W        W91469  29.892  19.631  14.119
26243W        W91470   7.027  10.092   2.467
26244W        W91471   5.258  22.203  11.894
26245W        W91472  18.571   3.482  14.949
26246W        W91473  26.547  11.467  12.897
26247W        W91474  25.084   9.110   1.338
26248W        W91475  32.990  32.539  12.988
26249W        W91476  37.238  41.449  13.928
26250W        W91477  17.283  11.227  12.052
26251W        W91478  37.499  34.210   4.771
26252W        W91479   9.236  20.302  13.880
26253W        W91480  10.661  38.977  10.641
26254W        W91481  29.414  31.137  13.365
26255W        W91482  15.821   4.362   2.226
26256W        W91483  19.183  36.985  13.779
26257W        W91484   1.474  28.545   0.374
26258W        W91485  31.000  43.030   1.590
26259W        W91486  26.175   3.882   2.251
26260W        W91487  18.529  23.787  12.047
26261W        W91488   9.692  25.440   1.671
26262W        W91489  43.478   4.706   1.842
26263W        W91490  19.056   5.258   0.917
26264W        W91491  26.659  40.919   4.560
26265W        W91492  11.304  33.492   3.151
26266W        W91493   1.932  38.271   4.411
26267W        W91494   8.065  44.108  10.313
26268W        W91495  26.895  16.825  14.862
26269W        W91496  14.128  14.615  13.930
26270W        W91497  20.930  41.762  14.552
26271W        W91498  36.329  18.912  13.893
26272W        W91499   8.835  34.457  11.216
26273W        W91500  17.670   4.408   0.363
26274W        W91501  30.415  23.294  10.754
26275W        W91502  23.175  35.865   1.780
26276W        W91503  29.725  32.198  11.158
26277W        W91504  13.312   7.442  12.834
26278W        W91505  14.526   1.317   4.236
26279W        W91506   5.540  14.702   4.858
26280W        W91507  24.095  12.072   1.783
26281W        W91508  34.555  10.952  13.004
26282W        W91509  15.833  26.605   1.453
26283W        W91510   3.227  10.891  13.371
26284W        W91511   9.706  39.103  14.933
26285W        W91512  40.252   6.692  13.978
26286W        W91513   4.701  31.161   0.825
26287W        W91514  17.283  28.145  11.217
26288W        W91515  11.013  38.102   3.011
26289W        W91516   2.658  39.997   4.542
26290W        W91517  43.900  10.734   3.872
26291W        W91518  28.663  26.582  13.874
26292W        W91519  35.859  18.743  14.991
26293W        W91520  18.979   6.641  12.548
26294W        W91521  15.478   5.266  12.911
26295W        W91522  14.770   7.040  10.580
26296W        W91523  36.287  13.769   4.216
26297W        W91524  16.631  31.275  12.850
26298W        W91525  33.059  40.475  12.393
26299W        W91526  31.648  20.061   4.237
26300W        W91527   5.276   5.535  11.223
26301W        W91528  39.003  42.590   1.823
26302W        W91529  12.241  31.427  13.819
26303W        W91530  43.990  30.764  13.978
26304W        W91531  14.352  36.430   2.688
26305W        W91532   4.199  37.019  14.969
26306W        W91533  41.547  35.904  14.799
26307W        W91534  29.674  16.987  13.307
26308W        W91535  35.252  44.138  11.178
26309W        W91536  20.875  35.004   1.335
26310W        W91537  34.387   7.374   2.912
26311W        W91538  15.132  10.317   3.476
26312W        W91539  20.928  25.059  10.260
26313W        W91540  10.161  44.809  10.242
26314W        W91541  14.043  44.425   4.652
26315W        W91542  25.283  30.360   4.731
26316W        W91543  25.147  42.031   0.774
26317W        W91544  36.819  11.310  14.930
26318W        W91545  33.168  27.977   3.167
26319W        W91546  25.099   4.894   2.455
26320W        W91547  43.301  44.840   1.730
26321W        W91548  39.149  32.459  12.209
26322W        W91549  36.839  17.759  14.662
26323W        W91550  33.444  44.812  13.303
26324W        W91551  21.200  29.431  12.623
26325W        W91552  31.863  10.333   2.601
26326W        W91553  16.801  31.721  10.563
26327W        W91554  10.890  17.060   3.635
26328W        W91555  40.202  17.631   1.425
26329W        W91556  21.721  21.748   4.144
26330W        W91557  22.983  28.190   0.513
26331W        W91558  20.307  31.505   2.179
26332W        W91559  15.764  43.813  12.546
26333W        W91560  40.841  11.425  14.536
26334W        W91561  24.079  26.181   3.332
26335W        W91562  20.783  27.934   2.460
26336W        W91563  29.663   9.176   1.220
26337W        W91564  26.931  13.520   0.726
26338W        W91565  21.707   8.414  11.947
26339W        W91566  19.034  38.593   1.857
26340W        W91567  27.378   5.166   4.252
26341W        W91568  30.621  18.071  11.871
26342W        W91569  34.556  36.420   0.388
26343W        W91570  20.758  19.580   3.803
26344W        W91571  34.705  41.886  12.998
26345W        W91572  24.069  32.483  10.454
26346W        W91573  43.272  12.267   0.902
26347W        W91574  40.483  31.025  12.464
26348W        W91575  29.938  26.902  12.507
26349W        W91576  31.444  27.971  14.573
26350W        W91577   3.434  38.499  11.464
26351W        W91578  20.926  26.966  12.104
26352W        W91579  20.716  28.461  13.251
26353W        W91580  41.712   3.221  10.767
26354W        W91581  32.110  24.535  14.550
26355W        W91582  13.383   3.807  14.487
26356W        W91583   0.349  13.700  13.837
26357W        W91584  18.402   5.242   4.682
26358W        W91585  12.731   0.007  14.845
26359W        W91586   2.506   9.936   2.624
26360W        W91587  23.515  16.688  10.593
26361W        W91588  41.421  19.475   3.451
26362W        W91589  19.216  15.036  12.620
26363W        W91590  37.973  38.393  14.900
26364W        W91591  10.747  22.111  11.848
26365W        W91592  15.577   7.287   4.805
26366W        W91593  30.349  12.382  13.987
26367W        W91594  40.969  37.075  10.931
26368W        W91595  23.544   3.531  11.214
26369W        W91596  27.203  19.612   2.177
26370W        W91597  34.884   4.613  10.259
26371W        W91598  25.935  38.695   3.317
26372W        W91599  11.232  31.497   1.190
26373W        W91600  27.859  11.728  11.573
26374W        W91601   5.269  35.591   2.246
26375W        W91602   3.199  18.648   5.060
26376W        W91603  12.430  34.118   4.188
26377W        W91604  43.780   0.018   3.462
26378W        W91605   6.233  34.508   1.687
26379W        W91606  10.357  25.374   4.132
26380W        W91607  35.154  15.599   1.217
26381W        W91608  44.873  32.623  13.155
26382W        W91609   2.161  42.299   0.518
26383W        W91610  17.747   3.009  12.026
26384W        W91611  37.348  44.482   0.015
26385W        W91612  11.390  17.201   1.849
26386W        W91613  44.394   8.122   2.674
26387W        W91614  11.062  20.183  12.954
26388W        W91615  23.699  23.466   3.650
26389W        W91616  10.259   1.025  11.362
26390W        W91617  17.054  33.099  13.608
26391W        W91618  26.659  23.011  13.499
26392W        W91619  39.829  23.547  11.953
26393W        W91620  10.705  30.850   1.902
26394W        W91621  34.064   4.294   0.740
26395W        W91622  23.529  28.339   1.207
26396W        W91623   9.060  34.463   4.056
26397W        W91624   5.911  42.725   4.181
26398W        W91625  16.603  23.446  12.089
26399W        W91626  23.277  29.592  14.247
26400W        W91627   8.588  30.069  12.891
26401W        W91628  10.837  10.085   3.800
26402W        W91629   2.040   8.384   1.050
26403W        W91630  20.532  23.481   1.708
26404W        W91631  19.604  34.085  14.073
26405W        W91632  12.767   6.108   2.218
26406W        W91633  23.032  30.032  11.662
26407W        W91634  39.651   6.278  14.833
26408W        W91635  42.761  28.776  13.708
26409W        W91636   7.689   1.081  14.800
26410W        W91637  25.480  16.741   4.541
26411W        W91638  29.096  26.742  14.818
26412W        W91639  43.295  26.083   0.656
26413W        W91640  42.332   5.841   4.685
26414W        W91641  12.322  30.340  11.960
26415W        W91642  15.109  41.330  10.742
26416W        W91643  42.223  21.219   4.572
26417W        W91644  28.438  17.719   0.906
26418W        W91645  18.205   6.933  12.045
26419W        W91646  37.509  33.449   3.624
26420W        W91647  33.096  23.773  14.793
26421W        W91648  26.439  20.691  14.885
26422W        W91649   2.902  25.879  13.040
26423W        W91650  30.587  34.593  11.635
26424W        W91651   6.427  39.559  14.919
26425W        W91652  20.922  34.969   4.341
26426W        W91653  23.806  33.525  13.436
26427W        W91654  38.043  32.087  13.447
26428W        W91655  41.620  21.226   2.311
26429W        W91656  15.339  30.322  10.329
26430W        W91657   9.616  44.718   0.306
26431W        W91658   5.751   4.178  12.174
26432W        W91659  32.573  29.167  14.120
26433W        W91660  14.334  28.299   3.178
26434W        W91661  13.522   5.868  14.593
26435W        W91662  22.873   0.599  12.537
26436W        W91663  44.653  23.175  10.670
26437W        W91664   6.123  21.880  13.642
26438W        W91665  40.199  18.830   1.749
26439W        W91666  38.529   2.380  14.360
26440W        W91667  41.169  27.059  13.770
26441W        W91668  31.346  33.370  11.211
26442W        W91669  14.352   9.783  12.036
26443W        W91670  10.244  25.542  12.170
26444W        W91671  43.366  34.158  11.104
26445W        W91672  43.718  11.535  11.916
26446W        W91673  15.057  41.449   2.754
26447W        W91674  19.588  29.893   2.341
26448W        W91675   6.191  33.153  12.772
26449W        W91676  35.577  32.026  12.912
26450W        W91677  38.352  33.829   4.960
26451W        W91678  29.155  43.249   2.782
26452W        W91679  14.714  14.308   2.125
26453W        W91680   9.248   6.653   2.828
26454W        W91681   9.200  11.534  12.551
26455W        W91682   0.071  22.675   4.470
26456W        W91683  25.112  23.943  10.640
26457W        W91684  11.266  33.869  14.836
26458W        W91685  12.145  17.094  14.423
26459W        W91686  23.143  11.290  13.558
26460W        W91687   8.629  19.310   1.218
26461W        W91688  16.522   9.340   2.414
26462W        W91689  18.255  12.117  12.868
26463W        W91690  33.067  20.286   0.472
26464W        W91691  39.029  21.257   3.756
26465W        W91692   3.363  17.203   0.408
26466W        W91693   5.382  29.432   3.244
26467W        W91694  29.973  18.540  14.876
26468W        W91695  20.163  28.229  13.362
26469W        W91696   4.899  35.267   3.321
26470W        W91697   6.131   8.571   9.903
26471W        W91698  10.715  38.063   2.240
26472W        W91699  12.526   8.362  12.895
26473W        W91700  21.412  14.181   2.671
26474W        W91701  41.261  18.256   4.842
26475W        W91702   8.857  43.895  14.789
26476W        W91703  10.771  44.611  14.315
26477W        W91704  13.739  44.306  12.237
26478W        W91705  39.186  35.153   2.906
26479W        W91706  21.644  14.796  10.413
26480W        W91707  23.067  32.951  14.499
26481W        W91708  31.236   4.719  11.306
26482W        W91709  22.555  36.584  12.897
26483W        W91710  21.202  22.248   0.553
26484W        W91711  30.422  44.761   0.308
26485W        W91712   1.363  33.648  13.816
26486W        W91713  31.025  23.653   1.954
26487W        W91714  18.148  41.258   1.055
26488W        W91715  19.771  35.593   2.436
26489W        W91716   9.600  18.293  11.942
26490W        W91717  31.823  31.652  12.894
26491W        W91718  20.737  19.904  10.811
26492W        W91719  29.422  31.984  11.521
26493W        W91720   5.137  27.040  12.860
26494W        W91721  34.123   1.008  12.503
26495W        W91722   3.301  26.820  13.809
26496W        W91723  43.467  27.718  10.960
26497W        W91724  23.468  39.501  11.697
26498W        W91725  24.106  32.784  13.521
26499W        W91726  30.016  28.534   4.595
26500W        W91727   6.648  26.130  12.181
26501W        W91728   6.639  30.445   1.758
26502W        W91729   8.238  11.957  13.555
26503W        W91730   5.908  10.086   0.525
26504W        W91731  38.951  23.067  11.783
26505W        W91732  29.055  42.321  12.312
26506W        W91733  44.930  38.789  14.364
26507W        W91734   8.855  12.854  12.326
26508W        W91735   9.316   1.989   4.598
26509W        W91736   5.416  22.127  14.674
26510W        W91737  20.567   7.588   0.856
26511W        W91738  20.792   7.772  13.112
26512W        W91739  37.338  25.530   1.888
26513W        W91740  19.097  44.797  12.804
26514W        W91741  36.494  21.602  10.470
26515W        W91742  33.199   6.897  14.348
26516W        W91743  39.987  10.764   4.628
26517W        W91744  10.828  12.644  12.063
26518W        W91745   8.020  37.532  13.848
26519W        W91746  38.984  30.479   2.659
26520W        W91747  21.163  42.819  10.833
26521W        W91748  35.014  42.539   3.803
26522W        W91749  12.073  10.563  14.842
26523W        W91750  13.143   3.907   1.288
26524W        W91751  16.842   8.882  14.046
26525W        W91752  35.680  44.388  13.523
26526W        W91753  12.077  30.646  11.658
26527W        W91754  44.438  34.214  14.033
26528W        W91755   7.836  36.926   4.673
26529W        W91756  28.583  21.469   1.304
26530W        W91757  28.492   7.651  13.977
26531W        W91758  10.726  25.646  14.933
26532W        W91759  38.606  27.183   0.378
26533W        W91760  30.120  38.007   5.107
26534W        W91761  20.378  16.806   4.071
26535W        W91762   8.716  31.967   3.757
26536W        W91763  26.146   6.050   3.200
26537W        W91764  25.667  39.803  14.055
26538W        W91765   0.138  17.730  11.050
26539W        W91766  22.133  30.303   4.722
26540W        W91767  13.697  25.688  14.242
26541W        W91768  11.301  15.104  10.478
26542W        W91769  38.980  38.583  14.798
26543W        W91770  37.572  21.167  11.580
26544W        W91771   1.759   7.200  14.553
26545W        W91772  24.076  29.982   2.765
26546W        W91773  10.861  20.174  12.046
26547W        W91774  36.054  20.339   0.499
26548W        W91775   3.179   8.765  11.891
26549W        W91776   9.397  27.250  11.877
26550W        W91777  32.033  16.072   1.414
26551W        W91778  42.230  32.088   2.262
26552W        W91779  32.432  35.124  12.625
26553W        W91780  15.751   1.352   4.842
26554W        W91781  24.913  12.364  14.276
26555W        W91782  41.227  14.866   2.600
26556W        W91783  32.381  10.091  10.258
26557W        W91784   7.252   8.611  12.037
26558W        W91785  43.074   9.932  14.321
26559W        W91786  40.546  18.782  13.468
26560W        W91787  11.697   5.794   4.649
26561W        W91788   3.777  27.776  13.521
26562W        W91789   5.798   7.778   0.285
26563W        W91790  40.019  40.285  13.037
26564W        W91791   4.229  24.151   0.202
26565W        W91792  42.976  33.899  13.927
26566W        W91793   4.435   0.954   1.714
26567W        W91794  39.011  19.291   3.662
26568W        W91795  24.529  40.114  11.202
26569W        W91796   4.853  37.014   4.823
26570W        W91797  21.357  34.368   3.883
26571W        W91798  33.527  33.125  10.742
26572W        W91799  27.560  12.570   9.769
26573W        W91800  34.468  23.778   2.444
26574W        W91801  23.929  27.083   3.767
26575W        W91802  34.383  41.319   0.044
26576W        W91803   3.938   9.445  10.395
26577W        W91804  34.499  31.637   0.423
26578W        W91805  43.028   5.295   3.644
26579W        W91806  25.760  16.700   3.197
26580W        W91807  18.224  14.311  13.051
26581W        W91808  27.804  24.104  14.794
26582W        W91809   8.389  19.999  13.601
26583W        W91810  20.626   9.824   4.162
26584W        W91811  15.870   7.179   1.411
26585W        W91812  30.021   5.770  14.431
26586W        W91813   5.277  19.623  13.551
26587W        W91814   2.239  15.073  14.686
26588W        W91815  21.942  20.415  10.449
26589W        W91816  13.298  17.794  14.011
26590W        W91817  22.618  12.300   1.886
26591W        W91818  17.605  17.645  13.575
26592W        W91819  26.496  29.534  11.605
26593W        W91820   6.445   6.416   1.014
26594W        W91821  24.942  25.735   1.444
26595W        W91822  30.638   5.718   4.371
26596W        W91823  32.327   3.646  12.463
26597W        W91824   0.948   2.625  13.771
26598W        W91825  19.701   2.132  12.970
26599W        W91826  21.548   5.712  14.549
26600W        W91827  36.889  41.399  13.018
26601W        W91828  32.723  40.378   3.574
26602W        W91829  14.170   3.087   4.269
26603W        W91830  20.411  19.728   3.435
26604W        W91831   1.720   0.971   3.926
26605W        W91832  43.277  42.940   4.529
26606W        W91833  10.384  21.850  12.632
26607W        W91834  21.848  10.372  14.339
26608W        W91835   3.676  33.711   9.984
26609W        W91836  19.826  17.536   4.125
26610W        W91837  13.219   5.570  10.367
26611W        W91838  13.846  26.542   4.085
26612W        W91839  36.365  20.485  10.752
26613W        W91840  29.549   1.477  13.849
26614W        W91841  31.186  41.452  11.999
26615W        W91842  39.533  24.596  11.377
26616W        W91843  32.571  28.618   2.304
26617W        W91844  32.467   9.891  14.128
26618W        W91845  40.052  13.659  14.913
26619W        W91846   5.943  33.705   4.257
26620W        W91847  15.196  39.308   3.211
26621W        W91848  28.181  19.646  11.583
26622W        W91849  33.749  21.599   0.316
26623W        W91850   0.381  29.662   0.040
26624W        W91851   9.301  44.046   4.929
26625W        W91852  33.656  15.736   4.476
26626W        W91853  27.940   6.786   2.008
26627W        W91854  24.936   0.843   2.471
26628W        W91855  29.237   0.732  13.359
26629W        W91856  20.953  16.181   1.240
26630W        W91857  11.368  26.440   1.518
26631W        W91858   5.358  42.960  10.863
26632W        W91859  33.265  43.843  14.011
26633W        W91860  29.495   4.685   1.584
26634W        W91861  18.466  43.345   4.810
26635W        W91862  34.070  37.972  13.852
26636W        W91863  42.421  22.084   1.274
26637W        W91864   9.157  28.759  12.092
26638W        W91865   4.309  10.073   3.693
26639W        W91866  11.407  16.456  14.701
26640W        W91867  27.472  24.114   0.171
26641W        W91868  36.825   8.711  11.092
26642W        W91869  16.233  30.697   1.881
26643W        W91870  10.151  29.487   0.270
26644W        W91871   2.226  18.131  14.822
26645W        W91872  19.816  10.135  12.499
26646W        W91873  15.755  32.332  12.660
26647W        W91874  16.279  26.881   2.148
26648W        W91875   6.722  37.677   2.719
26649W        W91876  13.141  21.960  11.162
26650W        W91877  13.532   8.683   2.594
26651W        W91878  13.812   4.264  11.033
26652W        W91879   5.214  37.962  11.011
26653W        W91880  24.819  11.972  12.626
26654W        W91881  15.792  30.949   4.563
26655W        W91882  26.489  42.751  13.251
26656W        W91883  14.896   1.228   4.599
26657W        W91884  17.889  24.613  11.205
26658W        W91885  15.566  42.537   1.891
26659W        W91886  34.803   4.766   3.951
26660W        W91887   8.278  17.134  14.021
26661W        W91888  12.648  35.668   3.642
26662W        W91889  41.303  37.456  14.994
26663W        W91890  12.347   5.695  13.022
26664W        W91891  12.246   3.366  14.969
26665W        W91892  35.126  36.005  10.984
26666W        W91893  36.034  37.619   2.602
26667W        W91894  39.495  33.503  12.970
26668W        W91895  23.512  29.604  10.783
26669W        W91896  24.691  36.556  12.131
26670W        W91897  40.058  34.436  13.765
26671W        W91898  36.299  29.123   3.126
26672W        W91899   6.676  24.981  14.865
26673W        W91900  32.556  41.464  13.212
26674W        W91901  27.155  14.591  13.964
26675W        W91902  20.913   4.105  11.380
26676W        W91903  11.485  38.401  13.540
26677W        W91904  35.899  26.208   2.825
26678W        W91905  15.521  17.095   1.299
26679W        W91906   2.045   5.189  14.313
26680W        W91907  44.027  41.411  14.417
26681W        W91908  41.215   1.140   3.131
26682W        W91909   0.196  29.606  14.561
26683W        W91910  42.042   1.147  12.448
26684W        W91911  23.402  14.381  11.796
26685W        W91912  45.000   1.411   1.359
26686W        W91913   8.253  20.548   2.862
26687W        W91914  15.363   8.378  11.598
26688W        W91915  40.092  42.659  13.902
26689W        W91916  27.246  24.931   0.010
26690W        W91917  17.359  44.508  13.498
26691W        W91918  13.843   0.045   2.356
26692W        W91919  20.142  27.526  10.749
26693W        W91920  22.720  28.151  10.679
26694W        W91921  38.449  26.650  12.948
26695W        W91922  25.047  10.865   4.143
26696W        W91923  16.062  29.108  11.280
26697W        W91924  35.214  30.778   2.158
26698W        W91925   3.542  23.169  10.763
26699W        W91926  12.096  32.284  11.275
26700W        W91927  13.044  24.274   2.811
26701W        W91928  26.437  21.816   2.772
26702W        W91929   3.314   7.366   1.635
26703W        W91930  36.385  21.058  12.853
26704W        W91931   3.431  23.328  14.284
26705W        W91932  34.485  10.881   3.612
26706W        W91933  25.281  36.094   1.129
26707W        W91934  34.194  24.088  14.596
26708W        W91935  38.557  24.543   3.430
26709W        W91936   6.966  18.070  12.516
26710W        W91937  34.702  34.169   1.359
26711W        W91938  31.672  39.380   3.651
26712W        W91939  22.454  39.077  14.259
26713W        W91940   5.245  13.684   1.303
26714W        W91941  32.973  36.503  12.932
26715W        W91942  21.960  27.224  11.574
26716W        W91943  19.815  26.501  14.358
26717W        W91944  32.003  20.373  14.902
26718W        W91945  14.590  24.086  14.171
26719W        W91946  36.459   4.199  13.524
26720W        W91947   5.555  43.009   9.981
26721W        W91948  30.584  34.771   0.487
26722W        W91949   2.296  32.994  10.492
26723W        W91950  26.175  34.667  12.084
26724W        W91951  23.205  33.071   4.741
26725W        W91952  26.603  41.046  11.587
26726W        W91953  21.314  19.507   1.407
26727W        W91954   3.365  38.001  11.623
26728W        W91955   5.424  36.567  10.731
26729W        W91956   5.670   3.761  14.952
26730W        W91957  11.669  28.442   3.264
26731W        W91958  37.845  25.024  12.819
26732W        W91959   5.439  41.420  14.315
26733W        W91960  41.432  30.219  10.587
26734W        W91961  24.186  29.895  14.393
26735W        W91962  19.902  30.715   3.318
26736W        W91963   5.233  22.196   0.865
26737W        W91964   0.724  29.069   4.565
26738W        W91965   6.692  28.646   2.459
26739W        W91966   1.794   7.382   3.819
26740W        W91967  15.483  26.537   2.903
26741W        W91968   4.960  21.214   0.899
26742W        W91969  34.479  36.499   1.724
26743W        W91970  19.957   3.192   0.652
26744W        W91971  33.895   7.768   3.775
26745W        W91972  24.783   2.320   0.271
26746W        W91973  34.599  16.721   0.847
26747W        W91974  24.940  23.172   3.195
26748W        W91975  28.309  25.699   3.186
26749W        W91976   0.355   7.286   2.977
26750W        W91977   9.655  11.390   1.309
26751W        W91978  18.475  12.255  14.292
26752W        W91979  41.770  19.464   3.846
26753W        W91980  28.708  34.381   0.197
26754W        W91981   7.071  32.501   2.622
26755W        W91982   0.651  21.906   2.500
26756W        W91983  22.640  35.779   3.751
26757W        W91984  40.799  20.971  11.525
26758W        W91985  28.515   1.451   4.029
26759W        W91986  17.794  14.073  14.461
26760W        W91987  33.116  42.798   3.711
26761W        W91988   4.630   2.193   3.263
26762W        W91989  38.351  14.225   4.300
26763W        W91990  39.297  20.269   2.252
26764W        W91991  14.133  24.530  13.947
26765W        W91992  17.071  32.449   0.510
26766W        W91993   6.310  31.961  14.000
26767W        W91994   5.754  25.779  14.301
26768W        W91995  33.609  35.318   4.377
26769W        W91996  38.883  34.868   0.766
26770W        W91997  36.342  29.274   1.047
26771W        W91998  32.830  26.525   4.049
26772W        W91999  22.520  32.057   0.469
26773W        W92000  15.806  10.089  11.220
26774W        W92001  35.054   9.907  14.197
26775W        W92002  30.871  34.355   3.774
26776W        W92003  26.846  43.401   4.357
26777W        W92004   9.331  36.112   2.609
26778W        W92005  27.556  28.600  14.240
26779W        W92006  11.313   0.334  12.313
26780W        W92007  44.634   2.159   1.031
26781W        W92008  39.094  27.778  13.677
26782W        W92009  36.677  32.115  10.440
26783W        W92010   9.779  22.273   1.475
26784W        W92011  22.847  23.693  11.933
26785W        W92012   4.365  23.832   4.858
26786W        W92013  34.066  30.555  12.667
26787W        W92014  20.294  12.809   0.950
26788W        W92015  13.752  16.261   3.183
26789W        W92016  23.175  23.346  14.851
26790W        W92017  13.201  43.302  14.751
26791W        W92018  27.887   5.287  14.996
26792W        W92019  10.259  25.013   0.401
26793W        W92020  31.452  28.119  12.779
26794W        W92021   6.299  27.614  10.441
26795W        W92022  35.369  25.386  12.864
26796W        W92023   2.742   8.355  13.899
26797W        W92024   6.384  38.102   1.674
26798W        W92025  33.343  43.113   1.726
26799W        W92026  25.564  21.511  12.229
26800W        W92027  18.167  32.650   0.723
26801W        W92028  34.372   5.160  13.136
26802W        W92029   2.328  31.508   3.975
26803W        W92030  26.045  15.089   0.826
26804W        W92031  15.545  35.111  13.903
26805W        W92032  39.846  35.339   1.185
26806W        W92033  21.729   9.075   0.337
26807W        W92034  22.728  18.182   0.246
26808W        W92035  10.375  40.462  12.133
26809W        W92036   3.761   0.390   1.744
26810W        W92037   5.945  20.208  12.456
26811W        W92038  31.179   4.843  10.731
26812W        W92039   0.629   4.385   3.642
26813W        W92040   7.756  41.789   3.754
26814W        W92041  26.947  29.343   0.070
26815W        W92042  24.696  42.405   4.994
26816W        W92043  27.635  41.489   2.185
26817W        W92044  35.304  14.680  11.411
26818W        W92045   1.650  26.655   3.821
26819W        W92046   7.874  25.384  10.353
26820W        W92047   8.867  29.452   3.663
26821W        W92048  30.696  32.320  11.640
26822W        W92049  31.084  25.169   9.393
26823W        W92050  40.918   2.185   3.691
26824W        W92051  19.711  33.534   2.916
26825W        W92052  11.147   0.844  11.429
26826W        W92053  27.554  11.350   3.300
26827W        W92054  13.232  11.982   2.385
26828W        W92055   8.955  43.939  13.298
26829W        W92056  10.107  38.554   1.887
26830W        W92057  32.529  44.344   4.588
26831W        W92058   3.435  40.920   3.338
26832W        W92059   9.667  38.936  11.388
26833W        W92060  18.345  22.922   4.508
26834W        W92061  36.602  35.010   1.064
26835W        W92062  10.770  15.983   3.209
26836W        W92063  26.087   5.074   1.894
26837W        W92064  17.527   5.667  11.074
26838W        W92065   9.924  21.770  11.522
26839W        W92066   0.640  34.326   1.203
26840W        W92067  26.929  40.416   1.823
26841W        W92068   7.952  40.451   4.707
26842W        W92069  11.386  27.993   3.138
26843W        W92070   8.414  42.845  11.075
26844W        W92071  34.409  17.610  11.225
26845W        W92072   8.569  19.345   3.374
26846W        W92073  43.301  43.863  14.482
26847W        W92074  43.405  42.685   4.112
26848W        W92075   2.455   8.406   3.734
26849W        W92076  25.977  15.750  14.994
26850W        W92077  28.017   7.665  13.104
26851W        W92078   4.322  14.259   4.544
26852W        W92079  22.991  18.091   4.456
26853W        W92080   3.235   0.953  10.489
26854W        W92081  18.020  29.969   4.755
26855W        W92082  38.366  25.683  11.102
26856W        W92083  28.187  37.611   3.206
26857W        W92084   9.257  30.494  10.964
26858W        W92085  17.715  28.701   4.880
26859W        W92086   0.297  43.385   3.561
26860W        W92087  43.918  40.310  14.857
26861W        W92088  19.575  15.386   0.696
26862W        W92089   2.185  41.246   1.283
26863W        W92090  26.398  22.223  13.082
26864W        W92091  18.666  39.995  11.935
26865W        W92092  29.617  21.261   4.958
26866W        W92093  39.446  29.264   4.138
26867W        W92094  22.659  34.517   0.899
26868W        W92095  44.858  41.038  12.923
26869W        W92096  10.799  35.085  12.914
26870W        W92097   1.204  24.131  11.604
26871W        W92098  33.834  17.267  13.899
26872W        W92099  26.619  37.613  12.573
26873W        W92100  16.595  24.201  11.170
26874W        W92101   9.368  24.934   0.196
26875W        W92102  33.663  13.780  14.878
26876W        W92103  43.941  13.254  11.010
26877W        W92104  21.697  20.905  13.921
26878W        W92105  17.226  28.469   3.522
26879W        W92106  22.772  15.862  12.168
26880W        W92107  31.900   5.879  14.304
26881W        W92108  18.593   5.263  14.528
26882W        W92109  18.547   0.421   1.025
26883W        W92110  11.360  20.548   0.929
26884W        W92111  27.905  25.480   0.185
26885W        W92112  22.179  11.469  11.561
26886W        W92113  41.046  32.861   0.502
26887W        W92114  15.058  22.265   1.094
26888W        W92115  25.528  39.087   4.063
26889W        W92116  23.443  14.191   2.218
26890W        W92117  38.079  29.836  14.860
26891W        W92118  29.991  23.085  10.887
26892W        W92119  34.204  13.419  14.470
26893W        W92120  39.362  30.997  13.803
26894W        W92121  18.927  35.628   1.762
26895W        W92122  36.539  27.413   2.847
26896W        W92123  18.920  11.956  14.359
26897W        W92124  43.366  21.209  11.626
26898W        W92125   2.648  16.204  11.935
26899W        W92126  37.814  15.551   3.584
26900W        W92127  11.965   2.732   2.779
26901W        W92128   2.220  29.559   0.175
26902W        W92129  28.666  20.584   3.634
26903W        W92130   6.279   7.618  11.561
26904W        W92131  25.178  41.395   0.074
26905W        W92132  37.858  24.877  13.863
26906W        W92133  19.709  42.398  12.983
26907W        W92134  15.254  25.945  12.093
26908W        W92135  36.032  25.041  13.538
26909W        W92136  24.904   0.977   0.933
26910W        W92137  30.212   5.023   4.209
26911W        W92138   6.854   5.348   4.782
26912W        W92139   1.731   5.780   1.704
26913W        W92140  25.487  29.201   3.238
26914W        W92141  42.022  25.929   1.866
26915W        W92142  29.419  24.484   4.832
26916W        W92143  10.568  15.536  11.613
26917W        W92144  14.105  25.715   0.344
26918W        W92145  40.857  16.668  12.534
26919W        W92146  24.066  36.337   3.916
26920W        W92147  29.342  12.605   4.789
26921W        W92148   2.715  18.307  14.810
26922W        W92149   3.259   2.927   2.955
26923W        W92150  43.713  21.822  13.266
26924W        W92151  34.503  35.485   2.729
26925W        W92152  38.552  32.188  13.456
26926W        W92153  30.189   2.459  11.810
26927W        W92154  41.490   1.535  13.928
26928W        W92155   3.885  41.305  14.211
26929W        W92156  35.497   4.117   1.870
26930W        W92157  33.968  10.204   2.885
26931W        W92158  19.749  30.207   0.210
26932W        W92159  34.871  16.804   0.416
26933W        W92160  35.592   3.628  12.707
26934W        W92161  18.429  20.685   4.258
26935W        W92162  17.706  24.132   1.448
26936W        W92163  30.650  30.175   4.602
26937W        W92164  16.552  26.416  14.370
26938W        W92165  18.301  13.578   2.376
26939W        W92166  33.721  44.774  10.464
26940W        W92167   2.587  35.132  12.828
26941W        W92168  19.737   1.287  13.421
26942W        W92169  22.865  40.578   5.183
26943W        W92170  34.968   1.560  10.292
26944W        W92171  37.314  19.962  13.125
26945W        W92172  34.199  16.236  10.890
26946W        W92173  14.948  35.713   2.794
26947W        W92174  26.983  34.153   3.746
26948W        W92175   0.505  23.676  10.624
26949W        W92176  18.683  28.505   4.772
26950W        W92177   9.327  40.287   1.218
26951W        W92178   6.351  18.560   1.345
26952W        W92179  36.110  40.926  12.072
26953W        W92180  12.190  42.527   1.680
26954W        W92181  37.318   9.073  13.041
26955W        W92182  25.208  16.211   1.856
26956W        W92183   7.316  10.728   4.115
26957W        W92184  30.045  21.779  13.342
26958W        W92185  29.379  15.837   3.764
26959W        W92186  16.174  29.522  12.444
26960W        W92187  43.089   1.105   5.093
26961W        W92188   5.295  26.891   3.984
26962W        W92189  35.400   4.430  11.148
26963W        W92190  31.597  24.273   1.492
26964W        W92191   1.966   5.841  13.111
26965W        W92192  14.234   1.700   3.635
26966W        W92193  23.909  29.351  14.975
26967W        W92194  13.655  21.681  12.335
26968W        W92195  14.852  37.411  13.794
26969W        W92196  10.783   5.185   3.233
26970W        W92197  42.810  34.023   1.882
26971W        W92198  40.582  19.228   2.817
26972W        W92199   0.400   4.462   1.851
26973W        W92200  32.154  35.966   2.088
26974W        W92201  34.993  28.462   2.057
26975W        W92202  11.674   8.560   0.266
26976W        W92203   4.372   0.076  12.654
26977W        W92204  28.455  19.305  12.859
26978W        W92205  18.299  31.672  13.379
26979W        W92206  29.203   0.426   4.548
26980W        W92207  35.456  14.910  14.988
26981W        W92208  22.126  44.051   3.178
26982W        W92209   7.935  15.740   2.113
26983W        W92210  25.204  40.857  14.346
26984W        W92211  24.545   4.484  10.597
26985W        W92212   4.921  23.053  12.167
26986W        W92213  36.845   4.952  14.035
26987W        W92214   9.330  12.767  10.608
26988W        W92215  13.760  42.856  10.765
26989W        W92216  44.438   6.962   4.653
26990W        W92217  12.372   9.299  12.615
26991W        W92218  42.452  11.165  11.207
26992W        W92219  27.589  38.243  10.134
26993W        W92220  42.745  21.407  11.190
26994W        W92221  44.002  43.048   1.376
26995W        W92222  33.630   7.929  11.981
26996W        W92223   1.577  18.704  13.904
26997W        W92224  41.034  43.473   4.623
26998W        W92225  42.354   8.777   2.816
26999W        W92226   8.126  40.097  13.543
27000W        W92227  34.364  31.141   4.141
27001W        W92228  39.488  17.044  14.309
27002W        W92229  12.598  18.640   3.311
27003W        W92230  27.090  22.489   0.040
27004W        W92231   1.165  24.113  14.726
27005W        W92232  14.147  36.303   1.168
27006W        W92233  12.286  38.888  13.472
27007W        W92234  28.659  33.598  10.427
27008W        W92235   4.908  28.192   0.871
27009W        W92236  40.467  29.708  12.071
27010W        W92237   0.801  15.785   3.243
27011W        W92238  29.947  32.705  10.768
27012W        W92239  31.558  14.947   4.538
27013W        W92240  29.772  30.748  14.844
27014W        W92241   6.883  43.387  13.498
27015W        W92242  22.686  34.156   1.778
27016W        W92243  32.910   7.311   0.210
27017W        W92244  44.873  10.278   0.483
27018W        W92245  30.612  11.901   1.189
27019W        W92246  21.450  31.047   2.238
27020W        W92247  29.995  33.744  14.972
27021W        W92248   6.311  28.003  13.543
27022W        W92249  27.409  38.676   4.739
27023W        W92250  10.132  12.010   3.697
27024W        W92251   1.098   0.628  14.097
27025W        W92252  18.491  17.193  12.596
27026W        W92253   9.125  16.174  14.415
27027W        W92254  23.145   9.837   4.312
27028W        W92255   7.598  23.983  13.605
27029W        W92256  42.092   2.271  13.822
27030W        W92257  31.534  11.564  11.128
27031W        W92258  38.969  37.451  11.352
27032W        W92259  30.169  24.648   3.278
27033W        W92260  36.236  32.411   2.195
27034W        W92261  31.650  40.497  12.442
27035W        W92262  36.855  22.369   1.383
27036W        W92263  24.667  22.093   0.331
27037W        W92264   4.437   9.807  13.417
27038W        W92265  14.362  23.215   3.773
27039W        W92266  25.244  30.110   1.716
27040W        W92267  40.218  31.730   2.445
27041W        W92268  32.592  20.275   1.194
27042W        W92269  13.418  43.332  14.289
27043W        W92270  18.812  43.798   4.681
27044W        W92271  17.086  41.832  12.419
27045W        W92272  14.730  31.410   2.684
27046W        W92273  41.000  13.238   0.368
27047W        W92274  11.657  12.874  12.053
27048W        W92275  31.046  35.519   0.973
27049W        W92276  12.316  44.484   0.949
27050W        W92277  44.202  34.388  14.964
27051W        W92278  32.448  42.381   4.802
27052W        W92279  13.535  15.716   4.098
27053W        W92280  22.074  19.367  10.767
27054W        W92281   1.734   7.260  12.222
27055W        W92282  28.423  36.057   0.996
27056W        W92283   0.090  21.294   5.113
27057W        W92284  11.889   0.906   1.802
27058W        W92285  22.872   5.804   2.665
27059W        W92286   9.271  26.755  12.535
27060W        W92287  20.221   7.653  10.879
27061W        W92288  36.977  38.963   4.346
27062W        W92289  41.259  12.775   1.792
27063W        W92290  38.318  14.141  11.897
27064W        W92291  21.391  20.318  11.617
27065W        W92292  25.124  21.882   4.186
27066W        W92293  13.193  19.767   4.409
27067W        W92294  44.574  32.392  10.164
27068W        W92295  10.458   4.650   2.910
27069W        W92296  25.966  28.115   2.328
27070W        W92297  18.019  20.702  12.487
27071W        W92298  26.003  22.968  13.832
27072W        W92299  16.304  16.962   4.607
27073W        W92300   6.439   6.896   0.812
27074W        W92301  35.472  20.566   2.446
27075W        W92302  40.271  21.308   2.244
27076W        W92303   1.923  36.392  11.935
27077W        W92304   5.897  30.887   3.749
27078W        W92305  22.187  17.087  10.611
27079W        W92306  36.583  28.067  13.796
27080W        W92307  19.781  11.047  11.520
27081W        W92308  42.933  42.366   4.080
27082W        W92309  17.298  33.572  10.553
27083W        W92310   1.968  17.136  11.569
27084W        W92311  29.520  43.843  13.840
27085W        W92312   8.269  13.172  12.420
27086W        W92313  28.925  17.598   1.130
27087W        W92314  22.334  16.027   2.890
27088W        W92315  36.889  12.726  14.612
27089W        W92316  10.228  20.655  14.639
27090W        W92317  18.554  24.455  12.914
27091W        W92318  10.857  17.594   3.461
27092W        W92319  13.389   6.832  14.695
27093W        W92320  37.937  32.520  10.546
27094W        W92321  38.986  27.022   3.449
27095W        W92322  16.347  44.763   1.366
27096W        W92323  21.670  18.029  11.168
27097W        W92324   3.950   4.325  10.794
27098W        W92325  10.268  18.713  11.419
27099W        W92326  26.007  12.359   0.772
27100W        W92327  44.411  13.646  14.492
27101W        W92328  31.435  17.576   1.162
27102W        W92329  44.773  41.437   2.412
27103W        W92330  13.731  16.247   0.239
27104W        W92331   7.950   2.353  11.410
27105W        W92332  13.630  14.240  13.386
27106W        W92333  37.340  36.953   2.753
27107W        W92334  40.070   0.350   4.031
27108W        W92335  41.187  21.073   2.045
27109W        W92336  22.781   5.890   3.745
27110W        W92337   3.992  24.097  14.720
27111W        W92338  41.332  18.069  12.548
27112W        W92339  26.465   6.611  12.011
27113W        W92340  43.324  23.215   2.730
27114W        W92341   5.658  23.401   2.231
27115W        W92342  15.953   6.899   4.889
27116W        W92343  36.794  33.107  11.718
27117W        W92344  30.920   3.919   0.768
27118W        W92345  12.668  42.454   0.065
27119W        W92346  19.336   8.976   0.943
27120W        W92347  27.006   9.798   2.752
27121W        W92348  26.319  26.168   1.466
27122W        W92349  12.213  40.901  12.090
27123W        W92350   7.924  44.139   5.007
27124W        W92351  16.343  43.315  13.705
27125W        W92352   3.988  27.481  10.207
27126W        W92353  29.208  25.242  14.984
27127W        W92354  11.623  19.315   4.188
27128W        W92355  13.828   6.213  14.838
27129W        W92356  14.675  35.403   4.639
27130W        W92357  20.096   0.361  13.518
27131W        W92358  35.300  28.664   1.682
27132W        W92359  36.332  17.439  13.087
27133W        W92360  27.323   4.341  12.994
27134W        W92361  37.433  28.098  11.902
27135W        W92362   0.515   8.815   5.071
27136W        W92363  11.304  19.295  11.991
27137W        W92364  42.940  11.322  13.090
27138W        W92365  40.780  30.009  11.802
27139W        W92366   3.353  16.618   2.345
27140W        W92367  29.601   0.336   3.716
27141W        W92368  15.229  25.924  14.318
27142W        W92369  28.444  21.855  11.284
27143W        W92370  38.376   8.790   4.024
27144W        W92371  35.118  30.636   0.302
27145W        W92372   9.296   7.000   3.788
27146W        W92373  23.570  31.861   3.606
27147W        W92374  27.210  20.208  13.958
27148W        W92375  30.081  24.045   0.744
27149W        W92376  35.875  26.701   4.160
27150W        W92377  18.209  41.108  13.156
27151W        W92378  17.469  35.408   0.343
27152W        W92379  15.179  29.594  13.367
27153W        W92380  38.343  26.131  13.832
27154W        W92381   8.986  29.282  10.209
27155W        W92382  28.590  40.961  11.525
27156W        W92383  25.107  12.169   1.453
27157W        W92384  27.048  13.318  10.627
27158W        W92385  26.805  43.791   3.629
27159W        W92386  25.105   7.664   0.377
27160W        W92387   3.294  34.211   1.248
27161W        W92388  42.910  35.266   2.751
27162W        W92389  10.676  27.420   3.541
27163W        W92390   6.233   4.422   4.159
27164W        W92391   0.503   1.223   1.248
27165W        W92392  43.818  27.611   3.251
27166W        W92393  17.585  37.311   4.602
27167W        W92394   7.420  22.241  13.440
27168W        W92395   1.335  19.906  12.307
27169W        W92396  41.478   6.956   0.802
27170W        W92397   8.390  10.664  14.907
27171W        W92398  30.527  23.269   0.797
27172W        W92399  21.100   0.097  12.616
27173W        W92400  27.778   5.115  12.644
27174W        W92401   6.087   2.156  13.937
27175W        W92402  27.451  28.039  14.958
27176W        W92403  39.503  21.109   3.835
27177W        W92404  24.439  19.304   1.466
27178W        W92405  28.641  23.678   1.471
27179W        W92406  24.996   1.071  12.180
27180W        W92407  12.093   1.359   3.126
27181W        W92408  27.651  15.546  10.625
27182W        W92409  41.261  35.080  11.206
27183W        W92410  14.805   5.529   2.920
27184W        W92411  31.069  15.023  12.554
27185W        W92412  10.147  32.401   9.902
27186W        W92413  10.931  12.064   2.393
27187W        W92414  13.054  42.891  12.974
27188W        W92415  18.357  26.557  11.928
27189W        W92416  16.570  11.163   1.433
27190W        W92417  41.882  31.706  13.407
27191W        W92418  38.500  29.668   2.130
27192W        W92419  23.162  31.572   3.736
27193W        W92420  12.701  41.916   1.461
27194W        W92421  31.172   3.441   2.676
27195W        W92422   6.718  10.323   2.799
27196W        W92423  42.519  21.937  14.299
27197W        W92424  16.097  27.478   1.383
27198W        W92425  30.940  34.169   2.067
27199W        W92426  21.760  37.429  12.514
27200W        W92427  34.299  42.719   4.674
27201W        W92428   0.043  42.740   1.496
27202W        W92429  14.638   3.122  11.507
27203W        W92430   6.227   1.340   3.363
27204W        W92431  24.073  15.652  14.362
27205W        W92432  43.583  37.482  13.002
27206W        W92433  27.014  18.128  12.705
27207W        W92434  18.590  18.074   1.716
27208W        W92435  42.466  19.978   1.860
27209W        W92436  40.430  10.945   4.903
27210W        W92437  14.097  43.262   0.320
27211W        W92438  22.934  30.109   2.735
27212W        W92439   7.938   0.939   3.374
27213W        W92440  37.505  35.985  10.780
27214W        W92441  40.938  11.387   1.558
27215W        W92442   5.935  16.039  12.805
27216W        W92443  38.237   0.541  12.061
27217W        W92444  29.136  26.373  13.821
27218W        W92445   3.778   9.387   4.068
27219W        W92446  31.860   5.996   1.014
27220W        W92447  17.171  29.936  14.029
27221W        W92448  16.940  16.547   0.932
27222W        W92449  16.543  40.343  12.107
27223W        W92450  43.574  29.342  12.469
27224W        W92451  35.853  11.880   3.948
27225W        W92452  40.445  43.020  10.401
27226W        W92453   7.794   9.883  14.959
27227W        W92454  11.969  19.599   5.069
27228W        W92455   0.482  35.999  13.881
27229W        W92456   1.911  15.835   1.688
27230W        W92457  12.202  18.689   2.392
27231W        W92458  22.111  13.128  12.998
27232W        W92459  43.563   6.256   4.172
27233W        W92460  41.870  32.864   2.815
27234W        W92461   3.255  23.210   1.713
27235W        W92462   9.095   5.764  14.336
27236W        W92463  18.491  20.799   0.846
27237W        W92464  24.236   9.261   0.342
27238W        W92465  33.878  18.608   2.480
27239W        W92466  32.769  30.085   2.192
27240W        W92467  26.421  38.635  10.656
27241W        W92468  19.581  35.571  10.988
27242W        W92469  39.548  21.814  14.097
27243W        W92470  23.282  36.377  12.628
27244W        W92471   6.114  33.111  14.718
27245W        W92472   9.738  21.976   1.895
27246W        W92473  31.035  36.529   1.651
27247W        W92474  36.887  11.667   1.295
27248W        W92475  32.046  44.356  11.522
27249W        W92476  20.182  36.326   4.086
27250W        W92477  25.074  28.857  11.156
27251W        W92478  19.795  24.984   3.608
27252W        W92479  21.749  33.229   1.003
27253W        W92480  15.032  41.498  13.934
27254W        W92481  17.633  20.191  14.052
27255W        W92482  22.596  17.590  13.148
27256W        W92483  20.002  34.337  12.891
27257W        W92484  31.543  14.967   5.404
27258W        W92485  10.290  34.114  13.862
27259W        W92486  38.109  40.241  11.612
27260W        W92487   6.732  44.567  14.535
27261W        W92488   0.880  11.726  13.584
27262W        W92489  23.760  11.932  10.761
27263W        W92490  10.258  22.190   1.291
27264W        W92491  27.664   1.784  11.650
27265W        W92492  29.766   8.212   2.791
27266W        W92493   5.706  12.287  10.756
27267W        W92494  40.344  20.703  11.617
27268W        W92495  25.573  28.555   3.831
27269W        W92496  22.778  24.199   1.454
27270W        W92497   9.102  42.217   3.663
27271W        W92498  18.026  42.544   1.963
27272W        W92499  14.788   3.333   2.994
27273W        W92500   9.129   6.265   0.470
27274W        W92501   5.888  43.444  12.108
27275W        W92502  32.992   3.143  11.990
27276W        W92503   5.673  34.006  12.564
27277W        W92504   3.835  20.202  13.487
27278W        W92505   0.468  30.428   3.084
27279W        W92506  40.796   7.281  13.927
27280W        W92507  36.311  25.467  12.828
27281W        W92508  20.397  17.213   3.731
27282W        W92509  26.998  27.559  12.561
27283W        W92510  29.286  22.520   4.123
27284W        W92511   7.042  21.083  11.641
27285W        W92512  11.760  24.245  14.736
27286W        W92513  33.596  44.472   2.754
27287W        W92514   9.878   5.211  10.662
27288W        W92515  26.678   1.783   2.328
27289W        W92516  11.270  44.115  11.554
27290W        W92517   2.431  11.734   5.390
27291W        W92518  17.210  34.905  11.568
27292W        W92519  23.670  16.745   0.638
27293W        W92520  34.588  31.855  12.422
27294W        W92521  27.966  30.099   1.707
27295W        W92522   8.769  39.352  14.604
27296W        W92523   2.827  32.149   4.085
27297W        W92524  25.670  29.421   2.177
27298W        W92525  43.145  24.149   4.125
27299W        W92526  29.924  14.794  14.196
27300W        W92527   8.370  10.097   3.587
27301W        W92528  16.572  33.031  11.578
27302W        W92529  19.788  44.304   1.835
27303W        W92530   7.741  32.909   3.811
27304W        W92531   4.878  17.512  12.926
27305W        W92532  27.073   6.364  10.932
27306W        W92533  20.270  32.392  10.770
27307W        W92534  30.870   2.496  13.418
27308W        W92535   0.203  43.019  11.672
27309W        W92536  41.298  20.848  11.604
27310W        W92537   0.318  29.642  13.857
27311W        W92538  43.078  16.105   4.105
27312W        W92539  42.519  38.471  10.574
27313W        W92540  20.050  17.448  11.215
27314W        W92541  16.302  43.978   4.749
27315W        W92542  27.548   5.064  13.589
27316W        W92543  26.664  20.626  14.399
27317W        W92544  15.745   1.735   1.444
27318W        W92545   6.165  13.763  12.892
27319W        W92546   7.643  23.620  10.618
27320W        W92547  21.690  28.702  12.316
27321W        W92548  31.173  22.205   2.792
27322W        W92549   9.877  43.322   0.509
27323W        W92550  38.785  43.081   0.956
27324W        W92551  44.241  23.082  13.052
27325W        W92552   8.737  34.943   4.996
27326W        W92553   0.675  43.937  12.026
27327W        W92554   2.823  22.062   1.859
27328W        W92555   1.769  42.596  13.381
27329W        W92556  16.039  13.392   5.001
27330W        W92557   7.785  17.801  11.356
27331W        W92558  35.801  15.941  14.416
27332W        W92559   1.353  41.131   0.929
27333W        W92560  37.854  31.178   4.618
27334W        W92561  33.673  28.607  13.947
27335W        W92562  38.308   9.377   3.128
27336W        W92563  16.876  33.560  14.278
27337W        W92564  30.439  21.568   3.317
27338W        W92565  10.628  37.435  11.819
27339W        W92566  28.130   6.801  10.141
27340W        W92567  21.784  42.467  13.940
27341W        W92568  22.530  17.003  11.460
27342W        W92569  12.264  23.636  14.456
27343W        W92570  44.645  26.066   4.994
27344W        W92571  18.805  37.000   1.972
27345W        W92572  22.927  12.045  11.111
27346W        W92573   1.990  32.013   5.077
27347W        W92574  29.975   9.881   4.763
27348W        W92575  15.221   2.252  13.080
27349W        W92576  37.139  40.860  14.413
27350W        W92577  34.184   3.973   2.103
27351W        W92578   5.157   4.406   0.836
27352W        W92579  17.119  15.990   3.780
27353W        W92580  37.193  41.164   4.072
27354W        W92581  23.103  31.452  13.017
27355W        W92582   1.140  30.546  13.057
27356W        W92583  33.897  41.339   1.619
27357W        W92584  19.675   4.416   4.098
27358W        W92585  20.862  12.383   0.358
27359W        W92586  27.473  43.550   3.223
27360W        W92587  37.042  43.053  10.590
27361W        W92588  41.498  27.088   0.212
27362W        W92589  12.776   0.059   4.817
27363W        W92590  27.022  14.145  11.896
27364W        W92591   7.475  26.641  12.962
27365W        W92592   3.224  30.599   4.174
27366W        W92593   9.253  13.133  12.500
27367W        W92594  18.229  15.737  11.670
27368W        W92595   1.350  29.396  10.159
27369W        W92596  21.129  10.119  14.775
27370W        W92597  22.455  28.184   0.642
27371W        W92598  22.994  19.778   3.368
27372W        W92599  29.637   3.880   3.187
27373W        W92600  26.253  29.136   3.671
27374W        W92601   9.344  23.928   0.332
27375W        W92602  29.448  35.846   1.338
27376W        W92603  17.674  27.435  11.963
27377W        W92604  18.096  16.664  14.915
27378W        W92605  40.764  31.395   0.275
27379W        W92606   2.248  17.431   3.925
27380W        W92607  14.533  44.967   1.612
27381W        W92608   2.978  42.286  13.221
27382W        W92609  35.918  17.185  10.574
27383W        W92610  14.104  29.227   4.360
27384W        W92611   2.170  14.858   1.697
27385W        W92612  20.056  44.760   1.889
27386W        W92613  34.536   4.662  14.359
27387W        W92614   2.277  27.994   0.467
27388W        W92615  35.770  13.593   4.234
27389W        W92616  35.913  20.504   3.747
27390W        W92617  27.567  28.051   4.936
27391W        W92618  15.334  11.484   4.821
27392W        W92619   5.272  15.613  10.294
27393W        W92620  26.388  23.360  12.794
27394W        W92621  40.420  22.164  11.183
27395W        W92622   2.748  42.107   2.710
27396W        W92623   6.929  31.607  10.619
27397W        W92624  14.073  28.115  13.326
27398W        W92625  20.574   3.855  13.311
27399W        W92626  41.699  33.597   0.336
27400W        W92627  30.957  30.899   3.593
27401W        W92628   9.447  27.038   2.929
27402W        W92629  27.408  30.162   0.804
27403W        W92630   8.305   5.819  11.738
27404W        W92631  17.204   7.716   0.189
27405W        W92632  13.859  29.967   1.520
27406W        W92633   4.406  13.988   3.046
27407W        W92634  12.768   4.154   4.706
27408W        W92635  12.775   8.125   2.305
27409W        W92636   6.189  39.639  10.601
27410W        W92637  23.040  17.170  11.612
27411W        W92638   9.889  44.480   4.127
27412W        W92639  24.076  30.381   3.163
27413W        W92640   8.237  17.864  10.736
27414W        W92641  27.640   1.491   4.389
27415W        W92642   1.460  44.015  12.429
27416W        W92643  10.474  16.701  11.155
27417W        W92644   3.285  35.611   0.264
27418W        W92645  23.008  21.848  12.611
27419W        W92646   8.810  33.952  10.928
27420W        W92647   6.617  24.261   3.624
27421W        W92648  34.882  23.865   3.093
27422W        W92649  13.783  28.098  10.804
27423W        W92650  30.435  24.950   1.630
27424W        W92651  19.112   7.556   0.384
27425W        W92652  15.060   4.915   4.632
27426W        W92653  36.478  41.685   2.927
27427W        W92654  40.045   0.990   4.853
27428W        W92655   5.468   0.868   4.042
27429W        W92656  11.223  31.132  11.481
27430W        W92657   2.744  24.095  12.359
27431W        W92658  11.722  41.830  12.668
27432W        W92659   5.422  16.334  13.853
27433W        W92660  34.396  34.874   4.596
27434W        W92661  43.102  10.080   2.702
27435W        W92662  25.060  44.356  10.834
27436W        W92663  35.990  38.923   3.299
27437W        W92664  38.560  21.421   2.187
27438W        W92665  27.100  44.209   0.784
27439W        W92666  25.829   1.534   2.045
27440W        W92667   6.094  44.293  13.808
27441W        W92668  17.203  26.383   2.067
27442W        W92669   1.439  10.330  11.164
27443W        W92670  19.486   7.163   3.000
27444W        W92671  33.336   5.611  12.208
27445W        W92672   1.685  34.413   2.724
27446W        W92673   0.446   7.887   1.242
27447W        W92674  15.193  37.329   3.117
27448W        W92675  41.365  10.383   4.673
27449W        W92676  22.411  24.880   5.055
27450W        W92677  22.954   3.945  11.106
27451W        W92678   9.808  23.974  11.507
27452W        W92679  28.094  27.875  13.101
27453W        W92680  30.985   1.937  10.618
27454W        W92681  11.630  30.923   2.346
27455W        W92682  15.615  39.178  12.337
27456W        W92683  34.682  27.748   0.548
27457W        W92684  32.438  15.642   0.868
27458W        W92685  43.958  36.582  11.158
27459W        W92686  31.660  34.647   3.344
27460W        W92687  25.506  25.008   3.398
27461W        W92688  24.242  24.066  12.100
27462W        W92689  16.646  23.307   4.208
27463W        W92690  39.258  18.826   2.803
27464W        W92691  34.964  39.796  10.880
27465W        W92692  17.239  43.305   3.212
27466W        W92693   2.126  31.861  11.068
27467W        W92694  42.479  16.884  12.051
27468W        W92695  42.476  11.887  12.038
27469W        W92696   0.383   5.422   1.652
27470W        W92697  30.943  43.587  12.629
27471W        W92698  17.013   9.959  11.946
27472W        W92699  40.871  28.390   2.294
27473W        W92700  37.967  43.307  14.502
27474W        W92701  17.986  30.126  14.440
27475W        W92702  39.497  10.165  12.493
27476W        W92703  19.927  43.268  14.239
27477W        W92704  26.991   8.061   2.600
27478W        W92705   6.705  18.547   3.537
27479W        W92706   3.443  33.814  10.681
27480W        W92707  41.238   6.887  14.894
27481W        W92708  17.165  10.790  14.881
27482W        W92709   0.569  14.708   0.391
27483W        W92710   1.884  10.565   2.161
27484W        W92711  37.477  19.734  11.939
27485W        W92712   5.921  18.225  10.700
27486W        W92713  38.029  26.998   3.296
27487W        W92714  22.445   2.084  10.873
27488W        W92715  44.524  15.541   0.320
27489W        W92716  21.274  15.888   9.979
27490W        W92717  30.103   3.730   2.268
27491W        W92718   7.660  34.634   4.214
27492W        W92719   3.349  34.160  14.093
27493W        W92720  30.924  44.439   4.754
27494W        W92721  22.496  21.906  12.917
27495W        W92722   3.005  10.657   4.832
27496W        W92723  38.359  20.956   5.115
27497W        W92724   7.092  35.573   0.867
27498W        W92725  28.965  10.848   0.729
27499W        W92726  34.907  21.342  10.783
27500W        W92727  21.737   1.739  11.098
27501W        W92728  22.000   3.272   0.236
27502W        W92729  29.478  34.642   3.796
27503W        W92730  44.821  21.531  13.895
27504W        W92731  44.280   7.250   1.409
27505W        W92732   2.866  37.167   0.396
27506W        W92733  31.178  23.743   4.214
27507W        W92734  18.547  29.253   1.900
27508W        W92735  40.476  10.467   5.115
27509W        W92736  38.476  42.038   4.623
27510W        W92737  29.083  35.561   3.695
27511W        W92738  19.593  24.101   2.351
27512W        W92739  27.940   3.720   3.744
27513W        W92740  14.412  12.782   0.777
27514W        W92741  21.074  17.336  13.840
27515W        W92742  44.825   0.828  10.946
27516W        W92743   1.286  15.108  10.637
27517W        W92744  41.422  34.466  14.957
27518W        W92745  20.204   8.333   2.990
27519W        W92746  27.067  14.382  10.533
27520W        W92747  17.367   4.965  11.237
27521W        W92748  22.531  36.957   4.504
27522W        W92749  21.282  19.648   2.322
27523W        W92750  34.083  18.209   0.365
27524W        W92751  10.206   3.878   4.033
27525W        W92752  21.782   3.513   3.093
27526W        W92753   6.719  32.760   4.288
27527W        W92754   8.990   3.899   4.644
27528W        W92755  27.748  15.610  11.941
27529W        W92756  16.866  13.414   3.237
27530W        W92757  28.661  41.898  14.792
27531W        W92758  37.822  37.061   3.660
27532W        W92759  19.534   3.325   0.957
27533W        W92760  32.592  31.021   1.459
27534W        W92761  25.906  10.469  13.388
27535W        W92762  42.370  22.829  12.861
27536W        W92763  39.460   7.888   2.886
27537W        W92764  19.740   5.429   3.758
27538W        W92765  34.359  20.191   2.393
27539W        W92766   6.184  27.073  12.040
27540W        W92767  32.468   0.424  12.169
27541W        W92768   0.812  33.990  13.361
27542W        W92769  11.711  29.196   1.045
27543W        W92770  34.323  10.092   3.933
27544W        W92771  28.659  42.337  13.731
27545W        W92772  32.078  22.250   4.549
27546W        W92773  23.235  10.450   1.693
27547W        W92774  24.737  15.495  10.037
27548W        W92775  40.039   2.411  14.353
27549W        W92776  34.054  37.622  12.395
27550W        W92777   2.488   9.710   0.742
27551W        W92778  43.017   6.889  12.003
27552W        W92779  44.761   3.331   1.591
27553W        W92780   2.372  13.970  12.875
27554W        W92781  15.473  35.991   3.924
27555W        W92782  21.919  44.557  13.129
27556W        W92783  41.853  37.282  12.093
27557W        W92784  36.691  39.878   4.180
27558W        W92785   9.287  20.511  11.635
27559W        W92786  34.287  36.783   4.975
27560W        W92787  20.936  20.124   0.824
27561W        W92788  28.429  14.726   3.469
27562W        W92789  31.046   3.393   0.867
27563W        W92790  23.651   7.882  13.889
27564W        W92791   9.362  13.579  13.436
27565W        W92792  23.936  16.576  12.939
27566W        W92793  27.910   7.203   4.969
27567W        W92794  23.297   4.329  12.969
27568W        W92795   4.296  40.110  14.949
27569W        W92796  42.070  20.080   0.882
27570W        W92797  40.330  31.290   4.038
27571W        W92798   4.674  27.868  11.153
27572W        W92799  28.340   2.821  13.089
27573W        W92800   4.242  31.349  11.595
27574W        W92801  27.752   0.325   4.759
27575W        W92802  38.785  19.141  14.742
27576W        W92803  25.736  37.053  14.342
27577W        W92804  22.058  12.668  13.905
27578W        W92805  11.448  34.437   3.252
27579W        W92806  18.647  18.213   2.243
27580W        W92807  25.651  41.815   0.745
27581W        W92808  28.515  37.904   2.448
27582W        W92809  35.671   6.890   1.351
27583W        W92810  13.642   3.377  13.939
27584W        W92811  31.397  27.613  12.050
27585W        W92812  32.114  25.294  14.310
27586W        W92813  36.754  36.347  12.356
27587W        W92814  28.443  37.350   1.212
27588W        W92815  10.172   8.196   0.204
27589W        W92816  33.481  36.892  14.482
27590W        W92817  17.593  36.420   2.061
27591W        W92818  44.056  44.052   0.815
27592W        W92819  20.023  28.892   4.768
27593W        W92820   2.894  30.989  10.302
27594W        W92821   5.200  35.129   1.221
27595W        W92822  42.807  11.294   3.294
27596W        W92823  35.014  13.535  14.740
27597W        W92824  32.530  42.501   3.789
27598W        W92825   8.252  27.371  11.654
27599W        W92826   4.176  18.436   4.745
27600W        W92827   5.185   8.831  10.372
27601W        W92828  16.826  16.490   2.119
27602W        W92829   5.533  30.122  13.474
27603W        W92830  18.335  22.881   2.713
27604W        W92831  43.193   1.200   3.365
27605W        W92832  43.480  43.284  10.988
27606W        W92833  18.775  22.400   4.861
27607W        W92834  24.411  29.860   3.750
27608W        W92835  23.132  31.872  12.113
27609W        W92836  10.907  29.673  11.898
27610W        W92837   2.267  25.070  12.968
27611W        W92838  37.387  15.076   2.655
27612W        W92839   8.654  34.980   4.190
27613W        W92840  16.124   9.231   0.623
27614W        W92841  37.612  24.457  11.620
27615W        W92842  22.067  29.528   1.972
27616W        W92843   7.984  23.238  12.892
27617W        W92844  20.739  38.533  14.472
27618W        W92845  15.018   2.938   3.760
27619W        W92846  35.114   5.756   2.989
27620W        W92847  33.374   3.090  11.151
27621W        W92848  10.454  10.995  12.009
27622W        W92849  40.548  42.440   2.815
27623W        W92850   4.055  26.686   3.432
27624W        W92851  44.528  19.561  14.704
27625W        W92852  42.020  30.375  11.485
27626W        W92853  14.831   7.401  11.396
27627W        W92854   8.686   8.852   4.978
27628W        W92855  18.776  29.636   2.156
27629W        W92856   4.809  32.164  12.486
27630W        W92857  14.405  11.235   0.066
27631W        W92858  22.761   7.458   0.446
27632W        W92859  28.187  25.691   1.643
27633W        W92860  15.072  19.879   2.235
27634W        W92861  39.747   9.903  12.890
27635W        W92862  25.923  28.427   3.062
27636W        W92863  12.330  23.666  11.425
27637W        W92864   6.895  26.675  10.503
27638W        W92865  21.806  16.315  11.549
27639W        W92866  19.107  27.272  12.993
27640W        W92867  31.214  19.767  10.599
27641W        W92868   2.314  41.364  13.055
27642W        W92869  32.457  11.607  14.107
27643W        W92870  24.846  12.630  11.185
27644W        W92871  14.132  28.995   3.910
27645W        W92872  35.135  31.971  13.859
27646W        W92873  41.253  33.296  14.439
27647W        W92874  13.369  10.712  12.412
27648W        W92875  14.919  34.048  14.461
27649W        W92876   4.980  11.633  14.105
27650W        W92877  35.092  20.265  10.712
27651W        W92878   3.685  41.495   4.131
27652W        W92879  24.029   4.013  11.213
27653W        W92880  17.566  29.050   0.511
27654W        W92881  21.737  39.051  11.978
27655W        W92882   6.010   3.341  12.042
27656W        W92883  11.160  11.843   0.317
27657W        W92884  19.036  32.433   3.811
27658W        W92885  16.239  40.265  12.872
27659W        W92886   6.758   9.837  14.879
27660W        W92887  29.665  30.637  13.498
27661W        W92888  35.763  30.732  13.351
27662W        W92889  31.172  25.052   3.640
27663W        W92890  32.925  30.939  14.536
27664W        W92891  37.948   5.306  13.316
27665W        W92892  18.377  39.852  13.670
27666W        W92893   1.044  19.379  13.016
27667W        W92894  21.249  38.486  10.397
27668W        W92895   8.508   3.068   3.694
27669W        W92896   4.885  23.606   1.336
27670W        W92897  15.044  16.985   1.428
27671W        W92898  16.297   7.687   3.620
27672W        W92899  44.936   5.266  12.527
27673W        W92900  25.807   4.254  14.804
27674W        W92901  39.602   5.454   3.030
27675W        W92902   2.243   6.976   0.802
27676W        W92903  23.365  30.631  12.364
27677W        W92904  37.867  29.451  10.882
27678W        W92905  44.848  29.898   2.411
27679W        W92906   1.246  29.911  10.163
27680W        W92907  23.043  21.504  14.873
27681W        W92908   3.860   4.385   4.672
27682W        W92909  15.517   8.140  12.040
27683W        W92910  41.917  37.363   0.402
27684W        W92911  14.682   9.418  14.819
27685W        W92912  22.604  42.912   0.193
27686W        W92913  23.238  29.614   0.711
27687W        W92914   5.137  29.728  10.416
27688W        W92915   3.375  18.019   2.443
27689W        W92916   4.198  38.551   0.327
27690W        W92917   7.405  35.135   2.038
27691W        W92918  24.943  39.975   2.276
27692W        W92919  42.313  43.335   0.396
27693W        W92920  22.265  17.613  10.641
27694W        W92921  11.188  12.799   1.328
27695W        W92922  19.901  25.168   0.716
27696W        W92923  35.796  28.151  13.131
27697W        W92924  21.783  43.751  14.365
27698W        W92925  34.044  13.532   4.968
27699W        W92926   7.918   6.920  14.368
27700W        W92927  39.533  30.980   4.576
27701W        W92928  39.973  36.372   1.420
27702W        W92929  29.534  28.630   4.782
27703W        W92930  33.082  25.022  13.537
27704W        W92931   2.607  32.466   4.463
27705W        W92932  33.370  22.224  10.654
27706W        W92933   4.992  15.220   9.867
27707W        W92934  20.244  24.773   0.869
27708W        W92935   9.301  18.211   2.977
27709W        W92936  44.226  21.439  12.100
27710W        W92937  28.416  29.189   2.363
27711W        W92938  24.994  43.018  14.274
27712W        W92939   0.032   5.261  13.021
27713W        W92940  23.623  22.182  14.266
27714W        W92941  34.605  18.301  14.424
27715W        W92942  44.730  16.767   5.452
27716W        W92943  34.829  25.575   4.163
27717W        W92944   7.855   0.360  11.689
27718W        W92945  32.777   2.012   0.435
27719W        W92946   4.856   9.933  12.092
27720W        W92947  35.343   7.620   1.901
27721W        W92948  12.794  39.887   2.780
27722W        W92949  29.636  14.190  14.919
27723W        W92950   6.852  20.557  14.786
27724W        W92951   3.050  33.869   2.236
27725W        W92952  40.830  37.983   1.425
27726W        W92953  13.335   4.948   3.704
27727W        W92954  33.664  35.802   4.166
27728W        W92955   4.366   0.374  11.227
27729W        W92956   7.656  35.342  12.911
27730W        W92957  27.514  13.066   4.584
27731W        W92958   7.627  35.124  13.797
27732W        W92959  43.292   8.681   0.873
27733W        W92960  23.606  36.199   1.889
27734W        W92961  16.562  39.420   0.811
27735W        W92962  27.175  39.292   0.349
27736W        W92963   7.204  27.467  14.486
27737W        W92964  15.390  20.058  12.968
27738W        W92965  25.003  32.326   1.144
27739W        W92966   5.150  36.879  14.995
27740W        W92967  22.972  16.331  13.894
27741W        W92968  21.616  30.458   1.404
27742W        W92969   8.844  36.566   0.448
27743W        W92970  19.050  31.394   1.655
27744W        W92971  44.363  12.550   2.227
27745W        W92972  25.069   3.499   1.710
27746W        W92973   0.648   4.437   1.348
27747W        W92974  18.201  34.985   0.494
27748W        W92975   2.491  23.008  12.341
27749W        W92976  13.845  16.082  14.231
27750W        W92977  16.501  11.318  11.607
27751W        W92978   8.915  33.525  11.698
27752W        W92979   2.884  39.932  11.251
27753W        W92980  37.498  38.840   0.446
27754W        W92981   5.831  27.565  14.656
27755W        W92982  19.481  30.412   2.343
27756W        W92983  23.411   9.785  11.360
27757W        W92984  14.539  37.130  10.766
27758W        W92985  38.086  30.604   4.589
27759W        W92986  43.396  13.638  13.354
27760W        W92987   0.426  31.637  12.391
27761W        W92988  20.580  26.101  11.689
27762W        W92989   9.581  17.295   3.339
27763W        W92990  33.544  19.968   3.691
27764W        W92991  27.594   3.621  10.715
27765W        W92992   8.328  27.903   2.207
27766W        W92993  31.499  40.168  12.077
27767W        W92994  16.836  10.231  13.470
27768W        W92995  24.721   9.581   3.324
27769W        W92996   8.412  15.128   4.081
27770W        W92997   9.357  39.281   1.227
27771W        W92998  19.746  32.156   2.644
27772W        W92999  19.347  41.316   3.721
27773W        W93000  12.978  36.980   5.005
27774W        W93001  14.326  28.012   0.314
27775W        W93002  17.687  28.418  11.029
27776W        W93003  31.142  32.814  12.516
27777W        W93004  17.115   9.405   4.661
27778W        W93005  36.834   9.415  10.098
27779W        W93006  37.517  42.838  12.849
27780W        W93007   9.839   7.222   0.720
27781W        W93008  40.407  30.592   0.230
27782W        W93009   0.498  43.308   2.195
27783W        W93010  29.600  15.054   1.785
27784W        W93011  16.556  12.202  11.217
27785W        W93012   1.822  28.971  13.449
27786W        W93013  42.125  37.915   4.564
27787W        W93014  24.723  40.420  14.885
27788W        W93015  14.425  30.927  13.848
27789W        W93016   0.764  44.311  12.385
27790W        W93017  26.709  31.206  11.607
27791W        W93018   0.841   6.681  11.685
27792W        W93019  10.864  36.869   0.335
27793W        W93020   0.216   9.863  14.871
27794W        W93021   7.305  37.998  13.914
27795W        W93022   8.186  37.520  12.822
27796W        W93023  42.262  40.878  14.439
27797W        W93024  18.631  21.268   2.212
27798W        W93025   0.554  35.563   0.871
27799W        W93026  30.967   9.155   2.883
27800W        W93027  38.547  20.510  12.199
27801W        W93028  42.498   7.750   0.419
27802W        W93029  19.421  41.844   3.790
27803W        W93030  35.455  23.782   4.031
27804W        W93031   6.448  24.958   2.652
27805W        W93032  23.162  41.549   0.218
27806W        W93033  38.430   4.257  13.940
27807W        W93034  16.269  21.189   2.707
27808W        W93035  18.734  36.529   4.578
27809W        W93036  17.648  11.305  13.933
27810W        W93037   7.293  19.759   1.871
27811W        W93038  10.181  38.431   0.673
27812W        W93039  41.668  31.448   1.764
27813W        W93040  13.847  14.728  13.093
27814W        W93041  22.090  39.134   2.729
27815W        W93042   4.526   7.272  12.636
27816W        W93043  43.555   9.771  14.940
27817W        W93044  32.607  35.494   2.711
27818W        W93045  29.854  29.186  12.720
27819W        W93046  34.061  25.989  14.722
27820W        W93047  23.507  28.751  12.552
27821W        W93048  10.178  44.231   3.209
27822W        W93049  34.108  11.396  14.420
27823W        W93050   7.625  37.991   1.339
27824W        W93051   0.593  10.913   1.889
27825W        W93052   2.648  31.416   4.605
27826W        W93053  25.661   6.934  14.334
27827W        W93054  34.847  19.761   1.872
27828W        W93055  22.134  23.101  10.552
27829W        W93056  28.664  39.247   2.761
27830W        W93057  24.530  43.871  13.312
27831W        W93058   8.150  22.916  12.035
27832W        W93059  30.397  44.245   1.787
27833W        W93060  22.752  29.665  13.518
27834W        W93061  14.806   8.299  10.812
27835W        W93062  12.667  24.584   3.721
27836W        W93063   5.387  28.887  13.845
27837W        W93064  12.045  30.174  11.444
27838W        W93065  22.239  19.755   2.231
27839W        W93066  18.693  25.341  14.356
27840W        W93067   3.180   5.333  13.046
27841W        W93068  34.204  43.769   2.778
27842W        W93069  23.667  15.682   3.003
27843W        W93070  39.879  34.088  14.466
27844W        W93071  38.884  16.588  13.852
27845W        W93072  29.881  44.829   1.241
27846W        W93073  22.630  31.342  11.664
27847W        W93074  16.377  39.750  11.228
27848W        W93075  42.001  34.684  12.039
27849W        W93076   3.279  42.313  10.590
27850W        W93077  25.971  18.101   3.849
27851W        W93078  22.501  19.231   3.800
27852W        W93079  10.540  38.294  12.018
27853W        W93080  37.079  23.324   2.074
27854W        W93081  28.825  17.264   4.587
27855W        W93082  19.388  25.320   0.728
27856W        W93083   2.128  16.339  11.970
27857W        W93084  19.172  22.439   2.050
27858W        W93085  40.310  44.249   0.509
27859W        W93086  15.209  18.214   0.831
27860W        W93087  41.033   7.711  11.278
27861W        W93088   6.339  43.344  13.499
27862W        W93089   8.036  40.705  12.917
27863W        W93090  13.115  30.042  14.612
27864W        W93091  20.892   0.430   4.720
27865W        W93092   0.318   2.408   4.604
27866W        W93093  39.526  43.432   3.358
27867W        W93094  39.663  10.710   5.072
27868W        W93095  20.998  17.231  14.791
27869W        W93096  43.212  28.938   3.333
27870W        W93097  41.031  15.703  12.960
27871W        W93098  23.414  39.804  14.118
27872W        W93099  43.776   7.845  11.587
27873W        W93100  17.667  11.684   1.363
27874W        W93101  34.359  43.604   4.242
27875W        W93102   9.561  21.554  14.810
27876W        W93103  39.733  38.538   1.874
27877W        W93104  23.043   3.299  12.370
27878W        W93105  18.207  37.940   0.915
27879W        W93106  42.880  32.168   2.736
27880W        W93107  37.911  30.013  12.113
27881W        W93108   3.404  30.966  14.769
27882W        W93109  43.580  12.476   4.199
27883W        W93110   7.808  28.012  13.807
27884W        W93111  24.234  10.834   0.655
27885W        W93112   1.288  12.252  12.967
27886W        W93113  38.767  28.047  12.311
27887W        W93114  43.215  31.020  13.865
27888W        W93115  39.329  17.843  13.413
27889W        W93116  24.031  11.105   0.271
27890W        W93117  12.979  27.615  12.448
27891W        W93118  14.893  19.575   3.580
27892W        W93119  33.775  38.769  14.341
27893W        W93120  31.913   8.398  13.881
27894W        W93121  34.142  18.197  12.658
27895W        W93122  13.575   8.508  12.674
27896W        W93123  12.233  26.212   1.450
27897W        W93124  29.084  21.248   4.573
27898W        W93125  22.486  39.489   4.399
27899W        W93126  42.860  35.910  12.340
27900W        W93127  13.381  33.570  11.196
27901W        W93128   1.189   3.692  13.870
27902W        W93129  24.220  36.294  12.173
27903W        W93130  36.926  14.119  12.052
27904W        W93131   4.124  18.703   3.255
27905W        W93132   1.727  35.808   2.781
27906W        W93133  25.120  43.535   3.524
27907W        W93134  18.205  40.776  11.570
27908W        W93135  37.481   6.106   2.604
27909W        W93136   5.171  16.442  12.217
27910W        W93137  16.551  24.091  14.276
27911W        W93138  37.756  16.184  12.285
27912W        W93139  42.610  22.301  12.150
27913W        W93140   8.562  16.095  11.287
27914W        W93141  25.241  27.456   0.719
27915W        W93142  24.081  35.036  12.474
27916W        W93143  16.327  39.690  14.901
27917W        W93144  37.809   9.791  11.068
27918W        W93145   2.373  35.292  14.415
27919W        W93146  22.505  37.082  10.347
27920W        W93147  41.546  43.004  12.890
27921W        W93148  14.370  38.320   3.163
27922W        W93149  32.411  36.050   2.866
27923W        W93150  33.943  18.252  11.226
27924W        W93151  38.683  25.190   0.420
27925W        W93152  28.441  42.032   0.766
27926W        W93153  27.814   6.814  10.948
27927W        W93154  37.639  13.117   2.757
27928W        W93155  25.130  41.799  11.206
27929W        W93156  29.699  31.014   3.478
27930W        W93157  37.470   6.057  13.235
27931W        W93158  33.497  24.603   0.402
27932W        W93159  40.041  28.320   1.777
27933W        W93160   9.237  10.642   2.743
27934W        W93161   3.414  24.218   4.114
27935W        W93162  24.757  19.823  10.391
27936W        W93163  31.922  32.765  14.439
27937W        W93164  12.939  41.362  11.079
27938W        W93165  42.083  14.445  11.647
27939W        W93166  31.018   3.327   4.050
27940W        W93167  31.001  22.550  12.746
27941W        W93168   6.347  17.700  10.846
27942W        W93169  24.517  27.987  14.861
27943W        W93170   7.870  30.819   2.323
27944W        W93171  18.797  20.791  13.990
27945W        W93172  21.784  24.437  11.718
27946W        W93173  13.636  23.553  10.915
27947W        W93174  39.086  20.748   2.190
27948W        W93175  26.024  44.706   3.143
27949W        W93176  38.756  30.344  11.203
27950W        W93177  21.701   6.425   1.207
27951W        W93178  16.274  32.040   1.468
27952W        W93179   0.226  35.816  14.316
27953W        W93180  28.446  12.056   4.657
27954W        W93181  38.961  36.247   1.401
27955W        W93182  31.894  32.037  12.035
27956W        W93183   3.666  10.123  12.841
27957W        W93184  38.998  16.624  11.641
27958W        W93185  17.653  17.875   3.785
27959W        W93186  19.345  37.068   4.162
27960W        W93187  16.550  44.213  10.401
27961W        W93188  17.635   7.801   2.621
27962W        W93189  43.032   0.282  13.141
27963W        W93190  15.676   8.947   0.728
27964W        W93191  27.077   1.824  12.415
27965W        W93192  22.178   0.916   0.802
27966W        W93193  40.445   9.704  11.593
27967W        W93194  17.730  41.691   3.208
27968W        W93195  26.997   7.127   2.239
27969W        W93196  36.768  29.592  13.916
27970W        W93197  17.905  39.901  10.862
27971W        W93198  16.471  10.920   3.240
27972W        W93199  42.334  27.659  14.426
27973W        W93200  37.072   1.004   0.869
27974W        W93201  33.465   3.318   1.375
27975W        W93202  23.561  29.187  14.010
27976W        W93203  23.042  41.614  12.125
27977W        W93204   5.217  42.487  11.655
27978W        W93205  15.565  43.169  10.184
27979W        W93206  39.457  43.437  12.421
27980W        W93207   7.761  38.925  10.544
27981W        W93208  33.014  30.652  13.342
27982W        W93209  43.761  14.310   0.501
27983W        W93210  14.204  35.092   3.160
27984W        W93211  27.430  12.091   1.514
27985W        W93212   6.916  38.442   4.616
27986W        W93213   9.765  18.651  12.700
27987W        W93214   1.154  25.215   2.835
27988W        W93215  31.375  40.283  12.804
27989W        W93216  26.417  10.236   0.912
27990W        W93217  30.964  29.422   2.583
27991W        W93218  14.196  14.898  11.625
27992W        W93219  34.468  31.153   0.217
27993W        W93220  23.041  17.594  13.579
27994W        W93221   7.095  15.835  13.982
27995W        W93222  16.386  11.476  14.066
27996W        W93223  17.700  38.852  11.461
27997W        W93224  25.754   7.790   2.266
27998W        W93225  27.461  28.973   2.806
27999W        W93226  35.610   5.211  13.911
28000W        W93227  42.413  26.966   0.155
28001W        W93228  15.091  22.270  13.664
28002W        W93229  21.559  32.987  11.754
28003W        W93230  26.849  10.259  10.981
28004W        W93231  32.344  24.762  11.105
28005W        W93232  11.826  29.031  13.411
28006W        W93233  24.444  15.714   1.931
28007W        W93234  36.285  23.632  14.203
28008W        W93235  31.466  14.100   1.456
28009W        W93236  43.538  24.139   0.711
28010W        W93237   4.704  39.858   4.514
28011W        W93238  12.755  19.083  14.862
28012W        W93239  37.043  11.074  14.453
28013W        W93240   8.573  15.125  13.410
28014W        W93241  25.773  27.179  13.274
28015W        W93242   8.793   4.844   1.843
28016W        W93243  11.808  44.225  10.668
28017W        W93244  15.709  22.688   3.247
28018W        W93245  33.539  32.367  11.234
28019W        W93246  10.879   3.283  13.569
28020W        W93247  34.859  43.056   3.756
28021W        W93248  23.623   4.669   2.215
28022W        W93249  31.519  30.493   3.240
28023W        W93250  15.280   6.365  11.590
28024W        W93251  23.787   9.862  13.924
28025W        W93252  35.684  26.235   4.084
28026W        W93253  18.764   6.299  12.894
28027W        W93254  16.209  25.520  10.636
28028W        W93255  39.988  26.021  11.184
28029W        W93256  20.672  12.874  13.479
28030W        W93257  28.995  21.689  10.785
28031W        W93258  11.845   5.403   2.904
28032W        W93259  12.842  10.172  14.476
28033W        W93260  30.661  23.084   4.617
28034W        W93261   2.379  16.545   1.219
28035W        W93262   6.242  27.197   3.128
28036W        W93263  38.039  20.794   0.462
28037W        W93264  28.042  17.048   3.698
28038W        W93265  34.057  28.931  14.322
28039W        W93266  26.671  11.977  12.969
28040W        W93267  21.530  18.967  11.512
28041W        W93268   2.307  24.615  11.605
28042W        W93269   9.236  34.326   3.285
28043W        W93270  31.613  26.273   3.093
28044W        W93271  40.442   8.353   3.239
28045W        W93272  24.912  43.111  11.541
28046W        W93273  20.577  18.614   2.781
28047W        W93274   7.871   1.354  11.357
28048W        W93275   2.418   0.047  10.749
28049W        W93276  27.232  32.011  10.782
28050W        W93277  16.516  41.557   0.831
28051W        W93278  25.661   5.782   2.383
28052W        W93279  41.595  10.480  10.394
28053W        W93280  19.310  19.658   4.317
28054W        W93281   2.984  18.498  12.057
28055W        W93282  24.991  38.492  12.051
28056W        W93283  12.202  27.558  10.787
28057W        W93284   4.759   6.881  14.981
28058W        W93285  35.381  37.502   3.679
28059W        W93286   4.664  14.865   0.919
28060W        W93287   6.643  37.768   1.273
28061W        W93288  14.839   2.356  12.713
28062W        W93289  18.293   6.129   1.926
28063W        W93290  24.137  14.133  12.837
28064W        W93291  12.387  28.130   4.551
28065W        W93292  20.964  44.345   0.810
28066W        W93293   1.079  22.360   0.999
28067W        W93294  25.079  26.306   4.695
28068W        W93295  34.195   9.741   2.556
28069W        W93296   7.632  20.320   0.261
28070W        W93297  31.579  13.066  13.561
28071W        W93298  34.424  23.572   4.800
28072W        W93299   2.408  42.760  11.873
28073W        W93300  15.808   4.340  14.282
28074W        W93301  19.731  13.777  11.988
28075W        W93302  10.368  22.537   0.736
28076W        W93303  28.964  39.907  10.301
28077W        W93304  26.523   4.532  12.051
28078W        W93305   5.752   1.623  12.213
28079W        W93306  15.804  11.825  14.610
28080W        W93307  12.857   2.299  10.749
28081W        W93308  30.729  31.079  13.476
28082W        W93309  33.003  35.807  11.468
28083W        W93310   2.396  20.143   1.196
28084W        W93311  30.566  33.048   0.736
28085W        W93312  39.884  17.471   2.308
28086W        W93313  28.861  30.296  11.661
28087W        W93314   9.600  40.438   4.059
28088W        W93315  19.694  16.280   1.160
28089W        W93316  30.579  11.346   0.298
28090W        W93317  38.152  34.317  13.653
28091W        W93318  37.698  32.354  14.806
28092W        W93319  42.160  37.760  14.085
28093W        W93320   7.659  23.600   2.323
28094W        W93321   9.235  21.482  13.354
28095W        W93322  27.731  36.904   0.924
28096W        W93323  40.530  33.527  10.624
28097W        W93324   7.041  30.508   0.435
28098W        W93325   7.861  17.042  12.536
28099W        W93326   5.966  32.946  10.829
28100W        W93327  13.283   9.410   2.330
28101W        W93328  34.513  29.922   1.286
28102W        W93329  37.693   2.360  10.676
28103W        W93330   3.848  10.619   1.797
28104W        W93331   8.936  14.112  11.239
28105W        W93332  21.057   0.287  13.095
28106W        W93333  30.760  11.089   9.839
28107W        W93334   5.348   2.047   4.407
28108W        W93335  30.634  16.929   2.188
28109W        W93336  40.327   8.367   1.235
28110W        W93337  13.911   5.543  14.419
28111W        W93338  15.313  43.248  13.837
28112W        W93339  14.058   7.957  11.395
28113W        W93340  38.398  24.015   1.672
28114W        W93341  31.291  37.484   2.779
28115W        W93342  38.335  38.784   2.472
28116W        W93343  15.230  25.747   4.511
28117W        W93344  27.676  11.200   2.579
28118W        W93345  12.922  38.993   1.749
28119W        W93346   0.862  34.460  11.111
28120W        W93347   6.474  27.163   1.344
28121W        W93348  29.027  14.070   1.810
28122W        W93349  20.538  27.232   1.282
28123W        W93350  38.425  36.992   1.378
28124W        W93351   0.323  18.528  13.764
28125W        W93352  43.413  25.477  11.160
28126W        W93353   8.163  38.064   4.968
28127W        W93354  31.158  22.057   0.025
28128W        W93355   1.022  29.799  13.405
28129W        W93356   9.877  23.131  12.328
28130W        W93357  10.906  34.861   2.782
28131W        W93358  36.986  11.319  12.015
28132W        W93359  11.130   7.450  11.678
28133W        W93360  42.791   7.776  13.777
28134W        W93361  36.492  13.404  12.609
28135W        W93362  21.855  14.022   4.489
28136W        W93363   6.993  13.600   1.928
28137W        W93364  15.702  23.239  12.526
28138W        W93365  23.464  27.733  12.524
28139W        W93366  15.912   0.816   1.942
28140W        W93367  13.256  35.259   0.522
28141W        W93368  13.689  44.539   2.489
28142W        W93369   3.369  11.161  11.110
28143W        W93370  40.309   1.955  14.260
28144W        W93371  12.343  10.366  14.420
28145W        W93372  27.652  37.846  13.936
28146W        W93373  26.099  14.439   1.462
28147W        W93374  15.076   3.713  11.191
28148W        W93375  44.987  24.536   9.650
28149W        W93376  14.252  32.394   3.604
28150W        W93377  10.340  36.147   2.430
28151W        W93378  15.165   6.895   2.760
28152W        W93379  39.545  34.360  10.747
28153W        W93380  37.712   0.585  13.801
28154W        W93381  37.873  27.467   1.916
28155W        W93382  41.827   4.890  14.138
28156W        W93383  39.636  22.113   1.302
28157W        W93384  27.602  17.237   1.036
28158W        W93385  27.647  22.404   0.778
28159W        W93386  41.375  19.028   3.201
28160W        W93387  40.150   3.537   1.278
28161W        W93388  15.104  29.588   0.366
28162W        W93389  32.495  31.094   1.959
28163W        W93390  17.314   7.201  12.393
28164W        W93391  21.094  29.669   1.860
28165W        W93392  36.504  41.039   1.282
28166W        W93393  38.545  39.647  14.014
28167W        W93394   9.820  31.087  10.902
28168W        W93395   5.924  41.788  12.669
28169W        W93396   7.118   4.775   3.140
28170W        W93397  17.303   3.294   2.695
28171W        W93398  25.349   1.081  14.772
28172W        W93399  23.625  20.632  12.405
28173W        W93400  39.348  27.494   2.882
28174W        W93401  31.941  16.459  10.665
28175W        W93402  39.879  13.628  10.976
28176W        W93403  27.462  10.783  10.836
28177W        W93404   2.381  16.066   2.529
28178W        W93405  20.987   6.263  11.078
28179W        W93406  12.166  14.051   0.754
28180W        W93407  38.568  23.762   1.273
28181W        W93408   3.918  33.431   0.399
28182W        W93409   3.458  31.347  14.324
28183W        W93410   8.451  15.226   1.803
28184W        W93411  36.127  31.694  13.513
28185W        W93412  10.835   0.718   4.177
28186W        W93413  31.498   5.752  14.757
28187W        W93414  16.788  25.206   2.851
28188W        W93415  39.000  25.723   3.192
28189W        W93416  12.282  35.363  13.460
28190W        W93417   2.834  20.382  10.739
28191W        W93418   7.463   9.424   1.233
28192W        W93419  24.703  35.017   2.433
28193W        W93420   3.151  36.674  11.623
28194W        W93421  41.283  40.008   1.083
28195W        W93422   6.146  24.745  13.468
28196W        W93423  11.741  44.889  13.285
28197W        W93424  23.796  12.836  12.024
28198W        W93425  19.031   0.323  14.222
28199W        W93426  28.397  19.618   4.240
28200W        W93427  29.209  33.643   1.808
28201W        W93428  32.566  12.544  14.282
28202W        W93429  20.716  18.663   1.006
28203W        W93430   3.818  11.657  12.514
28204W        W93431  21.223  10.278   2.754
28205W        W93432   6.091  12.634   0.722
28206W        W93433   1.536   2.210  13.203
28207W        W93434  24.507  40.820   0.331
28208W        W93435  11.935  19.732  11.122
28209W        W93436  21.729   4.337   3.174
28210W        W93437   2.715  31.555  11.653
28211W        W93438   8.786   2.403   0.368
28212W        W93439  13.866  34.873  11.590
28213W        W93440  15.116  16.805  10.633
28214W        W93441  27.579  23.317   0.393
28215W        W93442  40.444  16.409   4.755
28216W        W93443  38.887  17.111  13.820
28217W        W93444  42.535  11.385   2.873
28218W        W93445  41.900  31.424  12.954
28219W        W93446  33.696  23.815   3.438
28220W        W93447  32.576  42.415   2.884
28221W        W93448  22.693  17.725  10.948
28222W        W93449  40.904   5.298  12.086
28223W        W93450  41.753  17.549  12.119
28224W        W93451  32.041  37.933   0.385
28225W        W93452   6.031  43.034  11.474
28226W        W93453  40.939  38.074  10.701
28227W        W93454   8.326   7.401  10.655
28228W        W93455   0.320  35.626   4.541
28229W        W93456  41.956   0.194   4.814
28230W        W93457  39.519  34.387  11.670
28231W        W93458   0.614  43.998   9.840
28232W        W93459  24.546  41.467  13.750
28233W        W93460  28.962  32.516   3.194
28234W        W93461  34.931  30.676  13.263
28235W        W93462  39.407   8.201  11.809
28236W        W93463  22.514  18.684   0.148
28237W        W93464   0.305  11.990  11.181
28238W        W93465  10.307  42.792   4.248
28239W        W93466  16.174   4.561   1.781
28240W        W93467  33.835   0.943   4.098
28241W        W93468   4.764   2.976  11.718
28242W        W93469  25.479  44.780  12.404
28243W        W93470   7.829  32.590  12.984
28244W        W93471  43.767   8.214  11.957
28245W        W93472   7.131  28.991   0.953
28246W        W93473  19.240  12.793   0.145
28247W        W93474  10.880  25.587  14.398
28248W        W93475   0.651   5.101  14.496
28249W        W93476  32.130  32.376  13.435
28250W        W93477  24.535   1.329  14.307
28251W        W93478  14.609  44.317  12.022
28252W        W93479   4.460   3.520  13.910
28253W        W93480  43.490  27.686   0.020
28254W        W93481  33.654  29.529  13.492
28255W        W93482  41.218   7.944   3.189
28256W        W93483  12.826  12.413  13.568
28257W        W93484  27.166  23.059  13.364
28258W        W93485  18.787   5.040   4.984
28259W        W93486   9.271   4.290   3.250
28260W        W93487  44.329  20.143  14.629
28261W        W93488   2.339  16.069   4.660
28262W        W93489  39.454  31.483   4.564
28263W        W93490  41.785  27.981   0.786
28264W        W93491  28.842   7.318   1.715
28265W        W93492  23.688  13.591   0.338
28266W        W93493  41.023  43.487   3.690
28267W        W93494  31.229  24.071  11.181
28268W        W93495   8.893  44.479  14.019
28269W        W93496  37.290  40.295   3.479
28270W        W93497  35.237  20.720   5.206
28271W        W93498   2.814   7.440  13.592
28272W        W93499  33.422  35.755   4.621
28273W        W93500   5.866  38.706  10.701
28274W        W93501  26.413   5.840  14.319
28275W        W93502  28.103  21.601  13.903
28276W        W93503  30.020  33.735   2.700
28277W        W93504  14.871   7.382   4.222
28278W        W93505  16.642  33.489   3.825
28279W        W93506   8.046   7.939   3.064
28280W        W93507  28.600  39.945  11.477
28281W        W93508  12.260  19.549   0.809
28282W        W93509  14.366  10.785   0.574
28283W        W93510  26.296  28.122  10.756
28284W        W93511  21.623  30.515   4.551
28285W        W93512  23.933  26.702   0.566
28286W        W93513  34.819   3.720   0.787
28287W        W93514  16.035  15.153  14.400
28288W        W93515  15.710  11.425  12.388
28289W        W93516   7.613   4.172   1.667
28290W        W93517  39.908   6.023   1.044
28291W        W93518  11.356  41.940   2.732
28292W        W93519   2.313  19.811   4.841
28293W        W93520  24.287   7.504   4.098
28294W        W93521  18.778  31.543   3.253
28295W        W93522  43.857  18.130   3.626
28296W        W93523  28.257  23.632   4.019
28297W        W93524  36.821   8.994   5.111
28298W        W93525  24.120   8.283   1.781
28299W        W93526  37.890   6.911   3.545
28300W        W93527  43.097   9.656  14.750
28301W        W93528   2.917   4.959   0.648
28302W        W93529  12.412  27.342   4.098
28303W        W93530   7.883  22.429  13.932
28304W        W93531   7.411  11.958  12.430
28305W        W93532  10.063  23.317  14.463
28306W        W93533   9.370  41.059  14.343
28307W        W93534  30.383   9.288  13.895
28308W        W93535   3.270  10.366   2.878
28309W        W93536  15.839  33.123  13.006
28310W        W93537  28.180  13.899   1.109
28311W        W93538  28.974  12.003   4.647
28312W        W93539  38.969  39.600   1.818
28313W        W93540  25.541   5.415   1.503
28314W        W93541  37.845  44.989   2.881
28315W        W93542   1.340  13.914  13.001
28316W        W93543  19.618  41.124  14.099
28317W        W93544   8.576  14.658   2.355
28318W        W93545  16.090  23.962   0.912
28319W        W93546  35.473  41.893  13.440
28320W        W93547  44.395   7.467   3.847
28321W        W93548   4.192  25.392  14.984
28322W        W93549  11.092  39.794  11.544
28323W        W93550  38.956  29.137   2.417
28324W        W93551  16.845  23.431   3.726
28325W        W93552   5.444  26.879  13.421
28326W        W93553  16.596   3.294   0.409
28327W        W93554   6.321  11.326   0.805
28328W        W93555  14.715   9.402   2.560
28329W        W93556  34.889  11.196  14.554
28330W        W93557  43.121  16.292  12.383
28331W        W93558  34.763  31.463   2.125
28332W        W93559  40.905  10.246   3.826
28333W        W93560   6.293  35.407  14.066
28334W        W93561  11.601  17.560   2.171
28335W        W93562   1.998   5.359  12.018
28336W        W93563   5.231  10.871  11.157
28337W        W93564  28.095   5.326   0.967
28338W        W93565   7.387  24.989   4.414
28339W        W93566  34.650   7.413  12.910
28340W        W93567  19.355  29.144  10.659
28341W        W93568  27.174   2.323   3.368
28342W        W93569  43.965  24.043   3.777
28343W        W93570  10.721   7.968   1.162
28344W        W93571  12.621   0.801  11.744
28345W        W93572  37.985  31.143   3.756
28346W        W93573  28.444  35.551   2.800
28347W        W93574  30.669  15.234   1.869
28348W        W93575  43.050   5.486  13.547
28349W        W93576  22.004  43.747   1.678
28350W        W93577  28.075  35.746  11.916
28351W        W93578  40.551  19.430   5.530
28352W        W93579  42.837  18.567   0.764
28353W        W93580  15.334  27.325   2.243
28354W        W93581  26.124  38.824   3.786
28355W        W93582  24.926  28.015   4.679
28356W        W93583  15.885  20.031  11.110
28357W        W93584  12.363  37.316   0.619
28358W        W93585   4.891  43.687   0.813
28359W        W93586  20.518  20.951   4.199
28360W        W93587  28.562   8.873  11.515
28361W        W93588  40.516  26.990  14.948
28362W        W93589  17.246  20.243   2.387
28363W        W93590  12.086   6.696   4.407
28364W        W93591  20.452  40.412  11.223
28365W        W93592  37.111  36.437   3.785
28366W        W93593  43.492  12.167  13.444
28367W        W93594  14.332  22.983   0.308
28368W        W93595  16.237  31.004   3.814
28369W        W93596   0.231  27.114   0.188
28370W        W93597   8.647  40.915   3.294
28371W        W93598   4.421  41.532  11.103
28372W        W93599  15.114  38.443   1.399
28373W        W93600  44.124  27.940   5.036
28374W        W93601  14.244  43.372   4.251
28375W        W93602   8.955   7.912  12.581
28376W        W93603  38.123  16.246   4.245
28377W        W93604  25.015  29.640   1.760
28378W        W93605  38.881  31.626   0.239
28379W        W93606  22.288  14.878  12.096
28380W        W93607   0.440  15.652   4.038
28381W        W93608  22.121  23.924  10.921
28382W        W93609  12.408  13.110  13.455
28383W        W93610  34.793  31.699   4.797
28384W        W93611   1.443  12.632  10.687
28385W        W93612  37.880  29.104   1.532
28386W        W93613   5.926  36.034   1.731
28387W        W93614  37.021   2.236  11.679
28388W        W93615  44.350   8.692   1.896
28389W        W93616  29.492  30.056  12.781
28390W        W93617   5.419   4.797  11.587
28391W        W93618   5.089  12.507  11.426
28392W        W93619  11.687  44.182  11.215
28393W        W93620  36.422  23.612  12.377
28394W        W93621  16.298   7.667  11.223
28395W        W93622  44.258  35.106  12.019
28396W        W93623  24.802  32.604   3.170
28397W        W93624  22.515  44.040   2.800
28398W        W93625  15.535   8.631   4.379
28399W        W93626  10.916  38.089   0.804
28400W        W93627  26.669   8.832  12.958
28401W        W93628  13.247  15.541   2.304
28402W        W93629  15.647   4.540  11.478
28403W        W93630  34.531   1.720   4.170
28404W        W93631  34.323   8.217  12.610
28405W        W93632  19.082  14.786  14.425
28406W        W93633  27.200  35.672  12.940
28407W        W93634  32.809  27.125   3.639
28408W        W93635   4.013  20.249   0.336
28409W        W93636  21.617  12.644   4.530
28410W        W93637   2.782  19.635   4.034
28411W        W93638  34.402  19.286   1.752
28412W        W93639  41.643  35.013   4.012
28413W        W93640  18.635  30.451  11.492
28414W        W93641  42.711  15.131  14.364
28415W        W93642  29.473  35.048  10.869
28416W        W93643  14.189  36.064  13.485
28417W        W93644  25.059   3.993   5.033
28418W        W93645  31.664  14.867   0.947
28419W        W93646  24.568  42.812  11.809
28420W        W93647  15.067  34.834   1.235
28421W        W93648  34.504   7.595  11.227
28422W        W93649   0.735  13.352   4.502
28423W        W93650  30.222  33.823  10.811
28424W        W93651  33.098  12.843   2.741
28425W        W93652  34.415  29.225  10.803
28426W        W93653  27.257  36.851  14.507
28427W        W93654  22.775  23.306  14.300
28428W        W93655  14.654  17.134   3.593
28429W        W93656  31.349  31.494  10.990
28430W        W93657  26.792  18.920   2.798
28431W        W93658   1.848  38.131  10.651
28432W        W93659  15.820  13.665  10.667
28433W        W93660   1.036  38.835   4.090
28434W        W93661  30.043  41.494  12.058
28435W        W93662  31.956   2.014  11.694
28436W        W93663  12.038  25.021  12.583
28437W        W93664   1.154  40.912  12.009
28438W        W93665  14.050  30.570  13.844
28439W        W93666  26.302  26.253  12.547
28440W        W93667  24.935  30.913  14.465
28441W        W93668  14.212  22.759   2.666
28442W        W93669  37.031  30.051  10.441
28443W        W93670  14.570   2.490   2.220
28444W        W93671   0.720   2.557   1.350
28445W        W93672  27.988   7.304  12.707
28446W        W93673  20.038  24.525  11.986
28447W        W93674  24.670  21.682   2.247
28448W        W93675   7.552  40.801  13.067
28449W        W93676  23.396  21.848   0.049
28450W        W93677  38.130  10.656  11.139
28451W        W93678   8.752   0.941   3.305
28452W        W93679  21.483   0.441   3.965
28453W        W93680  28.508  14.842  13.535
28454W        W93681  38.426  41.480   3.312
28455W        W93682  14.579   7.882  12.533
28456W        W93683  22.245  33.750  12.015
28457W        W93684   7.320  31.969   1.942
28458W        W93685  35.504  18.083  12.551
28459W        W93686  30.916  34.862   3.173
28460W        W93687  36.292  32.694  14.921
28461W        W93688  22.054  34.115  14.313
28462W        W93689  30.088   4.008   1.823
28463W        W93690  33.925  14.238  12.910
28464W        W93691  27.426  41.195   3.600
28465W        W93692   7.131  35.063  13.819
28466W        W93693  37.074  39.024  12.017
28467W        W93694  35.982  37.819   0.183
28468W        W93695  21.616   3.861   4.019
28469W        W93696   7.384   3.384  10.513
28470W        W93697   1.884  23.488  11.799
28471W        W93698  20.758   7.080   0.026
28472W        W93699  32.981  34.741  14.805
28473W        W93700   1.568   0.506   2.821
28474W        W93701  44.419  16.012  12.110
28475W        W93702  40.336  28.167  13.970
28476W        W93703   4.702  31.574  11.586
28477W        W93704  37.560  14.219  14.741
28478W        W93705  42.352  35.896  11.601
28479W        W93706  13.765  26.308  10.757
28480W        W93707  37.588  25.673   2.326
28481W        W93708  43.354  24.646   4.812
28482W        W93709   3.775  27.024  13.874
28483W        W93710  30.456  15.379   4.138
28484W        W93711  42.883   4.877   4.679
28485W        W93712  13.368  39.890   1.907
28486W        W93713  25.703  32.157   1.870
28487W        W93714  40.368   8.559   4.137
28488W        W93715  33.243  24.066  13.814
28489W        W93716  33.441  38.438   1.491
28490W        W93717  13.587  16.625   1.354
28491W        W93718  15.137  33.348   4.606
28492W        W93719  14.160   3.979  12.999
28493W        W93720  34.579  34.555  10.768
28494W        W93721  33.685  10.980   1.894
28495W        W93722  40.865  41.268  11.159
28496W        W93723  43.500   6.915   4.651
28497W        W93724  20.010  16.138   3.185
28498W        W93725  33.675  43.546  13.829
28499W        W93726  37.580   5.433  12.007
28500W        W93727  13.186   3.404  11.694
28501W        W93728  32.173   1.984  10.368
28502W        W93729   9.741  19.673  12.264
28503W        W93730  11.792   0.094   3.727
28504W        W93731   2.050   7.596   3.385
28505W        W93732  28.618   0.860   1.809
28506W        W93733   7.461   2.593  11.571
28507W        W93734  41.960   3.313  14.963
28508W        W93735   9.734  42.743   4.939
28509W        W93736  30.929  21.234   0.331
28510W        W93737  25.159   1.600  14.908
28511W        W93738  37.493  21.119  11.073
28512W        W93739  16.455   4.752   1.021
28513W        W93740   0.391  33.047  14.617
28514W        W93741  18.338  18.609   3.105
28515W        W93742  34.934  39.092  12.632
28516W        W93743  36.618  15.682  12.513
28517W        W93744   2.369   7.846  13.960
28518W        W93745  39.950  20.114  14.918
28519W        W93746   9.324  44.660   1.627
28520W        W93747   7.421  36.038   0.925
28521W        W93748  21.524  29.476  10.537
28522W        W93749  20.578  24.728  11.185
28523W        W93750  13.115  16.012   1.498
28524W        W93751  13.921  27.945   2.883
28525W        W93752  22.074  28.494  11.139
28526W        W93753  13.286  39.384   1.792
28527W        W93754  28.673  34.961   3.625
28528W        W93755  16.568  34.353  12.861
28529W        W93756  25.970  42.069  13.554
28530W        W93757  34.293   9.992  14.384
28531W        W93758   1.409   0.460   1.899
28532W        W93759   7.936  21.047   1.004
28533W        W93760   3.328  34.774  10.291
28534W        W93761  26.249  37.763   0.292
28535W        W93762  15.112  20.052  11.825
28536W        W93763  36.384  22.600  12.174
28537W        W93764  30.062   0.306   0.998
28538W        W93765  31.430  29.721  10.067
28539W        W93766   3.911  25.665   3.412
28540W        W93767  10.124  16.559   0.736
28541W        W93768  18.237  42.993   3.149
28542W        W93769  18.271  27.479   3.330
28543W        W93770  26.284  26.107   3.262
28544W        W93771   6.016  31.073  14.030
28545W        W93772   1.898  27.656   1.306
28546W        W93773  34.011  17.116   4.511
28547W        W93774  39.092  29.918  12.087
28548W        W93775  36.541   6.887   1.404
28549W        W93776  26.558  13.332  14.421
28550W        W93777  38.876   8.273   2.344
28551W        W93778  35.454  10.668   3.854
28552W        W93779  23.198   7.801   0.523
28553W        W93780   5.247  33.589  10.696
28554W        W93781  19.798  44.341   5.155
28555W        W93782  36.078  34.629   4.579
28556W        W93783  26.792   5.441  13.393
28557W        W93784  13.263  44.912  13.461
28558W        W93785  26.475  17.049   0.349
28559W        W93786  16.279  11.634   4.393
28560W        W93787  13.353  12.497   2.362
28561W        W93788  42.406   3.668   4.838
28562W        W93789  34.136  22.142   2.344
28563W        W93790  40.805  36.164  13.931
28564W        W93791  33.522  41.880   2.625
28565W        W93792   6.363  28.008  11.070
28566W        W93793  14.773  37.893   4.569
28567W        W93794  30.717  19.639  12.936
28568W        W93795  43.610   7.365  14.046
28569W        W93796  23.768  33.397  12.090
28570W        W93797  15.016   9.149  13.491
28571W        W93798  18.709  28.662  13.439
28572W        W93799  15.884  22.628   0.901
28573W        W93800  40.444  29.976  13.081
28574W        W93801  10.323  32.550   1.263
28575W        W93802  30.460  44.174  11.570
28576W        W93803   6.181   3.675   2.741
28577W        W93804  23.483  12.153   0.905
28578W        W93805  29.766   2.403   3.789
28579W        W93806  16.695  25.835   0.902
28580W        W93807  20.112  21.074   3.155
28581W        W93808  16.854  36.469  10.843
28582W        W93809  22.285  31.407  13.450
28583W        W93810  35.003  32.760   1.195
28584W        W93811  40.124  13.243  14.330
28585W        W93812   5.394  31.358   3.059
28586W        W93813   2.323  10.302   2.278
28587W        W93814  26.721   2.386   1.661
28588W        W93815  39.402  23.154  10.976
28589W        W93816  28.100  24.634  13.010
28590W        W93817   6.914   1.178   2.219
28591W        W93818  17.662  30.211   1.286
28592W        W93819  31.099  32.415   0.263
28593W        W93820  10.370  36.660   2.647
28594W        W93821  29.083   3.885  13.356
28595W        W93822  34.060  41.928   3.176
28596W        W93823  22.003  13.397  13.578
28597W        W93824  25.801   7.864   3.123
28598W        W93825  34.458  29.543  14.444
28599W        W93826   1.552  13.756   3.223
28600W        W93827   5.358  41.789   1.872
28601W        W93828  20.916  42.755   1.381
28602W        W93829  43.845  13.306   0.392
28603W        W93830  14.217  40.218   1.921
28604W        W93831  15.859  44.974   4.972
28605W        W93832   5.152  42.085  10.713
28606W        W93833   3.198   4.676  14.435
28607W        W93834  19.329  29.868  12.462
28608W        W93835  44.235   6.262   2.224
28609W        W93836  27.981  42.279   1.827
28610W        W93837  15.132   7.855   0.416
28611W        W93838   9.686   6.830  11.639
28612W        W93839   5.022   2.295   1.390
28613W        W93840  20.784   9.262  10.525
28614W        W93841   5.245  29.665   3.703
28615W        W93842  18.903  18.229  14.876
28616W        W93843  24.598  41.047  11.162
28617W        W93844   9.445  26.747  14.957
28618W        W93845   8.095   6.793  12.032
28619W        W93846  26.532  43.565  10.614
28620W        W93847  31.195   7.073  12.062
28621W        W93848   8.883  10.589  13.500
28622W        W93849  26.986   3.195  10.985
28623W        W93850  27.141  36.046   3.194
28624W        W93851  34.013  14.641  12.593
28625W        W93852  39.948  20.753  12.475
28626W        W93853  19.932  42.466   3.274
28627W        W93854  44.749  10.668  12.896
28628W        W93855  17.687  26.556   4.449
28629W        W93856   7.849  29.098   1.446
28630W        W93857  27.833  28.727   5.458
28631W        W93858  38.075  29.532   2.831
28632W        W93859  13.774  19.174   4.656
28633W        W93860  31.712  15.641   1.402
28634W        W93861  26.632   1.236  14.801
28635W        W93862   0.899  38.420   4.385
28636W        W93863  23.287  13.683  14.488
28637W        W93864  27.195  22.468   3.752
28638W        W93865  24.505  34.441  14.383
28639W        W93866   6.328  38.052  13.433
28640W        W93867   0.301  13.559  11.156
28641W        W93868  19.839  41.335  12.081
28642W        W93869  15.765  23.724   0.445
28643W        W93870  10.985  18.251  11.999
28644W        W93871  44.213  21.100  13.113
28645W        W93872   6.623  38.131   4.303
28646W        W93873  10.720  24.790  13.351
28647W        W93874  24.715  43.778  11.949
28648W        W93875  30.017  31.845   2.900
28649W        W93876  29.378  44.379   0.588
28650W        W93877  23.102   7.873  11.962
28651W        W93878  10.971  13.139  10.322
28652W        W93879  31.128  40.410   4.648
28653W        W93880  26.133  42.367  11.540
28654W        W93881   9.747  33.530  14.495
28655W        W93882  30.022   6.324   0.655
28656W        W93883  37.060   5.360   0.723
28657W        W93884  20.614  33.891  11.590
28658W        W93885   4.887   2.789  11.241
28659W        W93886  27.936   6.933  13.823
28660W        W93887  42.431  33.891  13.945
28661W        W93888   3.189  18.741  10.781
28662W        W93889  43.282   5.951   3.839
28663W        W93890  29.313  40.982  11.879
28664W        W93891  17.208  13.592   0.048
28665W        W93892  44.658   9.316  14.249
28666W        W93893  12.315   9.637   0.757
28667W        W93894  20.869  31.070   4.046
28668W        W93895  27.704  16.126   1.118
28669W        W93896  37.957  18.131   1.300
28670W        W93897  13.255   4.855   2.782
28671W        W93898  15.047  18.045   4.932
28672W        W93899  29.786  28.869  12.325
28673W        W93900  12.872  28.622  11.645
28674W        W93901  25.101  24.048  12.118
28675W        W93902  39.382  25.158  13.962
28676W        W93903  37.590  28.455   2.327
28677W        W93904  11.429   3.878  11.602
28678W        W93905  12.605  36.585   2.743
28679W        W93906  43.678  40.531  13.545
28680W        W93907  17.118  22.695  11.908
28681W        W93908  22.196  11.649   3.341
28682W        W93909  21.220  39.893   1.372
28683W        W93910   9.277  10.834  14.178
28684W        W93911   8.436   6.899  14.320
28685W        W93912  12.017   2.690  14.175
28686W        W93913   2.734   4.476  13.342
28687W        W93914  13.661  31.067   2.734
28688W        W93915   5.899  38.683  11.644
28689W        W93916  43.629  17.321  10.696
28690W        W93917  38.112  17.106  13.428
28691W        W93918   2.279  33.586   3.226
28692W        W93919   3.408  34.220  11.483
28693W        W93920  43.015  40.938   3.172
28694W        W93921   9.431  42.353  12.552
28695W        W93922  35.921  29.442   4.134
28696W        W93923   6.408  34.684   0.469
28697W        W93924  41.611   4.655  11.122
28698W        W93925  28.464  27.901  11.087
28699W        W93926  41.511  40.413   1.413
28700W        W93927  29.585   9.828   1.912
28701W        W93928  30.013   5.048   0.371
28702W        W93929  28.935  19.427   4.239
28703W        W93930  15.127  27.111   4.035
28704W        W93931  35.321  44.244   0.891
28705W        W93932  40.154  12.276  13.154
28706W        W93933  34.094  12.184  11.503
28707W        W93934  13.490  34.929  14.712
28708W        W93935  26.261  36.990  11.735
28709W        W93936   2.026  37.553   2.549
28710W        W93937   0.262  38.011   2.315
28711W        W93938  39.955  38.469   3.915
28712W        W93939  39.017  31.148  14.928
28713W        W93940  10.018   7.968  14.502
28714W        W93941  25.375  15.363   4.232
28715W        W93942  38.802  20.153  13.578
28716W        W93943  31.075  13.148  14.794
28717W        W93944  27.060  40.056   2.317
28718W        W93945  41.298  13.935   1.880
28719W        W93946  11.126  11.110  10.714
28720W        W93947  44.056   8.650  11.888
28721W        W93948   1.249  14.867  11.899
28722W        W93949   3.472  42.553   2.713
28723W        W93950  25.530  14.628  10.796
28724W        W93951  11.290  34.690   0.942
28725W        W93952  41.846   0.536  13.150
28726W        W93953   8.159  42.010   2.293
28727W        W93954  29.398  19.296  11.552
28728W        W93955  32.750  17.652   3.698
28729W        W93956   6.632  22.018  13.755
28730W        W93957  11.068  20.067  13.857
28731W        W93958  20.340   4.370  11.640
28732W        W93959  30.150   6.933   1.166
28733W        W93960  31.362   1.043   2.245
28734W        W93961  32.486  21.779  14.832
28735W        W93962   7.506  21.990   2.683
28736W        W93963  37.569  28.670   4.631
28737W        W93964  21.257  32.145  11.557
28738W        W93965  28.066  31.883   3.101
28739W        W93966  40.999   2.842  13.936
28740W        W93967  24.982  36.411  12.702
28741W        W93968  18.209  12.802  12.172
28742W        W93969  19.074   6.187  14.743
28743W        W93970  38.409   1.289   3.614
28744W        W93971   2.149  41.434   0.641
28745W        W93972  33.634   0.274   2.702
28746W        W93973  36.643  20.272   2.858
28747W        W93974  32.102   3.252  14.440
28748W        W93975  35.134  17.260   0.275
28749W        W93976  21.318  27.222   2.417
28750W        W93977  10.390  13.913   1.280
28751W        W93978  38.740  26.327   2.616
28752W        W93979  43.821   8.670  13.520
28753W        W93980  15.252  13.321   0.197
28754W        W93981  18.562   6.865  14.374
28755W        W93982  23.567   7.421  10.651
28756W        W93983   2.973  31.197   0.410
28757W        W93984  14.025   3.772  14.799
28758W        W93985  15.695  21.740   4.793
28759W        W93986  19.094  36.030   0.964
28760W        W93987  24.335  35.026   5.034
28761W        W93988  27.191  41.120  13.535
28762W        W93989  19.082  22.997  14.452
28763W        W93990  29.900  22.123   1.658
28764W        W93991  40.356  17.856  11.205
28765W        W93992  13.657  16.811   2.304
28766W        W93993  22.164   8.362  10.566
28767W        W93994  44.769  18.300  11.893
28768W        W93995  10.065  40.291   1.696
28769W        W93996  38.535  30.684   3.301
28770W        W93997  32.822  16.588  11.950
28771W        W93998   3.923  10.203  11.903
28772W        W93999  40.615  19.046   4.566
28773W        W94000   3.947  30.594   2.149
28774W        W94001  38.043  31.122   2.580
28775W        W94002  25.142   9.101  11.527
28776W        W94003  17.035   2.351  13.583
28777W        W94004   9.204   3.047  13.314
28778W        W94005  11.601  34.459   2.306
28779W        W94006   0.924  33.073   2.313
28780W        W94007  19.666   1.712   3.742
28781W        W94008   3.761  24.105   1.775
28782W        W94009   4.904   8.438  12.114
28783W        W94010  32.486   8.121   0.261
28784W        W94011  30.512  11.076  14.849
28785W        W94012  24.455  26.250   2.076
28786W        W94013   1.714  36.624   2.489
28787W        W94014  27.379   6.170   2.388
28788W        W94015   0.856  38.426   2.861
28789W        W94016  29.354  25.454   2.285
28790W        W94017  19.051  30.081   4.107
28791W        W94018   7.216  26.745   0.044
28792W        W94019   4.481  40.270  10.548
28793W        W94020   0.843  24.788   2.828
28794W        W94021  25.559  26.078  11.554
28795W        W94022  17.134  26.683  13.592
28796W        W94023  34.622  33.926  12.487
28797W        W94024  37.088  11.483   0.836
28798W        W94025  16.849  37.511   5.249
28799W        W94026  28.538  15.403   4.138
28800W        W94027  13.133  33.129  11.094
28801W        W94028  29.475  38.355   2.092
28802W        W94029   7.793  15.119  14.063
28803W        W94030  19.738  39.140  13.004
28804W        W94031  27.153  15.756   2.674
28805W        W94032  10.086  21.258   0.450
28806W        W94033  26.718  35.871   2.397
28807W        W94034  43.559  16.929   2.300
28808W        W94035  20.052  21.245  11.207
28809W        W94036  43.373   3.289  12.393
28810W        W94037   8.317   9.208   4.743
28811W        W94038  10.818  37.499  14.879
28812W        W94039  12.848   5.088   1.973
28813W        W94040  11.150  29.186   4.511
28814W        W94041  40.952  33.860   4.344
28815W        W94042  12.742  31.450   3.110
28816W        W94043  38.438  30.364   3.760
28817W        W94044  22.150   5.232   2.280
28818W        W94045  30.156  25.513  13.971
28819W        W94046  20.294  37.382   4.100
28820W        W94047  24.776  31.882  11.582
28821W        W94048  22.678  32.946  10.851
28822W        W94049  43.728  14.252   3.148
28823W        W94050   7.285  21.992  14.425
28824W        W94051   4.497  34.280   4.620
28825W        W94052  25.217  40.881   2.724
28826W        W94053  19.139  16.606  11.611
28827W        W94054  32.322  19.693   2.426
28828W        W94055  12.109  34.595  12.964
28829W        W94056  41.523  26.110   1.245
28830W        W94057   4.777  21.310   3.725
28831W        W94058  27.930  26.281   9.848
28832W        W94059  27.943   8.213  13.076
28833W        W94060  10.245  42.779   4.762
28834W        W94061  37.485   8.422  11.831
28835W        W94062   4.263  44.522  10.313
28836W        W94063  32.938   5.287  12.037
28837W        W94064  29.175   6.953   1.512
28838W        W94065  20.282  13.788   4.357
28839W        W94066  29.878  42.329  11.597
28840W        W94067  36.328  27.693   3.221
28841W        W94068   5.100  35.059  14.256
28842W        W94069   0.348   8.225  12.899
28843W        W94070  14.132  42.569   1.729
28844W        W94071   9.961   1.928  12.147
28845W        W94072  44.072  28.236   3.276
28846W        W94073  14.728  25.192  14.050
28847W        W94074  36.505  29.504   0.605
28848W        W94075  35.721   5.007   2.245
28849W        W94076  25.182   6.847  12.396
28850W        W94077   2.447  43.689  13.497
28851W        W94078  33.133   8.635   0.788
28852W        W94079  24.631  15.574  12.040
28853W        W94080   9.218  29.071   0.314
28854W        W94081   3.816  23.686  10.712
28855W        W94082  17.166  35.936  12.527
28856W        W94083  43.260  30.810   0.535
28857W        W94084   2.317   4.754  14.025
28858W        W94085  15.056  18.639  10.817
28859W        W94086  18.608  10.950   2.583
28860W        W94087  30.615   3.427   2.658
28861W        W94088  24.106  23.039  11.142
28862W        W94089  37.966  44.417   1.142
28863W        W94090  35.309   2.409   3.475
28864W        W94091  23.438  31.795  14.847
28865W        W94092   2.548   0.550   4.040
28866W        W94093  44.337  31.586  11.540
28867W        W94094  33.103  33.921  13.146
28868W        W94095   3.384   8.793   0.759
28869W        W94096  39.975  24.836  14.321
28870W        W94097   2.407  43.254  14.404
28871W        W94098  29.176  15.596   3.359
28872W        W94099  22.163   5.721   4.748
28873W        W94100  14.166  30.690  13.349
28874W        W94101  20.565  39.444   2.259
28875W        W94102  18.720  16.329   2.524
28876W        W94103  14.615  21.534   0.745
28877W        W94104  31.078   5.732  10.697
28878W        W94105  40.460  39.990   5.074
28879W        W94106  16.258  32.343   0.654
28880W        W94107  34.853  26.604   4.134
28881W        W94108  28.509  13.094   1.304
28882W        W94109  42.818  14.352   0.428
28883W        W94110  18.584   1.625  10.352
28884W        W94111   3.379  12.274  14.481
28885W        W94112   2.269   9.098   1.841
28886W        W94113  41.252  34.101   0.943
28887W        W94114  32.453  40.611  11.991
28888W        W94115  31.607   5.228  12.667
28889W        W94116  44.417  20.799  13.997
28890W        W94117  29.658  22.615  13.926
28891W        W94118  22.036   1.782   9.934
28892W        W94119  17.006  41.507   0.719
28893W        W94120  13.789  36.006   3.344
28894W        W94121  16.999  31.146   3.326
28895W        W94122  20.308   4.225   0.553
28896W        W94123  28.025  42.443   2.420
28897W        W94124  12.167   1.103  14.349
28898W        W94125   4.917  35.693   4.258
28899W        W94126   1.187  20.623  13.008
28900W        W94127  31.233   5.381   2.301
28901W        W94128   6.111  25.427   4.112
28902W        W94129   9.952   8.186   0.689
28903W        W94130  26.546  41.819  12.881
28904W        W94131  40.018  36.317   3.237
28905W        W94132  39.093  14.285   3.696
28906W        W94133  30.515  20.922  10.676
28907W        W94134   0.008   7.412   1.784
28908W        W94135  35.978  35.704   0.954
28909W        W94136  33.449  23.267   3.212
28910W        W94137  13.768  13.205   2.350
28911W        W94138   9.913  21.649  10.627
28912W        W94139  11.197  28.576   3.175
28913W        W94140  19.107  24.104  12.935
28914W        W94141  27.084  12.100  12.110
28915W        W94142  29.908  44.829  11.666
28916W        W94143  16.059   6.219   1.516
28917W        W94144  37.709  11.591  14.902
28918W        W94145  25.523  26.675  11.615
28919W        W94146  10.865  17.131  10.453
28920W        W94147  34.421  28.905  11.206
28921W        W94148  41.314   9.701   1.776
28922W        W94149  26.261   3.787  10.864
28923W        W94150  24.624  22.959  11.498
28924W        W94151  16.746   3.436  13.120
28925W        W94152   4.509  38.116   4.318
28926W        W94153  37.870  15.270   0.855
28927W        W94154  22.923  35.403  14.270
28928W        W94155   5.397   0.279  14.268
28929W        W94156  14.572   9.887   1.889
28930W        W94157  12.839  26.089  10.511
28931W        W94158  17.270  28.883   1.950
28932W        W94159  29.419  18.779  11.592
28933W        W94160  43.294  40.651  12.066
28934W        W94161  22.790  36.005   2.852
28935W        W94162  40.985  35.615  14.401
28936W        W94163  21.029  17.560   4.714
28937W        W94164   5.085  41.836  12.008
28938W        W94165  15.948  30.239  13.461
28939W        W94166  20.518  29.056   3.164
28940W        W94167   9.633   8.754   4.172
28941W        W94168  22.618  19.745   1.749
28942W        W94169   8.582  43.177   1.544
28943W        W94170  21.442   6.716  13.264
28944W        W94171  20.055   5.193   3.392
28945W        W94172   9.359  16.046  13.029
28946W        W94173   7.975  30.423   0.936
28947W        W94174  27.676   4.028   0.082
28948W        W94175   4.737   6.486   0.333
28949W        W94176   7.756   0.292   2.298
28950W        W94177  35.998   8.099   0.936
28951W        W94178   3.523  41.807   2.409
28952W        W94179  30.157  26.932  14.452
28953W        W94180  29.957  29.363  12.213
28954W        W94181  13.427  25.597   4.246
28955W        W94182  25.668   9.835  14.489
28956W        W94183  44.553  12.207  13.359
28957W        W94184  16.278  39.662   1.850
28958W        W94185  35.423  24.937   3.167
28959W        W94186   5.375  19.104  13.444
28960W        W94187   6.056  11.368  12.114
28961W        W94188  41.500  29.307  10.853
28962W        W94189  22.977   1.392  13.550
28963W        W94190  37.779  37.532  14.350
28964W        W94191   5.311   6.266  11.674
28965W        W94192  14.259  25.536   4.087
28966W        W94193  18.857  38.217  10.741
28967W        W94194  16.520  42.230   2.885
28968W        W94195  38.914   9.417   3.213
28969W        W94196  39.635  10.910   3.795
28970W        W94197  43.792  36.416   3.704
28971W        W94198  43.441  31.148   1.459
28972W        W94199   6.160   6.114   0.077
28973W        W94200   7.934  43.029   0.770
28974W        W94201  19.578  34.069  12.273
28975W        W94202  38.257  25.588  14.871
28976W        W94203  14.637  39.470  14.525
28977W        W94204  18.661  33.102   4.908
28978W        W94205  34.926  38.344  12.824
28979W        W94206  18.923   1.635   2.993
28980W        W94207   5.836  17.910   1.786
28981W        W94208  39.494  39.937  12.210
28982W        W94209  22.672  19.769   0.839
28983W        W94210  28.111   8.726   0.919
28984W        W94211  30.162  21.644  14.405
28985W        W94212  23.648  35.059   0.342
28986W        W94213  24.973  15.856   2.666
28987W        W94214  28.704  21.205  14.706
28988W        W94215  32.008  38.490  13.279
28989W        W94216  34.882   6.381   3.722
28990W        W94217  28.841  23.558  10.587
28991W        W94218  41.201  18.549   3.066
28992W        W94219   6.862   3.804   3.626
28993W        W94220   4.198   2.266  12.064
28994W        W94221  39.600  30.208  13.953
28995W        W94222  35.583  38.550  13.493
28996W        W94223  25.488  38.939   3.180
28997W        W94224   7.305  37.508   1.244
28998W        W94225  22.061  11.865   4.363
28999W        W94226  17.372  10.272   5.248
29000W        W94227  39.541   8.364  10.282
29001W        W94228  12.895  27.603   4.153
29002W        W94229  26.797   4.699   4.126
29003W        W94230   5.939  16.942   4.021
29004W        W94231  22.806   7.561   4.150
29005W        W94232   4.480   9.107   3.774
29006W        W94233   7.215  21.001   1.270
29007W        W94234   6.321  40.094  10.336
29008W        W94235  15.398  41.273   1.809
29009W        W94236  44.533  35.265   2.166
29010W        W94237   3.836  20.653   1.203
29011W        W94238  14.901   7.197   2.426
29012W        W94239  28.115  31.856   4.472
29013W        W94240   0.665  30.632  13.239
29014W        W94241  26.099   2.466   4.200
29015W        W94242   6.644  37.686   1.776
29016W        W94243  24.263   9.642   1.177
29017W        W94244  26.113  10.759  13.769
29018W        W94245  18.103  26.663   4.174
29019W        W94246  16.054   7.373  12.451
29020W        W94247  26.091  23.976   3.283
29021W        W94248  40.248  15.812   3.546
29022W        W94249  12.766  41.943   3.613
29023W        W94250  43.424  18.115   1.418
29024W        W94251  38.985   8.606   4.933
29025W        W94252  43.961   0.416  10.739
29026W        W94253   2.215  27.465   2.691
29027W        W94254   7.152  37.423  12.959
29028W        W94255  43.401  18.350  10.551
29029W        W94256   4.327   6.873   0.223
29030W        W94257  42.378   3.004   4.870
29031W        W94258   0.721  10.233  12.913
29032W        W94259  21.222  13.156   0.974
29033W        W94260   4.945  12.856  14.762
29034W        W94261  21.021   4.998   1.488
29035W        W94262  26.198  36.821   2.658
29036W        W94263  12.307  22.089   2.754
29037W        W94264  36.035   3.377   1.700
29038W        W94265  37.729  29.910   4.096
29039W        W94266   2.394  23.023   0.344
29040W        W94267  13.188  40.371   1.847
29041W        W94268  23.201  30.992   0.922
29042W        W94269  26.694  35.043  12.501
29043W        W94270   6.205  36.506  11.221
29044W        W94271  38.646  36.500  14.875
29045W        W94272  24.031  38.079  11.015
29046W        W94273  43.172   3.506  10.948
29047W        W94274   4.187  41.433  12.921
29048W        W94275  13.817   4.189   2.724
29049W        W94276  23.052  36.922   2.494
29050W        W94277  20.946   2.087  12.047
29051W        W94278  34.120  42.347   3.753
29052W        W94279  29.989  35.160   1.889
29053W        W94280  25.670  30.158   2.886
29054W        W94281  18.667  37.057  14.523
29055W        W94282  39.505   1.017  14.025
29056W        W94283  29.026   4.504   1.440
29057W        W94284  14.067   8.355   4.630
29058W        W94285  41.908  41.017  14.042
29059W        W94286  16.582  39.879  13.570
29060W        W94287  38.474  23.599  14.880
29061W        W94288  41.307  38.410   4.046
29062W        W94289  40.977  20.999   0.602
29063W        W94290  11.248  43.470  14.858
29064W        W94291  18.113  15.714  13.914
29065W        W94292  37.933  35.005  12.627
29066W        W94293  23.271  41.082  11.512
29067W        W94294  39.017  20.040   0.092
29068W        W94295  40.442  39.282   4.202
29069W        W94296  19.519  27.848  14.902
29070W        W94297  32.042   8.423   2.251
29071W        W94298  11.373  23.595   4.839
29072W        W94299  42.455  20.742   4.632
29073W        W94300  33.353   1.504  12.486
29074W        W94301  36.629  33.624   1.365
29075W        W94302   1.463  31.531   2.618
29076W        W94303   3.947  34.457   0.507
29077W        W94304   1.986  37.836   1.748
29078W        W94305  36.210  11.725  14.538
29079W        W94306  30.627  19.607   1.730
29080W        W94307  37.645  33.092   2.668
29081W        W94308  21.655  30.709   0.958
29082W        W94309  40.295   7.179  13.867
29083W        W94310  22.327  11.380   2.885
29084W        W94311   1.517  18.327  12.915
29085W        W94312  32.424   5.954   0.270
29086W        W94313   9.561  20.172   2.078
29087W        W94314   3.133  30.728  12.197
29088W        W94315  19.211  38.811   3.730
29089W        W94316  18.124  44.043   0.727
29090W        W94317  17.075   0.405   4.384
29091W        W94318  30.949  42.836  13.914
29092W        W94319  22.616   0.863  12.172
29093W        W94320  33.522  20.307   0.737
29094W        W94321  43.501  42.922   2.131
29095W        W94322  29.963  19.750  13.626
29096W        W94323  32.655  24.751  13.371
29097W        W94324  17.446  26.120   3.059
29098W        W94325  13.780  21.705  13.501
29099W        W94326   9.189  14.176  12.575
29100W        W94327   2.835  24.546  11.463
29101W        W94328  25.108  13.607  13.859
29102W        W94329  35.537  22.169  11.920
29103W        W94330   5.152  41.893   0.812
29104W        W94331  42.180  16.228   2.471
29105W        W94332  34.922  16.805   2.603
29106W        W94333   8.731   2.262   2.910
29107W        W94334  40.136  39.254   1.388
29108W        W94335  28.775   0.182   4.694
29109W        W94336  40.834  30.150  12.278
29110W        W94337  15.277  29.863   4.182
29111W        W94338   0.659  11.875  14.021
29112W        W94339  34.521   0.436   3.797
29113W        W94340  31.945  31.079  13.122
29114W        W94341   7.779  31.943  14.706
29115W        W94342  34.854  34.659   2.412
29116W        W94343  37.640  26.516  12.576
29117W        W94344   8.682  44.249   0.898
29118W        W94345  28.570   3.731   4.513
29119W        W94346  25.545  35.374   3.704
29120W        W94347  38.527  17.681  11.960
29121W        W94348  40.641  31.500  14.782
29122W        W94349  26.118  39.873   3.653
29123W        W94350  30.022  26.257   3.787
29124W        W94351  29.495  17.033   5.107
29125W        W94352  33.160  20.367   3.885
29126W        W94353   3.151  26.223  14.018
29127W        W94354  24.985  39.577   0.705
29128W        W94355  43.618  14.666  11.064
29129W        W94356   9.208  22.183  10.652
29130W        W94357  26.824  15.532   3.059
29131W        W94358  23.192   3.438   1.760
29132W        W94359  12.908  30.251  11.161
29133W        W94360   1.973   1.757   2.903
29134W        W94361  42.923  37.254  13.437
29135W        W94362   6.289   3.698   3.475
29136W        W94363  12.277  37.473  13.642
29137W        W94364  13.687   7.005   1.431
29138W        W94365   4.463  11.308  13.990
29139W        W94366  37.345  34.333  14.781
29140W        W94367   1.891  19.438   3.080
29141W        W94368  26.690  17.282  14.930
29142W        W94369   6.189  28.972  14.834
29143W        W94370   6.440  14.205  12.979
29144W        W94371  20.398  14.305   4.120
29145W        W94372  33.057  23.638  12.852
29146W        W94373  31.606  19.759  14.041
29147W        W94374  37.410  37.753   0.415
29148W        W94375  43.597  14.726   0.252
29149W        W94376  16.140  35.182  11.967
29150W        W94377  31.158  33.141  14.864
29151W        W94378  39.019  39.948   2.561
29152W        W94379  19.119  43.931   2.234
29153W        W94380  30.618  13.059   0.019
29154W        W94381  28.056   9.677   0.771
29155W        W94382   1.987  21.723  14.438
29156W        W94383  32.810   0.709   2.561
29157W        W94384  23.816  42.819  13.765
29158W        W94385  36.795   4.357  12.958
29159W        W94386   2.729  17.350  14.874
29160W        W94387   4.667  15.538   1.703
29161W        W94388  38.186  36.000  13.732
29162W        W94389  22.762  14.650   1.208
29163W        W94390  31.813  14.761   4.972
29164W        W94391   2.715   8.227  11.001
29165W        W94392   8.710  15.621  11.108
29166W        W94393  32.984  35.252  12.498
29167W        W94394   0.484  28.060  13.971
29168W        W94395   7.556  15.107  14.509
29169W        W94396   7.347  43.206  13.675
29170W        W94397  30.492   2.705   0.793
29171W        W94398  18.685  30.874  13.357
29172W        W94399   5.289  16.975   0.010
29173W        W94400   3.822   2.242  11.518
29174W        W94401   6.591  20.100   0.471
29175W        W94402  10.344  36.442  11.909
29176W        W94403  11.492  24.631  10.743
29177W        W94404  28.871  22.212   3.571
29178W        W94405  11.152  24.131  11.560
29179W        W94406  23.615  22.688   1.517
29180W        W94407  15.049  21.665  12.036
29181W        W94408   7.851  12.947   1.942
29182W        W94409  17.172  29.469  13.299
29183W        W94410  34.625  38.051  10.776
29184W        W94411  44.518  32.892  11.164
29185W        W94412  44.756  17.377  11.070
29186W        W94413  23.398   7.600  12.262
29187W        W94414  16.330   5.997   2.817
29188W        W94415   0.437  29.228  12.998
29189W        W94416  25.983  22.133  14.492
29190W        W94417  24.834  31.837   1.292
29191W        W94418  43.269   9.437   0.848
29192W        W94419  12.176  15.116   1.896
29193W        W94420  11.688  22.695   2.624
29194W        W94421  10.314  21.528   2.885
29195W        W94422  26.054  14.067   3.786
29196W        W94423   7.587  39.303  11.629
29197W        W94424  25.041   8.246  14.289
29198W        W94425  43.660  37.965  13.317
29199W        W94426  15.760  44.560  11.421
29200W        W94427  19.139  22.643   3.787
29201W        W94428  36.458  43.970   0.504
29202W        W94429  29.931  34.169  11.626
29203W        W94430   8.237   2.326   2.316
29204W        W94431  13.704  17.370   4.141
29205W        W94432  22.002  26.572   1.307
29206W        W94433  16.822  32.659   2.398
29207W        W94434  34.951  16.675   4.487
29208W        W94435   9.871  36.777  13.887
29209W        W94436  43.463  35.058  13.026
29210W        W94437   7.109  37.023   3.207
29211W        W94438  27.111  22.319   0.700
29212W        W94439  19.707  39.440   4.310
29213W        W94440  15.011  24.266  11.350
29214W        W94441   1.951   5.566  11.561
29215W        W94442  40.854  29.442   2.268
29216W        W94443  14.165  43.858   2.870
29217W        W94444  22.301   3.524  14.811
29218W        W94445  20.563  26.764  10.374
29219W        W94446  12.616   0.371   1.797
29220W        W94447   6.774  20.802   1.381
29221W        W94448  14.786  35.338  11.407
29222W        W94449  21.625  20.229  12.082
29223W        W94450  16.690   7.869  14.986
29224W        W94451  17.502   4.178   3.694
29225W        W94452  34.274  30.399   2.413
29226W        W94453  28.808  15.317   3.673
29227W        W94454   0.257  25.161  11.170
29228W        W94455  11.870  12.784   4.218
29229W        W94456  12.866  16.965  12.099
29230W        W94457  39.128  11.798  13.987
29231W        W94458  15.128  28.527  10.358
29232W        W94459  13.723  33.455   9.886
29233W        W94460  23.470   5.657  14.276
29234W        W94461  17.110  23.548  10.666
29235W        W94462  19.551   1.216   3.273
29236W        W94463  38.912  15.841   2.272
29237W        W94464  41.695  10.725  14.278
29238W        W94465   8.479   1.900   1.154
29239W        W94466  33.584   4.193  14.459
29240W        W94467  24.698   4.035  11.939
29241W        W94468  10.209  14.301  11.638
29242W        W94469  14.431  28.010   2.765
29243W        W94470   1.354  29.414   2.285
29244W        W94471  21.516  15.495  10.232
29245W        W94472  12.440   7.711   4.134
29246W        W94473  40.730   1.281  12.680
29247W        W94474  34.427  15.685   2.989
29248W        W94475  26.990  41.935   4.743
29249W        W94476  42.922   7.891   9.596
29250W        W94477   1.339   0.706   0.527
29251W        W94478   7.727  11.478  14.853
29252W        W94479  31.190  40.946  11.872
29253W        W94480  36.843  16.742   3.093
29254W        W94481  17.281  29.540  14.386
29255W        W94482  32.081  24.395  12.551
29256W        W94483  40.473  37.776  10.848
29257W        W94484  38.565  21.072  14.548
29258W        W94485  17.782  10.838   2.166
29259W        W94486   6.438   6.173  11.217
29260W        W94487  40.467  30.115  13.590
29261W        W94488  28.648  28.663   0.286
29262W        W94489  17.695  42.862  12.089
29263W        W94490  13.490   2.825  14.443
29264W        W94491  24.873  16.597  10.771
29265W        W94492  28.424  14.676   1.189
29266W        W94493   6.878  28.900  12.082
29267W        W94494  44.172  27.208  10.091
29268W        W94495  36.114  14.167  13.074
29269W        W94496  22.778  23.950   3.699
29270W        W94497  36.237  18.661  13.440
29271W        W94498  43.943  44.165   2.728
29272W        W94499  44.882   8.294   3.539
29273W        W94500   5.316  43.593  10.098
29274W        W94501   2.742  19.531  12.063
29275W        W94502   7.981  43.144   2.289
29276W        W94503  12.258  38.407  10.743
29277W        W94504  40.044  42.350  11.202
29278W        W94505  39.453   0.911   3.686
29279W        W94506  35.842   1.104   2.380
29280W        W94507  41.829   6.826   3.146
29281W        W94508  44.504  13.823  11.633
29282W        W94509  25.662  15.104   3.742
29283W        W94510   4.903  18.584   1.398
29284W        W94511  32.122  14.580  14.747
29285W        W94512  41.770  18.367   1.615
29286W        W94513  32.590  39.542  13.344
29287W        W94514  15.641   9.172  13.513
29288W        W94515  35.887  39.266  13.989
29289W        W94516   2.492  14.270  14.202
29290W        W94517  24.266   6.276  10.665
29291W        W94518  14.238  12.659  11.704
29292W        W94519  12.198  11.577   3.125
29293W        W94520   9.081   2.750   3.184
29294W        W94521   0.010  23.554  10.749
29295W        W94522  24.234  38.334  13.454
29296W        W94523   5.801  27.609   2.830
29297W        W94524   6.300  12.911   1.559
29298W        W94525  13.029  30.926   3.467
29299W        W94526  21.047  37.368  13.414
29300W        W94527   3.774  30.424  11.544
29301W        W94528  27.754  31.184  14.995
29302W        W94529  13.212  13.481   0.081
29303W        W94530  31.162  13.771  12.486
29304W        W94531  27.506  33.852   4.259
29305W        W94532  28.442  12.696   4.105
29306W        W94533   8.817  22.210   2.199
29307W        W94534  37.897  15.583   4.123
29308W        W94535  28.631  38.437  11.510
29309W        W94536  34.126  31.976  11.216
29310W        W94537   1.433  34.434   4.341
29311W        W94538  18.585  25.483  10.679
29312W        W94539  17.817  35.064   0.132
29313W        W94540  24.452  35.171  12.799
29314W        W94541  27.909  39.391   4.804
29315W        W94542  19.401  22.349  14.114
29316W        W94543  37.886   2.500  12.047
29317W        W94544  33.583  27.447  12.482
29318W        W94545  23.413  19.158  14.349
29319W        W94546   9.755  29.882  11.584
29320W        W94547  35.066  17.312   2.813
29321W        W94548  40.665   1.644   2.683
29322W        W94549  31.895   0.721   1.314
29323W        W94550  30.928  27.931   2.714
29324W        W94551  16.313  31.305  14.592
29325W        W94552   9.661  34.287   3.613
29326W        W94553  16.159  17.471   2.891
29327W        W94554  30.955   6.132   1.904
29328W        W94555  42.812   9.768  10.213
29329W        W94556  42.374  21.820   3.245
29330W        W94557   2.756  36.977   2.221
29331W        W94558   3.223  39.024  11.186
29332W        W94559  12.170   2.369   1.741
29333W        W94560  39.478  13.332  11.460
29334W        W94561  24.666   7.802  12.067
29335W        W94562  27.561  17.232  13.039
29336W        W94563  40.552  11.655   0.793
29337W        W94564  32.140  30.515  11.148
29338W        W94565  41.036   2.898  14.895
29339W        W94566  14.790  25.422   3.269
29340W        W94567  29.093  21.929  12.615
29341W        W94568  41.695  16.197   2.305
29342W        W94569  17.293  18.200   4.200
29343W        W94570  10.586  44.934   0.403
29344W        W94571  40.331   9.123  12.555
29345W        W94572   9.856  40.887   4.062
29346W        W94573  18.353  33.974   0.918
29347W        W94574  36.451   4.829   4.688
29348W        W94575  41.553  30.577  11.414
29349W        W94576  15.165  27.726  11.513
29350W        W94577  31.028  16.354   2.781
29351W        W94578  39.348  24.979  10.558
29352W        W94579  42.499   7.248  12.556
29353W        W94580  16.332  24.033  10.755
29354W        W94581  28.527  42.890  14.531
29355W        W94582  34.318  14.861   1.509
29356W        W94583   6.288  21.550   2.763
29357W        W94584   0.418   2.690  11.148
29358W        W94585   5.865   4.014   0.403
29359W        W94586  12.064  25.193  14.440
29360W        W94587  12.249  34.420  12.018
29361W        W94588   9.709  29.357   4.567
29362W        W94589   8.224  11.964   2.170
29363W        W94590   6.596   9.865   2.593
29364W        W94591   2.365   6.008   9.687
29365W        W94592  23.300  23.724   2.662
29366W        W94593  36.869   7.923   2.108
29367W        W94594  25.980  29.000  12.110
29368W        W94595   6.034  19.620   3.875
29369W        W94596  12.226  20.053   2.549
29370W        W94597  24.784  26.463  14.591
29371W        W94598  15.665  35.952   3.090
29372W        W94599  38.141  32.288   1.806
29373W        W94600  10.634  18.718  12.645
29374W        W94601  29.942  18.550   0.928
29375W        W94602  27.208  40.956   3.177
29376W        W94603  35.647  23.629   0.532
29377W        W94604  25.776   0.243   4.073
29378W        W94605  20.671  44.350   4.107
29379W        W94606  11.314   9.885  12.029
29380W        W94607  28.077  24.869   3.231
29381W        W94608  10.804  23.122  12.614
29382W        W94609   0.390  22.036   1.483
29383W        W94610   0.657   4.878   3.268
29384W        W94611  33.194   3.985   0.378
29385W        W94612   7.235  42.221   4.610
29386W        W94613  24.923  20.275  12.641
29387W        W94614   4.750   4.385  12.530
29388W        W94615  18.379   6.884  11.120
29389W        W94616  43.191  11.116   1.866
29390W        W94617  27.560  27.256  13.284
29391W        W94618  41.780  26.898   1.868
29392W        W94619  34.091  30.122  13.612
29393W        W94620  37.889   8.157  13.594
29394W        W94621  15.697  36.024  10.318
29395W        W94622  17.712   9.367  13.857
29396W        W94623  18.342  42.913  14.889
29397W        W94624  37.639  38.327  13.345
29398W        W94625   0.196  18.195   2.396
29399W        W94626  24.356  43.246  13.065
29400W        W94627  24.694  29.235  14.471
29401W        W94628  28.624  43.933   0.421
29402W        W94629   6.400  27.110   0.554
29403W        W94630   2.735  16.838   2.581
29404W        W94631  44.707   3.811   1.407
29405W        W94632   0.568   1.221   0.140
29406W        W94633  31.071   4.908   2.430
29407W        W94634   6.745  21.069   2.170
29408W        W94635   4.827  15.685  10.035
29409W        W94636  32.635  34.797  11.895
29410W        W94637   8.920  25.787  14.091
29411W        W94638  28.882   7.613   4.193
29412W        W94639  20.514  17.523   1.533
29413W        W94640   4.520  37.531  10.077
29414W        W94641   0.347  36.606   2.360
29415W        W94642  43.898  36.207   0.798
29416W        W94643   9.339  43.908  14.960
29417W        W94644  42.885  29.638  14.271
29418W        W94645  38.874  40.548  10.699
29419W        W94646  29.002  17.872   2.874
29420W        W94647  32.047   0.310  14.028
29421W        W94648  11.058  14.437   4.108
29422W        W94649  37.022  10.145   3.667
29423W        W94650  35.781  18.102  13.992
29424W        W94651  28.776  35.290  12.929
29425W        W94652  16.129  24.686  13.270
29426W        W94653  15.596  28.670   0.312
29427W        W94654   4.024  20.979  11.759
29428W        W94655  33.196  26.636  12.535
29429W        W94656  40.347  25.758  11.428
29430W        W94657  32.379  13.892  13.308
29431W        W94658   4.410  13.792  12.614
29432W        W94659  41.564   3.968   0.370
29433W        W94660  24.492  25.764   4.093
29434W        W94661  28.757  37.500  11.746
29435W        W94662  40.979  29.613   3.819
29436W        W94663   5.702  28.747   2.431
29437W        W94664   0.316  41.445  13.894
29438W        W94665  23.511  30.591  13.383
29439W        W94666  39.407   5.165  14.346
29440W        W94667  11.492  15.539  10.677
29441W        W94668   2.875  39.520  12.423
29442W        W94669  42.497  10.873   2.761
29443W        W94670  28.947  20.304  10.768
29444W        W94671  40.089  14.906   3.418
29445W        W94672  15.295  28.606   4.461
29446W        W94673  28.437   1.034   4.342
29447W        W94674  30.643  10.771  14.429
29448W        W94675  20.049  13.632  11.053
29449W        W94676  19.697  43.039   2.652
29450W        W94677   6.941  44.834  13.537
29451W        W94678   9.945   3.529  13.316
29452W        W94679  32.028  29.639   0.258
29453W        W94680  29.197  43.520  12.860
29454W        W94681  19.713  23.673  12.528
29455W        W94682  32.745  14.593   3.688
29456W        W94683  39.103   2.923  11.015
29457W        W94684  31.034   7.495  12.931
29458W        W94685  17.209  31.479   3.823
29459W        W94686  31.899  25.898   2.874
29460W        W94687  24.793  44.821   3.741
29461W        W94688  12.050  23.503   1.304
29462W        W94689  29.136  11.388   4.384
29463W        W94690  16.158   3.739   0.252
29464W        W94691  27.902  40.542  11.984
29465W        W94692  40.006  19.098  14.709
29466W        W94693  40.022  18.779   4.573
29467W        W94694   2.051  28.557  12.948
29468W        W94695  43.562   5.277   4.488
29469W        W94696  10.513  38.146   3.114
29470W        W94697  27.456  41.849   2.734
29471W        W94698  35.060  30.030  13.895
29472W        W94699  16.627  24.050  12.899
29473W        W94700   8.151  36.339   2.183
29474W        W94701  20.497  27.162  14.082
29475W        W94702  43.506  29.080  13.324
29476W        W94703  44.049   8.551  13.070
29477W        W94704  12.783  24.218  10.733
29478W        W94705  18.701   3.667   1.406
29479W        W94706  13.116  30.068   4.580
29480W        W94707   4.456  44.209  12.418
29481W        W94708  13.989  32.895   3.479
29482W        W94709   1.275  31.800   9.553
29483W        W94710   6.687  10.687   0.335
29484W        W94711  35.459  23.837   1.481
29485W        W94712  26.928  43.396  12.983
29486W        W94713  28.843  15.834   3.658
29487W        W94714   0.189  26.044  11.220
29488W        W94715  36.427  21.774   0.296
29489W        W94716   4.197   0.967   0.271
29490W        W94717  16.292  44.445   0.443
29491W        W94718  41.444  17.623  10.694
29492W        W94719   8.314  10.124  12.986
29493W        W94720  24.526  20.418   4.833
29494W        W94721  33.681  19.753  11.144
29495W        W94722  22.148  31.511   1.675
29496W        W94723  30.551   5.170   1.481
29497W        W94724  38.515  21.325  13.715
29498W        W94725  16.191  27.111  12.502
29499W        W94726  25.528  21.107  13.350
29500W        W94727   5.913  16.998   0.852
29501W        W94728  32.705  39.810  12.543
29502W        W94729  34.074  21.289   1.722
29503W        W94730   2.400  44.189  14.023
29504W        W94731  22.703   9.038  10.712
29505W        W94732  31.182   7.875   2.375
29506W        W94733  37.903  22.191  14.482
29507W        W94734  23.740  26.404   1.289
29508W        W94735  10.826  19.484   0.009
29509W        W94736  36.445  23.190   3.362
29510W        W94737  37.812  42.016   2.796
29511W        W94738   0.048  10.999  14.800
29512W        W94739  17.860  40.575  11.215
29513W        W94740  18.264  15.749  10.733
29514W        W94741  43.771  33.189  12.620
29515W        W94742  23.271  21.233  10.801
29516W        W94743  33.035   7.007  10.765
29517W        W94744   3.469  33.399  10.357
29518W        W94745   6.496  42.301   0.024
29519W        W94746  10.300  38.783   3.688
29520W        W94747   0.245  10.778   2.252
29521W        W94748   6.369  23.058  12.033
29522W        W94749  15.153  35.356   4.037
29523W        W94750   1.722  25.066   1.158
29524W        W94751  33.288  36.095   1.141
29525W        W94752  43.043  16.824  13.881
29526W        W94753  22.282   8.905   4.139
29527W        W94754   3.724  21.868  11.173
29528W        W94755  36.897  16.467  11.824
29529W        W94756   2.448  19.961  13.838
29530W        W94757  13.795  15.678   3.126
29531W        W94758  37.396  32.642  13.841
29532W        W94759  32.879  44.805  13.584
29533W        W94760  44.883  11.759  14.422
29534W        W94761  25.104  17.913   3.478
29535W        W94762  28.467  30.899   1.745
29536W        W94763  33.077  36.814   2.119
29537W        W94764  17.741  15.627   2.024
29538W        W94765  37.622  19.806  11.004
29539W        W94766  27.668  15.609  11.427
29540W        W94767  40.492  23.043  11.544
29541W        W94768  27.251  31.083  11.047
29542W        W94769  37.709  39.193   4.744
29543W        W94770  36.225  10.955  14.898
29544W        W94771  26.520   3.430   3.803
29545W        W94772  29.671  23.944  12.983
29546W        W94773  41.854   9.185  11.690
29547W        W94774   2.201  22.127   2.806
29548W        W94775  36.008  29.663  11.037
29549W        W94776  38.481  25.590  12.953
29550W        W94777  31.770  42.396  11.232
29551W        W94778  12.615   1.782  13.644
29552W        W94779  35.018  42.989  13.996
29553W        W94780  16.254   1.890   0.322
29554W        W94781  35.901   8.085  13.421
29555W        W94782  29.444  42.497   2.308
29556W        W94783  36.425  34.631   3.333
29557W        W94784  21.241  35.364   1.295
29558W        W94785  33.558  21.268   3.048
29559W        W94786  37.044  23.609  11.614
29560W        W94787  41.788   9.834  14.871
29561W        W94788  35.545  34.342  12.583
29562W        W94789  14.715  28.479  14.032
29563W        W94790  44.020  24.324  13.101
29564W        W94791  36.527  17.096   2.810
29565W        W94792   9.409   0.245  10.989
29566W        W94793  24.511  12.981  13.532
29567W        W94794  30.272  12.717  13.365
29568W        W94795  38.804  27.530   1.647
29569W        W94796  21.720  17.364  13.526
29570W        W94797   8.958  13.718  12.413
29571W        W94798  33.798  16.700  12.290
29572W        W94799  37.014  20.587   0.409
29573W        W94800  40.852  35.573  13.198
29574W        W94801   4.885  27.002  12.424
29575W        W94802   8.770  38.456   3.443
29576W        W94803   2.928  13.202   4.192
29577W        W94804  32.624  27.740  14.806
29578W        W94805  38.864  32.641  10.442
29579W        W94806  16.494   5.178   0.283
29580W        W94807  19.395   0.901   1.744
29581W        W94808  19.626  27.026   4.516
29582W        W94809  35.142  36.867   2.248
29583W        W94810  11.290   3.995  13.830
29584W        W94811  16.020   2.470   2.443
29585W        W94812  37.469  14.522   4.126
29586W        W94813  25.014  22.777  11.139
29587W        W94814  10.706  24.334   2.975
29588W        W94815   4.363  19.262  10.632
29589W        W94816  28.512  26.735   2.111
29590W        W94817   5.787  15.588  12.589
29591W        W94818  20.950  22.561  11.297
29592W        W94819   7.167  11.137   1.808
29593W        W94820  25.055   3.435  10.767
29594W        W94821  26.042  21.039   3.129
29595W        W94822  36.487   8.338   0.895
29596W        W94823   6.302  33.117   1.940
29597W        W94824  13.229   5.007   0.029
29598W        W94825  15.051  42.763   0.845
29599W        W94826  17.624  23.093  13.849
29600W        W94827  31.167  25.886  10.984
29601W        W94828   7.752  18.620   2.357
29602W        W94829   0.204  22.288  11.105
29603W        W94830  34.016  22.505   0.700
29604W        W94831   2.533  27.411  12.419
29605W        W94832  36.301  23.123  14.052
29606W        W94833   1.500  42.115   2.384
29607W        W94834  19.134  42.894   4.555
29608W        W94835  26.071   1.622   2.899
29609W        W94836   1.227  11.122   3.182
29610W        W94837  40.528  36.520  12.053
29611W        W94838   9.294  15.748  11.762
29612W        W94839   4.936  44.273   0.802
29613W        W94840   2.845  32.047  11.508
29614W        W94841  18.550  39.314   3.618
29615W        W94842  20.053  31.040   0.926
29616W        W94843  35.363  42.900   3.713
29617W        W94844  28.089   2.158   3.741
29618W        W94845  14.189  41.908  13.809
29619W        W94846  13.155  10.731  13.541
29620W        W94847  38.904  30.487  14.354
29621W        W94848   1.347  19.732  13.311
29622W        W94849   6.559  24.063   1.875
29623W        W94850  22.356  33.354  10.769
29624W        W94851   1.881  14.144   4.513
29625W        W94852  16.322   4.176  14.338
29626W        W94853  43.510  23.337   4.123
29627W        W94854   4.999  31.948   0.806
29628W        W94855  10.891   6.159  11.493
29629W        W94856   5.548  43.417   9.656
29630W        W94857  38.215   8.699  13.137
29631W        W94858  31.363  37.312   0.350
29632W        W94859  41.090  25.640   1.973
29633W        W94860  19.989  26.031  14.534
29634W        W94861  14.108  29.862   2.958
29635W        W94862  39.219  32.149  13.859
29636W        W94863  44.136  44.339  11.659
29637W        W94864   6.194  10.872   1.043
29638W        W94865  35.939  17.169   2.216
29639W        W94866  40.543  27.514   0.029
29640W        W94867  44.581  14.329  12.449
29641W        W94868  12.200  19.991  10.768
29642W        W94869  14.463  11.838  14.554
29643W        W94870  13.079  26.130   4.248
29644W        W94871  21.074  24.250   4.609
29645W        W94872  15.598  29.796   1.695
29646W        W94873  30.662  42.618  11.561
29647W        W94874  27.784  26.514  12.985
29648W        W94875  42.332  20.463   5.520
29649W        W94876  34.805  15.805  10.301
29650W        W94877  24.436  14.849  10.731
29651W        W94878  21.013  25.144  14.732
29652W        W94879  19.197  34.018   0.778
29653W        W94880   3.594  13.700   3.657
29654W        W94881  17.745   3.276   2.327
29655W        W94882  30.494   8.423  14.308
29656W        W94883  17.585  15.221   4.224
29657W        W94884  29.304   5.415  13.476
29658W        W94885  40.789  18.136   0.225
29659W        W94886  13.483   7.881   4.225
29660W        W94887  44.372   9.674   0.070
29661W        W94888  12.660  22.611   4.610
29662W        W94889  23.987  43.176   4.804
29663W        W94890   4.824  25.713   4.609
29664W        W94891   2.526   3.827   4.177
29665W        W94892  32.033  30.190   0.364
29666W        W94893  40.823  15.400  10.758
29667W        W94894  20.460   6.320  12.362
29668W        W94895   8.206  44.924  14.336
29669W        W94896   3.779  14.796  11.988
29670W        W94897  11.171  36.106  12.740
29671W        W94898  44.075  11.998  14.727
29672W        W94899  25.044  37.280  11.244
29673W        W94900  33.539  21.379  12.206
29674W        W94901  21.565  16.116  14.316
29675W        W94902  14.530  34.197   3.505
29676W        W94903  36.723  22.776   0.339
29677W        W94904  34.963  17.057  11.476
29678W        W94905  21.914   1.035   1.619
29679W        W94906  42.786  37.947   0.315
29680W        W94907  32.531  37.486   3.116
29681W        W94908  40.025  19.176  12.828
29682W        W94909   1.892  20.575   1.723
29683W        W94910  18.922   7.751  10.648
29684W        W94911  31.468  36.505  13.830
29685W        W94912  22.001  10.625   3.145
29686W        W94913   9.229  22.003  13.386
29687W        W94914   8.925  30.336  12.027
29688W        W94915  36.178  31.011   2.408
29689W        W94916   6.696  13.494   0.176
29690W        W94917  33.533  26.668  12.049
29691W        W94918  11.357  34.963  14.117
29692W        W94919  23.480  10.269   3.686
29693W        W94920  30.079  39.304  13.863
29694W        W94921  17.267  13.761   4.576
29695W        W94922   4.189   4.265   1.986
29696W        W94923   6.129  30.152  11.154
29697W        W94924  42.716   3.517  11.860
29698W        W94925  21.124  18.305  13.888
29699W        W94926   5.641  31.222  11.034
29700W        W94927  13.200  40.740   0.452
29701W        W94928  39.976   6.276   0.608
29702W        W94929  34.995  40.661   5.272
29703W        W94930   5.399  30.852  11.746
29704W        W94931  14.283  21.484   1.872
29705W        W94932  10.677  26.567   2.383
29706W        W94933  15.388  32.900   4.635
29707W        W94934  31.030  22.305  14.179
29708W        W94935   3.882  37.398  11.672
29709W        W94936  20.521  18.795  11.554
29710W        W94937  24.785  26.932   0.132
29711W        W94938   4.240  42.007   0.719
29712W        W94939  44.366  34.413   2.807
29713W        W94940  15.126  31.840  14.312
29714W        W94941  35.651  39.043   3.695
29715W        W94942  37.380   3.767  11.813
29716W        W94943   4.451  43.781   2.623
29717W        W94944  26.161  23.717   4.550
29718W        W94945  29.626   5.031  12.020
29719W        W94946  35.106  40.327   2.717
29720W        W94947  34.189  26.192   5.397
29721W        W94948  23.858  30.001   0.385
29722W        W94949  42.932  41.361  12.848
29723W        W94950   7.234  40.727   4.234
29724W        W94951  17.327  36.402  13.766
29725W        W94952  44.007   9.001  14.787
29726W        W94953  38.522   2.736  13.933
29727W        W94954   3.452  13.472  11.588
29728W        W94955   8.798  18.148   3.677
29729W        W94956  12.691  14.985   4.878
29730W        W94957  28.672   1.422   3.543
29731W        W94958  36.968  35.951   0.337
29732W        W94959  27.803  31.465  14.334
29733W        W94960  24.874   4.431  12.811
29734W        W94961  27.921  15.378  11.039
29735W        W94962  43.688  38.906  13.917
29736W        W94963  33.619  37.650   1.854
29737W        W94964   2.302  21.149   1.631
29738W        W94965  34.014   6.668  14.774
29739W        W94966  28.274  17.177  12.482
29740W        W94967   9.776  44.797  10.927
29741W        W94968  26.328  34.228  14.504
29742W        W94969  44.965  22.258   5.039
29743W        W94970  21.079   9.493   2.124
29744W        W94971  28.909  33.893  12.983
29745W        W94972   2.356  14.688  12.494
29746W        W94973   4.677   0.698  14.015
29747W        W94974  23.274  37.482  10.614
29748W        W94975   2.420   8.840   4.328
29749W        W94976  18.088  41.124   1.780
29750W        W94977  44.539  29.468   2.371
29751W        W94978  43.848  30.978   3.204
29752W        W94979   4.211  17.627   0.123
29753W        W94980  12.335  36.015  11.392
29754W        W94981  29.684   7.260   1.008
29755W        W94982  22.940  31.658  14.810
29756W        W94983  31.183  42.061   1.631
29757W        W94984  14.293   3.902  12.072
29758W        W94985  12.197  14.372  12.971
29759W        W94986  39.456  10.170   3.339
29760W        W94987  27.951  14.939   3.425
29761W        W94988  10.241  21.569  13.470
29762W        W94989  35.461   3.527   4.901
29763W        W94990   9.980  38.295   1.132
29764W        W94991  37.441   9.451  12.003
29765W        W94992  40.655  37.556  13.114
29766W        W94993  18.605  36.495  13.443
29767W        W94994   7.794  16.355   4.830
29768W        W94995  25.907  18.939  10.591
29769W        W94996  38.473  32.034  12.565
29770W        W94997   8.944  39.414  11.166
29771W        W94998  18.733  17.114  11.271
29772W        W94999  22.983  43.700   1.200
29773W        W95000  34.813  25.614  14.948
29774W        W95001  12.368  41.334   3.631
29775W        W95002  42.637   7.893   4.221
29776W        W95003  24.880  26.723   3.323
29777W        W95004   9.082  32.481   2.036
29778W        W95005  21.997  25.286  12.523
29779W        W95006   7.837  15.239   2.268
29780W        W95007  19.412  10.324   3.593
29781W        W95008   3.960   6.540   1.826
29782W        W95009   8.809  38.723  11.804
29783W        W95010   0.994  25.870   4.545
29784W        W95011   5.263  16.798   1.370
29785W        W95012  44.433   2.655  13.529
29786W        W95013  35.487  24.074   0.761
29787W        W95014   3.897   8.864   2.738
29788W        W95015  21.574  36.450   2.761
29789W        W95016  19.166  28.519   4.937
29790W        W95017  44.440  18.640   0.744
29791W        W95018  39.601  35.934  13.158
29792W        W95019   5.110  13.858  12.858
29793W        W95020   1.765  26.435  11.087
29794W        W95021   3.826   5.960  11.563
29795W        W95022  20.138   2.216  13.223
29796W        W95023   7.396  39.090  13.373
29797W        W95024  14.928   0.295  14.882
29798W        W95025  23.567  42.850  14.736
29799W        W95026   7.922  40.756  14.861
29800W        W95027  36.497  15.418   3.249
29801W        W95028  23.133  24.090  10.806
29802W        W95029   4.470   9.607   1.345
29803W        W95030  28.648  42.513   0.779
29804W        W95031  41.827  32.999   1.049
29805W        W95032  22.212   8.309  11.477
29806W        W95033  39.933   7.265   0.444
29807W        W95034   1.764  10.629  13.202
29808W        W95035   3.824  28.558   4.783
29809W        W95036  33.884  23.212   3.472
29810W        W95037   9.846  27.439   2.827
29811W        W95038  41.395  40.685   0.311
29812W        W95039   7.800  20.509   2.633
29813W        W95040  34.823   8.745  12.120
29814W        W95041  26.427   6.628   2.572
29815W        W95042  21.813  12.328   2.168
29816W        W95043  24.949  27.711   4.248
29817W        W95044  12.633  31.141  10.728
29818W        W95045  21.093   4.392  12.225
29819W        W95046  10.378   9.431   1.156
29820W        W95047  29.025  20.882   4.223
29821W        W95048   4.657   3.481   5.178
29822W        W95049   6.466  36.815   1.518
29823W        W95050  24.789   1.732  12.109
29824W        W95051  30.781  16.813   1.388
29825W        W95052  12.145  29.092   1.328
29826W        W95053  22.900  28.165  14.866
29827W        W95054  39.352  11.600   0.424
29828W        W95055  11.203  23.209   1.375
29829W        W95056  44.794  24.172  11.947
29830W        W95057   7.409   4.730   3.546
29831W        W95058  38.849   6.165   2.738
29832W        W95059  15.706  27.402  12.569
29833W        W95060  27.012  23.712  14.327
29834W        W95061  25.467  28.502  12.436
29835W        W95062  23.253  43.257   0.256
29836W        W95063  38.873  38.866  11.371
29837W        W95064  11.418  38.286   0.792
29838W        W95065   7.310  10.209   4.219
29839W        W95066  31.534  17.205  12.511
29840W        W95067  39.773  32.047  13.870
29841W        W95068  24.296  11.206   1.782
29842W        W95069   0.472  35.451  11.495
29843W        W95070  35.643  38.280   2.896
29844W        W95071  17.326  13.738  10.928
29845W        W95072  27.362   3.635  11.600
29846W        W95073   7.613  29.504   2.169
29847W        W95074   3.344  38.105  12.593
29848W        W95075  27.972  30.699  12.884
29849W        W95076  40.354  12.387  11.311
29850W        W95077   2.204  32.288   2.756
29851W        W95078   1.260  24.602  11.869
29852W        W95079  40.781  41.728  10.919
29853W        W95080  27.011  27.936   0.311
29854W        W95081   3.871   6.601   3.107
29855W        W95082   1.855  22.736   2.558
29856W        W95083  44.291  31.012   1.006
29857W        W95084  26.237  16.630  11.014
29858W        W95085   3.471   1.913  10.622
29859W        W95086  12.197  42.490  12.992
29860W        W95087  37.988  27.122   2.264
29861W        W95088  11.170  40.746   4.764
29862W        W95089   0.134   8.228  11.547
29863W        W95090  22.110  23.226  13.668
29864W        W95091  17.778   3.925   4.684
29865W        W95092  35.575   2.483  10.772
29866W        W95093  31.468  30.548  13.587
29867W        W95094  24.062  32.266  13.475
29868W        W95095  22.036   7.417  14.049
29869W        W95096  23.441   7.032   1.857
29870W        W95097  14.307   3.945   1.743
29871W        W95098  30.812  41.192   4.121
29872W        W95099  29.736  27.078  14.776
29873W        W95100  24.187   6.956   1.425
29874W        W95101   0.069   4.934   4.125
29875W        W95102  32.665   4.812  10.944
29876W        W95103  41.964  17.841   0.846
29877W        W95104  25.428  19.190  14.780
29878W        W95105  10.356  16.174  11.217
29879W        W95106  39.357  17.976  10.720
29880W        W95107  43.399  16.787   1.565
29881W        W95108  19.647  12.414  11.875
29882W        W95109  13.590  15.099  12.821
29883W        W95110  42.548  18.102   1.555
29884W        W95111  40.494  14.173  12.368
29885W        W95112  32.062   4.351   0.045
29886W        W95113  25.494  34.894  14.094
29887W        W95114  36.335   6.801   0.056
29888W        W95115  15.590  27.459  11.596
29889W        W95116  12.314  21.177  12.443
29890W        W95117  22.854  15.110  14.807
29891W        W95118   6.403  29.196   1.397
29892W        W95119  40.511  28.619  12.824
29893W        W95120  16.665  27.603   3.003
29894W        W95121  38.026  16.747  14.861
29895W        W95122  10.336   1.664   0.227
29896W        W95123  26.568   8.704  14.466
29897W        W95124  17.801  29.904  11.638
29898W        W95125  24.607  24.452  13.005
29899W        W95126  20.077   2.907  13.896
29900W        W95127  16.840  35.879   3.768
29901W        W95128  35.951  40.288  13.938
29902W        W95129  28.630  12.645  13.374
29903W        W95130  19.093  44.984   0.070
29904W        W95131  42.237  17.250  13.999
29905W        W95132   0.654  30.182   2.661
29906W        W95133  34.530  39.013  10.749
29907W        W95134   1.950  22.264   3.742
29908W        W95135  26.270  43.756  10.198
29909W        W95136   5.443   8.330   4.494
29910W        W95137  21.512  10.281  13.950
29911W        W95138   2.497  17.263  13.541
29912W        W95139  36.934  40.469  14.035
29913W        W95140  20.315  34.922  13.730
29914W        W95141  28.307  34.784  10.288
29915W        W95142  31.121  17.902   2.944
29916W        W95143  18.341   5.925  11.133
29917W        W95144  18.436  15.185   2.469
29918W        W95145  42.864   4.807  10.479
29919W        W95146  43.125  28.856  13.048
29920W        W95147  17.532  23.142  14.922
29921W        W95148  30.109  23.247  14.437
29922W        W95149  43.840  14.286  12.236
29923W        W95150  15.568  31.456   2.777
29924W        W95151  33.608   4.707  14.361
29925W        W95152   4.195   2.849   1.453
29926W        W95153  20.255   7.913  10.442
29927W        W95154   3.810  43.298  12.409
29928W        W95155  23.180  41.439   1.826
29929W        W95156  39.999  36.787   3.448
29930W        W95157  33.349  22.770  11.907
29931W        W95158  28.539  41.448  14.546
29932W        W95159   6.948  10.685   3.643
29933W        W95160  29.445  34.005  11.817
29934W        W95161  44.341  21.752   2.598
29935W        W95162  10.120  42.230  13.610
29936W        W95163  44.917  16.094  12.379
29937W        W95164  24.733   5.950  12.732
29938W        W95165  13.367  18.249   4.081
29939W        W95166  42.758  41.075  10.660
29940W        W95167  26.417   1.076  13.337
29941W        W95168   1.059   6.233  14.379
29942W        W95169   3.959  21.139   3.259
29943W        W95170  23.495   4.024  11.103
29944W        W95171   1.660  25.191   0.294
29945W        W95172  10.576  41.412   5.114
29946W        W95173  38.123  32.956  13.464
29947W        W95174  16.170  28.234   1.870
29948W        W95175  38.674  13.886   1.893
29949W        W95176   2.399  31.978  13.294
29950W        W95177  16.299  43.127  12.283
29951W        W95178   4.705   1.474   3.865
29952W        W95179  23.984  25.886   4.202
29953W        W95180  43.254   1.219   0.277
29954W        W95181  20.273  23.850   1.122
29955W        W95182   4.200  17.052  10.547
29956W        W95183  29.103   6.158  13.009
29957W        W95184  35.236  28.896  10.733
29958W        W95185  23.616   2.789  14.924
29959W        W95186   8.686  16.110  12.646
29960W        W95187  21.137  41.390  14.253
29961W        W95188  38.061  40.525   4.177
29962W        W95189   9.851  37.657   3.325
29963W        W95190  44.033  31.692  13.893
29964W        W95191  10.209  23.704  12.259
29965W        W95192  22.998  29.058   1.288
29966W        W95193  32.115  38.303   3.155
29967W        W95194  19.600   8.618   2.204
29968W        W95195   2.482  36.052  13.019
29969W        W95196  27.289   0.608   9.865
29970W        W95197   5.757  29.588  12.129
29971W        W95198  37.966  24.273   1.846
29972W        W95199  28.006  35.764   4.574
29973W        W95200  15.380   8.990   3.210
29974W        W95201  30.164  35.468  14.450
29975W        W95202  12.512  34.579   2.914
29976W        W95203  27.803  36.855   4.295
29977W        W95204  28.911  39.982   0.637
29978W        W95205  18.338  14.834   0.388
29979W        W95206  44.854  32.345  14.034
29980W        W95207   4.224   0.809  13.056
29981W        W95208  27.799   4.172  13.106
29982W        W95209   5.913  20.063  13.339
29983W        W95210  13.380  33.745   0.500
29984W        W95211  35.458  31.042   0.333
29985W        W95212  14.366  26.716   1.643
29986W        W95213  31.494  14.090  12.189
29987W        W95214  20.690  33.586  10.980
29988W        W95215   1.029   6.744   1.422
29989W        W95216   6.967  22.917   2.672
29990W        W95217  25.329   4.080  14.032
29991W        W95218   3.207   3.710  14.295
29992W        W95219  43.323  33.076  12.002
29993W        W95220  30.197  32.414  11.147
29994W        W95221  33.365   6.445  11.600
29995W        W95222   5.784   2.563  14.042
29996W        W95223  29.744  19.417   3.713
29997W        W95224  35.301  10.040  12.288
29998W        W95225  12.782  15.076  14.439
29999W        W95226  43.386  12.036   1.809
30000W        W95227  39.987  21.880   3.650
30001W        W95228  23.449  11.722   1.726
30002W        W95229   9.911   7.080  12.040
30003W        W95230  32.735  25.762   3.530
30004W        W95231  27.950  36.920  10.240
30005W        W95232   2.023  17.571  10.278
30006W        W95233  36.536  37.391   1.387
30007W        W95234  27.462  28.698   5.080
30008W        W95235  25.468  43.117  10.753
30009W        W95236  16.749  37.398  11.890
30010W        W95237  28.979   3.709  10.670
30011W        W95238  34.417  12.376   1.302
30012W        W95239  42.317  38.606   4.042
30013W        W95240  17.534  37.903  11.054
30014W        W95241  25.249  36.582   3.216
30015W        W95242   4.683   5.886  12.551
30016W        W95243   9.757  19.784  11.256
30017W        W95244  16.940   7.407  12.697
30018W        W95245   0.963   1.334  14.826
30019W        W95246   6.382  28.545  12.417
30020W        W95247  34.571  41.846   4.221
30021W        W95248  42.009  17.190   4.074
30022W        W95249  23.999  26.226  10.841
30023W        W95250  12.298  32.627  12.891
30024W        W95251   1.972  15.320  13.870
30025W        W95252  25.662  43.007   3.097
30026W        W95253   7.888  25.261  12.093
30027W        W95254   1.751  35.544  10.540
30028W        W95255  16.812  18.129   0.020
30029W        W95256   9.428   1.593   1.224
30030W        W95257   4.933  40.266  10.191
30031W        W95258  41.049  42.965   4.397
30032W        W95259  28.517  12.756  13.850
30033W        W95260   8.612  42.478   1.492
30034W        W95261  11.387  44.336   4.283
30035W        W95262  38.088  11.177  14.376
30036W        W95263  12.362  20.455   0.703
30037W        W95264  21.075  13.310   4.073
30038W        W95265  30.320  19.754   1.321
30039W        W95266  12.095  12.743  11.830
30040W        W95267   2.791  40.948   0.459
30041W        W95268  42.211  27.413   3.324
30042W        W95269   9.211  41.481  10.754
30043W        W95270  28.470   5.828  14.347
30044W        W95271  39.422  20.130   4.591
30045W        W95272  20.863  11.410   0.750
30046W        W95273  40.542   3.344   5.072
30047W        W95274  20.092   8.767   2.338
30048W        W95275  27.938  12.047   3.671
30049W        W95276  35.100   3.438   3.114
30050W        W95277  21.510  25.467  12.465
30051W        W95278   9.246  40.777   1.295
30052W        W95279   8.885  24.690   4.652
30053W        W95280   8.626  32.171  11.975
30054W        W95281   7.619  14.482  13.365
30055W        W95282  40.882  16.111   2.722
30056W        W95283   8.305   6.236   4.499
30057W        W95284  16.129  28.407  12.945
30058W        W95285  11.822  21.653   1.407
30059W        W95286  15.816   2.755   4.867
30060W        W95287  11.695  19.805   4.244
30061W        W95288  24.895  28.006   3.808
30062W        W95289  29.134  11.287   3.875
30063W        W95290  20.007  38.119  12.967
30064W        W95291  15.036   2.753  13.933
30065W        W95292  38.672  16.094  11.980
30066W        W95293  41.396  32.140   4.553
30067W        W95294   1.189  34.021  11.217
30068W        W95295  20.244  20.701   0.498
30069W        W95296  40.921  40.312   3.557
30070W        W95297  30.890  15.361  14.660
30071W        W95298  16.155  30.483  12.009
30072W        W95299  40.133  11.463   3.174
30073W        W95300  27.730  38.928  14.416
30074W        W95301  39.499  20.219  11.812
30075W        W95302  21.261  15.608   3.509
30076W        W95303  23.047  26.452   2.664
30077W        W95304   2.818   7.387   2.412
30078W        W95305   2.443   4.985   3.333
30079W        W95306  39.903  18.235  14.039
30080W        W95307   2.763  31.703   2.196
30081W        W95308  41.921   5.235  10.732
30082W        W95309  43.355  10.423  10.539
30083W        W95310   8.844  19.960   1.816
30084W        W95311  24.734  35.174   4.106
30085W        W95312  22.340  32.080   2.374
30086W        W95313  28.591  25.141  11.994
30087W        W95314  31.842   5.829   2.840
30088W        W95315  36.578  23.812   2.123
30089W        W95316   8.613  34.728  12.490
30090W        W95317  33.351  33.175  11.588
30091W        W95318  13.781  41.869  12.082
30092W        W95319  40.997   2.221   4.207
30093W        W95320  24.528  29.006  12.818
30094W        W95321  27.660  18.814   1.430
30095W        W95322  31.537   3.681   3.136
30096W        W95323  11.834  27.364   4.090
30097W        W95324  21.763   7.460  12.182
30098W        W95325  21.622  13.033   2.657
30099W        W95326   4.609  31.823  11.146
30100W        W95327   6.355   8.021  10.628
30101W        W95328  10.780   1.963   3.655
30102W        W95329  17.287  25.741   1.658
30103W        W95330  27.585  24.169  11.470
30104W        W95331  25.452  18.783  14.447
30105W        W95332  29.054  26.572   0.871
30106W        W95333  33.320  17.222  13.950
30107W        W95334  22.029  22.925   3.324
30108W        W95335   5.553  39.925  12.674
30109W        W95336  41.350  19.170   5.111
30110W        W95337  43.693  31.380  12.970
30111W        W95338   5.956  29.135   2.194
30112W        W95339  40.243   5.649   0.950
30113W        W95340  20.420  31.007   2.283
30114W        W95341  11.749  30.746   9.680
30115W        W95342  21.832  10.350  12.842
30116W        W95343  17.243  32.658  14.726
30117W        W95344  33.737  40.430  13.001
30118W        W95345  12.659  22.704   1.625
30119W        W95346  13.845  25.952   4.585
30120W        W95347  33.665   5.897   4.915
30121W        W95348   8.427  42.939   2.614
30122W        W95349   6.925   8.946  13.046
30123W        W95350  30.546   0.978  11.168
30124W        W95351   1.836  36.067  10.492
30125W        W95352  10.162  20.813   3.598
30126W        W95353  31.725  20.584  13.536
30127W        W95354  33.671  32.001  14.800
30128W        W95355   7.058  43.456   9.336
30129W        W95356  13.154   0.520   0.941
30130W        W95357  44.276   4.655   1.253
30131W        W95358  37.602  43.362  13.083
30132W        W95359  24.417  40.509  14.039
30133W        W95360  14.656   7.235  13.882
30134W        W95361   7.533   8.483   0.824
30135W        W95362  43.249  33.366  12.661
30136W        W95363  35.967   1.875   0.271
30137W        W95364  10.084  33.054   1.372
30138W        W95365  13.138   7.752   2.796
30139W        W95366   7.062  27.165  11.623
30140W        W95367   2.342  21.079  10.187
30141W        W95368  12.267   9.924  12.144
30142W        W95369  24.637   9.105  12.858
30143W        W95370  37.820  19.205   3.629
30144W        W95371   2.316   3.881  11.403
30145W        W95372  39.303  27.552   1.533
30146W        W95373  30.064  39.148  11.871
30147W        W95374   3.218   8.331   4.233
30148W        W95375  27.459  27.134   2.269
30149W        W95376  16.292  37.961  11.462
30150W        W95377  31.713  24.420  10.345
30151W        W95378  22.166   9.165  14.512
30152W        W95379  11.934  16.557   2.223
30153W        W95380  43.918  40.098   2.431
30154W        W95381   8.514  37.435  13.640
30155W        W95382   3.731  40.645  11.863
30156W        W95383  44.916   2.374  12.636
30157W        W95384   9.592  35.252   3.810
30158W        W95385  34.666  12.158   4.992
30159W        W95386  42.564  20.285  13.912
30160W        W95387  13.099  36.389  11.654
30161W        W95388  39.094   0.445  11.097
30162W        W95389   1.226  27.635   2.726
30163W        W95390   0.521  25.776  11.517
30164W        W95391  23.561  21.994   3.623
30165W        W95392  24.190  31.887   4.127
30166W        W95393  41.781   0.799  10.671
30167W        W95394   6.086  41.027  13.319
30168W        W95395  31.570  10.636  11.213
30169W        W95396  40.124  34.967   3.733
30170W        W95397   2.005  36.838   0.384
30171W        W95398   7.157   5.966  13.546
30172W        W95399  30.611  22.242   0.849
30173W        W95400  38.531  27.967   4.893
30174W        W95401  42.720  16.531   0.867
30175W        W95402  25.473   0.569  14.805
30176W        W95403  17.058  38.852   0.404
30177W        W95404  32.354   8.352  12.493
30178W        W95405  40.738  34.467  12.971
30179W        W95406   4.258   2.190  13.965
30180W        W95407  31.623   0.258   1.259
30181W        W95408  29.496  31.156  11.082
30182W        W95409   2.339  42.583   0.089
30183W        W95410   3.391   6.428   3.668
30184W        W95411  22.529  20.281   2.636
30185W        W95412  23.585  13.738  12.999
30186W        W95413  38.769  40.783   4.586
30187W        W95414  10.704  34.548  14.314
30188W        W95415  31.597  18.271  10.723
30189W        W95416  42.596   4.793   4.267
30190W        W95417  43.292  21.026   1.705
30191W        W95418  41.826  13.173  14.974
30192W        W95419  12.301   8.004   3.721
30193W        W95420  25.206  26.481  14.277
30194W        W95421  27.902  38.563   3.897
30195W        W95422   8.377  32.975   4.440
30196W        W95423   9.269  29.596   3.366
30197W        W95424   1.896  24.316   0.550
30198W        W95425  40.101  30.150  10.889
30199W        W95426  37.847  35.064   4.547
30200W        W95427  44.552  17.130   2.591
30201W        W95428  32.876  31.867   1.675
30202W        W95429  36.756  36.587   4.140
30203W        W95430   0.820   3.378  12.637
30204W        W95431  26.724  24.480   2.918
30205W        W95432  15.374   7.766   3.550
30206W        W95433  24.496  35.835  14.007
30207W        W95434  32.396  10.326   2.705
30208W        W95435  13.619   9.785  12.656
30209W        W95436  21.960  16.177  12.023
30210W        W95437  17.242  26.996  14.038
30211W        W95438  40.031  12.751   4.278
30212W        W95439  29.147  12.842   1.248
30213W        W95440  30.593  28.192  12.634
30214W        W95441  10.736  32.936   0.758
30215W        W95442  15.895  17.228  10.536
30216W        W95443  14.776  10.060  12.066
30217W        W95444  41.472   8.541   2.567
30218W        W95445  35.047  43.267   4.593
30219W        W95446   4.372  30.666   2.456
30220W        W95447  30.098  23.199   1.139
30221W        W95448  15.315  40.809  12.880
30222W        W95449  39.563  29.685  11.985
30223W        W95450  31.391  38.965   5.039
30224W        W95451  27.190  34.380  10.760
30225W        W95452  33.367  11.633   3.472
30226W        W95453  40.139  17.222   2.849
30227W        W95454  41.780  42.255   2.242
30228W        W95455  21.184  15.152  13.517
30229W        W95456  39.946  41.791   0.293
30230W        W95457   2.908  14.618  12.576
30231W        W95458  20.627  29.956  13.741
30232W        W95459   7.695   2.406   4.498
30233W        W95460  41.722  44.294  12.620
30234W        W95461  16.545   2.265   3.235
30235W        W95462   1.082   4.627   0.871
30236W        W95463  20.275   6.761   2.203
30237W        W95464  18.193  17.349   1.244
30238W        W95465  23.174  37.041  13.329
30239W        W95466  26.098   5.364  12.184
30240W        W95467  26.528  21.552  10.882
30241W        W95468  30.210  29.477  14.074
30242W        W95469  34.058  29.521   2.303
30243W        W95470  14.033  28.501  14.636
30244W        W95471   1.588  26.100  12.600
30245W        W95472   7.880  22.200   4.773
30246W        W95473  36.266  28.021  14.676
30247W        W95474   2.255  27.170   3.145
30248W        W95475  24.997  26.722  10.722
30249W        W95476  35.990  28.212   2.050
30250W        W95477  43.956   5.014   1.422
30251W        W95478  12.890  33.414  13.723
30252W        W95479  21.550  22.705   4.862
30253W        W95480  39.056  38.736  11.854
30254W        W95481   8.091  29.555  13.368
30255W        W95482  42.824   3.344   1.186
30256W        W95483  33.320   0.447  14.056
30257W        W95484  34.951  14.589  14.886
30258W        W95485  10.505   5.329  14.309
30259W        W95486  44.848   9.118  12.966
30260W        W95487  31.622   1.689  12.506
30261W        W95488   1.322   2.317   0.232
30262W        W95489  40.745  44.715  14.788
30263W        W95490   8.054   9.306   2.661
30264W        W95491  14.677  39.183   1.272
30265W        W95492  12.912   6.675  14.905
30266W        W95493  30.900  27.233  10.844
30267W        W95494   6.791  24.208   3.144
30268W        W95495   3.302  18.634   0.337
30269W        W95496  31.646   5.259   4.995
30270W        W95497  26.461  17.985   1.951
30271W        W95498  33.328   3.809   2.543
30272W        W95499   4.221  25.646   0.428
30273W        W95500  35.955  27.477   1.307
30274W        W95501  44.781  43.796  14.790
30275W        W95502   0.003  13.341  12.222
30276W        W95503  31.330  24.252  10.694
30277W        W95504   8.840  20.205  11.251
30278W        W95505  23.766   2.561  11.533
30279W        W95506  12.550  31.314  10.241
30280W        W95507  24.064   1.785  10.161
30281W        W95508  23.949   7.150   0.931
30282W        W95509  18.383  35.607  14.361
30283W        W95510  25.481  34.680  10.833
30284W        W95511   7.604   2.184  13.489
30285W        W95512  22.229   2.271   2.163
30286W        W95513  10.294  34.502  10.902
30287W        W95514  27.256  16.565  13.858
30288W        W95515  12.496  12.175  11.220
30289W        W95516  38.516  16.283  14.547
30290W        W95517  12.533  38.007   2.762
30291W        W95518  36.595  22.263   0.325
30292W        W95519  42.617  21.575   0.425
30293W        W95520  39.614  14.489  14.728
30294W        W95521  25.409  27.089   4.487
30295W        W95522  22.174   8.621  13.615
30296W        W95523  13.928  14.472  14.412
30297W        W95524   2.757  22.960   4.237
30298W        W95525  33.610  32.102   1.361
30299W        W95526  19.279  42.741   2.867
30300W        W95527  11.777   6.174  11.446
30301W        W95528  41.989   9.405   1.651
30302W        W95529  10.351  41.479   0.839
30303W        W95530   7.258   0.471  11.966
30304W        W95531   9.924  26.226   0.433
30305W        W95532   2.515  17.035   3.698
30306W        W95533  39.566   7.663  11.963
30307W        W95534  14.304  11.638   0.423
30308W        W95535   2.750  13.811  13.226
30309W        W95536  32.927   4.950   3.611
30310W        W95537  34.198  19.767   0.867
30311W        W95538  10.381  21.055  11.957
30312W        W95539  28.656  39.550  12.078
30313W        W95540  10.176  43.549   2.708
30314W        W95541  40.458  21.226   4.062
30315W        W95542  39.528  32.468   1.622
30316W        W95543  15.105  20.752  14.860
30317W        W95544  20.257  13.702  12.003
30318W        W95545   9.659  11.907  11.433
30319W        W95546   5.945  43.592   5.289
30320W        W95547  11.101   3.910  14.885
30321W        W95548  14.218   9.276   2.415
30322W        W95549  20.922  13.139   1.411
30323W        W95550  31.849  40.268  13.088
30324W        W95551   4.146   9.962  14.423
30325W        W95552  11.234   6.906   0.089
30326W        W95553   3.171  29.469   0.645
30327W        W95554  27.124  16.098   9.619
30328W        W95555  38.782  33.512  13.577
30329W        W95556  23.076  21.327  12.709
30330W        W95557  16.254  17.487   0.019
30331W        W95558  42.026  34.487  10.364
30332W        W95559  33.842  38.524   2.845
30333W        W95560  35.695  39.435  12.625
30334W        W95561   3.644   7.266  14.840
30335W        W95562   5.372   7.313   4.588
30336W        W95563  42.528  25.623   3.471
30337W        W95564  17.592  13.263   0.939
30338W        W95565   1.492  30.528   3.670
30339W        W95566  32.704  19.612   0.864
30340W        W95567  33.835  11.772   0.317
30341W        W95568  11.192  23.287   3.681
30342W        W95569  28.224  14.545   0.045
30343W        W95570  24.272   7.388  11.070
30344W        W95571  39.500   2.893   4.187
30345W        W95572   4.875  37.901   1.963
30346W        W95573  15.569   5.205  13.397
30347W        W95574  27.889  44.138  11.938
30348W        W95575  39.012  36.403  12.108
30349W        W95576  31.209  35.629  12.474
30350W        W95577  38.346  22.788   4.639
30351W        W95578  23.432  39.478   3.695
30352W        W95579   0.533   8.757  12.893
30353W        W95580   4.840  43.728   3.058
30354W        W95581  26.217  15.821  14.046
30355W        W95582  28.215  16.145   2.400
30356W        W95583  37.148  17.163  11.173
30357W        W95584  21.802  23.690  11.316
30358W        W95585  25.447  34.389  14.044
30359W        W95586  21.187  39.993  10.309
30360W        W95587   5.708   0.150   3.680
30361W        W95588  33.812  40.463  11.015
30362W        W95589  29.503   2.997  14.964
30363W        W95590  38.846   2.937   3.370
30364W        W95591  41.937  15.268  13.081
30365W        W95592  40.935   6.484  12.616
30366W        W95593  31.532  28.764   3.713
30367W        W95594  18.408   0.306  10.756
30368W        W95595  29.915  10.312   2.472
30369W        W95596  19.747  35.390  14.745
30370W        W95597  21.100  33.878  10.747
30371W        W95598  15.640  37.279   2.745
30372W        W95599  21.608   2.372   1.433
30373W        W95600  12.722  34.241   2.581
30374W        W95601  19.566  43.395  13.839
30375W        W95602  16.631   4.501  11.540
30376W        W95603   7.451   4.444  12.466
30377W        W95604  23.561  31.604   4.061
30378W        W95605  43.159   0.704   3.290
30379W        W95606  24.345  31.344  11.895
30380W        W95607  37.499  43.565   3.231
30381W        W95608  18.657  44.330  14.467
30382W        W95609   9.102  32.671   9.579
30383W        W95610  43.098  32.462  13.761
30384W        W95611  14.896  32.203  12.466
30385W        W95612   8.898  29.221   1.382
30386W        W95613  11.097   2.194   2.729
30387W        W95614  31.705  20.049  12.948
30388W        W95615  18.370  39.472  10.645
30389W        W95616  43.232  31.500   0.903
30390W        W95617   9.998   3.929  14.053
30391W        W95618  28.551  11.100   0.952
30392W        W95619   8.818  12.732   2.313
30393W        W95620  44.556   2.485   3.975
30394W        W95621   6.374   1.735  13.873
30395W        W95622  26.119  25.652   4.538
30396W        W95623  43.924  11.747  10.356
30397W        W95624  32.086  16.147  13.846
30398W        W95625  36.652  11.808   0.850
30399W        W95626  26.659  17.283   3.603
30400W        W95627   7.852  44.257   0.472
30401W        W95628  23.770  39.194   0.391
30402W        W95629   8.166  28.365   0.046
30403W        W95630  15.207  36.134   9.942
30404W        W95631   3.718  21.903  13.948
30405W        W95632  40.822  41.533   1.976
30406W        W95633   7.990  21.508  14.841
30407W        W95634  21.217  36.153  11.640
30408W        W95635  24.457  13.577   0.862
30409W        W95636  29.224  31.954  12.435
30410W        W95637   0.043  43.899   0.222
30411W        W95638   7.255  22.794   4.585
30412W        W95639  39.351  32.531   2.360
30413W        W95640  44.713  23.247   2.287
30414W        W95641  44.418  36.544   3.563
30415W        W95642  33.368  14.195  12.633
30416W        W95643  10.048  26.628  12.074
30417W        W95644  11.871  24.967  14.025
30418W        W95645  18.628  20.301  13.141
30419W        W95646  32.107  35.324  13.905
30420W        W95647  37.462  24.709   2.465
30421W        W95648   3.313  18.054  11.994
30422W        W95649  39.911  17.885   0.865
30423W        W95650  29.854  27.881   3.181
30424W        W95651  36.804  10.372   3.262
30425W        W95652  17.074  31.445   4.668
30426W        W95653  13.903  33.831   0.621
30427W        W95654   8.771   3.786  11.665
30428W        W95655  26.496  44.852   3.219
30429W        W95656  23.948  20.707   3.671
30430W        W95657  34.905  28.084   1.103
30431W        W95658  28.381  40.104   2.438
30432W        W95659  27.623  38.101   1.431
30433W        W95660  44.229  23.484   1.212
30434W        W95661  34.878  20.802  10.730
30435W        W95662  35.116  19.177   3.603
30436W        W95663   1.436  21.511   3.569
30437W        W95664  38.411   9.784  14.325
30438W        W95665  31.471  15.168   4.089
30439W        W95666   2.020  35.409  14.046
30440W        W95667  33.887  10.493   1.916
30441W        W95668  16.142   1.526  10.782
30442W        W95669  26.040  19.802  14.007
30443W        W95670  43.792   5.678   0.414
30444W        W95671   7.681  43.918   0.833
30445W        W95672  16.583  38.683   0.454
30446W        W95673  14.675  20.773  11.608
30447W        W95674  38.814   9.633  12.078
30448W        W95675  36.470  21.596   3.428
30449W        W95676  32.873  27.656   1.503
30450W        W95677  15.916   2.327   4.570
30451W        W95678  29.863   4.409  13.923
30452W        W95679  43.463   3.867   3.124
30453W        W95680  40.431   7.429   0.373
30454W        W95681  27.953  22.192   4.674
30455W        W95682  33.032  20.038   3.523
30456W        W95683  23.575  44.394  12.645
30457W        W95684  24.093  11.954   4.973
30458W        W95685  21.093  15.337  14.524
30459W        W95686  28.610   4.969  12.915
30460W        W95687  12.878  32.017   1.402
30461W        W95688  41.752   5.349   1.503
30462W        W95689  40.504  34.027  11.074
30463W        W95690   8.667  30.524  14.876
30464W        W95691  33.559  24.960  14.906
30465W        W95692   0.785  25.102   3.693
30466W        W95693  29.160  16.674   4.942
30467W        W95694  42.032  21.050  12.293
30468W        W95695   3.783  42.331   1.889
30469W        W95696  29.471  38.211  13.350
30470W        W95697   6.718   3.475  10.865
30471W        W95698   3.895  15.077   2.636
30472W        W95699  22.203  34.134  13.385
30473W        W95700  26.966  12.240   1.755
30474W        W95701  32.395   4.672   1.255
30475W        W95702  44.790  43.505  10.221
30476W        W95703   0.458  23.276   1.461
30477W        W95704  29.078   9.847  13.249
30478W        W95705   0.713  10.491  10.735
30479W        W95706  20.909  14.049  13.332
30480W        W95707  17.084   6.803   0.236
30481W        W95708   6.375  21.399  12.048
30482W        W95709  40.382  13.305   1.438
30483W        W95710   5.367   7.868  10.761
30484W        W95711  32.103  42.982  13.013
30485W        W95712  31.787  26.355   0.873
30486W        W95713   0.909  12.399   1.884
30487W        W95714  36.548   5.520   9.839
30488W        W95715   8.972  28.026  13.974
30489W        W95716  42.789  18.200   3.692
30490W        W95717   9.765  30.718  11.282
30491W        W95718  10.186  29.973   0.499
30492W        W95719  20.704  11.457  14.859
30493W        W95720   1.280  23.314   1.252
30494W        W95721  27.718  33.985  13.813
30495W        W95722  34.974  19.282   1.696
30496W        W95723  19.826   1.384  10.789
30497W        W95724  20.562  17.244   4.652
30498W        W95725   7.945   5.317  12.474
30499W        W95726  11.121  31.357   2.419
30500W        W95727  20.571  19.757   0.815
30501W        W95728   8.263  21.415  11.250
30502W        W95729   9.199   4.346   3.834
30503W        W95730  14.877  30.069   1.281
30504W        W95731  24.445   1.273   3.110
30505W        W95732  26.159   6.938  12.439
30506W        W95733   8.273  37.159  12.381
30507W        W95734  42.335   4.899  12.848
30508W        W95735  12.638  16.093   4.495
30509W        W95736  36.524  41.421  11.422
30510W        W95737   2.301   9.606  13.818
30511W        W95738  36.059  21.873   3.282
30512W        W95739  37.789  41.229   0.393
30513W        W95740  14.245  22.753  13.949
30514W        W95741  34.463  26.748  14.804
30515W        W95742  17.620  20.689   3.590
30516W        W95743  40.433  10.184  10.300
30517W        W95744   2.199   3.314  10.565
30518W        W95745   5.954   8.917   4.305
30519W        W95746  23.054  18.597   3.618
30520W        W95747  15.019   9.267   4.115
30521W        W95748  39.875  14.792   2.944
30522W        W95749  36.594  27.157  12.799
30523W        W95750  23.929  20.974   4.928
30524W        W95751  37.026   3.661   1.647
30525W        W95752  14.987  32.914   3.696
30526W        W95753   2.648   6.859   1.639
30527W        W95754  18.016  24.833   3.392
30528W        W95755   0.833  35.065   1.417
30529W        W95756  28.663  16.641  10.924
30530W        W95757  31.701  28.414  14.510
30531W        W95758  35.584  36.215  11.899
30532W        W95759  22.191   8.832  10.746
30533W        W95760  16.767  37.853  14.560
30534W        W95761  41.474  34.581   3.769
30535W        W95762   6.462  39.937   3.301
30536W        W95763  37.176  24.571  14.789
30537W        W95764  42.208  30.634  12.556
30538W        W95765   1.454  15.005   2.855
30539W        W95766  44.180  23.705   4.731
30540W        W95767  38.053  40.827  10.723
30541W        W95768  43.871  21.957   0.359
30542W        W95769   6.857  40.987  13.907
30543W        W95770   4.948  12.151   1.437
30544W        W95771  29.428  37.004  14.799
30545W        W95772  12.756   0.412  14.485
30546W        W95773   9.470  20.627  10.717
30547W        W95774  13.196   7.306  14.858
30548W        W95775   0.346  36.862  14.800
30549W        W95776  31.756   6.122  12.590
30550W        W95777  16.099   4.406   0.883
30551W        W95778  23.618  39.505  13.376
30552W        W95779   3.765  43.256  14.670
30553W        W95780  22.828  38.001  14.268
30554W        W95781  25.996   6.512  14.022
30555W        W95782  31.444  39.023   1.185
30556W        W95783  12.786   4.760   4.636
30557W        W95784  44.875  16.274   1.292
30558W        W95785   1.295  32.147  11.272
30559W        W95786  40.028  16.721  11.865
30560W        W95787  29.890  13.395   0.463
30561W        W95788  33.410  42.853   4.567
30562W        W95789  10.649  43.591  11.177
30563W        W95790  11.614   2.273   2.791
30564W        W95791  43.347  41.776  14.929
30565W        W95792  18.754  19.787  13.030
30566W        W95793  23.194  30.531  11.862
30567W        W95794  37.083  33.988  14.493
30568W        W95795  40.961   8.578   2.397
30569W        W95796  13.686  39.529   0.484
30570W        W95797  21.267  40.868   1.439
30571W        W95798  20.534  12.599   1.864
30572W        W95799  27.198  22.371  13.952
30573W        W95800  34.538  35.408   1.181
30574W        W95801   5.845   5.720   3.768
30575W        W95802  24.611  34.985   0.820
30576W        W95803  27.025  14.880   4.621
30577W        W95804  16.617  30.932   2.678
30578W        W95805  44.758  17.898   1.059
30579W        W95806  24.505  22.027   3.710
30580W        W95807   8.133   5.686   1.405
30581W        W95808   5.787   7.210  13.125
30582W        W95809  18.580  20.815  11.940
30583W        W95810  11.046   0.791   2.781
30584W        W95811  39.398   0.570   1.760
30585W        W95812  15.748  24.385   3.824
30586W        W95813  43.433  24.717  10.618
30587W        W95814  10.787  19.887  12.500
30588W        W95815   6.346  20.066   3.684
30589W        W95816   7.727   5.175   3.712
30590W        W95817   5.348  43.461   0.920
30591W        W95818   5.694  35.901  14.414
30592W        W95819  10.612  10.956   1.192
30593W        W95820  28.415  32.628   3.306
30594W        W95821  27.671  36.134   4.738
30595W        W95822  43.118   1.845  13.952
30596W        W95823  21.206  34.633  14.752
30597W        W95824  44.748  33.484   0.168
30598W        W95825  27.019  10.283   2.937
30599W        W95826  35.081  28.985  12.067
30600W        W95827  21.376   1.427   4.183
30601W        W95828   4.798  32.316  11.078
30602W        W95829  35.784  10.163  12.439
30603W        W95830   8.432  16.167  11.782
30604W        W95831  25.709  13.676   4.714
30605W        W95832  24.977  19.032   4.880
30606W        W95833  43.388  17.219  12.029
30607W        W95834  14.688  25.956  13.315
30608W        W95835   8.749  40.018   3.647
30609W        W95836  22.801  43.063  12.583
30610W        W95837  20.395  40.421   4.979
30611W        W95838  41.992  29.190   4.465
30612W        W95839  25.456   2.002  13.937
30613W        W95840  12.230  40.023   1.915
30614W        W95841   9.555  19.123   4.049
30615W        W95842  19.090  39.487  12.118
30616W        W95843  11.602   9.452  13.911
30617W        W95844  24.578  21.775  10.680
30618W        W95845   3.820  18.835   2.839
30619W        W95846  24.223   8.267  13.570
30620W        W95847  36.827  12.928   1.036
30621W        W95848  17.568  10.167   1.412
30622W        W95849  23.333   6.539   1.761
30623W        W95850  28.162  22.900  12.023
30624W        W95851  29.640   8.748   2.859
30625W        W95852  16.779  40.545   3.124
30626W        W95853  13.666   2.742  12.152
30627W        W95854  16.016  32.450  11.976
30628W        W95855  36.942   9.733  14.379
30629W        W95856  26.776  14.745   2.290
30630W        W95857  43.354  22.900   1.927
30631W        W95858  13.390  31.413   3.716
30632W        W95859  26.716   4.154  13.861
30633W        W95860   1.788  35.667  13.163
30634W        W95861  11.439  30.984  12.825
30635W        W95862  25.185  21.242  12.555
30636W        W95863  44.394   7.257   2.946
30637W        W95864  28.062  17.966   2.743
30638W        W95865  39.941   0.846  11.181
30639W        W95866   8.339   4.296   1.245
30640W        W95867   4.175  32.547   1.646
30641W        W95868  42.724  35.647   1.122
30642W        W95869  29.499  27.774   4.948
30643W        W95870  18.274  32.659  13.259
30644W        W95871  14.788   0.035   3.817
30645W        W95872  29.923  11.166   1.855
30646W        W95873  41.999  28.877   0.431
30647W        W95874  30.857  13.760   3.308
30648W        W95875  12.320  11.419   3.664
30649W        W95876   8.363   6.321   3.717
30650W        W95877   4.901  20.926  11.171
30651W        W95878   6.220  24.391  12.606
30652W        W95879  26.192  24.854  11.019
30653W        W95880  32.153  19.774   1.765
30654W        W95881  15.175  32.139  13.358
30655W        W95882  29.892  11.927  14.812
30656W        W95883  29.415  17.792   3.190
30657W        W95884  42.256  30.442  14.459
30658W        W95885  40.909   3.895  11.970
30659W        W95886  40.905  35.687   4.310
30660W        W95887   8.365   6.904  13.458
30661W        W95888  36.030   9.091  13.371
30662W        W95889  43.482  38.736   4.690
30663W        W95890  20.210  37.714   0.585
30664W        W95891  15.942  29.226   4.181
30665W        W95892   3.259  20.551   2.482
30666W        W95893  20.226  26.203  14.065
30667W        W95894   4.427   0.925  13.542
30668W        W95895   6.196  27.239   2.393
30669W        W95896  41.775  28.405   0.367
30670W        W95897  27.718  12.589   4.566
30671W        W95898  44.381  14.536   2.141
30672W        W95899  21.760   7.453  13.147
30673W        W95900   2.735  22.095   3.286
30674W        W95901  33.598  16.137  14.996
30675W        W95902   0.418  30.139  13.989
30676W        W95903  32.747   2.501  14.287
30677W        W95904  18.687  20.286  13.987
30678W        W95905  41.990  10.083  12.263
30679W        W95906  14.111  34.760  14.349
30680W        W95907  25.220  18.275   2.077
30681W        W95908  10.461  22.586  13.389
30682W        W95909  41.777  27.511   0.408
30683W        W95910   8.680  33.000  12.486
30684W        W95911  19.462  38.046  12.654
30685W        W95912  13.159  15.147   2.625
30686W        W95913  16.325  31.168   0.215
30687W        W95914  34.528  44.539   2.659
30688W        W95915   5.751  11.734   1.934
30689W        W95916  40.567   7.497  13.484
30690W        W95917  11.770  31.399  12.815
30691W        W95918  16.280   7.252   4.559
30692W        W95919  13.521  24.683  13.312
30693W        W95920  19.648  42.838   1.721
30694W        W95921   6.043   8.218  12.368
30695W        W95922  31.820  41.317   4.212
30696W        W95923  19.645  19.029  13.857
30697W        W95924  12.697  27.651   0.249
30698W        W95925   2.491  28.547   3.408
30699W        W95926   0.407  17.693  14.181
30700W        W95927  34.063   4.785   0.521
30701W        W95928  29.915  42.355  13.507
30702W        W95929  23.725  15.728  12.052
30703W        W95930   9.653  24.419   1.739
30704W        W95931  32.360   0.787   4.917
30705W        W95932   6.396  34.589  11.395
30706W        W95933  38.918  31.045   1.303
30707W        W95934  38.725  22.221   2.136
30708W        W95935  20.961  37.039   4.524
30709W        W95936  17.472  27.995   5.019
30710W        W95937  34.581  40.877   3.890
30711W        W95938  39.062   0.313   0.790
30712W        W95939  19.695   0.120   2.352
30713W        W95940  38.088  15.527  13.604
30714W        W95941  36.134  42.250  11.770
30715W        W95942  35.511  13.948   2.585
30716W        W95943  37.591  16.388  11.083
30717W        W95944   8.427  30.212   0.281
30718W        W95945  27.383  37.075   1.327
30719W        W95946  21.828  39.816   1.976
30720W        W95947   2.161  35.996   1.154
30721W        W95948   5.924  11.592  13.844
30722W        W95949  15.907  23.111   0.506
30723W        W95950  17.580  12.242  10.621
30724W        W95951  14.654  22.050  13.466
30725W        W95952  35.374  44.963   4.657
30726W        W95953  44.955  43.794  12.550
30727W        W95954  17.285  14.401  12.544
30728W        W95955  18.657  37.364  10.118
30729W        W95956   1.424  39.344  13.008
30730W        W95957  19.897  27.622   0.273
30731W        W95958  30.828   5.429   3.284
30732W        W95959  41.059  27.087  11.898
30733W        W95960  17.597  21.603   4.690
30734W        W95961  31.547   7.858   2.779
30735W        W95962  37.106  28.464  12.049
30736W        W95963  42.654  26.529   0.373
30737W        W95964  31.366   9.699   2.268
30738W        W95965   0.863  25.683  10.177
30739W        W95966  33.938  41.797  11.571
30740W        W95967  35.362  15.531   1.724
30741W        W95968  29.790  26.407   1.468
30742W        W95969  38.616  19.377   1.446
30743W        W95970   4.685   8.767  10.199
30744W        W95971  42.377  41.255  11.033
30745W        W95972  43.629  24.644  12.545
30746W        W95973  16.485  40.575  12.549
30747W        W95974  29.137  43.787   2.711
30748W        W95975  32.484  27.351  11.552
30749W        W95976  34.877   8.814   1.246
30750W        W95977   2.298   1.239   0.423
30751W        W95978  17.006  19.451   2.037
30752W        W95979  14.572  26.095  13.797
30753W        W95980  18.535  39.734  14.149
30754W        W95981  38.485  32.917   0.168
30755W        W95982  37.904  19.634   3.314
30756W        W95983   7.202  22.630   4.047
30757W        W95984  24.272  43.927   1.496
30758W        W95985  31.040   3.665   4.651
30759W        W95986  28.171  16.140  12.437
30760W        W95987  16.697  17.315   2.656
30761W        W95988  28.338  18.137  13.974
30762W        W95989   2.685  22.631   5.217
30763W        W95990  40.788  42.934  13.449
30764W        W95991  40.704  15.553   3.582
30765W        W95992  31.636   3.453   3.590
30766W        W95993  11.760  40.776  12.401
30767W        W95994  43.937  38.406   3.076
30768W        W95995  22.201   8.317  11.993
30769W        W95996  17.001  26.497  12.587
30770W        W95997  28.787   4.999  10.969
30771W        W95998  30.228  31.697  12.315
30772W        W95999  31.862   7.976   0.814
30773W        W96000  17.400   1.180  13.425
30774W        W96001  42.467   9.546   4.848
30775W        W96002   6.287  14.877  14.532
30776W        W96003  10.990  19.064  12.352
30777W        W96004  34.648   0.299   0.690
30778W        W96005   0.230   9.279   1.892
30779W        W96006   9.845  41.073   4.530
30780W        W96007  19.745  41.228  10.666
30781W        W96008  33.909   3.217   2.639
30782W        W96009  25.509  25.486   3.166
30783W        W96010  25.062  13.369  14.337
30784W        W96011  35.867  26.109  14.289
30785W        W96012  34.498  42.320  10.996
30786W        W96013  18.683  34.763   0.443
30787W        W96014  13.300  40.223   0.289
30788W        W96015  35.972  28.181  11.053
30789W        W96016  17.323  20.267   1.866
30790W        W96017   9.601  34.010   1.749
30791W        W96018   8.612   6.357   1.932
30792W        W96019  40.839   8.882  14.820
30793W        W96020  20.297   5.445  14.845
30794W        W96021  24.150  21.649   2.407
30795W        W96022  12.721  17.161   0.302
30796W        W96023  15.568  32.676   4.146
30797W        W96024  12.286  42.995   1.887
30798W        W96025  29.895  14.707   2.076
30799W        W96026  39.339  12.586  13.690
30800W        W96027  44.944  20.405  12.934
30801W        W96028  14.301  29.434  12.958
30802W        W96029  17.586  28.541  11.936
30803W        W96030  28.666  12.661   9.950
30804W        W96031  19.763  34.508  12.466
30805W        W96032  21.659   7.963  13.024
30806W        W96033  17.821   2.796  12.486
30807W        W96034  27.479  32.719  11.215
30808W        W96035  43.592  34.864   2.650
30809W        W96036  13.321  30.097  12.008
30810W        W96037  10.543   5.463   0.530
30811W        W96038  39.413  32.489  12.672
30812W        W96039  36.148  12.863   1.525
30813W        W96040  36.810  12.587   3.814
30814W        W96041  22.855  32.847  13.978
30815W        W96042  25.432  14.073  12.007
30816W        W96043  35.084  14.834   1.779
30817W        W96044  13.380  30.505   0.315
30818W        W96045  34.466  21.956  13.511
30819W        W96046  26.418   7.418  12.537
30820W        W96047  18.539   4.499   4.166
30821W        W96048   2.481  23.452  14.238
30822W        W96049  28.480   4.408  11.206
30823W        W96050  13.328   9.760   1.953
30824W        W96051  40.419  15.565  14.350
30825W        W96052  39.358   3.345   2.080
30826W        W96053   0.858  32.079   0.779
30827W        W96054  26.641  30.435   2.789
30828W        W96055  15.255  43.604  14.210
30829W        W96056  24.484  10.212   0.052
30830W        W96057  43.113   4.753   4.217
30831W        W96058   5.480  39.775  13.185
30832W        W96059  10.911  39.507   3.018
30833W        W96060  22.175  15.235  12.489
30834W        W96061  41.301  17.841   4.341
30835W        W96062  31.168   6.984   4.559
30836W        W96063  32.467  18.200  10.450
30837W        W96064  26.996  29.439  11.756
30838W        W96065  26.964   7.852  11.722
30839W        W96066   1.037  35.585   0.686
30840W        W96067   6.265  37.809   4.134
30841W        W96068  42.480  27.730  11.219
30842W        W96069  40.578  12.233  11.756
30843W        W96070  38.131  22.124   0.849
30844W        W96071   0.980   7.638  12.014
30845W        W96072  36.348  37.031   0.798
30846W        W96073  40.525   6.071   3.075
30847W        W96074  23.425  38.550   4.728
30848W        W96075  38.522  14.333   1.709
30849W        W96076  13.506  15.069   4.812
30850W        W96077  22.266  44.286   1.424
30851W        W96078  16.062   8.787  12.527
30852W        W96079   9.293  37.105  11.610
30853W        W96080  15.802   3.696  11.992
30854W        W96081   8.194  12.278   2.621
30855W        W96082   9.445  15.037   3.278
30856W        W96083  16.590  26.485  12.934
30857W        W96084  42.553  19.424   2.744
30858W        W96085  20.935  11.426  14.419
30859W        W96086   1.261   6.596   0.956
30860W        W96087  14.750  37.477   2.320
30861W        W96088   4.495  44.523   1.646
30862W        W96089   1.790  38.862  12.308
30863W        W96090   3.036  33.935  13.770
30864W        W96091  28.499  40.976  14.345
30865W        W96092  34.430  16.329  11.489
30866W        W96093  44.147   9.101  11.156
30867W        W96094   9.813   2.421   1.293
30868W        W96095  32.544  17.538   2.352
30869W        W96096  34.891  37.605   3.773
30870W        W96097   6.360  25.604   1.434
30871W        W96098  33.588  29.164   4.166
30872W        W96099  10.344   8.904  14.099
30873W        W96100   4.502  39.934  14.484
30874W        W96101  16.201  16.777   0.411
30875W        W96102  12.960   1.917   3.163
30876W        W96103   6.955  41.860   4.150
30877W        W96104  16.606   8.223   4.567
30878W        W96105   9.867   9.336   5.001
30879W        W96106   4.673  27.505  14.491
30880W        W96107  39.806   7.837  12.651
30881W        W96108   6.682  10.084   1.193
30882W        W96109  16.707  15.325   2.191
30883W        W96110  34.686  24.529   0.803
30884W        W96111  17.816  22.728  13.519
30885W        W96112  23.502   8.669   1.384
30886W        W96113  12.378  35.943   1.207
30887W        W96114  13.372  36.506  13.542
30888W        W96115  13.236  21.581  10.787
30889W        W96116   2.827  12.745   3.938
30890W        W96117  10.755  25.424  12.021
30891W        W96118  42.469  42.073  13.962
30892W        W96119  20.909  40.462   3.797
30893W        W96120  37.146  33.049   3.375
30894W        W96121  11.999  28.574   2.834
30895W        W96122   3.156   9.243   0.957
30896W        W96123   3.535   4.763   2.794
30897W        W96124  38.260  44.410  12.520
30898W        W96125  25.534  20.535   0.025
30899W        W96126   3.801  30.096  13.035
30900W        W96127  16.142  26.022  14.275
30901W        W96128   8.241   2.763  10.975
30902W        W96129   0.391  40.035  14.280
30903W        W96130  37.852  38.022  11.687
30904W        W96131   6.348  19.926  10.516
30905W        W96132  28.864   2.226   3.316
30906W        W96133  22.173  22.507   1.875
30907W        W96134  38.262   2.575  12.940
30908W        W96135  36.551  27.654  12.914
30909W        W96136  28.124   3.347  11.971
30910W        W96137  13.829  37.443  14.980
30911W        W96138  33.630   1.371   4.295
30912W        W96139  42.622  44.227  14.411
30913W        W96140  20.595   7.741  11.211
30914W        W96141  19.350  23.124   3.622
30915W        W96142   1.268  29.806   4.594
30916W        W96143  19.691  31.919   1.169
30917W        W96144   1.479   1.273  12.477
30918W        W96145   2.011  18.578  11.201
30919W        W96146   2.783   4.223  10.648
30920W        W96147  14.095  43.785   3.937
30921W        W96148   0.977  20.605   5.151
30922W        W96149   3.386  12.780   4.691
30923W        W96150  28.102  19.864   1.737
30924W        W96151  29.572  22.702   0.315
30925W        W96152  17.674  37.805   2.362
30926W        W96153   6.256  12.705  11.101
30927W        W96154  33.992  43.957  13.620
30928W        W96155  25.618  34.351  14.984
30929W        W96156  22.188  39.407  13.330
30930W        W96157  18.774  40.095   3.385
30931W        W96158   0.839  10.642   3.883
30932W        W96159  37.440   7.440   1.145
30933W        W96160   3.590  25.141   1.179
30934W        W96161   1.291  44.622   2.789
30935W        W96162  39.981  43.215  14.068
30936W        W96163  34.372  44.949  12.937
30937W        W96164  11.065  29.734  14.480
30938W        W96165  44.748  18.578   1.673
30939W        W96166  39.533   2.981   0.314
30940W        W96167  15.168  21.712   3.158
30941W        W96168  16.740  11.178  13.806
30942W        W96169   4.514  35.035   4.132
30943W        W96170  22.536  14.968   3.198
30944W        W96171  39.541  27.934  14.369
30945W        W96172  39.881   9.128  14.289
30946W        W96173  15.073  28.732  13.744
30947W        W96174  27.247  26.657   0.767
30948W        W96175  29.903   9.639  14.517
30949W        W96176  30.010  32.789   3.004
30950W        W96177  18.268   9.318  12.130
30951W        W96178  27.889  32.402  13.550
30952W        W96179  16.768  25.242   4.351
30953W        W96180  42.543  42.510  12.542
30954W        W96181  32.981  28.539   3.624
30955W        W96182  34.881  11.887   0.337
30956W        W96183  44.676  24.593   3.581
30957W        W96184  18.739  21.581   4.687
30958W        W96185  23.443  22.389   1.044
30959W        W96186  40.897  10.778  11.945
30960W        W96187  42.708   1.678  13.361
30961W        W96188  27.571  30.183  11.931
30962W        W96189  22.738  18.983   2.185
30963W        W96190  26.488  35.524  11.675
30964W        W96191  35.977  10.904  13.883
30965W        W96192  33.375  43.555  11.531
30966W        W96193  10.167  27.754  11.769
30967W        W96194  40.455  14.744  11.201
30968W        W96195  39.333  41.905   3.975
30969W        W96196  10.376  38.055  13.020
30970W        W96197  43.424  31.614  11.474
30971W        W96198  24.970  27.551  12.509
30972W        W96199   6.240  25.542  13.132
30973W        W96200  15.033  37.573   1.751
30974W        W96201  33.872  32.442  14.216
30975W        W96202  44.222  13.774  12.989
30976W        W96203  28.684  17.235   0.799
30977W        W96204  37.000  23.801  13.611
30978W        W96205  33.299  10.811   0.646
30979W        W96206  11.885  21.627  10.577
30980W        W96207   5.203   7.296  14.058
30981W        W96208  32.186  33.456  14.185
30982W        W96209  28.618   2.959  14.021
30983W        W96210  26.429  29.652   4.201
30984W        W96211  30.808  31.430  12.949
30985W        W96212   1.554  17.001  10.623
30986W        W96213   1.371  28.138   2.730
30987W        W96214  41.595  25.062  11.194
30988W        W96215   7.232  38.855   2.324
30989W        W96216  11.224  19.605   4.352
30990W        W96217  29.539  26.609   1.070
30991W        W96218  16.492  34.313   4.368
30992W        W96219  11.284  27.191   4.599
30993W        W96220  22.212  13.447   1.169
30994W        W96221  36.363   3.046  14.279
30995W        W96222  42.571   4.594  13.784
30996W        W96223   6.790  10.854  12.972
30997W        W96224   3.840   5.176   0.224
30998W        W96225  34.840  41.573  14.940
30999W        W96226  23.095   6.346  13.526
31000W        W96227  33.468  19.116  11.529
31001W        W96228  18.629  33.506  13.306
31002W        W96229  42.731  35.753   2.792
31003W        W96230  26.927  33.397   3.109
31004W        W96231  36.692  16.400   4.105
31005W        W96232  21.497   7.767   4.579
31006W        W96233   4.643  36.015  14.343
31007W        W96234  41.327  10.580   1.378
31008W        W96235   7.454  20.079   1.360
31009W        W96236  27.143  20.242   0.963
31010W        W96237   8.048   2.094  10.043
31011W        W96238  12.330  39.254  11.979
31012W        W96239  31.671  38.889   2.183
31013W        W96240  31.983  30.092   4.776
31014W        W96241  11.664  15.794   3.952
31015W        W96242  28.633   5.322   0.244
31016W        W96243  35.683  23.256   2.200
31017W        W96244   7.294  26.140  12.999
31018W        W96245  37.026  25.640   0.818
31019W        W96246  11.391  10.420   1.223
31020W        W96247  38.523  34.041   3.460
31021W        W96248  10.787   3.525   0.461
31022W        W96249  13.288  15.548   1.351
31023W        W96250  27.171  38.056  13.866
31024W        W96251   0.782   1.390  13.229
31025W        W96252   0.904  15.478   2.262
31026W        W96253   6.907  41.831   3.084
31027W        W96254   4.267  27.118   0.212
31028W        W96255  27.716  33.005  12.527
31029W        W96256  32.128  29.187  12.505
31030W        W96257  39.819  15.266   2.742
31031W        W96258  16.584  42.724   2.801
31032W        W96259  17.141  14.615  14.823
31033W        W96260  17.656  26.148   4.760
31034W        W96261  18.562  35.528  11.267
31035W        W96262  15.254  38.909  10.641
31036W        W96263  43.099  26.484   3.212
31037W        W96264   4.228  10.978  13.030
31038W        W96265  35.457   9.939   2.279
31039W        W96266  43.089   1.316  11.564
31040W        W96267  12.828  23.248  13.959
31041W        W96268   9.839  20.169  13.492
31042W        W96269   5.840   0.068  13.813
31043W        W96270  14.787  19.966   4.942
31044W        W96271  15.158   4.243   1.174
31045W        W96272   6.254  21.689  14.460
31046W        W96273  12.848  30.464  14.934
31047W        W96274  37.171  13.519   4.212
31048W        W96275  19.232  39.033  10.820
31049W        W96276  23.586  19.975  13.179
31050W        W96277  38.980  35.928  11.877
31051W        W96278  36.592  19.678  13.662
31052W        W96279   8.095   8.471   0.390
31053W        W96280  21.444  32.560   1.059
31054W        W96281   0.699  30.549   1.262
31055W        W96282   5.198  22.821   0.164
31056W        W96283  24.654   9.878  14.270
31057W        W96284  21.827   5.773  13.554
31058W        W96285  33.925  21.622   2.866
31059W        W96286  36.483   8.366   3.702
31060W        W96287  28.899  27.453   2.483
31061W        W96288  24.075   0.806  13.349
31062W        W96289  41.844  20.648   2.227
31063W        W96290  44.101   3.043  14.995
31064W        W96291  39.072  11.262  14.703
31065W        W96292   1.375  36.055  10.754
31066W        W96293  20.125  39.995   4.208
31067W        W96294  31.000  14.065   1.740
31068W        W96295  43.968  44.899  13.284
31069W        W96296  29.064  21.692   2.795
31070W        W96297  19.093  37.677   2.087
31071W        W96298  21.433   3.914   3.148
31072W        W96299  31.979  38.196   5.458
31073W        W96300  14.281  17.023   0.749
31074W        W96301   3.738  14.857   3.083
31075W        W96302  22.886  17.067   4.157
31076W        W96303  39.781  21.711  12.435
31077W        W96304  31.158  42.910   0.262
31078W        W96305   4.175  34.314  10.573
31079W        W96306  43.977  15.011   2.218
31080W        W96307  16.016   2.024   0.754
31081W        W96308  19.025  24.692  14.079
31082W        W96309  13.562  15.751   0.057
31083W        W96310  17.268  30.654   4.218
31084W        W96311   4.417  26.633   0.356
31085W        W96312   6.602   8.162   0.230
31086W        W96313   2.764  35.959   2.054
31087W        W96314  44.577  34.723  12.089
31088W        W96315   5.527   0.757   0.054
31089W        W96316  37.769  26.661   2.425
31090W        W96317  20.304  19.177   2.240
31091W        W96318  20.207  11.972   2.265
31092W        W96319  44.099   8.259  11.538
31093W        W96320  30.532  34.857  14.483
31094W        W96321  29.398  25.763  14.344
31095W        W96322  44.297  17.222  12.403
31096W        W96323   5.553  12.589  10.008
31097W        W96324  16.580  24.950   0.503
31098W        W96325   5.689  34.899  14.373
31099W        W96326   6.196  17.204  13.985
31100W        W96327   2.941   6.355  10.645
31101W        W96328  22.960  43.319   3.312
31102W        W96329   8.444   1.910   0.624
31103W        W96330  33.950  34.434   4.074
31104W        W96331  29.539  14.694  12.850
31105W        W96332  27.657  40.998  11.599
31106W        W96333  43.920  40.895   1.697
31107W        W96334   0.085  35.893  14.821
31108W        W96335  17.175  24.541   2.219
31109W        W96336  30.108  34.594   2.279
31110W        W96337  14.694  21.733   4.053
31111W        W96338  21.506  20.512  12.576
31112W        W96339  19.698  26.197  11.733
31113W        W96340   2.214  31.969  12.354
31114W        W96341  43.291  30.311  10.268
31115W        W96342  16.809  29.025   1.691
31116W        W96343  21.646   8.301   2.356
31117W        W96344  23.165   1.228   1.191
31118W        W96345  28.993  42.632  13.983
31119W        W96346  19.411  38.622   2.227
31120W        W96347  27.243  25.741  13.408
31121W        W96348  23.681  40.939   3.808
31122W        W96349  20.731  13.666   4.583
31123W        W96350   6.749   9.836   1.684
31124W        W96351  12.234  39.661  11.113
31125W        W96352   7.333   3.666   4.399
31126W        W96353  39.460   7.225   9.872
31127W        W96354  30.088   9.273   3.933
31128W        W96355  32.908  34.167   1.554
31129W        W96356  12.650  28.380  14.806
31130W        W96357   1.244  39.834  14.750
31131W        W96358  35.429  30.155   3.289
31132W        W96359  16.476  18.464  13.439
31133W        W96360  32.934  20.021  12.099
31134W        W96361  33.594  27.969  14.968
31135W        W96362  20.053   3.015   4.276
31136W        W96363  29.064  44.247   4.941
31137W        W96364  15.762  26.582   1.988
31138W        W96365  14.180  34.562  13.532
31139W        W96366   1.777   2.449  11.912
31140W        W96367  15.677  25.509  11.195
31141W        W96368  33.572  22.299   5.089
31142W        W96369  23.214  40.857   3.609
31143W        W96370  20.725  27.407   0.831
31144W        W96371  28.297  14.003   4.539
31145W        W96372  26.645  42.579   1.290
31146W        W96373  23.511  41.596  13.408
31147W        W96374  30.998  34.645  10.571
31148W        W96375  33.984  11.356   2.306
31149W        W96376  13.258  30.538   4.403
31150W        W96377  16.275  33.964  13.113
31151W        W96378   4.704  19.688   2.550
31152W        W96379  36.642  15.461   1.386
31153W        W96380  43.786   3.744   3.541
31154W        W96381  39.872  21.594   1.420
31155W        W96382   0.391  35.155   1.153
31156W        W96383  32.491  38.362  14.026
31157W        W96384  16.581  16.184  11.263
31158W        W96385   9.373   2.498   4.661
31159W        W96386  40.438  16.108   2.981
31160W        W96387  23.913  21.242  10.598
31161W        W96388  36.823  29.002  13.080
31162W        W96389  10.967  44.792   4.456
31163W        W96390   1.375  37.644   0.921
31164W        W96391  10.163  15.742   1.346
31165W        W96392  31.080  34.608  13.423
31166W        W96393  16.167  30.152   4.136
31167W        W96394   1.852  12.170  11.178
31168W        W96395  25.892  17.722  12.445
31169W        W96396  29.981   6.733   0.335
31170W        W96397  18.257   5.380   2.584
31171W        W96398   7.860  40.229   3.643
31172W        W96399  13.342   4.203   4.299
31173W        W96400  30.987   7.640  10.963
31174W        W96401  37.867  40.046  12.588
31175W        W96402   4.510   8.420  11.600
31176W        W96403  31.509  41.730   3.849
31177W        W96404   9.305  13.964  12.103
31178W        W96405  30.982   9.721   1.804
31179W        W96406  42.964  32.844   2.110
31180W        W96407  10.554   8.017  14.325
31181W        W96408   3.765  41.758  13.929
31182W        W96409  19.257  11.648  10.693
31183W        W96410  15.904  12.164   1.753
31184W        W96411  25.635  43.862  11.434
31185W        W96412  39.147   1.016   3.292
31186W        W96413  20.070  27.186   3.243
31187W        W96414  26.703   2.892   1.487
31188W        W96415  16.322   9.209  12.819
31189W        W96416  31.863  13.783   1.598
31190W        W96417  32.402  44.582   3.131
31191W        W96418  24.012  16.103  12.235
31192W        W96419  34.137  14.393   1.739
31193W        W96420   3.686   6.204  14.332
31194W        W96421  22.118   2.551  14.785
31195W        W96422   8.452   2.141  11.648
31196W        W96423  25.962  14.592   0.593
31197W        W96424  18.757  23.193   1.811
31198W        W96425  14.676  27.722  12.892
31199W        W96426  28.864  18.763   2.134
31200W        W96427  16.722  36.834   1.866
31201W        W96428  32.000  17.926  10.440
31202W        W96429   6.826   0.208   2.350
31203W        W96430  37.445  17.076   1.895
31204W        W96431  33.059  22.748   3.869
31205W        W96432  43.492  16.278  14.862
31206W        W96433  13.112   5.465  11.575
31207W        W96434  13.337  38.878   4.092
31208W        W96435  40.241   3.798  13.554
31209W        W96436  41.486  30.802   0.113
31210W        W96437  11.177   7.324  13.499
31211W        W96438  15.618  12.363  10.657
31212W        W96439  10.335  43.936   2.135
31213W        W96440  31.929  40.827   3.657
31214W        W96441   2.319  38.547   4.185
31215W        W96442   3.425  39.775   4.099
31216W        W96443  34.154  30.684   2.840
31217W        W96444  40.352  11.376  12.361
31218W        W96445  33.468  21.204  14.448
31219W        W96446  26.481  25.708   2.322
31220W        W96447  22.249  25.750   0.544
31221W        W96448  18.122  22.033  11.575
31222W        W96449   1.618  43.096  13.325
31223W        W96450   7.783  14.201   2.192
31224W        W96451   1.490  41.597  12.514
31225W        W96452  19.653  18.835   4.627
31226W        W96453  38.477   4.929  12.558
31227W        W96454   8.895  30.967  13.942
31228W        W96455  12.333  13.844  12.482
31229W        W96456  35.550   2.865   2.688
31230W        W96457  42.929  11.742  13.412
31231W        W96458  36.297  28.068  13.015
31232W        W96459   3.281  22.002  14.749
31233W        W96460   5.413  22.238  12.424
31234W        W96461  20.790  24.025  12.902
31235W        W96462  30.083   0.788  11.369
31236W        W96463  44.958   6.742  14.804
31237W        W96464   4.278  33.400  12.476
31238W        W96465   4.235  12.696   2.421
31239W        W96466   2.760   7.332  14.077
31240W        W96467  16.098   0.836   0.013
31241W        W96468   5.692   6.934  10.984
31242W        W96469  22.788  14.145   2.804
31243W        W96470  12.996  17.528   3.248
31244W        W96471  40.490   8.864   1.260
31245W        W96472   0.590  23.696  14.978
31246W        W96473   4.326   9.741   0.393
31247W        W96474  25.458  37.484  14.387
31248W        W96475  36.497  41.030  14.764
31249W        W96476  26.329   3.593   3.110
31250W        W96477  13.265   3.380  12.977
31251W        W96478  40.499   0.673   2.055
31252W        W96479  11.741  37.888   1.938
31253W        W96480  21.837  39.000   0.413
31254W        W96481  13.660  25.601  11.507
31255W        W96482  33.001  18.478  11.126
31256W        W96483  29.550  21.647   2.592
31257W        W96484  24.873   6.971   3.639
31258W        W96485   9.850  22.793   3.780
31259W        W96486   4.739  42.226  12.572
31260W        W96487  40.835   9.744   3.172
31261W        W96488  20.652  42.803  10.682
31262W        W96489   1.483  27.866   2.303
31263W        W96490  34.982  40.872  10.949
31264W        W96491   1.880  43.579   1.800
31265W        W96492   1.014  40.243  12.605
31266W        W96493  24.825  42.408   5.532
31267W        W96494  11.784  44.769   3.172
31268W        W96495  41.016  16.596  11.237
31269W        W96496  26.368   1.776   4.591
31270W        W96497   9.526   9.376   0.311
31271W        W96498  39.445  14.190  13.014
31272W        W96499  18.562  11.662  11.188
31273W        W96500   3.786  33.829  14.868
31274W        W96501  43.165   5.403  12.773
31275W        W96502  43.249  24.477  14.369
31276W        W96503  15.335  13.321  12.943
31277W        W96504  39.347   8.616  13.844
31278W        W96505  21.667  15.871   1.820
31279W        W96506  38.320  10.238   4.159
31280W        W96507   6.887  18.803   3.964
31281W        W96508  15.207  12.746  11.564
31282W        W96509  29.632  11.847   2.833
31283W        W96510   5.396  21.242   2.372
31284W        W96511  44.363   3.165  13.390
31285W        W96512  13.029   0.262   3.590
31286W        W96513  38.149  27.398  14.389
31287W        W96514  40.231  22.999   1.921
31288W        W96515   5.187  31.673   2.713
31289W        W96516   5.932  43.682  13.459
31290W        W96517  15.327  17.627   1.929
31291W        W96518  30.441   6.765  11.622
31292W        W96519  31.747  22.939  11.514
31293W        W96520   6.108   9.202  11.107
31294W        W96521   5.799  34.879   3.391
31295W        W96522  12.589  31.966  12.124
31296W        W96523  36.281  32.212   1.701
31297W        W96524   6.909  22.544   1.839
31298W        W96525  21.801  42.293   0.291
31299W        W96526   8.734  12.338  11.609
31300W        W96527  12.270   6.403  12.546
31301W        W96528  27.093  41.284   1.451
31302W        W96529  10.278  24.565   2.796
31303W        W96530  13.240   3.023   0.702
31304W        W96531  15.514  18.158  12.562
31305W        W96532  44.062  39.813   0.020
31306W        W96533   7.172  18.557  11.278
31307W        W96534  44.648  26.618  11.679
31308W        W96535  22.485  32.190   1.230
31309W        W96536  23.649  15.893  14.937
31310W        W96537   3.489  20.148   0.371
31311W        W96538  28.741  15.308  12.036
31312W        W96539  26.373   9.218   3.095
31313W        W96540  11.398   8.159  13.041
31314W        W96541  40.947  41.330  12.054
31315W        W96542  42.857  30.061   2.793
31316W        W96543   3.165   8.274   3.300
31317W        W96544  26.539  18.580  13.613
31318W        W96545  29.826  41.059  11.859
31319W        W96546  11.089  17.469   2.257
31320W        W96547  12.243  30.486  10.685
31321W        W96548  23.215  16.678   4.293
31322W        W96549  32.210  24.268  11.170
31323W        W96550  37.390  21.703  13.468
31324W        W96551  11.686  15.509  13.256
31325W        W96552  41.817  20.255  11.254
31326W        W96553  19.145  33.186  11.282
31327W        W96554   0.060  42.081  12.119
31328W        W96555   3.693  43.309   1.443
31329W        W96556  25.043   6.355   4.584
31330W        W96557  15.847  31.475  13.891
31331W        W96558  43.407  27.492  12.372
31332W        W96559  16.085   3.733  14.255
31333W        W96560  35.553   4.497   2.316
31334W        W96561  35.400   9.491   0.479
31335W        W96562  24.061  42.993  12.730
31336W        W96563   7.139  17.112  14.247
31337W        W96564   2.467  36.438  13.359
31338W        W96565  20.651   4.769  11.594
31339W        W96566  20.643  18.072  12.018
31340W        W96567  15.798   2.458  11.340
31341W        W96568  44.882  25.795   1.820
31342W        W96569  24.559  42.333   0.526
31343W        W96570  30.618   9.416   0.282
31344W        W96571  22.462  30.462  12.535
31345W        W96572  28.710  44.401  14.943
31346W        W96573   7.415   6.859  12.413
31347W        W96574  19.872   8.113  12.140
31348W        W96575  11.182  27.728  11.982
31349W        W96576  29.943  31.690  14.928
31350W        W96577   2.042  20.804   5.017
31351W        W96578  20.003   3.541   1.035
31352W        W96579   9.209  41.019  11.468
31353W        W96580  40.954  14.089   2.294
31354W        W96581  29.022  42.050  13.479
31355W        W96582   0.329   5.271   0.733
31356W        W96583  21.524   2.903  14.108
31357W        W96584   2.634  13.667  14.082
31358W        W96585  33.062   3.116   3.624
31359W        W96586   8.750  29.044  11.852
31360W        W96587  25.633  20.239  14.579
31361W        W96588  19.722  20.749   3.208
31362W        W96589  38.972  20.761  14.385
31363W        W96590  17.365  15.607  14.305
31364W        W96591   4.463  22.427  13.208
31365W        W96592  24.780  22.269   1.386
31366W        W96593  23.020  23.661   4.075
31367W        W96594  15.999  35.127  14.673
31368W        W96595  21.530   8.662  12.392
31369W        W96596   2.500  42.355  12.174
31370W        W96597  22.312  21.592   2.220
31371W        W96598  13.328  31.829   0.013
31372W        W96599   0.711  44.851   0.115
31373W        W96600  19.823   6.782  13.494
31374W        W96601  34.096  23.278  11.191
31375W        W96602   0.393  34.614  12.274
31376W        W96603  23.664  36.544   3.639
31377W        W96604  42.939  19.036  13.848
31378W        W96605   6.745  19.468   1.334
31379W        W96606  28.903  36.324   2.782
31380W        W96607  15.162  16.710  12.503
31381W        W96608  40.031  21.073  10.496
31382W        W96609   7.281   8.810   2.476
31383W        W96610  26.921  35.265  11.690
31384W        W96611  41.415  19.182   0.684
31385W        W96612  14.792  31.910   2.526
31386W        W96613  18.239  41.562  12.843
31387W        W96614   4.332   0.908  10.918
31388W        W96615  34.619   5.291   2.739
31389W        W96616   5.264  29.456  11.396
31390W        W96617  27.372  31.941  11.640
31391W        W96618   9.742  38.175  11.006
31392W        W96619   8.559  44.277  10.177
31393W        W96620  20.768  29.132  12.555
31394W        W96621   4.035  22.126   4.523
31395W        W96622  34.151  25.578  14.384
31396W        W96623  15.983  11.321  11.576
31397W        W96624  18.624   0.797  10.748
31398W        W96625  40.326  30.194  11.893
31399W        W96626   7.628   5.750  13.365
31400W        W96627  25.521  29.121  11.217
31401W        W96628   6.288   0.936  12.199
31402W        W96629  29.185   0.728  14.432
31403W        W96630  40.019  26.131   1.929
31404W        W96631   7.781  13.510  10.271
31405W        W96632  18.578  16.711  12.445
31406W        W96633  31.474   7.086   1.220
31407W        W96634   2.353   0.383  14.395
31408W        W96635   4.346  23.543  12.375
31409W        W96636  34.850  23.557  12.984
31410W        W96637   4.458  31.529   2.159
31411W        W96638  41.646  13.106   1.938
31412W        W96639   4.082  34.236   4.968
31413W        W96640  14.032   3.468   3.271
31414W        W96641  22.079  31.167  12.445
31415W        W96642  39.133   0.218   3.461
31416W        W96643  35.847  15.851  12.097
31417W        W96644  25.830   1.071  10.061
31418W        W96645  42.209  10.792  14.290
31419W        W96646  38.965  32.199   4.579
31420W        W96647  36.886  22.682   1.799
31421W        W96648   9.741   4.229  14.389
31422W        W96649  12.103  17.756   0.741
31423W        W96650  21.035  11.756   2.525
31424W        W96651  27.642  28.938  12.364
31425W        W96652   7.480  29.229  12.842
31426W        W96653  19.182  32.913   3.608
31427W        W96654  27.135  34.547   4.090
31428W        W96655   5.133   7.699  12.183
31429W        W96656  14.148   4.769  13.913
31430W        W96657   8.723  36.339  14.446
31431W        W96658  10.753  11.216   3.627
31432W        W96659   5.845  23.661  12.952
31433W        W96660  33.890  21.866  14.908
31434W        W96661  17.087   2.427  14.083
31435W        W96662  11.433  27.487   3.258
31436W        W96663  24.076  34.996  14.523
31437W        W96664  44.634  36.048  11.241
31438W        W96665   3.894  38.838  13.464
31439W        W96666  25.193  19.683  14.617
31440W        W96667  39.128  23.750  12.904
31441W        W96668  18.681   0.653  14.390
31442W        W96669   5.153   1.297   1.953
31443W        W96670  29.817  32.811  11.253
31444W        W96671  32.525   1.718   3.379
31445W        W96672  43.354  18.023   4.527
31446W        W96673  40.539  23.005  14.826
31447W        W96674  32.401  21.089  10.757
31448W        W96675   2.852   1.487   1.242
31449W        W96676   7.376  13.366   9.983
31450W        W96677  26.132   9.489  11.921
31451W        W96678  36.880  38.405  12.936
31452W        W96679  39.025  19.767  10.112
31453W        W96680  10.223  29.689   2.898
31454W        W96681  18.745  30.956  11.555
31455W        W96682  43.498   2.293   1.760
31456W        W96683  10.273  44.010  12.359
31457W        W96684   9.685  20.020   3.349
31458W        W96685  28.466  20.849   0.010
31459W        W96686   2.796  15.408  11.586
31460W        W96687  30.575  44.762  10.723
31461W        W96688   0.693  39.404  13.367
31462W        W96689  28.563   9.634   4.623
31463W        W96690  43.589  15.223   1.911
31464W        W96691   9.059  23.068  11.593
31465W        W96692   8.099  30.265  13.047
31466W        W96693  21.597  42.003   3.614
31467W        W96694   6.912  35.347  14.569
31468W        W96695   9.771   5.823  13.414
31469W        W96696  41.563   6.354   2.318
31470W        W96697  20.699  23.744  10.837
31471W        W96698   0.282  18.877  14.124
31472W        W96699  20.134   6.710   0.668
31473W        W96700   5.429  20.115   1.981
31474W        W96701  26.180  22.251  10.705
31475W        W96702  33.390  23.122   0.752
31476W        W96703  37.968  10.121  13.270
31477W        W96704  23.623  34.169   1.834
31478W        W96705   4.771   9.143   3.358
31479W        W96706   8.179  35.304   3.724
31480W        W96707  25.897   4.554   1.903
31481W        W96708  27.622  29.717  12.875
31482W        W96709  28.075  10.699   0.800
31483W        W96710  32.798  37.671  11.187
31484W        W96711  24.631  36.580   1.770
31485W        W96712  41.672  21.073  14.373
31486W        W96713  18.653  44.742  13.328
31487W        W96714  11.730   8.262   2.762
31488W        W96715  41.538  34.972  13.797
31489W        W96716  44.984  40.292  11.093
31490W        W96717  20.685  11.874   0.589
31491W        W96718  11.686   6.884   3.182
31492W        W96719  14.861  11.845   1.227
31493W        W96720  15.081   9.803   0.809
31494W        W96721   6.213  13.500   3.006
31495W        W96722  25.802  11.242   2.873
31496W        W96723  13.776  15.792   0.512
31497W        W96724   4.269   6.228  11.757
31498W        W96725  13.874  28.641  12.954
31499W        W96726   3.622  16.243   3.121
31500W        W96727  40.434  37.200  13.613
31501W        W96728   7.347  29.151  14.216
31502W        W96729  37.078  26.289  14.462
31503W        W96730  26.658  35.792   4.528
31504W        W96731  40.957  14.914  12.449
31505W        W96732   0.018  21.317  11.799
31506W        W96733  14.152  44.099  11.960
31507W        W96734  14.054  16.766  12.441
31508W        W96735  11.335  20.548   2.293
31509W        W96736  25.924  33.920   2.809
31510W        W96737  10.454  12.118  14.414
31511W        W96738  27.623  23.082   3.335
31512W        W96739  39.155  28.827  11.077
31513W        W96740  23.663  11.613   4.151
31514W        W96741   5.876  36.796  13.011
31515W        W96742  41.820   5.081   3.303
31516W        W96743   7.408  15.627   3.206
31517W        W96744   0.013  27.846  13.371
31518W        W96745   2.723  39.937  12.724
31519W        W96746   2.531   6.265   2.864
31520W        W96747  26.481  10.311  14.209
31521W        W96748  14.384  39.356  11.455
31522W        W96749  27.064  31.382  14.833
31523W        W96750  37.871   9.318  14.546
31524W        W96751   7.599  13.179   2.532
31525W        W96752  27.531  17.603  11.574
31526W        W96753  38.654  16.955  10.396
31527W        W96754  10.896  16.264   1.550
31528W        W96755  10.780  27.587   4.040
31529W        W96756   6.463   5.329   1.244
31530W        W96757  33.938  30.853   4.165
31531W        W96758  24.632  31.615  13.040
31532W        W96759  22.149  42.962  10.917
31533W        W96760  15.748  36.820  12.832
31534W        W96761  10.306   8.804   4.652
31535W        W96762  42.012   2.919   4.185
31536W        W96763  40.456  33.465   3.255
31537W        W96764  38.627  23.496  11.677
31538W        W96765  26.066   8.416   1.640
31539W        W96766  24.057  27.885   4.251
31540W        W96767  32.447  31.716   4.067
31541W        W96768  41.461  38.895   3.878
31542W        W96769  16.495  21.455  12.000
31543W        W96770  19.970  22.860   1.268
31544W        W96771  35.688  33.598  14.465
31545W        W96772  24.511  43.830   3.629
31546W        W96773  38.149   2.837   0.396
31547W        W96774  16.573  30.910  14.817
31548W        W96775  37.055   8.676   1.412
31549W        W96776   3.341  22.642  11.902
31550W        W96777  39.915  28.367  12.025
31551W        W96778  32.078  33.610   1.243
31552W        W96779  37.931  25.957  14.718
31553W        W96780  29.149  16.345   1.016
31554W        W96781  17.824  13.595   1.784
31555W        W96782   2.709  19.815   2.588
31556W        W96783  44.006  20.986   3.602
31557W        W96784  34.504  30.615  12.970
31558W        W96785  22.657   4.358  11.225
31559W        W96786   8.593  12.510   1.862
31560W        W96787   7.077  43.715  13.068
31561W        W96788  42.738  29.337   5.038
31562W        W96789  32.998  30.132   2.692
31563W        W96790  12.364   0.566  10.567
31564W        W96791  36.299   8.780  13.673
31565W        W96792  14.544  15.596   3.740
31566W        W96793  20.845  19.286   2.220
31567W        W96794  20.998   0.429  10.629
31568W        W96795   6.483  34.603  13.612
31569W        W96796  39.709  21.218   1.068
31570W        W96797   6.360  35.947   4.873
31571W        W96798  17.813  17.560  11.532
31572W        W96799  35.331  37.389   3.164
31573W        W96800  33.546  26.164   0.950
31574W        W96801   1.545  32.647   0.025
31575W        W96802  41.537   3.298   3.130
31576W        W96803  14.387  40.556   4.566
31577W        W96804  37.261   3.394   2.106
31578W        W96805  31.985   6.353  14.068
31579W        W96806  14.244   7.395   0.337
31580W        W96807  20.730  44.909  13.886
31581W        W96808   1.402   2.375  13.687
31582W        W96809   4.765  38.225  13.147
31583W        W96810   4.906  28.111  10.694
31584W        W96811   7.561  19.395  10.095
31585W        W96812  27.478  20.628  13.834
31586W        W96813  11.350  24.714  12.096
31587W        W96814  10.656   9.924  12.465
31588W        W96815  15.276  39.444   0.425
31589W        W96816  17.301   9.205  12.498
31590W        W96817  18.288   3.081  12.016
31591W        W96818  28.027  23.159  12.465
31592W        W96819  30.636  20.820   2.870
31593W        W96820  23.442  33.333   3.432
31594W        W96821  30.417  30.691  14.398
31595W        W96822  35.483  24.475  11.765
31596W        W96823  37.852   2.925  12.897
31597W        W96824  32.867   5.529  11.068
31598W        W96825   5.816  27.741  12.536
31599W        W96826   6.743   6.289  11.642
31600W        W96827  30.974   6.747   3.707
31601W        W96828  17.292  41.943   0.702
31602W        W96829  17.646   3.831  11.621
31603W        W96830  33.725  11.483   0.743
31604W        W96831  44.623  27.771  10.002
31605W        W96832  31.620  11.403   2.284
31606W        W96833   7.628  32.767  11.957
31607W        W96834  43.176  34.100   2.236
31608W        W96835  12.858  11.401  14.880
31609W        W96836  40.471  43.774  11.983
31610W        W96837  13.723   9.954  13.177
31611W        W96838  22.655  43.225  10.693
31612W        W96839   0.016  32.044  14.908
31613W        W96840  27.193  32.499  12.147
31614W        W96841  24.831  40.589   0.676
31615W        W96842  11.719  29.760  13.945
31616W        W96843  22.588  21.097  12.946
31617W        W96844  40.347   1.391   1.379
31618W        W96845  12.789   7.720  13.531
31619W        W96846  26.568   0.491   0.701
31620W        W96847  11.304  29.878   4.056
31621W        W96848  23.233  44.259  11.331
31622W        W96849  30.610  25.006  11.991
31623W        W96850  12.582   6.172   0.623
31624W        W96851  19.249  29.889   2.746
31625W        W96852  38.051  29.801   3.288
31626W        W96853  44.892  18.033  13.804
31627W        W96854  34.010  36.342   2.895
31628W        W96855  34.877  12.144   1.006
31629W        W96856   3.275  32.539  13.587
31630W        W96857  18.869  39.164  13.081
31631W        W96858  36.847   4.257   0.288
31632W        W96859  25.535  14.881  13.505
31633W        W96860  37.887   4.911   0.711
31634W        W96861  23.767  38.302   3.929
31635W        W96862  19.714  29.190   3.074
31636W        W96863  35.754  27.155  12.949
31637W        W96864  14.626  17.287  13.002
31638W        W96865  12.110   8.248   0.283
31639W        W96866  18.075   7.859   2.914
31640W        W96867  20.778  37.797  13.445
31641W        W96868  36.511  12.592   0.821
31642W        W96869   0.272  40.044   0.666
31643W        W96870   6.314  41.085  13.821
31644W        W96871  43.846   1.021  14.032
31645W        W96872  14.356  40.804  11.991
31646W        W96873  20.681  22.263   2.885
31647W        W96874   0.815   2.903   0.215
31648W        W96875  41.617  18.624  14.327
31649W        W96876   6.455   7.403  13.460
31650W        W96877  19.564  18.694  13.463
31651W        W96878   4.643  12.213   2.227
31652W        W96879  20.697  14.310  12.943
31653W        W96880  24.152   2.216  11.673
31654W        W96881  13.788   4.707   2.796
31655W        W96882  10.223  24.191   0.529
31656W        W96883   6.316  30.610  13.321
31657W        W96884  37.336  31.624   4.092
31658W        W96885  28.608  25.437   0.632
31659W        W96886   2.425  30.034   1.348
31660W        W96887   4.386  10.004   2.226
31661W        W96888   9.672  31.578   0.496
31662W        W96889  33.156  27.947   2.281
31663W        W96890   8.386  28.083   4.670
31664W        W96891  14.222   4.146   4.040
31665W        W96892  40.565  24.199   0.409
31666W        W96893  43.398  39.753  11.667
31667W        W96894  17.056  34.589  12.606
31668W        W96895  31.770   2.384  14.576
31669W        W96896  14.320  12.287   3.630
31670W        W96897  19.659  22.524   4.684
31671W        W96898  16.546  18.324   2.945
31672W        W96899  35.995  18.114   1.333
31673W        W96900  11.617  18.669   0.721
31674W        W96901   1.281  15.625  10.713
31675W        W96902  42.960   2.113   4.189
31676W        W96903   2.947  42.359   0.957
31677W        W96904  35.606  12.432  12.391
31678W        W96905  23.969  17.683   0.248
31679W        W96906  37.297  14.608  14.446
31680W        W96907  16.158  30.205   3.184
31681W        W96908  28.713  34.607  14.309
31682W        W96909  17.847  29.395  11.539
31683W        W96910  36.988   2.940   3.337
31684W        W96911  29.923  31.064  13.365
31685W        W96912  19.313   6.742   3.304
31686W        W96913  12.370  24.960  11.746
31687W        W96914   8.381  34.869  10.648
31688W        W96915  39.956  40.339   1.256
31689W        W96916  28.445  23.700   1.959
31690W        W96917  42.644  24.204   1.868
31691W        W96918  19.984  37.588  13.607
31692W        W96919   2.793  28.074   0.536
31693W        W96920  43.673  18.144   0.332
31694W        W96921  27.934  37.784  13.403
31695W        W96922  31.909  24.037  11.546
31696W        W96923  18.195  26.014   1.993
31697W        W96924  38.302   7.226   3.767
31698W        W96925  37.544  37.334   1.421
31699W        W96926  19.048  39.579   0.853
31700W        W96927  11.954  43.328   1.628
31701W        W96928  34.965  39.316  10.684
31702W        W96929   7.054  30.111  13.091
31703W        W96930   3.522  31.580   3.138
31704W        W96931  13.566  12.863   5.003
31705W        W96932  15.180   3.502  13.374
31706W        W96933  21.858  36.033  11.117
31707W        W96934  37.710  36.451  12.492
31708W        W96935  20.068  31.489   1.209
31709W        W96936   2.944  23.049  12.015
31710W        W96937  12.179  11.112   4.565
31711W        W96938  13.047  25.530   2.601
31712W        W96939   6.934   0.609  12.802
31713W        W96940   4.070   2.981   4.621
31714W        W96941   9.682  15.739   0.634
31715W        W96942  33.064  43.487  13.389
31716W        W96943   3.312  41.750   3.793
31717W        W96944  30.074  36.361   4.129
31718W        W96945  29.904   6.025  13.420
31719W        W96946   8.168  31.941   3.624
31720W        W96947   8.899  14.908  14.613
31721W        W96948  17.596  23.164  12.636
31722W        W96949  24.717  12.213   3.450
31723W        W96950   8.721  33.629  10.158
31724W        W96951  26.874  14.183   4.028
31725W        W96952  39.270  25.167  12.075
31726W        W96953  13.162  41.709   4.142
31727W        W96954  21.526  30.474  11.463
31728W        W96955  34.918  44.228  10.802
31729W        W96956  15.086  26.568   0.945
31730W        W96957  41.475  12.102  13.070
31731W        W96958  34.450  28.095   0.829
31732W        W96959  10.135   7.992   4.107
31733W        W96960   0.496  15.595   9.959
31734W        W96961   8.928  23.002   0.985
31735W        W96962  14.693  38.682   4.182
31736W        W96963  34.390  16.258   4.677
31737W        W96964  32.984  10.472  12.059
31738W        W96965  21.188  17.506  11.495
31739W        W96966  28.104   7.030  12.274
31740W        W96967  16.014  26.737  14.557
31741W        W96968  40.422  11.736   2.722
31742W        W96969  15.544  20.039  11.543
31743W        W96970  25.012   9.348  11.946
31744W        W96971  23.788  15.384  14.956
31745W        W96972   7.984  25.796   2.393
31746W        W96973  30.846  40.444   3.370
31747W        W96974   0.490  20.597  11.660
31748W        W96975  41.320  28.699   3.293
31749W        W96976  44.768  39.413   2.323
31750W        W96977  44.054  27.979   4.101
31751W        W96978  26.303  30.943  14.831
31752W        W96979  15.676   9.559  12.089
31753W        W96980   9.439   0.450   4.265
31754W        W96981  27.705  25.758   1.841
31755W        W96982  35.828  33.557  14.988
31756W        W96983  19.480  36.459   0.354
31757W        W96984  41.858   5.471   2.379
31758W        W96985  36.837  29.831   2.674
31759W        W96986  30.120  11.096   5.087
31760W        W96987  43.948   4.219   0.357
31761W        W96988  43.988  10.599   2.841
31762W        W96989   5.170   5.816  10.799
31763W        W96990  35.932   3.344   4.774
31764W        W96991  28.177  30.538  13.323
31765W        W96992  20.287  20.712   4.697
31766W        W96993   3.913   6.706   3.625
31767W        W96994   2.242  10.043  11.173
31768W        W96995  40.401  14.474  13.069
31769W        W96996  42.941   7.324  10.680
31770W        W96997  33.625  23.686   2.466
31771W        W96998  21.472  23.555  10.950
31772W        W96999  24.305  31.729   1.321
31773W        W97000  18.814   2.265  14.435
31774W        W97001   4.707   0.440  13.536
31775W        W97002  16.640  36.490   0.372
31776W        W97003  15.334  24.798   2.885
31777W        W97004  18.357   3.528  10.719
31778W        W97005   5.762  10.068  12.533
31779W        W97006   0.263  13.056  11.260
31780W        W97007  30.510  10.793   4.958
31781W        W97008  42.610  17.899  12.066
31782W        W97009   2.148   0.519  11.435
31783W        W97010  20.896  17.085   3.659
31784W        W97011  17.808  21.226   1.898
31785W        W97012  13.522  28.173   2.237
31786W        W97013  35.445  19.520   3.811
31787W        W97014   4.106   8.467   4.204
31788W        W97015  29.563  42.702   4.972
31789W        W97016  33.341  28.256   0.941
31790W        W97017  40.788  41.027   2.792
31791W        W97018  11.737  28.521  11.672
31792W        W97019   0.075  40.777  12.509
31793W        W97020   8.718   8.848   0.898
31794W        W97021  17.539  37.295   5.128
31795W        W97022   5.089  31.894  10.975
31796W        W97023  35.556  35.909  14.929
31797W        W97024  21.261  25.987   2.798
31798W        W97025   8.712   3.995   2.210
31799W        W97026  39.999  36.596   4.594
31800W        W97027  43.250  21.638   4.144
31801W        W97028   4.811   5.747  13.939
31802W        W97029  30.552   2.938  12.463
31803W        W97030  20.195  13.106  13.289
31804W        W97031   3.231  22.576  11.414
31805W        W97032  30.086  38.590  14.912
31806W        W97033  41.450  32.965   4.080
31807W        W97034  42.638   9.731   1.232
31808W        W97035  25.230  27.093  12.431
31809W        W97036  15.066  40.597  13.640
31810W        W97037  38.399  11.226  10.617
31811W        W97038  18.953   5.194  12.627
31812W        W97039  30.563  15.902   2.169
31813W        W97040  12.395   6.454   3.727
31814W        W97041  20.778  43.055   9.853
31815W        W97042  35.190  43.716  12.808
31816W        W97043  20.193  26.475  11.152
31817W        W97044  42.909  36.135  14.258
31818W        W97045   7.533  19.089   2.628
31819W        W97046   6.248   8.735  12.309
31820W        W97047  39.454  13.318  12.479
31821W        W97048  11.518   1.316   4.374
31822W        W97049   4.740  25.701  10.235
31823W        W97050  18.144  29.407  13.295
31824W        W97051  41.711  13.910   4.988
31825W        W97052  17.665  19.033  11.579
31826W        W97053  21.080  13.043   2.308
31827W        W97054  25.740   3.451   1.625
31828W        W97055   6.030  35.005  12.482
31829W        W97056  11.340  26.222   0.456
31830W        W97057  20.851   8.800  13.629
31831W        W97058  39.991   6.266  14.045
31832W        W97059  32.416  17.532  11.762
31833W        W97060  11.381   5.326  12.785
31834W        W97061   0.945  11.903   4.234
31835W        W97062  15.528   0.944  13.519
31836W        W97063  44.476  21.259   2.731
31837W        W97064  13.279   3.851  10.675
31838W        W97065  38.821  19.632  12.759
31839W        W97066  11.321  26.027  12.505
31840W        W97067  30.334  41.064   3.165
31841W        W97068  30.491  22.754   2.278
31842W        W97069  19.264  44.368   3.044
31843W        W97070  20.474   8.737   2.704
31844W        W97071   0.776   6.693   4.153
31845W        W97072  29.632  31.035  12.448
31846W        W97073   7.731  31.467   2.928
31847W        W97074  28.875   5.928  12.423
31848W        W97075  28.175   6.592   2.428
31849W        W97076  36.955  17.230  13.834
31850W        W97077  39.348   3.122  13.635
31851W        W97078  11.326   8.634  13.348
31852W        W97079  20.704  18.208   0.102
31853W        W97080  32.920  29.557  14.796
31854W        W97081  13.821  14.103   2.806
31855W        W97082  24.227   3.780   3.451
31856W        W97083  34.815  43.251  12.024
31857W        W97084  44.057  30.686  12.653
31858W        W97085  18.472  40.580  11.116
31859W        W97086  27.150  21.655   4.876
31860W        W97087  25.760  17.442  10.780
31861W        W97088  25.066  15.518   3.048
31862W        W97089  43.324   3.066  10.280
31863W        W97090  18.480   9.710  11.172
31864W        W97091   4.653  21.679   3.249
31865W        W97092   3.946  17.550  14.573
31866W        W97093  22.565  39.616   2.202
31867W        W97094  26.611  22.000  11.604
31868W        W97095   7.394   5.414  10.805
31869W        W97096  12.980  22.766   1.205
31870W        W97097   3.438   2.446  10.629
31871W        W97098  31.062  37.576  12.150
31872W        W97099   3.480  17.298  14.459
31873W        W97100   7.808  18.313  13.118
31874W        W97101  24.135  17.596   1.661
31875W        W97102  16.392  37.989   2.847
31876W        W97103  40.851  40.920   1.339
31877W        W97104  32.901  17.336  11.872
31878W        W97105  14.730  23.299   1.167
31879W        W97106  44.309  21.786  10.185
31880W        W97107  21.119  37.822  10.911
31881W        W97108  23.728  20.731   4.138
31882W        W97109  39.555   3.747   3.693
31883W        W97110  15.884  43.936  14.865
31884W        W97111  17.817   9.817  13.501
31885W        W97112  41.444   0.513   3.997
31886W        W97113  34.346   6.233  11.621
31887W        W97114  13.695  42.025   1.069
31888W        W97115  32.619  44.954  14.340
31889W        W97116  26.653   2.779   2.008
31890W        W97117  40.858  18.047  12.190
31891W        W97118  23.086   7.197  14.762
31892W        W97119  36.899  26.957  11.065
31893W        W97120  25.384  41.484  12.163
31894W        W97121  34.332  30.990   1.760
31895W        W97122  44.897   1.304  13.913
31896W        W97123  17.135   4.680  10.440
31897W        W97124  39.707  25.638  14.033
31898W        W97125   7.954  15.062   1.778
31899W        W97126  25.743  17.169  13.958
31900W        W97127  14.035   8.608  13.706
31901W        W97128  34.382  17.526   1.433
31902W        W97129  40.434  17.933   1.806
31903W        W97130  30.327  15.990  14.803
31904W        W97131  44.086  22.391  13.964
31905W        W97132  44.899  21.016  13.957
31906W        W97133  38.031  41.939  14.260
31907W        W97134  33.880   6.932  12.549
31908W        W97135   6.180  11.519  13.327
31909W        W97136  32.405  29.553  14.874
31910W        W97137  16.614  32.395  14.790
31911W        W97138  44.545   4.974  12.319
31912W        W97139   0.803  23.821  10.134
31913W        W97140  23.942   1.280   3.152
31914W        W97141   4.052  25.063   4.280
31915W        W97142  43.185  26.629   1.804
31916W        W97143  36.178   1.189   1.894
31917W        W97144  24.961   8.821  13.307
31918W        W97145   9.253  37.110   0.675
31919W        W97146   7.824  16.566  12.399
31920W        W97147  41.066  44.816   2.853
31921W        W97148  17.363  15.228   1.269
31922W        W97149  32.116  11.308   2.226
31923W        W97150  40.669   4.261   3.223
31924W        W97151  14.784   6.343  10.570
31925W        W97152  27.052  34.857   2.739
31926W        W97153  13.662   6.760   4.805
31927W        W97154   8.684  16.288   2.713
31928W        W97155  23.196  32.108   2.880
31929W        W97156  29.660  42.838  10.326
31930W        W97157  43.211  15.288  10.337
31931W        W97158  40.287  13.225  14.816
31932W        W97159   5.771   7.900  13.139
31933W        W97160  23.073  22.320  13.541
31934W        W97161   7.706  26.843   3.746
31935W        W97162  25.919   9.804  10.771
31936W        W97163  22.107  27.432   1.139
31937W        W97164  26.013   1.845  12.594
31938W        W97165  38.319   5.627   0.154
31939W        W97166  33.024   0.486  12.196
31940W        W97167  33.421  26.187  12.840
31941W        W97168  40.776  27.460   1.432
31942W        W97169   9.836  18.655  12.202
31943W        W97170  14.920  22.176  10.260
31944W        W97171  31.673  24.101  12.006
31945W        W97172  42.771  39.027  11.960
31946W        W97173  40.658  29.080   2.769
31947W        W97174  42.018  29.759   0.942
31948W        W97175  28.448  40.243   3.609
31949W        W97176  20.937  38.044  14.485
31950W        W97177  19.802  33.603  11.518
31951W        W97178  33.629   7.800   4.584
31952W        W97179  18.247  39.372  12.875
31953W        W97180  24.542  15.041  14.620
31954W        W97181  19.243  19.049  12.829
31955W        W97182   3.473  44.644  12.157
31956W        W97183  26.600  33.571  13.368
31957W        W97184   0.260  36.909   2.768
31958W        W97185   6.769   1.149   3.508
31959W        W97186  37.340  38.587   2.301
31960W        W97187   0.956  37.109  11.490
31961W        W97188   9.597  12.895  11.465
31962W        W97189  11.102  39.051   2.394
31963W        W97190  44.288  31.100   2.364
31964W        W97191  38.355   5.211  13.616
31965W        W97192  34.529  34.748  14.885
31966W        W97193  32.184   2.203   3.525
31967W        W97194  29.551  17.980  11.166
31968W        W97195  17.613  21.686  13.845
31969W        W97196   7.147   4.186  12.163
31970W        W97197   0.910  15.278   1.292
31971W        W97198  12.994   2.355  12.387
31972W        W97199  40.194  38.027  11.193
31973W        W97200  37.426   9.586  14.596
31974W        W97201  20.712   2.432  14.960
31975W        W97202  14.450  12.148   2.795
31976W        W97203  13.635  44.047   4.668
31977W        W97204  14.631  35.288  14.825
31978W        W97205  36.351   3.400   0.254
31979W        W97206  33.211  28.025   1.386
31980W        W97207  31.326  35.788  11.979
31981W        W97208  29.176   8.889  14.014
31982W        W97209  25.422  22.736   0.741
31983W        W97210  17.041  22.340  12.295
31984W        W97211  24.203  33.812  10.624
31985W        W97212  44.411   8.116   0.412
31986W        W97213  44.432   3.247   4.595
31987W        W97214  22.782  39.715   4.054
31988W        W97215  38.543  35.623  12.984
31989W        W97216  14.887  10.261  11.610
31990W        W97217   3.832  16.142  14.320
31991W        W97218  42.667  40.771   2.815
31992W        W97219  20.645   9.579   0.872
31993W        W97220  35.610  11.770   3.100
31994W        W97221   7.432  12.597   4.098
31995W        W97222  14.139  43.931   1.415
31996W        W97223  36.868   2.736  10.769
31997W        W97224   9.200  13.779  10.746
31998W        W97225  44.303  19.039   3.714
31999W        W97226  11.287  23.763   3.890
32000W        W97227  44.049  31.051   0.189
32001W        W97228  36.732   3.857   2.615
32002W        W97229   3.749  24.519   1.455
32003W        W97230   7.408  39.264   4.538
32004W        W97231  16.438  20.983  14.400
32005W        W97232  24.106  23.003   2.261
32006W        W97233  33.422  28.956  14.800
32007W        W97234  27.999  28.739   0.762
32008W        W97235   3.269  36.399   2.369
32009W        W97236  37.367   3.779   3.330
32010W        W97237  21.063  37.140   3.657
32011W        W97238  32.599  13.243   3.165
32012W        W97239   9.281   4.327   0.362
32013W        W97240  28.133  39.147  13.436
32014W        W97241  41.963   6.825   0.263
32015W        W97242  24.213  27.178  11.530
32016W        W97243   5.817  30.014   3.237
32017W        W97244  30.731  13.750  14.224
32018W        W97245  42.931  38.759  10.769
32019W        W97246  22.753  26.687   2.275
32020W        W97247  11.697   6.747   3.702
32021W        W97248  18.329  10.221  11.984
32022W        W97249  31.556   0.860   4.658
32023W        W97250  38.553   5.453  14.646
32024W        W97251   4.260  34.426  12.941
32025W        W97252  31.442  29.374  14.955
32026W        W97253  22.118   7.104   3.470
32027W        W97254  12.907  32.970  11.566
32028W        W97255  19.514  10.191   1.363
32029W        W97256   0.321  12.418  14.619
32030W        W97257  26.497   1.347   0.301
32031W        W97258  36.041   6.739  11.976
32032W        W97259   1.920  42.790  12.077
32033W        W97260   5.502  13.046  12.871
32034W        W97261   1.045  31.684   1.842
32035W        W97262  32.477  30.435   0.212
32036W        W97263   9.914  18.834   2.634
32037W        W97264  42.821  37.110   1.771
32038W        W97265  42.866   0.338  11.443
32039W        W97266  41.326  28.422   1.294
32040W        W97267  37.930  22.650  12.851
32041W        W97268  32.829  42.340   2.432
32042W        W97269  16.478  30.141   0.462
32043W        W97270  35.051  21.749   3.685
32044W        W97271  33.388   3.351  13.042
32045W        W97272  26.856   8.772   1.749
32046W        W97273   8.989  36.758  10.943
32047W        W97274  39.894  28.018   2.231
32048W        W97275   7.394  31.567   0.711
32049W        W97276  41.395  42.135   4.118
32050W        W97277  39.119  37.111  10.929
32051W        W97278  41.319  40.863  14.238
32052W        W97279   5.517  31.905   2.364
32053W        W97280  18.081   5.324   0.733
32054W        W97281   9.425  11.841   4.623
32055W        W97282  42.484   6.757   0.288
32056W        W97283  44.004  23.074   4.169
32057W        W97284   7.722  33.400  12.487
32058W        W97285  16.145  44.630   2.699
32059W        W97286   0.854  10.724  14.764
32060W        W97287  26.188  25.159  13.989
32061W        W97288  25.366  25.467   1.002
32062W        W97289  10.643  31.034  10.905
32063W        W97290  11.046  44.846   1.310
32064W        W97291   2.262  36.078  12.146
32065W        W97292  23.229   3.472   0.846
32066W        W97293   8.924  17.026   2.197
32067W        W97294  17.167  14.841   2.803
32068W        W97295  20.158  40.773  13.485
32069W        W97296   0.786  22.159  14.038
32070W        W97297  38.007  42.994   4.143
32071W        W97298  44.407  30.049   3.610
32072W        W97299  37.063  36.778   1.004
32073W        W97300  38.766  31.404   4.117
32074W        W97301  25.433  41.256  14.058
32075W        W97302  42.788  37.036   0.869
32076W        W97303  21.173   8.788   3.712
32077W        W97304  20.762  16.427   4.103
32078W        W97305  10.853  39.132  11.083
32079W        W97306  28.686   2.787  11.076
32080W        W97307   8.861  17.826  14.017
32081W        W97308  15.591  38.592   2.285
32082W        W97309  31.497  15.512   2.693
32083W        W97310  12.836   1.787   1.888
32084W        W97311  10.112  42.252  11.200
32085W        W97312   7.836   3.558  10.734
32086W        W97313   7.032   0.895  12.380
32087W        W97314   3.025  18.019  12.700
32088W        W97315  27.518  44.866   4.851
32089W        W97316  20.348   8.871  10.563
32090W        W97317  26.907  33.394  12.472
32091W        W97318  11.257   9.854   4.155
32092W        W97319  32.041  26.053   3.352
32093W        W97320  15.229  30.443  12.818
32094W        W97321  18.687  16.129  13.391
32095W        W97322  16.698  12.234   2.150
32096W        W97323  21.454   7.790  12.446
32097W        W97324  39.916   7.533  13.035
32098W        W97325   6.820  37.075  13.620
32099W        W97326  24.592  22.378   2.756
32100W        W97327   0.721   6.268  14.753
32101W        W97328  12.145  33.878   3.201
32102W        W97329   7.594  18.016  14.445
32103W        W97330  34.181  33.945   0.257
32104W        W97331  36.134  33.702   1.430
32105W        W97332  43.564  24.970  11.187
32106W        W97333  31.474   4.925   0.395
32107W        W97334   6.273   3.878   1.807
32108W        W97335  38.528  18.281  14.299
32109W        W97336   2.898   2.330   4.854
32110W        W97337   5.255  35.302   1.766
32111W        W97338  38.535  25.511  11.568
32112W        W97339  21.260   0.481   2.647
32113W        W97340   4.466  17.681   2.918
32114W        W97341  39.319   9.751   2.255
32115W        W97342  19.238  40.979   3.125
32116W        W97343  17.293  44.344   1.851
32117W        W97344  26.659  29.621   0.568
32118W        W97345  31.056  31.907   1.149
32119W        W97346  23.053  43.483   3.796
32120W        W97347  20.272  10.843  11.580
32121W        W97348   6.261  31.908   4.548
32122W        W97349  43.503   7.418   1.780
32123W        W97350  31.942  40.262   2.264
32124W        W97351   8.398  22.111   1.858
32125W        W97352  40.399  30.019  10.367
32126W        W97353   4.192  34.732  13.369
32127W        W97354  17.307  10.352  12.035
32128W        W97355  39.111  30.993   2.668
32129W        W97356  42.906  13.863  13.392
32130W        W97357   3.308  31.829   4.920
32131W        W97358  35.770  40.756  12.406
32132W        W97359  42.749   5.241   1.780
32133W        W97360  17.017  43.393   2.742
32134W        W97361  13.707  10.899  13.786
32135W        W97362   3.640  12.820   3.851
32136W        W97363  21.652  33.971   3.733
32137W        W97364   2.400   4.482   3.231
32138W        W97365  24.002  32.884   4.307
32139W        W97366   7.719  40.309  12.925
32140W        W97367  18.215  37.356   4.076
32141W        W97368  20.318   3.125   1.049
32142W        W97369  27.768  18.600   3.133
32143W        W97370   0.951  15.187  13.059
32144W        W97371  31.585  12.036   4.505
32145W        W97372  34.909  14.063  12.147
32146W        W97373  42.408   9.793   0.767
32147W        W97374  20.509  23.395  14.862
32148W        W97375   7.811  23.705   4.660
32149W        W97376  40.468  39.302  13.467
32150W        W97377  29.593  44.024   0.896
32151W        W97378  38.813  26.620   4.763
32152W        W97379  30.580  17.084  12.291
32153W        W97380   7.177  37.835  14.411
32154W        W97381  44.485  11.311  13.048
32155W        W97382  32.246  27.626  13.510
32156W        W97383   0.812  25.190   0.036
32157W        W97384  12.402  35.471   0.986
32158W        W97385   0.796  28.856   2.888
32159W        W97386   5.667   8.903  10.589
32160W        W97387   5.917   7.776   1.786
32161W        W97388  27.511  10.164   4.598
32162W        W97389   5.382  44.004  11.134
32163W        W97390   2.200  24.956   3.632
32164W        W97391  39.831   0.213  11.591
32165W        W97392   3.715  42.224  10.968
32166W        W97393   4.951  14.892  13.364
32167W        W97394  42.001  20.605   0.633
32168W        W97395   2.951  21.001   3.214
32169W        W97396  14.862  29.883   3.757
32170W        W97397   2.409  25.423   2.281
32171W        W97398  12.635  25.236   1.913
32172W        W97399  13.218   2.034   0.934
32173W        W97400  32.562  26.751   2.278
32174W        W97401  23.746   1.256  13.797
32175W        W97402   9.037  20.444   1.813
32176W        W97403  24.289  26.484  14.442
32177W        W97404  11.296  41.052  13.970
32178W        W97405  15.353   4.642  11.878
32179W        W97406   2.760  38.068  13.757
32180W        W97407  43.320   1.735   4.065
32181W        W97408  40.347   2.802   3.155
32182W        W97409  44.895  35.123   3.722
32183W        W97410  19.049  36.950   0.773
32184W        W97411  44.077  32.160  11.059
32185W        W97412  42.362  12.091  11.570
32186W        W97413  43.941   2.732  14.409
32187W        W97414  19.206  32.140   1.193
32188W        W97415  21.674  15.193  12.615
32189W        W97416  35.774   9.815   3.901
32190W        W97417  28.005   4.246   0.468
32191W        W97418  21.234  19.893  11.922
32192W        W97419   5.434  42.548   4.112
32193W        W97420  38.724  39.592   2.324
32194W        W97421   0.988  36.138   3.219
32195W        W97422   8.974  21.158   3.227
32196W        W97423   0.885  42.200   2.648
32197W        W97424  19.420  33.504   1.533
32198W        W97425   9.305  38.883   0.253
32199W        W97426  43.064   9.130  14.797
32200W        W97427  35.367  10.411   3.140
32201W        W97428  37.422  14.641   0.923
32202W        W97429   1.162  31.033   0.783
32203W        W97430   8.118  35.363   2.812
32204W        W97431  23.899   2.629   0.371
32205W        W97432  32.473   2.070  11.587
32206W        W97433  36.860  39.931   1.800
32207W        W97434   5.404  31.194  12.159
32208W        W97435  15.541  15.120   0.351
32209W        W97436   8.655  43.434  14.895
32210W        W97437   1.491  41.716  13.551
32211W        W97438  16.613  22.098  11.274
32212W        W97439   8.296  22.724  14.030
32213W        W97440  16.321  18.706  13.864
32214W        W97441  20.743  28.982  13.969
32215W        W97442  26.032  23.642  13.065
32216W        W97443   0.945   3.847  10.909
32217W        W97444  44.125   5.708  13.063
32218W        W97445  29.813  21.971  14.585
32219W        W97446  17.663  11.161   1.214
32220W        W97447  33.054  13.157  13.359
32221W        W97448  18.729  26.162  14.917
32222W        W97449  11.307  25.477   4.151
32223W        W97450  41.577  10.142  11.961
32224W        W97451   5.251  41.982  11.549
32225W        W97452  28.150  24.706  14.055
32226W        W97453  28.142  15.131   0.287
32227W        W97454  12.303  26.037   2.786
32228W        W97455   2.986   2.221  12.646
32229W        W97456  34.350  17.927  10.830
32230W        W97457  36.194  23.450  14.951
32231W        W97458  40.851  25.519  10.798
32232W        W97459   4.356  19.799  14.445
32233W        W97460  19.567  35.862  13.558
32234W        W97461  39.929   2.427  13.436
32235W        W97462  32.646  19.279   2.396
32236W        W97463  10.370  28.341  12.543
32237W        W97464  12.895   1.361   0.497
32238W        W97465  43.688  42.072   0.814
32239W        W97466  40.991   4.641  12.449
32240W        W97467  21.535  29.260   2.905
32241W        W97468   9.921  14.813  14.478
32242W        W97469  20.932  16.771  14.996
32243W        W97470  28.265  33.175   3.283
32244W        W97471  44.598   0.021  12.466
32245W        W97472  20.356   9.679  13.374
32246W        W97473  14.294   1.765   4.138
32247W        W97474   6.228  28.502  11.039
32248W        W97475  22.765  40.048   1.890
32249W        W97476   8.933  37.531  11.075
32250W        W97477  32.118  38.653   3.533
32251W        W97478  42.345  29.264  12.538
32252W        W97479  29.128  42.939  13.057
32253W        W97480  36.498  19.231  12.605
32254W        W97481  21.641   2.592   0.961
32255W        W97482   9.978  10.833  12.025
32256W        W97483   8.381   4.712   4.528
32257W        W97484  13.611  14.842  14.590
32258W        W97485  38.083  36.565   4.336
32259W        W97486  21.029   0.875  14.838
32260W        W97487  25.123  11.937  13.039
32261W        W97488   0.930  11.006  13.842
32262W        W97489   7.731  28.808  14.302
32263W        W97490  24.159  14.500  13.806
32264W        W97491  10.795  19.583   1.855
32265W        W97492  29.714   8.235  12.066
32266W        W97493  21.358   0.700  13.320
32267W        W97494  17.638  13.345  14.588
32268W        W97495  30.069  44.497   2.778
32269W        W97496   9.758  29.919   3.661
32270W        W97497   1.523   8.886   4.666
32271W        W97498  16.868  25.387   0.685
32272W        W97499  36.691  22.759   4.662
32273W        W97500   9.286   5.230   3.319
32274W        W97501  33.174  19.721   4.632
32275W        W97502  17.650  34.290  14.326
32276W        W97503   7.836  26.646  13.809
32277W        W97504   3.272   3.908   1.258
32278W        W97505  17.810  42.088   5.072
32279W        W97506  17.742   4.405   3.110
32280W        W97507   2.982  40.832   4.205
32281W        W97508   9.912   1.422  12.021
32282W        W97509  18.298  21.616   1.208
32283W        W97510  39.510  14.617  11.307
32284W        W97511  40.882  38.289   1.862
32285W        W97512  39.801  25.868  12.607
32286W        W97513  17.075  15.194   0.826
32287W        W97514   5.949   3.661  12.542
32288W        W97515   8.198  31.167   0.492
32289W        W97516  26.645  18.060  14.449
32290W        W97517   8.900  33.641   0.136
32291W        W97518  29.566  19.098   3.227
32292W        W97519  23.983  35.032  12.980
32293W        W97520  42.370  26.505  14.901
32294W        W97521  33.096  21.109   4.146
32295W        W97522  28.181  24.585   3.656
32296W        W97523  34.737  44.496  12.584
32297W        W97524  29.836  36.839   2.722
32298W        W97525   6.861  27.183   4.570
32299W        W97526  36.604   8.781   2.217
32300W        W97527  26.599  29.710  12.074
32301W        W97528  20.342  22.352   0.498
32302W        W97529  17.785  35.006   2.258
32303W        W97530   5.572  19.541  14.089
32304W        W97531  36.990  22.410   4.915
32305W        W97532  37.438  39.391  10.721
32306W        W97533  22.042  13.179   2.114
32307W        W97534  39.075   8.229   5.301
32308W        W97535  19.233   9.177   1.408
32309W        W97536  21.433  29.976   1.320
32310W        W97537  28.961  30.415   0.149
32311W        W97538  13.816  10.571   3.618
32312W        W97539   0.993  13.683  14.946
32313W        W97540  14.391  43.495  14.840
32314W        W97541  26.445  35.035  14.568
32315W        W97542   6.641   2.801  12.379
32316W        W97543  28.489  20.341  11.188
32317W        W97544  33.820  33.431   4.353
32318W        W97545  18.624  19.982  13.540
32319W        W97546   9.213   6.376   1.510
32320W        W97547  23.610  13.526   1.238
32321W        W97548  14.775  36.338  12.360
32322W        W97549  43.109  21.045  11.204
32323W        W97550  20.131  44.534  14.807
32324W        W97551  43.693  30.905  14.724
32325W        W97552  14.448  27.477  11.982
32326W        W97553  41.828  32.420  12.711
32327W        W97554  23.480  13.640   2.602
32328W        W97555  36.532   0.950   2.765
32329W        W97556  33.133  27.158  12.521
32330W        W97557  13.072  13.652   1.797
32331W        W97558   6.368  26.517  12.868
32332W        W97559  24.737  42.883   0.799
32333W        W97560  33.108  26.698   3.604
32334W        W97561  33.598  31.393  13.305
32335W        W97562  16.001   8.833   4.256
32336W        W97563   8.239  39.584   0.307
32337W        W97564  38.391  28.217  12.650
32338W        W97565  14.174  18.802   1.282
32339W        W97566  41.514   3.951  13.020
32340W        W97567  25.057  44.722   4.231
32341W        W97568   9.563  34.496   4.063
32342W        W97569  15.311  39.312  14.005
32343W        W97570  44.638  36.845   1.928
32344W        W97571  19.642   1.194   4.250
32345W        W97572   3.231  13.842   2.282
32346W        W97573  20.148  43.755   3.105
32347W        W97574  38.095  25.554   2.303
32348W        W97575  39.867  33.903   0.534
32349W        W97576   4.875  13.749  12.403
32350W        W97577  34.393   1.756  11.962
32351W        W97578  12.283  32.636  11.622
32352W        W97579  34.680  19.113   0.820
32353W        W97580  37.486  41.579   4.655
32354W        W97581  25.215  13.103  14.772
32355W        W97582  19.493  25.110   1.680
32356W        W97583  15.892  39.825  11.046
32357W        W97584  16.291   0.901  14.518
32358W        W97585   6.420  34.090   1.258
32359W        W97586   4.760  18.870   5.105
32360W        W97587  29.563  31.457  11.514
32361W        W97588  21.491  44.797  12.552
32362W        W97589  25.741  11.421   3.375
32363W        W97590  14.908  37.993   1.202
32364W        W97591  12.544  27.476   1.888
32365W        W97592   9.651  16.754   0.772
32366W        W97593  25.593   2.873  10.970
32367W        W97594  36.438  10.373   2.278
32368W        W97595  39.317  33.479  13.506
32369W        W97596   9.400  20.714   0.796
32370W        W97597  37.126   0.295  11.166
32371W        W97598  30.974  38.560  11.775
32372W        W97599   2.910  33.499  11.583
32373W        W97600  38.275  26.637   0.125
32374W        W97601  18.621  36.782   0.542
32375W        W97602  13.560   8.286   4.533
32376W        W97603  25.633   9.861   3.392
32377W        W97604  39.466  38.491  11.637
32378W        W97605   1.554  40.054   1.727
32379W        W97606  22.159  20.794  13.546
32380W        W97607  17.700   7.884  14.399
32381W        W97608   1.877  40.875  12.553
32382W        W97609  44.801  30.125  14.811
32383W        W97610  15.656  44.327   4.667
32384W        W97611  12.115  19.769   1.302
32385W        W97612  37.014  25.178  12.542
32386W        W97613  20.964  27.535   1.273
32387W        W97614   1.281  44.433  13.135
32388W        W97615  43.893  18.656   3.044
32389W        W97616  21.642  26.714  12.776
32390W        W97617  12.678  11.537  13.327
32391W        W97618   0.859  38.791   0.238
32392W        W97619  34.410  40.119   4.691
32393W        W97620  21.929  18.746   4.194
32394W        W97621  44.246  18.735   1.751
32395W        W97622  29.531  23.979   4.922
32396W        W97623  11.452  37.722   5.133
32397W        W97624  19.464  23.666  12.093
32398W        W97625  34.452  42.874  13.118
32399W        W97626   2.779  24.329   0.366
32400W        W97627  19.691  39.054   2.256
32401W        W97628  21.557  36.075  12.066
32402W        W97629   9.649  42.808  11.650
32403W        W97630   2.194   8.694   2.463
32404W        W97631  39.085  27.102   3.938
32405W        W97632   7.802  38.281  10.800
32406W        W97633  29.044  38.372   0.385
32407W        W97634  10.671  22.275  10.499
32408W        W97635  24.753  27.322  14.805
32409W        W97636  38.112  24.217  11.145
32410W        W97637  44.791  28.054  14.340
32411W        W97638  43.603  28.583   2.433
32412W        W97639  35.856   6.357   2.318
32413W        W97640  12.131   5.635  12.161
32414W        W97641  18.586  19.884   3.096
32415W        W97642  27.197  14.142  13.377
32416W        W97643   5.159  23.168   0.560
32417W        W97644  35.957  22.223  13.607
32418W        W97645  34.008  32.752  13.259
32419W        W97646  29.501  10.685   3.105
32420W        W97647   1.323  13.300  13.577
32421W        W97648  41.788   9.194  12.617
32422W        W97649  14.130  38.980  13.890
32423W        W97650   1.846  18.457   3.385
32424W        W97651  27.024  31.215  13.556
32425W        W97652  43.838   4.613   3.760
32426W        W97653  24.190   4.452   1.141
32427W        W97654  36.392  17.585   1.925
32428W        W97655  21.204  22.508   4.470
32429W        W97656  23.470  13.626  13.508
32430W        W97657  36.341  13.599   1.374
32431W        W97658  38.157   3.540  10.636
32432W        W97659  40.793  37.627   1.018
32433W        W97660  33.779   0.033  11.944
32434W        W97661   3.871  36.837  12.354
32435W        W97662  26.038  43.827   0.451
32436W        W97663  42.257  28.894  12.887
32437W        W97664  38.868  44.203   4.896
32438W        W97665  19.336  20.302   1.904
32439W        W97666  14.768  32.423   3.218
32440W        W97667  31.214  26.533  13.520
32441W        W97668   1.880   9.700  11.914
32442W        W97669   4.378  13.894  13.466
32443W        W97670   3.007  32.529   2.647
32444W        W97671  27.991  41.431  14.391
32445W        W97672  28.337  25.696  11.165
32446W        W97673  18.583  17.352  13.968
32447W        W97674  22.216  11.286   1.981
32448W        W97675  41.049  29.519  13.849
32449W        W97676  40.481  32.083   2.795
32450W        W97677  21.874  40.058  12.588
32451W        W97678  41.896  11.874  10.981
32452W        W97679   4.013  36.991  13.617
32453W        W97680  40.727  36.644  10.757
32454W        W97681  27.753  31.620  12.527
32455W        W97682  41.375  12.821   3.320
32456W        W97683  14.063  43.496   5.196
32457W        W97684  11.918  27.632   3.299
32458W        W97685  12.758  40.323   4.603
32459W        W97686  25.998  18.739   2.313
32460W        W97687  25.085   2.511  11.895
32461W        W97688  11.318  13.345   2.234
32462W        W97689  23.558  40.189  14.482
32463W        W97690  24.082  16.276   4.178
32464W        W97691  23.625  14.862  11.915
32465W        W97692  34.475  20.840   2.659
32466W        W97693  13.123  39.092   2.240
32467W        W97694   3.275  12.421   3.890
32468W        W97695  15.109  32.374  12.002
32469W        W97696  18.148  38.650   0.246
32470W        W97697   0.952  29.712   0.895
32471W        W97698  26.924  23.583   0.707
32472W        W97699  22.033   2.168  11.163
32473W        W97700  44.115  26.208  11.241
32474W        W97701  16.159  27.005  11.996
32475W        W97702  23.776  23.992  12.910
32476W        W97703  33.339   7.661   4.163
32477W        W97704  39.270  36.540  10.705
32478W        W97705  36.394  41.791  10.835
32479W        W97706  11.694  24.568   3.541
32480W        W97707  39.454  18.687   4.133
32481W        W97708  23.078  10.940  13.972
32482W        W97709  16.860   7.101   3.680
32483W        W97710  36.828  13.857   2.177
32484W        W97711   8.859  11.221   3.991
32485W        W97712   8.967  40.061   0.301
32486W        W97713  33.903  42.574   0.239
32487W        W97714  24.274  20.035   3.616
32488W        W97715  15.759   2.484  12.715
32489W        W97716   1.507   8.432  11.540
32490W        W97717   5.163  14.133   4.790
32491W        W97718  40.040  34.637   0.723
32492W        W97719  12.312   7.226   4.204
32493W        W97720   0.822   3.948   0.492
32494W        W97721  29.397   5.931  12.440
32495W        W97722  17.002   1.020  10.344
32496W        W97723  18.688  30.493   1.127
32497W        W97724   6.663  40.334  11.960
32498W        W97725  18.799  29.565   2.657
32499W        W97726  19.864  15.643   3.282
32500W        W97727  32.331  37.878  13.971
32501W        W97728   3.326  28.438  10.293
32502W        W97729  27.525  33.248  14.787
32503W        W97730  17.769  18.811  13.738
32504W        W97731  27.925  17.790  14.114
32505W        W97732  27.732  30.073   4.172
32506W        W97733  39.427  39.558  11.635
32507W        W97734   9.847  29.235  13.350
32508W        W97735  39.803  10.911   2.687
32509W        W97736  32.993   8.661  12.292
32510W        W97737  37.018   6.130   2.413
32511W        W97738  36.068   8.338  12.995
32512W        W97739  34.415  34.397  13.561
32513W        W97740   0.915  13.408  11.910
32514W        W97741  29.998  24.149  10.304
32515W        W97742  16.288   0.586   2.799
32516W        W97743  15.084  30.878  14.330
32517W        W97744  39.763  12.824   2.670
32518W        W97745  43.844  36.640  14.424
32519W        W97746  12.386  42.276  13.433
32520W        W97747  12.780  36.812  11.125
32521W        W97748  10.295  36.592   0.872
32522W        W97749  31.101  33.352  12.646
32523W        W97750   7.280  42.661  11.098
32524W        W97751  21.766   4.302  13.948
32525W        W97752  44.358  32.509   2.692
32526W        W97753  22.994   2.529  12.008
32527W        W97754  34.134   8.314   3.848
32528W        W97755  44.962  44.554   3.351
32529W        W97756  37.331  21.043   1.755
32530W        W97757  18.537  32.985  10.658
32531W        W97758  12.354  12.111  14.537
32532W        W97759  13.793  11.298   2.679
32533W        W97760  21.370  34.022   1.359
32534W        W97761  16.075   0.741  11.243
32535W        W97762   3.486   4.382  12.892
32536W        W97763  30.931  39.317   2.817
32537W        W97764  37.300  16.376  11.500
32538W        W97765  21.128  10.332  10.561
32539W        W97766   5.990  33.079  14.099
32540W        W97767  43.376   5.152   5.392
32541W        W97768  24.753  20.587   0.358
32542W        W97769  12.342  36.466   4.106
32543W        W97770   3.820  12.678  13.325
32544W        W97771  16.923  42.534  13.802
32545W        W97772  15.530  42.861  14.485
32546W        W97773  44.516  42.591   0.611
32547W        W97774  30.938  38.522  12.299
32548W        W97775   1.291   8.199  13.333
32549W        W97776  19.232  18.957   3.572
32550W        W97777  35.529  36.659  11.148
32551W        W97778  11.709  40.768  12.912
32552W        W97779   1.697  20.708  11.172
32553W        W97780  30.544  26.052   2.862
32554W        W97781  29.196  24.092  12.497
32555W        W97782  37.078  16.759   1.710
32556W        W97783  13.685  41.468   3.709
32557W        W97784   2.947   0.417  14.350
32558W        W97785  14.423  18.755   1.718
32559W        W97786  23.291  30.944  11.124
32560W        W97787  32.169  29.629   1.688
32561W        W97788   4.616  22.513  10.553
32562W        W97789   5.621  43.312   0.497
32563W        W97790  26.126   4.817  12.312
32564W        W97791  42.568  38.285  14.861
32565W        W97792  16.845  31.699  13.055
32566W        W97793  31.819  16.261  11.111
32567W        W97794   6.235  22.554  11.962
32568W        W97795  30.650  28.715  12.615
32569W        W97796  41.868  29.602  11.115
32570W        W97797   5.070   8.078   4.170
32571W        W97798  33.556  34.030   4.950
32572W        W97799  44.272  18.361   4.064
32573W        W97800  28.948  29.991  14.809
32574W        W97801  21.451  13.161   3.125
32575W        W97802  21.165  15.142   2.377
32576W        W97803  23.255  42.459   2.894
32577W        W97804  34.803  35.875  12.843
32578W        W97805  24.788  30.633  14.949
32579W        W97806  27.978  33.395  13.171
32580W        W97807  41.806  12.747  13.708
32581W        W97808   3.555  26.524   2.306
32582W        W97809  42.493  23.157   2.181
32583W        W97810  13.797  37.343   4.544
32584W        W97811  42.293  12.113   3.321
32585W        W97812   3.942  14.327   2.185
32586W        W97813  25.822   4.396   0.601
32587W        W97814  18.367  20.112  11.832
32588W        W97815   7.916  39.142  11.996
32589W        W97816  17.619  39.593   2.895
32590W        W97817  18.267  29.861  12.532
32591W        W97818  22.016  20.236   3.169
32592W        W97819  39.034  33.030  11.080
32593W        W97820  40.541  23.020   3.039
32594W        W97821   4.502  21.737   0.518
32595W        W97822  27.547  28.630  11.948
32596W        W97823  34.608  21.285  12.816
32597W        W97824  10.950   0.295  11.058
32598W        W97825  33.357  43.656  12.071
32599W        W97826  25.007  22.197   3.717
32600W        W97827  13.406  26.695  10.666
32601W        W97828  28.199  44.381  12.968
32602W        W97829  17.377   5.915   4.035
32603W        W97830  15.463  20.479   2.808
32604W        W97831  21.680  23.540   2.108
32605W        W97832  31.070  10.817  12.109
32606W        W97833  19.690  10.419   4.032
32607W        W97834  32.249  23.070  11.538
32608W        W97835  35.621  41.358  11.532
32609W        W97836  22.576  24.947  13.736
32610W        W97837  30.761  33.158   3.084
32611W        W97838  32.039   9.345  12.907
32612W        W97839  25.899  11.136  12.036
32613W        W97840  19.013   5.797  13.829
32614W        W97841  34.495  39.378  14.367
32615W        W97842  30.221  30.280   0.330
32616W        W97843  30.453  31.506  14.961
32617W        W97844   8.844   6.184  13.994
32618W        W97845  33.801  42.238   4.600
32619W        W97846  15.219  17.991  12.976
32620W        W97847   0.306  32.120  10.603
32621W        W97848  19.941   1.961   1.749
32622W        W97849  30.159  25.173  12.687
32623W        W97850  15.447  35.810   1.363
32624W        W97851  36.847  43.458  13.003
32625W        W97852  39.756   0.340  13.575
32626W        W97853  16.458   5.891  11.401
32627W        W97854  35.614  42.034   2.171
32628W        W97855   4.235  32.359  12.454
32629W        W97856  27.078  11.699   3.616
32630W        W97857  18.683  22.329   2.200
32631W        W97858  13.238  17.631   4.075
32632W        W97859  13.370   1.008   1.795
32633W        W97860  24.189  25.673   3.402
32634W        W97861  44.944   5.277   4.881
32635W        W97862  22.682  18.520   3.267
32636W        W97863  24.607  42.407  13.381
32637W        W97864  30.602  13.406  11.644
32638W        W97865  21.831  12.045  13.491
32639W        W97866   0.521   9.072   2.314
32640W        W97867  15.946   1.764   5.065
32641W        W97868  20.083   7.363   3.696
32642W        W97869  22.013  19.453  14.944
32643W        W97870  38.423  16.292  12.396
32644W        W97871  27.644  27.651   1.721
32645W        W97872   9.396  15.482   0.256
32646W        W97873  31.293   2.481   5.059
32647W        W97874  23.431   8.864   2.851
32648W        W97875  27.733  16.426  14.862
32649W        W97876   6.101  12.616  13.882
32650W        W97877  24.506  14.713   1.683
32651W        W97878  11.768   4.284   3.737
32652W        W97879  43.846  35.119   4.404
32653W        W97880   8.108   1.316   1.372
32654W        W97881  42.277  11.258  14.503
32655W        W97882   8.863   2.287  11.950
32656W        W97883  11.765  22.195  14.929
32657W        W97884  30.629   8.699  12.540
32658W        W97885  27.946  27.061  14.957
32659W        W97886   6.906   6.777   0.976
32660W        W97887   7.126  24.115   1.775
32661W        W97888  22.687  30.987   1.693
32662W        W97889  31.547   5.187  11.292
32663W        W97890  23.201  26.778  14.471
32664W        W97891  16.653  22.644  10.497
32665W        W97892  20.736   9.654  12.446
32666W        W97893  41.476  42.171   0.449
32667W        W97894   5.285   2.911   2.217
32668W        W97895  14.243  21.142  11.946
32669W        W97896   5.183  28.016  11.119
32670W        W97897   3.955  21.628   4.631
32671W        W97898  35.828  13.319  13.334
32672W        W97899  42.440  34.867   3.825
32673W        W97900  22.744  39.636  12.525
32674W        W97901  17.810  10.217   0.909
32675W        W97902   8.458  21.162  12.504
32676W        W97903  18.377   9.021  14.822
32677W        W97904  18.229  24.081   1.566
32678W        W97905  35.359  30.491  13.542
32679W        W97906  42.632  13.153  13.963
32680W        W97907  42.801  29.671  13.256
32681W        W97908  14.172  18.104  12.075
32682W        W97909  17.820  13.987  13.773
32683W        W97910  40.350  25.056   0.394
32684W        W97911  31.434  20.488   4.422
32685W        W97912  38.107  29.544  11.342
32686W        W97913  43.351   2.348   2.260
32687W        W97914  34.095  15.972   1.181
32688W        W97915   4.639  10.274   4.579
32689W        W97916  17.424  19.393   4.512
32690W        W97917  33.325  11.613  12.048
32691W        W97918   8.731  35.344   1.352
32692W        W97919   0.835   1.875  11.053
32693W        W97920  10.581   7.213   0.527
32694W        W97921  23.058  27.024  11.171
32695W        W97922  34.425   7.729   2.114
32696W        W97923   2.949   4.934   4.019
32697W        W97924   8.284  32.335  13.967
32698W        W97925   3.695  19.667   2.596
32699W        W97926  27.370  25.450   3.289
32700W        W97927  22.337  16.446   1.718
32701W        W97928  26.083  10.282   1.790
32702W        W97929  10.714  14.331   2.392
32703W        W97930  23.919  20.674   2.392
32704W        W97931   2.233  35.711  10.484
32705W        W97932  28.000  17.794  11.607
32706W        W97933   0.062  39.588  13.957
32707W        W97934  21.600  39.249  12.836
32708W        W97935   8.038  15.727  12.813
32709W        W97936  16.890  13.546  13.870
32710W        W97937   6.393  21.888   1.383
32711W        W97938  19.926  35.548  14.273
32712W        W97939   9.099  40.657   0.812
32713W        W97940  11.241  22.765   2.216
32714W        W97941  36.016  12.617  14.571
32715W        W97942   3.877  42.604  14.051
32716W        W97943  20.525  18.278   5.096
32717W        W97944  23.122   8.999   4.098
32718W        W97945   6.849  41.234  12.576
32719W        W97946   2.533  39.864  13.615
32720W        W97947  36.534   5.429  12.458
32721W        W97948  28.894  26.514   2.379
32722W        W97949  20.755  28.087  11.153
32723W        W97950  20.228  38.426  13.588
32724W        W97951  15.140   6.706  10.714
32725W        W97952  38.321  23.029   0.769
32726W        W97953   5.228   0.984   0.433
32727W        W97954  16.055   4.686   4.557
32728W        W97955   0.231  10.459  13.782
32729W        W97956  33.152  19.993  14.990
32730W        W97957  41.478  13.587  13.512
32731W        W97958  14.928  20.459  12.085
32732W        W97959  44.445  13.400   1.380
32733W        W97960   4.720   7.641  13.989
32734W        W97961  31.982  26.499  14.885
32735W        W97962   2.014  31.012  11.858
32736W        W97963  28.005   3.409  14.605
32737W        W97964   6.954  20.229  11.255
32738W        W97965  21.368  12.104   3.346
32739W        W97966   0.834  39.044  14.742
32740W        W97967   7.222  25.717  11.597
32741W        W97968  24.196  27.995   1.403
32742W        W97969  29.220  19.266   0.405
32743W        W97970  23.001  20.521   4.610
32744W        W97971  42.612   4.339  12.908
32745W        W97972  43.288   0.560  11.660
32746W        W97973  30.643  25.877  11.131
32747W        W97974  17.725  25.777  11.740
32748W        W97975  39.888  19.036   3.260
32749W        W97976  18.695  40.470  10.658
32750W        W97977  12.959  20.313  11.039
32751W        W97978  42.897  22.009  12.493
32752W        W97979  34.999   1.901   0.715
32753W        W97980   7.336  10.775  12.097
32754W        W97981  26.315  43.908   0.916
32755W        W97982  44.890  30.578  12.107
32756W        W97983  38.067  18.045  14.391
32757W        W97984  21.057  15.145   4.788
32758W        W97985   5.816  13.046  10.360
32759W        W97986   3.502  31.687   0.893
32760W        W97987  38.571  12.948  14.963
32761W        W97988  16.666  35.286  12.032
32762W        W97989  22.866   9.724   4.750
32763W        W97990  32.186  25.079   1.184
32764W        W97991   2.167  42.311  11.182
32765W        W97992  10.325  37.444   2.600
32766W        W97993  19.254  29.769   3.724
32767W        W97994  37.552  39.052   0.951
32768W        W97995  22.823  34.043   0.762
32769W        W97996  11.248  25.626  11.605
32770W        W97997  12.602  22.106   0.251
32771W        W97998  29.041   9.278   0.963
32772W        W97999  17.327  39.882   3.281
32773W        W98000  41.342  43.394   0.911
32774W        W98001  30.681   1.234   3.815
32775W        W98002  24.786  38.002  14.890
32776W        W98003  40.905  31.479   1.057
32777W        W98004  34.459   0.826   2.457
32778W        W98005   3.399  41.101   2.846
32779W        W98006  41.258  13.800  11.100
32780W        W98007  21.590  44.737   2.144
32781W        W98008  43.009  34.934   0.472
32782W        W98009   5.825  44.265  12.835
32783W        W98010  12.354  21.421  11.975
32784W        W98011   5.337  40.110  10.715
32785W        W98012  17.641   6.557   3.680
32786W        W98013  33.126  22.410   4.825
32787W        W98014  18.515  11.114  14.270
32788W        W98015   7.767   7.322  11.395
32789W        W98016  20.975  21.840  13.324
32790W        W98017  14.579   4.374  11.553
32791W        W98018  27.629  35.080  11.270
32792W        W98019  11.101  28.667   4.579
32793W        W98020   7.434  17.624  12.173
32794W        W98021  25.247  35.797   3.632
32795W        W98022  40.437   0.988   4.082
32796W        W98023   5.561   9.865   4.121
32797W        W98024  25.421  40.468   4.072
32798W        W98025  34.889  23.639   5.349
32799W        W98026  11.807  19.094  14.860
32800W        W98027  21.564  10.329  13.268
32801W        W98028   9.799  13.746  12.980
32802W        W98029  16.618  18.994   0.238
32803W        W98030  37.011  35.144  14.735
32804W        W98031  32.754  27.574  10.060
32805W        W98032   3.316  13.974  13.637
32806W        W98033  35.579   5.289  10.677
32807W        W98034   2.576  25.919  12.629
32808W        W98035  22.488   5.860   3.307
32809W        W98036  16.682  23.773   2.241
32810W        W98037  37.571  22.686   2.487
32811W        W98038  24.934   6.861  14.950
32812W        W98039  25.125  22.686  14.277
32813W        W98040  33.965  30.721   1.027
32814W        W98041  11.151  32.870   1.043
32815W        W98042  11.061   3.527  12.876
32816W        W98043  24.288   1.930  14.550
32817W        W98044   7.828  10.922  13.057
32818W        W98045  29.619   0.269   1.235
32819W        W98046  44.563  34.535  11.337
32820W        W98047  12.631   3.303  13.047
32821W        W98048  11.672  22.590   3.697
32822W        W98049  29.466  16.435   0.557
32823W        W98050  20.262  20.689  14.984
32824W        W98051  43.454   7.684  14.901
32825W        W98052  20.083   5.537   0.929
32826W        W98053  30.257  33.163   4.309
32827W        W98054  34.336   2.427   1.336
32828W        W98055  26.711   8.379  12.419
32829W        W98056  29.267   3.787  13.822
32830W        W98057  15.362  15.847  11.621
32831W        W98058  33.203  27.073  14.648
32832W        W98059  26.489   7.163   2.386
32833W        W98060  27.857  26.056   2.488
32834W        W98061   4.447  42.810   3.740
32835W        W98062   3.403  43.508   0.541
32836W        W98063  21.672  11.544  13.527
32837W        W98064   6.408  30.160  14.439
32838W        W98065  15.582  19.188  11.508
32839W        W98066  42.348  41.159   3.016
32840W        W98067  39.738  43.838   2.623
32841W        W98068   5.719   2.775  10.680
32842W        W98069  28.895  42.234  14.463
32843W        W98070  13.629  35.477   0.082
32844W        W98071  31.895  29.619   1.223
32845W        W98072  18.718   2.335  11.448
32846W        W98073   0.381  25.799  13.940
32847W        W98074  20.818   1.878  12.497
32848W        W98075  25.564  18.576  10.760
32849W        W98076  28.232  31.541   4.876
32850W        W98077  30.705  19.005   0.419
32851W        W98078  20.702  41.624   4.755
32852W        W98079   1.447   8.247  12.016
32853W        W98080  22.165   0.165   1.129
32854W        W98081  30.544  43.942  12.033
32855W        W98082  10.821  26.086   2.177
32856W        W98083  24.516  41.953  12.004
32857W        W98084  34.415  14.733   3.125
32858W        W98085  43.172  32.279  14.547
32859W        W98086  19.670   7.293   3.997
32860W        W98087  25.132   6.196   1.893
32861W        W98088   8.364  32.744   4.900
32862W        W98089  16.263  15.634   2.876
32863W        W98090  30.828  19.208   3.833
32864W        W98091  28.537  18.595  13.088
32865W        W98092  25.563  17.076   0.277
32866W        W98093  44.644  21.210   1.798
32867W        W98094  37.650  21.933  10.526
32868W        W98095  35.203  22.743  14.556
32869W        W98096  31.661  30.636  11.060
32870W        W98097  10.070  22.655   1.143
32871W        W98098  11.778  43.834   3.612
32872W        W98099  26.248  26.337  10.465
32873W        W98100   0.310  15.722  14.037
32874W        W98101   7.761  18.336   4.641
32875W        W98102  29.048  41.301   2.863
32876W        W98103   5.301  19.983  12.617
32877W        W98104  44.079  23.634   2.856
32878W        W98105   3.953  11.326  14.999
32879W        W98106  17.049  14.229   1.804
32880W        W98107  44.052  37.373   3.169
32881W        W98108   8.881  21.960   1.726
32882W        W98109  14.334   7.854  14.995
32883W        W98110  13.500  31.578  10.308
32884W        W98111   1.161  40.402  10.737
32885W        W98112  13.026  12.707   1.971
32886W        W98113  20.454  11.808   1.459
32887W        W98114  31.675   7.153   4.186
32888W        W98115  23.409  29.157  11.135
32889W        W98116  11.761  13.045   2.213
32890W        W98117   8.346  20.327  12.179
32891W        W98118  20.834   4.191   0.442
32892W        W98119  15.564  12.773   4.511
32893W        W98120  16.788  14.010  10.507
32894W        W98121  43.265  17.309   3.788
32895W        W98122  15.773  40.522  12.853
32896W        W98123  31.995  21.657  14.874
32897W        W98124  22.298  41.405   1.249
32898W        W98125  13.774  10.860   1.714
32899W        W98126   9.712  44.553   1.311
32900W        W98127  33.504  21.351   4.999
32901W        W98128  24.145  35.597  13.732
32902W        W98129  30.435  32.964   2.758
32903W        W98130  16.886  24.193   2.463
32904W        W98131  18.003  44.259  10.119
32905W        W98132  36.804  43.493   3.326
32906W        W98133   6.916  10.884  11.605
32907W        W98134  34.673  36.849   3.988
32908W        W98135  33.533  42.676   2.034
32909W        W98136  15.274   1.666  12.961
32910W        W98137  41.335  32.080  14.501
32911W        W98138  42.200  36.328   3.830
32912W        W98139  43.771   7.217   1.388
32913W        W98140  16.246  27.397   2.219
32914W        W98141  33.074  23.082   0.295
32915W        W98142  17.320  13.747   1.769
32916W        W98143  20.552   5.864   2.809
32917W        W98144   5.264  20.983   4.047
32918W        W98145  12.415  20.633   1.183
32919W        W98146  20.415  27.456   4.367
32920W        W98147  39.586  43.859  14.955
32921W        W98148  37.011  32.619  14.359
32922W        W98149  22.533  40.465   1.279
32923W        W98150  24.519  39.076   1.415
32924W        W98151  41.480  35.434  10.829
32925W        W98152  22.664  35.669  13.472
32926W        W98153  17.174   2.251   4.433
32927W        W98154  38.957   0.236  12.519
32928W        W98155  42.241  14.716   0.780
32929W        W98156  28.357  14.609  12.604
32930W        W98157  17.781  25.794  11.229
32931W        W98158  35.334  25.090  14.851
32932W        W98159  43.801  11.361   1.254
32933W        W98160  19.864  25.102   2.211
32934W        W98161  18.263   7.656   3.367
32935W        W98162  37.846   6.627   1.411
32936W        W98163  29.100  19.759  11.484
32937W        W98164  20.687  29.812  10.762
32938W        W98165  24.090  43.403  10.014
32939W        W98166  27.604  38.386   1.900
32940W        W98167  30.750   6.233  12.520
32941W        W98168  28.228  27.405  13.316
32942W        W98169  20.841  15.174  13.050
32943W        W98170  22.114  17.346   0.228
32944W        W98171  29.243  37.518  14.878
32945W        W98172  38.797   1.721   4.204
32946W        W98173  42.809   9.317   2.269
32947W        W98174   6.426  10.258   4.037
32948W        W98175  38.053  32.385  13.025
32949W        W98176  13.086  42.901   0.205
32950W        W98177  13.986   7.667   4.135
32951W        W98178  37.935  21.950  14.968
32952W        W98179  32.453  12.930  14.909
32953W        W98180  16.659  25.824  12.154
32954W        W98181  15.019   8.646  13.412
32955W        W98182  35.713  28.436  11.908
32956W        W98183  40.801  27.222   3.699
32957W        W98184  34.680  11.846  11.602
32958W        W98185  40.446  18.085  13.067
32959W        W98186   4.311   6.730   2.212
32960W        W98187  21.961   5.804   3.337
32961W        W98188  15.403  17.124  12.715
32962W        W98189  36.541  37.086   3.195
32963W        W98190  24.522  30.602  14.494
32964W        W98191  28.182   9.730  13.398
32965W        W98192  27.708  41.293   0.781
32966W        W98193   0.476  35.652   4.022
32967W        W98194   7.170  39.771  12.492
32968W        W98195  27.299  17.151  12.436
32969W        W98196  32.394  31.933  13.369
32970W        W98197  15.645   3.889   2.182
32971W        W98198   4.769  16.530   1.301
32972W        W98199   7.283  42.492   3.606
32973W        W98200   5.871  32.644   4.773
32974W        W98201   8.227  21.350  12.954
32975W        W98202   1.991  37.960   2.244
32976W        W98203  44.841  19.783   0.629
32977W        W98204  19.244  29.218   1.359
32978W        W98205  37.089  25.184  11.261
32979W        W98206  21.515  37.048  14.011
32980W        W98207  21.814  32.568   4.213
32981W        W98208  39.841   2.443  11.221
32982W        W98209   3.172  12.760  11.127
32983W        W98210   7.675  30.756  12.972
32984W        W98211   2.874  41.343   9.806
32985W        W98212  31.696  11.024  13.437
32986W        W98213  23.148  30.004  11.148
32987W        W98214   9.649  41.384   4.094
32988W        W98215  34.108  16.919   9.997
32989W        W98216  24.598  42.745   1.957
32990W        W98217  18.077  28.550  13.818
32991W        W98218  23.026   7.642   2.367
32992W        W98219   4.002  28.521   0.331
32993W        W98220  26.949  30.183  13.520
32994W        W98221  29.910   0.344   3.305
32995W        W98222  34.030  27.426   2.090
32996W        W98223  22.470  18.077   4.534
32997W        W98224  14.361  36.834  14.998
32998W        W98225  41.477  22.517   3.659
32999W        W98226   2.819  12.657   0.241
33000W        W98227  26.304  32.030   1.273
33001W        W98228  41.043  20.000  11.634
33002W        W98229  28.086  24.230   0.812
33003W        W98230   2.323  10.205   3.283
33004W        W98231  10.807  41.850  10.830
33005W        W98232  24.501   0.872  14.548
33006W        W98233  26.170  34.674   3.818
33007W        W98234   5.002  19.475   1.254
33008W        W98235  10.961  33.405  14.879
33009W        W98236  15.260   2.286   1.730
33010W        W98237  26.938  28.099   1.354
33011W        W98238  34.824  42.318   0.467
33012W        W98239  17.494  30.003  14.451
33013W        W98240  14.330  16.318  11.605
33014W        W98241  39.750  16.631  10.935
33015W        W98242  33.582  17.732   4.991
33016W        W98243  23.671   1.778  13.747
33017W        W98244  29.659   0.502   0.741
33018W        W98245  33.498  39.990   2.619
33019W        W98246  37.149  26.015   4.287
33020W        W98247  27.145   3.748   2.776
33021W        W98248   5.796  42.720  13.785
33022W        W98249  36.278  26.064  10.755
33023W        W98250  38.704  44.166   2.646
33024W        W98251  33.512   5.677  13.011
33025W        W98252  40.309  38.817  13.556
33026W        W98253  23.522  40.891  10.591
33027W        W98254  14.640  42.628   3.369
33028W        W98255  44.347  34.560   1.762
33029W        W98256  44.374  41.331  13.940
33030W        W98257  44.769  27.426  13.576
33031W        W98258   8.764  42.352  11.502
33032W        W98259  30.184  10.502  12.889
33033W        W98260  35.962  25.623   1.978
33034W        W98261  29.711  20.644  12.038
33035W        W98262  31.194  35.416  11.615
33036W        W98263  32.128  14.072  14.699
33037W        W98264  39.896  24.724   3.246
33038W        W98265  31.524  33.512  14.868
33039W        W98266   6.857  41.058   0.735
33040W        W98267  11.708  16.487   4.640
33041W        W98268   7.128  18.568  10.764
33042W        W98269  23.357   1.904   3.395
33043W        W98270   8.997  40.498  11.521
33044W        W98271   0.822  34.389   3.701
33045W        W98272  17.795  17.410   1.559
33046W        W98273   9.774  33.062   3.812
33047W        W98274   5.887   9.603   0.138
33048W        W98275   7.166  43.646  11.210
33049W        W98276  34.304  12.362   3.186
33050W        W98277   2.321  24.299   5.478
33051W        W98278   5.658  34.621  11.042
33052W        W98279  42.800  43.688   4.524
33053W        W98280  10.125  36.112   4.530
33054W        W98281  15.180  12.496  14.859
33055W        W98282  13.239  11.696  10.687
33056W        W98283  43.488  43.902   2.818
33057W        W98284  34.407  10.868  11.112
33058W        W98285  21.938  19.092  14.556
33059W        W98286   7.168  25.413   3.718
33060W        W98287   2.177   1.825   1.830
33061W        W98288  16.110  40.178  11.379
33062W        W98289  18.754  15.190  14.420
33063W        W98290  23.604  38.017  13.596
33064W        W98291  21.555  34.382   4.635
33065W        W98292  16.549  22.201  14.207
33066W        W98293  42.252  26.613   4.144
33067W        W98294  29.429  40.199   4.431
33068W        W98295   3.531   1.195  13.494
33069W        W98296  29.163  25.739  14.822
33070W        W98297   1.362  33.056  12.254
33071W        W98298  17.626  28.303   2.540
33072W        W98299  27.470  44.935   0.940
33073W        W98300  21.410   5.258   1.702
33074W        W98301  11.407   5.769   0.965
33075W        W98302  32.600  27.734  13.874
33076W        W98303   4.778  34.484  12.782
33077W        W98304  18.180  42.986   2.228
33078W        W98305  42.049  32.634  11.709
33079W        W98306   0.653  43.891   3.242
33080W        W98307  24.524  44.690   5.074
33081W        W98308   8.740   4.510   2.220
33082W        W98309  39.813  16.067   2.283
33083W        W98310  15.639  22.316  14.348
33084W        W98311  12.869  31.421   3.618
33085W        W98312  13.748  10.242   0.093
33086W        W98313   0.905  34.167   3.251
33087W        W98314  38.494  20.668   1.406
33088W        W98315  27.165  44.264   1.305
33089W        W98316  19.116  29.219  11.922
33090W        W98317  25.741  36.610  10.718
33091W        W98318   8.529  31.717  14.305
33092W        W98319  20.176  21.869   1.326
33093W        W98320   8.487   0.290  11.176
33094W        W98321  34.951  33.151  14.571
33095W        W98322  37.882  38.996   4.221
33096W        W98323  36.947  29.301  14.890
33097W        W98324  21.765  19.608   0.491
33098W        W98325  28.935  29.104   2.397
33099W        W98326  17.498  41.879   4.547
33100W        W98327  42.005  13.410  11.506
33101W        W98328   8.908  41.291   2.744
33102W        W98329  10.425  31.056   2.806
33103W        W98330  40.505   3.202   0.513
33104W        W98331   7.885  16.202   0.045
33105W        W98332   8.906  18.474   4.088
33106W        W98333  32.258  24.868   2.562
33107W        W98334  19.312  14.617  11.699
33108W        W98335  29.490   1.788   1.342
33109W        W98336   5.229  28.578   0.993
33110W        W98337   4.971  23.922   4.044
33111W        W98338  33.238   0.337   1.296
33112W        W98339  24.223   8.296  13.047
33113W        W98340   2.235  34.371  14.015
33114W        W98341   1.661  18.552  12.485
33115W        W98342  11.809  42.163   2.632
33116W        W98343  39.045  43.345  12.137
33117W        W98344  40.887  28.379  13.091
33118W        W98345  38.980  15.987   2.755
33119W        W98346   2.881   5.907   3.592
33120W        W98347  37.667   0.029  10.291
33121W        W98348  29.101  39.491   4.314
33122W        W98349  42.931  17.022  11.887
33123W        W98350  25.257  16.326   2.734
33124W        W98351  18.615  28.403   0.290
33125W        W98352  32.625  27.056   1.854
33126W        W98353  36.143  43.758  11.141
33127W        W98354  20.368   6.353   2.893
33128W        W98355  22.181   3.947  14.313
33129W        W98356   9.599  36.000  11.103
33130W        W98357  28.211   0.380  13.805
33131W        W98358  40.952  21.639  13.987
33132W        W98359  42.751   1.255   0.120
33133W        W98360  31.388  11.142   2.709
33134W        W98361  39.375  43.800   3.676
33135W        W98362  38.815  36.489  14.342
33136W        W98363  23.504  10.859   3.673
33137W        W98364   6.620  32.386  11.073
33138W        W98365  24.700  39.368  13.311
33139W        W98366   2.912  31.627  14.954
33140W        W98367  23.496  35.735   3.994
33141W        W98368   1.410  28.840   4.421
33142W        W98369   9.230  23.669  14.907
33143W        W98370  23.107  42.517   5.515
33144W        W98371  13.284  38.324   2.744
33145W        W98372  29.332  15.271   3.761
33146W        W98373   4.324  30.595   3.421
33147W        W98374  16.664   1.678  12.011
33148W        W98375  23.197  29.108   2.812
33149W        W98376  24.688  10.916   0.399
33150W        W98377  30.571  10.835   4.059
33151W        W98378  30.574   7.666   3.606
33152W        W98379  43.470  29.549   1.582
33153W        W98380  17.023  31.951   3.620
33154W        W98381   4.421  30.450  12.582
33155W        W98382  25.229  13.704  13.235
33156W        W98383  17.992  44.511   2.746
33157W        W98384  41.874  43.240   2.378
33158W        W98385  32.029  20.648   0.379
33159W        W98386  10.155  23.581   4.829
33160W        W98387  10.209  29.650   3.749
33161W        W98388   1.711  41.774  12.962
33162W        W98389  15.333  43.796  13.739
33163W        W98390  44.819  31.519   4.050
33164W        W98391  17.713   4.992  13.873
33165W        W98392  41.083  29.375   1.080
33166W        W98393   1.517  43.498  14.469
33167W        W98394   8.855  43.096   2.331
33168W        W98395  44.767  41.999   4.916
33169W        W98396  22.017  10.643  14.762
33170W        W98397   7.245   2.528  13.366
33171W        W98398  44.783  11.784   2.642
33172W        W98399  28.162  43.965  11.522
33173W        W98400   4.449  30.167   2.332
33174W        W98401  34.051   6.023  10.710
33175W        W98402   0.267   9.914  13.100
33176W        W98403  30.798  27.162  12.528
33177W        W98404   6.805  39.501   4.417
33178W        W98405  35.084   6.164  14.429
33179W        W98406   7.828  30.159  13.998
33180W        W98407  11.258  40.264  10.900
33181W        W98408  41.768  36.122   3.637
33182W        W98409  38.636   9.114  11.465
33183W        W98410  12.530  44.046  12.814
33184W        W98411   5.963  14.761   5.567
33185W        W98412  23.726  21.153   1.843
33186W        W98413  38.934  34.855   3.776
33187W        W98414  43.165  22.546  14.380
33188W        W98415  25.873   6.589  14.918
33189W        W98416  10.256   6.098   2.666
33190W        W98417  14.084  28.424   2.720
33191W        W98418  32.430  40.668  11.137
33192W        W98419   6.885  38.421  10.722
33193W        W98420  13.210  27.121  12.605
33194W        W98421  22.168  16.242   0.003
33195W        W98422  21.634  28.939   3.872
33196W        W98423  38.950  37.387   2.339
33197W        W98424   8.718  10.308   3.902
33198W        W98425  14.923  29.135  13.436
33199W        W98426  24.533  18.370  10.711
33200W        W98427  42.272  16.622  10.781
33201W        W98428   7.732  35.391  14.669
33202W        W98429  15.619   5.742   0.511
33203W        W98430  16.814  23.288  13.270
33204W        W98431  33.494  19.966  12.462
33205W        W98432  16.157  21.269  10.685
33206W        W98433  22.586  14.367  10.623
33207W        W98434   4.835  26.210  10.139
33208W        W98435  14.529  42.927   4.231
33209W        W98436  21.518  16.712  13.025
33210W        W98437   0.687  25.623  12.697
33211W        W98438  39.921  26.059   3.869
33212W        W98439  28.197  21.451  13.092
33213W        W98440  33.560  24.755   3.794
33214W        W98441  14.157  15.572  14.448
33215W        W98442  13.619  10.591   3.106
33216W        W98443   7.772  33.464   0.877
33217W        W98444  36.358  32.469  10.744
33218W        W98445  11.788  43.776  11.565
33219W        W98446   9.990  12.718  11.740
33220W        W98447   1.901  18.379   4.743
33221W        W98448   7.462   0.501  14.125
33222W        W98449  26.636  27.855  11.649
33223W        W98450  40.088  20.004  12.993
33224W        W98451  40.961   6.989  14.342
33225W        W98452  18.059  42.066   0.293
33226W        W98453  16.230  20.448  11.909
33227W        W98454  16.198  23.790  12.020
33228W        W98455   0.563  32.510   1.362
33229W        W98456   1.072  12.615   3.286
33230W        W98457  22.962   5.810   1.279
33231W        W98458  16.749  30.717  10.784
33232W        W98459  20.155  15.060  11.826
33233W        W98460   3.990  27.557   3.129
33234W        W98461  24.615   6.759   2.312
33235W        W98462  25.528  16.128   3.857
33236W        W98463  37.360  32.043   4.883
33237W        W98464  31.170  24.290  11.662
33238W        W98465  30.024   9.722  11.598
33239W        W98466  32.575  42.458  12.493
33240W        W98467  18.740  18.062   0.350
33241W        W98468  19.540   2.192   4.156
33242W        W98469  35.118  23.607  10.406
33243W        W98470   6.360  38.826  11.987
33244W        W98471  17.481   0.672   1.630
33245W        W98472  10.541   0.787  11.753
33246W        W98473  21.171  37.837   1.449
33247W        W98474   1.852  35.712   1.893
33248W        W98475   0.484  30.736  14.918
33249W        W98476  11.422  35.720  11.475
33250W        W98477  21.430  28.580   4.659
33251W        W98478   3.271  20.497   3.957
33252W        W98479  15.322  15.626   0.501
33253W        W98480  16.962  17.087  11.521
33254W        W98481  29.599  41.847   4.620
33255W        W98482  37.967  35.387  10.824
33256W        W98483   4.292  16.881   1.852
33257W        W98484  36.391  33.154  13.215
33258W        W98485  22.926  25.293   4.645
33259W        W98486  35.019   8.906   4.564
33260W        W98487  15.294  40.350   2.264
33261W        W98488  18.228  14.879   1.748
33262W        W98489  15.266  37.619   4.547
33263W        W98490  19.596  42.296  13.475
33264W        W98491  33.015  16.712   2.278
33265W        W98492  15.494  22.241   1.395
33266W        W98493  11.679  15.609  11.161
33267W        W98494   7.813   2.479   3.107
33268W        W98495  32.825  35.324   4.028
33269W        W98496  15.562  16.069   4.393
33270W        W98497  14.092   7.892   0.473
33271W        W98498   2.003  16.835   1.020
33272W        W98499  30.489  30.043  11.252
33273W        W98500  25.984  18.150   0.720
33274W        W98501   4.505   4.893   3.651
33275W        W98502  17.795  43.968  14.302
33276W        W98503  34.041  39.183   1.093
33277W        W98504  27.187  27.131  14.442
33278W        W98505  15.521  16.643  13.423
33279W        W98506  33.365  19.134   1.612
33280W        W98507  31.960   2.535   4.118
33281W        W98508   9.548   7.547   1.780
33282W        W98509  39.282  27.961  11.563
33283W        W98510  19.938  35.133   4.589
33284W        W98511  22.159  24.453  13.060
33285W        W98512  28.972  12.878  14.024
33286W        W98513   7.205  15.719   2.740
33287W        W98514  43.736  27.583   4.579
33288W        W98515  23.667  19.147   0.411
33289W        W98516  43.549   2.371  14.780
33290W        W98517  31.132   8.146   4.556
33291W        W98518  33.858   8.742  13.308
33292W        W98519  35.064  25.697  10.992
33293W        W98520  38.099  36.865  13.008
33294W        W98521   2.005  20.241  12.999
33295W        W98522   6.452  27.586   0.269
33296W        W98523  40.351  29.611  14.323
33297W        W98524  26.602  20.689  11.977
33298W        W98525   8.689  36.035   0.640
33299W        W98526  22.814  23.538   2.739
33300W        W98527   0.780   2.805  13.334
33301W        W98528   8.301  44.587   0.788
33302W        W98529   3.862   7.008  11.480
33303W        W98530  18.079  11.660  13.758
33304W        W98531  32.562   7.183   4.170
33305W        W98532  39.765  32.861   2.330
33306W        W98533  16.510  42.774  11.464
33307W        W98534  15.787  25.049   5.001
33308W        W98535  22.037   6.374   0.801
33309W        W98536   1.203  40.576   0.436
33310W        W98537  37.342  13.850   1.033
33311W        W98538  21.445  44.109   0.831
33312W        W98539  13.047   2.955   1.187
33313W        W98540  25.109  37.451  10.757
33314W        W98541   3.206  43.044   0.401
33315W        W98542  11.182  13.299   3.770
33316W        W98543  24.472  42.514   3.569
33317W        W98544  33.602   9.920   0.014
33318W        W98545   5.833  35.676  13.961
33319W        W98546  31.090  11.402  13.464
33320W        W98547  39.256   6.286  13.294
33321W        W98548   4.829   7.379  14.916
33322W        W98549  26.709  13.029   0.766
33323W        W98550  34.001  17.507  14.653
33324W        W98551  14.599  18.538  11.035
33325W        W98552  13.316  13.580  11.996
33326W        W98553  32.985  26.677   1.276
33327W        W98554  16.394  28.551  14.827
33328W        W98555  16.288  13.244   4.215
33329W        W98556  41.242  33.488   1.198
33330W        W98557  27.963  28.558  11.577
33331W        W98558  31.061  20.131  11.244
33332W        W98559  44.735  36.103   0.568
33333W        W98560   0.668  35.181   4.199
33334W        W98561  41.047  44.350   1.627
33335W        W98562  34.950  27.331  12.455
33336W        W98563  43.318  27.255   0.236
33337W        W98564  40.815  44.367  11.693
33338W        W98565  42.340  21.985  11.836
33339W        W98566   2.667  29.408   4.447
33340W        W98567  10.756  36.063   2.138
33341W        W98568  43.934   3.388   3.181
33342W        W98569   9.597  37.460   4.765
33343W        W98570  39.116   7.794   0.352
33344W        W98571  35.080  44.524  11.724
33345W        W98572  20.371  36.849  13.456
33346W        W98573  36.527   9.652  14.886
33347W        W98574  10.134   5.661  14.508
33348W        W98575  29.427  33.053   0.517
33349W        W98576  44.497  28.956   2.237
33350W        W98577   0.784  29.407   3.731
33351W        W98578  14.827  41.468   5.128
33352W        W98579  22.142  16.057   2.003
33353W        W98580  10.341  43.470   0.797
33354W        W98581  27.694  18.772  13.920
33355W        W98582   0.092  43.307  12.661
33356W        W98583  22.844  41.533  14.448
33357W        W98584  38.600  30.185   2.093
33358W        W98585  12.079  25.562  10.688
33359W        W98586  13.911  32.638  14.078
33360W        W98587   9.837  35.131  14.522
33361W        W98588  15.480  26.996   3.167
33362W        W98589  10.672   2.207   4.101
33363W        W98590   7.167  27.894  13.503
33364W        W98591  25.816  13.649   2.658
33365W        W98592  22.208  44.570   3.230
33366W        W98593  30.888   0.309  13.113
33367W        W98594  31.948  18.755  12.952
33368W        W98595   2.482  43.810  12.582
33369W        W98596   6.700  18.046  12.061
33370W        W98597  38.710  36.726  13.842
33371W        W98598   4.963  11.316  12.903
33372W        W98599  20.422  29.864   4.143
33373W        W98600  25.111  15.652   0.666
33374W        W98601   7.207  28.651  14.019
33375W        W98602  40.340  21.732   1.222
33376W        W98603  39.092  35.137  12.975
33377W        W98604  26.756   6.876  10.725
33378W        W98605  14.291   3.934   2.770
33379W        W98606  37.922   7.873   0.793
33380W        W98607  38.089  39.954   4.435
33381W        W98608   3.984  18.209  12.630
33382W        W98609  28.983   3.278  12.649
33383W        W98610   7.325   3.524  11.481
33384W        W98611  15.098  44.474  14.525
33385W        W98612  31.316  35.468   1.876
33386W        W98613  17.842  40.886   1.371
33387W        W98614  40.398  41.436  10.184
33388W        W98615   2.378  12.549  10.659
33389W        W98616  24.505  26.678  12.515
33390W        W98617  39.353  19.868  14.088
33391W        W98618   3.190   9.387  11.222
33392W        W98619  35.905  29.522   3.601
33393W        W98620  28.913  41.293   1.856
33394W        W98621  22.708   3.344   9.477
33395W        W98622  37.633  37.146  13.022
33396W        W98623  14.628   7.774  13.049
33397W        W98624  30.562  33.679   4.950
33398W        W98625  14.744   7.036   9.893
33399W        W98626  21.657  38.059   2.832
33400W        W98627  42.974   8.180  12.659
33401W        W98628  40.269  24.609  10.695
33402W        W98629  24.446  11.115  12.023
33403W        W98630  34.012   1.766  13.342
33404W        W98631   9.457  29.619  11.933
33405W        W98632  13.166  19.417  11.481
33406W        W98633  16.572  42.400  10.780
33407W        W98634  36.956  37.852  12.216
33408W        W98635  17.394   9.075  12.006
33409W        W98636   8.612  11.683  14.427
33410W        W98637  36.954   4.993   1.266
33411W        W98638   0.762  24.127   4.990
33412W        W98639  37.354  35.999   3.861
33413W        W98640  18.607  31.453   2.234
33414W        W98641  41.275   8.859   0.777
33415W        W98642  39.838  42.743   3.449
33416W        W98643  37.560  28.578   3.750
33417W        W98644   4.591   4.785  14.916
33418W        W98645  28.743  37.585  14.731
33419W        W98646  11.606  26.920  14.815
33420W        W98647  38.654  44.035   3.144
33421W        W98648  44.798  25.397   0.109
33422W        W98649  23.550  19.059   1.831
33423W        W98650  22.566  18.501  12.465
33424W        W98651  10.090  35.394   1.172
33425W        W98652  25.591  16.366   0.851
33426W        W98653   8.944   7.352   0.865
33427W        W98654  41.878  19.756  12.090
33428W        W98655  28.269  33.931   2.235
33429W        W98656  25.173  16.684   0.949
33430W        W98657  18.263   1.934  12.645
33431W        W98658  15.320   6.385   4.268
33432W        W98659  20.736  37.477   3.838
33433W        W98660   0.278   5.965   1.864
33434W        W98661  33.379  24.376  12.473
33435W        W98662  24.678  33.822   3.623
33436W        W98663  11.853  25.998  13.373
33437W        W98664  17.353  30.892  14.479
33438W        W98665  13.626  41.011   1.244
33439W        W98666  33.487  39.154  14.528
33440W        W98667  33.945   1.803   4.374
33441W        W98668  34.479  42.897  11.155
33442W        W98669  25.472  11.169   0.297
33443W        W98670  24.009  19.003   3.352
33444W        W98671  13.056  28.001  13.879
33445W        W98672  30.160  18.084   0.992
33446W        W98673   0.464  13.661   2.323
33447W        W98674  12.434  17.183  14.858
33448W        W98675   5.233  38.934  13.372
33449W        W98676  24.690  43.006  12.765
33450W        W98677  15.373  36.951  14.899
33451W        W98678   5.460  42.981  14.824
33452W        W98679   0.525  34.117   4.386
33453W        W98680  36.440  10.115  13.894
33454W        W98681  26.663   1.037   0.708
33455W        W98682  38.475   0.282   2.536
33456W        W98683  12.852  35.921   4.839
33457W        W98684  32.394  33.905  12.063
33458W        W98685  14.914  17.874   3.150
33459W        W98686   1.344  33.863   1.028
33460W        W98687  23.286   5.581   0.358
33461W        W98688   5.752  16.609  11.106
33462W        W98689  28.868  44.386   0.503
33463W        W98690  33.433  17.005  12.522
33464W        W98691  29.069  10.610   2.333
33465W        W98692  13.609  14.259   1.303
33466W        W98693  36.763  32.134   3.031
33467W        W98694  15.207  43.601  12.957
33468W        W98695  44.165   5.282  10.842
33469W        W98696  19.568  36.754  13.036
33470W        W98697  38.374   0.459  13.453
33471W        W98698  36.220   1.657  12.625
33472W        W98699  33.992  34.090  13.578
33473W        W98700  21.802   8.353   3.360
33474W        W98701  31.893   0.621   4.986
33475W        W98702   5.781  41.150   4.086
33476W        W98703  34.898  20.645  12.948
33477W        W98704  16.831   8.707   1.889
33478W        W98705  40.634  19.312  13.488
33479W        W98706   2.448  36.857   0.643
33480W        W98707  24.686  34.253  12.313
33481W        W98708   5.903   6.386  12.942
33482W        W98709  15.121  35.894  11.467
33483W        W98710  18.020  27.285  11.625
33484W        W98711   8.367  21.699   4.499
33485W        W98712  37.221  29.919   4.042
33486W        W98713  10.818  28.033   2.196
33487W        W98714  22.120  27.970   1.253
33488W        W98715  31.622  43.988  13.954
33489W        W98716  32.426  32.946  11.526
33490W        W98717   8.379  28.134  10.735
33491W        W98718  31.591  40.535  14.116
33492W        W98719  16.260  37.453   2.724
33493W        W98720  30.500   9.339   2.724
33494W        W98721  36.471  16.951  12.942
33495W        W98722  27.511  44.131  12.694
33496W        W98723   3.422  37.373   0.304
33497W        W98724  26.979  33.522   4.085
33498W        W98725  12.903  30.442   0.520
33499W        W98726  14.278  39.945  13.452
33500W        W98727  28.350  24.104  14.727
33501W        W98728   1.758  31.121   1.699
33502W        W98729  10.758  15.785  14.927
33503W        W98730  16.742  28.956  14.868
33504W        W98731  11.325  43.443   0.431
33505W        W98732  39.468  22.295  13.865
33506W        W98733  28.059  43.292   0.954
33507W        W98734   6.301  29.459   4.966
33508W        W98735  29.556  15.129   2.738
33509W        W98736   6.149  29.791  13.183
33510W        W98737  18.679  27.405   4.126
33511W        W98738  33.521  18.611   4.125
33512W        W98739  32.467  41.269   4.431
33513W        W98740  29.936  34.205  10.581
33514W        W98741  27.171  27.393  12.088
33515W        W98742   3.423  13.888   3.195
33516W        W98743  25.214   3.660  11.222
33517W        W98744   9.893  17.665   3.199
33518W        W98745  28.030  18.784  11.878
33519W        W98746   0.923  22.843  14.435
33520W        W98747   0.796  21.076   0.750
33521W        W98748  16.804   7.749  11.893
33522W        W98749  31.071  31.611   3.770
33523W        W98750  26.889  32.540   4.041
33524W        W98751  30.697  25.203  14.382
33525W        W98752  14.031  37.913   2.419
33526W        W98753   0.037   8.878   0.680
33527W        W98754  28.379  12.265   0.399
33528W        W98755  38.375  19.520   0.637
33529W        W98756  40.571   2.402  10.667
33530W        W98757  10.137  13.473  13.905
33531W        W98758  36.863  42.076   3.589
33532W        W98759  20.740  24.875  13.590
33533W        W98760   7.456  42.889   4.190
33534W        W98761  25.933  36.100   4.139
33535W        W98762  33.504   7.383   0.479
33536W        W98763   0.797  23.499   1.127
33537W        W98764  30.638  38.806   1.828
33538W        W98765  21.286  39.806  13.516
33539W        W98766  34.367  31.705   3.466
33540W        W98767  37.622  35.912  11.565
33541W        W98768   1.075  20.650   2.289
33542W        W98769  20.220  24.775  14.808
33543W        W98770  18.615  17.242   3.620
33544W        W98771  23.948  20.054   0.270
33545W        W98772  40.309  44.269  10.752
33546W        W98773  34.157  29.458  13.558
33547W        W98774  43.601  31.986  11.148
33548W        W98775  30.991  39.964  13.028
33549W        W98776  37.488  37.351  13.490
33550W        W98777  35.061  13.249  11.360
33551W        W98778  44.647  18.804   2.703
33552W        W98779   9.878  28.550   0.863
33553W        W98780  13.185  27.406  13.041
33554W        W98781   7.660   0.797  12.865
33555W        W98782  11.794  16.575   9.753
33556W        W98783  21.575   1.260   3.679
33557W        W98784  43.724  27.664  14.559
33558W        W98785  11.585  25.593  12.335
33559W        W98786  14.720   9.601  14.012
33560W        W98787  24.136  14.598  11.096
33561W        W98788  35.119  22.459   3.316
33562W        W98789  41.708   0.289  12.288
33563W        W98790   0.272  25.097   3.567
33564W        W98791  28.432  34.987  13.145
33565W        W98792  24.577  13.196  14.430
33566W        W98793  20.580  39.504   0.326
33567W        W98794  18.797  15.943  14.660
33568W        W98795  32.320  10.418  14.805
33569W        W98796  37.489   8.544   3.990
33570W        W98797  13.141  14.193   1.566
33571W        W98798  36.511  13.224  12.091
33572W        W98799  23.764   0.709  11.206
33573W        W98800  17.128  10.287  13.897
33574W        W98801   3.219  22.034  13.234
33575W        W98802  16.559   4.005  11.548
33576W        W98803  15.642  35.810  12.936
33577W        W98804  29.948  19.137  12.488
33578W        W98805  13.140   4.661   2.095
33579W        W98806   0.173  24.600   3.737
33580W        W98807  39.392  34.667  12.061
33581W        W98808  37.743  11.759  13.875
33582W        W98809  12.332  14.857  14.454
33583W        W98810  41.512  32.433  11.933
33584W        W98811  32.516  24.955  11.546
33585W        W98812  20.164  40.509  12.504
33586W        W98813  31.519  17.072   0.216
33587W        W98814  39.880  33.868  12.812
33588W        W98815  38.840   4.786  11.655
33589W        W98816   7.294  28.477  13.512
33590W        W98817   8.738   9.684  13.453
33591W        W98818  38.418  31.468  11.594
33592W        W98819  40.383  27.275  12.682
33593W        W98820  10.386  33.660  11.194
33594W        W98821   6.264  28.164  10.591
33595W        W98822  13.618  16.190  11.009
33596W        W98823  16.852  41.972   4.107
33597W        W98824  10.045  25.552  10.776
33598W        W98825  35.061  43.395   0.271
33599W        W98826  12.106  41.873  14.568
33600W        W98827   1.083  12.214  12.451
33601W        W98828  43.570   6.735  10.706
33602W        W98829  18.539  33.038  13.481
33603W        W98830  17.138  39.861  14.469
33604W        W98831  26.864  14.129   2.945
33605W        W98832  16.899  15.050  14.960
33606W        W98833  14.234  39.952   0.735
33607W        W98834  27.061   0.724   4.324
33608W        W98835  23.476  26.910  10.890
33609W        W98836  41.725  41.272   1.293
33610W        W98837  24.730  20.306  14.925
33611W        W98838  40.952  32.177  12.350
33612W        W98839  38.977  10.783   2.765
33613W        W98840   5.525  44.230  11.651
33614W        W98841  34.900   0.442  14.777
33615W        W98842  39.813  30.593   4.102
33616W        W98843   4.067   1.383  12.701
33617W        W98844  14.955  40.071   4.006
33618W        W98845  13.801  29.661  10.734
33619W        W98846  39.038  26.142  14.939
33620W        W98847  15.235  42.537   4.608
33621W        W98848   1.526  12.844  14.353
33622W        W98849  33.285   6.114  12.276
33623W        W98850   6.580  26.017   1.174
33624W        W98851  31.419  25.069   4.107
33625W        W98852  38.837   5.901   3.207
33626W        W98853  44.915   3.304   0.296
33627W        W98854   4.806  44.553   1.240
33628W        W98855  38.480  12.446   3.975
33629W        W98856  21.993  37.104   4.554
33630W        W98857   8.769  28.853   4.456
33631W        W98858  11.514  29.583   2.729
33632W        W98859   9.881  18.530  14.453
33633W        W98860  44.210  43.800  11.864
33634W        W98861  33.536  27.237  13.819
33635W        W98862   3.596   2.131   2.432
33636W        W98863   8.410  34.284  11.717
33637W        W98864   6.714  26.290  11.310
33638W        W98865  35.089  12.694   1.712
33639W        W98866   9.662  22.099  13.115
33640W        W98867  37.594   6.736   3.131
33641W        W98868   6.347  34.484   3.199
33642W        W98869   1.143  42.087   3.151
33643W        W98870   0.471   1.441   3.672
33644W        W98871  39.241  44.794  14.934
33645W        W98872  11.215   8.147   4.128
33646W        W98873  36.100  17.576   2.761
33647W        W98874  32.701  12.361  12.486
33648W        W98875  17.685   8.900  13.121
33649W        W98876   3.411  22.472  12.366
33650W        W98877  24.952  34.594  11.460
33651W        W98878  11.125  27.436   1.714
33652W        W98879  34.554  41.080   0.894
33653W        W98880  27.409   6.385  13.398
33654W        W98881  18.133  26.708   3.653
33655W        W98882  27.656  18.289   2.732
33656W        W98883  25.062  26.226  12.677
33657W        W98884   6.225  11.510   1.962
33658W        W98885  39.886  32.059  14.810
33659W        W98886  15.932  34.901  12.359
33660W        W98887   3.213  25.896  10.624
33661W        W98888  20.109  25.227  11.039
33662W        W98889  25.068  37.897   1.850
33663W        W98890  11.201   4.982   3.690
33664W        W98891  21.515  20.808  13.034
33665W        W98892  44.035  12.994  14.955
33666W        W98893  41.938  11.508  13.831
33667W        W98894  39.345  30.956  10.591
33668W        W98895  20.077  42.586  12.616
33669W        W98896  12.767  41.433   3.941
33670W        W98897  12.181  26.205   4.629
33671W        W98898   1.237  25.074  11.079
33672W        W98899   6.272  12.433  12.906
33673W        W98900  37.497   2.502  12.388
33674W        W98901  31.418  42.461   2.226
33675W        W98902  28.888  13.608   0.338
33676W        W98903  19.768   5.370   2.762
33677W        W98904  37.976  38.028  14.462
33678W        W98905   9.321  31.475  13.462
33679W        W98906  19.568  41.593   0.469
33680W        W98907  41.578  43.830   0.782
33681W        W98908  35.519  25.753  13.191
33682W        W98909  13.959  34.386  11.103
33683W        W98910  19.053  29.144  11.060
33684W        W98911  13.324  28.736  11.415
33685W        W98912  17.272  44.211  11.615
33686W        W98913   0.342  21.343   0.854
33687W        W98914  15.398  18.696   0.764
33688W        W98915  31.588  38.351  13.557
33689W        W98916  17.139  27.059   1.263
33690W        W98917  30.623  44.308  14.865
33691W        W98918  38.600  11.139   1.955
33692W        W98919  31.324   3.181  11.865
33693W        W98920  37.296  22.979   3.379
33694W        W98921  11.387  19.625   3.853
33695W        W98922   9.729  26.994   3.855
33696W        W98923  40.005  39.422   3.930
33697W        W98924  41.088  25.824   1.149
33698W        W98925   6.896  44.510   4.051
33699W        W98926  29.485  30.596  14.008
33700W        W98927   6.009  38.480  14.055
33701W        W98928   4.610  35.308   2.874
33702W        W98929   6.933  40.635  11.647
33703W        W98930  26.064  39.308  10.517
33704W        W98931  10.119  13.136  13.135
33705W        W98932   3.844  37.394  14.998
33706W        W98933  28.454  26.947  14.920
33707W        W98934  27.623  13.422   2.116
33708W        W98935  36.672  16.757   3.719
33709W        W98936   4.959   7.271   1.858
33710W        W98937  41.329  43.954  12.407
33711W        W98938   3.354   6.779  14.873
33712W        W98939  39.040   3.418  10.892
33713W        W98940   2.742  34.852  13.235
33714W        W98941  25.489  20.740   0.867
33715W        W98942  26.998  21.983  14.364
33716W        W98943  31.004  27.379  12.977
33717W        W98944  42.250  34.336  10.841
33718W        W98945  29.205  34.569   3.348
33719W        W98946  42.128   9.395  12.996
33720W        W98947   2.327  30.388   3.230
33721W        W98948  32.419  18.056  11.843
33722W        W98949  13.063  23.050  14.415
33723W        W98950  34.633  38.836   4.693
33724W        W98951  39.371   3.812  13.007
33725W        W98952   2.506  34.369  11.689
33726W        W98953  29.701  17.320  12.902
33727W        W98954  17.319  11.728  10.712
33728W        W98955  16.475  31.176   3.255
33729W        W98956  36.042   2.894   1.397
33730W        W98957  12.396  36.590   1.863
33731W        W98958  32.960   0.246   3.228
33732W        W98959  30.479  10.094  10.314
33733W        W98960   8.237  23.563   0.836
33734W        W98961  12.680  11.381   4.168
33735W        W98962  10.171  24.170  12.031
33736W        W98963  10.094  24.101  12.541
33737W        W98964  12.766  10.671  14.397
33738W        W98965   5.013   4.615   2.787
33739W        W98966   8.491  38.876   1.673
33740W        W98967   0.379  28.017  11.594
33741W        W98968  14.603  20.174   0.382
33742W        W98969  10.277  33.607   3.178
33743W        W98970  35.900  39.836  10.735
33744W        W98971  32.427  36.103   3.865
33745W        W98972  28.128  26.137  12.927
33746W        W98973  35.791  19.990   3.802
33747W        W98974  34.601   8.153   4.035
33748W        W98975  43.586  19.664   0.722
33749W        W98976  17.824  37.440  12.628
33750W        W98977  20.046  40.408   1.292
33751W        W98978  19.625  10.738  13.801
33752W        W98979  31.162   9.830  12.124
33753W        W98980  17.989   2.182  11.901
33754W        W98981  39.759  22.816   4.148
33755W        W98982   7.719  38.009   2.307
33756W        W98983  25.199  24.510   1.267
33757W        W98984  13.364  15.123  13.774
33758W        W98985   7.542  16.136   0.979
33759W        W98986  23.181  32.144   0.942
33760W        W98987  28.132  40.354   0.787
33761W        W98988  32.322  12.848  11.815
33762W        W98989  13.063  40.841  10.711
33763W        W98990  28.097  26.740   4.115
33764W        W98991  28.187  39.993   1.949
33765W        W98992  31.491   4.756   4.108
33766W        W98993  20.781  43.752   0.257
33767W        W98994  15.845  38.934  10.917
33768W        W98995  24.138  17.113   2.655
33769W        W98996  14.718  42.812  13.988
33770W        W98997   2.412  33.384   4.758
33771W        W98998  19.587  44.235  13.994
33772W        W98999  23.695  28.607  13.932
33773W        W99000  29.867  23.223   4.479
33774W        W99001  32.874  21.460  14.775
33775W        W99002  32.425  35.805  12.159
33776W        W99003  41.348  22.089  11.240
33777W        W99004  24.076   2.076  14.074
33778W        W99005  38.418  23.495   1.697
33779W        W99006  31.907  37.379  10.734
33780W        W99007   3.762   5.438  11.654
33781W        W99008  16.762   9.822  14.741
33782W        W99009   4.732  30.260  13.004
33783W        W99010   1.713   6.399   3.249
33784W        W99011  25.864  43.384  11.512
33785W        W99012  41.139  32.920   1.965
33786W        W99013  13.157  15.452   0.818
33787W        W99014  33.851  29.987   3.781
33788W        W99015  35.180  26.185   4.074
33789W        W99016   0.339   4.690   0.418
33790W        W99017  36.037  19.737   1.202
33791W        W99018  44.412  26.426   2.359
33792W        W99019  41.399  26.096   3.727
33793W        W99020  34.439  30.088   3.176
33794W        W99021  23.654  26.142  13.385
33795W        W99022  35.090  32.284  11.150
33796W        W99023  40.908  41.799   1.182
33797W        W99024  33.923  12.347  14.336
33798W        W99025  12.612  25.520   4.554
33799W        W99026  41.022  23.095   1.214
33800W        W99027  37.042   9.865  10.608
33801W        W99028  16.869  33.561   0.347
33802W        W99029  14.714  41.887  14.090
33803W        W99030  10.611  19.162   4.123
33804W        W99031  29.470   4.538  14.795
33805W        W99032   6.315   6.907  14.014
33806W        W99033  23.447   6.032  13.002
33807W        W99034  12.904  44.198   0.400
33808W        W99035  32.888  17.579  11.008
33809W        W99036   9.365  37.863  11.120
33810W        W99037  40.138  35.568  12.314
33811W        W99038   9.376  12.417   1.165
33812W        W99039  31.334  35.948  14.529
33813W        W99040  41.458  32.149   2.567
33814W        W99041  35.555   6.456   0.975
33815W        W99042  23.634  29.859   1.305
33816W        W99043  26.508  11.699   1.280
33817W        W99044   3.274  33.034  10.022
33818W        W99045   1.909  23.919   4.655
33819W        W99046  25.695   2.910  14.929
33820W        W99047  39.506  21.966  12.861
33821W        W99048  35.781  44.553  12.020
33822W        W99049  29.408   7.859   2.703
33823W        W99050  28.537  19.333  14.825
33824W        W99051  41.849   2.441  11.121
33825W        W99052  33.406  25.077   1.804
33826W        W99053  44.362  38.861  14.880
33827W        W99054   8.572   2.757   0.002
33828W        W99055   7.017  20.096  12.436
33829W        W99056   3.712   8.292   1.887
33830W        W99057  44.059  22.666  10.117
33831W        W99058  43.343   5.921  10.650
33832W        W99059  36.199  22.591   4.630
33833W        W99060  37.452  19.940   1.335
33834W        W99061  12.075   6.172  12.096
33835W        W99062   7.853  25.563  12.531
33836W        W99063  15.581  32.047   3.700
33837W        W99064  28.228   8.039   3.403
33838W        W99065   8.810  26.237  12.225
33839W        W99066  25.697  44.749   3.951
33840W        W99067  42.569  40.958   3.458
33841W        W99068  23.630   9.955  12.386
33842W        W99069  39.808  40.187  13.502
33843W        W99070  18.698  32.849   2.506
33844W        W99071   0.902  43.541  11.772
33845W        W99072  23.477  38.087  12.582
33846W        W99073  19.599  17.135  11.165
33847W        W99074  20.158  30.198  13.874
33848W        W99075  36.500  40.073  14.668
33849W        W99076  30.208  40.056  14.471
33850W        W99077  11.793   6.333  14.077
33851W        W99078   3.327  14.706   5.380
33852W        W99079  19.550  39.064  13.512
33853W        W99080  36.315  44.326   3.328
33854W        W99081  40.372  28.194  10.754
33855W        W99082  31.910   8.927   1.419
33856W        W99083  35.857  18.644  13.097
33857W        W99084   6.478  32.905   0.709
33858W        W99085  43.462  37.310  11.527
33859W        W99086  10.368  44.868  12.197
33860W        W99087  15.216  13.181  12.442
33861W        W99088  13.765  14.280  12.459
33862W        W99089   0.895  25.504  11.748
33863W        W99090   9.221   8.179   4.212
33864W        W99091  11.676   5.175  11.173
33865W        W99092  44.093   2.748   3.809
33866W        W99093  23.132  24.684  11.650
33867W        W99094  25.072  34.108  13.815
33868W        W99095   8.692  25.295  14.010
33869W        W99096  25.646  21.890   0.328
33870W        W99097   5.092  11.632  11.685
33871W        W99098  19.600  19.721   5.095
33872W        W99099  44.165  21.951  13.010
33873W        W99100   4.305  28.234   3.727
33874W        W99101  32.422  43.753  11.881
33875W        W99102   3.868  29.538  12.942
33876W        W99103  16.197   3.467   1.361
33877W        W99104  44.493  22.049   5.003
33878W        W99105  39.829  28.482   4.175
33879W        W99106  25.028   4.405   4.733
33880W        W99107  32.321   7.683   4.879
33881W        W99108  19.598  26.618  13.478
33882W        W99109  15.542  28.980   1.000
33883W        W99110  13.699  37.386   3.240
33884W        W99111  20.127   1.482   1.876
33885W        W99112  15.529  14.748   2.821
33886W        W99113  21.341  30.653  14.317
33887W        W99114  28.071  25.389  10.272
33888W        W99115  41.378  23.789   3.169
33889W        W99116  42.424   3.010  11.417
33890W        W99117  36.902   0.992  13.008
33891W        W99118  23.950  35.512   0.245
33892W        W99119  37.175  38.114   3.449
33893W        W99120   2.731  18.699  10.465
33894W        W99121   4.528  20.972  11.533
33895W        W99122   4.794  32.994   3.192
33896W        W99123  41.899  34.144   4.031
33897W        W99124  14.343  16.229  13.025
33898W        W99125  16.788  33.550  11.583
33899W        W99126  35.143  21.381  11.531
33900W        W99127  25.630   3.210   2.091
33901W        W99128  35.028  33.560  10.131
33902W        W99129  21.832  12.144  12.836
33903W        W99130  17.567  41.945   3.636
33904W        W99131  30.641  38.031   0.271
33905W        W99132  26.515  31.068  12.596
33906W        W99133  34.816   9.212  11.949
33907W        W99134  41.320  11.849   5.042
33908W        W99135  44.070  17.423  11.602
33909W        W99136  33.401  28.704  13.306
33910W        W99137  11.197  28.201   1.020
33911W        W99138  30.523  14.099   3.054
33912W        W99139  31.807  23.558   1.241
33913W        W99140  26.073  13.714   0.423
33914W        W99141  26.743  22.233   1.750
33915W        W99142  28.648  16.322  12.384
33916W        W99143  17.189  42.356   4.503
33917W        W99144  11.989  31.141   3.297
33918W        W99145  40.098  13.539  11.952
33919W        W99146  15.847   6.013  12.597
33920W        W99147  21.813  28.031  11.966
33921W        W99148   0.738   5.329  11.470
33922W        W99149  22.192  41.541   4.075
33923W        W99150  11.377  20.020   4.615
33924W        W99151   3.194  43.744  13.884
33925W        W99152   6.247   2.312   2.362
33926W        W99153  36.737  22.885   1.356
33927W        W99154  44.065  33.454   5.280
33928W        W99155  26.229  21.282   3.891
33929W        W99156  36.143  25.279  12.363
33930W        W99157  13.320  17.227  12.193
33931W        W99158   4.353  20.689   1.157
33932W        W99159  27.024  15.777   3.761
33933W        W99160  43.770  28.632   1.699
33934W        W99161  44.676  11.816  11.722
33935W        W99162  26.006  40.134  12.884
33936W        W99163  10.093  19.398  12.515
33937W        W99164  37.346  29.184  12.386
33938W        W99165  21.632  34.742   0.807
33939W        W99166   2.747  40.012  14.065
33940W        W99167  30.659  41.827  13.799
33941W        W99168  31.026  29.860  13.907
33942W        W99169   3.611  16.364  13.089
33943W        W99170  14.018  15.312  10.629
33944W        W99171  22.753  10.153   1.055
33945W        W99172   3.842  10.866  12.154
33946W        W99173   9.942  34.399  11.693
33947W        W99174  18.336  17.115  13.568
33948W        W99175   3.742   2.086  14.006
33949W        W99176  36.596  18.510  11.205
33950W        W99177  30.299  36.644  14.892
33951W        W99178  37.378  13.694   3.773
33952W        W99179   7.261  21.745   4.067
33953W        W99180   9.422  25.026   0.712
33954W        W99181  12.854  43.604   1.778
33955W        W99182  16.294   7.920   1.336
33956W        W99183   3.658   3.440  14.560
33957W        W99184   7.116  19.766  13.012
33958W        W99185  42.789  30.428   1.115
33959W        W99186  35.374  18.715  14.785
33960W        W99187  33.354  23.671   2.916
33961W        W99188  13.136   2.865  13.038
33962W        W99189  26.081  22.541   4.719
33963W        W99190  10.832  39.941  12.349
33964W        W99191  16.786  30.401  14.719
33965W        W99192  33.025  42.818   0.398
33966W        W99193   1.893  35.067  11.450
33967W        W99194  24.197  27.492  11.146
33968W        W99195  19.824  34.498  14.990
33969W        W99196  13.093  13.339   2.584
33970W        W99197   9.137   9.313   1.792
33971W        W99198  28.137  32.572  14.044
33972W        W99199  28.157  15.568  11.592
33973W        W99200  37.406  33.502  13.711
33974W        W99201  35.160   5.013   5.403
33975W        W99202  33.845  31.262  12.109
33976W        W99203  30.170  30.428  11.079
33977W        W99204  15.325   7.626  12.039
33978W        W99205  32.504  31.927  11.532
33979W        W99206  27.165  20.792   0.796
33980W        W99207  24.243  37.015   1.891
33981W        W99208  41.446  12.752  12.372
33982W        W99209  23.640   4.053  14.895
33983W        W99210  21.960   1.254   2.090
33984W        W99211  28.727  15.615   2.644
33985W        W99212  24.738  37.439  13.382
33986W        W99213  44.335  14.655  13.464
33987W        W99214   9.356  34.460   1.016
33988W        W99215   8.599  25.456  14.841
33989W        W99216  34.731   2.648  13.624
33990W        W99217   9.231  13.873   0.807
33991W        W99218  24.602   6.364   4.869
33992W        W99219  31.385  10.024   4.924
33993W        W99220  38.503  38.449  14.434
33994W        W99221  37.958   1.187  13.072
33995W        W99222   8.275  17.283   3.913
33996W        W99223   5.712   2.507   3.180
33997W        W99224   2.133  10.640  14.796
33998W        W99225   2.008   2.818  10.665
33999W        W99226  20.622  25.425   4.671
34000W        W99227  44.495  12.676   1.750
34001W        W99228  38.407   2.269   3.270
34002W        W99229  19.052  17.210  14.133
34003W        W99230   4.057   1.124   4.594
34004W        W99231  11.561  41.040   2.312
34005W        W99232  27.095  22.485  14.494
34006W        W99233   2.702  17.777   0.536
34007W        W99234  34.859  25.662  13.032
34008W        W99235  16.859  14.060   2.247
34009W        W99236  13.223   3.176  13.464
34010W        W99237   4.222  15.366  13.437
34011W        W99238  28.874  22.239  13.691
34012W        W99239  40.968  32.798   2.941
34013W        W99240  17.465   3.721  13.644
34014W        W99241  23.628   5.761   3.309
34015W        W99242  22.828  22.194   2.438
34016W        W99243  38.986  23.601   0.009
34017W        W99244  24.491  25.980   3.084
34018W        W99245  23.780  31.649   1.192
34019W        W99246  20.504   1.499   4.326
34020W        W99247  29.488  15.634  14.992
34021W        W99248  33.001   5.690  14.025
34022W        W99249   7.374  44.282   4.110
34023W        W99250  17.673   5.802   0.037
34024W        W99251  41.788   1.521  10.144
34025W        W99252  20.602   9.600  11.489
34026W        W99253   4.323  19.827   0.854
34027W        W99254   2.249  29.394   0.723
34028W        W99255   6.889  19.554   0.837
34029W        W99256  17.004  33.429   0.821
34030W        W99257   2.652  20.115   4.560
34031W        W99258  27.936  29.444   0.291
34032W        W99259  29.718  17.281   1.283
34033W        W99260   4.703  17.067   2.172
34034W        W99261  32.612  35.439  13.908
34035W        W99262  41.534  42.585   1.912
34036W        W99263  29.520  29.791   0.829
34037W        W99264   4.064  14.991  10.996
34038W        W99265  41.009  28.521   0.854
34039W        W99266   4.191  34.705   1.472
34040W        W99267  27.017  29.930  14.099
34041W        W99268  38.291  22.588  11.975
34042W        W99269  37.951  23.238  14.499
34043W        W99270  11.101  43.921   4.040
34044W        W99271  41.565  44.991  13.926
34045W        W99272   7.966  11.142  12.216
34046W        W99273  42.214  17.621  12.309
34047W        W99274  35.172  17.673  10.700
34048W        W99275  25.686  36.188   4.646
34049W        W99276  18.067  35.583  13.945
34050W        W99277  19.541  27.972   4.179
34051W        W99278  11.566  44.427   1.940
34052W        W99279  44.535  32.902  10.287
34053W        W99280  10.244  26.135   9.994
34054W        W99281   2.577  11.750   0.986
34055W        W99282  18.632  14.550   1.784
34056W        W99283  29.643  29.511  14.168
34057W        W99284  34.649  43.367  13.928
34058W        W99285  27.209   5.676   2.392
34059W        W99286  32.596   2.848   2.143
34060W        W99287  12.651  27.161   3.181
34061W        W99288  22.693  24.737   3.125
34062W        W99289  24.140  30.708   4.947
34063W        W99290  18.314  43.024   3.638
34064W        W99291  32.689   6.695   1.974
34065W        W99292  14.610  40.555  12.831
34066W        W99293  41.898  39.052  11.635
34067W        W99294  25.255  36.114   2.564
34068W        W99295   7.979  29.271  12.918
34069W        W99296  32.616  36.731  14.983
34070W        W99297  16.108  24.929   0.836
34071W        W99298  33.874  27.964  13.439
34072W        W99299  33.850  30.001   2.382
34073W        W99300  36.798   9.607  10.972
34074W        W99301  18.222  34.059   4.641
34075W        W99302   8.214  37.153   2.893
34076W        W99303  16.563  42.317  13.442
34077W        W99304  36.789  19.689  10.624
34078W        W99305  12.358  11.281  14.113
34079W        W99306  24.591  15.301   2.961
34080W        W99307  14.579  36.044  11.589
34081W        W99308  15.740   6.391  10.465
34082W        W99309  27.897   3.072   0.341
34083W        W99310  37.963  36.524   0.444
34084W        W99311  38.954   3.289  12.399
34085W        W99312   9.193  42.691  14.027
34086W        W99313   4.246  19.340  13.012
34087W        W99314  30.266   2.001   1.764
34088W        W99315  12.902  15.754  12.922
34089W        W99316  42.592   3.848   0.289
34090W        W99317   1.019  14.980   3.598
34091W        W99318  38.075  10.364   1.128
34092W        W99319   5.329  42.262   3.671
34093W        W99320  17.244  36.578   0.785
34094W        W99321   1.473  13.759   0.819
34095W        W99322  44.830  15.106  14.760
34096W        W99323   7.747  14.269   3.195
34097W        W99324   6.005  36.679  11.684
34098W        W99325  19.697   1.983  13.878
34099W        W99326  15.262  27.830  14.455
34100W        W99327   8.921   3.445  13.493
34101W        W99328  19.001  41.181  12.542
34102W        W99329  39.418  31.546  11.716
34103W        W99330   3.177  13.780   3.984
34104W        W99331  19.665  37.030   2.885
34105W        W99332  41.439  24.758  12.544
34106W        W99333  29.533  26.538   0.070
34107W        W99334  29.070  42.336  10.659
34108W        W99335  14.417   5.735  14.282
34109W        W99336  37.308   6.522  10.092
34110W        W99337  33.223  40.362  13.929
34111W        W99338  16.293  16.518   3.674
34112W        W99339  31.402  35.357   4.510
34113W        W99340  33.627  34.384  11.201
34114W        W99341  25.742   8.722  11.106
34115W        W99342  40.506  39.489   0.683
34116W        W99343  40.572  43.642  14.913
34117W        W99344  19.613  31.573  13.598
34118W        W99345  28.654   0.500  12.417
34119W        W99346  43.322  26.708  12.067
34120W        W99347   5.471  32.419   4.561
34121W        W99348   1.887  39.619  14.917
34122W        W99349  34.607  40.889   1.791
34123W        W99350  36.309  12.082   3.796
34124W        W99351  28.819  10.797  13.352
34125W        W99352  21.206   8.400   0.269
34126W        W99353  33.300  16.677  12.111
34127W        W99354  41.595  31.865  14.896
34128W        W99355   9.050  27.737   3.182
34129W        W99356  10.881  17.080  13.295
34130W        W99357  35.601  17.622   4.492
34131W        W99358  32.229  33.587   0.369
34132W        W99359  43.915  38.925  11.207
34133W        W99360  43.746  28.399   5.677
34134W        W99361  35.462  34.133  12.078
34135W        W99362  34.623  31.532  14.501
34136W        W99363   5.085  40.585  11.578
34137W        W99364   7.745  40.884  11.477
34138W        W99365  19.446  30.795   3.681
34139W        W99366  40.508   1.515  14.006
34140W        W99367   5.360  18.745  13.812
34141W        W99368  25.503  11.940   2.401
34142W        W99369   6.468  19.663   4.136
34143W        W99370   7.859   1.479  12.244
34144W        W99371  43.767  44.367  13.605
34145W        W99372  19.865   0.627   1.481
34146W        W99373  31.212  41.988   2.681
34147W        W99374   4.819  29.512  11.692
34148W        W99375  26.492   9.408  11.538
34149W        W99376  18.761  15.207  12.838
34150W        W99377  32.815  31.493  13.001
34151W        W99378  30.525  44.227  10.705
34152W        W99379  44.442  26.620  13.853
34153W        W99380  21.443  11.552   1.671
34154W        W99381   3.173  14.144   0.817
34155W        W99382  27.121  33.727  11.608
34156W        W99383  13.144  24.485   4.367
34157W        W99384  44.361  25.382   3.252
34158W        W99385  20.119  31.784  11.877
34159W        W99386  13.740  20.302  10.651
34160W        W99387  12.708  19.112   3.757
34161W        W99388  35.431   2.196  11.571
34162W        W99389  14.371  18.389  13.957
34163W        W99390  41.596  11.894  13.788
34164W        W99391  40.801   2.818  14.409
34165W        W99392  31.020  25.900   3.655
34166W        W99393  27.765  22.652   4.048
34167W        W99394  28.080  14.863  10.899
34168W        W99395  19.329  43.375   4.081
34169W        W99396  38.802   0.765  12.529
34170W        W99397  12.235  14.917  11.049
34171W        W99398  35.042  27.917   0.242
34172W        W99399  24.811  38.491  11.199
34173W        W99400   2.324  39.167  10.973
34174W        W99401  37.988  30.473   0.785
34175W        W99402  34.563  37.583  10.556
34176W        W99403  36.053  44.774   0.224
34177W        W99404  25.714  22.277   2.947
34178W        W99405  36.249  40.763   5.049
34179W        W99406  10.887   0.465   2.394
34180W        W99407  20.012  21.669   3.148
34181W        W99408   2.004   6.228   2.820
34182W        W99409  23.691  43.524  10.571
34183W        W99410   8.276  31.623  12.948
34184W        W99411  26.132  27.906  14.396
34185W        W99412  42.978   3.212   2.748
34186W        W99413  25.535  14.001   4.032
34187W        W99414  40.770  13.608  11.100
34188W        W99415  16.659  35.553  11.524
34189W        W99416   0.848  21.365  12.841
34190W        W99417   9.751  25.229  11.108
34191W        W99418  25.066  39.173  10.800
34192W        W99419  20.216   1.399  11.895
34193W        W99420  21.046  32.594   1.957
34194W        W99421   8.104  36.131   1.478
34195W        W99422  21.454  32.425  11.171
34196W        W99423  42.480  32.246  12.479
34197W        W99424  28.188  23.328  13.790
34198W        W99425  40.158  42.665  14.891
34199W        W99426   3.282  40.051  10.495
34200W        W99427  22.063  32.787   1.916
34201W        W99428  26.352  43.863   3.389
34202W        W99429  37.736  39.993  13.871
34203W        W99430  12.344  37.820   0.808
34204W        W99431  20.545  20.046  14.037
34205W        W99432  32.514   7.959  13.909
34206W        W99433  40.842  33.787   0.889
34207W        W99434  30.695   4.771   0.782
34208W        W99435  19.735  36.541   1.312
34209W        W99436  24.941   5.339   2.741
34210W        W99437  24.622  18.004   4.037
34211W        W99438   5.490  19.089  12.081
34212W        W99439  14.920  35.223   2.045
34213W        W99440  29.126  11.469  12.134
34214W        W99441  44.755  14.164  11.964
34215W        W99442   8.665  34.978  14.347
34216W        W99443  29.642  38.397   1.189
34217W        W99444  31.491  16.594   2.696
34218W        W99445  28.946  24.749   4.094
34219W        W99446  27.096  33.837  12.633
34220W        W99447  30.332  41.476   0.654
34221W        W99448  29.578  15.618  14.476
34222W        W99449  32.603   1.370  13.435
34223W        W99450  24.955  40.427   4.998
34224W        W99451   8.877   7.962  13.588
34225W        W99452  22.280   8.341   2.600
34226W        W99453  17.243  11.884   2.731
34227W        W99454  23.718  22.549   0.621
34228W        W99455  20.766  17.044  12.877
34229W        W99456  14.858  33.416   4.108
34230W        W99457   4.890  25.698  14.808
34231W        W99458   8.369   1.004  10.751
34232W        W99459  17.171  43.823   3.037
34233W        W99460  42.767  42.115   2.789
34234W        W99461  19.188  38.011   0.681
34235W        W99462  25.072  13.919   0.745
34236W        W99463   8.965  38.532  10.817
34237W        W99464  37.960   5.834   0.491
34238W        W99465  16.563  22.395  13.416
34239W        W99466   3.988  37.607   3.780
34240W        W99467  39.367  27.721   3.338
34241W        W99468  14.476   2.286   1.315
34242W        W99469   8.636  18.395   4.530
34243W        W99470  33.129  21.654  14.382
34244W        W99471  25.209   1.773   2.194
34245W        W99472  37.950  29.186   0.527
34246W        W99473  21.526  19.027   3.459
34247W        W99474  32.826  11.509  11.909
34248W        W99475   6.654   3.513   3.176
34249W        W99476  28.413  33.939   4.870
34250W        W99477  22.813  17.580  14.049
34251W        W99478  27.258   4.738   0.387
34252W        W99479  20.352   1.370   0.518
34253W        W99480  43.536   1.184  10.551
34254W        W99481  28.068  38.070  14.157
34255W        W99482   9.382  28.134   4.848
34256W        W99483  30.913  37.125  12.385
34257W        W99484  30.217  43.301   3.375
34258W        W99485  37.575  28.600  13.608
34259W        W99486  34.005  16.128  13.178
34260W        W99487   1.320  43.959  11.943
34261W        W99488   2.347   7.077  13.926
34262W        W99489  39.047  10.139   3.996
34263W        W99490  13.654  43.870   3.166
34264W        W99491  15.753  25.499   2.784
34265W        W99492  39.883  22.306   0.856
34266W        W99493  23.700  13.065  13.977
34267W        W99494  12.172  13.307   4.750
34268W        W99495  18.647  29.192  13.521
34269W        W99496  32.672  20.137   4.375
34270W        W99497  24.060  17.750  13.375
34271W        W99498  15.706   1.980  12.837
34272W        W99499   9.939  22.523   3.349
34273W        W99500   4.700  32.551   4.099
34274W        W99501   2.902   0.634  13.074
34275W        W99502  38.918  10.439   3.605
34276W        W99503  31.492  20.978   4.575
34277W        W99504  19.816  20.122   1.854
34278W        W99505  11.663  41.823  11.025
34279W        W99506   6.642  32.098  12.605
34280W        W99507  43.400  19.549  13.270
34281W        W99508  32.375  41.203  12.518
34282W        W99509  28.048  25.004  14.470
34283W        W99510  44.877   6.276  11.138
34284W        W99511  24.392  26.684  13.058
34285W        W99512  14.687  29.408  12.129
34286W        W99513  22.871  40.533   4.435
34287W        W99514   2.131  35.780  14.387
34288W        W99515  44.353  12.175   1.139
34289W        W99516  44.454  18.608  14.858
34290W        W99517  15.673  24.679   1.287
34291W        W99518  27.966  29.696  11.454
34292W        W99519  17.599  19.142   0.982
34293W        W99520  35.757  18.486   3.695
34294W        W99521  12.125  13.205   1.669
34295W        W99522   3.960   5.597  11.223
34296W        W99523  30.027   7.187  14.569
34297W        W99524   5.910   2.037   3.230
34298W        W99525  21.170  22.214  12.073
34299W        W99526  20.141  29.626   3.769
34300W        W99527  15.170   5.883   4.161
34301W        W99528  27.971   5.078   3.335
34302W        W99529  32.723  34.142  14.474
34303W        W99530  42.830  17.444   4.050
34304W        W99531  10.478  27.174  14.053
34305W        W99532   2.019   2.139  12.412
34306W        W99533  40.316  17.343  11.395
34307W        W99534  36.416  43.332  11.098
34308W        W99535  42.226  31.627   0.950
34309W        W99536  18.270   3.197   1.361
34310W        W99537  39.336   5.172   9.881
34311W        W99538   3.891  32.106   1.758
34312W        W99539  28.485  22.174   4.391
34313W        W99540  16.804  32.459  13.479
34314W        W99541  37.587   4.433  14.915
34315W        W99542  21.420  37.498   2.841
34316W        W99543  35.172  20.009  11.588
34317W        W99544  20.158  18.697  13.081
34318W        W99545   0.416  25.994   3.679
34319W        W99546  36.614  22.507  11.737
34320W        W99547  20.089  23.477   0.744
34321W        W99548   7.691   1.552   1.157
34322W        W99549  43.470   8.273   4.276
34323W        W99550  31.886  10.732  14.015
34324W        W99551   8.931  33.082   0.824
34325W        W99552  42.437  27.360  14.023
34326W        W99553  16.353  39.163  14.883
34327W        W99554  35.815   6.688   4.577
34328W        W99555  19.677   3.864   2.866
34329W        W99556   9.211  34.187   1.459
34330W        W99557  37.745  15.330  13.964
34331W        W99558  44.840  42.812   0.977
34332W        W99559  31.336  37.382  11.548
34333W        W99560  29.731  10.406   1.278
34334W        W99561  12.657  40.728  13.178
34335W        W99562  15.197  19.799  12.541
34336W        W99563  30.343  17.809   2.750
34337W        W99564  27.541   1.853  10.226
34338W        W99565  43.562   1.544  12.560
34339W        W99566  36.427  30.637   4.133
34340W        W99567  38.480  25.467   1.981
34341W        W99568   2.975  19.810   0.340
34342W        W99569   6.780  41.749  12.576
34343W        W99570  30.399  24.199   4.105
34344W        W99571  17.097  36.872  12.491
34345W        W99572  40.260  33.405   1.394
34346W        W99573  37.754  41.020   2.924
34347W        W99574   0.250  24.166  12.837
34348W        W99575   6.433  39.131   1.794
34349W        W99576  41.362  36.967   3.626
34350W        W99577  16.392  26.125   1.202
34351W        W99578  33.058  21.510  13.527
34352W        W99579   0.348  24.759   9.977
34353W        W99580  19.853   3.849  12.123
34354W        W99581  44.595  25.691  11.672
34355W        W99582   8.726  40.482  11.079
34356W        W99583  13.656   3.502   2.287
34357W        W99584  23.088   6.728   4.041
34358W        W99585  43.948  33.683   2.416
34359W        W99586  23.035  28.182   4.853
34360W        W99587  37.568  14.186   3.739
34361W        W99588  39.547   4.254  14.278
34362W        W99589  23.745  31.877   1.750
34363W        W99590  14.896  16.285  12.446
34364W        W99591  25.290  26.241   1.262
34365W        W99592  33.134  14.025   0.442
34366W        W99593  15.978  10.812   3.325
34367W        W99594  31.650  26.820   1.227
34368W        W99595  15.086  22.138   2.857
34369W        W99596  36.208  22.759   0.299
34370W        W99597  33.702   6.900   2.183
34371W        W99598  33.914   8.603   4.903
34372W        W99599   5.334   1.259   0.011
34373W        W99600  33.110  25.706   3.980
34374W        W99601  44.508  33.122   1.002
34375W        W99602  19.008  21.202  14.943
34376W        W99603  17.798   9.900   0.497
34377W        W99604  31.467   4.244   4.061
34378W        W99605   3.363  20.029   3.759
34379W        W99606  20.823   6.686  13.479
34380W        W99607  26.965  42.861   4.047
34381W        W99608  40.251  17.056  13.939
34382W        W99609   8.308  19.826   0.917
34383W        W99610  34.727  26.186   2.440
34384W        W99611  38.348  18.281  14.784
34385W        W99612  29.346  17.221   4.635
34386W        W99613  39.080  29.674   4.613
34387W        W99614   4.546  27.200   1.594
34388W        W99615   2.167  31.011  12.357
34389W        W99616  27.943  13.728  12.226
34390W        W99617  15.162  29.996  11.540
34391W        W99618  33.099  33.369   0.149
34392W        W99619   6.733  19.182  14.316
34393W        W99620  18.511   6.799   0.342
34394W        W99621  12.749  10.655  11.208
34395W        W99622  36.461  37.199  12.476
34396W        W99623   2.679  38.097   3.543
34397W        W99624  21.758   1.689   2.753
34398W        W99625   9.852  40.529  12.902
34399W        W99626  44.767  29.951   3.192
34400W        W99627   8.393  35.092  11.565
34401W        W99628  11.481  26.073   3.818
34402W        W99629  30.705  17.641   0.409
34403W        W99630  40.816  17.598   0.250
34404W        W99631  35.092   4.223  13.235
34405W        W99632  44.490   6.713   2.111
34406W        W99633  26.481  21.970  14.434
34407W        W99634  33.591  22.069   1.913
34408W        W99635  19.315   4.512  13.607
34409W        W99636  42.558  39.276  12.417
34410W        W99637  11.966  25.762   1.481
34411W        W99638  20.175  43.857   2.127
34412W        W99639  19.291  29.632  11.482
34413W        W99640  40.543   4.864   4.790
34414W        W99641  22.516  38.024   0.719
34415W        W99642  29.021  25.987  12.067
34416W        W99643  35.499  26.638  10.906
34417W        W99644  28.521  11.119   2.822
34418W        W99645   1.202  23.144  13.502
34419W        W99646  23.678  33.350  14.878
34420W        W99647  17.671  14.582  14.505
34421W        W99648  39.833  26.942   4.566
34422W        W99649  44.270   4.871   2.266
34423W        W99650  39.139  41.502   5.107
34424W        W99651  30.593   4.516  13.246
34425W        W99652  34.599  41.470   4.615
34426W        W99653  16.542   3.809   1.091
34427W        W99654  31.023  32.110  13.044
34428W        W99655  16.971  43.299  12.026
34429W        W99656  20.647  36.508   3.937
34430W        W99657  44.985  34.943  14.087
34431W        W99658  17.676  16.369  13.796
34432W        W99659  26.514  16.015   0.778
34433W        W99660  20.174  29.948   1.918
34434W        W99661  33.518   5.278   3.238
34435W        W99662  19.666  35.924  12.508
34436W        W99663  39.276  44.944   2.835
34437W        W99664  29.912  42.451   3.779
34438W        W99665  41.777  34.470   2.226
34439W        W99666  13.319   3.301  14.365
34440W        W99667  24.284  31.676  12.296
34441W        W99668  30.549  15.180  12.536
34442W        W99669  20.505  15.833  13.385
34443W        W99670  14.248   6.884  14.716
34444W        W99671  26.659  23.479  11.203
34445W        W99672   4.740   2.245   3.758
34446W        W99673   3.754   9.236   1.805
34447W        W99674  28.963  43.377   4.592
34448W        W99675   4.193  21.696  14.476
34449W        W99676  22.331  29.354  13.434
34450W        W99677   2.037  23.426  12.290
34451W        W99678   3.215  44.265  13.023
34452W        W99679   6.474  32.404  14.845
34453W        W99680  29.037  27.889   1.784
34454W        W99681  32.026  17.236  12.805
34455W        W99682  18.215  19.070  13.737
34456W        W99683  14.337  15.658  11.230
34457W        W99684  23.653   9.686   4.394
34458W        W99685   5.490   1.505  10.137
34459W        W99686  42.533  43.519   3.779
34460W        W99687  10.815  42.503  13.436
34461W        W99688   3.425  43.767  11.628
34462W        W99689  25.931  25.036   1.763
34463W        W99690  26.007  41.042  14.854
34464W        W99691   4.909  15.089  11.162
34465W        W99692  37.289  30.051  13.865
34466W        W99693  35.597  33.057   0.811
34467W        W99694   9.784  11.910  10.507
34468W        W99695  39.616  43.702   1.787
34469W        W99696  19.329  22.184   2.804
34470W        W99697   8.027  34.391   3.870
34471W        W99698  43.992  20.765   4.425
34472W        W99699  30.871  40.361  14.572
34473W        W99700  37.624  11.855  10.443
34474W        W99701  35.066   5.917   3.824
34475W        W99702  30.489  18.674   1.364
34476W        W99703  39.762   7.850  14.239
34477W        W99704  31.744  42.659   4.894
34478W        W99705  32.825  22.285   0.648
34479W        W99706   9.076  37.040   1.158
34480W        W99707  16.883  28.545   1.874
34481W        W99708  32.048  28.307   1.714
34482W        W99709  32.618   3.801   1.197
34483W        W99710   7.651   7.116  14.777
34484W        W99711  13.839  34.578   4.148
34485W        W99712  12.350  19.527  12.914
34486W        W99713  13.338  38.350  11.551
34487W        W99714  42.012  39.044  13.467
34488W        W99715  39.430  12.456   3.793
34489W        W99716   7.810  37.423   1.186
34490W        W99717  31.531  11.133  11.949
34491W        W99718  33.421  15.006   2.389
34492W        W99719  38.250   1.974  14.172
34493W        W99720  27.545  23.748   2.202
34494W        W99721  13.033  43.328   2.224
34495W        W99722   9.663  11.748  13.425
34496W        W99723  38.566  12.080   3.612
34497W        W99724   3.807  37.935   1.491
34498W        W99725  38.059  25.279   1.724
34499W        W99726  31.098  16.830  11.284
34500W        W99727  27.290  43.922  10.150
34501W        W99728  39.542   6.514  10.575
34502W        W99729  13.825  44.699  14.370
34503W        W99730   8.762  10.117   4.887
34504W        W99731  42.817  17.936   2.245
34505W        W99732  31.013  16.741  10.794
34506W        W99733   6.467  14.156   1.751
34507W        W99734  31.073   7.560  12.178
34508W        W99735  44.943  30.435   4.501
34509W        W99736   7.752   3.699   0.794
34510W        W99737  21.485   9.808   2.181
34511W        W99738  21.161  41.930  10.998
34512W        W99739  41.139  41.878  10.588
34513W        W99740  39.961   7.896   5.233
34514W        W99741  17.169  27.571   1.304
34515W        W99742  24.071  28.153   2.886
34516W        W99743   8.559   2.434   4.319
34517W        W99744  38.844  43.059   1.988
34518W        W99745  34.518  11.315  11.505
34519W        W99746  35.010  20.602   2.743
34520W        W99747  11.607  24.429   0.901
34521W        W99748  32.997  17.321   2.158
34522W        W99749  25.719  41.882   3.443
34523W        W99750  35.811   3.695  11.977
34524W        W99751  21.753   9.123  10.652
34525W        W99752   4.237  23.889  11.540
34526W        W99753  36.590   9.859  13.466
34527W        W99754  17.705  16.132  12.861
34528W        W99755  35.508  35.716  12.051
34529W        W99756  26.867  23.865   3.994
34530W        W99757  18.633  33.830   0.041
34531W        W99758  33.708  27.551   5.052
34532W        W99759  44.244  30.416   4.032
34533W        W99760  23.251  18.230   0.343
34534W        W99761  28.838  16.696  12.023
34535W        W99762  34.541  33.233  14.877
34536W        W99763   2.942  28.993  14.264
34537W        W99764   0.458  44.522   3.576
34538W        W99765  16.279  15.405  11.654
34539W        W99766  44.561  14.729  13.925
34540W        W99767   6.999   4.323   3.488
34541W        W99768  11.631  29.188   3.633
34542W        W99769  12.332  29.577  11.467
34543W        W99770  25.219   8.862  12.869
34544W        W99771  10.759  36.555   2.322
34545W        W99772  31.104  21.037   3.086
34546W        W99773  38.422  22.815  10.652
34547W        W99774  13.068   8.681  14.131
34548W        W99775  20.496  28.791   3.605
34549W        W99776   0.041  29.388  13.476
34550W        W99777  29.039   5.834   4.735
34551W        W99778   7.111   7.102  12.875
34552W        W99779  11.343  16.511   1.366
34553W        W99780  20.068  21.704   4.686
34554W        W99781  12.190  29.585  13.786
34555W        W99782  32.532  10.340  10.693
34556W        W99783  33.854   1.372   0.308
34557W        W99784  22.121  40.500  14.098
34558W        W99785  34.345  16.098  14.443
34559W        W99786   5.931  19.679  14.413
34560W        W99787  37.071  31.928   0.813
34561W        W99788   7.341  16.862  12.999
34562W        W99789  34.053  21.543  10.536
34563W        W99790  36.838  32.117  14.271
34564W        W99791   6.351  30.139  11.630
34565W        W99792  20.362  41.016   1.329
34566W        W99793  20.718  22.589  13.394
34567W        W99794   5.842  31.975   1.395
34568W        W99795   2.266   5.679  13.510
34569W        W99796   2.299  30.688   4.457
34570W        W99797   0.459  35.315   1.660
34571W        W99798  13.149   1.097  11.655
34572W        W99799  16.671  29.672  10.702
34573W        W99800  20.538  27.606  12.056
34574W        W99801  18.033   6.334   2.331
34575W        W99802  18.791  22.338  12.051
34576W        W99803  32.537   5.282  10.742
34577W        W99804   6.115   5.217  14.017
34578W        W99805  33.893  21.538   2.367
34579W        W99806  31.612   6.104   1.469
34580W        W99807  28.665  30.060   4.275
34581W        W99808   5.915  25.092   0.268
34582W        W99809  25.271  33.651  12.446
34583W        W99810  11.188  20.961   3.266
34584W        W99811  43.221  19.244   0.498
34585W        W99812  39.201  29.556  14.491
34586W        W99813  39.608  44.992  10.776
34587W        W99814  23.226  11.899   4.038
34588W        W99815  32.184  43.970  12.911
34589W        W99816  20.277  33.298  12.168
34590W        W99817  37.317  30.709   2.818
34591W        W99818   1.097   6.887  12.510
34592W        W99819  16.479  11.948   3.230
34593W        W99820  23.561   5.177  10.695
34594W        W99821  16.636  10.258   1.380
34595W        W99822   4.523  31.054  11.912
34596W        W99823  42.513  16.777   0.432
34597W        W99824  39.287   2.137  14.869
34598W        W99825   1.299  40.932  14.649
34599W        W99826  44.298   5.921   1.391
34600W        W99827  42.163   8.666  14.734
34601W        W99828  15.149  29.883  14.367
34602W        W99829  21.657  43.230   4.609
34603W        W99830   7.010   2.466  12.885
34604W        W99831  14.592   2.809  11.091
34605W        W99832  33.536   9.189   4.161
34606W        W99833  26.191  15.675  12.163
34607W        W99834  42.836  13.388   3.185
34608W        W99835  44.419  40.500  11.720
34609W        W99836   1.501  42.262   4.450
34610W        W99837  20.273  20.816  10.756
34611W        W99838  19.469  17.664   0.478
34612W        W99839  20.227  25.184  11.537
34613W        W99840  34.545  40.527  10.506
34614W        W99841   6.405  41.758   2.822
34615W        W99842  35.814   4.992   0.836
34616W        W99843  14.861   2.777  14.452
34617W        W99844  20.192  18.323   0.303
34618W        W99845  25.658   2.879  11.951
34619W        W99846   6.405  25.681  12.200
34620W        W99847   7.782  20.062   0.692
34621W        W99848  25.411  33.653  10.059
34622W        W99849  43.505   9.356  10.551
34623W        W99850  32.146  27.274   2.629
34624W        W99851  15.042  18.036  11.646
34625W        W99852  35.963  42.069   2.818
34626W        W99853  29.969  11.264  13.833
34627W        W99854  15.010  14.698   2.850
34628W        W99855  28.763  32.103   0.472
34629W        W99856  40.007  19.637   2.322
34630W        W99857  19.552  19.051   1.451
34631W        W99858  43.033   1.784  10.376
34632W        W99859  33.925  37.945   3.148
34633W        W99860   9.395  33.884   5.385
34634W        W99861  38.513  27.803  14.298
34635W        W99862   8.878   7.220  14.273
34636W        W99863   0.442   2.612   4.168
34637W        W99864   5.777  15.231  10.371
34638W        W99865  18.294   4.272   2.195
34639W        W99866  19.539  13.836  11.008
34640W        W99867  43.236  12.086   3.251
34641W        W99868  22.002   9.082   2.196
34642W        W99869  34.404  40.479  12.917
34643W        W99870   2.476  41.807   9.841
34644W        W99871  23.196  15.436   1.194
34645W        W99872  29.574  24.617  10.632
34646W        W99873  43.017  44.364   4.941
34647W        W99874  14.182  20.894   1.934
34648W        W99875  37.082  42.033  12.062
34649W        W99876  30.726  13.118   2.319
34650W        W99877  10.250  12.873   0.414
34651W        W99878  41.569  30.022  11.569
34652W        W99879  10.593  23.042  13.614
34653W        W99880  28.485  20.024   2.403
34654W        W99881  41.871  10.799   2.169
34655W        W99882  32.077  28.538   0.741
34656W        W99883  23.491  13.250  12.877
34657W        W99884  24.208  18.251   5.309
34658W        W99885  11.661   2.893  14.495
34659W        W99886   3.685  12.421  14.983
34660W        W99887  38.929  17.534  10.435
34661W        W99888  36.224   2.349  11.325
34662W        W99889  39.540  10.476   1.667
34663W        W99890   2.425  32.580   0.799
34664W        W99891  41.513   5.935   2.009
34665W        W99892  12.229  27.137   2.694
34666W        W99893  44.325  23.632   3.574
34667W        W99894  21.006  19.746   1.867
34668W        W99895  16.761  22.317   2.680
34669W        W99896  29.130  27.282   3.183
34670W        W99897  17.849   2.395   0.341
34671W        W99898  11.813  27.985  13.454
34672W        W99899  34.047  27.949  11.148
34673W        W99900  31.411  35.525  10.712
34674W        W99901  35.805   0.250   3.265
34675W        W99902  12.182  26.372  13.139
34676W        W99903  39.786   7.310  13.990
34677W        W99904  14.027  39.421   2.771
34678W        W99905  33.770  40.434   1.700
34679W        W99906   6.854   3.329   2.160
34680W        W99907  27.207  39.827   1.879
34681W        W99908  37.356  18.831  11.640
34682W        W99909  12.710  43.469  11.210
34683W        W99910  26.499  15.524  14.373
34684W        W99911   9.816  37.051  12.450
34685W        W99912  28.462   3.687  12.585
34686W        W99913  28.125  17.565   3.673
34687W        W99914  22.588  44.771   4.113
34688W        W99915  12.417  32.012  14.846
34689W        W99916  10.319   8.850  13.216
34690W        W99917  21.558  33.417  14.494
34691W        W99918   2.871  29.074   4.127
34692W        W99919  24.784   1.716  14.545
34693W        W99920  31.506  26.200  12.073
34694W        W99921   8.431   9.871   1.373
34695W        W99922  29.876  18.348  11.019
34696W        W99923  36.592  27.147   2.358
34697W        W99924  26.643  13.895   0.418
34698W        W99925   1.165  42.744   3.816
34699W        W99926  16.080   9.438  11.743
34700W        W99927  39.248  42.308  10.717
34701W        W99928   8.851  12.426   0.388
34702W        W99929  15.045  14.289   1.218
34703W        W99930  28.949  17.819  12.552
34704W        W99931  11.586  43.784   4.127
34705W        W99932  37.043   1.759  12.581
34706W        W99933  43.017  22.466  13.465
34707W        W99934  31.195   8.782  13.902
34708W        W99935   5.624  20.766   2.806
34709W        W99936  33.305  41.046  11.587
34710W        W99937  13.825  29.420  11.191
34711W        W99938  41.522   1.990  13.090
34712W        W99939  10.126  39.756  14.487
34713W        W99940  10.606   1.099  13.442
34714W        W99941  24.388  24.952   4.676
34715W        W99942  27.597  12.091  10.635
34716W        W99943  11.785  35.328  11.944
34717W        W99944  11.811  14.082   2.319
34718W        W99945   5.434  33.569  11.918
34719W        W99946  29.354  39.960  11.921
34720W        W99947  23.588  16.168  11.609
34721W        W99948  30.567  35.424  12.376
34722W        W99949   8.692   9.699  12.487
34723W        W99950  43.880  32.036   1.253
34724W        W99951  19.116  16.153   3.402
34725W        W99952  15.284  30.055   0.921
34726W        W99953   1.140  22.139  11.061
34727W        W99954   9.668  29.656  13.067
34728W        W99955  43.710  34.935   3.925
34729W        W99956  15.250  32.911  13.863
34730W        W99957  38.556   2.351   1.360
34731W        W99958   7.993  29.757  14.790
34732W        W99959  42.292  44.568   2.271
34733W        W99960  41.634  22.132   0.738
34734W        W99961   6.998  14.949   1.677
34735W        W99962  16.210  35.849  14.030
34736W        W99963  12.375  17.221  13.377
34737W        W99964  29.213  20.220  13.889
34738W        W99965  18.313  18.546  11.197
34739W        W99966  31.191  12.137   3.599
34740W        W99967  29.586  14.241  13.072
34741W        W99968   2.744  30.958   3.374
34742W        W99969  26.555   1.745  12.543
34743W        W99970  26.670   8.783   4.241
34744W        W99971  13.731  25.704   0.765
34745W        W99972  35.873  24.174   0.384
34746W        W99973  10.706  34.480  12.115
34747W        W99974  24.095   7.611   0.700
34748W        W99975  21.656  27.998   2.113
34749W        W99976  15.351  26.614  10.623
34750W        W99977  35.214  16.659   3.566
34751W        W99978  29.517  27.650  14.048
34752W        W99979   7.899  44.733  14.736
34753W        W99980   9.797   7.288  10.550
34754W        W99981  10.993  38.524   2.282
34755W        W99982  37.413  29.630  13.577
34756W        W99983  39.271  19.743  13.000
34757W        W99984  17.682  27.695  14.940
34758W        W99985  44.790  16.998  12.408
34759W        W99986  24.398  38.964  12.464
34760W        W99987  40.934  15.743  12.145
34761W        W99988   7.203   9.572  14.917
34762W        W99989   5.904  19.785   1.253
34763W        W99990  33.805  37.388  12.002
34764W        W99991  32.059   7.641  12.567
34765W        W99992  17.541  23.425  13.070
34766W        W99993  40.710  29.604  10.536
34767W        W99994   4.417  24.164   3.235
34768W        W99995  21.386  24.930  13.032
34769W        W99996  43.414  26.165   1.716
34770W        W99997  36.573  29.092   5.307
34771W        W99998  33.409  43.471  12.571
34772W        W99999  11.261  40.382   3.649
34773W        W    0  35.651  37.870  13.886
34774W        W    1  18.549  34.257  12.079
34775W        W    2  28.795   3.847   0.372
34776W        W    3  17.093   3.443  12.614
34777W        W    4  21.033  41.860   4.396
34778W        W    5  21.521   8.501  12.962
34779W        W    6  21.048  27.015   3.687
34780W        W    7  32.082  11.679   4.327
34781W        W    8  16.784  10.465   4.274
34782W        W    9   6.088  43.892   0.113
34783W        W   10  13.255  13.042   4.614
34784W        W   11  41.342   2.256   1.916
34785W        W   12  38.879  34.165  12.915
34786W        W   13  44.495  21.151  13.540
34787W        W   14  15.634  30.546   3.743
34788W        W   15  20.083  38.085   2.290
34789W        W   16  26.496  27.619  12.547
34790W        W   17  34.590  12.307  11.361
34791W        W   18  21.473  25.066   1.520
34792W        W   19   5.412  25.563   0.064
34793W        W   20  20.185  11.345  11.653
34794W        W   21   8.797  34.068   3.145
34795W        W   22  43.849  31.374  10.769
34796W        W   23  11.287  30.954  13.798
34797W        W   24  41.018  29.980   2.395
34798W        W   25  39.464  36.131  11.679
34799W        W   26  28.885  28.690  11.965
34800W        W   27  13.236  14.063  13.877
34801W        W   28  44.070  11.164   3.649
34802W        W   29   2.462   6.663   1.189
34803W        W   30   7.613  34.030  12.869
34804W        W   31  29.927  15.835   1.777
34805W        W   32  23.305  41.734   3.417
34806W        W   33  43.126  26.983   4.064
34807W        W   34   9.864  33.549  13.472
34808W        W   35  28.814   6.530   0.283
34809W        W   36   9.264  24.170  10.681
34810W        W   37  34.604  37.431  14.464
34811W        W   38  25.607  43.485  11.082
34812W        W   39   2.555  40.364   4.177
34813W        W   40  17.042   7.227   4.154
34814W        W   41  43.016  14.913  13.050
34815W        W   42  29.902  36.423   4.614
34816W        W   43  21.736  39.951   1.486
34817W        W   44  41.617  13.067  14.518
34818W        W   45  21.022  43.895   2.117
34819W        W   46  21.727  32.369   2.775
34820W        W   47   1.810   2.458   1.273
34821W        W   48  27.425  12.201  13.455
34822W        W   49  15.863  30.590  11.030
34823W        W   50  30.047  39.409   2.680
34824W        W   51  35.103   2.870   1.284
34825W        W   52  38.010  16.611  12.136
34826W        W   53  27.897  37.306   2.883
34827W        W   54  10.712   7.147  11.655
34828W        W   55  15.589  42.406  13.316
34829W        W   56  20.929  30.283  12.036
34830W        W   57  22.716  29.009  12.139
34831W        W   58  44.411  32.152  10.664
34832W        W   59  44.075  14.798  13.038
34833W        W   60  17.334  41.742   4.061
34834W        W   61  18.440  22.652   3.177
34835W        W   62  19.128  24.456   3.937
34836W        W   63  15.111   0.231  14.038
34837W        W   64   7.234  15.289   0.252
34838W        W   65  35.433  25.024   1.811
34839W        W   66   8.759   0.873  13.293
34840W        W   67  13.424  42.572  13.408
34841W        W   68  17.709  39.288   0.018
34842W        W   69   6.979   2.904  11.983
34843W        W   70  26.254   5.161   2.740
34844W        W   71  23.883  37.973   1.908
34845W        W   72  17.117  30.364   3.401
34846W        W   73   3.492  10.201   2.429
34847W        W   74  13.875  25.451   4.449
34848W        W   75  34.864  33.578  13.275
34849W        W   76  22.644  11.092  10.971
34850W        W   77  21.786  32.091  12.093
34851W        W   78  10.302  40.682  11.217
34852W        W   79  19.722  28.808  11.442
34853W        W   80  10.219   2.834  11.476
34854W        W   81  12.668   4.470  11.026
34855W        W   82  24.045  16.681   2.960
34856W        W   83  19.105  17.770   0.124
34857W        W   84   2.908  30.722   2.200
34858W        W   85   1.380  27.366   2.304
34859W        W   86  39.465   4.231  14.775
34860W        W   87   6.401  38.608   1.794
34861W        W   88  14.519  17.795   0.459
34862W        W   89  39.402  25.465  13.051
34863W        W   90  17.386  35.440   3.101
34864W        W   91  12.099  19.486  10.679
34865W        W   92  22.571  27.669  12.497
34866W        W   93  33.169  28.391  11.177
34867W        W   94  26.940   4.239  10.276
34868W        W   95  20.268  17.313   4.225
34869W        W   96  26.712  41.773   2.380
34870W        W   97  32.314  18.544  14.825
34871W        W   98  43.280   2.417  12.345
34872W        W   99  33.884  19.446   2.398
34873W        W  100  25.609  30.187   0.821
34874W        W  101  19.638  12.969  12.986
34875W        W  102   6.898   4.794   3.677
34876W        W  103   5.667  41.765  13.980
34877W        W  104   1.458   6.135   0.904
34878W        W  105   2.734  40.071   3.748
34879W        W  106  31.827  34.957   4.545
34880W        W  107  10.889  44.541  12.556
34881W        W  108  18.641  37.535  14.830
34882W        W  109  25.637  34.230  10.668
34883W        W  110  27.718  36.482   1.232
34884W        W  111  18.311  25.372   4.094
34885W        W  112  28.315  32.530  13.275
34886W        W  113  34.686  36.693  11.831
34887W        W  114  31.105   3.796  11.246
34888W        W  115  44.266  35.527  14.790
34889W        W  116   1.429  12.279  13.505
34890W        W  117   3.220  44.829   1.880
34891W        W  118  35.035  26.305  12.603
34892W        W  119   5.382  42.100   2.407
34893W        W  120   4.346  37.595   1.234
34894W        W  121  37.334  26.630   3.197
34895W        W  122  13.677  42.518   0.788
34896W        W  123  17.315  13.366   0.510
34897W        W  124  27.933  18.684   0.952
34898W        W  125   7.217  36.566  13.545
34899W        W  126  33.663   2.363  12.979
34900W        W  127  32.979  28.883  14.262
34901W        W  128  44.008  40.204   0.352
34902W        W  129  19.279  17.661   0.953
34903W        W  130   5.711  32.166  12.530
34904W        W  131  41.300  33.002   1.014
34905W        W  132  35.117  13.607   3.302
34906W        W  133  19.804  21.394  14.912
34907W        W  134   1.226   1.537   4.392
34908W        W  135  34.607  36.369   3.206
34909W        W  136  15.346  26.114  11.619
34910W        W  137  40.805  18.761   3.360
34911W        W  138  43.433  17.523   4.519
34912W        W  139   4.821  37.231  13.105
34913W        W  140  39.661   7.726   0.397
34914W        W  141  22.212  13.088  10.744
34915W        W  142   1.860  35.344   0.076
34916W        W  143  37.543  21.424  14.855
34917W        W  144  28.862  29.922  13.486
34918W        W  145   9.181  12.194  11.398
34919W        W  146  27.759  19.125  14.444
34920W        W  147  39.468   8.650   5.118
34921W        W  148  22.663   7.318  13.558
34922W        W  149  15.714  40.042  11.666
34923W        W  150  42.010  38.936   0.443
34924W        W  151  44.472   1.372   1.552
34925W        W  152  32.384  24.712   0.353
34926W        W  153  43.471  18.293  11.539
34927W        W  154   6.722  31.968   3.712
34928W        W  155  28.983  22.480   3.155
34929W        W  156  19.625  40.830   4.592
34930W        W  157  42.254  21.100   2.711
34931W        W  158   2.786  18.719   0.323
34932W        W  159  32.951  26.564  14.768
34933W        W  160   1.432   1.985  14.046
34934W        W  161  11.417   1.425  12.726
34935W        W  162  25.682  17.286  14.829
34936W        W  163  18.358  21.119   2.741
34937W        W  164  39.514  23.284  11.477
34938W        W  165  29.433  10.935  12.720
34939W        W  166  19.184  13.621   1.558
34940W        W  167   0.057  37.266   0.039
34941W        W  168  23.212  38.101  13.940
34942W        W  169   2.164  10.244  14.049
34943W        W  170  14.055   1.476   0.816
34944W        W  171  10.379  35.712  14.723
34945W        W  172  17.431  41.414  10.374
34946W        W  173  10.648  36.578  14.720
34947W        W  174  25.723  15.021   0.420
34948W        W  175   5.838   0.282   4.574
34949W        W  176  19.019  21.759   2.878
34950W        W  177  34.009  38.828  10.996
34951W        W  178  20.304  17.507   0.725
34952W        W  179  12.148   8.655   4.818
34953W        W  180   8.043  44.275  14.983
34954W        W  181   6.162  11.903   2.304
34955W        W  182  10.936  37.618  13.441
34956W        W  183  19.972  24.462   4.455
34957W        W  184  21.965  13.191   4.221
34958W        W  185   5.481  18.205   1.468
34959W        W  186  41.318  15.343   2.707
34960W        W  187  41.838  22.208  13.090
34961W        W  188   4.382  26.986  13.461
34962W        W  189  15.153  20.420  11.476
34963W        W  190  36.601  18.669   4.253
34964W        W  191  23.948  32.081  12.218
34965W        W  192  18.464  28.989  13.084
34966W        W  193  43.557  30.648  11.917
34967W        W  194  41.743  25.155  12.056
34968W        W  195   4.692  33.652   1.941
34969W        W  196   4.445  14.153  13.007
34970W        W  197  21.332  36.481   2.283
34971W        W  198  38.922  24.759  12.947
34972W        W  199   4.917  30.451   9.771
34973W        W  200  11.559  36.047   0.804
34974W        W  201  17.126  35.939  13.054
34975W        W  202  16.495  16.234  14.428
34976W        W  203  25.255   5.287  11.640
34977W        W  204  16.814  14.327   5.042
34978W        W  205  23.893  40.281  13.908
34979W        W  206  21.133  37.920  14.943
34980W        W  207  41.112   3.383  14.702
34981W        W  208  39.247  30.643   4.336
34982W        W  209  38.862  28.083   3.797
34983W        W  210  23.938   8.632  13.314
34984W        W  211  43.990  15.645  13.237
34985W        W  212  28.452  12.732  11.554
34986W        W  213   1.417  33.128   2.838
34987W        W  214  35.064   5.664   1.437
34988W        W  215  28.435   2.424  13.434
34989W        W  216  16.502  28.916   3.690
34990W        W  217  34.305  42.263   4.263
34991W        W  218  30.361  29.425  11.018
34992W        W  219  43.540  19.035  12.036
34993W        W  220  39.424  13.077   0.108
34994W        W  221  12.957  30.971  13.698
34995W        W  222  40.995  15.771  11.053
34996W        W  223  29.395  21.300   0.261
34997W        W  224  39.839  38.521   3.329
34998W        W  225  32.463  37.782  13.471
34999W        W  226  37.445  26.312  14.840
35000W        W  227  21.687  13.574   3.304
35001W        W  228   5.722   1.416   3.235
35002W        W  229  28.131  23.628  10.361
35003W        W  230  26.926  44.423   4.532
35004W        W  231  30.925   2.207  14.440
35005W        W  232  40.349  20.284   1.385
35006W        W  233  12.197   2.899  14.679
35007W        W  234  27.689   2.297  12.841
35008W        W  235   9.149   7.653   0.337
35009W        W  236  30.058  32.059   1.056
35010W        W  237   5.285  11.801  14.504
35011W        W  238  28.611  24.455   0.903
35012W        W  239  10.118  29.090   2.372
35013W        W  240  30.089   7.841   2.997
35014W        W  241  12.050   3.253   1.329
35015W        W  242  21.664  23.800   0.613
35016W        W  243  14.164  24.170   3.604
35017W        W  244  38.067  14.966   0.367
35018W        W  245   0.279  11.978   1.341
35019W        W  246  29.240  41.009  14.900
35020W        W  247  29.713  10.709   1.707
35021W        W  248  27.207  10.730  14.476
35022W        W  249  36.608  15.720   2.827
35023W        W  250   4.054   9.442  14.351
35024W        W  251  30.080  32.884  12.023
35025W        W  252   5.169  21.531   4.082
35026W        W  253  44.395   1.409  11.458
35027W        W  254  22.514  33.525  12.975
35028W        W  255  29.204  34.579  10.252
35029W        W  256  23.513  43.018  10.476
35030W        W  257   0.723  44.105  12.849
35031W        W  258  16.799  15.837   4.259
35032W        W  259  18.019  14.943  14.495
35033W        W  260  21.882  21.854  11.659
35034W        W  261  12.096   1.786  14.908
35035W        W  262  30.311   7.295   3.850
35036W        W  263  12.741  30.690   1.786
35037W        W  264  22.094  43.836   1.172
35038W        W  265  21.637  23.055  10.754
35039W        W  266  34.910  22.244   4.771
35040W        W  267  10.089  33.817   1.644
35041W        W  268  27.243  33.982   2.328
35042W        W  269  29.047   0.130   2.780
35043W        W  270  14.785  29.412  14.961
35044W        W  271  34.233  35.335  14.750
35045W        W  272  25.569  29.491   4.777
35046W        W  273  26.261   7.422   2.786
35047W        W  274  23.054   0.730  14.364
35048W        W  275  20.103  34.740  11.317
35049W        W  276  21.330  29.827   4.277
35050W        W  277   8.771  10.399   2.679
35051W        W  278   3.619   5.376  12.127
35052W        W  279  22.719   4.510   1.539
35053W        W  280  17.549  29.611   3.738
35054W        W  281  24.488  13.466   4.800
35055W        W  282   5.414   7.769  14.909
35056W        W  283  23.722  26.066   2.599
35057W        W  284  42.933  44.032   1.858
35058W        W  285  20.554  40.441  12.098
35059W        W  286  14.704  35.122   4.204
35060W        W  287  43.848  39.072   1.267
35061W        W  288  35.567  42.184  12.928
35062W        W  289  41.814  32.825   3.754
35063W        W  290  26.462  15.246   3.279
35064W        W  291  25.323  23.844   3.677
35065W        W  292  10.297  20.406  13.268
35066W        W  293  43.305   2.991   0.559
35067W        W  294  33.229   0.759  10.684
35068W        W  295  35.226  40.490   0.656
35069W        W  296  36.963  38.352   2.029
35070W        W  297  24.232  39.393   0.774
35071W        W  298  22.909  25.733   2.015
35072W        W  299  44.365  17.997   2.740
35073W        W  300  32.008  31.636   3.713
35074W        W  301  38.139  12.807  10.822
35075W        W  302   3.286  38.494   1.544
35076W        W  303  37.522   1.981   3.845
35077W        W  304   0.210  17.272   3.279
35078W        W  305   8.472  14.111  13.072
35079W        W  306   6.800  15.261   1.319
35080W        W  307   1.493  34.983  11.147
35081W        W  308   9.669  33.809   0.787
35082W        W  309  31.723  25.444  11.663
35083W        W  310  24.911   7.947   2.265
35084W        W  311  35.962  35.463  11.112
35085W        W  312  15.298   8.249   4.088
35086W        W  313  33.590   3.421   3.315
35087W        W  314  27.814  27.178  10.984
35088W        W  315   7.277  18.993  11.017
35089W        W  316   2.136  24.788   0.957
35090W        W  317  27.239  26.753  10.538
35091W        W  318   7.122   9.168  14.039
35092W        W  319  15.078  30.567   1.227
35093W        W  320   7.074  35.232   4.122
35094W        W  321  12.425  28.979  13.007
35095W        W  322  14.834  10.886  12.490
35096W        W  323  44.900   5.665  13.295
35097W        W  324  41.893  15.097  13.937
35098W        W  325   5.122  33.594  11.517
35099W        W  326  41.550  39.833   0.120
35100W        W  327  41.135   4.459  11.159
35101W        W  328  11.602  34.596  13.008
35102W        W  329  39.193   7.232   0.894
35103W        W  330  10.766  23.469   3.136
35104W        W  331  31.125   3.656  14.422
35105W        W  332  34.064  23.895   0.905
35106W        W  333  19.266  10.389  13.453
35107W        W  334  13.626  29.101   1.246
35108W        W  335  11.094  12.630  10.380
35109W        W  336   6.414  41.410  13.441
35110W        W  337  13.322   6.796   3.433
35111W        W  338  44.791  25.671   4.200
35112W        W  339   5.851  13.239   0.056
35113W        W  340   2.279  25.173  10.719
35114W        W  341  16.289  41.908   2.567
35115W        W  342  31.921  43.708  12.542
35116W        W  343  27.293  15.321  10.304
35117W        W  344  16.894   7.180   2.550
35118W        W  345  21.274  19.648  14.509
35119W        W  346  10.357  21.806   3.314
35120W        W  347  18.132  29.499   4.534
35121W        W  348   4.430  19.053  13.411
35122W        W  349  19.787  33.712   1.983
35123W        W  350  10.764   4.095  14.551
35124W        W  351  20.304   2.226   4.858
35125W        W  352  37.567   3.152  10.756
35126W        W  353  29.159  16.841  14.054
35127W        W  354  23.273  34.147   0.074
35128W        W  355   2.887   4.433   4.128
35129W        W  356  17.037  28.172   0.381
35130W        W  357  43.989  33.197   0.738
35131W        W  358  29.969   1.296  13.107
35132W        W  359   0.415  33.860   1.038
35133W        W  360  28.643  15.283  14.008
35134W        W  361   6.284   9.733  11.116
35135W        W  362   9.065  30.589   4.092
35136W        W  363   6.303  39.212   0.516
35137W        W  364  30.245   7.759   2.118
35138W        W  365   2.270   9.662  11.551
35139W        W  366  31.919   0.389  12.929
35140W        W  367  17.702  33.367  13.725
35141W        W  368  40.640  41.335   4.508
35142W        W  369  23.675  17.726  12.436
35143W        W  370  13.297  43.274  12.394
35144W        W  371  22.708  40.675  12.580
35145W        W  372   0.411  40.693   1.459
35146W        W  373  28.691   4.399   2.421
35147W        W  374  36.590   1.009  12.487
35148W        W  375   5.920   6.862   0.775
35149W        W  376  38.315  25.739   1.588
35150W        W  377   3.542  15.907  11.095
35151W        W  378  18.765   4.370   3.124
35152W        W  379  38.995  33.848   3.552
35153W        W  380  10.692   5.858   2.789
35154W        W  381  30.386  23.205  13.109
35155W        W  382  38.260  30.942   0.674
35156W        W  383  22.495  33.515   3.665
35157W        W  384  19.070  13.493   3.403
35158W        W  385  23.712  38.560   1.017
35159W        W  386  31.010  32.076   4.021
35160W        W  387  39.342  23.497   1.021
35161W        W  388  43.859  18.532  10.305
35162W        W  389   2.097  11.823   2.754
35163W        W  390  29.438  36.391  13.691
35164W        W  391  24.934  26.207   3.164
35165W        W  392  11.175  34.058  13.762
35166W        W  393  41.611  20.819  13.911
35167W        W  394  21.513   3.009   3.089
35168W        W  395  18.484  28.682   3.871
35169W        W  396  38.863  22.220  12.468
35170W        W  397  12.176   6.723  12.970
35171W        W  398  31.377  37.988  12.937
35172W        W  399   1.803  18.505   0.757
35173W        W  400   3.197   3.222  14.499
35174W        W  401  23.736  15.929   3.447
35175W        W  402   6.637  19.809   2.345
35176W        W  403   3.961  43.467   2.700
35177W        W  404   5.682  16.631   2.801
35178W        W  405  19.575   2.693   2.729
35179W        W  406  22.652  17.929   4.076
35180W        W  407  18.029   2.260   0.819
35181W        W  408  12.298  24.993   1.355
35182W        W  409  33.106  39.454  13.318
35183W        W  410  31.124   8.276   0.462
35184W        W  411  42.302   1.997  13.437
35185W        W  412  34.231  32.052   4.046
35186W        W  413  22.489  22.413  12.074
35187W        W  414  21.080  44.332  11.716
35188W        W  415   9.117  22.135  11.558
35189W        W  416  31.783  31.812  11.004
35190W        W  417  33.924  32.363   2.147
35191W        W  418  38.264  19.461   0.147
35192W        W  419  17.870   9.776  12.551
35193W        W  420  38.854  41.869   3.708
35194W        W  421  41.452   3.793   4.285
35195W        W  422   2.252  11.930  14.327
35196W        W  423  13.702  20.398  13.409
35197W        W  424  26.892   5.239   4.058
35198W        W  425   4.802  34.189   1.964
35199W        W  426  37.285  24.681  11.256
35200W        W  427   6.024  12.883   2.412
35201W        W  428  15.629  28.530   1.259
35202W        W  429  42.706  32.090  14.358
35203W        W  430  41.625  27.451   0.955
35204W        W  431  31.578  10.656  12.126
35205W        W  432   8.896  12.317   3.238
35206W        W  433  44.301  27.781   3.157
35207W        W  434  44.920  38.918   1.839
35208W        W  435  23.053  38.212   3.125
35209W        W  436  36.070  42.073  12.980
35210W        W  437  12.565  33.915   1.759
35211W        W  438   9.961   7.600   3.585
35212W        W  439   8.884   0.162   0.443
35213W        W  440  33.597  39.063  13.965
35214W        W  441  20.100  13.557  13.610
35215W        W  442   2.637  23.172  14.779
35216W        W  443  20.871  35.014  11.057
35217W        W  444  15.770  37.754   4.645
35218W        W  445   8.402   3.860  14.304
35219W        W  446  18.056  26.344  13.389
35220W        W  447  29.582   9.783   0.402
35221W        W  448  13.718  14.599   4.784
35222W        W  449  12.583  26.934   4.388
35223W        W  450  38.688  43.199   3.724
35224W        W  451  25.325  36.598   2.366
35225W        W  452  13.155  10.668  13.019
35226W        W  453  38.367   0.596  10.779
35227W        W  454  42.303  27.004   3.649
35228W        W  455  38.284  20.642   3.240
35229W        W  456  23.570  11.666  14.238
35230W        W  457  41.183   5.495  11.168
35231W        W  458  13.687  22.693  14.172
35232W        W  459  25.158  12.917   0.719
35233W        W  460   8.878  17.672   4.163
35234W        W  461   7.520  29.138   3.273
35235W        W  462   5.756   8.669  12.456
35236W        W  463   8.910  21.452   1.773
35237W        W  464  42.279   2.123   4.684
35238W        W  465   8.915  20.704   0.417
35239W        W  466  28.876  11.316   1.830
35240W        W  467   0.930  40.627  14.858
35241W        W  468  17.160  11.094   2.136
35242W        W  469  15.769  10.834  10.700
35243W        W  470  24.139  44.373  10.977
35244W        W  471  32.959  30.392  14.282
35245W        W  472  28.054  11.932  13.006
35246W        W  473  25.127  21.225   2.825
35247W        W  474  13.202  40.829  12.414
35248W        W  475  24.287  23.203  12.861
35249W        W  476  21.214  38.462   3.167
35250W        W  477  11.871  42.010   0.016
35251W        W  478  34.441  41.625   2.292
35252W        W  479   2.388   9.876   4.661
35253W        W  480   4.469   1.469  13.597
35254W        W  481  23.742   7.373  11.944
35255W        W  482  23.562  28.673  10.626
35256W        W  483  28.683  20.502   4.141
35257W        W  484  38.571  26.492  14.143
35258W        W  485  25.575   2.414  12.134
35259W        W  486  39.052  34.463   3.411
35260W        W  487  32.534   3.520   4.427
35261W        W  488  22.643  41.424   4.699
35262W        W  489  18.323  28.720   1.015
35263W        W  490  33.073   1.812   2.202
35264W        W  491  31.435  10.250   2.988
35265W        W  492  18.322   2.167   3.106
35266W        W  493  34.553  16.213  10.495
35267W        W  494  44.815  20.495   0.085
35268W        W  495   3.577   2.900   4.703
35269W        W  496  32.846  11.163   0.952
35270W        W  497   3.442   1.020  10.943
35271W        W  498   7.322  28.143  13.932
35272W        W  499  38.844  29.134   1.431
35273W        W  500   0.433   8.689  11.563
35274W        W  501  21.691  28.115   2.625
35275W        W  502   2.821  19.510   0.765
35276W        W  503   6.148  11.327  14.765
35277W        W  504   0.806   4.500   4.559
35278W        W  505  24.690  15.647   3.374
35279W        W  506  10.681  37.404   4.659
35280W        W  507  36.629  17.701   4.215
35281W        W  508  38.333  30.859  13.831
35282W        W  509  13.158  39.367  13.312
35283W        W  510  11.880  35.539   3.980
35284W        W  511  27.541  40.330   3.562
35285W        W  512  19.173  37.498  11.953
35286W        W  513  33.041   1.422  12.909
35287W        W  514  43.240  10.173  14.761
35288W        W  515  30.107  25.570  11.237
35289W        W  516  38.359  14.280  10.853
35290W        W  517   6.718  24.520  13.433
35291W        W  518  42.773   2.749   2.958
35292W        W  519  24.043  40.062  14.724
35293W        W  520  21.395  25.729  12.012
35294W        W  521  25.788   4.258   4.049
35295W        W  522  31.308  16.389   1.929
35296W        W  523  11.757  10.767  14.354
35297W        W  524  34.631  18.110  12.548
35298W        W  525  15.987  35.993  10.780
35299W        W  526  21.119  12.676  11.181
35300W        W  527   6.818  23.184   0.980
35301W        W  528  27.089  32.846  11.755
35302W        W  529  42.807  44.471  10.479
35303W        W  530   3.589  34.935   2.193
35304W        W  531  14.161  36.351   0.195
35305W        W  532  41.909  34.191   1.308
35306W        W  533   0.801  40.117  14.884
35307W        W  534   8.182  13.804  14.854
35308W        W  535  36.165  16.520  12.920
35309W        W  536  25.248  14.692  13.961
35310W        W  537  24.651   5.394   0.922
35311W        W  538  15.395  30.293   1.952
35312W        W  539   1.015  27.496  13.577
35313W        W  540  20.073   4.729  14.938
35314W        W  541  15.159  12.678   1.746
35315W        W  542   4.233  33.130  14.415
35316W        W  543  27.016   0.276  12.896
35317W        W  544  25.636  43.298   1.241
35318W        W  545  14.716  11.239   4.527
35319W        W  546  32.451   5.205  11.756
35320W        W  547  30.322  43.028  11.199
35321W        W  548   4.407  44.288   2.583
35322W        W  549  38.003  15.477   0.395
35323W        W  550  26.443  17.564   0.317
35324W        W  551  44.066  19.008  11.560
35325W        W  552  43.024  43.308  12.260
35326W        W  553  10.984   9.209  11.663
35327W        W  554  30.615  30.163   5.125
35328W        W  555  32.883  20.065  11.268
35329W        W  556  31.681  23.714   2.147
35330W        W  557  10.397   1.971  14.414
35331W        W  558   4.353  17.508  12.817
35332W        W  559  29.415  29.072  13.072
35333W        W  560  15.291  22.252  14.776
35334W        W  561  21.297  14.761  11.225
35335W        W  562  21.444  24.224  13.465
35336W        W  563  10.136   7.286  13.460
35337W        W  564   2.964  34.030  10.720
35338W        W  565  19.577  36.738  13.559
35339W        W  566  25.592  18.616   1.429
35340W        W  567  23.787  14.100   0.356
35341W        W  568  20.894  34.569   4.032
35342W        W  569  10.038  14.508   3.689
35343W        W  570  31.506  14.740  12.613
35344W        W  571   0.322  38.937   1.413
35345W        W  572  10.557  24.198   0.128
35346W        W  573  21.271   4.527   2.206
35347W        W  574  30.078  17.586  10.710
35348W        W  575  31.507  35.298   9.841
35349W        W  576  27.347   8.102   2.238
35350W        W  577   6.411  37.947  12.094
35351W        W  578  40.799  31.893   0.255
35352W        W  579  43.566  28.133   0.250
35353W        W  580  22.594  32.722  14.436
35354W        W  581  15.691  35.507  13.407
35355W        W  582  26.103   8.024  13.827
35356W        W  583   2.671   0.614   0.396
35357W        W  584  39.012  21.779   3.709
35358W        W  585   5.298  29.520  14.991
35359W        W  586  29.870   1.303   2.833
35360W        W  587  12.624  12.072   1.247
35361W        W  588  15.548  13.614   1.484
35362W        W  589  23.010  17.631   3.252
35363W        W  590  14.954   1.326   3.296
35364W        W  591  30.654   7.906   0.274
35365W        W  592  44.455   2.230  13.840
35366W        W  593  40.958   1.206   0.034
35367W        W  594  31.671  25.712  12.437
35368W        W  595  37.525  27.003  13.416
35369W        W  596  35.284  11.480   0.365
35370W        W  597   7.352  26.452   4.662
35371W        W  598   5.797   2.923   4.433
35372W        W  599   4.983  16.228  13.043
35373W        W  600  43.021  30.706   2.134
35374W        W  601  31.175  10.354   0.380
35375W        W  602  32.080  38.630  14.863
35376W        W  603  42.499  21.380  13.081
35377W        W  604   2.528  41.594  12.626
35378W        W  605  37.524  42.174   4.132
35379W        W  606  40.959   4.626   2.378
35380W        W  607  13.630  19.056   2.140
35381W        W  608  28.753  19.015   4.540
35382W        W  609  39.042  32.502  13.512
35383W        W  610  19.069  28.455  11.757
35384W        W  611  40.553  11.130  14.894
35385W        W  612   8.276  31.381   2.898
35386W        W  613   3.712   3.746   3.091
35387W        W  614  16.055   8.728  13.477
35388W        W  615  16.876   8.234  13.385
35389W        W  616  41.733  14.345  13.497
35390W        W  617  16.336  14.896  11.593
35391W        W  618   8.189  32.582  14.404
35392W        W  619  34.112  32.056  12.546
35393W        W  620  31.945   5.794   2.012
35394W        W  621  31.138  42.636  14.794
35395W        W  622   5.983  17.308  13.510
35396W        W  623  39.782  22.216  12.503
35397W        W  624  23.705  34.477   0.818
35398W        W  625  28.181   8.778   3.302
35399W        W  626   4.741   6.459   4.213
35400W        W  627   1.045  42.701  12.044
35401W        W  628  42.397   7.402   4.373
35402W        W  629   6.149  26.916  10.178
35403W        W  630  11.220   4.660   4.101
35404W        W  631  19.800   8.026  14.039
35405W        W  632  44.464  38.966  14.350
35406W        W  633  34.488  21.169  14.076
35407W        W  634   7.817  38.771  13.349
35408W        W  635  36.444  31.569  11.528
35409W        W  636  17.319  37.197  10.282
35410W        W  637  31.733   7.235  10.748
35411W        W  638   7.231  12.079  12.912
35412W        W  639  28.411  31.890  14.976
35413W        W  640  38.629  13.416  10.897
35414W        W  641  17.361   7.356   4.550
35415W        W  642   9.351  18.013  14.001
35416W        W  643  33.056  39.721   3.892
35417W        W  644  11.904  24.651   1.286
35418W        W  645   9.809   7.618   3.077
35419W        W  646  25.511  12.930   3.082
35420W        W  647  22.964  11.263   0.940
35421W        W  648  21.005  15.158  12.003
35422W        W  649  12.799   8.409   4.640
35423W        W  650   6.855  12.315   1.899
35424W        W  651  26.797  39.067   3.177
35425W        W  652  26.449  44.846  12.659
35426W        W  653  21.004  24.123  11.523
35427W        W  654  35.177  37.771  11.573
35428W        W  655  28.171  34.428  14.331
35429W        W  656   6.774  30.902  11.104
35430W        W  657   7.224  19.742   3.310
35431W        W  658  35.594  36.569   0.527
35432W        W  659   3.998  30.883  11.625
35433W        W  660   8.179  18.631   4.593
35434W        W  661  35.898  26.764  11.201
35435W        W  662  21.878   5.355   0.360
35436W        W  663  33.825  27.441   0.862
35437W        W  664   7.881  19.190  12.994
35438W        W  665   0.950  14.293   0.408
35439W        W  666  21.876  11.725   0.758
35440W        W  667  14.623  11.262   1.974
35441W        W  668   7.838   1.993   3.340
35442W        W  669   7.199  33.710  14.558
35443W        W  670  14.707   1.949   3.631
35444W        W  671  33.506   2.582   0.221
35445W        W  672  25.478  39.784   2.351
35446W        W  673  28.181  37.162   4.164
35447W        W  674  35.793  33.475  13.687
35448W        W  675  11.423  32.960  13.104
35449W        W  676  43.805   2.258   0.767
35450W        W  677  25.396  26.003  14.241
35451W        W  678  39.568  40.515   0.295
35452W        W  679  36.137  39.061   3.811
35453W        W  680  12.263   3.730  13.371
35454W        W  681  17.309  37.014  14.470
35455W        W  682  44.075  34.616  12.040
35456W        W  683  42.725  24.798   0.303
35457W        W  684   2.896  35.580   3.666
35458W        W  685  43.847  19.203  13.344
35459W        W  686  27.692  37.716   3.304
35460W        W  687   5.882  39.500   4.014
35461W        W  688   1.943  41.097   1.727
35462W        W  689   4.919  39.377   2.286
35463W        W  690  32.826  10.575  12.542
35464W        W  691  31.970  30.910  14.876
35465W        W  692  26.231  35.549   4.755
35466W        W  693  31.520  37.361  12.036
35467W        W  694   6.722   0.251   5.618
35468W        W  695   9.907   0.043   3.435
35469W        W  696  26.487  20.517   3.274
35470W        W  697  44.928   6.224  14.109
35471W        W  698  12.075  44.497  13.146
35472W        W  699  33.240  27.957   4.071
35473W        W  700   0.539  16.968  11.638
35474W        W  701  26.638   8.389  13.864
35475W        W  702  32.629  17.209  14.425
35476W        W  703  23.065  43.005   2.277
35477W        W  704  32.657  19.694   4.669
35478W        W  705  28.734   8.927   0.129
35479W        W  706   5.499   7.467  13.477
35480W        W  707  35.648  34.926   0.014
35481W        W  708  34.344  43.542   2.309
35482W        W  709  36.505  35.093  13.912
35483W        W  710  33.598  12.097  11.697
35484W        W  711  22.796  28.571   4.042
35485W        W  712  12.176  19.028  10.395
35486W        W  713   4.755  17.174  14.673
35487W        W  714  10.119  32.581  12.139
35488W        W  715  11.369  35.281  13.091
35489W        W  716  18.144  37.416  13.038
35490W        W  717  36.137  23.562  13.724
35491W        W  718  21.285  18.988   1.509
35492W        W  719  23.514  43.447   4.068
35493W        W  720  44.589  43.408  12.623
35494W        W  721   6.701  14.001   0.017
35495W        W  722  21.714  20.046  13.417
35496W        W  723  41.276  20.755   2.908
35497W        W  724   5.388  17.742   4.074
35498W        W  725  15.952  39.121   3.679
35499W        W  726   0.231   3.238  13.470
35500W        W  727  42.911  20.648   1.573
35501W        W  728  44.804  41.124   4.630
35502W        W  729  33.400  19.578   1.372
35503W        W  730   7.175  37.568  14.870
35504W        W  731  23.742   2.645  13.545
35505W        W  732   2.566  31.503   1.752
35506W        W  733   7.707  28.532  13.861
35507W        W  734   0.992   6.643  10.708
35508W        W  735  36.864  40.697  13.565
35509W        W  736  32.446   9.715  12.177
35510W        W  737  35.320  37.384   0.855
35511W        W  738  18.634  30.604  14.260
35512W        W  739  12.384  17.318   2.689
35513W        W  740  29.638  32.484   0.803
35514W        W  741  44.530  15.013   0.317
35515W        W  742  38.595  12.080   1.630
35516W        W  743  38.327  35.385  12.554
35517W        W  744  25.779  30.780  10.400
35518W        W  745   1.267  30.460  11.992
35519W        W  746  37.631  32.604   0.447
35520W        W  747   3.372   6.677   2.331
35521W        W  748   5.717  20.113   3.262
35522W        W  749   9.839  42.441   4.065
35523W        W  750   3.903  16.585   0.100
35524W        W  751  17.875  31.561   0.955
35525W        W  752  44.296  36.026   3.228
35526W        W  753  37.947  39.499  10.701
35527W        W  754  12.914  12.205  11.609
35528W        W  755  12.234  31.445  10.662
35529W        W  756  12.598   6.351   1.773
35530W        W  757   6.224  42.460  13.625
35531W        W  758  29.637  23.572  13.789
35532W        W  759  28.193   8.108   0.745
35533W        W  760   4.685   2.013   1.124
35534W        W  761  15.596  18.391  14.556
35535W        W  762   6.269   4.790   4.504
35536W        W  763  17.050   9.029   1.510
35537W        W  764   8.351   9.437  14.442
35538W        W  765  24.397  33.550   3.289
35539W        W  766  39.439  19.677  12.506
35540W        W  767  37.577  37.441   2.795
35541W        W  768  27.742  44.107   4.072
35542W        W  769  35.528  28.033  12.171
35543W        W  770   3.892  15.888   3.890
35544W        W  771  20.604  31.949   1.796
35545W        W  772  13.716  43.592   0.370
35546W        W  773  37.411  42.214  10.852
35547W        W  774  28.186  24.535  14.979
35548W        W  775  11.248  18.317  14.435
35549W        W  776  11.788  10.775   4.009
35550W        W  777  43.721  38.242   1.830
35551W        W  778  26.539  10.201   1.418
35552W        W  779  20.594  22.097  13.590
35553W        W  780   3.877  33.982  10.922
35554W        W  781  31.792   9.791   0.918
35555W        W  782  35.579   5.323   9.767
35556W        W  783   4.246   1.603  10.547
35557W        W  784  11.134  41.098  11.184
35558W        W  785   6.850  20.471  13.393
35559W        W  786  40.604   0.963   0.348
35560W        W  787  22.418  11.063  12.415
35561W        W  788  20.539  19.902  13.097
35562W        W  789   0.331  25.072   5.160
35563W        W  790  28.959  23.316   4.440
35564W        W  791  21.540  41.894   1.708
35565W        W  792  31.353  15.429  13.937
35566W        W  793  38.169  27.951   2.754
35567W        W  794  20.669  41.307  10.678
35568W        W  795  42.579  26.579   3.749
35569W        W  796  44.990  13.781   4.941
35570W        W  797   9.381  40.179   2.409
35571W        W  798  19.713  32.880   2.338
35572W        W  799  18.324  24.905   3.856
35573W        W  800   7.357  21.633  13.126
35574W        W  801   1.733  13.715   0.320
35575W        W  802   7.202   0.363   1.068
35576W        W  803  21.284  18.409   4.307
35577W        W  804  43.198  10.303   3.193
35578W        W  805  30.848  43.694   0.013
35579W        W  806  16.864   0.570  13.888
35580W        W  807   0.952   3.975   3.252
35581W        W  808  13.935   5.249   0.540
35582W        W  809  23.551   1.497  12.055
35583W        W  810  12.444  35.227   9.834
35584W        W  811  34.619  23.652  10.593
35585W        W  812  18.163  41.253   0.032
35586W        W  813   4.362   6.119  14.707
35587W        W  814  38.075  23.394  14.021
35588W        W  815  11.944   4.584  11.776
35589W        W  816  39.964  24.601  11.112
35590W        W  817  43.691   5.778  12.516
35591W        W  818  13.183  29.990   3.114
35592W        W  819   8.525   0.295   3.400
35593W        W  820  12.009   2.541  10.995
35594W        W  821  23.050  25.234  11.603
35595W        W  822  38.115  21.266  11.738
35596W        W  823  18.564  36.835  11.609
35597W        W  824   7.419  21.075  12.544
35598W        W  825  27.477  30.023  13.348
35599W        W  826  17.744  29.039  11.898
35600W        W  827  38.007  12.339   3.760
35601W        W  828   0.238  36.871   0.930
35602W        W  829  39.069  37.609   2.797
35603W        W  830  43.377  26.993   2.236
35604W        W  831  21.254  17.083  10.564
35605W        W  832  30.573  31.182  14.347
35606W        W  833  25.064   5.339   2.197
35607W        W  834  34.933   9.148   2.313
35608W        W  835  36.913   9.312  14.050
35609W        W  836  17.577  26.357   0.379
35610W        W  837  22.391  39.408  12.848
35611W        W  838   0.142  28.130   3.221
35612W        W  839  15.203  29.401  14.510
35613W        W  840   6.809  36.032  11.709
35614W        W  841   4.728   3.628  12.955
35615W        W  842  10.312   9.340  12.959
35616W        W  843  29.987   2.740   0.735
35617W        W  844   2.169  30.004  11.017
35618W        W  845  19.499  41.302  11.639
35619W        W  846  24.595  26.745  14.101
35620W        W  847  30.671  10.332   0.292
35621W        W  848  38.553  27.025  14.880
35622W        W  849  23.761  39.844   4.493
35623W        W  850  13.577  11.413   3.164
35624W        W  851  18.107  24.689  12.953
35625W        W  852  38.546  43.463   2.260
35626W        W  853  20.545  18.294  11.571
35627W        W  854  19.242  30.016   4.590
35628W        W  855  42.010  37.563   5.007
35629W        W  856   9.348  37.909   4.910
35630W        W  857   0.952  14.637  12.503
35631W        W  858  10.631  30.389   1.669
35632W        W  859  15.831   0.198  10.758
35633W        W  860  43.879  32.404   1.777
35634W        W  861  20.637  18.361   2.315
35635W        W  862   8.246  37.113   1.012
35636W        W  863   7.310  41.871   0.899
35637W        W  864  38.031  20.176   2.591
35638W        W  865  28.256   2.473  12.058
35639W        W  866  43.298  18.300   0.955
35640W        W  867  43.798  24.713   3.086
35641W        W  868  39.279   0.796   0.728
35642W        W  869  35.329  44.365  14.955
35643W        W  870  21.626  38.155   3.333
35644W        W  871  30.933  11.688   3.672
35645W        W  872  28.433  12.257  13.112
35646W        W  873  17.636  32.917   1.167
35647W        W  874  42.359   5.820  10.304
35648W        W  875  40.291  32.248   2.352
35649W        W  876   2.864  42.856  12.102
35650W        W  877   0.403  25.638   2.421
35651W        W  878  41.199  39.252  11.435
35652W        W  879  43.806  23.358   0.662
35653W        W  880  32.388  17.323   1.285
35654W        W  881  29.905  39.950   4.340
35655W        W  882  40.246  36.351   3.785
35656W        W  883  12.195  15.702   0.521
35657W        W  884  39.488  20.689   4.633
35658W        W  885  22.628  15.325   1.760
35659W        W  886  39.554  10.374   0.755
35660W        W  887  14.629   1.451   2.183
35661W        W  888  17.223   5.945   3.316
35662W        W  889  12.153  36.901   0.874
35663W        W  890  12.604  40.579  11.959
35664W        W  891  12.283  35.455  12.021
35665W        W  892  25.298  15.100  10.761
35666W        W  893  26.220  16.614   4.121
35667W        W  894  29.442  16.691  10.250
35668W        W  895  38.154  25.122   3.747
35669W        W  896  40.343  19.702   1.676
35670W        W  897  30.654  16.726  14.991
35671W        W  898  24.145   0.156   2.178
35672W        W  899  13.092  24.870   3.607
35673W        W  900   0.975  12.140   2.343
35674W        W  901  44.790  33.928  12.328
35675W        W  902  36.891  32.249   4.975
35676W        W  903  16.181  38.241   1.686
35677W        W  904  18.034  21.550   0.767
35678W        W  905  21.296   9.800  13.930
35679W        W  906  44.891  28.914   3.477
35680W        W  907  19.648  11.981  10.516
35681W        W  908  20.551  35.979   3.144
35682W        W  909  31.167  26.719   3.211
35683W        W  910  35.090  31.639   0.382
35684W        W  911   1.402  27.668   0.435
35685W        W  912  36.950  41.786   5.183
35686W        W  913  42.272   5.270   3.113
35687W        W  914  13.083  41.580   1.575
35688W        W  915  30.870   4.194  12.993
35689W        W  916   1.677  38.077  12.405
35690W        W  917  16.661   2.290   0.630
35691W        W  918   3.840  22.638   3.785
35692W        W  919   2.154  36.453   0.897
35693W        W  920  32.780  14.672  11.641
35694W        W  921  28.307  33.301   3.796
35695W        W  922  44.465   2.251   1.675
35696W        W  923  19.129  14.083  11.702
35697W        W  924  33.993   2.490  10.738
35698W        W  925  29.142  25.696   3.853
35699W        W  926   3.028  14.802  14.793
35700W        W  927  32.088   4.288  12.477
35701W        W  928  11.879  42.915  13.065
35702W        W  929   4.647  32.585   1.850
35703W        W  930  20.515  19.472   1.252
35704W        W  931  19.746  11.116   1.240
35705W        W  932   7.280  14.408   2.348
35706W        W  933  11.112  19.180  14.105
35707W        W  934  17.348  39.034  12.916
35708W        W  935  18.560  39.348  11.464
35709W        W  936  15.071   6.457   2.125
35710W        W  937   7.173  14.748  12.072
35711W        W  938   9.855  26.546   2.851
35712W        W  939  21.921  39.558   1.222
35713W        W  940  10.535  13.906  10.723
35714W        W  941   7.415  22.022  11.506
35715W        W  942  39.815  40.775   4.507
35716W        W  943  37.036  27.891  12.147
35717W        W  944   1.589  12.234  14.007
35718W        W  945  11.426   0.944   3.454
35719W        W  946  29.679   7.987   0.255
35720W        W  947   3.954   7.205  14.424
35721W        W  948  18.300  32.177  13.411
35722W        W  949  32.628  42.526  11.438
35723W        W  950  10.149   4.664  11.937
35724W        W  951   2.460   5.931  13.090
35725W        W  952   9.491  36.267  12.015
35726W        W  953   3.391  12.531  10.722
35727W        W  954   9.933   0.792  14.356
35728W        W  955  40.758  15.108   3.817
35729W        W  956  10.542  40.984   3.309
35730W        W  957  41.396  22.956  10.716
35731W        W  958   0.003  39.240   0.359
35732W        W  959  27.783  12.024   1.912
35733W        W  960  43.504  23.123  13.929
35734W        W  961  29.594  42.892  12.836
35735W        W  962  29.694  43.901  14.317
35736W        W  963  12.616  10.873  11.678
35737W        W  964  24.532   4.777   4.152
35738W        W  965   2.182  28.095   3.265
35739W        W  966  40.293   1.457   4.820
35740W        W  967  40.724  31.338  11.164
35741W        W  968  17.200  37.448   4.272
35742W        W  969  18.278   3.523   0.398
35743W        W  970  40.988  14.625   1.366
35744W        W  971   1.310  38.589   1.828
35745W        W  972  37.583  39.006  11.799
35746W        W  973   0.351   1.653   4.915
35747W        W  974  25.143  41.069  12.935
35748W        W  975  11.592  39.625  11.428
35749W        W  976  12.236  12.888  11.356
35750W        W  977   5.383  13.816  13.326
35751W        W  978  16.457  20.632  10.393
35752W        W  979  36.987  41.711   1.584
35753W        W  980  18.363  41.951   2.771
35754W        W  981  40.457  32.065  12.425
35755W        W  982  14.772  12.787  13.434
35756W        W  983  25.553  34.829   4.850
35757W        W  984   6.160  38.527   3.271
35758W        W  985   1.311   7.278   0.357
35759W        W  986  35.596  11.806   1.722
35760W        W  987  15.865  17.817   3.230
35761W        W  988  21.138  33.776   0.237
35762W        W  989   3.761  38.452   1.341
35763W        W  990  33.724  30.101  14.907
35764W        W  991  22.601  29.572  10.658
35765W        W  992  32.613  38.604  14.471
35766W        W  993  34.072  34.436  11.974
35767W        W  994  41.299  14.067  13.497
35768W        W  995  13.293  44.774  14.382
35769W        W  996  16.584  24.959   1.024
35770W        W  997  40.597  35.054   2.227
35771W        W  998  17.149  34.271   0.959
35772W        W  999  40.137  21.030   4.960
35773W        W 1000  44.410  10.271  10.768
35774W        W 1001  42.194  15.738  12.625
35775W        W 1002  39.921  23.686   4.151
35776W        W 1003  28.986  14.639   2.428
35777W        W 1004  28.992   3.278   5.186
35778W        W 1005  18.590  32.025   1.960
35779W        W 1006  41.348   8.286  11.973
35780W        W 1007  21.426  13.210  14.349
35781W        W 1008  31.413  25.801   3.025
35782W        W 1009  12.742  22.337   4.176
35783W        W 1010  17.307   0.580   2.099
35784W        W 1011  18.729  26.112   0.737
35785W        W 1012  38.042  42.773   3.228
35786W        W 1013  22.187  32.529  12.822
35787W        W 1014  32.512  42.845   0.511
35788W        W 1015  20.546  16.832  11.548
35789W        W 1016  29.678   8.332  14.842
35790W        W 1017  11.900   2.307  13.825
35791W        W 1018   5.230   8.900   0.238
35792W        W 1019   7.782  10.251   4.490
35793W        W 1020  16.154  17.587  14.514
35794W        W 1021   1.264  33.814  14.282
35795W        W 1022  19.095  33.097  12.966
35796W        W 1023   9.135  22.653  10.328
35797W        W 1024   6.712  10.596   4.631
35798W        W 1025  31.512   2.178  12.044
35799W        W 1026  17.204   0.607   3.089
35800W        W 1027  26.437  32.501   1.429
35801W        W 1028  37.720  20.384   1.270
35802W        W 1029   1.983  25.669   2.787
35803W        W 1030  40.911  16.193  14.668
35804W        W 1031   8.683   4.253   0.868
35805W        W 1032  39.602   4.213   2.011
35806W        W 1033   8.680  17.327   0.329
35807W        W 1034  28.553   9.270   3.805
35808W        W 1035  16.569  27.134  10.751
35809W        W 1036  39.797  35.120   0.721
35810W        W 1037  30.959  39.452  14.792
35811W        W 1038  32.979  37.912  14.272
35812W        W 1039  23.250  39.050   9.974
35813W        W 1040  39.580  34.841  10.612
35814W        W 1041  35.025   4.846   0.312
35815W        W 1042  36.356  41.650  13.055
35816W        W 1043   6.156  10.297  12.978
35817W        W 1044   6.008  20.448  13.659
35818W        W 1045  37.559  10.735   0.385
35819W        W 1046  36.597   9.874   0.969
35820W        W 1047  24.614  21.101   0.308
35821W        W 1048  17.164   0.966  11.185
35822W        W 1049   4.852  31.594  13.901
35823W        W 1050  30.091  17.106   2.411
35824W        W 1051  27.709  38.076  11.926
35825W        W 1052  24.169  41.934  11.572
35826W        W 1053  28.693  29.413  13.469
35827W        W 1054  14.170  21.133   2.914
35828W        W 1055  43.967  25.675   4.618
35829W        W 1056  24.577  34.940   4.573
35830W        W 1057  26.989  32.631  11.293
35831W        W 1058   4.465   2.778   2.508
35832W        W 1059  28.163   5.231   0.460
35833W        W 1060  35.394   9.248   0.948
35834W        W 1061  41.006  35.586   2.789
35835W        W 1062  13.421  17.702  12.955
35836W        W 1063  32.866  39.563  14.717
35837W        W 1064  28.053  22.753  13.323
35838W        W 1065  31.500  25.338   0.757
35839W        W 1066   1.800   3.200   5.051
35840W        W 1067   8.881  19.296   2.964
35841W        W 1068  23.482  36.016   3.179
35842W        W 1069  38.558  14.832  13.980
35843W        W 1070  38.116  12.357  14.860
35844W        W 1071   0.297  42.536   0.546
35845W        W 1072  35.452  25.731  11.891
35846W        W 1073  17.788  44.218  13.492
35847W        W 1074  21.102  41.986  13.514
35848W        W 1075  25.623  19.566  13.855
35849W        W 1076  11.755  41.718   0.841
35850W        W 1077  12.135  38.840   4.224
35851W        W 1078  38.067  33.492  11.552
35852W        W 1079   3.212   0.571  11.034
35853W        W 1080  10.818  36.823   2.924
35854W        W 1081  15.835  21.705   0.319
35855W        W 1082  40.036  38.910   3.621
35856W        W 1083  14.747   5.204   2.506
35857W        W 1084  25.585  42.445   1.890
35858W        W 1085  37.907  15.102   3.908
35859W        W 1086  22.745   4.816  10.397
35860W        W 1087  37.030  30.806   4.664
35861W        W 1088  40.743  29.984  11.318
35862W        W 1089  10.887   2.906  13.232
35863W        W 1090  23.096  41.924  14.649
35864W        W 1091   5.190   0.337   0.800
35865W        W 1092  22.442  39.617   2.709
35866W        W 1093  11.117  34.929   0.511
35867W        W 1094  14.521  39.443   4.699
35868W        W 1095  19.143  33.448   4.358
35869W        W 1096   4.342  34.181  11.070
35870W        W 1097   5.957  27.146  11.117
35871W        W 1098  29.734  35.528   4.104
35872W        W 1099   2.014   2.875   2.155
35873W        W 1100  36.913  34.567  11.624
35874W        W 1101  33.184  10.869   1.701
35875W        W 1102  12.612   2.677   1.397
35876W        W 1103  33.408   4.708   3.610
35877W        W 1104  22.175   5.866   1.772
35878W        W 1105  40.275  17.429   1.914
35879W        W 1106  40.368   8.795   4.630
35880W        W 1107  26.472  27.212   0.789
35881W        W 1108   8.331  11.245   2.836
35882W        W 1109  11.192   8.374  11.285
35883W        W 1110  26.156   2.997  13.344
35884W        W 1111  34.109   1.755   0.573
35885W        W 1112  23.222  33.594   4.742
35886W        W 1113  32.654  13.437  13.990
35887W        W 1114  41.738  33.355  12.345
35888W        W 1115  23.602  15.111   2.651
35889W        W 1116  23.934  44.195  14.990
35890W        W 1117  44.482  13.290  11.681
35891W        W 1118  39.003  11.904   2.200
35892W        W 1119  24.027  24.917   4.298
35893W        W 1120   8.255  22.980   2.720
35894W        W 1121  16.437  40.901   0.358
35895W        W 1122   3.049  30.860  11.250
35896W        W 1123  33.550  17.750   1.433
35897W        W 1124  33.869  42.930   0.787
35898W        W 1125  10.955  44.293   2.775
35899W        W 1126  44.044  33.400   3.773
35900W        W 1127  24.007  16.882  10.718
35901W        W 1128  31.541  38.459  13.046
35902W        W 1129   6.048  29.044  10.744
35903W        W 1130  17.920  43.765   0.221
35904W        W 1131   8.113  35.017  11.135
35905W        W 1132  42.627  16.554   2.273
35906W        W 1133  41.165  24.420   0.298
35907W        W 1134   9.175   7.874   1.700
35908W        W 1135  33.189  18.608  10.676
35909W        W 1136  44.094   5.354  14.418
35910W        W 1137   5.400  32.147   1.648
35911W        W 1138  16.245   9.637  14.614
35912W        W 1139   9.745  30.075  14.631
35913W        W 1140   7.102  40.451  11.203
35914W        W 1141  32.856   4.558   2.241
35915W        W 1142  38.375  21.982  14.321
35916W        W 1143  19.313  44.701  12.302
35917W        W 1144  23.791  20.054  13.643
35918W        W 1145  39.604  43.923  14.048
35919W        W 1146  29.999  17.113  14.562
35920W        W 1147  20.118   9.463  14.022
35921W        W 1148  16.044  22.486   1.927
35922W        W 1149  26.101  14.901   3.222
35923W        W 1150  25.094  22.152   4.634
35924W        W 1151   6.785   9.285   3.807
35925W        W 1152  30.190  19.654   2.687
35926W        W 1153   0.540  11.372  13.799
35927W        W 1154   2.325  33.603   0.003
35928W        W 1155  10.699  21.596   3.635
35929W        W 1156  27.094  32.515  13.972
35930W        W 1157  39.588  36.045   3.350
35931W        W 1158   7.884   7.196  12.370
35932W        W 1159   2.295  40.298  13.949
35933W        W 1160  43.732  19.196   0.492
35934W        W 1161  29.104  22.816  11.970
35935W        W 1162  38.811  38.513   3.270
35936W        W 1163  31.401  43.074  14.826
35937W        W 1164  24.723  23.672   1.376
35938W        W 1165   1.600  16.345   1.380
35939W        W 1166  32.598  16.041  12.116
35940W        W 1167  12.200  43.236  11.907
35941W        W 1168  36.124  25.512   4.603
35942W        W 1169  33.704  38.444  11.194
35943W        W 1170  25.027  15.000   2.919
35944W        W 1171  13.523  11.734  14.219
35945W        W 1172  43.807  42.101  12.345
35946W        W 1173  23.526  20.836  14.746
35947W        W 1174  12.807   7.911   0.288
35948W        W 1175  12.194  27.203  13.346
35949W        W 1176   6.630  33.852   2.899
35950W        W 1177  34.853  27.144  13.426
35951W        W 1178  20.000   8.830   2.889
35952W        W 1179  38.371  20.295  11.074
35953W        W 1180  25.225   5.845   1.466
35954W        W 1181  12.514  41.393  12.461
35955W        W 1182   8.777   9.343   0.764
35956W        W 1183  38.342   2.368   4.094
35957W        W 1184  31.889  10.717   3.281
35958W        W 1185  37.546  30.534  12.960
35959W        W 1186  40.698  37.159   2.379
35960W        W 1187  12.957  32.770   2.762
35961W        W 1188  31.388  19.646   4.121
35962W        W 1189  19.854  26.049   2.587
35963W        W 1190  39.837   9.155   2.135
35964W        W 1191  13.490  34.509   0.028
35965W        W 1192  27.645  44.300   2.769
35966W        W 1193  31.650  35.578   2.791
35967W        W 1194  19.093  20.058  13.289
35968W        W 1195   8.946  33.199  14.429
35969W        W 1196  24.580  37.842   1.221
35970W        W 1197  18.958  22.991   1.297
35971W        W 1198   4.430  13.118   2.204
35972W        W 1199  27.016  12.686   0.490
35973W        W 1200  38.941  11.806   2.692
35974W        W 1201  11.182   1.326   2.161
35975W        W 1202  15.558   0.006  11.137
35976W        W 1203  35.811   4.351  14.278
35977W        W 1204  34.096  20.009   1.315
35978W        W 1205  43.379  23.624   1.274
35979W        W 1206  44.018  42.332   0.323
35980W        W 1207  19.815   0.134   1.268
35981W        W 1208   3.692  43.910  10.312
35982W        W 1209   3.082   9.363  14.089
35983W        W 1210  15.794  43.276   4.534
35984W        W 1211  12.717  36.312   0.270
35985W        W 1212  32.585  17.675   0.272
35986W        W 1213  14.253   0.691  11.844
35987W        W 1214  11.259  21.117  12.534
35988W        W 1215  21.504  13.463  11.227
35989W        W 1216  12.168  15.066  14.904
35990W        W 1217   3.860  37.273  10.747
35991W        W 1218  23.767   3.032   2.820
35992W        W 1219  38.991  26.610   3.757
35993W        W 1220  21.770  43.357   2.760
35994W        W 1221   8.348  25.176   2.773
35995W        W 1222  42.242  35.582  13.540
35996W        W 1223   7.265  17.701   2.684
35997W        W 1224  10.422  42.292   4.695
35998W        W 1225  27.249   2.263  11.871
35999W        W 1226  23.979  35.459   3.572
36000W        W 1227  12.110  29.100  11.297
36001W        W 1228  38.345   9.162   4.432
36002W        W 1229  40.421  20.560   4.497
36003W        W 1230  36.694   5.704  13.473
36004W        W 1231  42.042   9.383   4.095
36005W        W 1232  23.214  38.386  12.922
36006W        W 1233   3.271  26.239  13.014
36007W        W 1234  11.087  29.063   3.287
36008W        W 1235  20.684  31.496   4.682
36009W        W 1236  20.298  22.071  14.515
36010W        W 1237  36.303   8.623   2.681
36011W        W 1238  41.038   1.867  11.329
36012W        W 1239  11.583  27.601   0.206
36013W        W 1240  44.308  29.250   0.757
36014W        W 1241  34.100  17.640  12.557
36015W        W 1242  44.911  15.954  11.119
36016W        W 1243  44.029  19.190  12.050
36017W        W 1244  41.070  17.289  13.049
36018W        W 1245  20.195  26.039  10.891
36019W        W 1246  35.494   9.608  13.984
36020W        W 1247  25.537  23.116  10.669
36021W        W 1248  17.214  19.576  10.563
36022W        W 1249  21.500  29.746   0.752
36023W        W 1250  15.329   9.184  12.667
36024W        W 1251  28.467  13.616  14.537
36025W        W 1252  42.769  44.485   4.070
36026W        W 1253   4.333  13.388   1.727
36027W        W 1254  24.499  43.240   4.773
36028W        W 1255  37.986   6.857  14.959
36029W        W 1256  30.668  18.488  11.589
36030W        W 1257   8.590   0.538  10.736
36031W        W 1258   2.035  40.441   4.237
36032W        W 1259  43.880  16.840  10.799
36033W        W 1260  32.922  42.573   4.130
36034W        W 1261   1.993  24.399  11.219
36035W        W 1262  41.561  21.747  13.013
36036W        W 1263  20.367  10.315  14.356
36037W        W 1264  32.266  35.005  10.987
36038W        W 1265  17.692   1.738  14.138
36039W        W 1266   5.383  33.019   2.898
36040W        W 1267  44.849  29.401  13.978
36041W        W 1268  19.653  36.426   4.096
36042W        W 1269  20.606   8.364   1.646
36043W        W 1270   7.904  35.420   1.482
36044W        W 1271  30.625  32.188  14.042
36045W        W 1272  19.698  44.375  12.414
36046W        W 1273   8.172  30.777  13.145
36047W        W 1274  29.615  24.153   0.298
36048W        W 1275   7.757  22.740  14.318
36049W        W 1276  19.328  44.391  11.063
36050W        W 1277  41.942  34.954   0.025
36051W        W 1278  40.474  39.467  14.350
36052W        W 1279   1.184  26.382  10.554
36053W        W 1280   9.429  26.396   0.378
36054W        W 1281  23.956  19.007  12.997
36055W        W 1282   5.717  42.643  14.493
36056W        W 1283   3.460   0.430   0.235
36057W        W 1284  30.505  30.143  13.086
36058W        W 1285  36.722  30.842   0.738
36059W        W 1286  28.564   2.643   3.146
36060W        W 1287  22.538  41.859   1.377
36061W        W 1288  20.150  15.910   4.583
36062W        W 1289   5.636   9.938  12.012
36063W        W 1290  42.282  42.009   2.690
36064W        W 1291  19.604  12.658   4.122
36065W        W 1292  27.961  39.962  11.074
36066W        W 1293  21.755  12.272  10.683
36067W        W 1294  38.502  39.962  12.922
36068W        W 1295  20.722  31.006  13.970
36069W        W 1296  17.232   2.744   4.898
36070W        W 1297  28.450  12.879  14.787
36071W        W 1298  43.527  22.199  14.319
36072W        W 1299  34.010  13.865   5.370
36073W        W 1300  12.630  30.517  13.548
36074W        W 1301  11.433   9.365  11.149
36075W        W 1302   9.190  32.319   4.664
36076W        W 1303  12.239  15.996   2.280
36077W        W 1304  38.040  25.621   3.554
36078W        W 1305  28.138  21.553   0.194
36079W        W 1306  15.944   1.448   3.164
36080W        W 1307   2.130   4.444  12.171
36081W        W 1308   7.214   3.987   0.047
36082W        W 1309  19.504  35.702   0.883
36083W        W 1310   1.737  22.682   0.493
36084W        W 1311  22.697  19.494   1.301
36085W        W 1312  40.379  21.597  13.838
36086W        W 1313  32.174  26.998   3.057
36087W        W 1314   0.419   1.660   0.389
36088W        W 1315   7.440  19.858  13.394
36089W        W 1316  26.203  11.519  13.375
36090W        W 1317  26.659  14.314  10.826
36091W        W 1318  29.501  31.977   4.939
36092W        W 1319   8.868  31.243  13.489
36093W        W 1320  44.489   3.330   1.166
36094W        W 1321  27.721  10.360  10.668
36095W        W 1322  41.772  39.512  11.419
36096W        W 1323  18.044  18.943  14.192
36097W        W 1324   2.278  40.057   0.644
36098W        W 1325  14.667  34.570   4.263
36099W        W 1326   0.823  30.631   0.743
36100W        W 1327  39.794  26.649   3.259
36101W        W 1328   5.808  18.686  13.576
36102W        W 1329   8.748  25.179   1.676
36103W        W 1330  22.541  31.348   3.408
36104W        W 1331  26.584  27.663  13.057
36105W        W 1332  36.453  26.636  10.062
36106W        W 1333  39.876   5.744   0.600
36107W        W 1334   0.705  43.405   3.097
36108W        W 1335  28.196  42.538  12.864
36109W        W 1336   1.392  21.691   4.051
36110W        W 1337  30.415  31.397  10.990
36111W        W 1338   0.782  25.559   0.726
36112W        W 1339  32.223   7.104  11.235
36113W        W 1340  36.106   5.512   1.128
36114W        W 1341   3.418   8.705   2.773
36115W        W 1342  35.043  37.996   5.078
36116W        W 1343  23.790  37.597   3.599
36117W        W 1344  20.477  35.108   2.158
36118W        W 1345  26.692  35.751   3.249
36119W        W 1346  21.062  36.628   3.658
36120W        W 1347  44.387  34.986  14.787
36121W        W 1348  26.007  21.747  10.789
36122W        W 1349  28.923  26.176  13.370
36123W        W 1350  10.917  39.497  12.599
36124W        W 1351  30.607  11.935  13.842
36125W        W 1352  36.475  15.814   4.148
36126W        W 1353   7.959  11.265  10.634
36127W        W 1354   2.736   1.674   1.723
36128W        W 1355   4.653  16.142   4.939
36129W        W 1356  26.089  40.937   4.071
36130W        W 1357  11.857  17.295  11.092
36131W        W 1358  29.863  16.780   1.378
36132W        W 1359  36.126  30.622   3.698
36133W        W 1360  29.128   9.073   4.164
36134W        W 1361  37.426  37.809  11.522
36135W        W 1362  20.028   9.269   4.558
36136W        W 1363  32.486  33.139  14.451
36137W        W 1364  24.583  34.641  12.000
36138W        W 1365  20.011   3.033   3.359
36139W        W 1366  17.196  15.790  14.767
36140W        W 1367  25.909  39.856  11.992
36141W        W 1368  39.312  41.565  14.880
36142W        W 1369  11.919   9.313  13.507
36143W        W 1370  10.416  22.848  12.389
36144W        W 1371  16.206  39.940  13.252
36145W        W 1372  28.466   8.101   2.980
36146W        W 1373  40.855  23.118  10.816
36147W        W 1374  26.243  14.258  10.535
36148W        W 1375  18.401  41.929  11.148
36149W        W 1376   4.295  29.915   0.806
36150W        W 1377  18.882   7.486   1.825
36151W        W 1378   8.742  42.764  14.368
36152W        W 1379  37.927  36.635   1.707
36153W        W 1380   2.979  44.326   0.940
36154W        W 1381  10.857  42.386  10.910
36155W        W 1382  19.179  31.512   3.584
36156W        W 1383  42.304  40.050   0.819
36157W        W 1384   8.128  14.408   1.210
36158W        W 1385   3.675  14.628   4.958
36159W        W 1386   8.341  14.726   1.910
36160W        W 1387  41.243  41.555   1.665
36161W        W 1388   3.791  14.689   0.776
36162W        W 1389  24.946  37.991  11.639
36163W        W 1390  11.299  42.265   1.282
36164W        W 1391  44.470  37.442   4.926
36165W        W 1392   7.589  41.481   1.181
36166W        W 1393  16.773  35.509  10.460
36167W        W 1394  20.688  21.704  10.987
36168W        W 1395  22.490  37.489   1.906
36169W        W 1396   2.525  16.808   0.803
36170W        W 1397  40.032  31.136  11.569
36171W        W 1398   1.454  10.674  12.662
36172W        W 1399   7.804  37.817   4.676
36173W        W 1400  13.994  24.143  11.471
36174W        W 1401  10.795  11.463   1.244
36175W        W 1402  37.533   1.521   1.065
36176W        W 1403  30.172   5.202   2.560
36177W        W 1404  26.051  29.405   1.789
36178W        W 1405  19.699  12.338   1.678
36179W        W 1406   9.683  16.569   2.664
36180W        W 1407  25.617  22.674   3.267
36181W        W 1408  35.382  17.178  10.795
36182W        W 1409  27.035  30.698  10.609
36183W        W 1410   1.354   4.908  12.123
36184W        W 1411  24.137  33.886   1.701
36185W        W 1412   5.731  36.287  12.994
36186W        W 1413   8.581  21.060  11.564
36187W        W 1414  21.148  39.989   4.543
36188W        W 1415  26.736  26.463  12.121
36189W        W 1416  22.636  17.762  10.321
36190W        W 1417  43.298  26.004   3.148
36191W        W 1418  34.580  21.026   1.618
36192W        W 1419  30.623  42.691  12.461
36193W        W 1420  22.590   2.477   3.669
36194W        W 1421  37.805   8.171  14.470
36195W        W 1422  30.593  10.270  14.550
36196W        W 1423   5.354   9.094   1.247
36197W        W 1424   8.890  31.542   3.489
36198W        W 1425  13.101  14.266  13.397
36199W        W 1426  36.300   2.535  14.428
36200W        W 1427   1.590  24.561   4.118
36201W        W 1428   3.583   6.608  14.002
36202W        W 1429   0.565  35.858   1.709
36203W        W 1430  23.191  13.754   0.359
36204W        W 1431   7.224  32.193   3.790
36205W        W 1432  24.443   7.189   0.768
36206W        W 1433  15.350   0.627   3.643
36207W        W 1434  32.272  17.649   2.795
36208W        W 1435  25.831  27.655   0.549
36209W        W 1436   3.693   2.856   1.285
36210W        W 1437   6.612  33.867   3.823
36211W        W 1438  24.559  24.796  13.948
36212W        W 1439  10.711  13.600   2.997
36213W        W 1440  29.091  13.612  13.429
36214W        W 1441   0.496  11.311  11.377
36215W        W 1442  38.002   5.125   1.232
36216W        W 1443  21.795   5.815  11.229
36217W        W 1444  35.280  22.632  10.235
36218W        W 1445  31.508  29.697   0.855
36219W        W 1446  16.305   9.623  12.502
36220W        W 1447   7.112  18.842   1.828
36221W        W 1448  12.810  28.668   2.462
36222W        W 1449  37.070  36.750   1.860
36223W        W 1450   1.415   8.625  14.712
36224W        W 1451  27.995  26.146  10.905
36225W        W 1452  43.657  32.825   0.920
36226W        W 1453  10.232  38.729  14.278
36227W        W 1454  25.960  35.391   0.903
36228W        W 1455  43.616  16.507  12.591
36229W        W 1456  26.554  29.863  10.748
36230W        W 1457  38.616  15.588   1.954
36231W        W 1458  16.479  24.076  13.758
36232W        W 1459  27.124  23.855   4.883
36233W        W 1460  17.771  18.069   3.317
36234W        W 1461  23.566  15.846  13.048
36235W        W 1462  35.363  27.023  11.412
36236W        W 1463   0.237  39.527   3.978
36237W        W 1464   2.422  33.334   1.933
36238W        W 1465  29.932  12.649  12.947
36239W        W 1466  37.094  27.051   2.467
36240W        W 1467   3.334  21.525   4.888
36241W        W 1468  16.466  30.560   4.016
36242W        W 1469   9.845  11.707  13.904
36243W        W 1470  23.734  19.240  13.940
36244W        W 1471  40.072   2.833   2.266
36245W        W 1472  20.748   2.403   2.061
36246W        W 1473   2.030  23.718  10.678
36247W        W 1474  41.245  38.362  11.030
36248W        W 1475   1.887  42.343   5.262
36249W        W 1476  28.869  11.866  11.384
36250W        W 1477  11.508  33.030   3.275
36251W        W 1478  12.239  39.015   2.776
36252W        W 1479  37.052  21.901   1.476
36253W        W 1480   8.671  42.405  13.382
36254W        W 1481  22.741  37.944   4.048
36255W        W 1482   2.984   9.013  13.063
36256W        W 1483  16.191  11.898  13.780
36257W        W 1484  30.938   3.892  13.446
36258W        W 1485  42.376  31.501  13.541
36259W        W 1486  13.234  14.026   0.140
36260W        W 1487  16.006  33.815  13.525
36261W        W 1488  28.538   1.878  13.809
36262W        W 1489  13.207   6.328   2.395
36263W        W 1490  15.782   8.867   1.896
36264W        W 1491  33.580  42.627  11.572
36265W        W 1492  35.643   9.350   2.762
36266W        W 1493  24.541  26.384   3.480
36267W        W 1494  13.102  35.950  13.016
36268W        W 1495  20.662   9.894  11.075
36269W        W 1496  13.646  27.594   0.717
36270W        W 1497  36.550   5.343  10.684
36271W        W 1498  29.785  41.686   1.386
36272W        W 1499  40.233  38.968   0.850
36273W        W 1500   7.224  19.615  12.545
36274W        W 1501   8.837  24.469  10.712
36275W        W 1502  43.578  15.115  14.479
36276W        W 1503   7.369  33.440  14.015
36277W        W 1504  14.377  42.946  11.374
36278W        W 1505  39.330  25.585   1.839
36279W        W 1506  13.867   8.397  14.842
36280W        W 1507  15.465  34.483   2.487
36281W        W 1508  30.424  25.849   4.350
36282W        W 1509  31.859  21.528   2.936
36283W        W 1510   8.126  28.477  11.138
36284W        W 1511  33.162  24.646  14.987
36285W        W 1512  11.775  33.026   2.338
36286W        W 1513  29.728   3.633   0.409
36287W        W 1514  15.862   3.252   5.043
36288W        W 1515  13.261   0.280  14.271
36289W        W 1516  27.968  16.556  14.141
36290W        W 1517  32.603  28.011  13.413
36291W        W 1518  28.686  44.443   1.825
36292W        W 1519  23.348  21.884  13.472
36293W        W 1520  15.669  21.263  10.448
36294W        W 1521  14.103  31.885  14.442
36295W        W 1522  32.026  12.481  12.026
36296W        W 1523   7.707   1.313  13.601
36297W        W 1524  36.255  24.533  11.152
36298W        W 1525   3.877   6.477  11.475
36299W        W 1526  15.158   5.455  11.570
36300W        W 1527  12.471   4.236  10.602
36301W        W 1528  23.976  25.015  12.420
36302W        W 1529  38.109  35.575  11.347
36303W        W 1530  12.708  34.792  13.551
36304W        W 1531  40.063  18.027   3.188
36305W        W 1532  36.586  28.466  11.508
36306W        W 1533  25.384   4.790   1.855
36307W        W 1534  39.905  37.235   1.957
36308W        W 1535  27.647  13.296   3.177
36309W        W 1536  20.726  22.002   0.451
36310W        W 1537   8.799  27.266   1.419
36311W        W 1538  12.303   0.133  14.561
36312W        W 1539  10.989  16.757  11.215
36313W        W 1540  26.627  25.109   4.585
36314W        W 1541  22.236   3.801  12.436
36315W        W 1542  41.501  24.341   3.612
36316W        W 1543   7.332   8.193  14.535
36317W        W 1544  31.689  13.796  12.569
36318W        W 1545  36.971  34.815  12.056
36319W        W 1546  18.678  37.220  11.977
36320W        W 1547  30.627   9.139   0.716
36321W        W 1548  16.026  39.495   2.335
36322W        W 1549   0.965  15.800  12.451
36323W        W 1550   8.896  39.736  12.725
36324W        W 1551  41.556  19.780   4.204
36325W        W 1552  44.580  34.928   2.774
36326W        W 1553  20.065  20.341  11.151
36327W        W 1554  26.271  22.555   4.217
36328W        W 1555  14.635   4.394  10.710
36329W        W 1556  27.943  27.428  12.883
36330W        W 1557  33.563  22.427   2.748
36331W        W 1558  18.040  17.634  13.304
36332W        W 1559  10.132   6.711   3.884
36333W        W 1560  27.208   8.746  13.150
36334W        W 1561  21.521   2.014   9.735
36335W        W 1562   8.167  34.547   2.946
36336W        W 1563   3.493   4.165   4.121
36337W        W 1564   3.528  22.169  11.545
36338W        W 1565  41.511  36.124   2.243
36339W        W 1566  12.690  31.671  10.616
36340W        W 1567  44.197  21.685  10.702
36341W        W 1568  14.661  27.017   4.338
36342W        W 1569   6.866  43.424   5.566
36343W        W 1570  33.044   1.535  10.588
36344W        W 1571  27.837  32.381   0.215
36345W        W 1572   5.699  20.433  11.503
36346W        W 1573   5.054  21.732   3.580
36347W        W 1574   8.431   7.941  12.459
36348W        W 1575  40.813  16.427   4.038
36349W        W 1576   8.362  40.546   5.024
36350W        W 1577   2.796  36.974  10.736
36351W        W 1578   8.334  20.096   4.108
36352W        W 1579   0.547  12.228  12.378
36353W        W 1580  22.252  23.122  12.816
36354W        W 1581  15.621  23.791  12.902
36355W        W 1582  10.685  30.147   0.187
36356W        W 1583  18.710   9.251  12.944
36357W        W 1584  29.512  20.743  13.859
36358W        W 1585  29.907  43.012   4.110
36359W        W 1586  32.412  18.962  13.060
36360W        W 1587   9.741  24.919   2.164
36361W        W 1588  22.982  10.042   3.761
36362W        W 1589  40.923   2.468   1.107
36363W        W 1590   0.955  30.997   1.294
36364W        W 1591  44.231  41.927  13.351
36365W        W 1592  19.831  33.331  11.073
36366W        W 1593  13.199  23.819   3.712
36367W        W 1594  10.969  23.030   1.819
36368W        W 1595   2.425  30.549  13.552
36369W        W 1596  41.827  42.932   3.717
36370W        W 1597  38.969  28.886   0.992
36371W        W 1598  43.119  33.545  12.188
36372W        W 1599  35.997   7.909  12.006
36373W        W 1600   8.822  10.275  14.263
36374W        W 1601  15.347  18.512   2.647
36375W        W 1602  10.856  34.592   0.188
36376W        W 1603  25.590  15.553  10.433
36377W        W 1604  44.273  13.210   0.914
36378W        W 1605  23.683   9.423  11.579
36379W        W 1606  40.353  35.086   4.173
36380W        W 1607   8.177   5.212   4.575
36381W        W 1608  31.333  24.083   1.974
36382W        W 1609  35.771  30.562  14.270
36383W        W 1610  30.396   6.669   0.787
36384W        W 1611  44.228   3.677  13.351
36385W        W 1612   6.427  35.786  13.264
36386W        W 1613   6.255  26.550  13.361
36387W        W 1614  25.140  38.008  14.463
36388W        W 1615   6.947  28.794   3.838
36389W        W 1616  33.905  32.165   0.948
36390W        W 1617   0.835  35.439  12.190
36391W        W 1618   4.659   3.931   1.306
36392W        W 1619  36.329   3.719   1.375
36393W        W 1620  29.098  32.918  11.833
36394W        W 1621  35.149  38.976   3.810
36395W        W 1622   7.922  24.061  11.514
36396W        W 1623   0.371  14.518   3.344
36397W        W 1624  29.555  39.938   0.274
36398W        W 1625  38.056   9.462   1.317
36399W        W 1626  41.876  23.351   2.800
36400W        W 1627  27.689   6.310   3.833
36401W        W 1628   2.935  28.049  12.695
36402W        W 1629  16.997  30.908  12.902
36403W        W 1630  15.842  30.973  13.773
36404W        W 1631  24.559   7.285   2.223
36405W        W 1632  22.698  32.857  12.361
36406W        W 1633  19.640   1.049   0.188
36407W        W 1634  34.817  31.497   0.814
36408W        W 1635  43.240  25.129  13.580
36409W        W 1636  15.781  27.566   2.357
36410W        W 1637  34.515  36.662  13.557
36411W        W 1638  27.670  24.736  12.032
36412W        W 1639  36.238  16.072  12.497
36413W        W 1640  38.781  18.104   3.636
36414W        W 1641   5.426  37.124   2.267
36415W        W 1642   7.750  24.524  14.286
36416W        W 1643  38.505  36.151  12.130
36417W        W 1644  14.697   2.771   0.352
36418W        W 1645  29.088  10.229  11.550
36419W        W 1646  21.914   1.420  13.726
36420W        W 1647  27.031  26.415   1.927
36421W        W 1648  10.906  21.134   2.832
36422W        W 1649  41.281  19.717  12.029
36423W        W 1650   4.076  29.341   2.542
36424W        W 1651  11.404  22.503   0.799
36425W        W 1652   7.365  17.832  14.890
36426W        W 1653  27.591  39.821   3.684
36427W        W 1654  20.297  12.687   0.009
36428W        W 1655  44.217  23.546   2.296
36429W        W 1656  25.163  12.470   0.987
36430W        W 1657  40.411  21.592  11.846
36431W        W 1658  40.037   4.144   4.921
36432W        W 1659  14.550  23.248   4.629
36433W        W 1660  10.756  27.301  13.322
36434W        W 1661   5.445  25.822  12.640
36435W        W 1662  15.771  42.525  12.864
36436W        W 1663  35.235  16.444   2.840
36437W        W 1664  19.599  17.169  14.769
36438W        W 1665   7.385  11.265   0.572
36439W        W 1666  10.062  14.179  14.795
36440W        W 1667  14.779  25.136   1.300
36441W        W 1668   2.128  18.699   2.004
36442W        W 1669  40.548   9.843   1.281
36443W        W 1670  35.412  21.604   2.736
36444W        W 1671  12.790  13.271  14.862
36445W        W 1672  34.647   6.302  10.698
36446W        W 1673  38.670  28.694   2.289
36447W        W 1674  13.917   8.420   0.916
36448W        W 1675  10.703  26.202   3.255
36449W        W 1676  17.652  44.310   2.370
36450W        W 1677   4.146  33.524   3.763
36451W        W 1678  36.287   6.804   1.852
36452W        W 1679  28.533  40.959   1.626
36453W        W 1680   6.097  37.047   1.809
36454W        W 1681  21.243  34.366  14.312
36455W        W 1682  32.600  33.989   0.401
36456W        W 1683  20.549  40.300   2.437
36457W        W 1684  43.754  16.657  14.423
36458W        W 1685  13.801  12.393   1.778
36459W        W 1686  29.084  23.019   2.352
36460W        W 1687  40.785   9.367  14.577
36461W        W 1688  29.782  11.851  12.530
36462W        W 1689  14.272  22.142  11.695
36463W        W 1690  14.623  31.119  14.284
36464W        W 1691  19.919  16.601   2.985
36465W        W 1692  15.205  43.261  11.509
36466W        W 1693  14.322  19.922   2.334
36467W        W 1694  22.016  35.526   4.582
36468W        W 1695  16.078   7.396   4.083
36469W        W 1696  27.562  26.728   1.401
36470W        W 1697  33.838  19.552  11.590
36471W        W 1698  31.606   5.803  10.711
36472W        W 1699   7.710  13.864   0.972
36473W        W 1700  28.397  40.639   2.428
36474W        W 1701  39.720  37.844  11.013
36475W        W 1702  13.841   3.260  11.170
36476W        W 1703   0.440  27.505  12.495
36477W        W 1704  26.519  32.888   3.728
36478W        W 1705  11.562   8.086  11.090
36479W        W 1706  22.230  15.739  13.773
36480W        W 1707   4.662  39.875   2.807
36481W        W 1708  43.663  44.585  10.165
36482W        W 1709   1.252  40.441   1.920
36483W        W 1710  25.497   5.804   1.897
36484W        W 1711  29.718  36.376   2.540
36485W        W 1712  31.706  35.204   2.419
36486W        W 1713   9.419  35.692   2.917
36487W        W 1714  36.279  34.027   3.908
36488W        W 1715  21.140  23.021  11.442
36489W        W 1716  22.757  24.472   1.925
36490W        W 1717  40.874   0.516   0.433
36491W        W 1718  14.303  14.743  14.713
36492W        W 1719  25.041  31.398  12.752
36493W        W 1720  20.018   8.145   4.068
36494W        W 1721   6.766  36.145  13.519
36495W        W 1722  40.579  17.748   4.178
36496W        W 1723  40.584   8.296   2.734
36497W        W 1724   2.760  44.501  14.292
36498W        W 1725  29.938  20.291  12.887
36499W        W 1726  14.664  39.018   2.137
36500W        W 1727   5.461  29.104   4.596
36501W        W 1728   1.340  40.870  14.154
36502W        W 1729  41.442  43.721  11.090
36503W        W 1730  21.240   6.480   4.156
36504W        W 1731  35.964   3.883  10.671
36505W        W 1732   5.780   1.825  12.683
36506W        W 1733  17.301  36.229  10.954
36507W        W 1734  44.104  16.068   1.910
36508W        W 1735  13.701  29.366  14.781
36509W        W 1736  13.777  21.999  13.078
36510W        W 1737  19.161  34.924   0.328
36511W        W 1738   6.071  23.022   4.342
36512W        W 1739  42.158  21.113  14.086
36513W        W 1740   7.490  43.957  10.927
36514W        W 1741  34.598  25.261   1.930
36515W        W 1742  10.570  32.954  11.739
36516W        W 1743   1.256   8.767   2.154
36517W        W 1744  17.585  12.351  12.463
36518W        W 1745   1.685  41.468   2.690
36519W        W 1746  41.631  28.572  12.406
36520W        W 1747   3.251  30.961   2.506
36521W        W 1748   3.198  13.398  14.932
36522W        W 1749  12.811  18.002   4.806
36523W        W 1750  33.744  31.003   3.700
36524W        W 1751   3.072  13.723   1.779
36525W        W 1752  31.954  29.958  13.909
36526W        W 1753   2.926  31.625   4.111
36527W        W 1754  11.217  16.711   0.899
36528W        W 1755  39.376  12.385  12.125
36529W        W 1756  16.661   3.193   1.376
36530W        W 1757  34.490  16.424   0.403
36531W        W 1758  41.990  33.229   1.854
36532W        W 1759  23.153   5.807  12.113
36533W        W 1760  44.354  24.688   4.902
36534W        W 1761  27.883  22.266  13.333
36535W        W 1762   1.238  42.391   1.418
36536W        W 1763  31.086  35.825   0.552
36537W        W 1764  33.567  14.746  13.347
36538W        W 1765  11.818  18.666   2.804
36539W        W 1766   6.972   1.539   3.797
36540W        W 1767  23.475   5.766   1.410
36541W        W 1768   6.344  26.659   1.354
36542W        W 1769  13.976  15.286  12.503
36543W        W 1770  42.370  40.545   2.399
36544W        W 1771   4.419   0.528   3.003
36545W        W 1772  20.981   5.413  11.441
36546W        W 1773  37.970  28.147  10.107
36547W        W 1774  35.377   7.758  11.393
36548W        W 1775  14.131  32.953   1.248
36549W        W 1776  34.125   2.852  12.403
36550W        W 1777  43.425  35.484   1.752
36551W        W 1778  26.058  34.923   4.237
36552W        W 1779  44.326  10.206  14.953
36553W        W 1780  26.596   3.209   3.341
36554W        W 1781  19.620   5.860   2.919
36555W        W 1782  28.558  12.412   2.228
36556W        W 1783   6.305  29.447   1.853
36557W        W 1784   9.853  33.589   1.213
36558W        W 1785   8.298  25.185   0.683
36559W        W 1786  38.564  25.169  11.136
36560W        W 1787   0.303  21.261  12.780
36561W        W 1788   3.707  24.357   5.070
36562W        W 1789  25.273  10.693   0.396
36563W        W 1790  39.850  29.021   0.531
36564W        W 1791  26.510  37.597   1.000
36565W        W 1792  33.068  24.967   3.142
36566W        W 1793  28.092   1.475  12.121
36567W        W 1794  30.659  25.407   1.784
36568W        W 1795  13.077  44.457   0.885
36569W        W 1796  29.921  12.323   2.744
36570W        W 1797  32.566   7.051   2.334
36571W        W 1798  16.666  30.069   3.979
36572W        W 1799  11.765  20.575   1.852
36573W        W 1800  25.181   7.879   4.181
36574W        W 1801  30.349  41.467  10.836
36575W        W 1802  11.674  21.466   3.786
36576W        W 1803  30.066  36.613  13.268
36577W        W 1804  25.224  38.276   0.263
36578W        W 1805  43.564  43.917   0.997
36579W        W 1806  23.153  33.174  14.965
36580W        W 1807  17.850  26.355  14.016
36581W        W 1808  19.560  30.864  14.919
36582W        W 1809  34.938  22.555  13.877
36583W        W 1810  31.095  41.983  10.820
36584W        W 1811  18.276  26.692  13.930
36585W        W 1812   8.398   4.206   3.122
36586W        W 1813  25.869  33.954   4.209
36587W        W 1814  43.489  35.908   4.532
36588W        W 1815  26.731   2.568   4.253
36589W        W 1816  22.105  11.888  10.736
36590W        W 1817   6.452   4.723   0.155
36591W        W 1818  43.395  43.984  13.550
36592W        W 1819   7.600  27.159  13.084
36593W        W 1820   7.366  22.254  11.977
36594W        W 1821   3.059  44.101  11.790
36595W        W 1822  42.273  41.980  14.829
36596W        W 1823  11.216  17.489   3.121
36597W        W 1824   9.850  26.990   2.595
36598W        W 1825  39.905  29.944  13.144
36599W        W 1826   8.164  29.915  11.160
36600W        W 1827   3.009  19.153   2.853
36601W        W 1828   2.275  31.057   1.721
36602W        W 1829  17.119   8.134  14.871
36603W        W 1830  31.101   3.272  10.556
36604W        W 1831   0.011  14.731   0.385
36605W        W 1832  19.515   4.361  11.507
36606W        W 1833  30.653   1.463   2.430
36607W        W 1834  32.117  41.758  14.421
36608W        W 1835  31.286  36.969  14.002
36609W        W 1836   0.984  20.742   3.739
36610W        W 1837  20.699  30.573   4.109
36611W        W 1838  23.972  37.145  11.167
36612W        W 1839  16.859  33.014   1.589
36613W        W 1840   2.329  22.674   3.901
36614W        W 1841  14.117   7.773  12.822
36615W        W 1842  16.483  22.079   4.698
36616W        W 1843  24.087  24.756   1.841
36617W        W 1844   8.107   6.534   4.117
36618W        W 1845  34.746  39.869  13.578
36619W        W 1846   8.280  33.871   2.739
36620W        W 1847  43.868  12.067   3.562
36621W        W 1848  37.973  32.808   0.896
36622W        W 1849  39.393   0.213   1.327
36623W        W 1850  18.506  23.342   2.585
36624W        W 1851  33.195  34.372  12.453
36625W        W 1852   8.387   7.939  13.415
36626W        W 1853  34.109  31.422  14.410
36627W        W 1854  39.278  36.756   2.836
36628W        W 1855  40.088   1.494  14.331
36629W        W 1856   4.942   9.807   1.281
36630W        W 1857   1.875   8.835   4.267
36631W        W 1858  27.035  36.000  14.691
36632W        W 1859  19.899  37.106   4.338
36633W        W 1860  24.659  39.868   1.837
36634W        W 1861   5.032  17.695   2.731
36635W        W 1862  27.594  36.419   3.263
36636W        W 1863  26.052  18.813   3.180
36637W        W 1864  40.535   6.194  14.778
36638W        W 1865   9.318  22.624  11.598
36639W        W 1866  20.598  19.703  14.924
36640W        W 1867   0.629  25.226   2.686
36641W        W 1868  44.723  36.377   3.170
36642W        W 1869  28.701  14.178  12.602
36643W        W 1870   0.510  11.656  14.885
36644W        W 1871  43.530  39.908   1.563
36645W        W 1872  34.460   2.500   4.605
36646W        W 1873  31.875   2.656  11.136
36647W        W 1874  29.578  35.029  14.677
36648W        W 1875  42.224  27.612   4.187
36649W        W 1876  25.500  10.109  10.662
36650W        W 1877  28.606   0.891  10.083
36651W        W 1878  26.636  19.952  12.560
36652W        W 1879   0.641  40.380  10.677
36653W        W 1880   2.428   8.820   3.390
36654W        W 1881  34.032  27.976   9.785
36655W        W 1882  20.082  41.527   0.203
36656W        W 1883  14.331  38.502  11.761
36657W        W 1884  15.355  11.656  14.773
36658W        W 1885  25.146  38.550  14.444
36659W        W 1886  43.937  22.638  13.512
36660W        W 1887   0.336  43.984   5.074
36661W        W 1888  10.820  38.956   3.670
36662W        W 1889  34.063  25.933   3.617
36663W        W 1890  44.138  25.453  10.770
36664W        W 1891  25.587   3.323   4.100
36665W        W 1892  36.867   2.248   0.251
36666W        W 1893  30.478   3.676  10.721
36667W        W 1894  37.698  43.155  10.914
36668W        W 1895  17.788  24.674  12.525
36669W        W 1896  41.440   5.371  12.061
36670W        W 1897  41.805  11.632   4.513
36671W        W 1898  26.124  15.221   2.234
36672W        W 1899  44.886  28.011   3.672
36673W        W 1900  28.652  37.417  13.931
36674W        W 1901  37.266  20.034   3.680
36675W        W 1902  24.499  44.312  14.085
36676W        W 1903  43.126  10.269   1.145
36677W        W 1904  10.142  30.387  14.721
36678W        W 1905  42.860  10.979  10.982
36679W        W 1906  29.303  33.357  13.974
36680W        W 1907  12.305   3.828  12.856
36681W        W 1908  25.156   6.647  13.501
36682W        W 1909  21.572  40.460   4.647
36683W        W 1910  24.113  30.376  14.212
36684W        W 1911  18.056  14.861   2.650
36685W        W 1912  10.677  44.836  11.378
36686W        W 1913   3.163   4.421   1.233
36687W        W 1914  14.245  17.770   4.641
36688W        W 1915  36.130  31.601  12.385
36689W        W 1916  14.799  43.846  14.072
36690W        W 1917   9.614  14.088   0.060
36691W        W 1918   5.355  32.861  14.045
36692W        W 1919   3.200  11.362   3.253
36693W        W 1920  30.516  35.283   4.650
36694W        W 1921  20.338  43.090  12.532
36695W        W 1922   5.313  25.278   3.707
36696W        W 1923  35.416  37.363  12.817
36697W        W 1924  34.409  30.208   4.534
36698W        W 1925  16.753  38.944   2.671
36699W        W 1926  27.650   5.656  13.730
36700W        W 1927  38.554  10.325   3.232
36701W        W 1928  44.816   2.756   0.500
36702W        W 1929  39.846  30.096   4.302
36703W        W 1930  27.555  37.464  13.594
36704W        W 1931  12.672  38.348   0.303
36705W        W 1932  26.794  24.703   3.800
36706W        W 1933  23.291  33.277   1.939
36707W        W 1934  37.967   4.401   3.607
36708W        W 1935  25.488  35.204  14.516
36709W        W 1936  36.435  19.555  14.890
36710W        W 1937  30.436  28.608   2.406
36711W        W 1938   3.562  36.537   1.954
36712W        W 1939  35.531   2.735   2.158
36713W        W 1940  34.123  40.284  12.044
36714W        W 1941   4.810   5.967   3.009
36715W        W 1942  39.301  21.068  13.115
36716W        W 1943  36.029  31.029  11.568
36717W        W 1944   8.203  44.697   2.151
36718W        W 1945  16.562   4.614  11.047
36719W        W 1946  43.704  29.080  14.398
36720W        W 1947   1.234  36.278   4.101
36721W        W 1948  30.832  35.844  14.689
36722W        W 1949   3.008  31.506   0.837
36723W        W 1950  30.102  38.671  12.114
36724W        W 1951  33.472   1.287  13.522
36725W        W 1952  12.679  33.231   2.753
36726W        W 1953  38.013  39.564   3.832
36727W        W 1954  18.518  38.242  11.611
36728W        W 1955  26.438  16.667  10.520
36729W        W 1956  34.809  21.959  12.101
36730W        W 1957  35.889  40.005  14.415
36731W        W 1958  22.258  32.365   4.352
36732W        W 1959  35.778   5.700   4.668
36733W        W 1960  29.533  29.286   0.924
36734W        W 1961  11.314  21.081   0.996
36735W        W 1962  42.319  33.843   4.026
36736W        W 1963  11.150  39.874   3.611
36737W        W 1964  20.305  36.488  11.670
36738W        W 1965  22.693  31.614  14.314
36739W        W 1966  12.560  16.125  12.129
36740W        W 1967  26.851  33.475  10.451
36741W        W 1968   2.539   6.270  13.731
36742W        W 1969  37.342  15.166   0.866
36743W        W 1970  12.159  42.394   0.212
36744W        W 1971  31.422  37.970   2.146
36745W        W 1972  43.479  19.205   0.955
36746W        W 1973  10.135  29.842   2.387
36747W        W 1974  29.435  32.416  12.503
36748W        W 1975  16.892  16.556  11.069
36749W        W 1976   0.592   7.643  10.396
36750W        W 1977   2.553  33.868   2.155
36751W        W 1978  17.068   8.746  12.447
36752W        W 1979   8.650   9.963   1.820
36753W        W 1980   4.281  11.899  12.450
36754W        W 1981  28.661  18.809   1.639
36755W        W 1982  20.012  35.293   3.342
36756W        W 1983  44.890  40.655   3.092
36757W        W 1984  26.228  31.645   3.236
36758W        W 1985   4.654  12.564   4.508
36759W        W 1986  12.158  37.808   1.284
36760W        W 1987   3.502   1.855  11.470
36761W        W 1988  31.629  16.061   0.436
36762W        W 1989   1.944  13.166  14.397
36763W        W 1990  34.163   5.520   2.705
36764W        W 1991  23.492   5.433   2.520
36765W        W 1992  35.641  41.217  12.606
36766W        W 1993  12.836  12.587  10.606
36767W        W 1994  44.979  15.804  10.605
36768W        W 1995  36.937  30.684   1.594
36769W        W 1996  11.375  40.554   2.274
36770W        W 1997  22.134   9.381   1.788
36771W        W 1998  41.086  30.010  14.759
36772W        W 1999  34.884  12.551  10.808
36773W        W 2000   1.437  33.171   4.860
36774W        W 2001  28.496  43.482  13.540
36775W        W 2002   6.368  35.868  10.247
36776W        W 2003  18.614  44.264   4.529
36777W        W 2004  33.419  37.873  12.030
36778W        W 2005  37.298   8.929   4.935
36779W        W 2006  30.485   6.883   0.329
36780W        W 2007  11.902  28.231  13.011
36781W        W 2008   4.643  23.950   1.640
36782W        W 2009  28.208  35.462  13.053
36783W        W 2010  30.039  44.246   4.759
36784W        W 2011  15.413  26.133   4.173
36785W        W 2012  29.001  24.517   4.542
36786W        W 2013  42.378  12.882  14.349
36787W        W 2014   1.622  13.681   4.637
36788W        W 2015  20.684  13.752  12.966
36789W        W 2016  39.620  42.513  11.416
36790W        W 2017  20.873   4.870   2.923
36791W        W 2018  22.268  26.193   3.663
36792W        W 2019  29.659   0.738  12.570
36793W        W 2020  19.230  11.423  13.589
36794W        W 2021  39.526   3.281  14.313
36795W        W 2022  21.254  22.873  10.436
36796W        W 2023   4.810  20.681   4.393
36797W        W 2024  43.093  43.592   2.671
36798W        W 2025  29.068   3.230  12.113
36799W        W 2026  28.603   8.898  12.393
36800W        W 2027  41.134  43.320  13.462
36801W        W 2028  13.117  10.253  12.431
36802W        W 2029  26.737   3.806   1.618
36803W        W 2030   6.135  43.491  13.965
36804W        W 2031  13.611  15.292  10.939
36805W        W 2032  39.013   1.235   0.871
36806W        W 2033  16.331  44.251   1.338
36807W        W 2034  30.413  34.611  14.018
36808W        W 2035  15.530  22.069  13.889
36809W        W 2036  17.629  34.112  11.235
36810W        W 2037  29.795  19.835   1.307
36811W        W 2038  34.662  26.089   4.053
36812W        W 2039   8.419  43.283   4.168
36813W        W 2040   5.881  27.192   4.727
36814W        W 2041  24.235  40.522  14.963
36815W        W 2042   8.897  16.324   3.325
36816W        W 2043  31.449  28.431   2.369
36817W        W 2044   7.434  28.980   3.788
36818W        W 2045   2.774  20.503   3.198
36819W        W 2046  12.441  12.310   2.539
36820W        W 2047   9.417  32.558   2.445
36821W        W 2048  20.663  36.421   3.406
36822W        W 2049  36.256  32.682   1.485
36823W        W 2050  27.153  12.293   4.143
36824W        W 2051   3.839   3.908   4.450
36825W        W 2052  42.020  32.135  14.774
36826W        W 2053   7.681  13.066  11.077
36827W        W 2054  38.417   9.722  10.845
36828W        W 2055   7.091  18.893  13.142
36829W        W 2056   6.713   1.404  12.918
36830W        W 2057   5.457  36.159   0.522
36831W        W 2058  20.497   0.727   3.134
36832W        W 2059  41.987  41.881   4.460
36833W        W 2060  34.056  23.255  14.457
36834W        W 2061   8.404   8.871   4.035
36835W        W 2062   6.480   0.937   3.118
36836W        W 2063  29.665  34.554  14.497
36837W        W 2064  28.529  38.018  13.900
36838W        W 2065  17.607  44.045  14.888
36839W        W 2066   8.721  28.476  12.066
36840W        W 2067  27.548  41.591   1.244
36841W        W 2068   9.239  12.378  10.936
36842W        W 2069  22.249  40.775   3.702
36843W        W 2070  37.313  10.831  12.511
36844W        W 2071  26.588   7.629  14.357
36845W        W 2072  33.011  41.206   1.028
36846W        W 2073  43.255  26.654  13.001
36847W        W 2074   7.068  18.937  11.979
36848W        W 2075  26.185   0.214  14.362
36849W        W 2076  41.232   7.951  12.423
36850W        W 2077  14.088  11.806   3.692
36851W        W 2078  22.514  35.639  10.739
36852W        W 2079  29.092  35.119   2.295
36853W        W 2080  18.638  42.091   4.010
36854W        W 2081  21.624  40.074   4.296
36855W        W 2082  37.438  12.351   0.883
36856W        W 2083  30.426  26.243  12.603
36857W        W 2084   5.834  11.912  11.082
36858W        W 2085   4.843  34.996  13.633
36859W        W 2086   8.387  22.296  14.330
36860W        W 2087   9.401  21.183  10.283
36861W        W 2088   4.740   7.072   2.290
36862W        W 2089  42.143  35.284  14.498
36863W        W 2090   4.862  16.050  11.202
36864W        W 2091  13.253  33.576  11.940
36865W        W 2092  43.309   8.595  12.623
36866W        W 2093  11.304  27.823   1.359
36867W        W 2094  42.227  24.111  11.141
36868W        W 2095   5.795  20.316  11.989
36869W        W 2096  27.976  14.826  10.373
36870W        W 2097  13.115  25.906  12.061
36871W        W 2098  24.940   0.946   1.956
36872W        W 2099  33.651  22.439   0.320
36873W        W 2100  31.841  38.155  14.020
36874W        W 2101  20.111  42.448   2.339
36875W        W 2102  13.763  21.479   1.895
36876W        W 2103   7.374  23.046  12.277
36877W        W 2104  37.536  35.493   4.507
36878W        W 2105  17.250  27.991  14.933
36879W        W 2106   2.194  35.089   2.290
36880W        W 2107  32.467  29.072   2.073
36881W        W 2108  22.239   4.758  12.573
36882W        W 2109  17.496  29.602  10.797
36883W        W 2110  44.987   8.646  11.807
36884W        W 2111  26.407  40.078   4.064
36885W        W 2112  19.989  43.384   0.489
36886W        W 2113  35.345  11.734  12.383
36887W        W 2114  18.988  21.237  11.192
36888W        W 2115  34.846   8.704  13.524
36889W        W 2116  19.084  16.722   0.897
36890W        W 2117  12.776  12.043  12.585
36891W        W 2118  19.567  24.631   4.159
36892W        W 2119  11.064  44.989   2.229
36893W        W 2120  31.553  23.764   4.600
36894W        W 2121  27.723  41.586  10.646
36895W        W 2122   3.836  15.748  13.365
36896W        W 2123  43.581  17.736   4.965
36897W        W 2124  36.507   8.577   3.162
36898W        W 2125   6.908  39.606   1.943
36899W        W 2126  23.930  28.972  10.330
36900W        W 2127   0.686  30.959  12.296
36901W        W 2128  34.794  29.214  11.656
36902W        W 2129  22.159  34.003  14.825
36903W        W 2130  23.601  12.070  13.930
36904W        W 2131  30.069  11.375  10.872
36905W        W 2132  35.964  30.898   4.107
36906W        W 2133  37.603  23.245  13.251
36907W        W 2134  29.608  35.592   3.602
36908W        W 2135  21.985  43.402  11.646
36909W        W 2136  10.977  11.380  14.718
36910W        W 2137  40.449  31.645   3.658
36911W        W 2138   8.679  40.124  14.001
36912W        W 2139  23.291  14.853  14.070
36913W        W 2140  23.203   6.206   2.887
36914W        W 2141  17.131   1.909   2.752
36915W        W 2142  19.264  14.804   2.474
36916W        W 2143  38.579  11.195  14.532
36917W        W 2144  41.361  38.484   0.262
36918W        W 2145  32.888  33.721  11.148
36919W        W 2146   1.677  13.226   0.771
36920W        W 2147  19.615  32.383   3.266
36921W        W 2148  40.699   9.654  11.019
36922W        W 2149  27.884   8.272   2.580
36923W        W 2150  20.549  44.512   2.679
36924W        W 2151  14.330  32.248  11.231
36925W        W 2152   6.224   7.198  14.934
36926W        W 2153  41.404  34.096   1.828
36927W        W 2154  37.296  44.320  10.898
36928W        W 2155  37.957  27.902  14.263
36929W        W 2156  28.630  13.719   2.462
36930W        W 2157   5.724  22.614   4.373
36931W        W 2158  31.859  10.184  11.137
36932W        W 2159  18.476   8.705   2.759
36933W        W 2160  25.700  30.344  14.023
36934W        W 2161   7.561  21.196  14.500
36935W        W 2162  16.590  24.660   3.331
36936W        W 2163   4.417  16.728  10.200
36937W        W 2164  25.633  26.432  14.951
36938W        W 2165  10.284  43.403   0.205
36939W        W 2166  22.182   4.263  12.123
36940W        W 2167  26.488  20.859  13.552
36941W        W 2168  19.719  44.050   3.046
36942W        W 2169   4.712   8.757   2.140
36943W        W 2170  18.467  37.384  13.456
36944W        W 2171  35.925  32.809  11.875
36945W        W 2172   1.974  18.301   4.241
36946W        W 2173   5.700  33.904   0.452
36947W        W 2174   7.468  15.644   2.285
36948W        W 2175  37.806  38.018  10.735
36949W        W 2176  43.568  17.242   2.906
36950W        W 2177  38.962  10.961   2.282
36951W        W 2178   2.865  15.991  14.549
36952W        W 2179   8.133  19.385  11.172
36953W        W 2180   6.167   0.322   1.959
36954W        W 2181  13.719  39.911   1.511
36955W        W 2182  38.146  32.499   0.517
36956W        W 2183   7.734  18.528  14.498
36957W        W 2184  39.280  28.491  11.570
36958W        W 2185  25.575  44.967   0.772
36959W        W 2186  44.344  20.123   1.530
36960W        W 2187   9.363  31.563  12.432
36961W        W 2188  25.195  19.317  13.788
36962W        W 2189  14.016  10.162  11.502
36963W        W 2190   3.234  31.186  12.451
36964W        W 2191   0.213  37.635   3.648
36965W        W 2192  43.856  41.563   4.708
36966W        W 2193  33.337  17.601  11.676
36967W        W 2194  10.044  25.244  13.985
36968W        W 2195  16.546  42.294  12.114
36969W        W 2196  10.378  20.939   2.179
36970W        W 2197  19.161  25.880  14.817
36971W        W 2198   6.830  19.208  11.136
36972W        W 2199  21.726  33.075   4.267
36973W        W 2200  13.804  43.439  13.035
36974W        W 2201   6.429  14.842   2.798
36975W        W 2202  16.213  36.964   1.946
36976W        W 2203  28.066  19.739   0.817
36977W        W 2204  26.538  24.209  13.866
36978W        W 2205   5.311  24.644   3.131
36979W        W 2206   1.700  38.779   0.220
36980W        W 2207  21.378  16.155   0.821
36981W        W 2208  32.533  34.104  11.280
36982W        W 2209  26.089  16.289   0.680
36983W        W 2210  26.577  22.468  14.500
36984W        W 2211   2.887  41.377   1.713
36985W        W 2212  32.171  40.137  14.904
36986W        W 2213  34.750  31.589  11.992
36987W        W 2214   5.363  13.607   0.785
36988W        W 2215  19.118  18.261   1.734
36989W        W 2216   7.599  37.026   3.311
36990W        W 2217  33.603  12.879   2.562
36991W        W 2218  20.183  25.405  13.047
36992W        W 2219  39.548  10.923  12.088
36993W        W 2220  15.815  33.146  14.890
36994W        W 2221  40.894  40.814   0.364
36995W        W 2222  23.333   6.187  10.488
36996W        W 2223   2.819  35.492  11.233
36997W        W 2224   0.640   7.886  14.035
36998W        W 2225  12.863  43.008  11.127
36999W        W 2226  37.996  32.520   1.340
37000W        W 2227  39.199  34.383   2.293
37001W        W 2228  36.818  38.786   2.316
37002W        W 2229  23.519   7.628   4.511
37003W        W 2230  43.246   2.802  14.441
37004W        W 2231  32.837   8.923   1.296
37005W        W 2232  27.498   1.019  14.560
37006W        W 2233  21.111  13.108   4.555
37007W        W 2234  17.922  41.116   2.709
37008W        W 2235  38.581  43.575  12.117
37009W        W 2236  38.851  43.672   3.659
37010W        W 2237  12.805  33.474  13.217
37011W        W 2238  14.958   3.966  13.346
37012W        W 2239   3.384  14.540  13.530
37013W        W 2240  21.112  21.742  14.248
37014W        W 2241  38.868  15.647   1.496
37015W        W 2242  16.752  31.083  13.322
37016W        W 2243  16.597  43.483  13.099
37017W        W 2244  39.562  18.408   1.935
37018W        W 2245  20.250  39.416   2.685
37019W        W 2246  39.192  17.130   5.450
37020W        W 2247  29.870  43.353   3.725
37021W        W 2248  22.207  32.926  11.033
37022W        W 2249   4.895  11.834  10.741
37023W        W 2250  42.278  12.074   2.419
37024W        W 2251  17.783  41.401   0.333
37025W        W 2252  13.455  39.882   4.497
37026W        W 2253  43.819  44.731  14.603
37027W        W 2254  16.036  35.973   1.477
37028W        W 2255   1.521   3.027   4.256
37029W        W 2256  25.990  10.185   4.474
37030W        W 2257  27.600  18.209  12.633
37031W        W 2258  33.372  16.234  11.147
37032W        W 2259   2.484  11.372   9.715
37033W        W 2260  29.952   5.968  11.456
37034W        W 2261  12.111  12.014   3.893
37035W        W 2262   6.227  28.552   3.754
37036W        W 2263  30.466  39.287  14.917
37037W        W 2264  36.895  35.285   1.477
37038W        W 2265   0.705  15.101   0.764
37039W        W 2266  15.128   7.125  14.944
37040W        W 2267  23.222  30.090   1.857
37041W        W 2268  16.110  32.647   4.106
37042W        W 2269  11.422   9.893  11.173
37043W        W 2270  15.600  19.609  10.338
37044W        W 2271  11.937  30.062  12.554
37045W        W 2272  26.576  15.610   4.601
37046W        W 2273   6.639   8.836  12.631
37047W        W 2274  30.635  32.628   1.051
37048W        W 2275   9.176  42.056  14.575
37049W        W 2276   8.370   0.862   1.358
37050W        W 2277  36.053  41.334   2.314
37051W        W 2278  35.517  34.387   2.947
37052W        W 2279   5.407  23.652   4.121
37053W        W 2280  28.228  32.674  11.480
37054W        W 2281   4.627  42.476   2.749
37055W        W 2282  22.586  21.274  14.205
37056W        W 2283  24.851  19.123  13.473
37057W        W 2284   1.833  24.975  13.284
37058W        W 2285  27.228  18.186  11.176
37059W        W 2286  13.570   5.023   2.256
37060W        W 2287   9.747   1.241  12.506
37061W        W 2288  40.077  27.739  11.502
37062W        W 2289  22.523   0.376  13.918
37063W        W 2290  17.577  36.910   3.818
37064W        W 2291   9.321  24.170  13.462
37065W        W 2292   3.289  42.376  14.203
37066W        W 2293   5.934   0.755   1.813
37067W        W 2294  39.939  24.033  12.856
37068W        W 2295  27.059  29.933  11.899
37069W        W 2296  37.259   3.977  10.457
37070W        W 2297  20.077   2.667  13.450
37071W        W 2298  43.416  37.853   4.168
37072W        W 2299   0.659   2.601  14.196
37073W        W 2300  24.914  39.377   3.314
37074W        W 2301   7.114  26.633   1.934
37075W        W 2302  18.975  26.361   4.402
37076W        W 2303  35.314  44.902  11.387
37077W        W 2304  44.095  33.677  11.087
37078W        W 2305  16.645  27.653  11.566
37079W        W 2306  13.327  11.210   3.614
37080W        W 2307  21.154  23.390  10.586
37081W        W 2308   3.728  36.355  12.441
37082W        W 2309   0.998  31.574   2.821
37083W        W 2310  11.513  37.950   2.926
37084W        W 2311  26.659  41.825  12.028
37085W        W 2312  35.524   4.976  13.017
37086W        W 2313  26.925  18.247   4.937
37087W        W 2314  11.729  25.050   2.122
37088W        W 2315  38.560   0.261   2.018
37089W        W 2316  42.570  11.365   3.737
37090W        W 2317  18.346   5.415  11.234
37091W        W 2318  40.880  19.243   3.224
37092W        W 2319  25.090  37.354   3.178
37093W        W 2320  27.427   5.842  11.607
37094W        W 2321  18.156  30.992   2.318
37095W        W 2322  17.184  28.385  10.783
37096W        W 2323  43.825  10.744  13.613
37097W        W 2324  24.078   1.535  14.091
37098W        W 2325  44.276  13.712   3.761
37099W        W 2326   2.996  44.471  12.240
37100W        W 2327   3.027  34.372   3.743
37101W        W 2328  33.777  18.647   0.379
37102W        W 2329  11.740  13.047   4.634
37103W        W 2330  18.647  13.715  11.532
37104W        W 2331   3.841  38.017   3.022
37105W        W 2332  10.393  25.250   2.297
37106W        W 2333   3.611   2.225  14.829
37107W        W 2334  26.480  29.199  12.076
37108W        W 2335  35.767  19.635   4.694
37109W        W 2336  25.092  44.214   2.221
37110W        W 2337  41.001  18.310   3.533
37111W        W 2338  40.733  24.995   1.715
37112W        W 2339  27.021  43.831   3.149
37113W        W 2340  18.180  14.308  13.583
37114W        W 2341  11.444   7.324  13.047
37115W        W 2342  43.915  27.443   0.918
37116W        W 2343   6.849  14.949  13.881
37117W        W 2344  44.483  35.877   4.172
37118W        W 2345   0.859   5.779  11.207
37119W        W 2346   8.374   0.731   2.218
37120W        W 2347  24.662  38.823  10.692
37121W        W 2348   2.267  36.313   3.230
37122W        W 2349  11.937  44.540   4.523
37123W        W 2350  28.806  42.747  11.442
37124W        W 2351  26.049  19.158  14.782
37125W        W 2352  38.400  34.328   0.378
37126W        W 2353   8.249  40.873  12.479
37127W        W 2354  24.422  16.731   1.827
37128W        W 2355  26.519  16.240  10.794
37129W        W 2356  28.980  44.608  11.515
37130W        W 2357   2.867  14.019  14.416
37131W        W 2358   0.909  40.424  11.989
37132W        W 2359  29.124  43.330   4.110
37133W        W 2360  24.074  14.317  10.663
37134W        W 2361   1.209  39.093  12.152
37135W        W 2362   2.525  15.483  11.166
37136W        W 2363  13.244  44.438  12.464
37137W        W 2364  35.055  25.730   1.501
37138W        W 2365  27.659  36.312   2.332
37139W        W 2366  16.950  41.475  13.164
37140W        W 2367  35.989  25.573  13.441
37141W        W 2368   9.271  43.967   4.408
37142W        W 2369  43.985  10.441   0.316
37143W        W 2370  17.732  39.860  12.397
37144W        W 2371   0.007  38.991  12.586
37145W        W 2372  11.194  18.731  11.928
37146W        W 2373  34.375   5.282   3.668
37147W        W 2374  10.754  19.923   1.474
37148W        W 2375   1.310  28.674  12.651
37149W        W 2376  36.184   1.538  12.132
37150W        W 2377  12.293  18.772   3.719
37151W        W 2378  13.435  33.023  12.064
37152W        W 2379  40.074   2.912  12.931
37153W        W 2380  25.959  18.061  11.585
37154W        W 2381  15.342  28.492   0.788
37155W        W 2382  11.331  10.913  12.041
37156W        W 2383  19.140  42.720  12.384
37157W        W 2384  26.590  28.236   0.294
37158W        W 2385  36.050   4.296   3.178
37159W        W 2386  17.978  21.268   1.384
37160W        W 2387  12.897  17.671  13.019
37161W        W 2388  12.806   9.774   1.807
37162W        W 2389  24.781  13.361  14.881
37163W        W 2390   0.561  23.854  12.559
37164W        W 2391  20.364  15.652   4.137
37165W        W 2392  15.309  42.454   1.444
37166W        W 2393   6.625   3.340   3.678
37167W        W 2394   7.826  26.634   2.346
37168W        W 2395   8.401  35.569  11.724
37169W        W 2396  13.074   6.377  13.522
37170W        W 2397  40.620   8.475  12.998
37171W        W 2398   4.821  23.652  14.557
37172W        W 2399  39.245  33.002  10.591
37173W        W 2400  37.453   9.060   4.055
37174W        W 2401   5.498   7.969   3.670
37175W        W 2402   6.435  23.105   3.977
37176W        W 2403   9.760  37.111  14.279
37177W        W 2404  30.201   8.368  12.110
37178W        W 2405   7.718  29.545  11.937
37179W        W 2406  31.856  32.661   1.672
37180W        W 2407  24.470  37.878  13.403
37181W        W 2408  19.322  27.733   4.665
37182W        W 2409  43.441  22.042  10.381
37183W        W 2410  12.731   4.184   2.701
37184W        W 2411  42.836   4.843  12.976
37185W        W 2412  40.759  14.178  11.941
37186W        W 2413  19.723  11.958   0.798
37187W        W 2414  42.618   5.356  12.847
37188W        W 2415   0.316  43.905  13.880
37189W        W 2416  10.621  39.317   0.277
37190W        W 2417  39.611   6.454  14.341
37191W        W 2418  14.252  42.243  11.925
37192W        W 2419  17.513   1.201  12.528
37193W        W 2420   3.800  34.018  14.313
37194W        W 2421  40.463   5.012  11.604
37195W        W 2422  33.068  24.517  13.662
37196W        W 2423  20.346  23.372   3.742
37197W        W 2424  44.243  12.146  11.965
37198W        W 2425  42.159  29.019  14.403
37199W        W 2426   1.880  12.685   2.346
37200W        W 2427  33.455  31.210   3.344
37201W        W 2428  14.684  10.104   0.558
37202W        W 2429  34.713  12.766   2.803
37203W        W 2430  20.055  44.497  10.599
37204W        W 2431   7.808  25.038  14.341
37205W        W 2432  35.271  28.097   2.583
37206W        W 2433   9.239  38.431   1.618
37207W        W 2434   9.409  13.348  11.538
37208W        W 2435   6.445  43.738   3.767
37209W        W 2436  35.921  43.280  11.684
37210W        W 2437  30.518  30.916  10.730
37211W        W 2438  40.308  10.634  13.390
37212W        W 2439  44.268   4.820  10.538
37213W        W 2440  18.288  33.820  10.535
37214W        W 2441  36.920  33.918   4.324
37215W        W 2442  37.894  16.227   2.317
37216W        W 2443  20.712  40.932   1.706
37217W        W 2444  22.054  18.574  12.526
37218W        W 2445  33.593  34.550  11.679
37219W        W 2446  34.916  18.545  13.965
37220W        W 2447  17.143  34.069   3.800
37221W        W 2448  20.807  37.757   1.824
37222W        W 2449  17.078  12.975   3.046
37223W        W 2450  10.258  37.122   4.672
37224W        W 2451  28.038   3.895  12.365
37225W        W 2452  44.275  25.908   3.277
37226W        W 2453   8.685  20.335   3.162
37227W        W 2454  37.623  16.079   4.244
37228W        W 2455   1.923  11.135  13.353
37229W        W 2456  26.521  31.535  12.869
37230W        W 2457  10.884  13.926   2.099
37231W        W 2458  21.296  25.910   4.172
37232W        W 2459  21.692  41.062  12.204
37233W        W 2460  10.147  26.430  10.790
37234W        W 2461  10.829   2.239  14.506
37235W        W 2462  23.581  12.022   2.862
37236W        W 2463  23.558  27.238  12.661
37237W        W 2464   3.979  38.418   2.727
37238W        W 2465  15.169  26.111   2.896
37239W        W 2466  23.011  43.054  10.314
37240W        W 2467  23.708  33.861  14.957
37241W        W 2468  25.699   2.288   0.734
37242W        W 2469   6.919  12.225  12.537
37243W        W 2470  12.784  38.506  10.727
37244W        W 2471   8.973  10.600   0.930
37245W        W 2472  26.201  37.974   1.772
37246W        W 2473  34.842   0.132  10.714
37247W        W 2474  24.164  17.018  11.834
37248W        W 2475  38.383  24.615   2.936
37249W        W 2476  21.926  13.452   2.569
37250W        W 2477  34.692  22.606   4.294
37251W        W 2478  30.258  19.204  12.933
37252W        W 2479  14.031  13.867  12.595
37253W        W 2480  15.730  39.205   0.370
37254W        W 2481  36.527  37.378  13.944
37255W        W 2482  36.919  34.978   4.741
37256W        W 2483  20.950  36.902  12.361
37257W        W 2484  23.795   0.354  13.313
37258W        W 2485  38.645  21.039   3.178
37259W        W 2486  36.057  22.563   3.761
37260W        W 2487  27.222  13.134  11.904
37261W        W 2488  33.545   1.895  14.786
37262W        W 2489  22.451  11.190   2.421
37263W        W 2490  10.839   8.242  14.717
37264W        W 2491   9.325   3.525   3.719
37265W        W 2492  11.839  28.506  13.454
37266W        W 2493  21.648   1.454   0.287
37267W        W 2494   5.710   5.140  12.298
37268W        W 2495  27.722   0.529   1.136
37269W        W 2496   7.906  32.390   3.662
37270W        W 2497  28.208  34.033   1.265
37271W        W 2498   7.781  23.576  11.578
37272W        W 2499  12.763  44.992   2.675
37273W        W 2500  35.625   4.341  13.778
37274W        W 2501  16.729  43.969  13.110
37275W        W 2502  44.559  34.189  10.535
37276W        W 2503  27.489  22.104   4.921
37277W        W 2504  16.693   6.341  11.494
37278W        W 2505  31.407  44.775   1.282
37279W        W 2506   0.800  22.480   3.179
37280W        W 2507  22.222  22.561   1.359
37281W        W 2508   1.947  18.750  12.092
37282W        W 2509  30.613   6.716   4.599
37283W        W 2510  28.611  22.178   0.803
37284W        W 2511  43.196   1.923  12.576
37285W        W 2512  25.718  29.106  11.685
37286W        W 2513   3.759   4.500   1.896
37287W        W 2514   9.027  12.133   1.424
37288W        W 2515   4.970  21.734   0.779
37289W        W 2516  26.364  19.607   1.346
37290W        W 2517  17.006  16.310   4.184
37291W        W 2518   4.373  38.891   3.346
37292W        W 2519  16.315  24.936  12.849
37293W        W 2520  40.169   8.455   3.683
37294W        W 2521  11.829   3.430  14.521
37295W        W 2522  30.877  19.882   4.958
37296W        W 2523  31.000  21.612  12.437
37297W        W 2524  38.531  35.756   2.790
37298W        W 2525  15.110   4.388   4.615
37299W        W 2526   1.151   5.096  11.693
37300W        W 2527  23.199  11.983   1.351
37301W        W 2528  16.370  37.437   0.316
37302W        W 2529  22.588  43.395   4.150
37303W        W 2530  29.460  10.927  14.014
37304W        W 2531  16.156  22.610   2.425
37305W        W 2532   4.246  23.076  12.170
37306W        W 2533  41.920  29.648   3.072
37307W        W 2534   8.296  19.239   2.147
37308W        W 2535  25.052   3.539  14.441
37309W        W 2536  20.172  31.953   3.334
37310W        W 2537  43.969  24.917   0.950
37311W        W 2538  40.794   0.727   3.353
37312W        W 2539   7.345  38.320  14.355
37313W        W 2540  35.895  28.987  12.870
37314W        W 2541  24.365  37.056  13.882
37315W        W 2542  28.188   4.158  13.455
37316W        W 2543  18.717   8.658  14.390
37317W        W 2544  15.140  43.965  13.292
37318W        W 2545  15.843   1.778   4.211
37319W        W 2546  40.313  23.179  13.330
37320W        W 2547  13.589  22.088   1.383
37321W        W 2548  43.441  25.969  12.403
37322W        W 2549  24.454   8.786  10.588
37323W        W 2550  10.858  38.337   1.277
37324W        W 2551   0.778  11.117  12.032
37325W        W 2552   4.200  34.989  12.245
37326W        W 2553  26.158  15.331   0.339
37327W        W 2554  38.001  12.119  14.410
37328W        W 2555   4.256  33.175   0.891
37329W        W 2556  18.165  15.902  12.574
37330W        W 2557   2.443  10.765  10.301
37331W        W 2558  29.028   7.688  14.026
37332W        W 2559   5.658   7.718   2.711
37333W        W 2560  33.647  27.185   1.773
37334W        W 2561  19.925  30.442  13.395
37335W        W 2562  41.975  17.846  11.409
37336W        W 2563   7.880  20.882   4.056
37337W        W 2564  36.813  44.414   0.798
37338W        W 2565  16.147  28.126  13.366
37339W        W 2566   4.342   1.839   3.832
37340W        W 2567   7.747  11.304  12.671
37341W        W 2568  30.698  26.935  12.974
37342W        W 2569  14.080  22.973  13.284
37343W        W 2570   6.020   2.565   3.590
37344W        W 2571  16.246  42.398  13.846
37345W        W 2572  17.170  25.500   4.609
37346W        W 2573  36.335   6.828  11.520
37347W        W 2574  31.417  31.897   2.004
37348W        W 2575  25.395  25.994   3.039
37349W        W 2576  15.740  29.329   1.902
37350W        W 2577  38.976  16.550  12.608
37351W        W 2578  12.802  39.885   1.349
37352W        W 2579  31.206  11.387  14.293
37353W        W 2580  14.819  29.039   2.746
37354W        W 2581  23.163  35.373   1.941
37355W        W 2582   9.313  32.961   2.139
37356W        W 2583   5.324  14.123   3.185
37357W        W 2584  35.826  22.102   3.705
37358W        W 2585  13.117  19.455  10.965
37359W        W 2586  17.789   8.446   0.324
37360W        W 2587  30.135  35.086  13.997
37361W        W 2588   4.893   3.179   1.884
37362W        W 2589  37.060  43.748   4.564
37363W        W 2590  21.786   1.178   2.811
37364W        W 2591   5.279   9.506  13.323
37365W        W 2592  11.134   1.424   1.664
37366W        W 2593  41.762  38.759  14.130
37367W        W 2594  33.867   5.448   3.771
37368W        W 2595  21.310  11.608   3.087
37369W        W 2596  40.980  32.687  12.398
37370W        W 2597  14.610   6.180  11.173
37371W        W 2598  18.556  25.269  11.152
37372W        W 2599  29.082  16.083   1.461
37373W        W 2600  38.260  31.561  12.558
37374W        W 2601  22.798  23.495   0.187
37375W        W 2602  34.518  12.325   3.639
37376W        W 2603  34.894  19.372   0.422
37377W        W 2604  13.270  35.516  13.276
37378W        W 2605  38.083  17.938   4.927
37379W        W 2606  42.942  25.821  12.417
37380W        W 2607   1.224   9.529   3.931
37381W        W 2608   4.144  21.755   4.148
37382W        W 2609  40.112  19.990  10.419
37383W        W 2610   0.361  43.386  13.956
37384W        W 2611  17.232  18.327  12.552
37385W        W 2612  21.265   8.889  11.563
37386W        W 2613  18.647  19.520   0.295
37387W        W 2614   7.257  43.722   1.291
37388W        W 2615   7.009  39.427  13.492
37389W        W 2616  17.262  33.104   1.967
37390W        W 2617  13.797  20.498   2.886
37391W        W 2618  21.955  32.108  13.266
37392W        W 2619   4.779  33.626  10.475
37393W        W 2620  26.498  39.768   2.364
37394W        W 2621  20.756  32.028   3.687
37395W        W 2622  10.754  23.657  12.668
37396W        W 2623  21.016  37.055  13.863
37397W        W 2624  15.634   7.957   1.738
37398W        W 2625  11.305  40.697   0.218
37399W        W 2626  15.109  20.835   2.573
37400W        W 2627   0.450   5.891   2.368
37401W        W 2628  14.324  31.092  11.091
37402W        W 2629  16.859  32.599  14.361
37403W        W 2630  41.589  41.344  14.285
37404W        W 2631   3.042   6.900   0.303
37405W        W 2632  18.200  43.543   0.593
37406W        W 2633   4.289  24.184  10.689
37407W        W 2634  15.841  29.191  12.230
37408W        W 2635  41.388  41.288  11.031
37409W        W 2636  21.331  30.203   3.567
37410W        W 2637  19.645  13.730  14.947
37411W        W 2638   5.642   5.952   0.158
37412W        W 2639   7.793  34.136   4.265
37413W        W 2640  44.385   9.833  14.298
37414W        W 2641  27.975  30.497   2.933
37415W        W 2642   9.627  40.427   4.580
37416W        W 2643  24.489  41.508   2.239
37417W        W 2644  25.473   3.742   1.957
37418W        W 2645  26.781  37.053  11.694
37419W        W 2646   7.548  32.657   2.699
37420W        W 2647  42.722  44.771   3.637
37421W        W 2648  34.469  36.781   2.923
37422W        W 2649  41.930  13.823  14.340
37423W        W 2650  41.981  32.661  14.747
37424W        W 2651  36.398  35.037   4.637
37425W        W 2652  14.863  32.357   5.040
37426W        W 2653   9.328  34.654  13.903
37427W        W 2654  31.448  13.661   4.122
37428W        W 2655  19.488  38.807   1.740
37429W        W 2656  35.390  37.834  13.376
37430W        W 2657  33.465  31.901   0.894
37431W        W 2658  22.151  25.985  14.203
37432W        W 2659  15.290   8.350  12.469
37433W        W 2660  26.646   0.444  14.310
37434W        W 2661  28.950  28.957   3.276
37435W        W 2662  27.679   8.302   1.905
37436W        W 2663  11.925  38.387  14.952
37437W        W 2664  11.618   9.974  11.638
37438W        W 2665   7.739   6.731   0.425
37439W        W 2666  29.766   4.663  11.178
37440W        W 2667  20.904  19.169  13.376
37441W        W 2668  35.563  41.868   0.243
37442W        W 2669  34.099   9.734  12.418
37443W        W 2670  10.816  29.687  14.930
37444W        W 2671  20.047   7.249  13.639
37445W        W 2672  13.194  10.199  10.676
37446W        W 2673   7.304  23.864   2.604
37447W        W 2674  26.465  40.596   1.895
37448W        W 2675  39.331  33.324   4.595
37449W        W 2676  14.106  19.566  13.441
37450W        W 2677   7.820   9.826   2.670
37451W        W 2678   2.210  41.916  12.911
37452W        W 2679   0.948  11.157  11.546
37453W        W 2680  17.697  31.982   0.718
37454W        W 2681  19.071  28.672  10.653
37455W        W 2682  36.822  16.149  12.634
37456W        W 2683  34.913  24.851   1.214
37457W        W 2684  30.483  36.990   1.213
37458W        W 2685  28.203  38.947   3.630
37459W        W 2686   8.742  27.478  10.544
37460W        W 2687  25.704  19.723  11.841
37461W        W 2688   9.070  15.950  11.285
37462W        W 2689  27.032  18.531  13.082
37463W        W 2690  30.381  18.600   0.344
37464W        W 2691   9.326   8.610  11.359
37465W        W 2692  22.669  37.172   0.738
37466W        W 2693  14.298  17.152   2.703
37467W        W 2694   3.026  23.780   4.693
37468W        W 2695  39.759  41.072   2.824
37469W        W 2696  24.817   8.816  12.007
37470W        W 2697  41.939  22.730  13.994
37471W        W 2698   8.291  32.582  12.109
37472W        W 2699  39.991  36.528   0.541
37473W        W 2700  18.799  17.991  11.691
37474W        W 2701  36.845  17.508   2.678
37475W        W 2702   9.268  10.926  11.161
37476W        W 2703  10.155  27.734  14.027
37477W        W 2704  15.733  12.298   4.397
37478W        W 2705  32.168  36.392  14.894
37479W        W 2706  24.014  29.325   4.291
37480W        W 2707  19.600  16.758   0.946
37481W        W 2708   6.280  23.742  13.249
37482W        W 2709  28.288  37.016  13.052
37483W        W 2710  27.483  38.948  13.977
37484W        W 2711  29.009  13.336   1.271
37485W        W 2712   1.249  10.564   2.653
37486W        W 2713  37.004   0.729  13.445
37487W        W 2714  23.076   7.368   1.935
37488W        W 2715  31.074  16.709  14.574
37489W        W 2716  18.135  34.055   3.345
37490W        W 2717  27.625  35.912   3.348
37491W        W 2718   5.752  15.125   2.338
37492W        W 2719  26.517  30.388  13.756
37493W        W 2720  24.200  43.476   3.919
37494W        W 2721  41.055  29.389  12.943
37495W        W 2722  17.032  42.350   3.141
37496W        W 2723  12.598  14.274  14.883
37497W        W 2724   4.244  38.132   2.152
37498W        W 2725  37.104  33.508  11.876
37499W        W 2726  20.230  15.359   3.724
37500W        W 2727   5.419  40.637  10.629
37501W        W 2728  17.711  30.485   0.226
37502W        W 2729  35.859  16.571   0.449
37503W        W 2730  38.495  27.000  14.361
37504W        W 2731   2.422  16.335   1.686
37505W        W 2732  38.552  23.304  11.194
37506W        W 2733   6.355   3.840  10.434
37507W        W 2734  14.787  15.630   0.398
37508W        W 2735  16.099  14.048   0.167
37509W        W 2736  31.059   4.439  13.982
37510W        W 2737  17.120  35.878   3.335
37511W        W 2738   8.735  42.071  13.012
37512W        W 2739  27.633  36.379  13.782
37513W        W 2740   8.597  32.847   0.058
37514W        W 2741  14.027  17.839  11.648
37515W        W 2742  15.637  33.343   4.572
37516W        W 2743   9.032  18.290  11.273
37517W        W 2744  27.452  33.850   0.900
37518W        W 2745  35.639   1.715  13.430
37519W        W 2746  22.299  24.267   0.225
37520W        W 2747  17.032  22.668  14.710
37521W        W 2748  13.341  40.542   2.340
37522W        W 2749   0.933  14.689  10.585
37523W        W 2750   3.683   3.907  14.100
37524W        W 2751  17.381  41.309   3.127
37525W        W 2752  28.890  28.791  11.171
37526W        W 2753  31.243  35.327  10.277
37527W        W 2754  13.091   1.745  13.847
37528W        W 2755  33.170  32.357   1.450
37529W        W 2756  18.079  42.210  14.231
37530W        W 2757  37.735  19.021  14.826
37531W        W 2758  13.154  30.947  11.555
37532W        W 2759  21.096  19.112  12.077
37533W        W 2760  20.310  21.164   3.634
37534W        W 2761  41.025  34.899  12.046
37535W        W 2762  32.921  27.900  12.042
37536W        W 2763  16.357   3.892  13.828
37537W        W 2764   0.228  36.571   1.362
37538W        W 2765   8.441  34.456   2.110
37539W        W 2766  35.449  15.864   2.126
37540W        W 2767   4.607  37.147   1.260
37541W        W 2768   2.545  26.754   2.255
37542W        W 2769  33.469   0.872  11.703
37543W        W 2770  32.884  11.976  10.714
37544W        W 2771   1.657  10.829  10.982
37545W        W 2772  30.044  25.552   4.940
37546W        W 2773  39.007  29.458   0.880
37547W        W 2774  37.388  14.246  12.475
37548W        W 2775  43.359  29.994  13.748
37549W        W 2776  24.663  39.608   3.923
37550W        W 2777  25.738   5.029  10.545
37551W        W 2778  40.317   3.618  14.908
37552W        W 2779  17.531  12.115  14.449
37553W        W 2780  35.521  10.214   3.588
37554W        W 2781  12.265  44.985   3.074
37555W        W 2782  44.750  39.026  13.913
37556W        W 2783  26.738   8.918   0.368
37557W        W 2784  36.412   9.112   9.957
37558W        W 2785  40.972  33.044  13.096
37559W        W 2786  20.720  33.834  14.941
37560W        W 2787   6.954   2.370  12.366
37561W        W 2788  15.395  12.236   1.779
37562W        W 2789   4.141  43.388  14.320
37563W        W 2790  14.651  32.882   4.080
37564W        W 2791   6.049  33.546   3.221
37565W        W 2792   3.393  28.222   0.663
37566W        W 2793  40.395   4.612  10.284
37567W        W 2794  22.716  43.924   3.860
37568W        W 2795   7.878  29.557  12.510
37569W        W 2796  27.160  27.766  11.536
37570W        W 2797  38.459  31.427   3.689
37571W        W 2798  14.314  13.379  14.360
37572W        W 2799  43.625  18.522   3.910
37573W        W 2800   7.904  16.617  14.715
37574W        W 2801   6.715  12.092   3.880
37575W        W 2802  13.559  17.593  11.674
37576W        W 2803  29.547  42.286   0.106
37577W        W 2804   1.231  43.496  14.038
37578W        W 2805  16.725  31.631   3.329
37579W        W 2806  31.043   0.831   4.866
37580W        W 2807  40.476  40.794   2.425
37581W        W 2808   3.767   0.575  12.989
37582W        W 2809  20.061  30.368   1.625
37583W        W 2810  38.547  44.016  14.934
37584W        W 2811  20.761  27.984   1.956
37585W        W 2812  11.406  35.525   1.864
37586W        W 2813  17.054   7.384  10.581
37587W        W 2814  44.653  26.688  10.296
37588W        W 2815  42.914  22.986   0.048
37589W        W 2816  24.364  35.591  11.128
37590W        W 2817  30.034  19.273   4.164
37591W        W 2818   6.275  16.179   2.251
37592W        W 2819  34.365   9.024  12.114
37593W        W 2820  23.072  24.063  11.648
37594W        W 2821   8.699  19.289   4.363
37595W        W 2822  21.032  43.544   3.308
37596W        W 2823   0.842  40.877  14.369
37597W        W 2824   5.270  43.457  14.924
37598W        W 2825   1.993  21.645  11.261
37599W        W 2826  14.599  25.122   4.173
37600W        W 2827  33.306  21.527  11.068
37601W        W 2828  27.153   5.322  13.795
37602W        W 2829  29.682  12.336  12.617
37603W        W 2830  30.259  29.785   0.413
37604W        W 2831  38.571  34.390  12.364
37605W        W 2832  13.950  34.109  13.710
37606W        W 2833  23.888   7.753  12.369
37607W        W 2834  28.586   5.288   2.661
37608W        W 2835  15.175   7.198   1.754
37609W        W 2836  11.327   5.330   4.674
37610W        W 2837  37.649  40.017   1.270
37611W        W 2838  35.948  41.259  10.749
37612W        W 2839  11.757  15.937   3.177
37613W        W 2840   0.771  35.920  13.462
37614W        W 2841   7.772  12.203   2.321
37615W        W 2842  23.679  44.635   1.404
37616W        W 2843   2.134  14.113   0.639
37617W        W 2844  43.981  27.079   4.397
37618W        W 2845  38.511   4.683   4.641
37619W        W 2846  16.669  32.053  12.676
37620W        W 2847  25.567  10.332   4.239
37621W        W 2848  28.510  16.413   0.437
37622W        W 2849  13.091  41.004   3.293
37623W        W 2850  29.944  15.741   0.803
37624W        W 2851  44.350  28.365   2.293
37625W        W 2852  36.469  35.422  12.010
37626W        W 2853  28.551   3.002   3.497
37627W        W 2854  28.071  11.196  12.465
37628W        W 2855  24.034  25.545   1.484
37629W        W 2856  27.316  39.353  12.429
37630W        W 2857   5.362  23.527  12.997
37631W        W 2858  19.147   8.174  13.298
37632W        W 2859   6.703  25.316  12.975
37633W        W 2860  16.750  41.295  14.428
37634W        W 2861  21.336  35.921  11.193
37635W        W 2862   3.648   0.166   4.649
37636W        W 2863  27.197  32.887   3.097
37637W        W 2864  32.512  44.523  13.896
37638W        W 2865  17.208  17.405   0.897
37639W        W 2866  14.845  19.165  12.146
37640W        W 2867  26.434  39.584  14.441
37641W        W 2868  32.414  26.475  12.072
37642W        W 2869  33.098   8.990   1.739
37643W        W 2870  23.046   9.857  11.026
37644W        W 2871  28.926   4.148  12.952
37645W        W 2872  25.194  31.762   0.404
37646W        W 2873   8.609   1.955   2.184
37647W        W 2874   5.691  37.345  10.485
37648W        W 2875  25.021   4.475   1.650
37649W        W 2876  23.963   4.836   0.864
37650W        W 2877  25.773  23.219   2.658
37651W        W 2878  24.586  24.560  11.076
37652W        W 2879  31.952  18.751   0.525
37653W        W 2880  14.615  32.225   0.898
37654W        W 2881   9.143  33.901  11.343
37655W        W 2882  16.815  17.060   4.876
37656W        W 2883  31.379  15.211   2.246
37657W        W 2884  35.851   4.114  11.117
37658W        W 2885   7.759  20.262  13.496
37659W        W 2886  16.129  14.655  14.779
37660W        W 2887   4.879  14.614   1.327
37661W        W 2888   0.819  13.299   2.906
37662W        W 2889  12.966  24.693  10.598
37663W        W 2890  12.181  39.450   3.762
37664W        W 2891  18.339   2.382   3.633
37665W        W 2892   8.160  33.091   0.293
37666W        W 2893  25.767  32.996  12.590
37667W        W 2894   4.834   9.597  10.697
37668W        W 2895  15.111  42.281   1.908
37669W        W 2896  39.840  25.190  11.952
37670W        W 2897  16.147   1.472   2.700
37671W        W 2898  43.788  20.465  12.491
37672W        W 2899  12.179   4.872  14.738
37673W        W 2900  40.363  17.997  13.926
37674W        W 2901  12.366  31.606   5.440
37675W        W 2902  20.856   2.313   4.841
37676W        W 2903  28.914  18.199   3.781
37677W        W 2904  31.044  31.988  14.458
37678W        W 2905  15.202   1.882  11.648
37679W        W 2906  44.008  24.459  10.727
37680W        W 2907  10.572  17.320   3.149
37681W        W 2908  17.603  36.429   1.150
37682W        W 2909  22.129   1.211  14.536
37683W        W 2910  23.564  31.300   3.081
37684W        W 2911  13.123  17.015   3.189
37685W        W 2912  17.891  34.245   0.921
37686W        W 2913  42.163  21.476  13.516
37687W        W 2914  42.063  29.028  12.165
37688W        W 2915  24.276  41.182  12.787
37689W        W 2916  22.154  37.543  11.114
37690W        W 2917  21.993  31.495   1.174
37691W        W 2918  25.935   4.305  11.583
37692W        W 2919  23.085  14.601   4.493
37693W        W 2920   0.397  25.032   1.680
37694W        W 2921  35.595  13.185   2.107
37695W        W 2922  10.791  14.507  11.653
37696W        W 2923  41.440  29.701   3.305
37697W        W 2924  13.593  26.043  11.204
37698W        W 2925  21.729   4.092   2.200
37699W        W 2926  34.334  23.063   4.600
37700W        W 2927  19.904  42.008   3.770
37701W        W 2928  39.485  27.107   3.248
37702W        W 2929  36.912  24.812  13.895
37703W        W 2930   4.819  33.509   3.602
37704W        W 2931  34.590  34.809  11.801
37705W        W 2932  26.816   3.232   4.202
37706W        W 2933  38.096  29.556  12.798
37707W        W 2934   1.973  29.159   1.239
37708W        W 2935   2.264  42.000   4.552
37709W        W 2936  31.992   0.740  11.119
37710W        W 2937  29.912  41.346   0.331
37711W        W 2938  37.381  36.871   4.656
37712W        W 2939  18.596   8.294   1.986
37713W        W 2940  40.549  10.391  12.086
37714W        W 2941  41.440  43.074   2.121
37715W        W 2942   6.128  28.431   1.793
37716W        W 2943  13.860   1.217  13.859
37717W        W 2944  38.373   1.715   3.929
37718W        W 2945  25.828  35.287  13.487
37719W        W 2946   3.779  18.703  13.975
37720W        W 2947  41.637   1.463   3.256
37721W        W 2948  14.293  30.560   0.312
37722W        W 2949  36.990  11.373  13.076
37723W        W 2950   9.173  21.755  12.913
37724W        W 2951  27.581  17.427  12.067
37725W        W 2952  19.817  26.170   4.091
37726W        W 2953  15.599  38.077  10.146
37727W        W 2954   7.698  23.494   4.202
37728W        W 2955  19.465  29.646  14.416
37729W        W 2956   4.016  29.534  13.913
37730W        W 2957  23.070  27.900   2.053
37731W        W 2958  15.738  40.021  10.597
37732W        W 2959  32.618   8.789   4.075
37733W        W 2960  24.977  41.735  13.587
37734W        W 2961  14.786  29.110  14.501
37735W        W 2962  30.863   0.293   4.247
37736W        W 2963  23.915  24.775  11.832
37737W        W 2964  35.082  17.019   2.138
37738W        W 2965   3.449  11.397   4.494
37739W        W 2966   1.230   0.995   3.703
37740W        W 2967  30.253   9.205  11.541
37741W        W 2968   4.353  29.046   3.248
37742W        W 2969  27.027  13.370  11.470
37743W        W 2970  33.994   8.613   0.831
37744W        W 2971  15.755  18.115   0.870
37745W        W 2972   7.701   0.925  11.145
37746W        W 2973  11.392   7.860  14.824
37747W        W 2974   7.044  24.962  11.690
37748W        W 2975  35.485   3.797   1.197
37749W        W 2976  11.045  25.825   3.708
37750W        W 2977  25.332  41.377  13.578
37751W        W 2978  22.272  28.520   0.984
37752W        W 2979  33.112  32.884  14.866
37753W        W 2980  18.366   0.537  11.609
37754W        W 2981   8.692  25.277  11.165
37755W        W 2982  25.356   3.727   3.206
37756W        W 2983  39.715  28.724  11.723
37757W        W 2984  11.616   4.632  13.410
37758W        W 2985  40.978  33.321   0.744
37759W        W 2986  17.660  24.866   0.228
37760W        W 2987  41.153  14.762  12.902
37761W        W 2988  36.774  43.805   1.471
37762W        W 2989  26.572  29.465  14.124
37763W        W 2990  24.552  42.000  14.472
37764W        W 2991  29.459  10.456  12.515
37765W        W 2992   6.991   0.857   3.148
37766W        W 2993  37.551  16.033  11.808
37767W        W 2994  25.941  18.737  12.094
37768W        W 2995  26.784  37.847   2.353
37769W        W 2996  41.838  33.635   4.155
37770W        W 2997   1.800   5.798   0.736
37771W        W 2998   9.343   2.811  11.323
37772W        W 2999  44.804  39.710  10.654
37773W        W 3000   2.681  10.918   0.394
37774W        W 3001  38.819  28.490   5.099
37775W        W 3002  16.467   5.712   0.288
37776W        W 3003  35.825  38.097  13.417
37777W        W 3004   9.471  10.764  12.058
37778W        W 3005   6.087  22.520   0.749
37779W        W 3006  20.254  20.292  11.639
37780W        W 3007   5.240   3.488   0.132
37781W        W 3008   8.460  23.945  13.062
37782W        W 3009   2.694  21.304   1.323
37783W        W 3010  10.530  24.460  10.403
37784W        W 3011  13.073  10.611  11.594
37785W        W 3012   3.772  11.689  13.404
37786W        W 3013  39.561  25.542  13.541
37787W        W 3014  29.890  42.970  10.768
37788W        W 3015  38.403  15.538  12.828
37789W        W 3016  19.760  25.705  10.473
37790W        W 3017   2.286  19.002   2.996
37791W        W 3018  32.091  27.083   1.281
37792W        W 3019  20.558   3.588  10.708
37793W        W 3020  44.461  31.617   3.433
37794W        W 3021  22.276   4.934  13.504
37795W        W 3022  11.693   3.939   0.435
37796W        W 3023  38.877  17.176   3.046
37797W        W 3024  23.122  12.159   2.661
37798W        W 3025  43.739  29.456  12.958
37799W        W 3026  36.004   8.779   3.092
37800W        W 3027  43.373  10.628  12.817
37801W        W 3028  12.261  21.517   4.371
37802W        W 3029  26.973  18.736   2.333
37803W        W 3030  16.929  29.021  11.217
37804W        W 3031  11.230  39.306  11.632
37805W        W 3032  43.347  35.617  10.513
37806W        W 3033  19.050   1.801  14.178
37807W        W 3034  15.224  24.905   1.198
37808W        W 3035  40.706  27.456  10.697
37809W        W 3036  31.426   9.134   1.375
37810W        W 3037   7.657  12.733   4.559
37811W        W 3038  39.976  31.863  12.469
37812W        W 3039  25.039   8.731  14.485
37813W        W 3040   2.744  36.782   1.647
37814W        W 3041   6.213  37.526  11.870
37815W        W 3042  23.547  39.941  13.653
37816W        W 3043   2.888   6.836   2.181
37817W        W 3044  20.602  39.502   1.313
37818W        W 3045  16.648  29.880  12.328
37819W        W 3046  42.516  36.511   2.939
37820W        W 3047  14.116  32.691  11.456
37821W        W 3048  42.015  36.137  14.818
37822W        W 3049  18.610  21.125   4.485
37823W        W 3050  34.944   5.657  11.110
37824W        W 3051   0.901  26.969  14.302
37825W        W 3052  42.750   5.257   5.019
37826W        W 3053   4.682   4.914  12.529
37827W        W 3054  33.859  15.059   1.340
37828W        W 3055  11.335   6.456  11.523
37829W        W 3056  17.038   8.219   1.921
37830W        W 3057  42.991  19.561   2.485
37831W        W 3058   1.073  34.872  10.877
37832W        W 3059  29.351  13.839  12.008
37833W        W 3060   9.418  25.739  10.736
37834W        W 3061  12.110  36.420   4.569
37835W        W 3062  12.706  23.957   2.097
37836W        W 3063   1.961   6.435   3.716
37837W        W 3064  11.865   5.427  13.019
37838W        W 3065   5.742  11.391   4.535
37839W        W 3066  21.437  32.610  13.952
37840W        W 3067  29.826  24.976  14.181
37841W        W 3068  22.280  35.079   4.506
37842W        W 3069   7.889  33.964   3.606
37843W        W 3070  28.410  20.853  11.174
37844W        W 3071   7.220  14.971   1.148
37845W        W 3072  43.413   9.887  10.456
37846W        W 3073   4.284  36.060   3.269
37847W        W 3074  17.860  10.607   2.941
37848W        W 3075   3.388  22.047   2.836
37849W        W 3076  14.358  18.412   3.802
37850W        W 3077  29.061  24.208   4.102
37851W        W 3078  32.228   4.581  11.098
37852W        W 3079  24.964  28.550  11.544
37853W        W 3080  12.629  35.511   4.607
37854W        W 3081  12.584  16.213  13.090
37855W        W 3082  26.913  12.666  12.610
37856W        W 3083  35.197  35.122  10.703
37857W        W 3084  32.556  39.331  12.428
37858W        W 3085   2.179  38.838  14.756
37859W        W 3086  19.162  19.615  12.001
37860W        W 3087  11.244  31.531   9.795
37861W        W 3088  14.371  16.503   1.831
37862W        W 3089  37.711  25.096  10.640
37863W        W 3090  40.981  33.523  14.867
37864W        W 3091  32.489  36.863  13.827
37865W        W 3092   9.151  27.645  12.179
37866W        W 3093  21.459  33.518   3.516
37867W        W 3094   6.951  15.758   1.485
37868W        W 3095   6.393   6.802   2.927
37869W        W 3096  37.292  27.406  12.488
37870W        W 3097   8.117  21.275   4.306
37871W        W 3098  39.463  23.592   1.502
37872W        W 3099  35.162  23.513   0.692
37873W        W 3100  12.207  25.944  11.028
37874W        W 3101  16.993  28.177  12.065
37875W        W 3102   9.881  43.040   0.030
37876W        W 3103   2.225  27.186  14.152
37877W        W 3104  39.990  22.102  13.007
37878W        W 3105  37.109  42.075  11.231
37879W        W 3106  42.074  23.703  10.529
37880W        W 3107  11.103  18.276   1.799
37881W        W 3108   5.256  15.789   2.314
37882W        W 3109  18.598  42.320  14.105
37883W        W 3110  39.787  26.779   0.689
37884W        W 3111  13.422  22.947  14.958
37885W        W 3112  28.112  41.448   3.859
37886W        W 3113  38.474  22.263   4.607
37887W        W 3114  34.439   6.224   0.939
37888W        W 3115  40.129  43.513  13.671
37889W        W 3116  29.717   8.795  10.894
37890W        W 3117  16.978  43.912   4.129
37891W        W 3118  14.050  43.081   0.807
37892W        W 3119   7.246  31.435   2.638
37893W        W 3120  35.916  31.461  14.939
37894W        W 3121  32.585  13.152  13.132
37895W        W 3122  36.303  21.500   2.441
37896W        W 3123  23.916  27.566   1.553
37897W        W 3124  40.575  33.187   0.382
37898W        W 3125  38.660   0.711   4.225
37899W        W 3126  43.393  16.766   2.811
37900W        W 3127  42.806  41.888  12.131
37901W        W 3128   1.753  35.795  14.752
37902W        W 3129  36.909  19.050  11.501
37903W        W 3130  14.734  18.256   0.511
37904W        W 3131  32.178  12.173  11.625
37905W        W 3132  30.378  10.638  12.415
37906W        W 3133  22.226  12.182   3.689
37907W        W 3134  19.903  37.066  13.327
37908W        W 3135  11.332  30.923   4.123
37909W        W 3136   2.292  17.830   3.619
37910W        W 3137   6.090  41.034   4.980
37911W        W 3138  18.145  16.777  10.749
37912W        W 3139  42.516  15.130  11.684
37913W        W 3140  31.022  41.097  12.331
37914W        W 3141  26.879  18.751  10.449
37915W        W 3142  34.271  43.958  14.502
37916W        W 3143   5.201  20.759   0.843
37917W        W 3144  21.721  10.676   1.548
37918W        W 3145   7.986  16.766   2.153
37919W        W 3146  43.494  44.996  12.380
37920W        W 3147   9.384  10.041  11.952
37921W        W 3148   0.185  39.310  13.507
37922W        W 3149  20.294  39.793  13.410
37923W        W 3150  38.319  39.285   2.332
37924W        W 3151  35.225  19.824   0.415
37925W        W 3152   1.965  26.799   1.587
37926W        W 3153   4.496  39.675   2.336
37927W        W 3154   0.901  27.870  13.215
37928W        W 3155  30.598   7.666   1.275
37929W        W 3156  16.198  15.656   1.428
37930W        W 3157  24.159  31.407  13.797
37931W        W 3158  15.314  12.770  10.828
37932W        W 3159   3.983  27.926   1.208
37933W        W 3160  31.945  32.881  13.404
37934W        W 3161   6.765   1.830   4.876
37935W        W 3162  16.934   1.856  12.614
37936W        W 3163  12.084   5.977  14.720
37937W        W 3164  25.618  20.052   4.123
37938W        W 3165  22.249  30.002   0.890
37939W        W 3166  22.786  23.517   4.525
37940W        W 3167  32.644  34.671  10.153
37941W        W 3168  36.569  16.595  12.574
37942W        W 3169   1.345  13.319   2.071
37943W        W 3170   2.050   7.717  11.773
37944W        W 3171  36.026   0.497   4.098
37945W        W 3172  27.079  29.407  14.078
37946W        W 3173  35.280  37.038  10.940
37947W        W 3174  13.819  11.367  13.057
37948W        W 3175   1.757  15.589   3.522
37949W        W 3176   7.241  22.516   1.372
37950W        W 3177  13.121  27.146   0.083
37951W        W 3178   3.242  33.799  11.145
37952W        W 3179  31.026  11.370  12.740
37953W        W 3180   1.362   1.593  12.071
37954W        W 3181   5.670  39.841   0.446
37955W        W 3182  19.116   4.941   3.452
37956W        W 3183  24.714  23.960   0.943
37957W        W 3184  29.226  30.388  13.209
37958W        W 3185  28.113  24.181   2.727
37959W        W 3186   8.831  40.425   1.207
37960W        W 3187  30.029  32.926   2.228
37961W        W 3188  26.916  15.119  11.679
37962W        W 3189  13.259  22.163  13.141
37963W        W 3190   1.719  22.202  14.539
37964W        W 3191  43.622  28.595  13.182
37965W        W 3192  39.522  18.177   3.251
37966W        W 3193  43.621  17.947   1.894
37967W        W 3194  32.840  23.406  12.416
37968W        W 3195  21.691  33.610   3.056
37969W        W 3196  29.999  35.622   1.511
37970W        W 3197  30.678   1.531  10.722
37971W        W 3198  20.486   7.226  10.015
37972W        W 3199  29.238   7.017  11.060
37973W        W 3200  40.489  37.658  11.437
37974W        W 3201  38.009  31.702   4.539
37975W        W 3202  24.591   1.450   0.795
37976W        W 3203  34.826   1.208   0.781
37977W        W 3204   3.924   3.516   4.056
37978W        W 3205  32.613   3.707   2.104
37979W        W 3206  44.429  17.657   4.544
37980W        W 3207  12.279   3.528   2.474
37981W        W 3208  39.952  31.201   1.361
37982W        W 3209   0.495  11.232  10.870
37983W        W 3210  35.638   3.551   4.393
37984W        W 3211  25.239  44.914   3.437
37985W        W 3212  12.577   6.790  14.524
37986W        W 3213  39.002   6.422   1.331
37987W        W 3214  16.738   6.048  14.329
37988W        W 3215  42.561   5.895  14.991
37989W        W 3216   1.191   5.686  10.284
37990W        W 3217  34.015  27.678   3.846
37991W        W 3218   7.657  39.458  12.796
37992W        W 3219  28.166   7.542   3.265
37993W        W 3220  13.412  37.076  11.148
37994W        W 3221  32.901   3.756   2.809
37995W        W 3222  10.505  28.189   2.920
37996W        W 3223  30.917  43.869   0.511
37997W        W 3224   1.225  42.450   0.909
37998W        W 3225  17.870  13.831  12.949
37999W        W 3226  29.838  25.066   4.138
38000W        W 3227  19.560  32.956  14.991
38001W        W 3228  37.547  16.564   1.921
38002W        W 3229  28.805  20.639   3.152
38003W        W 3230  30.013  37.630   3.157
38004W        W 3231  36.053   4.509  13.542
38005W        W 3232   6.297  30.261   3.577
38006W        W 3233  43.789  31.817   2.846
38007W        W 3234  23.936  31.906  14.789
38008W        W 3235  23.059  19.788  11.969
38009W        W 3236  22.176  41.343   0.295
38010W        W 3237  26.226  29.014  13.421
38011W        W 3238  11.818  34.670   0.840
38012W        W 3239  28.131   1.215  12.586
38013W        W 3240  10.663  18.734  14.036
38014W        W 3241  34.865   7.438  13.381
38015W        W 3242   2.356  23.264   4.300
38016W        W 3243  27.408   7.599  11.037
38017W        W 3244  26.994   9.572   3.325
38018W        W 3245  16.325  14.138  14.259
38019W        W 3246   4.834  21.301  10.277
38020W        W 3247  10.229  10.340  14.967
38021W        W 3248  40.507  24.058   0.964
38022W        W 3249  25.440  17.077  14.379
38023W        W 3250  36.598  22.299   2.186
38024W        W 3251  14.041  41.376  13.584
38025W        W 3252  21.265  10.623   0.415
38026W        W 3253  36.948  27.771  11.233
38027W        W 3254  11.855  40.335  12.643
38028W        W 3255  30.623  11.463  11.586
38029W        W 3256  19.029  16.772  13.333
38030W        W 3257  21.935  24.742   4.649
38031W        W 3258  19.170  22.559   1.044
38032W        W 3259  18.605  26.182   2.767
38033W        W 3260  40.063  13.824   2.692
38034W        W 3261  16.907  23.121  14.435
38035W        W 3262   1.158  31.273  10.046
38036W        W 3263  40.043  14.678   4.854
38037W        W 3264  16.370  17.024   3.696
38038W        W 3265  26.932   6.902   4.858
38039W        W 3266  41.989  21.001  13.598
38040W        W 3267  35.356  23.966  14.335
38041W        W 3268  40.444  43.385  11.611
38042W        W 3269   3.688  35.358   2.858
38043W        W 3270  11.562  26.010  12.017
38044W        W 3271   7.396   3.323   1.494
38045W        W 3272  36.511  30.440   1.831
38046W        W 3273   1.020  33.385  12.461
38047W        W 3274   8.352  16.844  14.900
38048W        W 3275   9.381  24.931  12.018
38049W        W 3276  34.945   8.389   1.700
38050W        W 3277  24.343   5.081  11.983
38051W        W 3278  42.093   6.028  12.067
38052W        W 3279  10.314  32.273   3.086
38053W        W 3280  13.547   8.730  10.460
38054W        W 3281  22.466   4.645  10.811
38055W        W 3282   8.336  40.570   1.265
38056W        W 3283  11.302  13.235  11.584
38057W        W 3284  32.700  34.497   9.610
38058W        W 3285  42.018  43.445  11.583
38059W        W 3286  37.518  25.318  12.474
38060W        W 3287  44.211  35.540   1.285
38061W        W 3288  20.457  26.554   0.473
38062W        W 3289  35.050  39.010   0.786
38063W        W 3290   7.798  24.187  14.669
38064W        W 3291  27.181  31.164   0.780
38065W        W 3292   6.227  35.002   4.110
38066W        W 3293  44.832  14.079  10.481
38067W        W 3294  32.872  43.137   4.671
38068W        W 3295  11.358   2.465   0.866
38069W        W 3296  24.963  44.243   4.131
38070W        W 3297  40.980  38.509  12.439
38071W        W 3298  35.951  33.942  12.606
38072W        W 3299   6.179  33.959  12.479
38073W        W 3300  21.075   5.212  14.287
38074W        W 3301  38.243  32.338  12.090
38075W        W 3302   3.989  32.532  11.430
38076W        W 3303  24.314  14.590   4.052
38077W        W 3304  42.770  26.504  12.995
38078W        W 3305   1.389   6.782  13.893
38079W        W 3306  30.022  43.201   4.859
38080W        W 3307  22.530  38.847  11.506
38081W        W 3308  13.176  35.025   3.703
38082W        W 3309  44.411  33.096  14.966
38083W        W 3310  13.892  10.361  11.962
38084W        W 3311   1.139   8.927  13.327
38085W        W 3312  39.574  40.646   2.099
38086W        W 3313  44.012  14.645   4.393
38087W        W 3314  38.207   9.771  12.933
38088W        W 3315  26.114   9.163   3.557
38089W        W 3316  29.121  40.267  10.652
38090W        W 3317  19.846  12.785  11.548
38091W        W 3318  26.493  29.219  12.991
38092W        W 3319  14.552   9.353  13.297
38093W        W 3320   8.273   3.276  10.590
38094W        W 3321  13.622  31.663   2.134
38095W        W 3322  15.199  43.970   2.681
38096W        W 3323  32.400   8.671  14.406
38097W        W 3324   9.774   3.979   1.306
38098W        W 3325  26.022  33.450  14.096
38099W        W 3326  11.674   2.320   3.699
38100W        W 3327  17.554  33.844  10.169
38101W        W 3328  36.858  22.963  12.006
38102W        W 3329  15.332  31.197   4.398
38103W        W 3330  38.383  23.038  11.614
38104W        W 3331  44.590  36.056   3.685
38105W        W 3332  44.630  30.248   2.780
38106W        W 3333  25.887  30.600  13.590
38107W        W 3334   2.752  34.324   1.375
38108W        W 3335  20.538  13.376   4.974
38109W        W 3336  15.273  11.160  12.515
38110W        W 3337  25.080   4.457   2.162
38111W        W 3338  43.241  31.848   3.639
38112W        W 3339  41.252  32.521   0.861
38113W        W 3340   1.260  12.878  11.921
38114W        W 3341  41.798  36.068   3.095
38115W        W 3342  23.545  26.590  13.898
38116W        W 3343  36.593  26.467   4.847
38117W        W 3344  26.891  42.527  13.595
38118W        W 3345  21.567  32.199   3.966
38119W        W 3346   9.631  43.765   0.384
38120W        W 3347  37.048  17.254   0.792
38121W        W 3348  19.138   5.670  11.493
38122W        W 3349  20.738  29.889   0.704
38123W        W 3350  17.155   7.568  11.063
38124W        W 3351  26.678  27.601   0.050
38125W        W 3352  44.210   1.609  14.773
38126W        W 3353  20.823  38.976   4.955
38127W        W 3354  38.405  41.287  12.559
38128W        W 3355  14.872  25.687   1.865
38129W        W 3356  44.051  41.995   2.242
38130W        W 3357  20.118  25.034   2.689
38131W        W 3358   1.003  16.670  11.692
38132W        W 3359   3.859  37.116  14.577
38133W        W 3360  21.045  13.172  14.744
38134W        W 3361  13.472   9.211  10.637
38135W        W 3362  21.001  18.756  13.683
38136W        W 3363  26.587  41.565  14.412
38137W        W 3364  27.935  27.674   4.120
38138W        W 3365  35.714  40.330   0.762
38139W        W 3366  31.396  23.036   3.155
38140W        W 3367   9.007  33.021  10.974
38141W        W 3368  20.690  20.755  13.422
38142W        W 3369  10.867  38.482  11.647
38143W        W 3370  17.748  35.515   3.884
38144W        W 3371   4.622  33.135  10.320
38145W        W 3372  14.590  33.122   0.325
38146W        W 3373  37.376  30.061  11.295
38147W        W 3374   9.519  19.329  11.956
38148W        W 3375  10.126  32.063   1.410
38149W        W 3376  43.355  36.107  13.878
38150W        W 3377  22.477  13.851  12.826
38151W        W 3378  32.506  16.670  14.396
38152W        W 3379  31.421   3.931   2.708
38153W        W 3380  16.759  21.858  13.325
38154W        W 3381   0.574  38.353  13.955
38155W        W 3382  38.881  43.539   1.815
38156W        W 3383  39.798  27.515   3.148
38157W        W 3384  40.265  40.990   3.641
38158W        W 3385  11.128  24.257   2.284
38159W        W 3386  23.122  29.537  14.968
38160W        W 3387  32.993  29.884  14.296
38161W        W 3388  11.776   8.165  13.428
38162W        W 3389  25.125  30.340  10.750
38163W        W 3390  39.723  31.688  11.021
38164W        W 3391   9.266   1.381  10.774
38165W        W 3392  40.599  30.047   4.510
38166W        W 3393  13.872  34.554  10.617
38167W        W 3394  30.035  34.948  14.476
38168W        W 3395  36.810  14.198   2.860
38169W        W 3396  19.989   2.751   0.907
38170W        W 3397  18.898  21.587   0.283
38171W        W 3398   9.428  30.066   3.235
38172W        W 3399   8.423  44.885  10.855
38173W        W 3400  22.727  27.321  12.869
38174W        W 3401  15.426  27.788  11.957
38175W        W 3402  14.625   2.029   5.128
38176W        W 3403  17.143   1.608   1.284
38177W        W 3404  32.869  35.478   2.220
38178W        W 3405  18.003  16.203   4.146
38179W        W 3406   0.023  26.221   0.359
38180W        W 3407   0.963  44.802   2.430
38181W        W 3408  32.120  29.422   5.529
38182W        W 3409  11.336  15.185  12.471
38183W        W 3410  23.208   6.279   1.319
38184W        W 3411  39.543  14.746   4.663
38185W        W 3412  42.016   8.535   3.766
38186W        W 3413   1.738  32.995  13.829
38187W        W 3414  13.795  12.210   3.737
38188W        W 3415  33.909   2.662  13.325
38189W        W 3416  15.535  28.527   2.610
38190W        W 3417  44.294  19.775  14.248
38191W        W 3418  17.627  26.553  13.589
38192W        W 3419   1.465  41.097   2.379
38193W        W 3420   5.851   8.923   1.233
38194W        W 3421  13.078  43.923   1.429
38195W        W 3422  42.331   9.216   0.445
38196W        W 3423  22.934  21.233   4.121
38197W        W 3424  21.239   6.899   4.477
38198W        W 3425   2.871   4.460   0.783
38199W        W 3426  14.775  32.957  14.880
38200W        W 3427  35.382  13.651  12.106
38201W        W 3428  25.281   2.361   1.539
38202W        W 3429  23.773  36.484  11.254
38203W        W 3430  17.138  43.566  13.303
38204W        W 3431  44.060  23.582   0.253
38205W        W 3432  36.566   8.892  11.473
38206W        W 3433  11.767  26.667   0.272
38207W        W 3434  16.200  16.918  11.310
38208W        W 3435  25.932  37.073  10.811
38209W        W 3436  39.054  38.791   3.627
38210W        W 3437  31.407   6.476   3.697
38211W        W 3438  12.412  20.681  10.302
38212W        W 3439  40.040  26.461   1.165
38213W        W 3440   8.639  18.017  14.453
38214W        W 3441  23.475  27.459   4.902
38215W        W 3442  34.085  15.549  13.360
38216W        W 3443  43.476  23.434  14.391
38217W        W 3444  12.188  23.147  14.849
38218W        W 3445  29.921  29.745   0.022
38219W        W 3446   3.028   4.391  14.870
38220W        W 3447   5.371   9.774  11.495
38221W        W 3448   6.902  38.051  14.889
38222W        W 3449  18.904  19.659   3.998
38223W        W 3450  22.076  10.572   0.718
38224W        W 3451  15.180  32.299   0.503
38225W        W 3452  28.733  33.449   1.700
38226W        W 3453  24.756  32.997   4.594
38227W        W 3454  16.827  18.227  12.088
38228W        W 3455  35.183  42.298   0.871
38229W        W 3456  13.668  18.824  13.557
38230W        W 3457  20.153  16.434   4.608
38231W        W 3458  37.029   2.784  11.671
38232W        W 3459   3.280   3.659   5.289
38233W        W 3460  16.350  24.076  12.431
38234W        W 3461  29.461  42.511  14.159
38235W        W 3462  30.433  16.704  10.669
38236W        W 3463  35.856  18.295   1.812
38237W        W 3464   6.405   4.844  14.624
38238W        W 3465  37.295   2.714   1.781
38239W        W 3466   0.072  13.931   1.351
38240W        W 3467   0.279  29.715  13.038
38241W        W 3468  10.860  25.418  13.903
38242W        W 3469   1.850   3.944  12.113
38243W        W 3470  31.505  44.069  11.042
38244W        W 3471  24.934  29.019   2.366
38245W        W 3472  27.691  11.256  10.980
38246W        W 3473  25.007  33.761   1.197
38247W        W 3474  34.260  10.502  14.378
38248W        W 3475  19.395  40.171  12.589
38249W        W 3476   4.657  30.419  12.018
38250W        W 3477  27.828  13.880   4.755
38251W        W 3478  20.164   3.826  12.550
38252W        W 3479  43.055  41.321   4.097
38253W        W 3480  24.188  33.923  11.541
38254W        W 3481  24.543  23.962  12.538
38255W        W 3482   8.917  35.037  10.124
38256W        W 3483   5.145  37.722  14.937
38257W        W 3484  38.416   2.136   2.389
38258W        W 3485  33.817  41.552  13.015
38259W        W 3486  26.262  44.003   4.251
38260W        W 3487   7.203   4.492  14.706
38261W        W 3488   2.417  42.578   2.852
38262W        W 3489  37.554  40.394   2.417
38263W        W 3490  37.648  37.392   1.924
38264W        W 3491   3.329  15.565  13.253
38265W        W 3492  37.314   7.713  10.781
38266W        W 3493  25.479   9.111   2.696
38267W        W 3494  43.456  17.843  10.874
38268W        W 3495   5.429  28.195  13.356
38269W        W 3496  23.692  38.437   3.385
38270W        W 3497  34.258   5.102   2.374
38271W        W 3498   1.894  32.949  14.788
38272W        W 3499  15.796  16.940  11.961
38273W        W 3500  13.917   9.599  14.438
38274W        W 3501  14.836   5.546  12.569
38275W        W 3502  13.058  12.110   4.544
38276W        W 3503  37.367  25.639  11.037
38277W        W 3504  39.415  26.790  12.611
38278W        W 3505   4.831  40.349   4.777
38279W        W 3506  36.511  10.025  10.818
38280W        W 3507  21.687  35.385  14.685
38281W        W 3508  15.051  23.086   2.675
38282W        W 3509  11.522  25.610  13.351
38283W        W 3510  21.252  19.329  11.215
38284W        W 3511   9.694  11.685  12.426
38285W        W 3512  15.612  34.984   2.852
38286W        W 3513   5.079  22.348  12.875
38287W        W 3514  36.776  29.155   1.674
38288W        W 3515  29.042  21.749   4.431
38289W        W 3516  40.913  12.050   3.288
38290W        W 3517  19.722  16.731   1.433
38291W        W 3518  12.277  42.782  12.130
38292W        W 3519  42.362  39.978  13.489
38293W        W 3520  17.585  13.761  13.387
38294W        W 3521  33.381  39.073  12.595
38295W        W 3522   3.604  31.608  11.201
38296W        W 3523  44.062  39.853  14.511
38297W        W 3524  20.153   0.256   5.393
38298W        W 3525  34.068   9.348   1.554
38299W        W 3526  33.965  37.063   2.633
38300W        W 3527  35.977  18.802  11.042
38301W        W 3528   0.850  25.166  10.321
38302W        W 3529  14.426   2.609  12.914
38303W        W 3530  20.862  41.515  13.520
38304W        W 3531  13.598   0.164   2.823
38305W        W 3532  19.785  26.335  13.850
38306W        W 3533  11.887  18.896  14.367
38307W        W 3534  30.931  27.748  10.736
38308W        W 3535  19.001  11.145   0.342
38309W        W 3536  34.151  38.876  13.010
38310W        W 3537  27.410  30.911   1.346
38311W        W 3538   9.902  19.112  12.914
38312W        W 3539  38.353  20.125  13.885
38313W        W 3540  23.656  14.069   1.271
38314W        W 3541  38.312  38.447   3.252
38315W        W 3542  35.039   4.407   3.602
38316W        W 3543  20.106  25.112   1.697
38317W        W 3544  26.130  27.861  12.895
38318W        W 3545  17.212  31.392  12.204
38319W        W 3546  14.590  13.215  12.325
38320W        W 3547  44.336  39.841  11.520
38321W        W 3548  16.095  12.454   1.328
38322W        W 3549  38.822  29.841  10.939
38323W        W 3550  14.090  31.044  11.994
38324W        W 3551  26.674  35.404  11.216
38325W        W 3552  35.285  34.145   3.871
38326W        W 3553   8.375  31.517   3.392
38327W        W 3554  31.973  20.260  12.040
38328W        W 3555  38.448  35.990   1.355
38329W        W 3556  36.372  36.619   3.364
38330W        W 3557  26.423  34.313   1.265
38331W        W 3558   6.419   7.846  12.388
38332W        W 3559  39.053  39.316  12.721
38333W        W 3560  16.623  33.938   2.574
38334W        W 3561  41.073  23.024  12.191
38335W        W 3562  25.539  43.905  13.418
38336W        W 3563  34.165   2.473  12.912
38337W        W 3564  30.806  36.777  14.847
38338W        W 3565  39.951  16.697   4.597
38339W        W 3566  44.886  37.868   0.991
38340W        W 3567  39.785   7.924   1.124
38341W        W 3568  28.143  31.612  12.861
38342W        W 3569  12.019  26.752   3.449
38343W        W 3570  28.781  12.666   5.410
38344W        W 3571   6.015  13.752   4.664
38345W        W 3572  41.043  38.868   3.096
38346W        W 3573  22.287  42.611   2.616
38347W        W 3574  24.477  17.606  11.646
38348W        W 3575   8.671  20.494   2.574
38349W        W 3576   1.364  37.929   3.181
38350W        W 3577  12.669  26.008  13.790
38351W        W 3578  40.803  11.570  12.512
38352W        W 3579  36.848  27.098  14.572
38353W        W 3580  38.998  41.031  10.793
38354W        W 3581  11.850  31.394   2.857
38355W        W 3582  28.157   7.558   2.321
38356W        W 3583  41.096  39.434  14.923
38357W        W 3584  28.887  37.479  11.270
38358W        W 3585  18.615  18.532   4.495
38359W        W 3586   8.827  22.982   1.756
38360W        W 3587  36.350  44.506  14.828
38361W        W 3588  23.109  25.458  14.461
38362W        W 3589  23.009  44.117   2.965
38363W        W 3590  13.364  17.563  14.486
38364W        W 3591  42.011   1.747   1.655
38365W        W 3592  28.300  43.673   0.708
38366W        W 3593   3.412  40.084   1.933
38367W        W 3594  27.241  35.313   2.641
38368W        W 3595  40.010  33.508  10.677
38369W        W 3596  36.682  24.666  14.902
38370W        W 3597  20.553  25.535   2.718
38371W        W 3598   4.851   6.720   4.637
38372W        W 3599  30.592   5.678  13.891
38373W        W 3600   3.344  24.536  14.323
38374W        W 3601   1.362   8.419   1.244
38375W        W 3602  37.488  39.704  12.539
38376W        W 3603   1.023  18.613   4.144
38377W        W 3604  15.147  40.943  11.536
38378W        W 3605  28.524  40.319  12.651
38379W        W 3606  26.725  37.875  12.118
38380W        W 3607  28.696  19.209   2.746
38381W        W 3608  43.911  29.234  13.932
38382W        W 3609  11.870  36.803   3.712
38383W        W 3610  22.719  42.882  12.111
38384W        W 3611  11.858  20.026   4.811
38385W        W 3612  18.295  43.506  14.496
38386W        W 3613  23.558   3.338  12.683
38387W        W 3614  43.811  16.572   4.133
38388W        W 3615  43.310  37.610   2.360
38389W        W 3616  17.594  44.912   0.185
38390W        W 3617  36.062  43.413  10.716
38391W        W 3618  19.053   2.489  12.577
38392W        W 3619  13.531  36.814  11.569
38393W        W 3620  28.660   3.173  11.436
38394W        W 3621  21.830  32.924  14.266
38395W        W 3622  35.971  35.533   0.027
38396W        W 3623  41.043  12.371  11.584
38397W        W 3624  21.673   8.743   3.643
38398W        W 3625  10.283  12.670  13.307
38399W        W 3626  14.368  35.077  11.607
38400W        W 3627  27.976  16.522   3.735
38401W        W 3628  14.495  37.082  13.528
38402W        W 3629   0.280  23.800  11.107
38403W        W 3630  26.521  32.842   5.158
38404W        W 3631  22.431  44.863   0.575
38405W        W 3632   3.673  37.848  14.865
38406W        W 3633   6.297  44.517   3.293
38407W        W 3634  17.327  24.872   1.852
38408W        W 3635  28.892  33.937   4.637
38409W        W 3636  16.926  23.743   4.167
38410W        W 3637  37.256   6.024   9.926
38411W        W 3638  37.784  18.687   0.479
38412W        W 3639   9.246  24.438   0.280
38413W        W 3640  27.180  11.845  13.025
38414W        W 3641  17.565  40.899  13.943
38415W        W 3642   2.290  35.622  14.839
38416W        W 3643  10.663  44.826   4.017
38417W        W 3644   6.305   1.901  10.642
38418W        W 3645  33.600  11.671   2.172
38419W        W 3646  38.990  12.793   3.217
38420W        W 3647  10.062  24.645   3.671
38421W        W 3648  30.478   1.674  12.885
38422W        W 3649  11.647  30.189  14.850
38423W        W 3650  35.591   6.815  12.899
38424W        W 3651  25.075  35.738  12.135
38425W        W 3652  35.906  31.562   4.585
38426W        W 3653   9.918  38.658  11.027
38427W        W 3654  12.734   5.650   3.720
38428W        W 3655  39.914  18.591  11.584
38429W        W 3656  11.333   4.349  14.741
38430W        W 3657   4.760  28.693  13.020
38431W        W 3658  43.896   3.232  12.493
38432W        W 3659   6.848  35.955   0.050
38433W        W 3660  40.493   1.435  10.743
38434W        W 3661  29.931   9.869  13.422
38435W        W 3662  31.609  14.668   1.448
38436W        W 3663  35.297  42.167   1.361
38437W        W 3664  38.040  43.894  14.908
38438W        W 3665   0.243  24.758   1.243
38439W        W 3666  38.366   8.286   0.312
38440W        W 3667   8.747  43.135   5.040
38441W        W 3668  28.669   0.519  10.985
38442W        W 3669  12.549  44.959  13.853
38443W        W 3670  38.725  15.838   3.368
38444W        W 3671  25.515  12.874  14.405
38445W        W 3672   3.836  39.875  14.957
38446W        W 3673  33.877  25.578  13.913
38447W        W 3674  44.411  20.288   3.835
38448W        W 3675  23.839   9.149   3.622
38449W        W 3676  11.455  42.016  13.930
38450W        W 3677  12.777  17.568  14.741
38451W        W 3678  14.070  32.926  14.467
38452W        W 3679  17.498  31.013  13.021
38453W        W 3680  33.005  11.494  12.933
38454W        W 3681  17.032  32.193   5.037
38455W        W 3682   6.459  44.987  14.336
38456W        W 3683  30.099  25.292   4.505
38457W        W 3684  15.415   7.784   3.034
38458W        W 3685   2.672  36.547  14.001
38459W        W 3686  31.414  34.436  14.877
38460W        W 3687   4.136  21.014   2.778
38461W        W 3688  37.328  27.569   3.404
38462W        W 3689  24.117  38.297  11.916
38463W        W 3690  34.970  13.694   1.689
38464W        W 3691   7.904   1.718   0.401
38465W        W 3692   8.284  32.697   9.714
38466W        W 3693   2.189  43.039   3.629
38467W        W 3694  43.954  38.374  13.433
38468W        W 3695   3.347  40.070  11.003
38469W        W 3696  16.237   0.571   0.947
38470W        W 3697  19.702  11.362   4.401
38471W        W 3698   5.969  33.228   4.101
38472W        W 3699   7.921  20.625   4.749
38473W        W 3700  17.097   4.750   3.112
38474W        W 3701  40.478  35.525   0.393
38475W        W 3702  30.112  29.857  12.172
38476W        W 3703  31.502  22.067   0.557
38477W        W 3704   9.896  35.647  14.570
38478W        W 3705  17.736  44.733  12.468
38479W        W 3706  21.656  11.252   4.301
38480W        W 3707  42.083  23.977   0.169
38481W        W 3708  19.926  20.305  14.771
38482W        W 3709  15.654  15.866   0.830
38483W        W 3710   8.803  20.782   3.546
38484W        W 3711   8.261  38.458   3.214
38485W        W 3712  18.755   3.429   3.284
38486W        W 3713  41.799   9.827   4.158
38487W        W 3714  36.545  19.342   3.270
38488W        W 3715  26.637  37.683  10.544
38489W        W 3716  13.645  24.887   2.429
38490W        W 3717  10.164  33.153  13.697
38491W        W 3718  24.571   4.252   0.332
38492W        W 3719  40.268  29.041  13.005
38493W        W 3720  35.408   1.971  13.847
38494W        W 3721  16.355  36.590  14.476
38495W        W 3722  19.107  37.858   1.177
38496W        W 3723  14.767  30.487   4.506
38497W        W 3724   7.454  19.540  14.208
38498W        W 3725  44.835  26.277   2.627
38499W        W 3726   8.867  23.111  14.107
38500W        W 3727  41.050  11.745  12.952
38501W        W 3728  37.475  22.818   0.917
38502W        W 3729  17.659   5.696  12.293
38503W        W 3730  19.538   3.656   4.191
38504W        W 3731  26.583  33.732  14.792
38505W        W 3732  16.785   0.334  10.831
38506W        W 3733  28.445  34.958  11.218
38507W        W 3734  26.149   4.470  13.110
38508W        W 3735  18.469  22.937   1.427
38509W        W 3736  28.034  22.022   1.546
38510W        W 3737  37.907  33.587  12.607
38511W        W 3738  22.085  21.557  12.038
38512W        W 3739  36.113  27.094  14.938
38513W        W 3740   9.207  27.359  13.090
38514W        W 3741  15.439  39.608  14.959
38515W        W 3742  29.343   2.070   2.625
38516W        W 3743  26.769   0.172   2.275
38517W        W 3744   2.843  37.556  13.835
38518W        W 3745  42.498  42.266   1.773
38519W        W 3746  27.701  24.519  13.357
38520W        W 3747   9.492  32.994   9.644
38521W        W 3748  14.259  33.965   0.264
38522W        W 3749  33.556   6.436  13.095
38523W        W 3750  22.201   9.145  12.496
38524W        W 3751  28.154  30.226  10.284
38525W        W 3752  30.231  22.187   1.208
38526W        W 3753  24.430  15.568   3.822
38527W        W 3754  26.041  28.526   4.012
38528W        W 3755  27.242  41.590   4.419
38529W        W 3756   0.239   0.591  11.199
38530W        W 3757   5.303  27.730   2.885
38531W        W 3758   3.530  35.245   4.209
38532W        W 3759  26.035  36.937   1.689
38533W        W 3760  32.068  41.957   2.125
38534W        W 3761  20.812  17.704   0.037
38535W        W 3762  42.306  42.898   1.604
38536W        W 3763  34.243  10.912  12.078
38537W        W 3764   4.804  38.764   0.037
38538W        W 3765  19.607  26.085   0.922
38539W        W 3766  31.120   6.366   0.025
38540W        W 3767  32.378   8.910  13.078
38541W        W 3768   8.562  17.689   3.770
38542W        W 3769  39.357  30.108   1.707
38543W        W 3770   8.559  29.601   1.927
38544W        W 3771   1.183  25.500   3.268
38545W        W 3772  25.998  14.712  13.325
38546W        W 3773  28.683  24.615   2.355
38547W        W 3774  18.619  25.218  12.320
38548W        W 3775  19.059  39.031  14.768
38549W        W 3776  18.237  23.788   2.600
38550W        W 3777  40.015  36.528   2.372
38551W        W 3778  29.971  30.027  12.997
38552W        W 3779  31.860  37.104  13.066
38553W        W 3780  31.504   4.406   0.269
38554W        W 3781   1.673  17.133   0.752
38555W        W 3782  17.350  33.499  14.501
38556W        W 3783  11.434   5.261  14.315
38557W        W 3784   8.302  41.801   3.215
38558W        W 3785   4.567  33.424   1.472
38559W        W 3786  37.386   7.635   3.417
38560W        W 3787  38.212  18.921   3.772
38561W        W 3788  42.374  35.593   3.182
38562W        W 3789   5.723  10.999  12.205
38563W        W 3790  21.296  28.663   0.872
38564W        W 3791  18.691  22.622  12.496
38565W        W 3792  23.160  43.844   4.140
38566W        W 3793  33.551  11.604  13.999
38567W        W 3794  41.780  15.545  14.540
38568W        W 3795  13.580  44.359   0.896
38569W        W 3796  39.253  14.709  10.489
38570W        W 3797  10.753  37.310  13.940
38571W        W 3798  37.198  21.175   0.199
38572W        W 3799  10.749   0.072  13.423
38573W        W 3800  25.121  24.900   0.355
38574W        W 3801  14.255  38.866  13.398
38575W        W 3802  20.064  35.621   4.626
38576W        W 3803  36.902  21.578  10.817
38577W        W 3804  40.096  12.800  13.260
38578W        W 3805  24.668  24.451  14.565
38579W        W 3806   7.709  12.208   4.674
38580W        W 3807  13.313  29.197  14.454
38581W        W 3808  21.405  38.846   5.012
38582W        W 3809   9.098  27.708  10.248
38583W        W 3810  32.244   9.659   4.274
38584W        W 3811  43.935  10.033  12.000
38585W        W 3812   8.212  38.137  11.537
38586W        W 3813  35.412   6.281  11.647
38587W        W 3814  12.694  18.273   2.890
38588W        W 3815  34.157  37.624   3.541
38589W        W 3816  34.577   0.999  14.454
38590W        W 3817  43.836  22.047   2.411
38591W        W 3818  27.052  13.848  10.589
38592W        W 3819  11.722  14.848   1.865
38593W        W 3820  36.596  13.960   5.110
38594W        W 3821  36.064  40.329  14.816
38595W        W 3822   6.132  44.254  10.643
38596W        W 3823   4.172  18.293   4.238
38597W        W 3824  26.941  38.749   4.031
38598W        W 3825   6.769   3.149  14.680
38599W        W 3826  16.335  32.601   2.177
38600W        W 3827  11.681   2.412  12.833
38601W        W 3828  19.640  19.040   3.271
38602W        W 3829  23.569  20.569  14.319
38603W        W 3830  14.526  44.259   2.215
38604W        W 3831  21.077  31.059   5.071
38605W        W 3832  14.241  20.658   3.105
38606W        W 3833   7.870  34.143  13.925
38607W        W 3834  10.791  26.177   4.023
38608W        W 3835  27.443  35.129   4.651
38609W        W 3836   6.666  16.074  11.642
38610W        W 3837   5.222  35.769   3.661
38611W        W 3838  17.105  22.283   0.444
38612W        W 3839  40.943  14.600  11.121
38613W        W 3840   3.265  25.667   2.269
38614W        W 3841  10.376  11.011   4.544
38615W        W 3842   8.263  42.823  14.038
38616W        W 3843  11.315  31.160  12.368
38617W        W 3844   8.872  26.263  13.890
38618W        W 3845  36.786  26.089   2.088
38619W        W 3846  26.572  21.014   4.221
38620W        W 3847  36.616  39.590  11.097
38621W        W 3848  15.540  43.954  14.467
38622W        W 3849   9.207  33.279   0.413
38623W        W 3850  24.985  22.548   0.964
38624W        W 3851  21.777   4.267   1.579
38625W        W 3852  13.904  12.730  13.813
38626W        W 3853  39.378   1.890   3.342
38627W        W 3854   8.934  12.378   4.157
38628W        W 3855  44.766  13.120   0.767
38629W        W 3856   7.819  26.735   1.372
38630W        W 3857   6.685  39.126   2.862
38631W        W 3858  11.331  28.443  13.430
38632W        W 3859   6.281  10.369   0.254
38633W        W 3860   0.835   6.209  13.932
38634W        W 3861  11.741  19.167  11.694
38635W        W 3862  20.227   2.327   0.204
38636W        W 3863   9.628  16.058   2.600
38637W        W 3864  34.403  41.025   4.806
38638W        W 3865  29.393  41.469   1.111
38639W        W 3866  41.104  41.575   0.635
38640W        W 3867  24.344   3.182  10.245
38641W        W 3868   2.334  35.985   3.982
38642W        W 3869  44.980  19.080   2.410
38643W        W 3870   1.194  37.001  14.230
38644W        W 3871  25.611  19.806  10.831
38645W        W 3872  14.283  10.260  10.899
38646W        W 3873  30.442  38.506   3.453
38647W        W 3874  40.550  11.964  12.976
38648W        W 3875  18.766   1.775   2.482
38649W        W 3876   1.488   4.670  12.975
38650W        W 3877  33.183  34.471   3.692
38651W        W 3878  18.473   1.090  10.330
38652W        W 3879  43.041  30.885   1.239
38653W        W 3880  19.277  13.977   4.085
38654W        W 3881  17.309  12.783   1.118
38655W        W 3882  38.732  18.810   3.671
38656W        W 3883  29.971   7.892  11.141
38657W        W 3884  30.951  11.796  12.447
38658W        W 3885  14.704   3.323   3.529
38659W        W 3886  19.758  31.599  12.505
38660W        W 3887   2.973  28.482  13.049
38661W        W 3888  19.744  36.029   4.459
38662W        W 3889  14.138  42.762   2.218
38663W        W 3890  27.622   2.319   3.647
38664W        W 3891  40.932   2.675   3.885
38665W        W 3892  22.449   5.720   1.302
38666W        W 3893  34.329   0.507   0.341
38667W        W 3894  41.968   4.881  13.232
38668W        W 3895  29.434   6.073  11.114
38669W        W 3896  21.971  21.755   1.369
38670W        W 3897   9.437  14.460  13.152
38671W        W 3898   1.274  24.074   3.243
38672W        W 3899  42.371   5.714   3.337
38673W        W 3900  14.421   0.295   1.228
38674W        W 3901  30.352  32.706  14.071
38675W        W 3902  39.989  37.983  13.455
38676W        W 3903  32.185  43.945   0.115
38677W        W 3904  13.837  32.275   2.302
38678W        W 3905   5.448   0.874   1.877
38679W        W 3906  12.173  38.462   1.779
38680W        W 3907   9.572  17.754  11.924
38681W        W 3908  29.180  12.605   0.315
38682W        W 3909   5.915  15.287   0.464
38683W        W 3910  17.725  21.790   1.307
38684W        W 3911  28.444   9.179  14.605
38685W        W 3912  16.398  32.987   4.412
38686W        W 3913  39.168  15.374  11.059
38687W        W 3914   3.854  20.826  14.716
38688W        W 3915  15.960  18.418  13.367
38689W        W 3916   0.385   3.639   0.327
38690W        W 3917  24.393  17.864  10.764
38691W        W 3918  17.311  23.477   9.899
38692W        W 3919  12.684  15.477   4.677
38693W        W 3920  39.606   6.579  11.091
38694W        W 3921  36.356  25.710   4.169
38695W        W 3922   6.506  29.020   3.693
38696W        W 3923  18.272  24.583   1.427
38697W        W 3924   1.386  31.242  14.869
38698W        W 3925   2.658  22.968  12.836
38699W        W 3926   2.896   9.912   0.494
38700W        W 3927  43.424  34.703   3.130
38701W        W 3928  22.577  24.862   0.396
38702W        W 3929  42.318   7.474   0.802
38703W        W 3930  17.104  11.253   4.425
38704W        W 3931  18.569  20.262   2.445
38705W        W 3932  28.021  37.915   2.245
38706W        W 3933   8.155  36.087  13.596
38707W        W 3934  16.809  22.784  13.113
38708W        W 3935  14.780  14.377   5.076
38709W        W 3936   0.781  40.286   1.770
38710W        W 3937  15.952  24.236   1.338
38711W        W 3938  18.176  30.729  11.545
38712W        W 3939   5.698  32.047   3.269
38713W        W 3940  11.765  30.311   5.146
38714W        W 3941  26.009  11.369  12.928
38715W        W 3942  24.607  14.753   3.641
38716W        W 3943   2.673  23.912   5.394
38717W        W 3944   5.316  22.625   2.647
38718W        W 3945   2.681  27.642   0.785
38719W        W 3946   9.324   3.938  12.612
38720W        W 3947  18.672   9.657   1.741
38721W        W 3948  41.385  44.396  12.084
38722W        W 3949  11.946  12.740  13.852
38723W        W 3950  42.933  35.660   1.888
38724W        W 3951   9.359  27.067   3.456
38725W        W 3952  37.968   8.262   3.130
38726W        W 3953  39.490  12.284  10.674
38727W        W 3954  39.979  27.014  12.524
38728W        W 3955  11.092   7.454   3.082
38729W        W 3956  27.093  19.790   3.233
38730W        W 3957  32.172  38.082   4.597
38731W        W 3958  26.036  11.705   3.089
38732W        W 3959  14.596  37.109   4.158
38733W        W 3960  23.580  13.846   3.549
38734W        W 3961  22.535  33.314  13.781
38735W        W 3962  11.423  14.219   2.639
38736W        W 3963  26.091   0.009  13.884
38737W        W 3964  39.574  18.795  11.964
38738W        W 3965  19.066   3.459   1.109
38739W        W 3966  38.840   5.228  13.438
38740W        W 3967  25.061  29.169   0.267
38741W        W 3968  37.619  13.671  13.474
38742W        W 3969   3.183  41.562  13.136
38743W        W 3970   4.790  41.381   3.270
38744W        W 3971   6.224  25.456   0.456
38745W        W 3972  13.509   3.926   3.085
38746W        W 3973   7.592  42.903   0.348
38747W        W 3974  29.559  27.500   2.565
38748W        W 3975  40.719  15.491   5.060
38749W        W 3976  38.000  42.252   2.364
38750W        W 3977  35.392   8.274   4.789
38751W        W 3978  15.091  19.854   3.965
38752W        W 3979  27.010  36.599  12.448
38753W        W 3980  36.433  43.750  12.903
38754W        W 3981  28.604  22.008   2.209
38755W        W 3982   4.289   4.959   0.706
38756W        W 3983   1.126  39.098  11.630
38757W        W 3984  11.442  39.901   1.723
38758W        W 3985   2.529   8.320   0.893
38759W        W 3986  21.251   5.431  13.805
38760W        W 3987  31.368  39.338  14.430
38761W        W 3988  32.446  41.994   3.837
38762W        W 3989  29.058  44.046  14.045
38763W        W 3990  23.505  34.975  13.540
38764W        W 3991   4.831  17.016   4.049
38765W        W 3992  30.031  21.272  10.709
38766W        W 3993  19.635   7.357   4.503
38767W        W 3994  31.215  36.376   3.442
38768W        W 3995   9.349  26.165   3.971
38769W        W 3996   0.551   2.980  13.841
38770W        W 3997  26.294  27.251  11.599
38771W        W 3998   3.037  38.596   0.001
38772W        W 3999  24.143  26.264   2.832
38773W        W 4000  12.124   4.240  11.017
38774W        W 4001  14.186  14.484  13.418
38775W        W 4002  27.114  21.794  11.560
38776W        W 4003   5.024  36.849  14.043
38777W        W 4004  31.384  40.819   3.685
38778W        W 4005  41.829  18.886   1.572
38779W        W 4006  30.605  38.031  14.318
38780W        W 4007  28.629  32.681   2.292
38781W        W 4008  42.792  10.138   1.534
38782W        W 4009  25.555  33.826  14.978
38783W        W 4010  18.246  18.508  12.116
38784W        W 4011   9.409   1.494   3.654
38785W        W 4012  14.779  33.223  10.141
38786W        W 4013  11.312   6.549   2.102
38787W        W 4014  21.894  39.676   3.354
38788W        W 4015   5.257   0.336  14.867
38789W        W 4016  21.572  31.727   0.980
38790W        W 4017  17.650  28.151  10.590
38791W        W 4018   1.381  18.123  12.374
38792W        W 4019  35.964   4.158   2.239
38793W        W 4020  17.082  26.628  13.085
38794W        W 4021  31.463  31.487  14.374
38795W        W 4022  37.458   0.947  13.533
38796W        W 4023  38.574  16.021  12.904
38797W        W 4024  16.848  24.209  13.341
38798W        W 4025  26.026  10.848  10.799
38799W        W 4026   2.141  24.254   2.716
38800W        W 4027  28.178  23.424  11.996
38801W        W 4028   1.400  35.274  11.550
38802W        W 4029  16.680   2.666  13.834
38803W        W 4030  25.026  38.942   1.441
38804W        W 4031  33.586  25.899  10.605
38805W        W 4032  34.001  12.327  12.079
38806W        W 4033  40.924  38.499  13.600
38807W        W 4034  32.000  33.290  11.614
38808W        W 4035  22.065  25.216   3.488
38809W        W 4036  18.952   1.713   1.514
38810W        W 4037   5.077   9.052  13.453
38811W        W 4038  35.665  31.472   1.433
38812W        W 4039  29.673  34.450   1.376
38813W        W 4040  12.358  39.188   0.242
38814W        W 4041   6.466  44.537   0.446
38815W        W 4042  25.591  43.502  14.299
38816W        W 4043   2.968  30.384  14.430
38817W        W 4044   3.417  37.105   2.793
38818W        W 4045  13.652  41.614   4.204
38819W        W 4046  17.590  32.829  11.097
38820W        W 4047  15.236  23.237   4.111
38821W        W 4048   7.097  23.070  11.619
38822W        W 4049  14.742  27.275  13.238
38823W        W 4050  44.909  21.798   4.753
38824W        W 4051  27.066  29.856  14.923
38825W        W 4052  20.054  19.450  11.652
38826W        W 4053  19.447  20.804  11.352
38827W        W 4054  31.926  34.325  10.735
38828W        W 4055  28.696  34.522   4.249
38829W        W 4056   5.730  29.474  10.679
38830W        W 4057  10.825  39.369   1.127
38831W        W 4058  42.714  17.679  14.390
38832W        W 4059  41.470  18.710  11.072
38833W        W 4060  32.498  34.071   1.856
38834W        W 4061  30.601  25.380   4.495
38835W        W 4062   5.950  43.025   9.623
38836W        W 4063   2.405  20.537  12.280
38837W        W 4064  13.325  43.767  11.094
38838W        W 4065  38.263  40.361   0.667
38839W        W 4066  23.558  21.477  12.004
38840W        W 4067  24.617  38.276   0.357
38841W        W 4068  19.629   4.208  13.922
38842W        W 4069  30.422  32.223   4.553
38843W        W 4070  12.235  29.291   0.851
38844W        W 4071   3.213  25.571  12.344
38845W        W 4072   2.468   7.092  13.405
38846W        W 4073  43.590   9.591   1.331
38847W        W 4074   7.224  40.785  12.364
38848W        W 4075  22.734  13.079  10.343
38849W        W 4076  37.464   0.477  12.589
38850W        W 4077  24.739  11.808   0.367
38851W        W 4078  26.659   0.850   3.084
38852W        W 4079  22.065  11.682  12.972
38853W        W 4080  13.224  26.122  13.573
38854W        W 4081  17.606  15.122   0.775
38855W        W 4082  42.688  29.422  10.496
38856W        W 4083   4.158   8.098  11.122
38857W        W 4084  40.852  27.145  12.859
38858W        W 4085  39.519   8.660  11.599
38859W        W 4086  19.274  33.911  10.790
38860W        W 4087   9.650  18.650   2.209
38861W        W 4088  41.985  29.906  14.051
38862W        W 4089  20.160  23.981  14.263
38863W        W 4090  28.597  24.800  10.833
38864W        W 4091   1.840  37.086   3.235
38865W        W 4092  29.195  29.392   2.077
38866W        W 4093  36.424   6.782  12.432
38867W        W 4094  32.361  27.516  14.352
38868W        W 4095   6.036   3.637  11.247
38869W        W 4096   6.037  28.504   0.514
38870W        W 4097  37.132  33.583   1.292
38871W        W 4098  16.021  32.421  11.113
38872W        W 4099  30.489  34.593   3.247
38873W        W 4100  25.256  18.163  12.872
38874W        W 4101   2.251  16.151   3.509
38875W        W 4102   4.939  41.643  14.375
38876W        W 4103   2.717   4.689   5.027
38877W        W 4104   1.168  42.860   2.652
38878W        W 4105  42.374  43.006  11.610
38879W        W 4106  32.112  30.936  10.879
38880W        W 4107   1.200  28.189  12.869
38881W        W 4108  39.949   0.534  10.744
38882W        W 4109  22.939  34.842  13.033
38883W        W 4110  22.540  41.443  12.150
38884W        W 4111  34.672  22.182   2.284
38885W        W 4112  31.624   2.416   4.632
38886W        W 4113  41.483  37.607  12.881
38887W        W 4114  36.048  18.521  11.702
38888W        W 4115  16.471  28.552   2.978
38889W        W 4116  31.469  11.390  10.620
38890W        W 4117   3.180  14.793  13.958
38891W        W 4118  28.156  44.453   4.221
38892W        W 4119  11.327  30.569   4.689
38893W        W 4120  15.052  22.749  13.426
38894W        W 4121  23.262  41.523   1.277
38895W        W 4122  32.075  31.202   1.636
38896W        W 4123  24.681   3.476  14.857
38897W        W 4124   9.317  28.003   0.500
38898W        W 4125   3.369  22.551   0.271
38899W        W 4126  13.208  23.328  13.555
38900W        W 4127  18.235  22.056  10.716
38901W        W 4128  26.061  15.149  12.465
38902W        W 4129  23.545  13.226  14.453
38903W        W 4130   3.637  16.296   1.329
38904W        W 4131  19.684  20.119   4.144
38905W        W 4132  26.882  27.127  14.873
38906W        W 4133   3.078  27.480  13.267
38907W        W 4134  37.920  17.096   1.262
38908W        W 4135   2.500  17.635  13.988
38909W        W 4136  34.886  30.944   0.877
38910W        W 4137  39.391   6.803   0.195
38911W        W 4138  32.857  13.318  14.874
38912W        W 4139   6.847  32.544   0.454
38913W        W 4140  20.059  34.259  11.173
38914W        W 4141   2.340  11.664  12.527
38915W        W 4142   8.673  24.202  11.144
38916W        W 4143  30.081  36.240  12.929
38917W        W 4144   8.512  12.713   0.673
38918W        W 4145  12.912  21.547  14.526
38919W        W 4146  34.922   7.964  11.521
38920W        W 4147  18.098  43.425   1.910
38921W        W 4148   1.324  23.238  10.693
38922W        W 4149   3.406  23.922  11.555
38923W        W 4150  15.897  32.903  14.441
38924W        W 4151  26.953  26.915   2.798
38925W        W 4152   8.139  31.885   1.115
38926W        W 4153   2.299  27.717  14.844
38927W        W 4154  39.075  40.038  14.760
38928W        W 4155  15.821  39.914   1.679
38929W        W 4156  27.539  25.143   4.552
38930W        W 4157  40.229  26.177  13.493
38931W        W 4158  31.519  16.616  14.294
38932W        W 4159   3.762   5.763  14.064
38933W        W 4160  16.255  36.065  14.506
38934W        W 4161  17.136  34.451  10.751
38935W        W 4162  44.163   7.819  10.360
38936W        W 4163  35.677  15.578   4.675
38937W        W 4164   8.798   9.786  14.983
38938W        W 4165  20.250  28.470   4.535
38939W        W 4166  17.031  41.230   1.178
38940W        W 4167   9.537  10.633   1.772
38941W        W 4168  42.783  16.924  12.887
38942W        W 4169  39.819  31.514  14.813
38943W        W 4170  29.189  24.511  10.969
38944W        W 4171  30.143  22.249   3.665
38945W        W 4172  23.493  26.722  14.890
38946W        W 4173   9.254  18.651  12.890
38947W        W 4174  29.293  15.060   4.774
38948W        W 4175  26.608  13.749   4.178
38949W        W 4176   3.064   1.854  13.016
38950W        W 4177  14.415  44.376   1.362
38951W        W 4178  18.249   3.196   4.525
38952W        W 4179  40.999  30.343   4.661
38953W        W 4180   8.359  17.571  14.436
38954W        W 4181  21.884  34.091  11.192
38955W        W 4182  18.981  21.285  13.391
38956W        W 4183   5.291  15.614  12.456
38957W        W 4184   0.782   4.018  14.073
38958W        W 4185  10.743   3.628   2.749
38959W        W 4186  12.996  41.033  14.476
38960W        W 4187  34.011  21.214  13.240
38961W        W 4188  36.558  42.510   0.788
38962W        W 4189  33.479  29.497  12.506
38963W        W 4190  20.531  12.155  10.641
38964W        W 4191   9.911  39.622   0.632
38965W        W 4192  17.001   1.852  13.515
38966W        W 4193   5.373  10.281  11.515
38967W        W 4194  37.338  19.286   0.509
38968W        W 4195  22.719  44.301  12.075
38969W        W 4196  14.321  43.115   1.683
38970W        W 4197   0.761   7.220  10.637
38971W        W 4198  34.558   6.771  14.316
38972W        W 4199  23.482  39.375   2.860
38973W        W 4200  39.622  41.321  12.115
38974W        W 4201  24.169  30.412  10.379
38975W        W 4202  11.352  43.834  13.347
38976W        W 4203  24.599   2.486  11.553
38977W        W 4204  20.276  43.453   4.239
38978W        W 4205   0.814  24.214  10.502
38979W        W 4206  43.037  32.331   3.593
38980W        W 4207  31.601  42.455   3.261
38981W        W 4208  35.122  21.573  12.871
38982W        W 4209  39.244  39.578   2.257
38983W        W 4210   1.887  41.776  14.359
38984W        W 4211  34.871  31.933   2.290
38985W        W 4212  34.389  10.733  11.612
38986W        W 4213  22.769  42.320   1.451
38987W        W 4214   4.107   4.186  14.457
38988W        W 4215  27.517  31.681   0.849
38989W        W 4216  33.201   6.216  10.315
38990W        W 4217  31.083   0.283  11.057
38991W        W 4218  26.276  20.298  12.744
38992W        W 4219  15.264  28.232   3.749
38993W        W 4220  24.928  17.608  12.903
38994W        W 4221  12.671  26.544  11.583
38995W        W 4222  21.472  23.035  14.477
38996W        W 4223  21.156  36.758   4.932
38997W        W 4224   2.249  16.782   0.361
38998W        W 4225  17.175  33.009  12.212
38999W        W 4226  26.425  38.563   0.969
39000W        W 4227  25.756  38.108  12.051
39001W        W 4228   2.901   0.902   0.752
39002W        W 4229  16.012  14.276   1.927
39003W        W 4230  21.484   5.843  12.935
39004W        W 4231  27.500  13.874  12.014
39005W        W 4232  15.287  24.182  14.861
39006W        W 4233  10.742  44.796   3.112
39007W        W 4234  18.939  18.952  13.448
39008W        W 4235  43.864  43.956   4.127
39009W        W 4236  41.474  30.893  14.459
39010W        W 4237  26.971  39.442  10.335
39011W        W 4238  35.589   1.380   3.685
39012W        W 4239   9.307  35.495   1.115
39013W        W 4240  12.286   8.233  13.746
39014W        W 4241  34.090  33.824  10.679
39015W        W 4242  21.199  39.168   4.628
39016W        W 4243  32.015  24.549   0.052
39017W        W 4244  30.676   1.147   1.654
39018W        W 4245  41.327  21.528  12.052
39019W        W 4246  23.802   4.375   4.027
39020W        W 4247   6.881  44.457  11.162
39021W        W 4248  21.504  36.439  14.774
39022W        W 4249  27.532  22.659  13.333
39023W        W 4250  41.660  18.550   4.020
39024W        W 4251  22.283  24.466  14.370
39025W        W 4252  13.221   9.762  13.123
39026W        W 4253  38.352   8.246  11.992
39027W        W 4254  39.054  15.606  14.895
39028W        W 4255  27.083  26.948   0.353
39029W        W 4256  36.617  17.206   4.583
39030W        W 4257  28.246  10.053   3.596
39031W        W 4258   3.414  27.261   0.774
39032W        W 4259  25.314  11.738   0.591
39033W        W 4260  43.488  38.297   4.410
39034W        W 4261  12.599   7.390   3.278
39035W        W 4262  24.573  35.814  11.539
39036W        W 4263  35.392  23.539  11.193
39037W        W 4264  30.889  16.091  10.966
39038W        W 4265  32.053  24.536  10.746
39039W        W 4266  40.473  43.515  14.056
39040W        W 4267   8.678   8.768   3.113
39041W        W 4268  42.977   6.613   9.673
39042W        W 4269  33.029   8.285   2.697
39043W        W 4270   0.116  20.247  10.700
39044W        W 4271   0.186  18.290   3.359
39045W        W 4272  41.005  32.917   2.458
39046W        W 4273  20.689   7.613  10.304
39047W        W 4274  14.647  23.761   1.929
39048W        W 4275  43.116  22.451  12.630
39049W        W 4276  40.376   8.597  14.821
39050W        W 4277  24.246   8.096  12.126
39051W        W 4278   5.082  39.714  11.001
39052W        W 4279  31.808  35.332   3.249
39053W        W 4280  15.573  13.215  10.683
39054W        W 4281   5.933  23.727   0.543
39055W        W 4282  44.810  34.436   2.145
39056W        W 4283   1.336   1.397  14.419
39057W        W 4284  10.710   7.871   4.768
39058W        W 4285  17.033   9.816   0.732
39059W        W 4286   0.332  24.765  11.500
39060W        W 4287  14.510  21.989  12.487
39061W        W 4288  26.681  35.328  13.834
39062W        W 4289  40.546   5.648   3.377
39063W        W 4290  24.536   7.796  10.774
39064W        W 4291  21.884  32.061  12.752
39065W        W 4292  21.225  28.211   2.366
39066W        W 4293   9.512  31.756   5.015
39067W        W 4294  33.463  36.148  11.442
39068W        W 4295  27.486   0.088   4.345
39069W        W 4296  32.673  21.403  13.888
39070W        W 4297  39.916  11.123   4.227
39071W        W 4298  26.365  14.223   4.189
39072W        W 4299  20.072  43.846   4.529
39073W        W 4300  18.050  37.069   3.625
39074W        W 4301  37.942  39.545   0.983
39075W        W 4302   2.890  41.360   4.562
39076W        W 4303  19.586   5.524   4.767
39077W        W 4304  14.349  33.550  14.929
39078W        W 4305  25.229   8.384  13.344
39079W        W 4306   2.184   0.531  14.858
39080W        W 4307  35.062  42.274  12.924
39081W        W 4308  33.784  18.984  14.920
39082W        W 4309  23.174  34.137  11.344
39083W        W 4310   4.059  32.149  14.337
39084W        W 4311  36.484  10.326  11.263
39085W        W 4312  17.034  35.575   2.162
39086W        W 4313  40.459  40.971   0.584
39087W        W 4314   5.708  34.385  14.377
39088W        W 4315  44.932  18.863   0.753
39089W        W 4316  38.098  28.414  14.387
39090W        W 4317  24.285  20.251  14.345
39091W        W 4318   4.083  13.772   3.843
39092W        W 4319   7.169  18.947  14.165
39093W        W 4320  29.220   0.761   0.797
39094W        W 4321  11.258  20.067   4.107
39095W        W 4322  15.887  25.584   1.768
39096W        W 4323  33.860  29.137   2.668
39097W        W 4324  29.111  29.534   0.617
39098W        W 4325  38.277   3.271   1.331
39099W        W 4326  27.257  40.402  12.870
39100W        W 4327  12.361  34.724   9.884
39101W        W 4328  18.573   4.699   2.763
39102W        W 4329   2.210  36.800  14.122
39103W        W 4330   8.165   8.626   2.359
39104W        W 4331  24.309  35.059  10.405
39105W        W 4332  16.333   8.412   4.165
39106W        W 4333  37.983  15.789  14.053
39107W        W 4334  12.022  10.579   1.732
39108W        W 4335  12.611  36.972   4.128
39109W        W 4336  38.514  29.879  12.931
39110W        W 4337  18.011  27.800   3.642
39111W        W 4338  38.754   6.283   0.360
39112W        W 4339  29.380  43.853  12.387
39113W        W 4340  40.807  15.826   0.367
39114W        W 4341  23.519   8.833  13.548
39115W        W 4342  12.409  13.299   0.260
39116W        W 4343  44.925  33.095  14.851
39117W        W 4344   5.163  16.820   0.482
39118W        W 4345  29.549   5.136   4.845
39119W        W 4346  38.855   8.455  13.993
39120W        W 4347  17.065   8.590  11.197
39121W        W 4348   3.240  38.924  11.698
39122W        W 4349  16.572  12.758  12.980
39123W        W 4350  44.346   7.415  14.660
39124W        W 4351  24.885  28.677   2.764
39125W        W 4352  37.664  38.688   1.906
39126W        W 4353   1.230  19.566   1.408
39127W        W 4354  26.322  27.134  10.605
39128W        W 4355  35.891  33.816   4.261
39129W        W 4356  26.784  43.999   4.212
39130W        W 4357  44.230  23.337   1.811
39131W        W 4358  16.721  43.044  12.849
39132W        W 4359   5.994  22.676   4.815
39133W        W 4360   3.101  24.576   0.711
39134W        W 4361  40.437  11.598  11.127
39135W        W 4362  41.162  14.727  12.010
39136W        W 4363   2.820  16.031  12.410
39137W        W 4364  15.383   4.991  11.507
39138W        W 4365  10.975  14.796   5.590
39139W        W 4366  25.759  43.389   0.371
39140W        W 4367  30.004  16.637   0.876
39141W        W 4368  36.679  35.634   1.805
39142W        W 4369  34.127  16.815  13.930
39143W        W 4370  13.423  20.538  12.133
39144W        W 4371  37.197  33.753   4.745
39145W        W 4372  30.955  33.051  13.533
39146W        W 4373  26.975   1.250   2.945
39147W        W 4374  36.549  15.293   4.134
39148W        W 4375  37.717  34.580  12.820
39149W        W 4376  42.735  25.159   5.214
39150W        W 4377   0.489   6.804   1.361
39151W        W 4378  43.911  28.478   0.837
39152W        W 4379  32.359  25.806  14.549
39153W        W 4380  31.953  11.744  12.453
39154W        W 4381  19.172  30.430   0.330
39155W        W 4382   4.288  31.888  11.643
39156W        W 4383  28.166  41.565  13.895
39157W        W 4384  25.662  39.432   1.339
39158W        W 4385  19.394  10.647  11.602
39159W        W 4386  18.020  23.201  12.923
39160W        W 4387   0.831  13.761   3.540
39161W        W 4388  20.483   3.602   1.223
39162W        W 4389   7.602  20.195  10.764
39163W        W 4390  21.608  12.558   1.749
39164W        W 4391   1.749  38.004  14.860
39165W        W 4392  33.226  29.487   0.238
39166W        W 4393  29.291   3.874   0.282
39167W        W 4394  31.865   8.486  12.386
39168W        W 4395  38.950  25.779  13.039
39169W        W 4396   7.014  25.852   1.745
39170W        W 4397  18.138  13.202  14.340
39171W        W 4398  26.413  24.623  12.354
39172W        W 4399  24.891   8.627   1.277
39173W        W 4400   8.347  20.112   1.904
39174W        W 4401   7.413  44.426   3.249
39175W        W 4402  35.634   0.864  11.120
39176W        W 4403  26.029  18.295  10.703
39177W        W 4404  11.831  38.591  11.553
39178W        W 4405   1.945   4.999  12.921
39179W        W 4406   4.830  44.255   2.254
39180W        W 4407  26.047  32.145  12.023
39181W        W 4408  22.281  15.706   1.171
39182W        W 4409  10.122  39.782   2.812
39183W        W 4410  13.364  28.775  14.160
39184W        W 4411  27.641  12.365  11.108
39185W        W 4412  33.853  23.028   4.434
39186W        W 4413  15.681  36.662   2.643
39187W        W 4414   4.432  27.386  11.101
39188W        W 4415  20.491  28.124   3.290
39189W        W 4416  41.955   7.743  14.371
39190W        W 4417  32.215  20.713  13.375
39191W        W 4418   4.974  29.977  12.125
39192W        W 4419  26.778  12.114   2.219
39193W        W 4420   0.934  21.888   0.226
39194W        W 4421  19.981   8.643   3.377
39195W        W 4422  19.161   2.814   0.305
39196W        W 4423  38.378  20.785  14.948
39197W        W 4424  12.405  31.019   1.993
39198W        W 4425  41.427  14.641  12.439
39199W        W 4426  12.643  32.641  14.956
39200W        W 4427  19.623   9.108   0.099
39201W        W 4428   2.731  19.805  12.518
39202W        W 4429  33.399   7.494  14.014
39203W        W 4430  24.282  15.000  14.041
39204W        W 4431  34.352  29.264  14.014
39205W        W 4432  34.666   1.319  11.997
39206W        W 4433  38.865  34.931   3.265
39207W        W 4434  35.641  32.155   0.830
39208W        W 4435  20.285  19.447   5.167
39209W        W 4436   2.238  17.358   3.387
39210W        W 4437   6.412  31.839   2.122
39211W        W 4438   7.345   1.682  13.536
39212W        W 4439  16.467   8.305  10.615
39213W        W 4440   5.113  23.284  11.732
39214W        W 4441   5.035  42.655  12.499
39215W        W 4442  27.713   6.880   0.235
39216W        W 4443   9.595  14.172  14.547
39217W        W 4444  39.788   5.409   0.966
39218W        W 4445  10.491  40.378   4.925
39219W        W 4446  43.478   3.339   3.405
39220W        W 4447  29.426  19.742  13.890
39221W        W 4448  44.640   0.363   4.169
39222W        W 4449   2.258  34.595  12.077
39223W        W 4450  30.069  38.170   3.155
39224W        W 4451   9.795  21.542   2.173
39225W        W 4452  35.499   1.161   2.014
39226W        W 4453   7.482  10.372  13.548
39227W        W 4454  30.578   7.832  12.875
39228W        W 4455  30.885  35.907  10.953
39229W        W 4456  31.476  23.675   1.657
39230W        W 4457   1.752  32.929  10.655
39231W        W 4458  18.258  27.458  12.592
39232W        W 4459  30.049  41.335   4.435
39233W        W 4460  11.252  37.392  11.220
39234W        W 4461  14.133   6.881   1.201
39235W        W 4462   3.921   8.764  12.029
39236W        W 4463  22.621   3.509  11.133
39237W        W 4464   1.264   7.083  10.676
39238W        W 4465  10.352  19.606  13.942
39239W        W 4466  36.342  24.116   2.475
39240W        W 4467   5.249  36.006   3.188
39241W        W 4468   4.845   4.382   4.081
39242W        W 4469  17.211  24.240   1.226
39243W        W 4470  39.987  37.862   1.828
39244W        W 4471  32.899  14.936  11.205
39245W        W 4472  35.370  10.979  11.427
39246W        W 4473  32.355  44.833   2.179
39247W        W 4474  21.055  19.358   2.688
39248W        W 4475  13.889  44.300   2.934
39249W        W 4476  26.219  17.748   4.585
39250W        W 4477  25.270  30.116  13.851
39251W        W 4478  41.700  16.536  14.278
39252W        W 4479  11.246  17.225   0.917
39253W        W 4480  40.995  37.431  12.716
39254W        W 4481   8.720  31.141   0.748
39255W        W 4482  16.356   2.529  10.669
39256W        W 4483  37.944  24.560   0.415
39257W        W 4484   3.251  21.543  13.111
39258W        W 4485  29.309   5.089  14.342
39259W        W 4486   8.003  40.829  10.395
39260W        W 4487  42.896   6.709   5.464
39261W        W 4488  41.332  11.089   1.366
39262W        W 4489   0.378   1.897  14.482
39263W        W 4490  31.605  43.319  12.356
39264W        W 4491  34.689  28.460  14.032
39265W        W 4492  44.825  42.012  14.456
39266W        W 4493  21.316  35.745   2.800
39267W        W 4494  42.357  40.714   3.862
39268W        W 4495  32.883  25.168  10.146
39269W        W 4496  13.708  20.783  10.421
39270W        W 4497   0.764   3.940   4.600
39271W        W 4498  31.414   3.954   0.541
39272W        W 4499  31.604   8.169   2.319
39273W        W 4500  28.641  17.328   3.700
39274W        W 4501  34.204  33.599  11.364
39275W        W 4502  13.631  27.165  12.962
39276W        W 4503  36.410  11.928   0.177
39277W        W 4504  35.357  26.674   4.235
39278W        W 4505  26.729  14.252   0.782
39279W        W 4506   9.505  19.147   9.985
39280W        W 4507  13.808   1.611   2.705
39281W        W 4508  22.046  33.481   3.905
39282W        W 4509   3.661  37.943  13.751
39283W        W 4510  18.724  13.661   1.309
39284W        W 4511   3.462  37.390  10.414
39285W        W 4512  44.405  23.946  13.230
39286W        W 4513  18.230  36.128  12.528
39287W        W 4514  39.758   5.918   2.752
39288W        W 4515  44.843  14.682  13.485
39289W        W 4516  15.178   1.681  11.181
39290W        W 4517  26.009   5.970   4.222
39291W        W 4518  31.456  12.173   3.160
39292W        W 4519  20.824   0.740   0.774
39293W        W 4520  28.005  26.469   1.328
39294W        W 4521  13.311   9.960  14.445
39295W        W 4522   3.448  44.733  13.858
39296W        W 4523   5.819  13.024  14.088
39297W        W 4524   0.966   8.587   0.963
39298W        W 4525  40.071  40.527  14.068
39299W        W 4526  14.194  16.910   3.577
39300W        W 4527   7.660  22.475  10.409
39301W        W 4528  15.715  27.401   2.846
39302W        W 4529  24.020   3.975  10.374
39303W        W 4530  42.327  32.018  13.333
39304W        W 4531  40.416   5.232  14.248
39305W        W 4532   6.632   7.856  11.894
39306W        W 4533  28.951  32.062  12.013
39307W        W 4534  31.527  13.661  10.312
39308W        W 4535   2.687  24.157  14.868
39309W        W 4536   6.942  14.142  13.035
39310W        W 4537  22.218  27.536   4.144
39311W        W 4538  19.268  19.255   0.776
39312W        W 4539   5.214  30.004  13.080
39313W        W 4540  16.180  33.928  10.549
39314W        W 4541  28.593  26.591  10.488
39315W        W 4542  36.164  35.615   1.834
39316W        W 4543   2.710   0.350  12.198
39317W        W 4544  15.784  14.973   1.244
39318W        W 4545   2.642  26.474  14.827
39319W        W 4546  37.645  38.451   4.211
39320W        W 4547  42.682  31.704   4.316
39321W        W 4548   9.889  38.439  14.557
39322W        W 4549   9.853  23.807   0.535
39323W        W 4550  37.919   1.688   2.189
39324W        W 4551   1.529  25.793   5.363
39325W        W 4552   2.503   9.186   2.323
39326W        W 4553   2.223  36.504   2.385
39327W        W 4554   5.100   5.858   2.216
39328W        W 4555  38.518  40.298   4.298
39329W        W 4556  37.072   5.607  11.965
39330W        W 4557  36.355   3.780   3.136
39331W        W 4558  15.914  18.650   0.158
39332W        W 4559  22.107   0.024  13.328
39333W        W 4560  31.239  22.233  10.354
39334W        W 4561  40.939  15.666   2.159
39335W        W 4562  34.419  42.641   0.370
39336W        W 4563   9.588  44.772   3.752
39337W        W 4564  44.910  16.648   3.179
39338W        W 4565  33.198  40.500   3.318
39339W        W 4566  38.788  15.146  14.828
39340W        W 4567  15.696  18.696   3.375
39341W        W 4568  26.530  18.474  10.751
39342W        W 4569  32.060   9.699  10.957
39343W        W 4570  16.514  41.171   1.174
39344W        W 4571  23.940   4.468   3.123
39345W        W 4572  30.523  29.539  13.608
39346W        W 4573  44.706  10.245   4.330
39347W        W 4574  21.967  24.621   2.679
39348W        W 4575  30.081   0.906   3.113
39349W        W 4576   0.365   7.006  14.994
39350W        W 4577  10.929   4.770   9.998
39351W        W 4578   6.989   8.485   2.791
39352W        W 4579  13.636  31.012  14.373
39353W        W 4580  13.241  13.355  10.633
39354W        W 4581  25.547  23.266   0.772
39355W        W 4582  27.742  16.762  13.737
39356W        W 4583   5.764  29.506  14.222
39357W        W 4584  43.964  16.152  12.419
39358W        W 4585  27.608   2.167   2.249
39359W        W 4586  39.365   8.360   4.013
39360W        W 4587  12.538  18.499   1.812
39361W        W 4588   4.710  12.423   3.996
39362W        W 4589  38.098  29.020   2.987
39363W        W 4590   6.573  22.513   0.019
39364W        W 4591  32.091  15.769   2.355
39365W        W 4592   3.369  44.112  10.659
39366W        W 4593  33.492  36.384  14.444
39367W        W 4594  28.919  21.385   4.073
39368W        W 4595  18.372  34.501   1.689
39369W        W 4596  23.414  21.403   0.912
39370W        W 4597  39.505  39.463  13.102
39371W        W 4598   6.292   3.416  11.610
39372W        W 4599  37.812  19.657  11.493
39373W        W 4600  37.889   1.262   3.307
39374W        W 4601   4.885  44.993  10.634
39375W        W 4602   1.834   7.642   0.753
39376W        W 4603  18.840  37.844   0.305
39377W        W 4604  16.769   1.333  10.722
39378W        W 4605  12.134   1.545   2.310
39379W        W 4606   0.986  28.407   3.086
39380W        W 4607  20.622  13.679   0.974
39381W        W 4608  10.272  12.538   4.660
39382W        W 4609  20.216   1.364  13.604
39383W        W 4610   9.684  18.860   0.812
39384W        W 4611  30.393  11.466  14.061
39385W        W 4612  17.233  40.390   4.030
39386W        W 4613  13.820  30.592  12.019
39387W        W 4614   0.975   6.905   2.337
39388W        W 4615  39.834   9.669  14.312
39389W        W 4616  35.163  35.712   3.381
39390W        W 4617  14.222  29.404  11.518
39391W        W 4618  28.351  37.319  12.627
39392W        W 4619  44.073  35.092   3.551
39393W        W 4620  10.396  23.964   1.816
39394W        W 4621  18.705  23.661  10.604
39395W        W 4622  37.812  42.293  14.588
39396W        W 4623  23.610  21.273   1.363
39397W        W 4624   9.692  37.466   0.795
39398W        W 4625   3.174  43.965   1.282
39399W        W 4626  41.454  36.329  11.415
39400W        W 4627  34.079  44.277   2.711
39401W        W 4628   4.215  37.322   0.391
39402W        W 4629   5.836  32.492  13.358
39403W        W 4630  22.294  14.318   2.704
39404W        W 4631  40.914  35.926   3.784
39405W        W 4632  26.284  12.281   2.329
39406W        W 4633  10.242  13.863  11.986
39407W        W 4634   1.254  32.150  10.683
39408W        W 4635  15.523   1.512  14.701
39409W        W 4636  14.735   7.923   1.811
39410W        W 4637  30.177  41.514   3.601
39411W        W 4638  37.772   6.389   3.500
39412W        W 4639  19.654  37.286   0.817
39413W        W 4640   9.397  28.489  12.505
39414W        W 4641  21.503  24.673   0.330
39415W        W 4642   0.088  14.337  12.358
39416W        W 4643  36.369  24.251  13.528
39417W        W 4644  25.573  24.449  13.148
39418W        W 4645  27.840   9.441  10.730
39419W        W 4646  15.064  26.496   3.225
39420W        W 4647  38.986  41.784  12.978
39421W        W 4648  28.230   3.523  11.491
39422W        W 4649  13.471  35.117   3.291
39423W        W 4650  36.530   0.989   0.737
39424W        W 4651  32.561  40.256  12.347
39425W        W 4652  22.825  22.935   3.864
39426W        W 4653   2.174  28.568  12.422
39427W        W 4654  44.471  38.028  11.136
39428W        W 4655  36.200  40.802   4.077
39429W        W 4656   6.739  42.797   5.134
39430W        W 4657   9.846  19.062   3.088
39431W        W 4658  17.143  29.837   4.694
39432W        W 4659  15.264   0.343  12.463
39433W        W 4660   7.953  20.089   1.174
39434W        W 4661  15.565  10.808   2.815
39435W        W 4662  42.168  38.472   4.516
39436W        W 4663  15.382  17.684  11.507
39437W        W 4664  33.477  32.448  13.858
39438W        W 4665   6.227  26.296  12.426
39439W        W 4666  38.282   6.139   0.194
39440W        W 4667  28.664  11.393   2.355
39441W        W 4668  25.522   6.380  13.235
39442W        W 4669  29.762  21.215   3.734
39443W        W 4670  38.300  24.206   0.247
39444W        W 4671   2.877  28.110  14.093
39445W        W 4672  17.313   6.136   2.803
39446W        W 4673   5.470  23.433  13.486
39447W        W 4674  30.565  19.994  11.133
39448W        W 4675  16.759  21.020  12.028
39449W        W 4676  41.579  27.030  11.907
39450W        W 4677  36.501  13.050   0.331
39451W        W 4678  15.678   5.484   4.465
39452W        W 4679  42.419  13.024  13.253
39453W        W 4680  41.039  44.864  12.427
39454W        W 4681   5.573  30.598  13.306
39455W        W 4682  39.646   8.394   3.584
39456W        W 4683   7.379  41.385  13.755
39457W        W 4684  40.173  15.681   2.765
39458W        W 4685  24.763   7.293   0.296
39459W        W 4686  29.114  40.020   1.112
39460W        W 4687  37.580  37.125   3.199
39461W        W 4688  30.963  34.823   4.022
39462W        W 4689  15.899  27.639   4.224
39463W        W 4690  18.513   0.680  12.929
39464W        W 4691  43.662  30.091   1.588
39465W        W 4692   9.658   9.424  11.615
39466W        W 4693   9.350  34.383  11.181
39467W        W 4694  40.051  20.517  11.144
39468W        W 4695  12.379  16.295   2.674
39469W        W 4696   4.762  20.835  14.937
39470W        W 4697  19.353  28.040  13.996
39471W        W 4698   5.960  31.593   2.267
39472W        W 4699   1.025  18.909   4.630
39473W        W 4700  17.609  26.831   3.583
39474W        W 4701  25.721   9.895   0.391
39475W        W 4702   2.814  38.745  11.376
39476W        W 4703  16.592   1.425   3.335
39477W        W 4704  20.167  11.721   2.765
39478W        W 4705  43.843   9.410  12.587
39479W        W 4706  12.729  42.273  10.656
39480W        W 4707  18.814  26.472   1.340
39481W        W 4708  28.031  38.112   3.161
39482W        W 4709  16.128  21.112   1.626
39483W        W 4710  13.538  42.876   1.515
39484W        W 4711  40.333  27.642  14.555
39485W        W 4712   7.803   3.737  14.884
39486W        W 4713  31.738   6.320   2.771
39487W        W 4714  23.702  17.114   2.273
39488W        W 4715  20.973  36.515   4.522
39489W        W 4716  25.647  21.594   4.083
39490W        W 4717  36.603  30.372   3.718
39491W        W 4718   5.289  13.119   2.452
39492W        W 4719  27.058  39.778  12.281
39493W        W 4720  30.958  18.717  14.055
39494W        W 4721   4.892   1.869   4.169
39495W        W 4722  39.812  20.359   3.718
39496W        W 4723  28.141  40.793  10.695
39497W        W 4724  27.094   7.227  10.471
39498W        W 4725   8.539  15.677  14.002
39499W        W 4726  37.447  32.091  11.549
39500W        W 4727  10.183  38.683   9.917
39501W        W 4728  31.553  19.251   2.677
39502W        W 4729  21.476   0.473  12.859
39503W        W 4730   6.269  43.751   1.931
39504W        W 4731   4.236  32.458   0.445
39505W        W 4732  22.623  37.475  10.022
39506W        W 4733   2.384  33.092   1.021
39507W        W 4734   9.093  23.367  11.119
39508W        W 4735   6.310  31.941  10.295
39509W        W 4736  18.144  12.293   2.953
39510W        W 4737  42.998   8.235   3.087
39511W        W 4738  25.464  32.373  12.023
39512W        W 4739  23.612   8.056   1.848
39513W        W 4740  15.704  22.995  11.232
39514W        W 4741  16.564  27.176   4.126
39515W        W 4742  40.410   2.708   0.343
39516W        W 4743  44.387   6.342   1.724
39517W        W 4744  30.702  20.715   2.364
39518W        W 4745  15.280  14.646   2.371
39519W        W 4746   5.045  40.133   1.384
39520W        W 4747   6.981   0.298  12.389
39521W        W 4748  11.861  42.089   3.138
39522W        W 4749  18.508   8.405  10.785
39523W        W 4750  15.353  33.071   0.819
39524W        W 4751   0.460   6.827   2.240
39525W        W 4752  29.398  37.416  11.187
39526W        W 4753  30.197  20.150   4.416
39527W        W 4754   6.025  41.332   0.805
39528W        W 4755   7.717   9.403   1.746
39529W        W 4756  33.879  28.095  13.948
39530W        W 4757  14.447   8.381   2.768
39531W        W 4758   8.404  13.952   1.207
39532W        W 4759  36.587  28.059  12.577
39533W        W 4760  35.920  30.927   1.218
39534W        W 4761   5.882  31.033   1.504
39535W        W 4762  37.745  14.633   1.351
39536W        W 4763   0.705  10.267   1.762
39537W        W 4764  25.375  20.760   4.819
39538W        W 4765  32.116  40.247  12.655
39539W        W 4766  13.674  10.264   2.690
39540W        W 4767  27.736  26.515  12.009
39541W        W 4768  22.785   7.263  11.048
39542W        W 4769  31.407  17.058   2.173
39543W        W 4770   9.311  10.847   4.372
39544W        W 4771   5.346  34.118   2.599
39545W        W 4772   5.188   3.208   3.387
39546W        W 4773  18.218  30.640  13.439
39547W        W 4774  42.396  31.944   2.735
39548W        W 4775   8.086  23.724  13.980
39549W        W 4776   3.419  35.403  13.695
39550W        W 4777  12.144   2.606   0.550
39551W        W 4778  24.407  10.967   2.834
39552W        W 4779  37.085   1.483   2.280
39553W        W 4780  27.630  22.131   3.344
39554W        W 4781  13.926  33.463  11.152
39555W        W 4782  17.564  20.865   1.262
39556W        W 4783  44.982  15.466  11.163
39557W        W 4784   3.747  12.139  14.107
39558W        W 4785  12.182  26.037  11.673
39559W        W 4786  33.522  24.628  12.029
39560W        W 4787  19.520  33.158   1.930
39561W        W 4788   4.880  12.309  10.987
39562W        W 4789   2.241   6.203   1.394
39563W        W 4790  13.134  21.465  11.268
39564W        W 4791  23.773   4.795  13.425
39565W        W 4792  17.257  20.048   0.637
39566W        W 4793  32.061   0.197  13.510
39567W        W 4794  44.980  40.390   1.400
39568W        W 4795   6.801  13.659   3.814
39569W        W 4796  44.333   3.755   2.739
39570W        W 4797  31.943   4.944   4.291
39571W        W 4798  26.439  20.221   4.547
39572W        W 4799   6.002  32.110   2.302
39573W        W 4800  31.604   9.302  11.514
39574W        W 4801  14.843  19.633  10.815
39575W        W 4802  29.020  17.972   1.496
39576W        W 4803  15.264  39.029  12.944
39577W        W 4804  38.806  17.854  13.157
39578W        W 4805  14.034   5.430   1.412
39579W        W 4806   5.304  13.452  12.032
39580W        W 4807  42.354  42.289   0.314
39581W        W 4808   8.770   5.388   4.533
39582W        W 4809  36.123  15.777  11.641
39583W        W 4810   7.744   5.216   4.970
39584W        W 4811  34.941  12.308  12.094
39585W        W 4812   5.927  28.531   2.866
39586W        W 4813  26.305  36.852   4.096
39587W        W 4814  32.812  37.626  11.703
39588W        W 4815   8.748  39.361   1.809
39589W        W 4816  19.076  26.920  10.730
39590W        W 4817  15.901  17.251   4.318
39591W        W 4818  26.361   2.735   3.416
39592W        W 4819   6.279  26.142   3.330
39593W        W 4820  21.626  22.765   1.394
39594W        W 4821  13.707  17.682   4.560
39595W        W 4822  19.222  24.477   2.689
39596W        W 4823   9.214  13.402  12.964
39597W        W 4824  10.296   4.945  11.496
39598W        W 4825  32.025  43.776  11.485
39599W        W 4826   9.938  19.013  13.432
39600W        W 4827  16.864  11.625  14.112
39601W        W 4828  25.563  16.192   3.296
39602W        W 4829  36.111  21.581  14.860
39603W        W 4830  38.820  35.446   3.119
39604W        W 4831  39.377  40.983  13.587
39605W        W 4832  40.099  37.627   3.676
39606W        W 4833  12.626   1.388  12.536
39607W        W 4834  41.545  19.316  12.759
39608W        W 4835  10.616  43.955   3.896
39609W        W 4836   8.650  30.263   4.004
39610W        W 4837  33.099  40.742  12.846
39611W        W 4838  38.323   4.877  12.079
39612W        W 4839  26.169  13.352  12.893
39613W        W 4840  39.804  44.363  10.702
39614W        W 4841  40.487  44.781   4.590
39615W        W 4842   5.236  17.137   2.184
39616W        W 4843  28.173  42.071   4.578
39617W        W 4844  30.712  43.926  14.520
39618W        W 4845  41.924  14.440   2.207
39619W        W 4846  40.838  24.708   4.106
39620W        W 4847  38.932   6.251  14.271
39621W        W 4848  31.664   7.672   2.303
39622W        W 4849  29.628  10.644   4.447
39623W        W 4850  40.202  39.155  12.420
39624W        W 4851   1.992  27.624   3.124
39625W        W 4852  26.558  12.514  12.945
39626W        W 4853  41.719  26.099  13.947
39627W        W 4854  29.298  14.452  10.653
39628W        W 4855  29.091   4.531   4.495
39629W        W 4856   8.965  22.794   3.666
39630W        W 4857  37.577  30.976  12.579
39631W        W 4858  14.005  40.715   1.869
39632W        W 4859   2.688  44.701   1.880
39633W        W 4860  37.647  35.639  11.146
39634W        W 4861  30.387  22.179  11.561
39635W        W 4862  20.235  22.623  10.190
39636W        W 4863  14.237   6.404  12.380
39637W        W 4864  12.144  30.917   2.444
39638W        W 4865  16.621  37.021  10.563
39639W        W 4866  10.572  24.942   1.775
39640W        W 4867  16.580  38.928   4.047
39641W        W 4868  26.761  15.792  14.022
39642W        W 4869  11.750  31.061  13.226
39643W        W 4870  39.910   7.046   4.180
39644W        W 4871  34.798  16.240   9.985
39645W        W 4872   4.947   5.324   2.251
39646W        W 4873  11.632  28.946  12.545
39647W        W 4874   6.106   4.796  10.454
39648W        W 4875  19.804  33.042  12.934
39649W        W 4876  33.821  22.040   0.569
39650W        W 4877  27.904  42.014   0.449
39651W        W 4878  27.143  16.873   1.497
39652W        W 4879  20.257  20.617   2.870
39653W        W 4880  40.697  22.980  12.544
39654W        W 4881   8.662  36.376   4.628
39655W        W 4882  29.687  31.058   4.355
39656W        W 4883  42.262  25.067   1.692
39657W        W 4884  24.061  13.325  10.703
39658W        W 4885   0.438  18.239  12.502
39659W        W 4886  17.564   7.850  12.542
39660W        W 4887  11.230  32.992  14.993
39661W        W 4888   0.471   7.680   0.344
39662W        W 4889  42.251  22.834   3.154
39663W        W 4890  42.341  11.203   0.158
39664W        W 4891  24.120  37.920   3.835
39665W        W 4892  28.076  39.694  11.519
39666W        W 4893  18.020  23.767  14.818
39667W        W 4894  39.272  43.821   1.339
39668W        W 4895  43.548  30.892  14.221
39669W        W 4896  26.095  18.255  14.316
39670W        W 4897  38.836  24.737   4.065
39671W        W 4898  44.901  41.743  11.182
39672W        W 4899   6.301  10.879   0.002
39673W        W 4900  32.434   6.645  11.261
39674W        W 4901  41.642  17.013  11.854
39675W        W 4902  15.803  25.170  12.468
39676W        W 4903  37.551  18.192   0.984
39677W        W 4904  39.904  34.276   2.314
39678W        W 4905  40.425  22.475  14.788
39679W        W 4906  28.102   9.053  11.653
39680W        W 4907  26.389  17.595  12.382
39681W        W 4908   5.661  24.052  14.881
39682W        W 4909  28.977  10.821  10.652
39683W        W 4910   4.344  26.085  13.159
39684W        W 4911  25.980  31.989   4.445
39685W        W 4912  37.050  17.856  12.876
39686W        W 4913  42.316   5.293   4.103
39687W        W 4914  20.806  10.105   3.044
39688W        W 4915  10.129  39.829   1.441
39689W        W 4916  44.722  12.486  13.978
39690W        W 4917  33.766  16.825   3.575
39691W        W 4918  30.943  38.879   0.968
39692W        W 4919  31.328  10.553   4.887
39693W        W 4920  43.498  24.209  12.314
39694W        W 4921  33.495  15.721  11.279
39695W        W 4922   9.517  20.311  14.373
39696W        W 4923  34.668  23.674   0.721
39697W        W 4924  33.652  13.486   5.335
39698W        W 4925  12.564  44.544   1.999
39699W        W 4926  29.506  38.674   2.648
39700W        W 4927  11.399  37.542   1.674
39701W        W 4928   7.810  34.446  12.572
39702W        W 4929  25.892  25.402  12.864
39703W        W 4930  43.090  15.532   0.256
39704W        W 4931  22.351  16.546   0.404
39705W        W 4932  27.933   3.550   0.102
39706W        W 4933  10.683  27.782   0.333
39707W        W 4934   8.686  33.405   4.716
39708W        W 4935  12.302  34.100   0.264
39709W        W 4936  18.031  14.581   0.033
39710W        W 4937  36.308  16.615   2.821
39711W        W 4938   2.321   0.512   4.498
39712W        W 4939  14.748  30.022   4.243
39713W        W 4940  18.792  11.461  10.773
39714W        W 4941   0.744  23.747   3.711
39715W        W 4942  13.898  11.125  14.942
39716W        W 4943   7.898  34.108  10.627
39717W        W 4944  30.786  18.832   4.215
39718W        W 4945  39.090  10.686   1.872
39719W        W 4946  38.146  10.747  14.853
39720W        W 4947  18.708  44.652   0.312
39721W        W 4948  35.629   5.340   1.228
39722W        W 4949  28.112  25.614   0.638
39723W        W 4950  15.336  44.927  14.438
39724W        W 4951  22.633  36.671  10.614
39725W        W 4952  42.105  11.103  11.681
39726W        W 4953  12.050  17.516  11.536
39727W        W 4954  33.794  25.665   1.286
39728W        W 4955  40.275  34.954  13.636
39729W        W 4956  27.106  16.304  13.392
39730W        W 4957  19.333  18.723  14.556
39731W        W 4958  15.865  26.763   0.549
39732W        W 4959  26.003  18.239  12.355
39733W        W 4960   4.471   4.337   2.924
39734W        W 4961  32.761   3.817  11.001
39735W        W 4962  36.288   5.776  10.797
39736W        W 4963  29.553  16.948  14.365
39737W        W 4964  18.881   0.961  11.184
39738W        W 4965  29.774  24.075  14.772
39739W        W 4966  37.999   9.338  12.659
39740W        W 4967   1.372  11.622  14.893
39741W        W 4968  13.239  20.130   1.389
39742W        W 4969  23.160   9.337  10.708
39743W        W 4970  13.557   6.057  11.194
39744W        W 4971  15.801  15.505   2.114
39745W        W 4972  41.915  26.853  11.520
39746W        W 4973  36.686  14.382   9.867
39747W        W 4974  23.097   4.464  14.464
39748W        W 4975   4.242  33.895  14.052
39749W        W 4976  17.567  29.058   3.674
39750W        W 4977  44.000  22.036  14.370
39751W        W 4978  31.262   0.492   3.665
39752W        W 4979  32.670  11.287  13.335
39753W        W 4980  39.971  29.943  13.641
39754W        W 4981  39.387  43.473   2.844
39755W        W 4982  37.007  37.498  10.867
39756W        W 4983  29.193  36.810   4.092
39757W        W 4984  25.325  20.728   1.769
39758W        W 4985   2.906  44.826  13.367
39759W        W 4986  38.453   6.880   0.701
39760W        W 4987   0.069  11.190  13.971
39761W        W 4988  28.438  12.660   4.997
39762W        W 4989  26.571  10.452   1.894
39763W        W 4990  10.851  22.894  14.044
39764W        W 4991  10.854  14.107   0.377
39765W        W 4992  35.220   3.052   5.052
39766W        W 4993  12.300   8.916   3.864
39767W        W 4994  14.609  35.162  12.060
39768W        W 4995  25.448  17.676  13.003
39769W        W 4996  33.341  40.863  13.761
39770W        W 4997  33.503   7.841  10.695
39771W        W 4998  16.559  42.088   4.532
39772W        W 4999  24.069  44.744   9.807
39773W        W 5000  34.843  42.955   1.845
39774W        W 5001  28.132  31.113   2.357
39775W        W 5002   8.771  38.303   1.821
39776W        W 5003  16.779  17.283  12.870
39777W        W 5004  28.169  32.875  11.947
39778W        W 5005  41.866  22.141   4.267
39779W        W 5006   8.848  36.026  12.907
39780W        W 5007  22.746  17.629   4.549
39781W        W 5008  35.775  26.517  14.560
39782W        W 5009  22.201  41.519  11.085
39783W        W 5010  43.183  37.746  11.565
39784W        W 5011  19.253  10.140  10.512
39785W        W 5012  23.106  44.500  13.701
39786W        W 5013  16.803  13.164   4.069
39787W        W 5014   6.420   1.012   0.889
39788W        W 5015  16.886   4.526   1.224
39789W        W 5016  23.070  15.210  11.478
39790W        W 5017  32.439  44.470  12.952
39791W        W 5018  31.185   8.923  10.751
39792W        W 5019  15.869  13.280  13.029
39793W        W 5020  21.601  11.686   4.589
39794W        W 5021  11.073  27.138   3.202
39795W        W 5022  18.202   9.612  13.822
39796W        W 5023  38.839   4.550   5.407
39797W        W 5024  29.543   9.617   4.570
39798W        W 5025   8.089  26.901  11.745
39799W        W 5026  15.617  36.769  14.432
39800W        W 5027   1.800  35.844   0.718
39801W        W 5028  10.151  40.776  12.504
39802W        W 5029  44.679   9.898  14.724
39803W        W 5030  16.388  35.146   4.121
39804W        W 5031  12.221  15.348  13.620
39805W        W 5032  40.880  33.323  14.031
39806W        W 5033  18.743  39.255   0.499
39807W        W 5034  29.144   7.908  11.208
39808W        W 5035  39.599  29.133   3.671
39809W        W 5036   8.730   4.214  10.606
39810W        W 5037  21.020  14.587  12.011
39811W        W 5038  19.453  34.933  13.388
39812W        W 5039   8.420  26.009   1.678
39813W        W 5040  13.771  19.969   4.188
39814W        W 5041  29.140  42.846   3.600
39815W        W 5042   1.977  30.605   2.353
39816W        W 5043  23.611  11.184  11.700
39817W        W 5044  18.438   1.442   2.705
39818W        W 5045  31.298  14.805   4.977
39819W        W 5046  21.904  31.916   2.604
39820W        W 5047  38.318  34.828   4.612
39821W        W 5048  13.844  30.444   0.074
39822W        W 5049  41.244  16.171   3.761
39823W        W 5050  37.776  41.521   2.856
39824W        W 5051  38.308  26.711   4.339
39825W        W 5052   7.190  40.084   0.769
39826W        W 5053  11.168  25.833  12.971
39827W        W 5054  11.148  30.519  13.543
39828W        W 5055  30.558  13.834   1.527
39829W        W 5056   1.247  26.436  11.063
39830W        W 5057  25.107  30.741   0.365
39831W        W 5058   0.488  42.557   1.739
39832W        W 5059  44.257  34.791   4.527
39833W        W 5060  28.869  22.158  13.046
39834W        W 5061  19.698  42.645  11.008
39835W        W 5062  39.296  26.588   1.391
39836W        W 5063  18.210  36.111   4.611
39837W        W 5064  31.125  22.697   4.034
39838W        W 5065  43.435  40.640   0.744
39839W        W 5066  30.639  42.863   0.223
39840W        W 5067  17.819  24.205  14.697
39841W        W 5068  10.047   0.388   1.912
39842W        W 5069  31.001  25.696  10.138
39843W        W 5070  19.793  39.562  14.299
39844W        W 5071  25.028   4.506  14.196
39845W        W 5072   0.277  44.075  11.097
39846W        W 5073   5.160  15.149  11.607
39847W        W 5074  33.152   8.577  10.501
39848W        W 5075  19.591   1.370   1.900
39849W        W 5076   3.445  36.800   0.929
39850W        W 5077  15.965   5.399   1.149
39851W        W 5078   6.929  21.483  13.880
39852W        W 5079  42.485   3.252  14.857
39853W        W 5080   4.065   3.124  10.714
39854W        W 5081  27.627   1.639   3.892
39855W        W 5082   2.651  35.852  13.473
39856W        W 5083  11.901  19.378  13.149
39857W        W 5084  10.344  20.575   1.812
39858W        W 5085  26.944  33.589   2.184
39859W        W 5086  20.234  29.898  12.577
39860W        W 5087  25.139   6.991   4.105
39861W        W 5088  34.822  36.234  10.089
39862W        W 5089  25.478  38.040  11.586
39863W        W 5090  28.558  19.658   0.661
39864W        W 5091  12.099  43.499   3.807
39865W        W 5092   3.647  33.341  11.686
39866W        W 5093   5.930  35.537  11.101
39867W        W 5094  12.685   5.207  11.467
39868W        W 5095  13.243  13.356  14.561
39869W        W 5096   3.753  29.531  11.613
39870W        W 5097  37.995   8.280   2.215
39871W        W 5098  11.620  13.292  12.354
39872W        W 5099   8.639   5.981   0.263
39873W        W 5100   4.907  43.823   9.889
39874W        W 5101  39.042  20.582  10.902
39875W        W 5102  24.575  11.144   0.916
39876W        W 5103  25.559  17.834   4.581
39877W        W 5104  16.208  21.530   3.103
39878W        W 5105   7.291   0.493   4.023
39879W        W 5106  39.566  27.940  13.464
39880W        W 5107   1.772   6.266   0.456
39881W        W 5108   4.343   7.225   4.645
39882W        W 5109  34.632   0.474   1.186
39883W        W 5110  13.575  14.337   4.120
39884W        W 5111   6.948   8.998   2.871
39885W        W 5112  29.388  33.158   0.016
39886W        W 5113   3.296  43.411  14.523
39887W        W 5114  42.834  18.081  11.120
39888W        W 5115   1.404  28.330   4.367
39889W        W 5116  29.870  22.143  14.096
39890W        W 5117  35.034  24.270  14.609
39891W        W 5118  33.405  10.651   3.208
39892W        W 5119  21.667  13.723  14.416
39893W        W 5120  16.034   9.445  13.307
39894W        W 5121   6.795  32.886  13.409
39895W        W 5122  38.966  31.682   4.529
39896W        W 5123  40.896  37.396   5.030
39897W        W 5124  29.933  19.569   0.015
39898W        W 5125  20.343  23.642  13.863
39899W        W 5126  31.374  38.845  13.608
39900W        W 5127  25.918   0.371   2.797
39901W        W 5128  11.019   2.195  11.280
39902W        W 5129  16.035  12.910   0.773
39903W        W 5130   0.445   3.065   3.938
39904W        W 5131  33.386  14.213   0.021
39905W        W 5132   9.411  30.546  12.500
39906W        W 5133   6.554  18.410   4.015
39907W        W 5134  40.570  30.321   0.899
39908W        W 5135   2.378  11.396  13.485
39909W        W 5136  16.239  22.799  11.204
39910W        W 5137  40.418  33.843  12.557
39911W        W 5138   8.858  33.490  11.187
39912W        W 5139  21.425  32.077  12.542
39913W        W 5140  33.332  21.538   4.311
39914W        W 5141   5.328  12.019   1.814
39915W        W 5142  35.436  28.953  13.125
39916W        W 5143  12.127  35.536   1.406
39917W        W 5144  19.314   0.733  12.506
39918W        W 5145  26.943   3.669   4.505
39919W        W 5146  30.052  30.761   0.296
39920W        W 5147  44.002  21.527   1.243
39921W        W 5148   3.155   3.660  12.331
39922W        W 5149  39.556  28.537   1.995
39923W        W 5150  19.620   1.409   4.731
39924W        W 5151  30.132  33.970   2.249
39925W        W 5152  36.273  25.203  14.522
39926W        W 5153   4.167  24.132   1.439
39927W        W 5154  32.054  27.008  14.941
39928W        W 5155  11.372  17.269  13.935
39929W        W 5156   6.242  32.276   1.253
39930W        W 5157  33.506  20.682  11.040
39931W        W 5158  13.624   3.193  12.544
39932W        W 5159  40.762  10.817   3.129
39933W        W 5160  42.978   6.909   2.340
39934W        W 5161   6.466  25.927  12.679
39935W        W 5162  37.308  12.415   2.274
39936W        W 5163  21.580  22.303  12.886
39937W        W 5164  38.258  41.288   0.666
39938W        W 5165  41.740   7.750  10.755
39939W        W 5166   2.379  18.322   3.814
39940W        W 5167   9.826  22.588  11.545
39941W        W 5168  25.750  42.904  13.612
39942W        W 5169  29.851  14.600  12.109
39943W        W 5170  13.103  44.192   4.815
39944W        W 5171   5.142   5.964   3.420
39945W        W 5172  23.936  38.476   4.424
39946W        W 5173  10.710   2.474   1.255
39947W        W 5174   2.974  22.595   1.774
39948W        W 5175   6.936  26.909   1.477
39949W        W 5176  19.653  24.138  14.241
39950W        W 5177   8.335  29.122   0.290
39951W        W 5178  10.112  15.613   0.859
39952W        W 5179   4.999  35.818   1.818
39953W        W 5180  26.789  39.353  12.155
39954W        W 5181  12.018  30.749   1.383
39955W        W 5182  22.218  43.525  13.469
39956W        W 5183  20.263  35.385  13.352
39957W        W 5184   0.473  41.566  14.780
39958W        W 5185  35.704  10.599  11.152
39959W        W 5186   3.022  24.383  13.056
39960W        W 5187  32.432  44.812   1.307
39961W        W 5188  18.900  17.520  11.518
39962W        W 5189  15.147  41.748  11.920
39963W        W 5190  29.652  28.943   0.358
39964W        W 5191  39.103  41.657   0.701
39965W        W 5192  37.600  12.733   2.009
39966W        W 5193   7.166  21.757   0.303
39967W        W 5194  11.735  12.363  11.969
39968W        W 5195  17.673  41.874   1.389
39969W        W 5196  24.128  17.222   3.678
39970W        W 5197  10.613  14.307  14.832
39971W        W 5198   1.972   0.715   3.570
39972W        W 5199  27.427  17.717   0.837
39973W        W 5200   3.212   8.397   0.001
39974W        W 5201  36.790   1.293  11.234
39975W        W 5202  25.767  22.590   4.293
39976W        W 5203  35.954  16.529   2.279
39977W        W 5204  43.459  42.553  12.176
39978W        W 5205  15.623  16.388   0.801
39979W        W 5206   1.999  18.338   0.316
39980W        W 5207   4.736   5.736   1.867
39981W        W 5208   1.950  13.396  10.699
39982W        W 5209  25.988   6.799  11.979
39983W        W 5210  27.073  32.192   3.697
39984W        W 5211  32.807  11.207   1.844
39985W        W 5212   0.957  38.682  13.872
39986W        W 5213  12.465  11.617   0.812
39987W        W 5214   8.593  37.426  13.119
39988W        W 5215  33.056  16.246   1.279
39989W        W 5216  14.631   1.065   2.613
39990W        W 5217   4.810  19.821  13.366
39991W        W 5218  14.428  29.608   4.191
39992W        W 5219  38.538  36.010  11.634
39993W        W 5220  10.978  32.120   0.085
39994W        W 5221  11.304  24.817  12.906
39995W        W 5222   5.066  12.999   0.274
39996W        W 5223  26.969  20.867  12.910
39997W        W 5224  25.241  30.174   0.377
39998W        W 5225   5.930   3.772   0.854
39999W        W 5226  41.267   1.956   3.341
40000W        W 5227  30.685   7.391   4.220
40001W        W 5228  15.763  31.222  11.625
40002W        W 5229  15.564  41.507  13.829
40003W        W 5230  11.848  24.542   2.225
40004W        W 5231  37.991   9.790  12.460
40005W        W 5232  15.747   6.269  11.456
40006W        W 5233  14.681  35.354   3.748
40007W        W 5234  11.110   5.163  11.803
40008W        W 5235  23.535  28.058   4.258
40009W        W 5236  40.108  19.963   0.781
40010W        W 5237   0.516   3.859   1.835
40011W        W 5238  24.459   2.835   1.828
40012W        W 5239  33.131  30.480   4.330
40013W        W 5240  28.627  25.995  11.562
40014W        W 5241  41.296  40.843  14.797
40015W        W 5242  11.779  43.573  13.546
40016W        W 5243   2.451  33.457   1.414
40017W        W 5244  10.088   1.380  12.919
40018W        W 5245  27.107  21.305   2.598
40019W        W 5246  31.612   5.768   2.389
40020W        W 5247  40.146  30.881  13.343
40021W        W 5248   0.747  30.893  11.471
40022W        W 5249  23.966  38.965   0.848
40023W        W 5250  23.218  10.157   1.281
40024W        W 5251   4.516  21.504  10.657
40025W        W 5252  17.310  10.265   0.786
40026W        W 5253   4.298   6.403  14.258
40027W        W 5254   7.147  30.351   3.086
40028W        W 5255  24.886  42.938   4.250
40029W        W 5256   1.481   3.623   1.697
40030W        W 5257  42.279  36.023  11.047
40031W        W 5258  12.784  19.907  14.442
40032W        W 5259  26.437  30.558   4.089
40033W        W 5260  41.813  43.824   1.496
40034W        W 5261  34.068  42.939  11.582
40035W        W 5262  34.832  11.378   3.887
40036W        W 5263  20.656   0.533  13.307
40037W        W 5264  41.806  32.153   0.305
40038W        W 5265  15.127  12.592   2.350
40039W        W 5266  33.907  39.462   0.201
40040W        W 5267  14.533   6.233  14.408
40041W        W 5268  29.444  39.399   3.374
40042W        W 5269  18.106  44.237  10.665
40043W        W 5270   7.319  17.804   1.928
40044W        W 5271   0.499  11.312   3.657
40045W        W 5272  41.543  41.492   2.727
40046W        W 5273  22.155   4.865   0.950
40047W        W 5274   9.763  36.611   3.733
40048W        W 5275  31.643  13.759   2.457
40049W        W 5276  33.421  15.569  14.508
40050W        W 5277   8.884  28.501  10.759
40051W        W 5278  31.906  16.784   4.029
40052W        W 5279  11.749   0.307   3.206
40053W        W 5280   9.560  16.460   1.747
40054W        W 5281  25.233  37.534  13.763
40055W        W 5282  15.858  32.957   1.795
40056W        W 5283  39.038   6.274   0.820
40057W        W 5284  34.334  13.533  11.088
40058W        W 5285  31.097  42.908  11.647
40059W        W 5286  11.302  41.901   4.199
40060W        W 5287  14.959   9.154   2.940
40061W        W 5288  34.366   5.363  14.015
40062W        W 5289   0.018  12.644  12.962
40063W        W 5290  12.099   5.919  12.609
40064W        W 5291  17.701  44.378  10.962
40065W        W 5292  24.004  27.931  14.909
40066W        W 5293  29.483  44.290  10.563
40067W        W 5294   9.609  27.585   4.616
40068W        W 5295   5.644  13.774  12.883
40069W        W 5296  29.925  28.914  13.730
40070W        W 5297  16.511  25.356  11.943
40071W        W 5298  27.645  12.828  11.946
40072W        W 5299  17.028  14.092  14.924
40073W        W 5300  30.128  30.005   2.415
40074W        W 5301   6.850   4.249   0.520
40075W        W 5302  12.582  21.262  12.945
40076W        W 5303  18.172  35.580   4.680
40077W        W 5304   9.802  27.203   1.165
40078W        W 5305  29.585  23.679   0.055
40079W        W 5306  40.528   3.872  13.985
40080W        W 5307  20.615   5.785  14.037
40081W        W 5308  32.366  28.846  11.449
40082W        W 5309   5.831  19.786  12.125
40083W        W 5310   9.064   1.384  13.068
40084W        W 5311  15.637  42.709   2.788
40085W        W 5312  14.526  23.767   4.850
40086W        W 5313   2.661   2.975  13.700
40087W        W 5314  27.431   4.014  14.567
40088W        W 5315  37.066  40.222  13.557
40089W        W 5316  39.830  26.262  12.945
40090W        W 5317  37.089  12.760  13.723
40091W        W 5318  28.792  18.138  14.200
40092W        W 5319   7.910   2.941   2.176
40093W        W 5320  31.546   9.190  12.038
40094W        W 5321  41.841   8.621  13.321
40095W        W 5322  19.497  20.705  13.288
40096W        W 5323  40.289  17.570   0.579
40097W        W 5324  14.550   0.634  14.931
40098W        W 5325  21.728  21.330  11.688
40099W        W 5326  31.104  15.872   4.478
40100W        W 5327  32.951  26.321   2.082
40101W        W 5328  14.587  33.087   2.302
40102W        W 5329   5.099  13.483  11.117
40103W        W 5330   7.209  41.706   4.608
40104W        W 5331  40.248  21.609  13.327
40105W        W 5332  24.988  18.462  13.686
40106W        W 5333   9.166   0.716   2.281
40107W        W 5334   5.817  42.431   2.440
40108W        W 5335  31.850  24.609   1.134
40109W        W 5336   7.687   1.225  11.810
40110W        W 5337  10.283  38.341  12.601
40111W        W 5338  43.236  25.059   2.603
40112W        W 5339  33.523  23.966  10.983
40113W        W 5340   1.326   6.103  11.543
40114W        W 5341  43.022  18.101   2.715
40115W        W 5342  41.204  44.403  12.600
40116W        W 5343   4.802   6.916  11.919
40117W        W 5344  34.445  12.318   2.695
40118W        W 5345  39.999  10.466   5.389
40119W        W 5346  19.483  43.857  11.945
40120W        W 5347  39.703  13.265   4.267
40121W        W 5348  19.261   8.267   4.810
40122W        W 5349  33.660   8.852  12.829
40123W        W 5350  17.493  30.117   0.800
40124W        W 5351  28.052  21.091   3.180
40125W        W 5352   4.632   0.945   3.875
40126W        W 5353  25.932  38.910  14.086
40127W        W 5354  35.133  37.825  10.662
40128W        W 5355  39.293  34.973  13.915
40129W        W 5356  20.130  38.675   3.898
40130W        W 5357  30.501   5.121  14.848
40131W        W 5358   9.684   2.252   4.201
40132W        W 5359  35.880  11.340   3.155
40133W        W 5360  38.735  44.748   0.642
40134W        W 5361  33.124  15.768   0.501
40135W        W 5362  23.334   6.256   3.388
40136W        W 5363  43.792  23.587   2.014
40137W        W 5364  10.976  12.688   3.757
40138W        W 5365  12.221  31.624  12.943
40139W        W 5366  26.024  33.485   0.080
40140W        W 5367   3.026  12.852  13.841
40141W        W 5368  20.692   4.358   0.912
40142W        W 5369  42.643  35.330  14.114
40143W        W 5370   7.620  21.997  14.018
40144W        W 5371  39.143  28.914   2.868
40145W        W 5372  23.025   2.548   0.740
40146W        W 5373   2.635   9.250   0.984
40147W        W 5374   6.009   2.056   3.715
40148W        W 5375   0.244   9.526  12.617
40149W        W 5376   4.491   5.309  14.005
40150W        W 5377  42.046   0.199   0.557
40151W        W 5378  35.153   9.646  11.568
40152W        W 5379  15.670  30.619  10.031
40153W        W 5380  23.103  28.581   3.593
40154W        W 5381  24.348   4.041  10.802
40155W        W 5382  28.269  24.749  11.217
40156W        W 5383  44.822  18.342   4.446
40157W        W 5384  41.428  38.111   0.633
40158W        W 5385  19.170  36.151  11.552
40159W        W 5386  35.099  23.072   2.933
40160W        W 5387  37.827   3.563  12.017
40161W        W 5388  13.195  18.358   3.611
40162W        W 5389  37.207  35.290  12.870
40163W        W 5390  18.265  30.414  11.112
40164W        W 5391  26.586  19.256   1.731
40165W        W 5392  11.346   7.936   2.362
40166W        W 5393  25.683  39.265   4.684
40167W        W 5394  18.010   4.170   3.516
40168W        W 5395  37.412  42.289   0.423
40169W        W 5396  13.643   9.798  11.323
40170W        W 5397  39.996  25.701  11.866
40171W        W 5398  29.054  15.817  13.732
40172W        W 5399  40.915  18.873  13.828
40173W        W 5400  11.666   8.467   4.175
40174W        W 5401  43.795  19.805   4.143
40175W        W 5402  36.053  20.713   0.857
40176W        W 5403  38.633   1.381  14.752
40177W        W 5404   3.300  20.222  13.455
40178W        W 5405  15.761   4.115  10.836
40179W        W 5406  40.229  31.390   0.123
40180W        W 5407  13.510  42.699   4.134
40181W        W 5408   5.238  43.644  11.669
40182W        W 5409  35.533  43.746  11.382
40183W        W 5410  42.481  33.056   1.813
40184W        W 5411   6.200  13.368  13.277
40185W        W 5412  30.861  28.316  14.917
40186W        W 5413  23.740   9.238   3.099
40187W        W 5414  16.614  23.765  13.374
40188W        W 5415  29.929  31.043   2.161
40189W        W 5416  20.153  35.552  10.860
40190W        W 5417  25.247  39.148   3.640
40191W        W 5418  28.062   2.513  11.560
40192W        W 5419  27.696  19.673  14.773
40193W        W 5420  11.610  12.334   0.299
40194W        W 5421  35.130  13.287  12.371
40195W        W 5422  34.026  23.894   2.724
40196W        W 5423  11.846  41.114   2.729
40197W        W 5424  20.720   6.198  11.505
40198W        W 5425  30.583  25.563  11.575
40199W        W 5426  34.648   1.711   2.303
40200W        W 5427  11.400  25.960   2.848
40201W        W 5428  39.524  37.804   2.696
40202W        W 5429  34.127  33.169  12.354
40203W        W 5430  13.186   2.956  11.031
40204W        W 5431  17.480  24.560   3.188
40205W        W 5432  12.870  14.219   4.816
40206W        W 5433  43.076  20.442   4.969
40207W        W 5434  31.647  41.436  13.781
40208W        W 5435  15.241   5.759   3.119
40209W        W 5436  32.332  33.571   5.098
40210W        W 5437  24.225  41.471  10.895
40211W        W 5438  26.991  34.226  11.747
40212W        W 5439  41.281  11.658   4.370
40213W        W 5440  12.862  27.122   3.957
40214W        W 5441  24.592  27.574   2.869
40215W        W 5442  10.554   5.784  11.454
40216W        W 5443  10.762  23.558   3.649
40217W        W 5444  25.086   1.139   0.214
40218W        W 5445  26.575   8.899  12.422
40219W        W 5446  22.985  14.665   0.396
40220W        W 5447   9.170  14.377  14.957
40221W        W 5448  16.107  19.345  12.622
40222W        W 5449  32.648  40.245   4.489
40223W        W 5450  24.915  41.032   4.617
40224W        W 5451  15.776  14.788   1.842
40225W        W 5452  36.944   9.903  13.868
40226W        W 5453  19.590   6.791   3.816
40227W        W 5454  10.770  21.604   3.066
40228W        W 5455   8.359  43.435  10.634
40229W        W 5456  29.440  21.515   3.110
40230W        W 5457  28.943  25.547   1.025
40231W        W 5458   8.887  40.197  12.454
40232W        W 5459  29.498   0.759   2.324
40233W        W 5460  29.501  15.686  12.973
40234W        W 5461  38.129  18.744  12.156
40235W        W 5462  34.130   2.817  14.815
40236W        W 5463  38.356   7.184   0.236
40237W        W 5464  18.750  18.869   3.338
40238W        W 5465   5.385  36.125  11.014
40239W        W 5466  36.561  19.788   5.095
40240W        W 5467  41.539  24.033   1.455
40241W        W 5468  18.701  40.759  12.491
40242W        W 5469  42.224  38.906  12.545
40243W        W 5470  44.225  10.023   4.343
40244W        W 5471  18.196  25.492   0.391
40245W        W 5472  25.847  10.046   2.212
40246W        W 5473  30.414  14.910  12.974
40247W        W 5474   4.974  13.311  11.670
40248W        W 5475  30.839  26.214  10.760
40249W        W 5476  29.180  32.589  14.857
40250W        W 5477  24.037  15.157  14.559
40251W        W 5478  16.336  32.545  13.308
40252W        W 5479   6.179  13.246   3.919
40253W        W 5480  40.806  43.431  13.078
40254W        W 5481  31.184   3.806   4.142
40255W        W 5482  20.140  21.653   3.663
40256W        W 5483  12.199   8.781  12.859
40257W        W 5484  40.222  35.444  14.801
40258W        W 5485   9.176  40.556  12.698
40259W        W 5486  38.865  31.415  14.231
40260W        W 5487  15.125  17.177   3.218
40261W        W 5488  40.727  14.082  14.788
40262W        W 5489  16.128   8.168   0.793
40263W        W 5490  23.706  11.022  12.544
40264W        W 5491  12.420  39.545  12.400
40265W        W 5492  32.655  21.113   1.022
40266W        W 5493  42.153  40.803   0.370
40267W        W 5494  23.304  20.952   2.024
40268W        W 5495  38.866  29.887  10.071
40269W        W 5496  36.604  36.596   1.762
40270W        W 5497  43.187  38.845  14.028
40271W        W 5498  35.853  29.680  12.507
40272W        W 5499  44.032  32.091   3.852
40273W        W 5500  12.385  25.079  14.001
40274W        W 5501   6.076  15.299  14.820
40275W        W 5502   8.368   9.259  10.948
40276W        W 5503  29.373  44.705   1.054
40277W        W 5504   7.359  30.445   2.260
40278W        W 5505  19.086  28.617   0.252
40279W        W 5506  39.035   7.223  14.370
40280W        W 5507  26.917  15.099  12.195
40281W        W 5508  15.239  35.484   1.740
40282W        W 5509  12.541  23.671  12.644
40283W        W 5510   2.832  38.178   0.278
40284W        W 5511  43.279  17.651   1.654
40285W        W 5512   0.717   0.989   3.658
40286W        W 5513   7.009  37.878  10.765
40287W        W 5514   7.954  25.441   1.026
40288W        W 5515  34.927  23.621  12.489
40289W        W 5516  36.919  25.172   4.528
40290W        W 5517   2.185  41.567   0.117
40291W        W 5518  19.672  22.573  11.613
40292W        W 5519  31.843   4.031  11.989
40293W        W 5520  29.708  17.137   3.729
40294W        W 5521  18.076  31.587  14.291
40295W        W 5522   3.120  36.893  12.915
40296W        W 5523  19.331  16.808   0.461
40297W        W 5524   1.692  13.868  10.761
40298W        W 5525   8.358  19.591   4.834
40299W        W 5526  39.546  10.444   4.665
40300W        W 5527  36.935  26.191   2.567
40301W        W 5528   7.887   3.165  12.081
40302W        W 5529  10.805   6.220  13.842
40303W        W 5530  32.297  21.009   4.583
40304W        W 5531  17.255  30.439   4.684
40305W        W 5532  33.603  36.034   2.086
40306W        W 5533   0.798   9.803   1.997
40307W        W 5534  43.714  27.361   2.806
40308W        W 5535  29.055   0.249  13.437
40309W        W 5536  34.406   6.938   4.639
40310W        W 5537  44.159  26.225   4.241
40311W        W 5538  23.558  11.149  13.955
40312W        W 5539  40.429  40.078   3.735
40313W        W 5540  15.679  28.332   3.251
40314W        W 5541   1.441  34.257   4.824
40315W        W 5542  27.641  24.724   2.613
40316W        W 5543  22.614  36.637  11.137
40317W        W 5544  23.011  41.882   1.616
40318W        W 5545  12.635  39.782  13.063
40319W        W 5546   2.323  19.219   0.728
40320W        W 5547  32.376  34.110  13.604
40321W        W 5548  21.515  25.171  13.460
40322W        W 5549  44.353   5.867   2.967
40323W        W 5550   9.819  30.478   3.670
40324W        W 5551  42.084   7.278  11.569
40325W        W 5552  22.930  26.544   1.723
40326W        W 5553  33.066   6.591  13.062
40327W        W 5554   7.884  19.170   9.751
40328W        W 5555  14.160   1.246   3.377
40329W        W 5556  16.123  31.830   4.437
40330W        W 5557  14.279   6.421  11.539
40331W        W 5558   9.779   7.272  12.508
40332W        W 5559  37.018  42.855  13.689
40333W        W 5560  26.444  12.462  10.346
40334W        W 5561   0.854  29.149  12.345
40335W        W 5562  36.310   1.378  13.698
40336W        W 5563  11.799  27.365   0.625
40337W        W 5564  23.303  10.706  12.356
40338W        W 5565  34.335   6.069   3.066
40339W        W 5566   9.839  21.565  12.011
40340W        W 5567   2.094  16.393   0.793
40341W        W 5568  13.401  13.691   0.519
40342W        W 5569  25.331  41.365   4.168
40343W        W 5570   0.896  16.834  13.449
40344W        W 5571  24.950  31.848   3.295
40345W        W 5572   6.317  41.975  12.407
40346W        W 5573  35.841  14.647  14.806
40347W        W 5574  14.131  31.354  14.492
40348W        W 5575   4.868  13.850   0.955
40349W        W 5576  44.876   2.251   3.620
40350W        W 5577  24.068  40.057   0.234
40351W        W 5578  41.417  32.595   2.793
40352W        W 5579  43.876  23.518   3.807
40353W        W 5580  42.876  36.677   3.758
40354W        W 5581  26.709  18.514  11.636
40355W        W 5582  33.577   0.709   4.968
40356W        W 5583   1.279   0.376  14.571
40357W        W 5584   9.418   4.110  11.136
40358W        W 5585  25.316  33.566  13.467
40359W        W 5586  40.307  33.735   1.778
40360W        W 5587  30.896  32.893   0.285
40361W        W 5588  18.037  11.656   0.982
40362W        W 5589   9.884  41.039  14.188
40363W        W 5590  39.363  15.629  11.602
40364W        W 5591  38.950  41.040  14.088
40365W        W 5592  44.040  30.057   0.772
40366W        W 5593  19.572  42.039   4.615
40367W        W 5594  21.282   1.470   2.845
40368W        W 5595  29.989  11.791  12.067
40369W        W 5596   0.865  16.257   0.236
40370W        W 5597  21.177  38.183   3.600
40371W        W 5598  39.720  30.333  12.552
40372W        W 5599  32.469  43.365   4.939
40373W        W 5600  13.849   7.861   4.608
40374W        W 5601  36.302  14.192   2.905
40375W        W 5602  16.525  15.348  12.133
40376W        W 5603  42.818  43.157   4.526
40377W        W 5604  22.434  20.634   0.329
40378W        W 5605  14.770  23.663   4.357
40379W        W 5606  27.584  11.453   0.805
40380W        W 5607  41.009  31.388   4.055
40381W        W 5608  42.400  28.026   2.159
40382W        W 5609  44.518  22.662  10.604
40383W        W 5610  39.322  30.076   0.787
40384W        W 5611  30.112  14.637   3.131
40385W        W 5612  36.893   0.092   2.728
40386W        W 5613  39.348  37.457   1.280
40387W        W 5614   8.166  21.494   1.183
40388W        W 5615   0.116  40.748  11.968
40389W        W 5616  36.280  17.610   3.796
40390W        W 5617   1.341  31.538  12.492
40391W        W 5618  30.350   3.668   1.381
40392W        W 5619  34.093  43.926  10.506
40393W        W 5620   1.431  41.766  11.647
40394W        W 5621  19.763  30.905  11.956
40395W        W 5622   1.922  41.281   3.128
40396W        W 5623  11.844   9.189  14.829
40397W        W 5624  18.783  16.246   4.813
40398W        W 5625   9.796  18.246  14.026
40399W        W 5626  35.313  18.036  11.227
40400W        W 5627   6.217  44.351  14.502
40401W        W 5628  41.948  44.461   2.702
40402W        W 5629  25.549  36.464   2.822
40403W        W 5630  27.424  28.871  10.214
40404W        W 5631  39.393  13.660  13.936
40405W        W 5632  33.923  29.455  14.460
40406W        W 5633  43.944  40.699  14.506
40407W        W 5634  25.027   1.230  12.946
40408W        W 5635  10.307  21.023   4.711
40409W        W 5636  41.247   4.028  14.962
40410W        W 5637  42.074  13.315   3.819
40411W        W 5638  14.640   2.447  10.730
40412W        W 5639   6.738  27.623  13.419
40413W        W 5640  18.998   9.600   4.461
40414W        W 5641  28.588  30.834   2.678
40415W        W 5642  36.386  41.296  14.328
40416W        W 5643  17.318  13.557   3.673
40417W        W 5644  42.822  19.705  14.063
40418W        W 5645  39.339  15.161  13.041
40419W        W 5646  35.827   4.851   9.809
40420W        W 5647   7.784  28.816  12.704
40421W        W 5648  44.855  32.172   0.876
40422W        W 5649   3.781   6.846  12.866
40423W        W 5650  27.107  34.803   0.874
40424W        W 5651  15.821  26.630  10.330
40425W        W 5652  26.196  38.269   0.200
40426W        W 5653  43.015  31.233   0.292
40427W        W 5654   7.732  34.486   0.924
40428W        W 5655  13.745  31.457  13.518
40429W        W 5656   6.216  25.945  14.074
40430W        W 5657   2.132  11.739   3.690
40431W        W 5658   0.898  34.453  12.461
40432W        W 5659  10.831  17.682  13.999
40433W        W 5660  24.768   3.325   2.551
40434W        W 5661  15.584   2.386   2.157
40435W        W 5662   0.483  38.723   0.952
40436W        W 5663  21.223   3.208  13.797
40437W        W 5664  21.136  22.398   5.001
40438W        W 5665  42.881  41.783  13.145
40439W        W 5666   7.933  20.707  14.299
40440W        W 5667  29.361  24.599  12.482
40441W        W 5668  38.436  42.418  13.499
40442W        W 5669  16.271  15.735   2.364
40443W        W 5670  24.420   4.239  11.454
40444W        W 5671  21.289  41.413   4.567
40445W        W 5672   6.205  41.606  11.395
40446W        W 5673   4.379  24.439  14.724
40447W        W 5674  14.804  42.926   0.409
40448W        W 5675  20.191  33.394   1.840
40449W        W 5676   9.436   9.753   1.680
40450W        W 5677  40.837  12.673  11.953
40451W        W 5678  26.620   4.804   3.017
40452W        W 5679  27.566  36.995   0.453
40453W        W 5680  17.159  25.625   1.134
40454W        W 5681  12.338  15.046   3.281
40455W        W 5682  44.735  22.143  11.246
40456W        W 5683  34.469  25.074   3.477
40457W        W 5684  29.461  32.580  10.938
40458W        W 5685  29.481  37.831   3.969
40459W        W 5686  12.967  32.057   1.914
40460W        W 5687  14.800  17.257   0.187
40461W        W 5688  25.636  11.307   4.629
40462W        W 5689  16.799  40.794   1.424
40463W        W 5690  31.694  38.927  10.773
40464W        W 5691   9.808   8.318   4.995
40465W        W 5692  40.704  16.902  12.989
40466W        W 5693  16.720  31.927  14.975
40467W        W 5694   5.134  32.357   5.007
40468W        W 5695  41.001   9.847  12.409
40469W        W 5696  39.186  31.937  12.080
40470W        W 5697  28.599   9.150   4.852
40471W        W 5698  24.543  21.864   2.708
40472W        W 5699  28.724  17.580  12.960
40473W        W 5700  19.581  20.161  12.418
40474W        W 5701   8.405  27.672  13.295
40475W        W 5702   3.521  28.692   1.627
40476W        W 5703   8.410  23.416  13.089
40477W        W 5704  44.501  38.878  12.534
40478W        W 5705  13.206   3.666   3.404
40479W        W 5706  22.311   0.871  13.872
40480W        W 5707  28.544  22.997   2.250
40481W        W 5708  31.844  25.814  11.974
40482W        W 5709  11.676  33.996  11.772
40483W        W 5710  27.670  34.956   3.682
40484W        W 5711  24.356  44.328   5.408
40485W        W 5712   6.026  12.678   4.224
40486W        W 5713   6.255  20.642   0.987
40487W        W 5714  22.466  13.734   0.758
40488W        W 5715  25.959  43.988   1.837
40489W        W 5716  19.145  26.405   1.860
40490W        W 5717  24.558   5.673  14.023
40491W        W 5718  25.979  27.406  14.354
40492W        W 5719  11.278  44.041  10.518
40493W        W 5720  30.691  21.320   2.931
40494W        W 5721  12.825  21.589   0.077
40495W        W 5722   0.948  19.417   1.017
40496W        W 5723  27.191  35.301  12.524
40497W        W 5724   1.002  25.856   5.394
40498W        W 5725  15.273   8.259   3.191
40499W        W 5726   9.232  24.936  14.316
40500W        W 5727   0.442  21.871   0.930
40501W        W 5728  44.801   1.979  14.503
40502W        W 5729  35.454  38.850   9.732
40503W        W 5730  22.963  33.282   0.461
40504W        W 5731  34.148   4.273   1.678
40505W        W 5732  12.234   8.411   2.919
40506W        W 5733   8.791  25.210  12.096
40507W        W 5734   0.901   2.133  12.851
40508W        W 5735  17.794   7.913   0.302
40509W        W 5736  42.403  27.205  14.674
40510W        W 5737  33.678  43.939   1.868
40511W        W 5738  11.714  13.830   4.100
40512W        W 5739  36.960   5.645   0.293
40513W        W 5740  16.165  38.073   1.166
40514W        W 5741  25.936  18.615   4.605
40515W        W 5742  23.080   8.651   0.437
40516W        W 5743   6.639  35.059  13.876
40517W        W 5744  42.832  19.545  13.148
40518W        W 5745  34.986  44.043   3.639
40519W        W 5746   7.118  24.537   0.327
40520W        W 5747  23.073  41.433   2.355
40521W        W 5748  36.520  35.536  14.200
40522W        W 5749  29.563  32.591   3.222
40523W        W 5750   2.900  28.200  12.201
40524W        W 5751  36.516  15.762  13.864
40525W        W 5752  34.601  15.118   2.683
40526W        W 5753  11.150  37.158   2.633
40527W        W 5754  14.080  13.353   4.207
40528W        W 5755  11.953  27.149   0.189
40529W        W 5756  41.649  38.865  13.126
40530W        W 5757   0.079   9.935   2.580
40531W        W 5758  37.694  13.618   4.167
40532W        W 5759  41.534   0.980  11.074
40533W        W 5760   7.679  11.686   0.400
40534W        W 5761  17.818  33.673  11.435
40535W        W 5762  34.984  39.936   1.752
40536W        W 5763  28.390  29.421   0.009
40537W        W 5764   6.447  14.717  11.759
40538W        W 5765  13.206   4.797  10.557
40539W        W 5766  24.023  43.458   1.960
40540W        W 5767  42.231   1.923   0.750
40541W        W 5768  42.349  41.975   0.779
40542W        W 5769  40.888  26.741   0.890
40543W        W 5770   9.354   3.380  10.146
40544W        W 5771   5.520  34.501   0.288
40545W        W 5772   8.924  31.289   4.362
40546W        W 5773  16.520  36.937   1.012
40547W        W 5774  14.821   3.620   3.940
40548W        W 5775  14.981  30.106   2.183
40549W        W 5776   7.684  40.443  11.163
40550W        W 5777  10.824  18.589   0.330
40551W        W 5778  39.540  27.294  12.583
40552W        W 5779  40.358   8.119  12.306
40553W        W 5780   4.637  18.309  14.079
40554W        W 5781  34.528  43.103  12.656
40555W        W 5782  29.419   8.201   1.679
40556W        W 5783  11.624  35.156  11.444
40557W        W 5784  32.501   7.088  11.653
40558W        W 5785  26.107  21.232  12.499
40559W        W 5786  17.276  20.723   2.227
40560W        W 5787   0.682   5.425   2.377
40561W        W 5788  27.952  26.192   4.511
40562W        W 5789  23.158  18.318   3.198
40563W        W 5790  20.736   2.107  14.557
40564W        W 5791  11.617  24.562   2.719
40565W        W 5792   5.019  18.180   1.761
40566W        W 5793  17.858   0.013   2.743
40567W        W 5794  22.202  15.647   0.676
40568W        W 5795  42.912  26.183   2.351
40569W        W 5796  20.281  43.318   2.851
40570W        W 5797  34.062   6.237   4.884
40571W        W 5798   7.381  27.920   0.396
40572W        W 5799  44.298  40.885  12.122
40573W        W 5800  14.210  17.372   1.380
40574W        W 5801  30.881  19.083   4.670
40575W        W 5802  20.538  16.249  12.439
40576W        W 5803  29.631  10.230   4.980
40577W        W 5804  23.754  20.182   3.730
40578W        W 5805  30.902   0.858   3.490
40579W        W 5806   2.793   6.812  14.826
40580W        W 5807   8.258  25.884   4.681
40581W        W 5808  25.488  28.963   4.671
40582W        W 5809  21.397  21.634   0.855
40583W        W 5810   2.967  20.335   0.370
40584W        W 5811  16.975  44.992  13.981
40585W        W 5812  15.385  30.118   2.507
40586W        W 5813  33.024  43.743  10.992
40587W        W 5814  40.493  23.031   4.566
40588W        W 5815  34.118  17.320   2.581
40589W        W 5816  32.798  26.010  12.084
40590W        W 5817   4.406  11.939  11.663
40591W        W 5818  16.056  18.139   2.181
40592W        W 5819  33.331   4.319   2.330
40593W        W 5820   7.896   0.543   4.177
40594W        W 5821  42.893   5.718  11.959
40595W        W 5822  40.789  26.835   2.469
40596W        W 5823  38.293  12.329   2.545
40597W        W 5824  33.915  36.088  14.324
40598W        W 5825  21.554  31.621  11.974
40599W        W 5826  33.657  21.634  11.474
40600W        W 5827  40.250  20.714   4.003
40601W        W 5828  18.102   6.697  14.865
40602W        W 5829  36.799   7.478  13.136
40603W        W 5830  42.882  35.410  13.566
40604W        W 5831  15.131  39.455  12.692
40605W        W 5832  42.608  26.914  14.230
40606W        W 5833  34.391  15.608  14.979
40607W        W 5834  35.161  37.228   4.088
40608W        W 5835  13.694   8.424  12.155
40609W        W 5836  22.128  13.631   0.310
40610W        W 5837  40.361  26.334  10.423
40611W        W 5838   6.015  33.994  12.978
40612W        W 5839  23.238  15.811   3.393
40613W        W 5840  42.104  11.318  13.374
40614W        W 5841  14.573  44.766  13.887
40615W        W 5842   8.645  37.674   0.227
40616W        W 5843   5.974  12.253  14.867
40617W        W 5844  44.532  36.212  13.831
40618W        W 5845  15.263  37.903  14.757
40619W        W 5846   7.300  32.673  12.768
40620W        W 5847  29.108  38.024  12.603
40621W        W 5848  23.952  19.354  11.527
40622W        W 5849  22.059  35.158  13.504
40623W        W 5850  21.101  44.801   1.911
40624W        W 5851  15.209  30.959   3.319
40625W        W 5852  20.443  15.518  11.005
40626W        W 5853  27.651  39.642  14.129
40627W        W 5854  40.555  10.080  11.249
40628W        W 5855   7.683  26.256   1.190
40629W        W 5856  13.636  41.942   4.624
40630W        W 5857  13.651  20.985   1.796
40631W        W 5858  43.213  13.754   3.910
40632W        W 5859  36.253  42.711  13.447
40633W        W 5860   9.412  42.783   0.020
40634W        W 5861  18.794  14.882   3.296
40635W        W 5862   5.674  43.582   2.750
40636W        W 5863  26.748  30.168   1.383
40637W        W 5864  26.494  36.537  12.489
40638W        W 5865  41.876  43.946   4.161
40639W        W 5866   9.805   9.216   2.395
40640W        W 5867  38.782  23.947   2.299
40641W        W 5868   2.239  34.553   2.280
40642W        W 5869   6.745   4.356   2.477
40643W        W 5870  42.700  12.589  13.101
40644W        W 5871  24.674  30.774  14.034
40645W        W 5872  38.608  15.492   2.479
40646W        W 5873  15.284  44.421   2.914
40647W        W 5874  19.058  18.529   2.167
40648W        W 5875  12.046  12.080  14.988
40649W        W 5876   4.856   4.662  12.100
40650W        W 5877   1.367  27.961   1.371
40651W        W 5878  13.730  12.702  10.726
40652W        W 5879  18.673   3.504  11.140
40653W        W 5880  42.356  38.602   0.665
40654W        W 5881  27.949  17.215  11.023
40655W        W 5882  32.759  30.186  13.525
40656W        W 5883  31.331   5.998   2.767
40657W        W 5884   5.443  19.225  10.716
40658W        W 5885  28.278  29.142   0.943
40659W        W 5886   7.020   5.759   2.247
40660W        W 5887  20.223  31.318   0.211
40661W        W 5888  22.461  16.286  12.081
40662W        W 5889  33.520  35.798   0.222
40663W        W 5890  28.926  13.289   2.661
40664W        W 5891  25.603  38.917   5.197
40665W        W 5892  40.601  19.670   3.128
40666W        W 5893  20.038  15.635  11.269
40667W        W 5894  28.578   7.844  10.582
40668W        W 5895  44.066  41.639  12.499
40669W        W 5896  37.530   5.307   9.935
40670W        W 5897  41.282  12.069   0.435
40671W        W 5898  12.145  37.289   4.834
40672W        W 5899  31.668  15.945  12.946
40673W        W 5900   9.554   5.823   3.628
40674W        W 5901  19.842  34.881   4.154
40675W        W 5902  10.623  16.655  10.305
40676W        W 5903  34.958  14.309   4.726
40677W        W 5904  40.388  40.804  14.783
40678W        W 5905   4.397   8.599  12.064
40679W        W 5906  10.288  13.153   0.847
40680W        W 5907  13.903  42.370   4.436
40681W        W 5908  20.825  18.237  12.466
40682W        W 5909  16.685   4.924   3.372
40683W        W 5910  26.095   9.435   0.793
40684W        W 5911  10.093   3.265  12.904
40685W        W 5912   7.490  43.149  13.165
40686W        W 5913  12.534  30.503   1.336
40687W        W 5914  20.259   0.753   4.607
40688W        W 5915  26.771  29.852   5.070
40689W        W 5916  18.729  13.221   2.152
40690W        W 5917  14.839  42.415   1.191
40691W        W 5918   1.774  40.958   4.085
40692W        W 5919  37.404  32.529   4.092
40693W        W 5920  25.093  15.381  11.199
40694W        W 5921  40.368   9.104  14.800
40695W        W 5922  31.058  24.177   3.323
40696W        W 5923  22.098  34.886   0.174
40697W        W 5924  23.225  26.884  12.428
40698W        W 5925  37.371  33.018  14.522
40699W        W 5926   7.423  33.906  10.710
40700W        W 5927   5.402  40.132   2.211
40701W        W 5928  27.654  36.476  10.220
40702W        W 5929   9.356  19.215   3.126
40703W        W 5930  32.650   5.037  12.779
40704W        W 5931  38.920  30.653  11.588
40705W        W 5932  36.949  21.017  12.854
40706W        W 5933  20.237   4.969   2.233
40707W        W 5934  12.261  22.226  11.608
40708W        W 5935  32.433   5.433   0.366
40709W        W 5936  31.430   1.949  11.572
40710W        W 5937  19.198  32.173   1.844
40711W        W 5938  38.242  20.242   1.338
40712W        W 5939   4.853  24.994   0.230
40713W        W 5940  37.050  14.600  12.267
40714W        W 5941  18.828   2.942  12.584
40715W        W 5942   4.241   7.843  13.862
40716W        W 5943  31.629  16.212  12.478
40717W        W 5944  30.571  16.271   4.295
40718W        W 5945  40.870  28.691   1.332
40719W        W 5946   5.955  22.148  12.596
40720W        W 5947  25.421  35.581  13.581
40721W        W 5948  44.196  41.673  11.576
40722W        W 5949   6.281   5.624   0.291
40723W        W 5950  16.655  14.239   0.322
40724W        W 5951   5.659  18.496   0.076
40725W        W 5952  10.071  38.802  11.698
40726W        W 5953  37.467  33.358  12.713
40727W        W 5954  22.234   9.280  11.565
40728W        W 5955   9.173  17.100  14.415
40729W        W 5956  37.968   5.258   5.199
40730W        W 5957   9.540  34.085  12.463
40731W        W 5958   9.563   5.368  13.246
40732W        W 5959  27.928   2.607  13.359
40733W        W 5960  27.690  20.794   0.401
40734W        W 5961  35.977   1.951  14.768
40735W        W 5962   7.366  41.002   1.949
40736W        W 5963  33.156   7.110  13.075
40737W        W 5964  11.293   4.319   4.538
40738W        W 5965   5.563  22.151  12.932
40739W        W 5966  14.645  32.233   5.485
40740W        W 5967  39.439  23.677  13.399
40741W        W 5968  34.939  10.430  13.552
40742W        W 5969   5.466   3.522   0.942
40743W        W 5970  14.442  27.092   3.181
40744W        W 5971  17.862  10.314  13.320
40745W        W 5972   5.808  43.199   4.351
40746W        W 5973  42.059  28.152   3.304
40747W        W 5974  30.589   1.123   0.715
40748W        W 5975  20.970  39.723  11.284
40749W        W 5976  40.109  32.828   4.701
40750W        W 5977  34.521   9.632   4.107
40751W        W 5978  42.293   8.876  13.362
40752W        W 5979   3.798  11.546   4.836
40753W        W 5980  11.354  39.879  13.433
40754W        W 5981   3.851  31.561   0.518
40755W        W 5982  23.018  26.997   0.958
40756W        W 5983  17.750  14.282  12.774
40757W        W 5984  26.609  42.630   0.348
40758W        W 5985   0.165  43.884   2.847
40759W        W 5986  34.993  28.485   4.357
40760W        W 5987  35.021  39.659   2.185
40761W        W 5988  20.194  22.350   2.789
40762W        W 5989  27.401  29.120   4.237
40763W        W 5990   8.257   0.433  14.470
40764W        W 5991  18.172  34.558  13.502
40765W        W 5992  44.401  41.834   3.689
40766W        W 5993  18.781  25.545   3.797
40767W        W 5994  28.310  16.567   2.728
40768W        W 5995  35.976   5.691  14.792
40769W        W 5996   1.690   7.761   4.192
40770W        W 5997  17.253  31.836   2.611
40771W        W 5998   9.169  38.807  12.912
40772W        W 5999  44.969  33.243  14.340
40773W        W 6000  30.393  23.571   4.644
40774W        W 6001  41.277  18.581  10.611
40775W        W 6002  22.734   6.306   3.162
40776W        W 6003   0.766  42.425  13.808
40777W        W 6004   2.608  37.269   1.823
40778W        W 6005   5.738  21.989  13.962
40779W        W 6006  18.720   5.377  11.579
40780W        W 6007  37.426   6.174  14.715
40781W        W 6008  23.926  13.433  13.673
40782W        W 6009  22.154  13.038   2.833
40783W        W 6010   4.673   5.924  11.678
40784W        W 6011  11.790  44.467   0.955
40785W        W 6012  21.180  11.862   3.783
40786W        W 6013   3.325  18.647   3.539
40787W        W 6014  19.180   4.861  12.296
40788W        W 6015  17.575  20.186  11.549
40789W        W 6016   7.624  20.311  14.439
40790W        W 6017   6.238   6.970  12.155
40791W        W 6018  22.129  43.806  11.341
40792W        W 6019  37.837  15.687   2.082
40793W        W 6020   4.670  35.136  12.274
40794W        W 6021  13.583  26.098   4.160
40795W        W 6022  38.499  22.641  14.947
40796W        W 6023  26.474  41.098   2.807
40797W        W 6024   0.805  26.007  10.569
40798W        W 6025  17.614  29.150  14.395
40799W        W 6026   3.791   8.124   4.961
40800W        W 6027  22.667  13.806   3.281
40801W        W 6028  40.097  43.380  11.994
40802W        W 6029  31.543  23.926  10.341
40803W        W 6030  11.430  43.005  14.991
40804W        W 6031  26.777  42.348  12.070
40805W        W 6032  17.295   9.910   3.883
40806W        W 6033   2.439  42.195   0.952
40807W        W 6034  15.739  24.498   4.344
40808W        W 6035  23.966  40.524   2.903
40809W        W 6036  27.480  29.110  11.048
40810W        W 6037  13.784  42.353  10.611
40811W        W 6038  14.826  40.866  14.985
40812W        W 6039  30.664  23.411  11.181
40813W        W 6040   8.116  17.522  11.646
40814W        W 6041  26.480  40.894  12.928
40815W        W 6042  42.785  42.557   0.216
40816W        W 6043  38.575  34.920   2.797
40817W        W 6044  13.822  36.628  13.774
40818W        W 6045  33.363   1.367  14.533
40819W        W 6046   2.908  20.869  10.223
40820W        W 6047  17.820  38.292   2.561
40821W        W 6048   6.414  18.054   3.070
40822W        W 6049  44.918  38.929   3.669
40823W        W 6050  44.485   5.224  12.827
40824W        W 6051   8.873  38.489   3.948
40825W        W 6052   5.897  13.150  11.895
40826W        W 6053  38.391  39.868   0.808
40827W        W 6054  14.239   3.493  11.550
40828W        W 6055  16.115   9.839  10.781
40829W        W 6056  23.009  35.518  10.728
40830W        W 6057  30.574   3.175  10.653
40831W        W 6058  36.895  36.092  14.316
40832W        W 6059  38.352  14.734  13.519
40833W        W 6060  14.334  11.403   2.372
40834W        W 6061  39.676  42.398   0.101
40835W        W 6062  11.229  14.626  14.845
40836W        W 6063  20.663   2.243   1.013
40837W        W 6064  26.128  21.454  11.187
40838W        W 6065  43.804  23.148  13.505
40839W        W 6066  22.555  16.055  14.015
40840W        W 6067  11.844  40.070  10.095
40841W        W 6068  43.522  43.293  10.467
40842W        W 6069  43.827  14.355  12.996
40843W        W 6070  38.176  30.071  12.563
40844W        W 6071   5.473   3.417  13.984
40845W        W 6072  25.285   1.536  12.105
40846W        W 6073  23.973   1.309  10.812
40847W        W 6074  13.929  37.666  11.518
40848W        W 6075  28.058  20.114   3.254
40849W        W 6076   5.387   1.710   4.008
40850W        W 6077  20.022  39.582   0.893
40851W        W 6078   7.914  10.617  12.284
40852W        W 6079  18.614  38.854   0.118
40853W        W 6080   1.829  30.917   4.565
40854W        W 6081   7.895  25.057   4.547
40855W        W 6082  12.143   7.769   1.813
40856W        W 6083  26.090  18.660  13.376
40857W        W 6084  11.237  43.049  11.525
40858W        W 6085  15.980  14.647   0.878
40859W        W 6086  31.815  30.453   4.395
40860W        W 6087  17.024   1.351  12.491
40861W        W 6088  10.308   3.550   2.369
40862W        W 6089   6.746  22.025   0.121
40863W        W 6090  32.502  31.548   3.553
40864W        W 6091  24.556   2.070   5.011
40865W        W 6092  30.982  44.062  12.437
40866W        W 6093  27.644  42.762  14.343
40867W        W 6094  18.230  26.358   0.773
40868W        W 6095   8.677  11.311   2.450
40869W        W 6096  20.394  21.983   0.865
40870W        W 6097  13.832  30.657   0.546
40871W        W 6098  23.388  11.789  11.082
40872W        W 6099  43.977  33.520  11.885
40873W        W 6100   6.860  27.688  14.809
40874W        W 6101  13.871  14.687  14.992
40875W        W 6102  12.595   0.399  13.032
40876W        W 6103  17.641  40.485  14.915
40877W        W 6104  38.949  11.482  10.708
40878W        W 6105  42.042  24.329  13.320
40879W        W 6106   8.815  15.206  13.895
40880W        W 6107   2.339  21.828   4.070
40881W        W 6108  37.920   0.245  14.609
40882W        W 6109  41.696   8.605   4.411
40883W        W 6110  32.492  11.664   0.004
40884W        W 6111  10.268   2.367  12.967
40885W        W 6112   8.742   7.819  11.224
40886W        W 6113   0.474   1.352  14.630
40887W        W 6114  38.277  20.016  10.635
40888W        W 6115  34.435  38.394   4.046
40889W        W 6116  24.536  17.013   4.288
40890W        W 6117   4.290  30.109  13.262
40891W        W 6118   2.207   5.887   4.487
40892W        W 6119  29.405  10.597   0.897
40893W        W 6120  22.100  16.020  10.742
40894W        W 6121  25.941  39.007   2.905
40895W        W 6122  22.075  27.661   2.153
40896W        W 6123  30.703  32.381   1.487
40897W        W 6124  17.524  42.953  11.605
40898W        W 6125  37.746  33.432  10.249
40899W        W 6126  23.076  32.658  14.975
40900W        W 6127  12.717  14.629   4.541
40901W        W 6128  26.962  16.775  11.977
40902W        W 6129  15.874  28.515  14.881
40903W        W 6130  36.455  34.595  10.451
40904W        W 6131  15.375  17.173  13.252
40905W        W 6132   3.872  11.656  14.326
40906W        W 6133  13.563   6.830  13.043
40907W        W 6134  21.712  16.915   3.733
40908W        W 6135   0.809  23.697  14.513
40909W        W 6136  37.394   3.908  14.886
40910W        W 6137  14.443  34.297  14.489
40911W        W 6138  18.630   8.200  12.962
40912W        W 6139   6.299  17.815   0.618
40913W        W 6140   0.437  17.541   3.879
40914W        W 6141   6.884  27.825  12.972
40915W        W 6142  39.783  12.344   1.705
40916W        W 6143  40.097  37.879  14.362
40917W        W 6144  12.775  38.807  13.571
40918W        W 6145  11.528   5.287   0.753
40919W        W 6146   5.160  26.444  14.063
40920W        W 6147  41.689  21.666  13.507
40921W        W 6148  23.072  28.129   1.046
40922W        W 6149  10.306  37.069  13.819
40923W        W 6150  15.663   8.074  11.215
40924W        W 6151  19.502  27.650   2.490
40925W        W 6152  42.448   7.520  11.169
40926W        W 6153  30.982  34.943   0.185
40927W        W 6154  34.757  44.542  13.504
40928W        W 6155  41.358   9.337  13.443
40929W        W 6156   5.956  19.332   1.853
40930W        W 6157  44.553  29.734   0.039
40931W        W 6158  15.212  28.659  11.374
40932W        W 6159  41.208  41.374   1.160
40933W        W 6160  30.274  11.822   4.218
40934W        W 6161   0.325  36.645  11.217
40935W        W 6162  11.278  29.639   0.741
40936W        W 6163  28.583   4.269   1.334
40937W        W 6164  18.510   7.762  14.847
40938W        W 6165  28.952   7.651  13.011
40939W        W 6166  32.426   4.442  12.903
40940W        W 6167  24.030  22.542  13.306
40941W        W 6168  43.554  21.678  11.541
40942W        W 6169  11.302   8.900  11.932
40943W        W 6170  35.490  22.984   4.545
40944W        W 6171   9.883   0.759  11.103
40945W        W 6172  13.666  34.525  12.097
40946W        W 6173   1.447  14.403   1.297
40947W        W 6174   5.703  19.587  10.413
40948W        W 6175  40.910  41.872   3.803
40949W        W 6176  15.212  38.863  14.342
40950W        W 6177  28.415  28.226   2.216
40951W        W 6178  19.323   3.892  11.600
40952W        W 6179  14.332  42.436  11.439
40953W        W 6180   8.365   2.304   1.453
40954W        W 6181   7.331   2.772  11.106
40955W        W 6182   5.490  31.535  13.903
40956W        W 6183  21.232  36.605  12.667
40957W        W 6184  28.200  34.064  13.936
40958W        W 6185   4.741   6.311   3.381
40959W        W 6186  36.840   3.232  14.416
40960W        W 6187  21.110  44.064   3.206
40961W        W 6188  23.710  18.771  12.382
40962W        W 6189  35.976   9.623  14.393
40963W        W 6190  43.760  10.983  12.791
40964W        W 6191   0.744  30.470  11.176
40965W        W 6192  37.153   0.697  14.454
40966W        W 6193  41.876  44.421   3.235
40967W        W 6194  34.119  38.990   1.567
40968W        W 6195   4.143  40.454   1.265
40969W        W 6196  21.677  36.601  13.793
40970W        W 6197   1.012  15.860   1.847
40971W        W 6198  25.126  17.274   0.057
40972W        W 6199  19.189  18.628  13.128
40973W        W 6200  23.016  16.468  10.675
40974W        W 6201   1.625  33.258  11.451
40975W        W 6202  33.834  44.319  12.538
40976W        W 6203  42.622   5.567   2.795
40977W        W 6204  10.285   7.389  10.714
40978W        W 6205  35.892  27.160  14.468
40979W        W 6206  21.949  42.253  13.488
40980W        W 6207  27.192  24.371  11.178
40981W        W 6208  24.425  19.071  14.948
40982W        W 6209  28.313  33.481   2.005
40983W        W 6210  18.695  13.814   3.306
40984W        W 6211   7.862  20.200  12.983
40985W        W 6212   3.187  35.043  14.554
40986W        W 6213  21.736  34.571  14.380
40987W        W 6214   9.551  18.655   5.664
40988W        W 6215   0.421  30.655   4.606
40989W        W 6216   2.843  40.392  14.435
40990W        W 6217   9.574  36.533   1.346
40991W        W 6218  19.298  17.840  11.579
40992W        W 6219  38.864   1.525  12.891
40993W        W 6220   3.330  17.383   1.873
40994W        W 6221   9.750  31.371  12.704
40995W        W 6222   5.905  12.072  13.122
40996W        W 6223  14.730  44.839  12.884
40997W        W 6224  27.613  11.239  13.109
40998W        W 6225  31.645  10.881  10.538
40999W        W 6226  20.957  25.282   0.255
41000W        W 6227   4.105   7.437  11.647
41001W        W 6228  39.044   0.269  14.855
41002W        W 6229   3.937  11.408  12.998
41003W        W 6230  35.764  10.299   4.044
41004W        W 6231  32.851  17.567  13.081
41005W        W 6232  17.279   4.921  12.088
41006W        W 6233  26.356  21.252   0.930
41007W        W 6234  14.003  21.070   0.199
41008W        W 6235  37.414  43.279   2.802
41009W        W 6236  44.419   5.464  14.906
41010W        W 6237  36.795  33.372  10.995
41011W        W 6238  12.045  23.303   2.255
41012W        W 6239  40.775  14.365  10.673
41013W        W 6240  17.831  32.664  11.500
41014W        W 6241  30.476  40.470  12.875
41015W        W 6242  31.732  42.582   2.637
41016W        W 6243  35.922  28.660  12.414
41017W        W 6244  25.088  14.165  13.878
41018W        W 6245   5.599  28.513  12.078
41019W        W 6246  28.519  13.568   2.928
41020W        W 6247   4.203  13.290  14.735
41021W        W 6248  44.933  23.136  11.089
41022W        W 6249   1.813  40.066   2.213
41023W        W 6250  23.044  36.643   0.456
41024W        W 6251  13.760  41.978  12.579
41025W        W 6252  38.500  11.099  12.445
41026W        W 6253  42.545   7.771   2.801
41027W        W 6254   0.719  20.114   0.356
41028W        W 6255  16.140  28.138  12.497
41029W        W 6256  34.843  17.514  12.946
41030W        W 6257  18.188  21.553   2.182
41031W        W 6258  11.156  21.038  11.623
41032W        W 6259  20.448  14.394  12.171
41033W        W 6260   8.193  21.638   0.304
41034W        W 6261  38.852  37.288   1.427
41035W        W 6262   1.705  27.126   1.237
41036W        W 6263  42.821  38.026   2.181
41037W        W 6264  24.573   6.234  12.055
41038W        W 6265  24.667  36.812   0.431
41039W        W 6266   6.190  40.311  14.136
41040W        W 6267  20.106   5.627  11.262
41041W        W 6268  15.862  24.053  13.573
41042W        W 6269  29.594   7.879  11.493
41043W        W 6270   0.696  20.263   3.152
41044W        W 6271   2.729   5.849  10.955
41045W        W 6272   6.128  27.602   0.677
41046W        W 6273  27.673  41.330   4.598
41047W        W 6274  40.884  39.804   0.340
41048W        W 6275   2.278  30.382   4.052
41049W        W 6276  42.063   3.239   4.558
41050W        W 6277   1.442  32.476   1.329
41051W        W 6278  14.292  32.486  13.107
41052W        W 6279   8.147  23.312   4.462
41053W        W 6280  19.589  15.549  13.428
41054W        W 6281  43.881  40.051  13.532
41055W        W 6282   0.731  18.894   1.875
41056W        W 6283  28.266   4.037   1.711
41057W        W 6284  10.338  36.915  10.967
41058W        W 6285  21.024  25.724   4.550
41059W        W 6286  37.790  14.692  10.673
41060W        W 6287  34.001  32.885  10.916
41061W        W 6288  44.348  26.117  14.973
41062W        W 6289  40.736   0.968  10.701
41063W        W 6290  17.540  26.957  10.702
41064W        W 6291  11.480  38.718   2.264
41065W        W 6292   2.912  36.340  13.585
41066W        W 6293   6.275  35.890   4.234
41067W        W 6294   0.909  40.148  13.982
41068W        W 6295  43.270  43.444   4.564
41069W        W 6296  27.699   3.639  12.009
41070W        W 6297  35.548  37.034   3.805
41071W        W 6298  13.297   0.127   4.566
41072W        W 6299   4.964  22.446   2.276
41073W        W 6300  30.455  18.549  12.045
41074W        W 6301  24.784   3.374  11.256
41075W        W 6302  11.219  43.869   2.654
41076W        W 6303  35.952  20.119   4.704
41077W        W 6304   3.819  36.615  14.408
41078W        W 6305   6.416  36.034  12.049
41079W        W 6306   5.561  40.818   4.875
41080W        W 6307  19.567  18.541   3.363
41081W        W 6308  26.080  14.727   0.103
41082W        W 6309  19.063   3.766   4.609
41083W        W 6310   8.328  27.554   0.585
41084W        W 6311  26.125  26.627  14.932
41085W        W 6312  31.885  43.512  10.694
41086W        W 6313  24.677  42.965   3.379
41087W        W 6314  41.017  35.537   0.332
41088W        W 6315  29.137  42.289   0.830
41089W        W 6316   4.003  26.563  12.729
41090W        W 6317   4.629  41.343   1.256
41091W        W 6318  35.305  24.194   4.637
41092W        W 6319  23.911  34.932   3.754
41093W        W 6320  43.916   9.082  12.176
41094W        W 6321   7.127  42.008  12.332
41095W        W 6322  23.687  26.469  12.035
41096W        W 6323   4.830  14.148   3.378
41097W        W 6324  36.525  24.122   1.708
41098W        W 6325  40.421   6.538   9.952
41099W        W 6326  10.846  10.143  11.168
41100W        W 6327  32.646   9.822  13.644
41101W        W 6328  18.258  30.202   1.852
41102W        W 6329   2.034  34.385  14.521
41103W        W 6330  20.883  26.724   4.082
41104W        W 6331  23.766  27.120  14.057
41105W        W 6332   4.442  10.373  12.583
41106W        W 6333  22.412  13.356   2.435
41107W        W 6334  28.238  29.563  11.044
41108W        W 6335  33.638  13.534   9.883
41109W        W 6336  35.454  43.914  13.619
41110W        W 6337  35.596  19.119  11.246
41111W        W 6338  21.681  28.394   1.744
41112W        W 6339  15.672  14.810  11.976
41113W        W 6340  17.531  17.991  11.587
41114W        W 6341  24.437  13.322  13.139
41115W        W 6342  17.716  37.664  13.967
41116W        W 6343   3.761  34.636  13.050
41117W        W 6344  35.337  11.206  14.835
41118W        W 6345  22.286  42.193  11.791
41119W        W 6346  21.600   8.959   1.200
41120W        W 6347   5.599  15.836   2.712
41121W        W 6348  34.573   7.473  12.062
41122W        W 6349  26.717  19.300   3.669
41123W        W 6350   7.832  20.551   2.105
41124W        W 6351   5.153  15.118  12.459
41125W        W 6352  16.804  19.234  14.825
41126W        W 6353  37.903  11.447  11.953
41127W        W 6354  12.590  12.587  11.542
41128W        W 6355  26.219  38.716   0.496
41129W        W 6356  26.764  43.414   4.880
41130W        W 6357  38.035  23.165   1.490
41131W        W 6358  38.449  17.239   4.459
41132W        W 6359  37.396  31.897   2.340
41133W        W 6360  40.382  19.254  11.578
41134W        W 6361  23.812   7.232   0.424
41135W        W 6362  38.957  31.523  10.339
41136W        W 6363  31.072  17.011   0.969
41137W        W 6364  30.928  43.993   1.521
41138W        W 6365  13.890  38.463  11.487
41139W        W 6366  23.319   4.206   4.084
41140W        W 6367  32.363   3.321  13.058
41141W        W 6368   4.735   3.462  13.467
41142W        W 6369  17.615  19.150  14.385
41143W        W 6370  39.566  26.589  13.896
41144W        W 6371  22.656   6.161  14.758
41145W        W 6372  36.376  30.407  12.979
41146W        W 6373  10.286  27.786   0.677
41147W        W 6374  11.189  22.471   2.664
41148W        W 6375   7.443  14.443   3.588
41149W        W 6376  18.331  28.354   1.454
41150W        W 6377  22.238  29.531   4.043
41151W        W 6378   9.136  35.457  14.917
41152W        W 6379  32.758  29.855  12.099
41153W        W 6380  41.741  37.085   0.830
41154W        W 6381  31.158  19.247   0.461
41155W        W 6382  39.340  37.365  10.035
41156W        W 6383  20.089  29.490  10.041
41157W        W 6384  25.090  15.611  12.998
41158W        W 6385  37.916   6.332   0.988
41159W        W 6386   6.388   8.645   4.264
41160W        W 6387  28.114  37.941   3.677
41161W        W 6388  41.547  10.091   0.484
41162W        W 6389  26.793  25.660   1.579
41163W        W 6390  30.832  26.896   3.569
41164W        W 6391  15.809  18.671  11.289
41165W        W 6392  42.035  19.351   1.477
41166W        W 6393  19.840  19.841   3.626
41167W        W 6394   4.835  33.556  11.043
41168W        W 6395  26.134  11.489   4.559
41169W        W 6396  30.095  30.126  10.651
41170W        W 6397  22.282  38.035   2.752
41171W        W 6398  22.075  18.497   3.716
41172W        W 6399   1.906  42.017  13.388
41173W        W 6400  32.767  13.575  13.483
41174W        W 6401  14.795  44.349   3.092
41175W        W 6402  40.676  34.660   4.104
41176W        W 6403  27.779  16.716  11.039
41177W        W 6404  30.223   5.647   3.259
41178W        W 6405   9.371  43.059  12.020
41179W        W 6406  14.762  10.378  10.724
41180W        W 6407  29.545  33.018   2.926
41181W        W 6408   8.772  20.075  13.956
41182W        W 6409  38.879   9.320  12.473
41183W        W 6410   0.318   9.328  13.072
41184W        W 6411  35.991  25.605  10.731
41185W        W 6412   5.108  22.240   3.511
41186W        W 6413  37.019  17.076   1.284
41187W        W 6414  14.378   8.851  11.588
41188W        W 6415  39.220  41.495   1.171
41189W        W 6416  35.344  30.735   0.763
41190W        W 6417  33.628  27.185  10.903
41191W        W 6418  31.848  39.586   3.226
41192W        W 6419  16.586  36.557   1.428
41193W        W 6420  20.674  32.828   2.343
41194W        W 6421  37.262  42.045   4.579
41195W        W 6422  18.581  19.393   4.378
41196W        W 6423  12.616  34.082   3.067
41197W        W 6424  43.269  37.619  14.334
41198W        W 6425  18.181   5.746  14.990
41199W        W 6426  40.332   1.932  10.652
41200W        W 6427  43.050   6.792  10.645
41201W        W 6428   4.270   4.226   4.395
41202W        W 6429  44.222   5.767  14.072
41203W        W 6430  41.336   0.613  12.948
41204W        W 6431   2.527   6.812   3.145
41205W        W 6432   4.407  27.953   2.665
41206W        W 6433  44.022  25.227   4.881
41207W        W 6434  32.778  17.707   2.792
41208W        W 6435   8.771  12.575  14.461
41209W        W 6436  26.408  42.361  13.577
41210W        W 6437   8.691  42.309  14.690
41211W        W 6438  42.245  12.629  12.866
41212W        W 6439  10.725  43.490   2.062
41213W        W 6440  13.122  22.538   3.901
41214W        W 6441  15.419  17.508  11.028
41215W        W 6442   1.554  28.532  13.592
41216W        W 6443   5.255   2.917  10.484
41217W        W 6444  10.700  18.675  12.146
41218W        W 6445  10.215  36.724  11.476
41219W        W 6446  21.136  28.445  11.120
41220W        W 6447   6.502  37.835   3.170
41221W        W 6448  20.849  43.006  12.640
41222W        W 6449  29.941  39.834   0.808
41223W        W 6450  20.591  44.966   1.837
41224W        W 6451  42.440  21.263   1.185
41225W        W 6452  32.141  43.812  14.626
41226W        W 6453  44.987  13.699  11.818
41227W        W 6454  37.302  12.698  12.071
41228W        W 6455  44.978  28.003  10.338
41229W        W 6456   6.811  26.428   1.375
41230W        W 6457  29.537  10.457   2.168
41231W        W 6458  43.581  34.510  13.913
41232W        W 6459  34.575  30.128  13.062
41233W        W 6460  19.587  44.220  14.944
41234W        W 6461  14.737  40.642  12.336
41235W        W 6462   2.760  26.992  14.145
41236W        W 6463   4.814   8.256   2.276
41237W        W 6464  24.552   0.110   1.857
41238W        W 6465   2.773  20.641   4.629
41239W        W 6466   4.633  34.284  13.288
41240W        W 6467  27.888   5.415  13.351
41241W        W 6468  22.185  40.900   1.453
41242W        W 6469   5.393  37.537   1.421
41243W        W 6470   3.012   5.892   2.208
41244W        W 6471   3.376   7.337   3.677
41245W        W 6472  42.718  15.230   3.237
41246W        W 6473  36.265  23.681   3.230
41247W        W 6474  29.219  28.916  11.571
41248W        W 6475   6.392   7.368   3.701
41249W        W 6476  35.180  32.489   4.467
41250W        W 6477   8.332  10.619   2.856
41251W        W 6478  42.411  32.981   4.597
41252W        W 6479  24.695  15.577  11.502
41253W        W 6480  33.989  23.057  10.746
41254W        W 6481  25.238   7.669  11.291
41255W        W 6482  13.046  34.848  12.050
41256W        W 6483  25.519  36.590  13.443
41257W        W 6484  25.996  39.522   0.731
41258W        W 6485   4.907  22.040   0.318
41259W        W 6486  11.205  26.747   2.378
41260W        W 6487  42.906   8.532  14.455
41261W        W 6488   3.460  17.372   2.781
41262W        W 6489  27.593   9.106   0.336
41263W        W 6490  10.064   4.493   2.056
41264W        W 6491  31.427   6.915   1.756
41265W        W 6492  22.982  40.920  10.557
41266W        W 6493  22.039  10.193  13.425
41267W        W 6494  14.264  26.993  11.983
41268W        W 6495  28.288   6.782  13.443
41269W        W 6496  28.991   6.039   0.298
41270W        W 6497  35.834   1.252  13.528
41271W        W 6498   2.346  41.759  13.423
41272W        W 6499   4.569  40.847  12.436
41273W        W 6500  22.181  10.500   2.302
41274W        W 6501  30.771   9.685  14.867
41275W        W 6502  28.054  24.105  10.705
41276W        W 6503   6.369  34.927   2.185
41277W        W 6504  20.484  11.107   2.179
41278W        W 6505  40.499  41.569  12.018
41279W        W 6506  10.244  11.040  12.886
41280W        W 6507  42.934  37.435   3.095
41281W        W 6508  22.457  23.962   4.558
41282W        W 6509  37.130   5.706   2.086
41283W        W 6510  23.487  41.894  14.990
41284W        W 6511  15.186  15.848  10.725
41285W        W 6512  44.338  18.347  10.268
41286W        W 6513  37.379  15.644  14.187
41287W        W 6514   7.274  34.264   4.209
41288W        W 6515  15.285  21.486  14.398
41289W        W 6516  33.113  22.774   1.944
41290W        W 6517  15.659  40.378   2.640
41291W        W 6518  21.499   5.049   5.040
41292W        W 6519  15.198  19.263  12.512
41293W        W 6520  41.344  16.848   4.522
41294W        W 6521  21.866  33.906   1.224
41295W        W 6522   8.234  14.234   4.119
41296W        W 6523  17.644  22.651   3.970
41297W        W 6524  13.861  37.817  14.352
41298W        W 6525  40.083  25.828  14.384
41299W        W 6526  42.934  18.730  12.818
41300W        W 6527  42.894  44.250   3.204
41301W        W 6528  10.097  37.378  12.768
41302W        W 6529   6.834   4.780  13.808
41303W        W 6530  41.311  18.195   0.238
41304W        W 6531  40.839  32.189  14.253
41305W        W 6532  21.260  31.141  13.361
41306W        W 6533  29.654  24.502  13.020
41307W        W 6534  35.515  30.381  12.104
41308W        W 6535  27.017  13.617  12.441
41309W        W 6536  40.722  42.212  10.708
41310W        W 6537  13.573  13.330   4.131
41311W        W 6538  24.530  41.245  12.354
41312W        W 6539   5.003   4.352   0.338
41313W        W 6540  15.539  12.148  13.399
41314W        W 6541  37.853  14.472  12.609
41315W        W 6542   3.153  10.317  14.439
41316W        W 6543  34.651  39.533  12.474
41317W        W 6544   9.713   9.114  11.107
41318W        W 6545   4.225   7.108   0.696
41319W        W 6546  22.543  31.924   3.195
41320W        W 6547   9.788  40.425  10.521
41321W        W 6548  21.472  43.317  13.004
41322W        W 6549  16.486   1.931   0.956
41323W        W 6550  31.896  11.258  14.990
41324W        W 6551   9.577  32.433  13.486
41325W        W 6552  41.226  26.034  13.305
41326W        W 6553  37.169  16.450   2.775
41327W        W 6554   8.733  40.290   4.106
41328W        W 6555   4.376  11.256   4.406
41329W        W 6556  13.257  22.605  14.624
41330W        W 6557  41.739  14.065  14.759
41331W        W 6558  20.125  44.225   3.320
41332W        W 6559   7.550   2.276   0.466
41333W        W 6560  12.830  26.136  14.426
41334W        W 6561  17.727  20.942  13.084
41335W        W 6562  16.956   1.063   3.171
41336W        W 6563   1.932  29.873  14.031
41337W        W 6564   2.237  17.093  11.149
41338W        W 6565  44.935  41.118   3.301
41339W        W 6566  17.096  12.047   0.289
41340W        W 6567   9.762  21.055  14.757
41341W        W 6568   6.645  36.220   2.236
41342W        W 6569  27.109   4.841  13.981
41343W        W 6570  31.548  30.349  12.518
41344W        W 6571  19.244  23.325   1.593
41345W        W 6572  17.521  19.272  11.111
41346W        W 6573   3.359  33.744  11.638
41347W        W 6574  36.454   1.309   4.703
41348W        W 6575  41.976  27.727   1.257
41349W        W 6576  41.732  19.585  13.165
41350W        W 6577  18.039  18.837  12.465
41351W        W 6578  29.601   7.948  14.497
41352W        W 6579   0.831  16.461  10.369
41353W        W 6580  15.670  30.628  12.119
41354W        W 6581  20.699  28.924  11.698
41355W        W 6582  17.730   9.387  12.248
41356W        W 6583  33.933  19.800   4.190
41357W        W 6584   8.668   0.709   3.758
41358W        W 6585   8.826   5.690  13.882
41359W        W 6586  33.445   3.218   2.317
41360W        W 6587  32.881  34.903  12.844
41361W        W 6588   7.850   9.366  14.374
41362W        W 6589  34.855  26.756  11.531
41363W        W 6590   1.535  18.514   4.087
41364W        W 6591  17.181  41.697  11.168
41365W        W 6592  40.971   6.509   1.135
41366W        W 6593   1.157  25.274   4.576
41367W        W 6594  10.065  32.212  11.560
41368W        W 6595  22.992  10.613   1.181
41369W        W 6596  24.730  30.779   2.658
41370W        W 6597  14.716  31.402  11.210
41371W        W 6598  28.198   1.865   4.155
41372W        W 6599  16.460  15.004   0.304
41373W        W 6600  22.371  37.189   1.192
41374W        W 6601  43.307  11.583   0.363
41375W        W 6602   6.804  16.079  14.329
41376W        W 6603  27.470  28.058   1.391
41377W        W 6604  31.575  19.762   2.644
41378W        W 6605  17.958  25.576  14.951
41379W        W 6606  42.505   8.321  10.559
41380W        W 6607  10.306  26.668  11.620
41381W        W 6608  37.348  16.614  13.815
41382W        W 6609  18.333   3.956   1.762
41383W        W 6610  16.504   0.791  13.540
41384W        W 6611  30.898   5.854  13.490
41385W        W 6612  32.022  19.486   2.813
41386W        W 6613   1.157  43.191   1.355
41387W        W 6614  37.779  39.387   3.352
41388W        W 6615  27.453  44.543  10.702
41389W        W 6616  31.385  28.588   5.718
41390W        W 6617  40.927  31.657  11.509
41391W        W 6618  22.273   5.659  12.489
41392W        W 6619  23.627  39.960  13.130
41393W        W 6620   2.204  39.398  12.169
41394W        W 6621  41.876   7.917  13.892
41395W        W 6622   2.610  24.356   5.052
41396W        W 6623   9.623   2.153  12.433
41397W        W 6624  30.401   8.244  12.592
41398W        W 6625  31.857   5.571  11.095
41399W        W 6626  41.373  28.465  11.106
41400W        W 6627   8.670   0.815   4.621
41401W        W 6628  15.444  13.116  11.201
41402W        W 6629  35.229   6.618   1.415
41403W        W 6630   5.455  18.620   4.961
41404W        W 6631  23.975  38.425  13.891
41405W        W 6632   0.272  32.087  11.594
41406W        W 6633  28.055  20.276   0.782
41407W        W 6634  30.410  22.211  12.081
41408W        W 6635   3.002  27.356  14.450
41409W        W 6636  26.494  25.106  12.125
41410W        W 6637  28.008  33.967  10.851
41411W        W 6638  21.227  28.174   1.837
41412W        W 6639  20.515  22.149   1.852
41413W        W 6640  39.554   5.101  10.441
41414W        W 6641   8.201  10.211   1.866
41415W        W 6642  40.406   7.896   2.440
41416W        W 6643   9.176   6.874  10.511
41417W        W 6644   1.870  32.967  13.344
41418W        W 6645  34.000  40.366  14.364
41419W        W 6646   2.307   4.191  13.305
41420W        W 6647  15.723   8.605  12.955
41421W        W 6648  25.621  23.719   3.275
41422W        W 6649  34.484  29.740  10.804
41423W        W 6650   2.156  13.712  11.048
41424W        W 6651   9.985  14.585   1.196
41425W        W 6652   6.307  40.704  11.964
41426W        W 6653  12.817   7.841   3.204
41427W        W 6654  24.702  42.986  11.102
41428W        W 6655   8.595  21.618  12.217
41429W        W 6656   2.947  36.561   3.731
41430W        W 6657   4.951  15.762   5.088
41431W        W 6658  27.993  34.922  11.989
41432W        W 6659   6.491   5.376  12.689
41433W        W 6660   2.363  39.267   4.688
41434W        W 6661  27.116  44.349   2.827
41435W        W 6662   1.847  33.446  14.998
41436W        W 6663  37.457   7.974  13.864
41437W        W 6664   5.238  12.902  11.951
41438W        W 6665  18.509  36.956   4.850
41439W        W 6666  27.004  18.688   0.820
41440W        W 6667  16.841  31.046   0.261
41441W        W 6668  21.610  37.909   4.708
41442W        W 6669  30.938   9.466   2.478
41443W        W 6670  21.258  19.660  13.197
41444W        W 6671  22.308  24.176  10.508
41445W        W 6672   4.498  33.119  12.090
41446W        W 6673  17.252  28.994  10.267
41447W        W 6674  39.854  16.729   2.039
41448W        W 6675   2.544   9.344  12.949
41449W        W 6676  16.783  27.139   0.030
41450W        W 6677  44.460  17.293  10.260
41451W        W 6678  21.939   3.908  12.858
41452W        W 6679  33.503   2.389   3.585
41453W        W 6680  30.577  37.454   1.486
41454W        W 6681  20.711  25.659   2.223
41455W        W 6682  21.777  10.674  12.395
41456W        W 6683  13.368  28.104   0.266
41457W        W 6684   1.762  14.209  13.894
41458W        W 6685   6.526  20.576  12.976
41459W        W 6686   1.892  35.321   2.776
41460W        W 6687  33.592  17.157  11.555
41461W        W 6688  12.201  23.444  11.861
41462W        W 6689  35.841  25.436   3.730
41463W        W 6690  29.895  16.826   1.908
41464W        W 6691  23.140  27.532  14.721
41465W        W 6692  34.580  25.563   3.261
41466W        W 6693  18.070  20.337  11.495
41467W        W 6694  29.412   0.049  11.196
41468W        W 6695  25.681  25.452  11.505
41469W        W 6696  23.536  11.159   0.437
41470W        W 6697  39.817  15.378  11.609
41471W        W 6698  42.458  28.369   4.851
41472W        W 6699  24.964  15.348   2.559
41473W        W 6700   4.223  27.638   2.294
41474W        W 6701  15.818  15.693   2.609
41475W        W 6702  41.971   0.034  13.266
41476W        W 6703  30.448  42.765  13.893
41477W        W 6704  36.328   3.835   0.855
41478W        W 6705  28.023  38.559   1.612
41479W        W 6706  23.730  23.120  11.467
41480W        W 6707  38.291  13.100  13.355
41481W        W 6708  29.585   0.218  13.372
41482W        W 6709   4.942   0.889   1.728
41483W        W 6710   2.699  22.111  11.085
41484W        W 6711  43.054  38.513   2.765
41485W        W 6712   9.154  38.817   4.895
41486W        W 6713  28.240  21.236   1.644
41487W        W 6714  27.514  21.326  11.105
41488W        W 6715  34.969  29.132  10.349
41489W        W 6716  42.926  35.830  13.854
41490W        W 6717  27.997  41.919   1.373
41491W        W 6718   7.708  44.097   2.320
41492W        W 6719  16.350  41.930   1.147
41493W        W 6720   6.656  44.164  10.769
41494W        W 6721  33.964   3.841  11.930
41495W        W 6722  30.165  34.154   0.979
41496W        W 6723  30.671  31.400  10.545
41497W        W 6724  28.433   6.189   2.246
41498W        W 6725   9.300   3.206   0.288
41499W        W 6726   8.030  12.815  11.439
41500W        W 6727  14.824  43.770   4.723
41501W        W 6728  27.541  29.317   3.768
41502W        W 6729  24.658  38.401  11.676
41503W        W 6730   3.862   8.783  13.431
41504W        W 6731  40.372  29.786   0.053
41505W        W 6732  13.660   4.979  13.832
41506W        W 6733   4.257   5.885  14.219
41507W        W 6734  33.107   4.819  11.907
41508W        W 6735   9.167  25.731   0.801
41509W        W 6736  22.268  21.066  11.977
41510W        W 6737  32.822  21.760  11.157
41511W        W 6738   9.069  29.486   1.824
41512W        W 6739  44.094  34.888   2.679
41513W        W 6740   5.384  31.876  14.283
41514W        W 6741  15.105  37.513  14.469
41515W        W 6742  17.637   8.387   0.828
41516W        W 6743  16.047   2.008   3.797
41517W        W 6744  25.163   4.680  12.448
41518W        W 6745  22.113  38.612   3.607
41519W        W 6746  19.222  21.801   3.781
41520W        W 6747  32.012  35.773   3.094
41521W        W 6748  36.588  34.276  13.800
41522W        W 6749  33.574   6.942  14.885
41523W        W 6750  21.319  32.562   0.542
41524W        W 6751  34.087  26.684  12.423
41525W        W 6752  15.194  26.410  13.090
41526W        W 6753  35.979  38.573   3.691
41527W        W 6754  11.338  20.031   2.217
41528W        W 6755   9.016  40.705   4.119
41529W        W 6756  14.722  36.209   1.793
41530W        W 6757   1.395   0.179   0.464
41531W        W 6758  16.631  21.895  14.882
41532W        W 6759  25.141   8.351   4.424
41533W        W 6760  41.471  43.466  10.653
41534W        W 6761  26.179  17.078   2.347
41535W        W 6762  35.814   3.750  14.896
41536W        W 6763  10.865   3.235   4.141
41537W        W 6764   2.429  13.080   4.043
41538W        W 6765   8.438  32.391   3.649
41539W        W 6766  18.846  37.538  10.991
41540W        W 6767  19.071  24.997  12.200
41541W        W 6768  42.318  40.113   4.574
41542W        W 6769  31.108  10.739   1.214
41543W        W 6770  36.697   2.001   2.854
41544W        W 6771  32.251  25.196  10.816
41545W        W 6772  34.583  36.664  10.298
41546W        W 6773  38.480   2.088  11.994
41547W        W 6774  16.766  33.860   1.590
41548W        W 6775   1.208  44.789  13.953
41549W        W 6776   1.474  44.819   2.332
41550W        W 6777  39.836  25.047   0.417
41551W        W 6778  20.673  41.831   1.183
41552W        W 6779   3.321  34.899   4.597
41553W        W 6780  40.213  14.800  12.299
41554W        W 6781  31.000  11.230  14.910
41555W        W 6782  44.736  44.469   2.307
41556W        W 6783  21.095  39.338   1.360
41557W        W 6784  26.166  33.516   1.813
41558W        W 6785  19.777  11.036  14.928
41559W        W 6786   5.399   7.435   3.651
41560W        W 6787  21.053  40.406   1.359
41561W        W 6788  20.806  24.030   1.319
41562W        W 6789  27.630  31.742   2.126
41563W        W 6790  16.279  33.402  14.901
41564W        W 6791  33.417   1.015  13.010
41565W        W 6792  25.554  11.086  12.967
41566W        W 6793  21.221  31.207  14.925
41567W        W 6794  32.532  40.166  11.081
41568W        W 6795  18.284  26.147  13.837
41569W        W 6796  43.510  32.688  13.032
41570W        W 6797  35.998  13.700   2.694
41571W        W 6798  25.001  37.998  13.941
41572W        W 6799  18.036  32.282   1.951
41573W        W 6800  18.220  26.428  14.908
41574W        W 6801   8.950  19.173  12.913
41575W        W 6802  44.927  36.913   2.361
41576W        W 6803  23.414  18.822   0.066
41577W        W 6804  11.664  42.063   4.525
41578W        W 6805  29.398   8.697   1.472
41579W        W 6806  12.082  34.964  14.840
41580W        W 6807  27.842  15.064   3.948
41581W        W 6808   1.204  17.080  12.418
41582W        W 6809  42.073  35.825   5.126
41583W        W 6810  40.823   0.644   0.960
41584W        W 6811  10.356  37.562   2.073
41585W        W 6812  26.064   7.837   0.256
41586W        W 6813  20.455  23.012   4.833
41587W        W 6814  16.905  40.435   2.648
41588W        W 6815  19.583  30.995  10.962
41589W        W 6816  22.026  31.819  14.940
41590W        W 6817  30.601  43.293   2.734
41591W        W 6818  23.234  32.986   2.825
41592W        W 6819  26.679  18.492   4.021
41593W        W 6820   9.739  38.092   3.641
41594W        W 6821  16.664  26.412   3.691
41595W        W 6822  37.878  44.095   2.146
41596W        W 6823  12.166  20.195   3.035
41597W        W 6824  27.451  28.205  12.921
41598W        W 6825  27.100  37.081   2.248
41599W        W 6826  14.286  27.733   2.378
41600W        W 6827   6.894  17.571  13.425
41601W        W 6828   0.934  33.649   3.239
41602W        W 6829  30.906   8.841  12.095
41603W        W 6830  34.425  11.915  13.390
41604W        W 6831   1.618  18.657   1.875
41605W        W 6832   8.706  41.981   0.085
41606W        W 6833  23.981  32.138   1.360
41607W        W 6834  19.278  20.498   3.302
41608W        W 6835   0.648  34.095  11.368
41609W        W 6836  41.082  29.897   4.358
41610W        W 6837   2.847  21.585  11.500
41611W        W 6838  44.744   3.677  11.559
41612W        W 6839  39.995  21.633   3.182
41613W        W 6840  12.265   6.225  11.190
41614W        W 6841   1.362  18.786  13.079
41615W        W 6842  21.516  19.701   0.936
41616W        W 6843  18.503   0.526   0.501
41617W        W 6844  23.737   9.072   1.669
41618W        W 6845  42.844  32.422  11.036
41619W        W 6846  28.109   6.562   4.065
41620W        W 6847  35.334   2.765  12.270
41621W        W 6848  13.376  38.483  13.849
41622W        W 6849  36.016  10.701   3.817
41623W        W 6850  11.919  12.494   3.805
41624W        W 6851  40.851  22.700   0.831
41625W        W 6852  16.345  19.151   4.895
41626W        W 6853  11.906   2.916   3.841
41627W        W 6854  11.534  15.662  12.531
41628W        W 6855   9.048  31.442   2.168
41629W        W 6856  18.606   0.147   0.161
41630W        W 6857   4.823  15.823  10.540
41631W        W 6858  31.711  27.716  10.272
41632W        W 6859   6.090  23.444  11.523
41633W        W 6860  16.202  19.959   4.605
41634W        W 6861  33.792   1.216  11.142
41635W        W 6862  29.986   2.814  14.915
41636W        W 6863   7.837   1.123   1.938
41637W        W 6864   7.988  27.848   1.738
41638W        W 6865  38.428   2.721  14.789
41639W        W 6866  11.060  38.093   4.242
41640W        W 6867  23.452  17.744   2.668
41641W        W 6868   4.715   8.971   0.398
41642W        W 6869  26.665  38.046  10.957
41643W        W 6870  39.431  39.897   3.934
41644W        W 6871  32.518  41.732   3.410
41645W        W 6872  26.103   9.993   4.962
41646W        W 6873  35.037  36.813  12.902
41647W        W 6874  18.904  15.050  11.744
41648W        W 6875  18.733   8.476  13.386
41649W        W 6876  21.072  32.166   2.855
41650W        W 6877  34.653  43.468   1.891
41651W        W 6878  37.761  31.525  12.766
41652W        W 6879  43.695  27.897  12.240
41653W        W 6880  41.183  32.558  14.335
41654W        W 6881  21.560   1.179  13.418
41655W        W 6882  31.916  39.471  13.876
41656W        W 6883  35.082  28.790  11.580
41657W        W 6884  39.161  21.890  11.385
41658W        W 6885   7.853   4.073  10.708
41659W        W 6886  28.434  10.630   2.884
41660W        W 6887  24.028  11.657   3.483
41661W        W 6888   1.229  29.675   2.779
41662W        W 6889  42.331  13.768  11.197
41663W        W 6890  41.024  31.467  10.726
41664W        W 6891  28.870  41.020   0.318
41665W        W 6892   3.463  14.404   4.541
41666W        W 6893  32.679   7.687   0.551
41667W        W 6894   4.227  30.976   4.240
41668W        W 6895   9.391  44.856  14.820
41669W        W 6896   3.678   5.643  12.559
41670W        W 6897   4.932  38.694  14.517
41671W        W 6898  15.106  19.086  11.668
41672W        W 6899   2.226  36.640  12.940
41673W        W 6900   4.436  25.015   1.827
41674W        W 6901   9.798  33.612  11.079
41675W        W 6902  27.933  25.123  13.858
41676W        W 6903  43.377  17.608  14.714
41677W        W 6904  26.528  43.301  13.322
41678W        W 6905  12.620   3.920   4.247
41679W        W 6906  16.151   6.241  11.154
41680W        W 6907   2.964  26.224  10.930
41681W        W 6908  25.925  40.806   3.592
41682W        W 6909  21.650   2.063  11.504
41683W        W 6910  33.959  39.369   2.655
41684W        W 6911  10.996  14.869  10.111
41685W        W 6912  33.414   8.236   0.508
41686W        W 6913  19.271   2.412   0.716
41687W        W 6914  25.254  25.505  12.173
41688W        W 6915  27.389   9.913  14.948
41689W        W 6916  25.950  32.817   0.753
41690W        W 6917  10.221   6.922  11.645
41691W        W 6918   4.687   9.415   2.948
41692W        W 6919   4.943  31.567   4.399
41693W        W 6920  42.345  44.416  10.717
41694W        W 6921  27.107  28.371   1.770
41695W        W 6922  35.982   9.364   4.178
41696W        W 6923  35.414   3.868  10.508
41697W        W 6924  12.543  44.410   3.734
41698W        W 6925  41.073  35.067  10.732
41699W        W 6926  28.304  43.037   0.022
41700W        W 6927  32.411  38.400   2.754
41701W        W 6928  14.981   2.758  11.666
41702W        W 6929  25.993  16.073   2.371
41703W        W 6930  31.755   1.383   2.310
41704W        W 6931  11.222  41.037  14.818
41705W        W 6932  12.894  31.076  12.429
41706W        W 6933  36.023  37.851  14.674
41707W        W 6934  27.669  17.922  11.984
41708W        W 6935  37.499  41.343  11.114
41709W        W 6936   4.823  37.296  14.941
41710W        W 6937   8.707  19.807   3.160
41711W        W 6938  36.740   5.183  11.122
41712W        W 6939  44.499  12.182  12.419
41713W        W 6940  19.674  28.133   3.693
41714W        W 6941  44.557  24.700  13.918
41715W        W 6942   1.741   5.883  13.571
41716W        W 6943  34.461  44.354  12.165
41717W        W 6944  34.558  35.052   3.736
41718W        W 6945  35.691  26.184   1.174
41719W        W 6946  22.103  14.066   1.725
41720W        W 6947  17.111  30.148   4.263
41721W        W 6948  44.420  41.026  13.510
41722W        W 6949  19.097  22.593   0.488
41723W        W 6950  24.700  24.994   3.491
41724W        W 6951   3.479  33.662   0.557
41725W        W 6952  30.422  18.290  14.894
41726W        W 6953  33.970  15.221  12.984
41727W        W 6954  26.557  44.339   3.308
41728W        W 6955  11.260  27.933  13.797
41729W        W 6956  42.315  21.466   4.122
41730W        W 6957   8.450   9.677  11.245
41731W        W 6958  18.651  23.125  12.401
41732W        W 6959   9.334  23.103  13.812
41733W        W 6960   8.805  25.825   3.362
41734W        W 6961  10.924  18.110   0.652
41735W        W 6962  26.223  17.214   4.554
41736W        W 6963  11.587  20.829  14.400
41737W        W 6964  13.354   6.360  13.932
41738W        W 6965  21.294  11.919   1.260
41739W        W 6966  36.601   3.440  12.879
41740W        W 6967  30.648  22.587  12.378
41741W        W 6968   5.658  23.166  14.261
41742W        W 6969  40.482  10.092  12.501
41743W        W 6970   1.826  16.137   4.682
41744W        W 6971   7.930  43.608   3.158
41745W        W 6972   9.897  20.372   0.839
41746W        W 6973   5.374   4.461   1.807
41747W        W 6974  23.635   5.344   1.658
41748W        W 6975  41.562  26.469   2.223
41749W        W 6976   7.744  41.479  14.326
41750W        W 6977  19.401  29.626  10.425
41751W        W 6978  19.425  22.661  12.041
41752W        W 6979   0.370  23.280   4.139
41753W        W 6980  37.556  30.991   2.436
41754W        W 6981   1.454  14.865  11.431
41755W        W 6982   8.434  18.864  12.551
41756W        W 6983   2.392  17.017   3.005
41757W        W 6984   5.177  15.085   3.115
41758W        W 6985  20.010   4.835   4.188
41759W        W 6986  10.110  25.141   1.861
41760W        W 6987  18.684  29.574   0.141
41761W        W 6988  20.696  33.875   0.850
41762W        W 6989  12.256  21.044  13.948
41763W        W 6990  37.302   1.136  14.703
41764W        W 6991  22.485   9.512   3.026
41765W        W 6992  13.819   7.016  14.474
41766W        W 6993  16.867  21.809   0.334
41767W        W 6994  37.027  27.897  13.475
41768W        W 6995  25.600  11.936   3.366
41769W        W 6996  35.899   6.506  11.534
41770W        W 6997  34.905  30.428   0.740
41771W        W 6998   0.039   0.440   0.491
41772W        W 6999   3.448  15.317   2.699
41773W        W 7000  42.096   6.497  14.874
41774W        W 7001   6.373  13.145  14.911
41775W        W 7002  38.818   1.416   3.279
41776W        W 7003  19.748  10.967  10.699
41777W        W 7004   2.963   5.445   1.954
41778W        W 7005  14.841  25.673   1.346
41779W        W 7006  17.162   7.280   5.015
41780W        W 7007  40.881  10.727  12.915
41781W        W 7008  19.836   0.024   3.385
41782W        W 7009  26.572  40.352   1.456
41783W        W 7010   7.585  30.490   4.151
41784W        W 7011  28.190   4.302  14.366
41785W        W 7012  38.701  26.008  13.437
41786W        W 7013   9.315  42.249   3.198
41787W        W 7014   3.019   7.412  12.611
41788W        W 7015  32.337  23.095  14.911
41789W        W 7016  24.682  39.872   4.374
41790W        W 7017  43.340  17.855   0.666
41791W        W 7018  12.045  36.205   1.984
41792W        W 7019  27.643   6.885  11.596
41793W        W 7020  42.434  26.243   0.756
41794W        W 7021   8.691   1.829  13.706
41795W        W 7022  21.358  35.160   4.607
41796W        W 7023   6.697  18.044  13.349
41797W        W 7024  36.266  11.558  10.563
41798W        W 7025  28.414   2.155   3.097
41799W        W 7026  10.826  42.078   4.189
41800W        W 7027  36.000  22.826  12.433
41801W        W 7028   0.444  25.904   5.405
41802W        W 7029  22.541   6.758   3.880
41803W        W 7030  25.939  14.108   2.859
41804W        W 7031  25.726  13.549   4.194
41805W        W 7032   8.359  11.327  10.944
41806W        W 7033  12.750  27.120  12.370
41807W        W 7034  25.444  43.627   4.661
41808W        W 7035  34.477  15.563   3.497
41809W        W 7036  24.897   3.201  12.897
41810W        W 7037  12.661  37.615  14.430
41811W        W 7038  24.264  25.147  12.998
41812W        W 7039   5.704  37.054   4.600
41813W        W 7040  35.566  12.145  13.892
41814W        W 7041  13.382  29.534   3.284
41815W        W 7042  19.025  36.257   2.343
41816W        W 7043  11.383   3.798   4.927
41817W        W 7044  15.262  43.075   3.700
41818W        W 7045  25.995   9.179  14.011
41819W        W 7046  39.204  40.335   3.780
41820W        W 7047  22.737  19.725  14.329
41821W        W 7048  39.930   3.573  10.465
41822W        W 7049   0.009   4.762  14.990
41823W        W 7050  41.735  32.926  12.623
41824W        W 7051   3.544   7.487  14.329
41825W        W 7052  23.644  20.734  12.910
41826W        W 7053  38.926  20.579  11.854
41827W        W 7054  31.210  29.355  13.970
41828W        W 7055   6.160   1.333   1.223
41829W        W 7056  44.474   2.874   1.434
41830W        W 7057  42.798   9.480   0.541
41831W        W 7058  13.314   2.046  10.793
41832W        W 7059   1.656  16.601   4.582
41833W        W 7060   8.680   2.914   1.314
41834W        W 7061  27.254  34.082   3.294
41835W        W 7062  19.036  14.376  13.429
41836W        W 7063  34.981  40.237  10.392
41837W        W 7064  28.563  38.416   2.308
41838W        W 7065  42.340  11.078   3.231
41839W        W 7066  15.826   7.824   3.827
41840W        W 7067  35.622   9.859  13.540
41841W        W 7068  28.473  10.042  14.914
41842W        W 7069  34.088  44.074   0.447
41843W        W 7070  17.107  21.038   1.442
41844W        W 7071  16.124  25.174  13.553
41845W        W 7072   3.283  22.226   1.659
41846W        W 7073  36.872  23.644  12.614
41847W        W 7074  34.975  42.767  10.448
41848W        W 7075   8.279  30.948  12.275
41849W        W 7076  19.309  26.387  14.058
41850W        W 7077  12.872  24.085   4.107
41851W        W 7078  24.858  34.460   4.676
41852W        W 7079  37.938  33.789  13.103
41853W        W 7080  39.022  30.634   3.147
41854W        W 7081  37.195  17.242  13.375
41855W        W 7082  14.583  40.732   9.786
41856W        W 7083  35.213   9.171  12.310
41857W        W 7084  44.012  26.501   2.676
41858W        W 7085  20.115  14.367   2.691
41859W        W 7086  21.119  38.963  14.073
41860W        W 7087  16.149  43.301   4.153
41861W        W 7088  22.657  19.072   0.460
41862W        W 7089   9.238  32.858  11.426
41863W        W 7090  21.666  14.317  10.671
41864W        W 7091  44.639  17.334   0.208
41865W        W 7092  14.246  30.956   1.880
41866W        W 7093  22.448  26.668  14.882
41867W        W 7094  27.136  16.722   4.328
41868W        W 7095  33.083   6.662  13.905
41869W        W 7096  37.997  37.595  10.484
41870W        W 7097  28.971  40.062   3.677
41871W        W 7098  40.182  30.410   4.537
41872W        W 7099  20.571  36.421  11.240
41873W        W 7100  12.376  33.849  11.155
41874W        W 7101  40.578  20.129  12.926
41875W        W 7102  42.878  24.283   2.728
41876W        W 7103  35.932   9.415   0.203
41877W        W 7104  11.079  37.382   3.600
41878W        W 7105  17.217  25.868   4.959
41879W        W 7106  36.344  27.315  10.728
41880W        W 7107  30.421  30.497   1.758
41881W        W 7108  21.115  31.334   3.357
41882W        W 7109  21.221   2.751   3.452
41883W        W 7110  28.448  19.730  13.822
41884W        W 7111  36.411  10.174   0.004
41885W        W 7112   0.291  30.681   0.831
41886W        W 7113  42.072  25.162  13.008
41887W        W 7114  20.245  12.340  13.947
41888W        W 7115  38.093   9.176  13.627
41889W        W 7116  25.130   4.792   5.111
41890W        W 7117   5.687   8.247   1.824
41891W        W 7118   5.722  20.277   4.286
41892W        W 7119  25.235  17.332   0.589
41893W        W 7120  20.636  26.761   1.407
41894W        W 7121  25.746   6.724   1.307
41895W        W 7122  20.173  15.210  12.705
41896W        W 7123  44.484  30.849   3.857
41897W        W 7124  37.932  13.579  14.391
41898W        W 7125  10.622  12.213   3.801
41899W        W 7126  14.871  17.334   1.801
41900W        W 7127  39.552  33.019  14.048
41901W        W 7128  30.678  44.555   2.147
41902W        W 7129  33.524  27.490  10.321
41903W        W 7130  43.278  34.567  11.611
41904W        W 7131   5.916  24.796  12.301
41905W        W 7132  30.624  35.318  10.905
41906W        W 7133  20.014   0.695   5.075
41907W        W 7134  15.098  33.092   2.283
41908W        W 7135  36.986  38.466  10.679
41909W        W 7136  39.840  32.564   0.748
41910W        W 7137  42.412  31.385  13.034
41911W        W 7138   2.378  16.259  10.593
41912W        W 7139  31.451  22.711  13.883
41913W        W 7140  17.661   5.288   4.217
41914W        W 7141  18.972  11.390  14.407
41915W        W 7142  22.372  10.979   0.539
41916W        W 7143   3.921  21.133   1.027
41917W        W 7144  13.620   9.815  14.831
41918W        W 7145   4.964   4.693   4.560
41919W        W 7146  44.096  26.134   0.476
41920W        W 7147  14.984   5.084   1.519
41921W        W 7148  43.850  16.763  12.094
41922W        W 7149   2.501  37.627   3.709
41923W        W 7150   6.154  13.664   3.564
41924W        W 7151  44.148  34.012   0.327
41925W        W 7152  13.300  23.156  10.874
41926W        W 7153  25.679  10.642   4.676
41927W        W 7154   3.415  25.941   2.696
41928W        W 7155  20.953  32.121   0.414
41929W        W 7156  39.869  35.538  11.330
41930W        W 7157   9.685  21.284  13.697
41931W        W 7158  12.228  20.640  13.609
41932W        W 7159   5.614  38.935   0.349
41933W        W 7160  13.668  42.732   1.985
41934W        W 7161  41.613  14.428  10.328
41935W        W 7162  29.729  40.410   2.534
41936W        W 7163  42.289  11.087   2.307
41937W        W 7164  15.946  19.538   0.460
41938W        W 7165  30.505   6.607  10.780
41939W        W 7166  14.266   1.306   1.385
41940W        W 7167   7.398  13.624  14.375
41941W        W 7168  19.979  44.694   0.293
41942W        W 7169  20.611  22.991  14.535
41943W        W 7170  30.443  18.801  14.885
41944W        W 7171   8.350   7.741   4.616
41945W        W 7172   8.681  11.613   0.712
41946W        W 7173  14.535  23.189   2.674
41947W        W 7174  28.220   6.411   4.579
41948W        W 7175  21.025  10.170   1.724
41949W        W 7176  38.338  14.758  12.645
41950W        W 7177   9.411  28.853  13.429
41951W        W 7178  13.539  23.852   1.161
41952W        W 7179  37.001  18.629   3.426
41953W        W 7180   8.438  37.802  13.988
41954W        W 7181  21.782  22.710  14.974
41955W        W 7182   5.268   6.157  14.897
41956W        W 7183  29.788   3.639  12.643
41957W        W 7184  26.954  25.149   3.155
41958W        W 7185  41.344  15.840   2.689
41959W        W 7186  28.497  20.593  10.741
41960W        W 7187  42.813  42.959   3.537
41961W        W 7188  29.613  12.168   4.107
41962W        W 7189  10.460   2.914   0.943
41963W        W 7190   0.739  24.015  12.075
41964W        W 7191   4.072  39.019   0.518
41965W        W 7192  37.555  26.580  10.561
41966W        W 7193  25.124  23.154   4.035
41967W        W 7194  37.423  40.466  11.215
41968W        W 7195  28.487  40.236   0.441
41969W        W 7196   1.188  19.166   1.915
41970W        W 7197  21.626  36.503   1.257
41971W        W 7198  31.610  40.889  14.530
41972W        W 7199  44.375  23.286  14.024
41973W        W 7200  39.868   9.235   3.502
41974W        W 7201  19.268  41.332   1.816
41975W        W 7202   0.434  27.270  12.948
41976W        W 7203  35.030  37.998   5.587
41977W        W 7204  43.292  36.080   2.549
41978W        W 7205  39.018  29.522  13.009
41979W        W 7206  13.915  30.804  12.900
41980W        W 7207  24.532  22.622  11.107
41981W        W 7208   2.411  40.406  12.022
41982W        W 7209  44.752  36.675  13.894
41983W        W 7210   0.444  17.678   2.215
41984W        W 7211  28.100  37.151  10.674
41985W        W 7212  18.691  26.976  13.082
41986W        W 7213  22.434  42.115   4.642
41987W        W 7214  10.616   6.497   1.759
41988W        W 7215  18.412   5.428   0.360
41989W        W 7216  30.204  16.612   5.025
41990W        W 7217  32.325  28.564   2.742
41991W        W 7218  20.057   3.540   4.546
41992W        W 7219  21.107   5.286   3.214
41993W        W 7220   6.958  39.457  14.984
41994W        W 7221  28.996  37.741   4.076
41995W        W 7222  27.488  33.407  12.987
41996W        W 7223   0.237  23.101   1.887
41997W        W 7224  40.770  31.489  11.961
41998W        W 7225  12.434   4.955   0.695
41999W        W 7226  41.637   7.680   4.105
42000W        W 7227  44.550  24.142  14.443
42001W        W 7228  33.543  16.613   3.166
42002W        W 7229  42.882  42.623   4.529
42003W        W 7230   0.206  20.147   9.789
42004W        W 7231  19.794  44.771  12.054
42005W        W 7232  26.203  41.038  12.517
42006W        W 7233   1.436  26.086  13.127
42007W        W 7234  42.061   9.239   4.938
42008W        W 7235  30.479  32.403  13.414
42009W        W 7236  20.527  39.258  14.764
42010W        W 7237  32.524  30.035  13.976
42011W        W 7238  41.867  40.961   4.348
42012W        W 7239   9.213  31.917  12.888
42013W        W 7240  12.828  36.622  12.036
42014W        W 7241  18.788  32.441  10.744
42015W        W 7242  16.184   8.125  14.882
42016W        W 7243  27.302  39.966   3.223
42017W        W 7244  39.311  29.249  13.333
42018W        W 7245  35.858  34.064  14.862
42019W        W 7246   9.604  11.444   2.727
42020W        W 7247  16.745   6.681   2.560
42021W        W 7248   3.822  37.543   4.280
42022W        W 7249  20.648   8.902  13.174
42023W        W 7250  12.293  40.504  12.428
42024W        W 7251  43.680  32.213  14.539
42025W        W 7252  13.354  28.012   3.015
42026W        W 7253  42.858  11.771   3.016
42027W        W 7254   9.808   5.879   3.178
42028W        W 7255  32.736  42.415  10.944
42029W        W 7256  36.996  38.557   4.718
42030W        W 7257  30.072  43.533  14.361
42031W        W 7258   8.391  11.754   2.628
42032W        W 7259  22.683  25.899   0.295
42033W        W 7260  39.258  41.426  13.951
42034W        W 7261  36.106   4.775   3.561
42035W        W 7262  38.930   2.426   0.803
42036W        W 7263   6.260  29.992   1.824
42037W        W 7264  17.992  44.346  13.979
42038W        W 7265   4.192  10.939  13.751
42039W        W 7266  42.187  15.728   3.723
42040W        W 7267  15.603  29.317  11.159
42041W        W 7268  44.612  41.584  13.455
42042W        W 7269   6.328  30.160   4.630
42043W        W 7270  38.921  38.828   0.257
42044W        W 7271  12.710  21.005   1.413
42045W        W 7272  13.112   9.124   3.267
42046W        W 7273  23.962  10.602   3.684
42047W        W 7274  13.982  25.671  12.995
42048W        W 7275  19.928   2.297   4.497
42049W        W 7276  32.593  15.858  11.222
42050W        W 7277   9.078   4.736   0.006
42051W        W 7278  23.174  36.530   3.871
42052W        W 7279  36.528   0.479   4.308
42053W        W 7280  11.407  37.367   0.758
42054W        W 7281  14.770  37.221   2.773
42055W        W 7282  30.558   6.476  12.087
42056W        W 7283  43.090  11.333   3.729
42057W        W 7284  23.750  35.968   0.423
42058W        W 7285  36.020  38.006  12.139
42059W        W 7286  16.039  36.314   3.542
42060W        W 7287   2.787  19.113   5.153
42061W        W 7288  29.867   6.436  11.133
42062W        W 7289  30.201  28.016   0.836
42063W        W 7290   6.840  13.254   1.202
42064W        W 7291   0.806  41.948  12.797
42065W        W 7292  38.860  39.836  12.425
42066W        W 7293  18.479  16.988   1.001
42067W        W 7294  18.805  38.406   4.576
42068W        W 7295  22.506   2.376   0.414
42069W        W 7296  15.423  36.513   1.009
42070W        W 7297  41.937  29.473   3.549
42071W        W 7298  41.864  22.042  11.166
42072W        W 7299   4.841  18.125  14.755
42073W        W 7300  23.693  10.095   4.113
42074W        W 7301  43.435  16.356   3.814
42075W        W 7302  14.132   5.296  10.818
42076W        W 7303  21.975  40.780  14.949
42077W        W 7304  10.589  41.384  10.705
42078W        W 7305  23.163  42.346   1.836
42079W        W 7306  42.413   2.871   0.187
42080W        W 7307   2.213   7.896   1.021
42081W        W 7308  36.651  33.354  12.143
42082W        W 7309  17.310   8.920  13.848
42083W        W 7310  24.035  41.583   4.225
42084W        W 7311  11.462   3.216   3.802
42085W        W 7312   9.283  19.444  12.421
42086W        W 7313  42.378   8.390  12.009
42087W        W 7314  20.973  42.498  13.510
42088W        W 7315  28.455  12.275   3.169
42089W        W 7316   4.378   2.699  11.900
42090W        W 7317  23.584  34.076   4.282
42091W        W 7318  39.349  43.330  14.815
42092W        W 7319  34.150  15.410  10.508
42093W        W 7320  10.094  28.817  10.342
42094W        W 7321  14.174  12.744   1.836
42095W        W 7322  21.125  13.314   2.741
42096W        W 7323  10.289  38.065   1.932
42097W        W 7324  19.566  26.595   0.771
42098W        W 7325  15.204  31.341  10.431
42099W        W 7326  16.674  37.996  13.077
42100W        W 7327  28.177   5.684   0.183
42101W        W 7328  25.949  12.704   1.832
42102W        W 7329  36.145  24.461   0.746
42103W        W 7330  22.433  44.019   1.871
42104W        W 7331  13.804   1.961   0.333
42105W        W 7332  44.329  26.478   5.070
42106W        W 7333   9.799   6.480  11.998
42107W        W 7334   2.481  37.585  14.538
42108W        W 7335  15.171   1.740  13.883
42109W        W 7336  12.437  11.840   1.671
42110W        W 7337  43.410  25.213  10.739
42111W        W 7338  18.772  24.568   3.077
42112W        W 7339  12.084  14.244   4.074
42113W        W 7340  23.715  26.529  11.148
42114W        W 7341  42.328  19.799   1.388
42115W        W 7342  31.040  17.354   1.941
42116W        W 7343  18.017  39.503  11.995
42117W        W 7344   4.217  22.563  14.172
42118W        W 7345  18.173  39.836  12.651
42119W        W 7346  24.097  44.938   1.239
42120W        W 7347   4.671  14.475   1.783
42121W        W 7348   2.994   6.688   1.236
42122W        W 7349  12.061  32.047  12.018
42123W        W 7350  26.434  14.820   1.908
42124W        W 7351   9.309  23.812   1.500
42125W        W 7352  31.090  10.422  14.466
42126W        W 7353  35.890  22.644  11.103
42127W        W 7354   0.404  22.785   2.276
42128W        W 7355  17.158  32.435  12.036
42129W        W 7356  22.793  13.585  12.521
42130W        W 7357  37.694  38.832  12.260
42131W        W 7358   5.386   7.823  11.265
42132W        W 7359  15.131  21.162  11.996
42133W        W 7360  32.886   1.623  12.110
42134W        W 7361  23.033   1.457  12.588
42135W        W 7362  30.431  33.344   2.407
42136W        W 7363  38.798  37.815  14.815
42137W        W 7364  39.358  17.539   2.438
42138W        W 7365  41.275  44.119  11.627
42139W        W 7366  17.472   5.092   3.187
42140W        W 7367  12.203   2.697  11.441
42141W        W 7368  13.622  41.030  11.476
42142W        W 7369  20.459   0.210   4.540
42143W        W 7370  44.337   4.496  12.356
42144W        W 7371  12.833   5.383  13.911
42145W        W 7372  21.512   2.103   0.891
42146W        W 7373  20.840   8.291   2.575
42147W        W 7374  10.212   0.517  11.460
42148W        W 7375  41.740  21.360   4.555
42149W        W 7376  27.170  27.933   4.135
42150W        W 7377  33.584  30.527   1.701
42151W        W 7378  21.083  18.408   0.739
42152W        W 7379  17.605  13.135   3.641
42153W        W 7380  30.861  22.167   4.615
42154W        W 7381  31.955  25.513  14.740
42155W        W 7382  23.223  39.665   3.241
42156W        W 7383  28.115  36.276  11.050
42157W        W 7384  10.442  39.201   4.937
42158W        W 7385  21.591  38.362   2.392
42159W        W 7386   8.896   0.771  10.068
42160W        W 7387  13.729  26.380  13.588
42161W        W 7388  41.242  39.844   2.319
42162W        W 7389   6.622  26.990   4.151
42163W        W 7390   7.256  13.122  14.484
42164W        W 7391   6.690  17.075   1.072
42165W        W 7392  38.488  35.857   4.466
42166W        W 7393  30.084   8.451  13.888
42167W        W 7394  36.625  21.157  11.338
42168W        W 7395  43.264  16.347  14.057
42169W        W 7396  27.961   5.566   3.481
42170W        W 7397   0.649   1.783   0.832
42171W        W 7398  21.653   3.271   2.659
42172W        W 7399  32.512  42.301   4.290
42173W        W 7400  19.834  31.185   4.931
42174W        W 7401  28.938   4.201   3.565
42175W        W 7402   9.739   5.755  10.705
42176W        W 7403   0.363  41.029  10.860
42177W        W 7404  43.347  22.141   3.987
42178W        W 7405  35.028  35.450  12.018
42179W        W 7406  24.588  44.079   1.978
42180W        W 7407   1.720   1.374   4.239
42181W        W 7408  40.775  43.220  12.586
42182W        W 7409   4.345  19.594   0.005
42183W        W 7410  28.190  25.557  13.693
42184W        W 7411  30.826   8.376  10.445
42185W        W 7412  21.008  10.267   3.655
42186W        W 7413  10.161  15.052  11.086
42187W        W 7414   8.404  36.994  12.855
42188W        W 7415  25.779  19.176  14.343
42189W        W 7416  30.938  31.371   0.037
42190W        W 7417  26.550  34.997   4.148
42191W        W 7418  13.593  18.631  11.151
42192W        W 7419  21.796  19.615  14.502
42193W        W 7420   4.915  10.604  13.337
42194W        W 7421  39.617  10.647  14.754
42195W        W 7422  37.496   5.132  12.417
42196W        W 7423  14.654  22.204   1.925
42197W        W 7424  39.498  37.823  13.516
42198W        W 7425  44.944  44.216   1.902
42199W        W 7426  11.140  27.024  12.443
42200W        W 7427  30.671  38.136  12.543
42201W        W 7428  23.522  18.080  10.721
42202W        W 7429   2.911  35.346  13.491
42203W        W 7430  33.380   2.460   4.083
42204W        W 7431   8.203  42.066   3.793
42205W        W 7432   0.866   0.799   4.112
42206W        W 7433   3.832   4.341   2.379
42207W        W 7434   6.531  34.556   4.467
42208W        W 7435  27.418  20.124  10.679
42209W        W 7436  19.784  16.226   2.609
42210W        W 7437   9.124  15.833  10.764
42211W        W 7438  41.918  30.406   3.571
42212W        W 7439   5.739  17.058   3.065
42213W        W 7440  17.597   2.790   3.911
42214W        W 7441  27.013  42.115  11.654
42215W        W 7442   6.673  36.354   1.301
42216W        W 7443  44.917  24.472  10.653
42217W        W 7444  33.701   9.748   2.806
42218W        W 7445  11.633  11.691  14.502
42219W        W 7446  33.803  35.027  11.565
42220W        W 7447  43.260  32.007   1.269
42221W        W 7448   5.868  18.261  14.372
42222W        W 7449  19.102  20.048  14.227
42223W        W 7450  35.817  32.086  14.470
42224W        W 7451  26.983  35.305   1.800
42225W        W 7452   9.620  27.912  14.714
42226W        W 7453  30.870  41.908  12.805
42227W        W 7454  29.111  33.324   2.994
42228W        W 7455   9.389  43.893  10.942
42229W        W 7456  11.340  27.946  13.292
42230W        W 7457  37.069  16.739   0.745
42231W        W 7458  27.946  12.856  10.515
42232W        W 7459  43.214  11.131   1.346
42233W        W 7460   7.868   5.766  12.011
42234W        W 7461  10.903  16.246  10.569
42235W        W 7462   1.937  34.565   0.963
42236W        W 7463  29.553  36.417   4.124
42237W        W 7464  43.864  30.370   1.191
42238W        W 7465  14.814  36.790  11.107
42239W        W 7466  29.086  31.318  10.818
42240W        W 7467  39.012  17.993   4.147
42241W        W 7468  25.047  15.528   4.952
42242W        W 7469  28.095  22.648   4.475
42243W        W 7470  31.061  29.950   4.364
42244W        W 7471  32.791   7.333  13.353
42245W        W 7472   6.139  27.481   3.772
42246W        W 7473  35.941   2.396   2.041
42247W        W 7474  13.875  15.482  13.045
42248W        W 7475  41.795   4.278  12.431
42249W        W 7476  34.663   8.355   3.563
42250W        W 7477   3.354  17.632   1.354
42251W        W 7478  10.289   6.278  13.973
42252W        W 7479   0.750  38.265   0.823
42253W        W 7480  17.244   0.287  12.562
42254W        W 7481  22.575   3.040   1.206
42255W        W 7482   5.890   0.961  13.380
42256W        W 7483  13.218  43.691   2.932
42257W        W 7484  33.029  35.457  11.084
42258W        W 7485  15.077   6.853  11.639
42259W        W 7486  27.059  34.821  13.887
42260W        W 7487  14.215  14.597  11.200
42261W        W 7488   5.277   4.481   3.310
42262W        W 7489  25.055  23.501  12.021
42263W        W 7490  18.095  35.911  14.640
42264W        W 7491  21.538  29.197  11.434
42265W        W 7492  22.186   3.290   2.835
42266W        W 7493  41.017  15.321  14.479
42267W        W 7494  25.778  39.953   0.497
42268W        W 7495  31.324  23.337   2.263
42269W        W 7496  13.085  17.545  10.759
42270W        W 7497  17.159  15.051   2.259
42271W        W 7498  14.108   6.589  14.309
42272W        W 7499  11.234  28.296  14.815
42273W        W 7500  15.921  34.566   2.775
42274W        W 7501  14.603  19.584  14.356
42275W        W 7502  24.094  11.249  14.314
42276W        W 7503  12.740  37.569  13.014
42277W        W 7504  19.465  22.952   1.283
42278W        W 7505  24.045  41.616  13.557
42279W        W 7506  26.933   6.801  14.781
42280W        W 7507  29.484  29.366  12.389
42281W        W 7508  35.112  38.305   0.543
42282W        W 7509   3.344  30.700  12.643
42283W        W 7510   4.837  39.557  14.402
42284W        W 7511  42.394  26.095   3.698
42285W        W 7512  25.951  31.692   1.896
42286W        W 7513  30.451  36.336   2.198
42287W        W 7514   9.124  41.846   0.387
42288W        W 7515   4.916  29.976   9.994
42289W        W 7516  12.061  18.233   1.703
42290W        W 7517  42.700  16.172  14.360
42291W        W 7518   3.329  28.652   4.576
42292W        W 7519  20.612  10.093   0.897
42293W        W 7520  35.144  37.843  12.893
42294W        W 7521  14.198  23.165  10.638
42295W        W 7522  32.418  16.607   3.168
42296W        W 7523   8.489  14.554  12.417
42297W        W 7524  37.540   9.746   0.869
42298W        W 7525  35.520   7.561  10.406
42299W        W 7526  11.879  33.114   3.663
42300W        W 7527  20.755  28.379  10.742
42301W        W 7528  19.600  21.148   4.156
42302W        W 7529  14.033   0.976   0.694
42303W        W 7530   2.659   0.322  11.700
42304W        W 7531  16.773  12.576  11.923
42305W        W 7532   5.140  15.733  11.983
42306W        W 7533  26.476  37.412  14.490
42307W        W 7534   8.678  33.053  14.002
42308W        W 7535   8.378   6.317  11.841
42309W        W 7536   4.660  25.802   2.159
42310W        W 7537  17.005   3.015  10.400
42311W        W 7538  36.053  20.239  12.070
42312W        W 7539  42.752  35.975  10.900
42313W        W 7540   2.329  19.603   4.334
42314W        W 7541  15.704  41.575  12.889
42315W        W 7542   6.180  30.369  12.810
42316W        W 7543  32.626  39.676   2.321
42317W        W 7544  32.835  21.034   4.593
42318W        W 7545  40.059  24.090   0.231
42319W        W 7546  35.957  23.720  14.578
42320W        W 7547  39.724  32.659   4.235
42321W        W 7548  20.579  24.949   1.939
42322W        W 7549  24.698  23.587  10.776
42323W        W 7550  35.116  35.948  11.851
42324W        W 7551   2.973  37.544   2.146
42325W        W 7552  20.470  34.975  12.475
42326W        W 7553  25.761  39.120   3.577
42327W        W 7554  23.964  11.580  11.111
42328W        W 7555  37.997  22.469  14.921
42329W        W 7556  20.786   0.419  10.107
42330W        W 7557  32.130  28.763   1.197
42331W        W 7558  40.010  10.841  13.795
42332W        W 7559   3.692  14.578   4.053
42333W        W 7560  21.880  14.170  14.190
42334W        W 7561  18.902  18.649  11.652
42335W        W 7562   4.154  25.885   2.349
42336W        W 7563  10.802  30.937  13.579
42337W        W 7564  30.010   1.767  13.937
42338W        W 7565  44.748  16.624   0.831
42339W        W 7566  24.551  30.160  13.363
42340W        W 7567  16.227  27.028  13.811
42341W        W 7568  31.367  33.958   1.797
42342W        W 7569  22.543  18.292   2.816
42343W        W 7570  30.522  10.966   0.894
42344W        W 7571  34.097   1.245   2.654
42345W        W 7572   0.368  32.422   3.626
42346W        W 7573  30.204  12.116   0.891
42347W        W 7574  34.042  37.058  11.588
42348W        W 7575  11.283  15.991  11.798
42349W        W 7576   5.142  20.625   3.104
42350W        W 7577   5.914  14.139   2.202
42351W        W 7578  29.378  31.907   4.212
42352W        W 7579  36.772  10.729  14.193
42353W        W 7580  32.648  35.691  14.343
42354W        W 7581   9.973  33.533   4.753
42355W        W 7582  12.672   8.559   1.379
42356W        W 7583  11.359   1.779   2.837
42357W        W 7584  33.596  14.002   3.291
42358W        W 7585  20.166  13.101  11.959
42359W        W 7586  10.290  31.097   1.192
42360W        W 7587   2.981  26.588  13.307
42361W        W 7588  21.536   6.143  10.293
42362W        W 7589   0.078   1.462   2.744
42363W        W 7590  33.673  19.632   2.807
42364W        W 7591  38.427  10.600   3.658
42365W        W 7592  38.935  10.207   1.820
42366W        W 7593  44.011  14.189   4.117
42367W        W 7594  31.143  13.334  11.662
42368W        W 7595  44.877  15.080   3.687
42369W        W 7596  10.185  26.054  12.237
42370W        W 7597   8.052  24.096  13.366
42371W        W 7598  26.079  19.247   2.277
42372W        W 7599   5.801   9.637   3.695
42373W        W 7600  32.383  16.573  14.908
42374W        W 7601  36.334  12.139   2.832
42375W        W 7602   9.351  43.373  10.687
42376W        W 7603  19.643  22.002   4.718
42377W        W 7604  33.605  28.143   4.514
42378W        W 7605   8.640   3.018   3.188
42379W        W 7606  28.176  33.165  12.365
42380W        W 7607  37.714   0.832   5.151
42381W        W 7608   2.033  30.416   1.873
42382W        W 7609  25.179  25.313  13.028
42383W        W 7610   7.428  19.147  10.527
42384W        W 7611  10.339  29.497  14.807
42385W        W 7612  11.710  14.398   3.269
42386W        W 7613   2.192  21.529  12.538
42387W        W 7614  11.907  13.114   0.133
42388W        W 7615   8.349   5.704   4.492
42389W        W 7616   8.457  11.305  11.435
42390W        W 7617  28.129  21.062   0.338
42391W        W 7618  10.849  28.265  13.643
42392W        W 7619  41.595   5.501  12.859
42393W        W 7620  26.735  34.039   3.249
42394W        W 7621  21.721  30.017   4.560
42395W        W 7622  39.853  23.792  14.779
42396W        W 7623  27.692   4.790   4.420
42397W        W 7624  38.089  42.918   1.510
42398W        W 7625  17.438   0.276   4.747
42399W        W 7626  10.019  41.522  14.028
42400W        W 7627   0.375  30.722  14.025
42401W        W 7628  32.074  43.212  12.543
42402W        W 7629  11.139  10.111  12.433
42403W        W 7630  21.558  16.191   1.328
42404W        W 7631  12.099   6.656   3.374
42405W        W 7632  17.149  31.404  10.771
42406W        W 7633  19.260  11.324  12.181
42407W        W 7634   0.094   8.811   4.309
42408W        W 7635  15.586   1.800   9.952
42409W        W 7636  21.511  44.029  14.842
42410W        W 7637  33.892  34.827   1.189
42411W        W 7638  29.628   6.159   3.872
42412W        W 7639  12.554  38.237   2.112
42413W        W 7640   1.236  16.894  14.119
42414W        W 7641  10.750  11.790   4.905
42415W        W 7642  13.547  33.568  14.405
42416W        W 7643  13.986   2.259  12.916
42417W        W 7644  33.291  10.747  12.394
42418W        W 7645  29.277  44.406  11.952
42419W        W 7646  42.050  23.270   1.293
42420W        W 7647   7.353   6.440  11.642
42421W        W 7648  41.294  12.239  13.552
42422W        W 7649  38.237  20.720   4.276
42423W        W 7650  19.719  41.755   4.208
42424W        W 7651  39.614  31.080  12.509
42425W        W 7652  41.788  18.780  14.793
42426W        W 7653   0.231  30.118  12.507
42427W        W 7654  16.660  18.801   3.095
42428W        W 7655  11.308  31.536  11.147
42429W        W 7656  14.632  34.861  11.224
42430W        W 7657   1.990  35.639   2.379
42431W        W 7658   9.749  12.242   0.447
42432W        W 7659  32.477  11.705  12.555
42433W        W 7660  37.682  18.242   5.104
42434W        W 7661  20.526   5.352   4.714
42435W        W 7662  14.085  35.809  13.900
42436W        W 7663   4.421  29.546   1.908
42437W        W 7664  43.928  38.125   4.848
42438W        W 7665  11.664  41.230  12.619
42439W        W 7666  13.819  41.976  11.586
42440W        W 7667  26.142  35.781   1.169
42441W        W 7668  19.716   6.980   0.801
42442W        W 7669   7.720   9.789   0.449
42443W        W 7670  30.807   9.635   0.891
42444W        W 7671   7.457  30.999  14.983
42445W        W 7672  43.865  26.004  14.837
42446W        W 7673  20.633  11.677   3.708
42447W        W 7674  25.657  10.164   2.695
42448W        W 7675  26.543  43.629   2.600
42449W        W 7676  19.502  28.973   4.059
42450W        W 7677  34.774  17.712   2.605
42451W        W 7678  29.943  23.983   2.663
42452W        W 7679  24.725  39.621  13.772
42453W        W 7680   0.442   6.238  14.298
42454W        W 7681  39.455  23.514   3.989
42455W        W 7682  40.421  23.009   0.756
42456W        W 7683  28.471  27.213   1.318
42457W        W 7684   7.631  13.007  10.267
42458W        W 7685  44.011  37.054   4.427
42459W        W 7686  30.874   9.150  12.576
42460W        W 7687  35.239  40.909   0.325
42461W        W 7688   1.855  22.642   4.094
42462W        W 7689  41.471  12.747   2.295
42463W        W 7690  30.263   3.166   1.398
42464W        W 7691  37.794  35.474  12.528
42465W        W 7692   2.221  30.543   1.394
42466W        W 7693  15.027  33.493  13.240
42467W        W 7694   3.938  13.977   3.263
42468W        W 7695  33.396   5.797   2.109
42469W        W 7696  12.207   2.407  12.933
42470W        W 7697   9.214  30.426  13.405
42471W        W 7698  21.153   2.116  14.851
42472W        W 7699  20.090  15.824  10.781
42473W        W 7700   0.032  42.059  11.606
42474W        W 7701  33.953  18.664  14.040
42475W        W 7702  20.006  20.807   3.823
42476W        W 7703  25.722  13.530  13.145
42477W        W 7704  24.358   5.389  14.429
42478W        W 7705  37.123  15.145  12.832
42479W        W 7706   6.737  11.134   4.188
42480W        W 7707  40.791  40.425   2.204
42481W        W 7708  17.628  20.699   0.782
42482W        W 7709  34.168  37.605  11.667
42483W        W 7710  41.036   5.364   0.692
42484W        W 7711  40.935  34.512   0.926
42485W        W 7712  25.685  35.749   1.877
42486W        W 7713  10.257  42.692   3.188
42487W        W 7714  13.981  23.762  12.071
42488W        W 7715  40.883  17.126   4.575
42489W        W 7716  28.997  34.150  12.518
42490W        W 7717  28.693   9.230   1.856
42491W        W 7718  16.608   4.296   1.797
42492W        W 7719  17.919   6.754  13.567
42493W        W 7720  31.773  12.745   1.472
42494W        W 7721  19.054   1.145   3.098
42495W        W 7722   3.473  15.279   2.183
42496W        W 7723  24.251  42.956  13.468
42497W        W 7724  15.566  27.288  13.088
42498W        W 7725   7.922   6.654  13.519
42499W        W 7726  42.569  13.341   3.623
42500W        W 7727  24.000  14.074   1.703
42501W        W 7728  36.337  18.607  14.353
42502W        W 7729  31.738  36.117   2.771
42503W        W 7730  31.534  26.706  11.857
42504W        W 7731  42.675   4.175  13.505
42505W        W 7732  11.762  31.221  10.614
42506W        W 7733  41.626  32.605  13.931
42507W        W 7734  23.682  15.640   1.284
42508W        W 7735  42.429   0.164  11.141
42509W        W 7736  12.269  14.511  11.960
42510W        W 7737  12.429  37.534  14.989
42511W        W 7738  44.109  17.977   1.714
42512W        W 7739  32.597  22.671   0.060
42513W        W 7740  26.599  34.762   1.008
42514W        W 7741  34.080  40.112  13.907
42515W        W 7742  38.661   2.741  10.822
42516W        W 7743  16.598   7.813   1.839
42517W        W 7744  16.136  14.119  13.768
42518W        W 7745  19.939   8.218   2.139
42519W        W 7746   8.545  16.677  11.681
42520W        W 7747  40.068  44.386  11.177
42521W        W 7748  10.148  26.225   3.792
42522W        W 7749  12.406  42.798  11.161
42523W        W 7750  31.187  43.906  14.324
42524W        W 7751  17.650  31.561  13.974
42525W        W 7752  22.686  10.889   3.833
42526W        W 7753  44.891   6.929  11.581
42527W        W 7754  15.364  28.249   2.208
42528W        W 7755  34.414  41.789  11.240
42529W        W 7756  39.360  28.152  13.924
42530W        W 7757  34.505  17.136  12.667
42531W        W 7758   8.340  22.314  13.696
42532W        W 7759  20.981  42.874  13.875
42533W        W 7760  15.897  44.829   0.661
42534W        W 7761  10.905  29.892  12.365
42535W        W 7762  29.447  12.758  12.759
42536W        W 7763  23.811  23.700   2.588
42537W        W 7764  34.447  39.966   3.362
42538W        W 7765  36.578  38.871   4.725
42539W        W 7766  40.266   7.676   3.456
42540W        W 7767  38.317  28.527   2.838
42541W        W 7768  32.350  35.540  13.455
42542W        W 7769  39.283  37.034  10.456
42543W        W 7770  31.347   2.599  14.275
42544W        W 7771   3.487  27.941  10.182
42545W        W 7772  35.224  19.272  10.904
42546W        W 7773  17.611   8.225   3.737
42547W        W 7774   0.833   3.064   1.241
42548W        W 7775   4.482  10.102  14.853
42549W        W 7776  11.615  35.503   1.378
42550W        W 7777   0.773   3.744  14.973
42551W        W 7778  43.224  15.238   1.401
42552W        W 7779  11.367  24.162  13.846
42553W        W 7780  44.307  26.834   1.295
42554W        W 7781  20.728  39.033  12.596
42555W        W 7782  25.474  32.967   2.709
42556W        W 7783  27.936  20.233   4.635
42557W        W 7784   3.441  11.841   3.274
42558W        W 7785  20.140  16.526   2.307
42559W        W 7786  11.214   5.326   1.170
42560W        W 7787  12.076  29.067  13.866
42561W        W 7788  34.046  28.961   4.055
42562W        W 7789   6.292  23.684   4.644
42563W        W 7790  21.227  25.083  11.565
42564W        W 7791  15.764   7.734   4.330
42565W        W 7792  34.599  12.000  12.893
42566W        W 7793  39.600  11.567  14.849
42567W        W 7794  15.311  34.481  13.998
42568W        W 7795   5.877   4.406   1.299
42569W        W 7796  36.851  24.453   2.728
42570W        W 7797  33.872   1.977   2.544
42571W        W 7798  34.597  11.574  14.344
42572W        W 7799  43.440   2.662  13.943
42573W        W 7800  18.071  19.011   3.256
42574W        W 7801  44.549  17.684  13.951
42575W        W 7802  31.720  20.570  14.507
42576W        W 7803  27.960  11.413   2.960
42577W        W 7804   6.853   2.059   3.802
42578W        W 7805  41.430  22.716  14.848
42579W        W 7806  13.588  26.825  13.373
42580W        W 7807  14.914  36.167  14.401
42581W        W 7808  25.204  21.751  12.499
42582W        W 7809  14.242  42.000  14.847
42583W        W 7810   0.497  22.563  13.202
42584W        W 7811  25.582  27.192   0.423
42585W        W 7812   4.967  17.624  14.831
42586W        W 7813  22.796  44.517   0.772
42587W        W 7814  14.640   6.749  14.429
42588W        W 7815  41.536  42.614   4.337
42589W        W 7816  21.692  23.502  10.490
42590W        W 7817   6.529   9.209   2.370
42591W        W 7818  38.370  22.093   2.985
42592W        W 7819   5.249  42.210  12.645
42593W        W 7820  11.046  28.443   4.089
42594W        W 7821  35.672  11.637   2.217
42595W        W 7822  17.640  20.773   2.575
42596W        W 7823  13.753  38.782  13.522
42597W        W 7824  22.478  16.721   3.124
42598W        W 7825  26.980  32.362  13.001
42599W        W 7826  17.111  29.435  10.505
42600W        W 7827   7.756  31.945   0.729
42601W        W 7828   4.038  32.694   0.021
42602W        W 7829  39.004  28.547  12.868
42603W        W 7830  32.322   7.935  11.233
42604W        W 7831   5.708  26.123  11.740
42605W        W 7832  27.644  32.099  13.911
42606W        W 7833  39.801  10.684  13.347
42607W        W 7834  38.775  27.042  10.473
42608W        W 7835  43.876  12.880   4.048
42609W        W 7836  29.921   3.828   4.679
42610W        W 7837   0.854   2.736  14.644
42611W        W 7838  34.047   4.868  11.493
42612W        W 7839  22.693  22.967   0.222
42613W        W 7840  26.140   7.879  10.986
42614W        W 7841  27.626  21.130   0.011
42615W        W 7842   4.270  37.935   0.269
42616W        W 7843  36.981  31.323   4.578
42617W        W 7844   5.840  43.772   4.818
42618W        W 7845   9.726  26.305  14.953
42619W        W 7846   8.881  23.637  12.987
42620W        W 7847  16.661  39.901   1.475
42621W        W 7848  10.908  11.207  12.016
42622W        W 7849  32.111   0.287   2.130
42623W        W 7850  37.126  33.261   4.583
42624W        W 7851  13.322   7.840   3.285
42625W        W 7852  30.173  23.592   3.101
42626W        W 7853   1.485  15.599   1.871
42627W        W 7854  20.659   3.275  12.160
42628W        W 7855  38.560  23.563   3.109
42629W        W 7856  42.360  29.619  11.210
42630W        W 7857   7.654  17.359  10.650
42631W        W 7858  25.777   9.191  13.068
42632W        W 7859  19.819  44.406  11.040
42633W        W 7860  38.832   1.260  14.016
42634W        W 7861  30.536  26.897  13.911
42635W        W 7862   2.767  41.127  11.374
42636W        W 7863  37.420  24.409   0.487
42637W        W 7864   0.961  36.362   3.673
42638W        W 7865  29.345  12.241   2.041
42639W        W 7866  38.531   3.522   0.926
42640W        W 7867  44.197  23.114   3.682
42641W        W 7868  24.292   6.203  11.627
42642W        W 7869  29.060  26.647   0.343
42643W        W 7870  15.321  11.930  12.936
42644W        W 7871  33.610   1.342   3.784
42645W        W 7872  34.450  29.395   1.297
42646W        W 7873   6.433  42.026   3.260
42647W        W 7874  25.449  18.346  14.725
42648W        W 7875  42.692  30.675   0.651
42649W        W 7876  30.499  44.339   4.487
42650W        W 7877  22.820  12.786   1.935
42651W        W 7878   1.409  24.625  10.861
42652W        W 7879  40.353  27.226  13.558
42653W        W 7880  16.900  10.234  10.371
42654W        W 7881  41.604  35.994  12.181
42655W        W 7882  12.496   8.384   5.084
42656W        W 7883  32.049  42.104   0.675
42657W        W 7884  21.814  20.957  12.635
42658W        W 7885  44.575  33.152   1.934
42659W        W 7886   6.496  35.127   1.111
42660W        W 7887  10.148  38.971   3.247
42661W        W 7888  31.120  30.444   4.658
42662W        W 7889   9.619   0.274   3.805
42663W        W 7890   1.896   3.922  13.090
42664W        W 7891  11.143  20.679  12.260
42665W        W 7892  39.952  24.445  13.965
42666W        W 7893  17.694   6.504   2.782
42667W        W 7894   6.675  22.123  10.527
42668W        W 7895  11.039  29.136  11.893
42669W        W 7896  18.299  29.261   3.019
42670W        W 7897  32.360  10.709   3.069
42671W        W 7898  17.737  34.090   1.747
42672W        W 7899  25.260  33.938  11.461
42673W        W 7900  29.961   6.848   3.976
42674W        W 7901  15.301   7.700   4.575
42675W        W 7902   5.895  26.467  14.626
42676W        W 7903  33.024   3.415   1.089
42677W        W 7904  42.300  22.173  11.374
42678W        W 7905   5.304  37.366  11.420
42679W        W 7906  20.358  33.851  12.865
42680W        W 7907  30.834   3.952  14.830
42681W        W 7908  20.624  40.413  12.679
42682W        W 7909  36.371  26.033   0.612
42683W        W 7910  33.373  15.600  13.661
42684W        W 7911  43.795  27.610  14.038
42685W        W 7912  37.443  39.535  13.849
42686W        W 7913  11.749  36.646   3.255
42687W        W 7914  34.874  32.443  11.613
42688W        W 7915  12.233  28.219   2.079
42689W        W 7916  22.694  15.955   4.555
42690W        W 7917  43.234  35.709  11.716
42691W        W 7918  11.881   6.450   0.460
42692W        W 7919  18.745  11.225   4.819
42693W        W 7920  25.443  13.588   0.462
42694W        W 7921  21.811  20.064  12.540
42695W        W 7922  35.850  20.741   3.281
42696W        W 7923   1.752  32.270  12.715
42697W        W 7924  27.326  16.259   2.708
42698W        W 7925   8.469   1.587  14.413
42699W        W 7926  23.738  44.921  14.106
42700W        W 7927  12.221  37.842  14.562
42701W        W 7928   4.438  44.454   0.855
42702W        W 7929  21.060   5.508   0.669
42703W        W 7930   5.370   4.262  10.719
42704W        W 7931  22.208   2.932  12.791
42705W        W 7932  10.881  29.790   1.256
42706W        W 7933  11.801  16.323   1.521
42707W        W 7934   2.718   3.773   4.665
42708W        W 7935   6.347  32.800  10.511
42709W        W 7936  10.682  44.410   4.644
42710W        W 7937   3.789   4.887  12.039
42711W        W 7938  12.473  43.552  14.015
42712W        W 7939   2.862  44.860   4.984
42713W        W 7940   9.729  38.126   3.125
42714W        W 7941   0.794  11.809  12.566
42715W        W 7942  23.086  35.545   3.732
42716W        W 7943  21.047   5.097   0.957
42717W        W 7944   9.354   5.388  11.711
42718W        W 7945  26.148  41.181  12.012
42719W        W 7946  41.479   4.069   1.993
42720W        W 7947  44.374  10.277   2.253
42721W        W 7948  39.365  12.190   1.966
42722W        W 7949   7.937   8.353   2.740
42723W        W 7950  29.454  32.203  12.022
42724W        W 7951  32.061   5.842   1.509
42725W        W 7952  21.578   6.768  10.854
42726W        W 7953  14.992  28.550   4.046
42727W        W 7954   7.916   3.455  12.637
42728W        W 7955   7.213  18.725   4.615
42729W        W 7956   0.342  25.038   4.078
42730W        W 7957  14.812  28.456   0.834
42731W        W 7958   7.097   2.240   1.690
42732W        W 7959   4.334  39.997  12.188
42733W        W 7960  13.775  13.363  12.003
42734W        W 7961  16.038   2.938  11.420
42735W        W 7962   9.219  40.558  12.209
42736W        W 7963  11.232  44.726   2.692
42737W        W 7964  17.403   5.396  13.555
42738W        W 7965  16.418   9.743   0.105
42739W        W 7966  41.073  40.798  12.081
42740W        W 7967  22.353  39.941  12.850
42741W        W 7968  18.745  22.674   1.808
42742W        W 7969  23.128   6.656   2.610
42743W        W 7970   6.390  36.669  12.953
42744W        W 7971  26.621  14.934  12.675
42745W        W 7972  33.624  15.072  10.715
42746W        W 7973  37.590  37.048   5.216
42747W        W 7974  27.586  44.055  10.563
42748W        W 7975   1.211  24.159   1.874
42749W        W 7976  42.931   3.995  12.012
42750W        W 7977  18.741  33.314   3.594
42751W        W 7978  31.415   9.261  13.953
42752W        W 7979  41.002  41.382  13.326
42753W        W 7980  15.784  14.691  14.389
42754W        W 7981  21.099   2.897  14.442
42755W        W 7982  18.917  17.665   0.600
42756W        W 7983  26.254  33.859  11.590
42757W        W 7984  15.559  25.461  14.067
42758W        W 7985  10.439   7.921  14.831
42759W        W 7986   4.006   0.657  14.866
42760W        W 7987   4.994  29.246   3.868
42761W        W 7988  27.025  14.056  13.911
42762W        W 7989  31.088   3.361  12.840
42763W        W 7990   4.927   1.371  14.071
42764W        W 7991  16.331  32.848   0.701
42765W        W 7992  13.310  42.528   1.147
42766W        W 7993  17.781  18.719  12.033
42767W        W 7994  23.568  43.930   0.757
42768W        W 7995  37.191  26.420  11.867
42769W        W 7996  19.264  19.009   2.263
42770W        W 7997  32.393  44.527   1.749
42771W        W 7998  11.306  25.978  10.737
42772W        W 7999  24.600  11.918   2.791
42773W        W 8000  11.096  43.956   1.294
42774W        W 8001   7.489  19.839   3.762
42775W        W 8002  37.454  14.888   3.126
42776W        W 8003  41.282  18.835   1.476
42777W        W 8004  39.054   2.744   5.101
42778W        W 8005   1.421  29.142   1.821
42779W        W 8006  16.153  23.995   4.653
42780W        W 8007  10.196  42.841  11.693
42781W        W 8008  22.790  25.604  14.858
42782W        W 8009  36.077  34.964  12.473
42783W        W 8010  20.211  14.692   0.402
42784W        W 8011  21.455  16.760   4.735
42785W        W 8012  35.305   5.218   0.654
42786W        W 8013  15.819  14.211  12.153
42787W        W 8014   2.631   4.456   2.762
42788W        W 8015  27.302  23.791   1.715
42789W        W 8016  37.120  36.955  11.556
42790W        W 8017   0.437  21.546   1.325
42791W        W 8018   7.304   3.435  14.019
42792W        W 8019   8.608  20.530   2.071
42793W        W 8020   4.476  24.671  10.560
42794W        W 8021  30.633  21.426   3.792
42795W        W 8022  15.754  11.912  12.500
42796W        W 8023  20.789  15.046  14.872
42797W        W 8024  29.172  16.275   3.620
42798W        W 8025  17.923  40.421   2.376
42799W        W 8026  27.232  35.029   3.434
42800W        W 8027  43.881  39.565  12.590
42801W        W 8028  21.713  17.331  10.481
42802W        W 8029  19.274   6.429   1.407
42803W        W 8030   2.258   1.431   3.199
42804W        W 8031  31.514  36.388  14.332
42805W        W 8032  34.342  39.510   3.560
42806W        W 8033  15.835  37.633   3.670
42807W        W 8034  43.288  14.110   0.474
42808W        W 8035  29.591  23.810  10.141
42809W        W 8036  14.247  12.253   4.612
42810W        W 8037  11.245  22.573  14.228
42811W        W 8038  34.555  32.148  13.096
42812W        W 8039  11.244   1.202  10.624
42813W        W 8040  37.517  18.039  12.890
42814W        W 8041   2.991  36.105  13.139
42815W        W 8042   6.712  27.328   2.932
42816W        W 8043  42.679   6.656   5.001
42817W        W 8044  40.217  39.813  12.638
42818W        W 8045   2.652  11.618  14.229
42819W        W 8046  24.107  10.888   4.081
42820W        W 8047   8.782  31.984   1.540
42821W        W 8048  26.982   3.993   3.588
42822W        W 8049  18.472  39.595   0.851
42823W        W 8050  44.934  14.306  14.393
42824W        W 8051  19.372   3.113   3.622
42825W        W 8052  20.296   7.683  14.546
42826W        W 8053   4.660  16.184  12.213
42827W        W 8054  27.211  21.519   0.237
42828W        W 8055  27.204  24.581   1.932
42829W        W 8056  22.643  32.958  11.869
42830W        W 8057  24.923   7.450   3.930
42831W        W 8058   1.451   6.799  14.417
42832W        W 8059  18.684  25.058  12.823
42833W        W 8060  38.246  35.600  13.408
42834W        W 8061  11.172  40.047  12.993
42835W        W 8062  20.877  25.744  11.906
42836W        W 8063  25.017  30.398  14.556
42837W        W 8064   3.735   8.732   2.218
42838W        W 8065  25.926  21.550   3.229
42839W        W 8066   4.755  13.789  14.589
42840W        W 8067  20.354  15.089   4.167
42841W        W 8068  23.061  41.439   0.706
42842W        W 8069  35.342  34.029  11.134
42843W        W 8070  39.797  15.833   3.252
42844W        W 8071  18.621   5.184  10.280
42845W        W 8072  29.963  14.813   0.419
42846W        W 8073   0.670  16.658   0.560
42847W        W 8074  20.734  40.948  11.959
42848W        W 8075   2.003   6.666   2.261
42849W        W 8076  40.769  35.091   0.432
42850W        W 8077  36.165  37.888  13.732
42851W        W 8078  15.196  38.024  13.756
42852W        W 8079   9.261  25.670  13.560
42853W        W 8080  22.396  18.837  14.649
42854W        W 8081  31.149   8.471  13.101
42855W        W 8082  21.418  39.699   3.986
42856W        W 8083  15.859  13.767  14.318
42857W        W 8084  17.085   2.879   3.868
42858W        W 8085  24.648   4.642   1.343
42859W        W 8086   6.262  17.106   2.257
42860W        W 8087  27.054  23.208   0.365
42861W        W 8088  30.107  42.392   3.319
42862W        W 8089  22.299  10.655  12.131
42863W        W 8090  23.437  16.461   1.579
42864W        W 8091  40.555  13.081  13.232
42865W        W 8092  35.067   1.627   3.231
42866W        W 8093  25.537  23.000  12.592
42867W        W 8094  30.669   7.224   2.743
42868W        W 8095   0.809  23.371   5.346
42869W        W 8096  10.036  22.272  13.983
42870W        W 8097  26.450   0.730   5.682
42871W        W 8098  43.105  13.363  14.697
42872W        W 8099   5.346   5.290  10.778
42873W        W 8100  13.708  19.201   1.169
42874W        W 8101  27.887  25.983   0.354
42875W        W 8102  19.540  28.775   4.623
42876W        W 8103  38.173  13.245  11.079
42877W        W 8104  30.684  43.091   3.449
42878W        W 8105  16.804  16.214  13.540
42879W        W 8106   0.862  34.715   3.308
42880W        W 8107  15.718  27.849   3.083
42881W        W 8108  22.456  40.690   4.158
42882W        W 8109  44.940  16.102  14.860
42883W        W 8110  40.249  15.151  11.413
42884W        W 8111  32.521   4.209   1.979
42885W        W 8112   6.346  43.262   1.772
42886W        W 8113   6.773  18.566   1.039
42887W        W 8114  40.351   2.132   0.833
42888W        W 8115  37.134  35.963  13.859
42889W        W 8116  18.856  29.992   0.407
42890W        W 8117  11.365  11.569   2.843
42891W        W 8118  26.689   6.720   0.356
42892W        W 8119   3.298  26.449   3.295
42893W        W 8120  25.038  36.554  11.748
42894W        W 8121  23.195  10.784  11.841
42895W        W 8122  18.551  37.345  11.473
42896W        W 8123   1.758  10.675   3.635
42897W        W 8124  31.849   2.815   3.164
42898W        W 8125  33.540  19.518  13.899
42899W        W 8126  41.976   5.664   1.918
42900W        W 8127  26.674  21.527  11.362
42901W        W 8128  35.928  13.593  14.850
42902W        W 8129  18.306  12.856   4.150
42903W        W 8130  44.179  44.360   4.209
42904W        W 8131  14.699  29.304   0.908
42905W        W 8132  16.302  20.018  14.818
42906W        W 8133  44.230  16.093  13.466
42907W        W 8134  43.171   7.266   1.331
42908W        W 8135   5.379  41.004   1.150
42909W        W 8136   7.468  28.402   2.763
42910W        W 8137  37.901  14.987   2.686
42911W        W 8138   6.261   2.214  11.075
42912W        W 8139  16.604  15.726  11.007
42913W        W 8140  42.767   1.964   2.845
42914W        W 8141  39.958  18.267  13.069
42915W        W 8142   6.747   8.462  12.959
42916W        W 8143   9.867  38.075  14.934
42917W        W 8144  23.908  36.982   1.480
42918W        W 8145   8.428  18.286  14.847
42919W        W 8146  42.026  33.039  10.909
42920W        W 8147  43.836   2.994   1.794
42921W        W 8148  33.899  23.792   1.635
42922W        W 8149  32.223  20.637  14.448
42923W        W 8150  12.166  40.090   3.382
42924W        W 8151  34.411  34.992   1.946
42925W        W 8152  32.888  19.002   1.433
42926W        W 8153   8.622  33.689   2.215
42927W        W 8154   9.914  11.304  13.586
42928W        W 8155   6.367   4.190   0.287
42929W        W 8156   3.184  39.597  13.515
42930W        W 8157  23.943  35.596   0.753
42931W        W 8158   7.854  34.054   0.183
42932W        W 8159  21.587  41.963   2.240
42933W        W 8160  17.887  17.994   0.299
42934W        W 8161   0.929  33.528  13.564
42935W        W 8162  31.540  43.983   3.885
42936W        W 8163  42.944  21.702  12.915
42937W        W 8164  12.780  39.429  10.574
42938W        W 8165   5.744   4.467   2.194
42939W        W 8166  28.862  40.832   0.950
42940W        W 8167  14.839  23.543  14.040
42941W        W 8168  16.216  27.168   3.546
42942W        W 8169  12.671  41.376   2.423
42943W        W 8170  12.616  32.392  11.275
42944W        W 8171  27.952   2.951   2.369
42945W        W 8172  24.946  21.634   0.918
42946W        W 8173  42.391  19.527   0.353
42947W        W 8174  24.719  16.352  13.402
42948W        W 8175  27.555   2.678   2.165
42949W        W 8176  39.507  18.020  14.316
42950W        W 8177  21.075   9.962  10.184
42951W        W 8178   8.357   2.946  11.987
42952W        W 8179  10.741  28.173  10.727
42953W        W 8180  17.762  36.562   1.608
42954W        W 8181  31.341  37.059  13.015
42955W        W 8182  29.016  36.606   9.910
42956W        W 8183  15.185  10.090  10.622
42957W        W 8184  16.220   2.941   1.247
42958W        W 8185  19.054  30.761  14.887
42959W        W 8186  20.058   8.889   0.306
42960W        W 8187  38.066   1.793   0.378
42961W        W 8188   9.488  41.062   0.952
42962W        W 8189  40.094  44.832   4.078
42963W        W 8190   8.953  35.766   2.676
42964W        W 8191  37.504  37.479   3.698
42965W        W 8192  31.407  35.098  12.575
42966W        W 8193  21.249   6.317  12.994
42967W        W 8194  37.762   9.746   2.379
42968W        W 8195  28.999   8.388   4.615
42969W        W 8196  11.450  14.475   4.939
42970W        W 8197  41.942  28.569  11.990
42971W        W 8198  13.134   6.763   2.653
42972W        W 8199  41.045  12.754  13.300
42973W        W 8200  13.386  17.867   2.711
42974W        W 8201  27.449  24.176   1.411
42975W        W 8202  29.424  31.715  14.940
42976W        W 8203  11.770  39.111   0.870
42977W        W 8204  20.971   9.091   4.085
42978W        W 8205  12.762  36.817   0.261
42979W        W 8206  27.578  35.996  13.146
42980W        W 8207  15.621  16.777  10.570
42981W        W 8208  10.171  38.467   0.131
42982W        W 8209  36.602   1.253  11.927
42983W        W 8210  20.859  26.057  13.082
42984W        W 8211   7.439   3.825   1.338
42985W        W 8212  33.441  35.519  11.370
42986W        W 8213  32.424  19.848  12.023
42987W        W 8214  28.463  44.293   2.316
42988W        W 8215  12.540   6.378  13.063
42989W        W 8216  11.157  12.291   1.153
42990W        W 8217  31.556  22.452   0.917
42991W        W 8218   6.146  15.571  13.930
42992W        W 8219  39.346  39.094   0.436
42993W        W 8220  28.493  43.920  13.865
42994W        W 8221   7.374  44.486  10.965
42995W        W 8222  32.666  20.239  11.696
42996W        W 8223   5.348  43.116   4.115
42997W        W 8224   7.240  29.638  14.361
42998W        W 8225   6.606  16.606  11.089
42999W        W 8226  16.889  26.165   2.437
43000W        W 8227  14.724   8.377  12.451
43001W        W 8228  12.578  42.387   4.137
43002W        W 8229  37.457  13.089   4.120
43003W        W 8230   0.730  29.178  11.181
43004W        W 8231  44.842  44.067  10.152
43005W        W 8232   9.203  31.678   1.398
43006W        W 8233  25.978  10.497   0.834
43007W        W 8234  24.392  28.664   1.764
43008W        W 8235  24.176  21.868   3.335
43009W        W 8236  10.712  10.304   1.946
43010W        W 8237  34.873   3.518   0.202
43011W        W 8238   2.999   6.763  11.439
43012W        W 8239  31.435  11.438   0.790
43013W        W 8240  30.656  23.037  12.683
43014W        W 8241  26.528  31.584  14.357
43015W        W 8242   4.655  12.458  14.647
43016W        W 8243  15.362  31.557  12.336
43017W        W 8244  23.956  11.140   3.645
43018W        W 8245   4.016  28.606  13.865
43019W        W 8246   1.340  11.159  10.732
43020W        W 8247  35.053   8.821  11.627
43021W        W 8248  39.166  17.086   4.176
43022W        W 8249  25.773  23.820  12.321
43023W        W 8250  41.818  10.724  13.035
43024W        W 8251   3.977  16.560  14.599
43025W        W 8252  16.671  15.830   0.284
43026W        W 8253   9.638  40.722  12.467
43027W        W 8254   4.270   8.565   3.686
43028W        W 8255  28.030  27.317  14.083
43029W        W 8256  36.755  15.301  13.820
43030W        W 8257  42.415  28.099  13.510
43031W        W 8258  17.668  31.437  14.981
43032W        W 8259  15.548   8.154  13.786
43033W        W 8260  38.439  21.008  10.474
43034W        W 8261  29.474  33.131  14.487
43035W        W 8262  18.739   9.786   3.666
43036W        W 8263  27.435  37.047   4.936
43037W        W 8264  18.978  19.183  14.261
43038W        W 8265  28.204   0.335  14.338
43039W        W 8266  21.991  42.880   4.514
43040W        W 8267  12.712  18.653  11.282
43041W        W 8268   4.432  13.201  11.941
43042W        W 8269  26.696  37.990  12.955
43043W        W 8270  22.444   6.831  14.480
43044W        W 8271  14.907  10.745   2.236
43045W        W 8272  32.568  27.618   3.626
43046W        W 8273  43.197  28.367  12.909
43047W        W 8274   2.074   9.150  13.919
43048W        W 8275  14.642  37.184  11.976
43049W        W 8276  22.993  38.119   1.404
43050W        W 8277  23.616  31.607   2.163
43051W        W 8278  18.379  33.866  12.390
43052W        W 8279  42.839   5.999  13.514
43053W        W 8280  19.909  20.675  11.548
43054W        W 8281  13.571  43.000   1.012
43055W        W 8282  31.012  38.437   1.786
43056W        W 8283  32.401  30.198  13.011
43057W        W 8284  27.400  30.838  13.588
43058W        W 8285  14.243  14.311  10.762
43059W        W 8286  21.975   7.528   1.172
43060W        W 8287   7.035  34.720   4.265
43061W        W 8288  39.629  23.541   3.016
43062W        W 8289  38.395   5.933  14.729
43063W        W 8290  12.133  19.237   1.233
43064W        W 8291   5.928   4.935  14.428
43065W        W 8292   4.792   6.568   2.350
43066W        W 8293  33.995  32.573   3.919
43067W        W 8294  19.707  10.802   1.676
43068W        W 8295  26.068  15.146  11.928
43069W        W 8296  35.158  20.156   1.770
43070W        W 8297  44.682   2.417  11.571
43071W        W 8298  39.226   3.715  13.499
43072W        W 8299  24.039   2.055   4.997
43073W        W 8300  38.438  41.049  13.964
43074W        W 8301  21.307  23.890  10.579
43075W        W 8302  36.432  31.032   1.120
43076W        W 8303  19.582  35.999  11.994
43077W        W 8304  36.207  33.502  14.574
43078W        W 8305  20.064  21.287  12.107
43079W        W 8306  10.409  11.560   3.788
43080W        W 8307  41.236  22.484  14.391
43081W        W 8308  19.388  12.092   2.501
43082W        W 8309  35.499  23.713   4.526
43083W        W 8310   8.916  18.305   0.456
43084W        W 8311   6.506  29.284  14.509
43085W        W 8312  12.941  12.575   3.761
43086W        W 8313   7.652   4.780  11.156
43087W        W 8314   8.693  22.171  12.109
43088W        W 8315  32.940  11.842   3.237
43089W        W 8316  28.929  39.848   2.309
43090W        W 8317  12.688   8.224  13.398
43091W        W 8318  19.117  28.146   0.014
43092W        W 8319  27.185  31.270   3.518
43093W        W 8320  23.599  18.028  13.132
43094W        W 8321  19.059   5.791  10.614
43095W        W 8322   3.024   2.790   2.222
43096W        W 8323  34.832  19.845  10.466
43097W        W 8324  39.423   0.848   4.556
43098W        W 8325   5.898  22.160   4.601
43099W        W 8326  18.284  20.712  14.070
43100W        W 8327  17.589   5.555   1.844
43101W        W 8328  14.360   4.338   1.099
43102W        W 8329  15.142  20.277  13.384
43103W        W 8330  24.321   8.294   2.613
43104W        W 8331   8.652  16.507   0.744
43105W        W 8332  28.425  44.846   4.475
43106W        W 8333  33.702  36.401  10.405
43107W        W 8334  30.237  30.823  13.686
43108W        W 8335  40.949   4.731  11.584
43109W        W 8336  23.735  14.043  11.589
43110W        W 8337   7.255  33.176  12.609
43111W        W 8338  44.042  25.288  13.794
43112W        W 8339   6.869  36.618   3.834
43113W        W 8340   2.347   1.322   4.991
43114W        W 8341  30.541  24.043  12.833
43115W        W 8342  33.402  24.037   1.636
43116W        W 8343  18.052  21.233  11.737
43117W        W 8344  29.560  32.105   1.203
43118W        W 8345   6.876  12.393   1.047
43119W        W 8346  14.948  42.951  13.510
43120W        W 8347  21.023  37.894  12.631
43121W        W 8348  27.394  14.293  11.535
43122W        W 8349  22.560  35.151   4.057
43123W        W 8350   8.362  38.100   2.848
43124W        W 8351  35.414   9.412   2.310
43125W        W 8352   0.521  15.848  14.520
43126W        W 8353  33.400  15.997  12.542
43127W        W 8354  29.031  42.280  11.541
43128W        W 8355   7.507  21.646  10.659
43129W        W 8356  32.405  13.840   0.267
43130W        W 8357  19.161  27.487  12.527
43131W        W 8358  25.082  13.198   3.104
43132W        W 8359  20.516  17.810   3.214
43133W        W 8360  22.331  12.132   3.180
43134W        W 8361  24.511  10.759  13.823
43135W        W 8362  18.876  40.280   0.291
43136W        W 8363  40.586  32.348   0.091
43137W        W 8364  36.032  22.977  12.928
43138W        W 8365  11.908  14.360   2.769
43139W        W 8366  16.925   2.669  14.501
43140W        W 8367  22.126  42.886   0.750
43141W        W 8368  14.732  23.386  11.714
43142W        W 8369   2.354  34.064  14.815
43143W        W 8370  11.947  20.707   1.389
43144W        W 8371  42.559  37.270   3.782
43145W        W 8372  17.709  16.746  11.019
43146W        W 8373   9.891  19.619  13.715
43147W        W 8374  37.634  29.100   1.986
43148W        W 8375  20.621   1.914   4.595
43149W        W 8376   2.454  26.046  10.905
43150W        W 8377   3.217  24.098   0.532
43151W        W 8378  40.516  17.211   0.993
43152W        W 8379   4.928  32.836   3.677
43153W        W 8380  14.949  14.825  12.380
43154W        W 8381  23.561  25.773   0.811
43155W        W 8382  12.541  25.671  12.983
43156W        W 8383   7.201  13.262  13.448
43157W        W 8384  27.646  43.096  12.489
43158W        W 8385  39.595  39.522   3.617
43159W        W 8386  17.392  37.985   1.711
43160W        W 8387  30.084  34.624  10.891
43161W        W 8388  16.673  34.781   1.746
43162W        W 8389  27.526  22.987  12.418
43163W        W 8390  37.578  41.118  11.917
43164W        W 8391   3.900  23.651  12.607
43165W        W 8392  31.577  39.720   5.457
43166W        W 8393  41.219  41.980  13.315
43167W        W 8394   8.450  38.766  14.841
43168W        W 8395  39.891  14.540   2.229
43169W        W 8396  15.646  20.040  10.645
43170W        W 8397  31.931  17.729  14.773
43171W        W 8398  42.531  44.484  13.097
43172W        W 8399  17.407  40.411   2.555
43173W        W 8400   6.829   2.829  13.303
43174W        W 8401   9.648  38.588   3.420
43175W        W 8402  29.962  12.784  14.728
43176W        W 8403  42.331  18.690   0.742
43177W        W 8404   5.024  33.133   4.083
43178W        W 8405  28.972  11.672  10.922
43179W        W 8406   5.715  31.310   0.248
43180W        W 8407  40.488   6.322  10.993
43181W        W 8408  40.869   2.667   4.411
43182W        W 8409  24.025  23.510   2.171
43183W        W 8410  29.078  15.307  10.774
43184W        W 8411  35.948  25.709  12.103
43185W        W 8412  42.006  22.050  14.396
43186W        W 8413  27.376   9.840  11.758
43187W        W 8414  28.183  24.248   4.044
43188W        W 8415  17.736  31.989  14.256
43189W        W 8416  38.310  35.074  13.498
43190W        W 8417  23.634  37.597   4.503
43191W        W 8418  18.711   7.500  11.036
43192W        W 8419  41.239  14.172   1.368
43193W        W 8420  35.998  38.812  11.556
43194W        W 8421   3.727  31.357  11.639
43195W        W 8422   3.169   2.904  13.822
43196W        W 8423  27.983  29.109  11.166
43197W        W 8424   7.638  28.898   2.825
43198W        W 8425  15.241  35.305  13.554
43199W        W 8426   5.452  17.469  14.934
43200W        W 8427   4.367  43.835  11.514
43201W        W 8428   4.968  30.347   0.501
43202W        W 8429   1.766  11.093  14.320
43203W        W 8430  41.786  28.165  14.896
43204W        W 8431  26.632  13.988  11.225
43205W        W 8432  19.181  20.147   4.260
43206W        W 8433   1.273  37.563   2.548
43207W        W 8434  31.153   1.321   1.499
43208W        W 8435   3.503   1.743  14.300
43209W        W 8436  40.864  33.472  11.973
43210W        W 8437  16.497  39.230   3.634
43211W        W 8438  32.514   1.245  10.682
43212W        W 8439  14.373  21.552  10.676
43213W        W 8440  19.742  36.038   2.763
43214W        W 8441  38.088  22.577  10.962
43215W        W 8442   1.793  15.375   3.048
43216W        W 8443  24.232   2.004   1.434
43217W        W 8444  15.795  16.886   2.642
43218W        W 8445  33.171  19.325   2.390
43219W        W 8446  24.903   3.793  14.023
43220W        W 8447   8.114  30.466  14.935
43221W        W 8448  33.400   5.986  11.821
43222W        W 8449   3.933  28.017   2.881
43223W        W 8450  11.627  34.576  14.429
43224W        W 8451  43.462   6.429  14.068
43225W        W 8452  19.110  28.519   2.077
43226W        W 8453  11.188   8.653  12.346
43227W        W 8454   1.683   4.912   1.758
43228W        W 8455  14.967  25.747  13.883
43229W        W 8456  27.269  44.201   4.222
43230W        W 8457  15.503  14.734  13.925
43231W        W 8458   2.680  25.952   3.785
43232W        W 8459  24.333  12.241   3.109
43233W        W 8460  42.782  33.805   2.409
43234W        W 8461   7.365  19.287   0.908
43235W        W 8462  36.954   4.469   2.898
43236W        W 8463  11.544  35.598  10.678
43237W        W 8464  21.947  20.569  12.320
43238W        W 8465  23.456  13.195   2.344
43239W        W 8466  20.663  36.430   2.896
43240W        W 8467  25.954  10.334  10.795
43241W        W 8468  32.429  32.539   4.525
43242W        W 8469   7.207  12.076  14.369
43243W        W 8470  22.522  25.597   4.587
43244W        W 8471  12.902  26.597  10.719
43245W        W 8472  19.734  40.008   2.206
43246W        W 8473  41.658  29.048  14.346
43247W        W 8474  31.721   0.452   3.966
43248W        W 8475  35.978  35.597  14.489
43249W        W 8476  20.775   3.804   2.203
43250W        W 8477   5.702  21.295   1.360
43251W        W 8478   9.434   7.669   3.404
43252W        W 8479  12.878   9.747   2.328
43253W        W 8480  27.240  37.954  12.077
43254W        W 8481  11.789  16.103   2.001
43255W        W 8482  35.397  20.183  13.825
43256W        W 8483  13.496  40.477   1.320
43257W        W 8484  33.407   1.287   0.046
43258W        W 8485  17.813  28.695  14.682
43259W        W 8486  21.293  20.160  14.429
43260W        W 8487  32.537  17.772  11.321
43261W        W 8488  31.692   1.244  11.737
43262W        W 8489  36.813  14.823   0.177
43263W        W 8490  30.609  25.420   5.553
43264W        W 8491  42.983  44.030   0.307
43265W        W 8492  32.462  44.250  11.907
43266W        W 8493  31.120  11.303   2.325
43267W        W 8494  23.713  35.115   0.842
43268W        W 8495  34.657  12.373  13.305
43269W        W 8496  41.863  20.644   1.634
43270W        W 8497  25.052  32.572  14.791
43271W        W 8498  22.178  25.440  14.575
43272W        W 8499   6.237  40.962   2.488
43273W        W 8500  23.240  33.073   3.870
43274W        W 8501  27.561   6.038  12.070
43275W        W 8502  12.326  35.653   4.206
43276W        W 8503  11.750  32.541   2.103
43277W        W 8504  28.250  15.680  13.099
43278W        W 8505  42.441  31.553   3.889
43279W        W 8506  18.673  14.040  11.944
43280W        W 8507  39.545  17.571  12.080
43281W        W 8508  11.752  44.640   4.010
43282W        W 8509  12.583   1.786  13.053
43283W        W 8510  33.407   9.698  12.472
43284W        W 8511   9.559   9.570  12.177
43285W        W 8512  30.116   7.851   4.523
43286W        W 8513  28.256   6.240   1.356
43287W        W 8514  23.201  27.554  12.963
43288W        W 8515  19.409  43.463  14.383
43289W        W 8516   5.932  44.811   2.637
43290W        W 8517  32.939   7.305   2.929
43291W        W 8518   4.973  29.386   0.420
43292W        W 8519   8.165  15.329  14.952
43293W        W 8520   1.544   9.308  12.024
43294W        W 8521  20.592  39.753   1.764
43295W        W 8522  26.888  26.178   1.471
43296W        W 8523  31.763  44.728  14.552
43297W        W 8524   7.851  34.039   1.194
43298W        W 8525  26.157  44.310   1.201
43299W        W 8526  10.161   7.935  12.843
43300W        W 8527  30.534  30.399  10.594
43301W        W 8528  30.256  33.865   4.566
43302W        W 8529  20.724  42.157  14.802
43303W        W 8530  15.575  29.501  11.665
43304W        W 8531  18.841  32.981  12.470
43305W        W 8532  28.602  23.684   0.481
43306W        W 8533  23.725  37.592  10.919
43307W        W 8534   9.829   9.318  10.650
43308W        W 8535  18.993  32.790   2.907
43309W        W 8536   1.420  14.673  13.234
43310W        W 8537   7.000  30.587  12.380
43311W        W 8538   7.977   7.104   0.175
43312W        W 8539  43.512   4.191   1.733
43313W        W 8540  44.987  15.347  14.311
43314W        W 8541  18.026   9.748   3.061
43315W        W 8542  32.584  33.160   0.864
43316W        W 8543   8.470  40.958  12.942
43317W        W 8544  24.074  21.481   1.297
43318W        W 8545  10.911  33.024  13.093
43319W        W 8546  18.125  32.426  11.162
43320W        W 8547   1.060  23.205   0.764
43321W        W 8548  14.104  24.537   2.396
43322W        W 8549  15.238  20.371   2.346
43323W        W 8550   3.664  35.003  13.936
43324W        W 8551  24.452  19.586   3.771
43325W        W 8552  11.336  10.920  11.161
43326W        W 8553  29.891  23.099  14.003
43327W        W 8554  12.752  16.652  12.871
43328W        W 8555  41.505  33.419  14.865
43329W        W 8556  10.485  19.674   3.662
43330W        W 8557  19.203  43.612  13.539
43331W        W 8558   2.715  40.979  14.947
43332W        W 8559  24.477  34.376  11.546
43333W        W 8560   4.141  23.916   0.966
43334W        W 8561  22.122  14.551  10.665
43335W        W 8562  43.696  40.413   1.630
43336W        W 8563  33.364  20.794   0.800
43337W        W 8564  31.426   0.422   4.938
43338W        W 8565  36.910  28.836  14.355
43339W        W 8566  39.450  40.334   1.722
43340W        W 8567  14.140   2.992  11.502
43341W        W 8568  42.063  29.726  12.524
43342W        W 8569   2.156   2.046   1.291
43343W        W 8570  15.894  34.215   9.658
43344W        W 8571  34.833  30.012  10.561
43345W        W 8572  38.501  24.113   3.138
43346W        W 8573  34.009   0.910  13.639
43347W        W 8574  30.488  36.866   2.192
43348W        W 8575   7.760   7.351   1.701
43349W        W 8576  24.030  35.560  12.942
43350W        W 8577  43.957   6.159   3.741
43351W        W 8578  31.304  34.693  10.963
43352W        W 8579  43.061  20.385   2.839
43353W        W 8580  38.982  36.369   4.151
43354W        W 8581  31.795  31.537   1.225
43355W        W 8582  39.327   4.238  11.179
43356W        W 8583  41.316   0.204   0.286
43357W        W 8584  25.268   8.368  12.080
43358W        W 8585   0.330  31.252  14.094
43359W        W 8586   2.892  39.987   3.273
43360W        W 8587  36.085  37.276  10.621
43361W        W 8588  42.696  19.091  12.514
43362W        W 8589  25.245  35.170   4.140
43363W        W 8590  27.097  17.821   4.651
43364W        W 8591  37.799  18.351  12.115
43365W        W 8592  11.893  43.446   3.283
43366W        W 8593  41.073   9.313   3.011
43367W        W 8594  30.597  16.267   0.704
43368W        W 8595  38.036  15.706  14.937
43369W        W 8596  36.462  43.488   0.718
43370W        W 8597  21.044  27.612  11.756
43371W        W 8598  34.983   9.626   3.204
43372W        W 8599  24.243   4.523  11.043
43373W        W 8600  42.028  22.308   1.026
43374W        W 8601  29.146  25.798  11.613
43375W        W 8602  12.275  33.145  12.790
43376W        W 8603  32.742  26.389  11.683
43377W        W 8604   9.020  29.180   3.160
43378W        W 8605   4.205  11.361   0.453
43379W        W 8606   9.086  29.611   0.847
43380W        W 8607  22.566  36.418   4.570
43381W        W 8608  30.562   5.879   1.682
43382W        W 8609  30.558  29.923   2.161
43383W        W 8610  34.368  35.205  13.926
43384W        W 8611   4.446  43.965   0.763
43385W        W 8612  38.078  34.818   1.787
43386W        W 8613  12.707  24.019   1.413
43387W        W 8614   3.348  15.645  13.787
43388W        W 8615  33.847   2.733  11.168
43389W        W 8616  33.479  41.330   1.260
43390W        W 8617   3.000   9.152   2.215
43391W        W 8618  18.304  10.850  12.439
43392W        W 8619  19.068  32.923  14.782
43393W        W 8620  39.339  28.741  14.611
43394W        W 8621  33.873  41.133  11.667
43395W        W 8622  41.580  27.594  14.935
43396W        W 8623  13.946  39.307   0.022
43397W        W 8624  25.113  42.548  13.354
43398W        W 8625  17.354  43.426  10.002
43399W        W 8626  36.491  10.721   4.606
43400W        W 8627  12.908  22.151   0.647
43401W        W 8628  44.197   4.658   4.976
43402W        W 8629  16.961   8.546   1.360
43403W        W 8630   1.996  36.614  13.457
43404W        W 8631  40.450  43.089  14.350
43405W        W 8632  41.388  22.805   4.507
43406W        W 8633   6.538  41.331   5.309
43407W        W 8634   8.434  11.109   4.275
43408W        W 8635  30.595  22.848   5.098
43409W        W 8636   7.423  12.386   3.579
43410W        W 8637  35.239  22.206  12.345
43411W        W 8638  13.594  34.377  13.189
43412W        W 8639  30.737  42.481   4.194
43413W        W 8640  24.474   7.852   1.465
43414W        W 8641  23.450  19.535   3.279
43415W        W 8642   4.965  27.200  11.597
43416W        W 8643   9.410  36.497  10.747
43417W        W 8644  28.689  41.934   0.312
43418W        W 8645  15.633  35.109  11.990
43419W        W 8646  12.762  10.691   3.388
43420W        W 8647  10.414   3.757   1.897
43421W        W 8648   0.514  33.474  14.980
43422W        W 8649  14.061  28.969  14.844
43423W        W 8650  36.512  38.025   1.814
43424W        W 8651  42.111  32.415  13.916
43425W        W 8652   3.759  29.918   4.361
43426W        W 8653  44.176  20.054  12.370
43427W        W 8654  15.291  21.517  10.156
43428W        W 8655  26.731   9.313  12.756
43429W        W 8656   5.385   7.890  12.593
43430W        W 8657  33.586  41.840  11.984
43431W        W 8658   2.864  30.401  11.066
43432W        W 8659  20.230  18.721  10.546
43433W        W 8660   0.950   2.103  13.809
43434W        W 8661  28.697  26.966   0.788
43435W        W 8662  18.510  30.924  12.882
43436W        W 8663  13.589  16.604  14.845
43437W        W 8664  39.546  14.412  12.530
43438W        W 8665  35.112  35.176   3.298
43439W        W 8666   6.990  33.777   4.169
43440W        W 8667  30.708  43.265   1.943
43441W        W 8668  20.314   4.057  14.552
43442W        W 8669  22.180  17.954  12.968
43443W        W 8670  35.499  40.280   4.416
43444W        W 8671   4.798  29.685   0.021
43445W        W 8672  33.889  33.938  11.134
43446W        W 8673  30.478  40.486  13.382
43447W        W 8674  44.235  41.154  11.665
43448W        W 8675  22.243  20.384  14.375
43449W        W 8676  28.594  41.243  11.980
43450W        W 8677  10.822  21.776  11.476
43451W        W 8678  37.149  14.759  13.168
43452W        W 8679  31.352   7.906   0.752
43453W        W 8680  36.490  24.498  14.046
43454W        W 8681   2.736   9.230   4.164
43455W        W 8682  28.421  29.176  13.087
43456W        W 8683  20.441  31.982  14.146
43457W        W 8684  19.285   6.859  10.810
43458W        W 8685  25.082   6.916  11.896
43459W        W 8686  34.454  12.822  12.618
43460W        W 8687   0.321  25.967  12.686
43461W        W 8688  20.776  25.618   0.915
43462W        W 8689   7.381  38.795   0.933
43463W        W 8690  35.619   5.869  13.028
43464W        W 8691  25.437  44.806   1.658
43465W        W 8692  43.998   0.886  11.400
43466W        W 8693  32.012  25.458   4.625
43467W        W 8694  12.129  14.928  12.921
43468W        W 8695  24.327  11.720  13.575
43469W        W 8696  14.263  15.153  12.100
43470W        W 8697  19.100   3.317   0.147
43471W        W 8698  31.950  18.875   0.006
43472W        W 8699  14.678  35.038   3.331
43473W        W 8700  18.234  35.423  14.823
43474W        W 8701  33.113   0.428  14.528
43475W        W 8702  35.276  40.580  14.496
43476W        W 8703  26.417  25.419   1.262
43477W        W 8704  26.668  41.309  12.020
43478W        W 8705  35.938  41.303   0.045
43479W        W 8706  29.928  25.094   3.251
43480W        W 8707   9.842  42.271   1.860
43481W        W 8708  21.815  26.497   3.527
43482W        W 8709   6.232   5.409  13.526
43483W        W 8710  23.987  34.790   2.900
43484W        W 8711  17.743  39.449  11.065
43485W        W 8712  44.036  13.763   1.341
43486W        W 8713  38.352   1.395  11.665
43487W        W 8714  16.997  36.157   0.580
43488W        W 8715  24.917  44.242   2.777
43489W        W 8716   9.685   8.526   2.192
43490W        W 8717  27.816  12.842   3.317
43491W        W 8718  33.773  30.499   3.746
43492W        W 8719  42.956  41.012   0.376
43493W        W 8720  11.260  18.501   2.248
43494W        W 8721   0.865  26.005  11.893
43495W        W 8722  18.630  28.435  11.999
43496W        W 8723  32.054   9.342  12.384
43497W        W 8724  35.814   2.020  10.721
43498W        W 8725  14.567  31.199  14.796
43499W        W 8726  10.393  38.751   2.846
43500W        W 8727   8.234  11.170   1.646
43501W        W 8728  41.319   6.170   0.284
43502W        W 8729  27.851  11.715  12.107
43503W        W 8730  18.131  17.689  12.795
43504W        W 8731  24.230  28.012  12.524
43505W        W 8732  41.128  24.164  13.224
43506W        W 8733  32.731  20.715  14.372
43507W        W 8734  20.744  31.993   0.867
43508W        W 8735   4.791  26.206   4.512
43509W        W 8736   0.865  41.324   4.191
43510W        W 8737  16.367  11.877   9.917
43511W        W 8738   2.461  41.017   1.702
43512W        W 8739   3.944  43.783  12.160
43513W        W 8740  15.838  17.253  12.931
43514W        W 8741  14.563  34.173  11.836
43515W        W 8742  10.215   6.806   3.380
43516W        W 8743  35.726  42.839  13.406
43517W        W 8744  19.254  18.117  13.294
43518W        W 8745  16.252  18.451  11.071
43519W        W 8746  13.748  10.262   4.604
43520W        W 8747  21.005   7.925   4.668
43521W        W 8748  33.099  31.055   1.361
43522W        W 8749  22.035  37.648   4.548
43523W        W 8750  35.816  32.266  10.616
43524W        W 8751  37.492   5.206  13.566
43525W        W 8752  42.995   7.614  14.210
43526W        W 8753  12.719  33.154  14.555
43527W        W 8754  19.522   7.740  12.128
43528W        W 8755  41.732   8.228   1.239
43529W        W 8756  37.095   4.721  14.421
43530W        W 8757   0.855   0.841  12.288
43531W        W 8758  16.788  30.962   4.118
43532W        W 8759   2.302  38.992   0.810
43533W        W 8760  12.034  23.947  11.920
43534W        W 8761  42.941  39.164  13.694
43535W        W 8762  23.276   7.285   4.177
43536W        W 8763  11.996  22.803  13.223
43537W        W 8764  10.545  26.931  14.918
43538W        W 8765  11.607  20.818  13.019
43539W        W 8766  42.710   9.206  13.824
43540W        W 8767  44.458   6.180  13.831
43541W        W 8768  23.505   8.725  13.018
43542W        W 8769  29.373  13.485   3.031
43543W        W 8770  38.873   4.432   0.279
43544W        W 8771  24.161  30.329  14.733
43545W        W 8772  21.612  25.924   2.321
43546W        W 8773   2.786   6.833  10.500
43547W        W 8774  42.555  43.749   0.171
43548W        W 8775   2.469  12.023  11.501
43549W        W 8776  21.002  26.081   0.929
43550W        W 8777  36.473   3.822  11.020
43551W        W 8778   6.428  33.031  13.770
43552W        W 8779   4.230  36.481  12.507
43553W        W 8780  11.193  38.865   0.994
43554W        W 8781  27.048  25.886   4.591
43555W        W 8782  41.054  16.273  12.859
43556W        W 8783  44.981   9.684  14.375
43557W        W 8784  25.566  23.234  14.942
43558W        W 8785  39.564  25.022   3.525
43559W        W 8786  27.036   6.300   3.195
43560W        W 8787  31.316   0.823  11.878
43561W        W 8788  33.586  17.818   1.940
43562W        W 8789  22.189  37.401  10.622
43563W        W 8790   4.481  16.642   4.142
43564W        W 8791  43.421  24.491  11.076
43565W        W 8792  26.501  33.357  10.805
43566W        W 8793  44.864   2.339  14.134
43567W        W 8794  42.548   2.490  13.868
43568W        W 8795  26.188   2.396   0.930
43569W        W 8796  13.742  39.004   2.223
43570W        W 8797  43.068  34.017  12.891
43571W        W 8798   3.596  11.731   2.711
43572W        W 8799  22.099   5.760   2.333
43573W        W 8800  17.309   1.694  10.866
43574W        W 8801  26.437  21.743   0.725
43575W        W 8802  40.589   5.258  12.964
43576W        W 8803  39.720  43.527   3.989
43577W        W 8804  27.519  12.862  10.190
43578W        W 8805  10.129  22.422  11.045
43579W        W 8806  22.485  40.860   4.656
43580W        W 8807  30.582  11.574   5.416
43581W        W 8808  19.064  25.942   2.750
43582W        W 8809  20.303  39.019  12.914
43583W        W 8810  38.906  26.233   1.293
43584W        W 8811  43.137  26.102  14.095
43585W        W 8812  11.756   0.879  14.101
43586W        W 8813  43.124   4.134  14.972
43587W        W 8814  15.652  17.242   2.988
43588W        W 8815  41.233  26.544   4.029
43589W        W 8816  32.187  42.786   2.425
43590W        W 8817  25.588  11.936   1.530
43591W        W 8818   9.634  25.206   1.186
43592W        W 8819  19.515  43.812   0.724
43593W        W 8820  33.431  18.158   4.343
43594W        W 8821  23.573  19.868   1.420
43595W        W 8822  29.861   2.266  13.524
43596W        W 8823  15.148  20.985  11.526
43597W        W 8824  21.986   3.995   2.857
43598W        W 8825  25.034  30.443   2.436
43599W        W 8826  17.894   4.311  12.455
43600W        W 8827   2.715  43.373   1.734
43601W        W 8828   9.278  36.341  14.490
43602W        W 8829  17.306  34.175   2.162
43603W        W 8830  29.916  24.064   5.251
43604W        W 8831  41.381  23.484   0.739
43605W        W 8832   9.681  34.800  11.479
43606W        W 8833  36.605  22.824   2.233
43607W        W 8834  11.675  22.788   4.210
43608W        W 8835  23.343  23.760  12.031
43609W        W 8836  14.763  36.718   2.795
43610W        W 8837  29.479  34.053   1.632
43611W        W 8838  23.881  33.429  10.725
43612W        W 8839   6.956   9.861  11.721
43613W        W 8840  24.943  29.141   4.088
43614W        W 8841  21.873  22.293  14.581
43615W        W 8842   4.993   8.306  11.553
43616W        W 8843  22.363  25.277  14.080
43617W        W 8844   7.696  40.014   4.504
43618W        W 8845   3.536  19.454  14.781
43619W        W 8846   7.064   7.524  11.240
43620W        W 8847   3.013  24.992  12.846
43621W        W 8848  42.250  41.393   2.064
43622W        W 8849  29.046   2.601  13.349
43623W        W 8850  41.317   1.696  13.459
43624W        W 8851  24.697   3.296   2.010
43625W        W 8852   5.899  41.680   4.096
43626W        W 8853  31.173  29.226  12.019
43627W        W 8854   3.690  33.455   1.944
43628W        W 8855  19.104  42.191  12.401
43629W        W 8856  39.516   9.136   0.407
43630W        W 8857  17.302  25.753  13.009
43631W        W 8858   8.929  37.844  12.838
43632W        W 8859  31.319  18.204  12.436
43633W        W 8860  11.119   5.776  10.767
43634W        W 8861  34.410  39.977  11.659
43635W        W 8862   5.146  12.994  11.289
43636W        W 8863  21.154   7.335  13.865
43637W        W 8864  42.797  21.817  12.013
43638W        W 8865  36.072   5.466  13.820
43639W        W 8866  32.935  10.154  12.812
43640W        W 8867   6.587   2.210  13.799
43641W        W 8868   6.683  30.158   2.893
43642W        W 8869   2.409  12.619  14.908
43643W        W 8870  43.850  16.013   3.227
43644W        W 8871  35.387  36.091   1.777
43645W        W 8872  12.176  40.642  10.848
43646W        W 8873  23.801  30.917  11.152
43647W        W 8874   4.701   3.707  14.762
43648W        W 8875  14.250  12.281   0.879
43649W        W 8876  40.543  22.538  11.598
43650W        W 8877  25.668  32.622  12.912
43651W        W 8878  32.447  42.057  11.217
43652W        W 8879  35.033  40.960  14.240
43653W        W 8880  25.014  35.431   2.377
43654W        W 8881  27.072  13.890  14.787
43655W        W 8882  11.845  14.885   3.188
43656W        W 8883  25.981  28.556  12.416
43657W        W 8884   1.780  11.641  13.480
43658W        W 8885  33.374   2.211  12.024
43659W        W 8886  21.101  20.242  10.741
43660W        W 8887  21.991   3.417  14.383
43661W        W 8888  12.549  26.163  12.822
43662W        W 8889  26.072  32.596  11.073
43663W        W 8890  15.668   8.426   0.755
43664W        W 8891  24.599  37.482   3.256
43665W        W 8892  23.019  20.550  13.952
43666W        W 8893   9.115  24.708  12.875
43667W        W 8894  36.881  25.609  10.894
43668W        W 8895  40.027  15.416   0.554
43669W        W 8896  43.462  42.486   2.964
43670W        W 8897  43.807   3.693  11.590
43671W        W 8898  30.058  24.499  10.764
43672W        W 8899  33.266   6.766  11.163
43673W        W 8900  18.505  23.093  11.137
43674W        W 8901  34.407  16.699  14.932
43675W        W 8902  17.768  35.022   4.144
43676W        W 8903  23.686  18.646   1.043
43677W        W 8904  22.939  20.224   4.174
43678W        W 8905   1.193  37.314   3.839
43679W        W 8906  19.045   9.434   0.972
43680W        W 8907  41.120  28.229  13.561
43681W        W 8908  34.117  36.452   3.421
43682W        W 8909   1.022  23.693  12.877
43683W        W 8910   0.664  21.123  12.441
43684W        W 8911  24.568  38.822   0.822
43685W        W 8912  20.053  29.082   3.805
43686W        W 8913  11.787  32.124  14.381
43687W        W 8914  35.615  14.791   4.128
43688W        W 8915  14.888  38.525  10.501
43689W        W 8916  29.222  13.138   2.205
43690W        W 8917  15.659   7.359  14.119
43691W        W 8918  10.325  27.912   5.145
43692W        W 8919  36.057  20.157  12.588
43693W        W 8920   7.822   4.024   2.122
43694W        W 8921   6.315   0.435  14.968
43695W        W 8922   6.577  33.474   3.267
43696W        W 8923  17.639  23.594  10.616
43697W        W 8924  11.482   3.813   4.436
43698W        W 8925   4.319  33.802   4.280
43699W        W 8926  41.234  17.185   1.778
43700W        W 8927  30.648  27.658  12.579
43701W        W 8928  10.819  25.924  13.999
43702W        W 8929  39.936  29.876  12.655
43703W        W 8930  26.894  33.938  13.101
43704W        W 8931  32.018  41.067   1.849
43705W        W 8932  35.605  12.049  12.744
43706W        W 8933   2.607  24.128  14.311
43707W        W 8934  33.333  14.310   0.869
43708W        W 8935   3.983  10.879  10.865
43709W        W 8936  27.360  17.632   3.230
43710W        W 8937  16.661  39.685   3.855
43711W        W 8938  25.400   8.711   1.259
43712W        W 8939  21.719  44.517  14.897
43713W        W 8940  23.228   8.147   3.205
43714W        W 8941  36.548   8.283   2.327
43715W        W 8942  40.016   1.322   4.378
43716W        W 8943  37.340  32.994   2.253
43717W        W 8944   5.730  16.126   2.244
43718W        W 8945   5.817  20.971   2.232
43719W        W 8946  21.668  12.147   3.778
43720W        W 8947  25.546  30.792  12.100
43721W        W 8948  35.536  14.702  13.245
43722W        W 8949  12.283  38.472  13.116
43723W        W 8950  27.117  30.975  13.997
43724W        W 8951  18.513  42.391   3.593
43725W        W 8952  17.538  26.001   3.795
43726W        W 8953  38.749  42.478   2.789
43727W        W 8954  27.719  25.179   2.821
43728W        W 8955  38.461  12.007  11.018
43729W        W 8956  36.166  22.677   9.842
43730W        W 8957  21.659  13.157   4.693
43731W        W 8958   5.358  27.413  13.450
43732W        W 8959  36.368  18.533  14.873
43733W        W 8960   0.474  42.948  14.220
43734W        W 8961  19.688  29.644   3.357
43735W        W 8962  14.394  19.623   3.657
43736W        W 8963  24.983  43.447   2.050
43737W        W 8964   3.073  20.665   5.035
43738W        W 8965   4.183   0.426  13.565
43739W        W 8966   7.354  44.042   1.704
43740W        W 8967  30.106   9.794  10.662
43741W        W 8968  16.933   9.840   2.008
43742W        W 8969  16.830  16.146  10.774
43743W        W 8970   0.755  10.430  13.803
43744W        W 8971  34.362  33.123  11.170
43745W        W 8972  16.531  40.363   4.324
43746W        W 8973  31.127   9.727  10.444
43747W        W 8974   1.788  44.724  14.570
43748W        W 8975  16.388  16.592  12.274
43749W        W 8976  43.188  26.919  13.592
43750W        W 8977  15.093  42.794   1.989
43751W        W 8978   6.911  28.854   1.401
43752W        W 8979  14.450   6.091  13.422
43753W        W 8980  43.012  36.996   2.328
43754W        W 8981  27.945  12.897   5.051
43755W        W 8982  38.262  31.108   3.340
43756W        W 8983  10.172   8.558   1.008
43757W        W 8984  31.939  11.463   0.470
43758W        W 8985  20.113   3.953   1.997
43759W        W 8986  17.050  35.281   1.717
43760W        W 8987  24.824  14.533   4.070
43761W        W 8988  34.570  33.472   2.683
43762W        W 8989  10.356  32.960   2.284
43763W        W 8990  38.011  38.014  12.168
43764W        W 8991  19.315  17.241  13.100
43765W        W 8992  15.342  28.550  14.883
43766W        W 8993  30.083   1.296  14.956
43767W        W 8994  33.905   6.339   0.162
43768W        W 8995   2.499  32.098   0.574
43769W        W 8996  24.666  32.600  13.030
43770W        W 8997   8.307  38.620   1.226
43771W        W 8998  36.501  42.784  14.359
43772W        W 8999  33.106  39.320   2.380
43773W        W 9000  37.568  23.606   2.721
43774W        W 9001  29.710   8.219   0.736
43775W        W 9002   7.872  38.049  13.964
43776W        W 9003   6.736  19.628   0.302
43777W        W 9004  30.884   5.102   1.967
43778W        W 9005  38.332  17.364   1.417
43779W        W 9006  43.286  31.637   2.882
43780W        W 9007  11.021  29.215   2.353
43781W        W 9008   0.784   0.351  14.827
43782W        W 9009  33.900  17.135  11.968
43783W        W 9010  22.006  35.810   4.107
43784W        W 9011  38.985  18.472   3.963
43785W        W 9012  30.759   0.333   3.721
43786W        W 9013   3.532  22.230   3.657
43787W        W 9014  40.473   6.224  14.260
43788W        W 9015  39.047  33.356  11.635
43789W        W 9016  25.077   4.166   3.646
43790W        W 9017  17.161   0.422   0.782
43791W        W 9018  43.826  19.213   2.391
43792W        W 9019  44.902  11.095  13.290
43793W        W 9020  29.973  38.674   3.260
43794W        W 9021  30.539  22.454  11.039
43795W        W 9022  19.144  22.791  11.583
43796W        W 9023   4.537   0.613  12.713
43797W        W 9024  27.159  11.085  12.339
43798W        W 9025  39.659  35.811   1.832
43799W        W 9026  24.093  12.267   0.276
43800W        W 9027   8.658  18.127   1.298
43801W        W 9028  17.604  42.073  11.519
43802W        W 9029  40.007  41.528  10.794
43803W        W 9030  26.503  40.031   2.815
43804W        W 9031  39.892  21.301  14.327
43805W        W 9032  44.804  15.611  13.040
43806W        W 9033   7.811   1.741  13.326
43807W        W 9034  13.646  43.927   1.211
43808W        W 9035  23.818  17.692  13.843
43809W        W 9036   3.777   3.619  12.617
43810W        W 9037  30.233  17.033  13.192
43811W        W 9038  43.533  40.415   0.261
43812W        W 9039  17.347  32.369  14.309
43813W        W 9040  25.797  43.972   0.973
43814W        W 9041  28.565  37.467  13.061
43815W        W 9042  20.641  19.004  14.306
43816W        W 9043   0.813   3.341  12.096
43817W        W 9044  36.468  42.920   2.862
43818W        W 9045  18.711  17.750  14.784
43819W        W 9046  43.409  37.528   3.772
43820W        W 9047  20.715  40.097  11.603
43821W        W 9048  30.248  42.063   2.333
43822W        W 9049   0.860  19.196  13.491
43823W        W 9050  20.773   1.657   0.432
43824W        W 9051   4.010   3.427   0.812
43825W        W 9052  26.905  17.969   1.678
43826W        W 9053  31.868  31.046   2.678
43827W        W 9054  31.436   6.788   0.327
43828W        W 9055  15.534  41.517  14.733
43829W        W 9056   8.961   2.345  14.458
43830W        W 9057  23.057  12.676   3.630
43831W        W 9058   4.176  20.960  12.362
43832W        W 9059  29.037  39.004   4.106
43833W        W 9060  31.839  32.561  13.806
43834W        W 9061  28.426  39.011   0.949
43835W        W 9062  30.978  10.152  14.916
43836W        W 9063   5.137  34.557  11.486
43837W        W 9064  11.151  13.132   2.704
43838W        W 9065  24.386  24.366   0.923
43839W        W 9066  35.195  20.089  14.957
43840W        W 9067  35.177   7.396   0.869
43841W        W 9068  20.587   3.488   9.837
43842W        W 9069  18.943  22.832  12.064
43843W        W 9070  10.245  22.784   0.289
43844W        W 9071  21.541  37.621  12.090
43845W        W 9072  12.328  18.669  13.600
43846W        W 9073  24.665   8.984   1.611
43847W        W 9074  42.912  18.405  14.927
43848W        W 9075  28.130  19.478  14.479
43849W        W 9076  29.905  17.189  14.068
43850W        W 9077  37.817   2.330   4.212
43851W        W 9078  39.593  24.177  14.997
43852W        W 9079   4.471  19.621   2.100
43853W        W 9080   1.498  38.804  13.113
43854W        W 9081   0.989  22.826   2.842
43855W        W 9082  27.646   3.072  12.473
43856W        W 9083  22.042  36.840   0.387
43857W        W 9084  25.462   0.842   1.199
43858W        W 9085  17.121   9.470   4.120
43859W        W 9086  23.108  13.334   1.284
43860W        W 9087   3.644  13.311   1.156
43861W        W 9088  30.615  14.876  14.390
43862W        W 9089  20.021  30.819   4.603
43863W        W 9090  43.935  14.501   2.366
43864W        W 9091  19.724  37.048   1.487
43865W        W 9092  17.708  10.634   1.198
43866W        W 9093  28.925  25.663   0.272
43867W        W 9094  29.324  11.367  11.649
43868W        W 9095  20.277  31.910   2.837
43869W        W 9096  38.823   4.798  12.189
43870W        W 9097  30.087  42.476   1.466
43871W        W 9098   2.979  23.830  10.840
43872W        W 9099  44.433   5.309  10.413
43873W        W 9100  22.634  15.805   4.076
43874W        W 9101  43.520  36.505  12.504
43875W        W 9102  42.607  35.054  14.555
43876W        W 9103  13.211  14.225   0.622
43877W        W 9104  28.976  27.929  14.883
43878W        W 9105   9.367   3.580   2.677
43879W        W 9106  21.200  12.713   1.439
43880W        W 9107  33.432   3.269   4.678
43881W        W 9108  27.681  12.279   4.133
43882W        W 9109  14.044  44.165   2.461
43883W        W 9110  12.295  23.044   1.404
43884W        W 9111  42.810  43.770   2.281
43885W        W 9112  33.354   5.438  11.207
43886W        W 9113   8.958  21.282  12.430
43887W        W 9114  19.087  39.328   3.666
43888W        W 9115  18.077  38.386  12.915
43889W        W 9116  34.484  32.050  14.484
43890W        W 9117  33.593   1.970   1.273
43891W        W 9118  27.630  23.511  13.863
43892W        W 9119  21.988  31.927   0.443
43893W        W 9120  43.079  37.931   0.783
43894W        W 9121  13.070  20.316   3.908
43895W        W 9122  24.022  42.857   1.368
43896W        W 9123   3.011  32.012   0.713
43897W        W 9124  38.753  15.225   3.694
43898W        W 9125  44.920   9.360   3.752
43899W        W 9126  31.442  31.223   0.892
43900W        W 9127  15.333   7.694  11.189
43901W        W 9128  11.918  21.911  13.451
43902W        W 9129  12.717  24.455  12.959
43903W        W 9130  27.902   6.793   2.833
43904W        W 9131  13.123  29.840   3.632
43905W        W 9132  17.130   1.539  10.388
43906W        W 9133  21.045  27.121  14.472
43907W        W 9134  39.442  12.754  14.151
43908W        W 9135  10.657  35.927   3.135
43909W        W 9136   4.961   6.185   4.613
43910W        W 9137   4.593   1.450  14.463
43911W        W 9138   7.438  41.353   0.698
43912W        W 9139  14.086  22.434   4.993
43913W        W 9140   6.751  17.048   2.056
43914W        W 9141  15.125  34.344   4.319
43915W        W 9142  41.300  16.116  14.294
43916W        W 9143  29.546   9.293  13.053
43917W        W 9144  20.828   5.636  13.528
43918W        W 9145   7.698   0.281   3.780
43919W        W 9146  30.545  11.078   4.510
43920W        W 9147  19.322  34.979  13.900
43921W        W 9148   0.377  24.576   1.925
43922W        W 9149  43.812  22.317  13.036
43923W        W 9150  34.645  35.368   4.589
43924W        W 9151   6.217  37.580  14.308
43925W        W 9152  12.730  31.966   2.382
43926W        W 9153   6.857  17.259   0.592
43927W        W 9154  41.865  29.090  14.850
43928W        W 9155  44.675  11.203   3.981
43929W        W 9156  36.555  13.817  12.326
43930W        W 9157   5.703  27.218   1.848
43931W        W 9158  14.077  26.734  12.408
43932W        W 9159   4.345  12.429  13.516
43933W        W 9160  35.491  21.523   0.840
43934W        W 9161   2.491   7.357   4.793
43935W        W 9162   7.301  18.327  14.804
43936W        W 9163  43.364  24.174   2.576
43937W        W 9164  29.283   5.990   4.271
43938W        W 9165  14.643  14.300  11.095
43939W        W 9166  33.007  26.876  12.113
43940W        W 9167  26.066   9.145  11.539
43941W        W 9168  39.891   3.277   2.101
43942W        W 9169  22.860  29.948   0.890
43943W        W 9170  27.057   4.560   9.712
43944W        W 9171  41.200   0.221  13.554
43945W        W 9172   3.494  23.799  12.878
43946W        W 9173  39.776  12.144   3.381
43947W        W 9174  36.397  12.930  14.434
43948W        W 9175  11.474  18.281   3.633
43949W        W 9176  12.857  20.963  13.314
43950W        W 9177  34.001  32.908  12.779
43951W        W 9178  35.562  27.191   0.546
43952W        W 9179  28.926  24.483  14.419
43953W        W 9180  36.235  35.449  10.690
43954W        W 9181  14.581   1.068  11.658
43955W        W 9182  22.961  14.162  11.983
43956W        W 9183  16.572  19.560   2.288
43957W        W 9184  36.387   5.137   3.268
43958W        W 9185  19.673  23.223   0.887
43959W        W 9186   7.161  40.811  14.427
43960W        W 9187  14.499  12.435  12.520
43961W        W 9188  38.117   1.002   9.852
43962W        W 9189  15.778  26.608   3.320
43963W        W 9190  18.671  17.354   2.108
43964W        W 9191   5.439   8.279   3.226
43965W        W 9192  16.844   7.412   2.081
43966W        W 9193   3.782  27.265  14.987
43967W        W 9194  34.308  14.761  14.293
43968W        W 9195  42.044  19.668  13.631
43969W        W 9196  19.708  26.742  12.994
43970W        W 9197  20.331  42.453   0.673
43971W        W 9198  27.143   6.699   3.483
43972W        W 9199  43.008  27.102  12.244
43973W        W 9200  23.542  27.279   2.253
43974W        W 9201   5.432   2.065   3.093
43975W        W 9202  28.512  42.472  14.205
43976W        W 9203  38.879  25.570  14.414
43977W        W 9204  41.716   6.932  14.027
43978W        W 9205  42.004  17.676   3.780
43979W        W 9206  30.506  29.679   3.148
43980W        W 9207   2.191  30.496  11.051
43981W        W 9208  16.595  24.053   2.857
43982W        W 9209  37.448  31.428  14.155
43983W        W 9210  27.640  44.035   2.332
43984W        W 9211  25.482  41.961   1.221
43985W        W 9212  18.781  17.078  11.790
43986W        W 9213  33.910  40.856   0.782
43987W        W 9214  27.004  30.611   4.976
43988W        W 9215   4.770  11.658  14.609
43989W        W 9216   0.730   0.464  11.033
43990W        W 9217  23.137  14.455   3.035
43991W        W 9218   2.754  18.825  14.807
43992W        W 9219   5.281  17.150  12.863
43993W        W 9220  41.878  36.525   1.796
43994W        W 9221  15.850  30.486  13.926
43995W        W 9222  21.931  21.061   0.902
43996W        W 9223   9.255  30.579   3.234
43997W        W 9224  26.838  42.834   0.775
43998W        W 9225  10.918   4.228   4.193
43999W        W 9226  30.970  12.147   4.941
44000W        W 9227   3.838  35.355  14.739
44001W        W 9228  39.701   3.396   1.661
44002W        W 9229   3.282  27.112   0.172
44003W        W 9230  43.558   1.342   1.390
44004W        W 9231   3.274  41.873  11.439
44005W        W 9232   8.443  27.145  12.617
44006W        W 9233  28.367  22.488   2.183
44007W        W 9234   3.240   4.748  10.736
44008W        W 9235   3.873   6.314  14.821
44009W        W 9236  42.795  20.536   3.287
44010W        W 9237  10.758  31.857  12.059
44011W        W 9238   5.259  19.406   3.115
44012W        W 9239  42.680   9.452  14.962
44013W        W 9240  32.028  15.253  13.428
44014W        W 9241  28.670  35.319  12.439
44015W        W 9242  10.107  38.558  13.038
44016W        W 9243  32.999  18.675  14.377
44017W        W 9244  22.244   6.268   4.074
44018W        W 9245  33.836  23.208  14.938
44019W        W 9246  18.207  10.588  12.884
44020W        W 9247   0.401  21.639   4.569
44021W        W 9248  18.471  16.760  11.502
44022W        W 9249  11.316   0.834   2.333
44023W        W 9250  18.322  32.661  11.611
44024W        W 9251  12.722  26.337   2.785
44025W        W 9252  44.199  29.181  14.443
44026W        W 9253   9.291  24.780   2.430
44027W        W 9254   1.481   2.844  12.478
44028W        W 9255   9.299  39.773   2.770
44029W        W 9256  15.410  14.864   4.116
44030W        W 9257  36.980  28.010  12.954
44031W        W 9258  24.213   0.801  12.845
44032W        W 9259  38.468   9.290   9.972
44033W        W 9260  12.160  33.048  13.749
44034W        W 9261  29.403  12.330  13.039
44035W        W 9262  26.972  30.214   3.640
44036W        W 9263   3.749  24.536   2.912
44037W        W 9264  43.838  15.662   4.166
44038W        W 9265  35.487  36.706  12.151
44039W        W 9266  44.799  20.614   0.916
44040W        W 9267  30.074  26.434  12.285
44041W        W 9268  42.282  34.473   0.356
44042W        W 9269  22.720  21.099   9.984
44043W        W 9270  43.359  10.344  12.367
44044W        W 9271  11.476  15.747   2.801
44045W        W 9272   5.190  39.209  14.465
44046W        W 9273   4.617  18.194  11.933
44047W        W 9274  24.175  37.510  14.007
44048W        W 9275  39.582  29.373   4.658
44049W        W 9276  31.632  16.776   0.884
44050W        W 9277  13.132  42.798  12.482
44051W        W 9278  17.352  39.447  10.497
44052W        W 9279   7.341  42.453   0.228
44053W        W 9280  20.247  23.942   4.977
44054W        W 9281  12.162   1.482  12.146
44055W        W 9282   6.688  34.007   0.038
44056W        W 9283  28.911  38.566   3.867
44057W        W 9284  40.086  44.002   3.300
44058W        W 9285  25.108   4.721   4.335
44059W        W 9286  43.824  29.166   1.705
44060W        W 9287  39.248  24.423   1.344
44061W        W 9288  32.090  13.371  12.513
44062W        W 9289  12.381  29.659   4.934
44063W        W 9290  44.377  26.885   0.351
44064W        W 9291  30.475   7.240  11.420
44065W        W 9292  43.868   6.290  12.640
44066W        W 9293  31.159  34.452   1.720
44067W        W 9294  43.470  39.942   2.166
44068W        W 9295  20.621  41.409  12.555
44069W        W 9296   3.459  25.461   0.776
44070W        W 9297  32.108  21.618  10.579
44071W        W 9298  33.091  20.206   2.506
44072W        W 9299  38.843   4.919  14.093
44073W        W 9300  15.305  35.499  12.620
44074W        W 9301  14.098  12.564  12.196
44075W        W 9302   5.874  10.596  14.781
44076W        W 9303  27.058  36.615  13.399
44077W        W 9304   0.498   1.045  13.473
44078W        W 9305   0.665   8.687   0.558
44079W        W 9306   2.265   5.773   1.697
44080W        W 9307  12.451  34.381  13.354
44081W        W 9308  42.068  11.714  12.325
44082W        W 9309  23.182  20.037   4.624
44083W        W 9310  20.069  27.397   1.452
44084W        W 9311  15.388  16.499  10.969
44085W        W 9312  43.017  31.014  14.350
44086W        W 9313  21.620  39.743  14.505
44087W        W 9314  29.817   0.318  11.479
44088W        W 9315  25.675  22.970  12.095
44089W        W 9316  35.925  15.784   3.997
44090W        W 9317  36.317   2.418   3.307
44091W        W 9318   1.417  11.145  11.740
44092W        W 9319  18.678  18.146  10.755
44093W        W 9320  34.754  20.986  11.689
44094W        W 9321  15.385   0.197   1.335
44095W        W 9322  21.933  18.515   1.458
44096W        W 9323  38.939  27.691   4.718
44097W        W 9324  41.194   8.588   3.811
44098W        W 9325  13.789  21.598  11.044
44099W        W 9326   5.693   1.263  14.639
44100W        W 9327  38.035  43.369   0.008
44101W        W 9328  11.178   2.136  10.803
44102W        W 9329  40.973   0.187  14.884
44103W        W 9330  31.813  25.584   3.280
44104W        W 9331   7.243  32.446  11.865
44105W        W 9332  31.635  14.250  11.607
44106W        W 9333   0.880  28.012   2.724
44107W        W 9334  24.513  42.305  11.602
44108W        W 9335  34.476  43.031   2.216
44109W        W 9336   0.987  34.956  12.298
44110W        W 9337  25.695  19.243   3.676
44111W        W 9338  14.841   9.558  12.043
44112W        W 9339   7.498   9.856  12.201
44113W        W 9340  35.464  19.539  13.984
44114W        W 9341  41.482  11.579  11.189
44115W        W 9342   8.321  44.483   1.698
44116W        W 9343  23.620  42.891   3.631
44117W        W 9344  40.909  28.898  13.010
44118W        W 9345  13.228  10.951  14.481
44119W        W 9346   5.194  18.671  11.522
44120W        W 9347   3.009   6.801   3.628
44121W        W 9348  43.089   8.411  13.102
44122W        W 9349  22.170  13.979   4.927
44123W        W 9350  20.040  23.619   3.329
44124W        W 9351   0.214   6.364   2.333
44125W        W 9352  20.171  26.806  14.905
44126W        W 9353  15.569  24.059   0.839
44127W        W 9354  34.047  14.744  14.759
44128W        W 9355   3.522  40.037  13.558
44129W        W 9356  25.625  44.929   2.596
44130W        W 9357  15.896  36.981  12.359
44131W        W 9358  10.897  33.182   0.350
44132W        W 9359   4.386  26.335   2.529
44133W        W 9360  28.219  18.242   0.929
44134W        W 9361  12.874   0.371  12.578
44135W        W 9362  26.141  17.069  10.742
44136W        W 9363   8.618  21.452  14.401
44137W        W 9364   8.683  32.941   3.439
44138W        W 9365  18.596   4.920   0.939
44139W        W 9366  21.741   8.767   0.745
44140W        W 9367  18.828  27.455  10.795
44141W        W 9368  20.683  13.186   0.782
44142W        W 9369  33.168  31.144  12.192
44143W        W 9370   5.705  21.102   4.674
44144W        W 9371   3.763  41.370   1.164
44145W        W 9372  23.501   1.446   0.837
44146W        W 9373  41.379  31.694  14.107
44147W        W 9374   6.060   6.891  14.469
44148W        W 9375  43.742  11.292  12.376
44149W        W 9376   1.963  36.347   4.684
44150W        W 9377  26.093  20.273   4.096
44151W        W 9378  37.976  40.420   1.107
44152W        W 9379  40.076  11.368  11.439
44153W        W 9380  15.090  25.559   0.416
44154W        W 9381   1.757  34.654   3.195
44155W        W 9382  10.298   0.653   0.053
44156W        W 9383  25.055   0.046   1.927
44157W        W 9384   7.971   0.602   1.938
44158W        W 9385   8.741  29.092  12.854
44159W        W 9386  32.484  28.426   1.417
44160W        W 9387  40.048  30.883   2.767
44161W        W 9388   1.854   1.410   0.205
44162W        W 9389  22.468  31.025  10.693
44163W        W 9390  39.924  22.286  14.855
44164W        W 9391  39.443  41.998  12.862
44165W        W 9392  21.029  43.986  13.550
44166W        W 9393  40.724  26.185  13.243
44167W        W 9394  16.180  19.051  14.313
44168W        W 9395  23.546  37.983  11.230
44169W        W 9396  19.320  33.871  12.651
44170W        W 9397   6.301   1.971   0.627
44171W        W 9398  36.366  43.916   2.448
44172W        W 9399  24.674  17.098  11.676
44173W        W 9400  30.596  33.669  13.809
44174W        W 9401  43.517  39.021   3.848
44175W        W 9402  26.635  31.974  10.909
44176W        W 9403  30.647  43.721  13.031
44177W        W 9404  19.252   8.143   4.311
44178W        W 9405  19.242  25.567   0.244
44179W        W 9406  42.576  11.350  10.704
44180W        W 9407  37.626  23.453  13.728
44181W        W 9408  15.068   4.471  14.790
44182W        W 9409  37.409  11.643  12.003
44183W        W 9410  34.436   7.230   3.751
44184W        W 9411  44.726  39.412   3.613
44185W        W 9412  37.883  39.296  12.145
44186W        W 9413  33.690  11.326  13.479
44187W        W 9414  14.390   9.766   3.718
44188W        W 9415  25.602  31.906  12.172
44189W        W 9416  26.962  16.799   2.817
44190W        W 9417   4.335  21.829   1.855
44191W        W 9418  18.080  37.733  14.370
44192W        W 9419   0.347   2.503  12.187
44193W        W 9420   2.787  34.833  13.736
44194W        W 9421  41.262  24.487   1.244
44195W        W 9422  11.779  13.518  11.256
44196W        W 9423  10.922  30.944   2.694
44197W        W 9424   1.214  18.345  10.847
44198W        W 9425  13.273   6.172  10.385
44199W        W 9426  14.571  21.764  13.882
44200W        W 9427  35.944  41.258  13.033
44201W        W 9428  11.735  11.823   2.618
44202W        W 9429  26.518  30.870   4.858
44203W        W 9430  15.048  13.562   2.245
44204W        W 9431  23.743  25.239  12.033
44205W        W 9432  21.216   3.187  14.863
44206W        W 9433  38.463   7.872  13.119
44207W        W 9434  18.689  32.843   3.419
44208W        W 9435  41.314   9.233  14.463
44209W        W 9436  30.466  21.090   1.348
44210W        W 9437  25.601  23.074   4.187
44211W        W 9438  21.701  14.191  14.686
44212W        W 9439  13.140  23.979   4.580
44213W        W 9440   0.437  33.961  14.759
44214W        W 9441   1.233  26.468   4.040
44215W        W 9442   1.756  13.284  12.876
44216W        W 9443  21.665  19.471   3.257
44217W        W 9444  16.203   0.021   3.665
44218W        W 9445  28.957   8.907   1.313
44219W        W 9446  27.667  10.338   2.260
44220W        W 9447  15.014  17.224   4.522
44221W        W 9448  42.523  17.681   3.677
44222W        W 9449  39.198  13.779   0.735
44223W        W 9450  21.173  38.223   2.684
44224W        W 9451   6.801   1.816   1.833
44225W        W 9452  14.090  43.947   4.932
44226W        W 9453  32.818  35.911   0.934
44227W        W 9454  10.121  20.563   4.531
44228W        W 9455  11.752   6.671  13.245
44229W        W 9456  14.376  25.102   3.153
44230W        W 9457  12.604  16.589  12.384
44231W        W 9458   8.389  22.986   4.118
44232W        W 9459   7.686  40.788   3.413
44233W        W 9460  34.135  16.280  12.239
44234W        W 9461  26.391  11.152   0.349
44235W        W 9462  27.376  15.609   4.114
44236W        W 9463  19.300  24.653   1.822
44237W        W 9464  41.227  33.382  10.262
44238W        W 9465  28.620   1.127   3.134
44239W        W 9466   6.152   2.638   4.732
44240W        W 9467  40.856  36.916  11.911
44241W        W 9468  21.334  43.704   2.883
44242W        W 9469  28.358  15.148  13.003
44243W        W 9470  11.620  26.766   3.813
44244W        W 9471  42.839   4.957  13.508
44245W        W 9472   4.384  15.652  10.277
44246W        W 9473  16.288  23.194   3.189
44247W        W 9474  26.225  20.679   4.516
44248W        W 9475  13.347  41.477   3.272
44249W        W 9476  16.219  34.917  11.515
44250W        W 9477   0.377  18.727   3.165
44251W        W 9478  31.845  24.958   2.848
44252W        W 9479   9.663  20.470   4.312
44253W        W 9480  44.492  44.898  13.343
44254W        W 9481  41.107   3.422   3.404
44255W        W 9482   9.255  13.747   2.363
44256W        W 9483  38.934  21.578   1.307
44257W        W 9484  26.972  40.703  12.107
44258W        W 9485  27.218  33.583   1.687
44259W        W 9486   5.895  27.903   1.401
44260W        W 9487  17.405  19.803   4.206
44261W        W 9488  21.196  31.663  13.262
44262W        W 9489  30.138  11.606   5.115
44263W        W 9490   4.747  28.014  14.481
44264W        W 9491   1.892   5.340  13.353
44265W        W 9492  40.429   4.641   1.772
44266W        W 9493  42.902   1.033   2.903
44267W        W 9494  16.849  15.337   0.376
44268W        W 9495   6.186  31.040  10.744
44269W        W 9496   8.869  44.212  12.418
44270W        W 9497  37.451  30.037  10.773
44271W        W 9498  27.960  35.779  14.349
44272W        W 9499  28.984  11.707  12.568
44273W        W 9500  27.616  28.143   3.391
44274W        W 9501   9.975  11.750   2.263
44275W        W 9502  17.190  40.349  14.681
44276W        W 9503   1.099  26.692   3.606
44277W        W 9504  17.539  38.226   4.076
44278W        W 9505  28.381  27.389   2.678
44279W        W 9506  14.431  32.942   4.966
44280W        W 9507  41.833  38.798  10.295
44281W        W 9508   7.382  44.854  10.587
44282W        W 9509   8.848  41.043  11.072
44283W        W 9510  10.522  36.013   0.868
44284W        W 9511  14.220  18.294   4.733
44285W        W 9512  28.021   2.724   2.846
44286W        W 9513  14.158  40.360  13.739
44287W        W 9514  26.497  31.860   4.489
44288W        W 9515  10.049  36.462   3.310
44289W        W 9516  44.894  20.446  11.644
44290W        W 9517  34.456   3.984  11.351
44291W        W 9518  19.245  42.318  13.860
44292W        W 9519  17.796  37.018  14.737
44293W        W 9520   1.697  40.549   0.897
44294W        W 9521  30.978  43.504   1.378
44295W        W 9522  13.776  41.550  11.231
44296W        W 9523  29.470  41.592   0.608
44297W        W 9524  23.094  10.653   2.643
44298W        W 9525  30.498  22.104   1.672
44299W        W 9526  15.197  43.382   1.656
44300W        W 9527  21.997  18.768  11.370
44301W        W 9528  23.986  29.138   2.174
44302W        W 9529  30.462  42.919   4.856
44303W        W 9530   3.418  34.637  14.777
44304W        W 9531  38.587  42.983  11.109
44305W        W 9532  23.541   4.573  14.981
44306W        W 9533  33.355  42.201   0.671
44307W        W 9534   2.803   3.904   1.470
44308W        W 9535   1.260  35.464   1.404
44309W        W 9536  24.431  24.096  11.269
44310W        W 9537  22.050  39.043  12.980
44311W        W 9538  25.805  42.333  12.809
44312W        W 9539  35.827  39.023   2.409
44313W        W 9540   2.813   4.204   0.336
44314W        W 9541  17.187   9.925   2.860
44315W        W 9542  41.822   5.242   2.826
44316W        W 9543  19.088  33.845  14.735
44317W        W 9544  19.676  17.356  12.203
44318W        W 9545  20.076   8.170  14.471
44319W        W 9546  18.714  41.407   1.846
44320W        W 9547  17.108  40.842  11.560
44321W        W 9548  37.457  20.352   2.268
44322W        W 9549  36.512  38.210  12.392
44323W        W 9550  10.618  40.360   0.825
44324W        W 9551   7.323  31.674  14.604
44325W        W 9552   8.884   7.000   4.606
44326W        W 9553  32.884  26.081   2.764
44327W        W 9554  22.311  28.144  12.974
44328W        W 9555  25.180  42.756   1.770
44329W        W 9556  21.244  17.834   3.821
44330W        W 9557   1.431  39.434   2.653
44331W        W 9558  34.247   9.940  11.954
44332W        W 9559  35.515  28.442   2.177
44333W        W 9560   5.867  17.506   0.838
44334W        W 9561  26.588   8.799  13.500
44335W        W 9562  31.003   0.374   1.267
44336W        W 9563   1.984  10.200   0.072
44337W        W 9564  18.519  19.011  11.127
44338W        W 9565  31.594  26.071  13.128
44339W        W 9566  22.507  26.487   2.710
44340W        W 9567  35.704  25.965  14.838
44341W        W 9568  31.331  28.509  14.850
44342W        W 9569  39.933  22.821   0.810
44343W        W 9570  25.182  24.499  11.843
44344W        W 9571  44.065  17.234   1.281
44345W        W 9572  37.541  33.434  12.223
44346W        W 9573  32.360  18.301   2.168
44347W        W 9574  43.550   6.975   3.534
44348W        W 9575  23.545  27.213   4.074
44349W        W 9576  19.969  15.249  14.002
44350W        W 9577  31.051  37.717  14.301
44351W        W 9578  34.561  14.457  11.435
44352W        W 9579   4.235  31.887  14.770
44353W        W 9580   9.180  21.562   0.224
44354W        W 9581  31.271  31.658  13.002
44355W        W 9582   6.474  29.917  13.586
44356W        W 9583  27.146  21.192  14.807
44357W        W 9584   2.144  15.998  12.963
44358W        W 9585  22.789  36.359  12.440
44359W        W 9586  15.674  33.131   2.790
44360W        W 9587   5.883   1.182   0.118
44361W        W 9588  44.909  29.721   0.829
44362W        W 9589  39.072  25.368  13.486
44363W        W 9590   5.412  10.015  11.053
44364W        W 9591  26.573  17.021  14.411
44365W        W 9592  16.030  14.852   2.739
44366W        W 9593  33.502  29.044  13.751
44367W        W 9594  38.778  31.817  13.805
44368W        W 9595   6.756   8.752   3.668
44369W        W 9596   7.140  38.806   4.904
44370W        W 9597  40.477   2.932  13.906
44371W        W 9598   4.315  40.856   0.444
44372W        W 9599   6.406  42.841  12.915
44373W        W 9600  19.887  10.815   3.064
44374W        W 9601  37.781  41.285  10.694
44375W        W 9602   8.742  22.044  13.518
44376W        W 9603  37.169  38.879  11.524
44377W        W 9604  10.380  26.096  13.805
44378W        W 9605   2.462  22.127   0.196
44379W        W 9606  28.344  15.174  11.248
44380W        W 9607  40.066   4.447   1.039
44381W        W 9608  20.584  24.407  11.647
44382W        W 9609  31.009  31.450   2.878
44383W        W 9610  15.720  23.518  11.280
44384W        W 9611  33.629  40.630  10.381
44385W        W 9612   1.446  15.171   3.350
44386W        W 9613   1.290  20.071  13.751
44387W        W 9614  26.302  22.384   1.988
44388W        W 9615  27.736  35.583  14.809
44389W        W 9616  14.607  36.062   1.236
44390W        W 9617  40.335  37.106   1.176
44391W        W 9618  41.127  16.198  12.341
44392W        W 9619   5.097  27.249   0.779
44393W        W 9620  23.715  42.945   0.957
44394W        W 9621   5.013  38.507  10.674
44395W        W 9622  42.823   9.778  11.173
44396W        W 9623  43.971  13.843  11.572
44397W        W 9624  11.196  42.198  12.160
44398W        W 9625  22.148  17.773   0.522
44399W        W 9626  25.726  24.504   0.425
44400W        W 9627  43.339  23.453  11.691
44401W        W 9628   1.306  31.943  14.280
44402W        W 9629  33.641  23.489  10.798
44403W        W 9630   5.424  30.524   0.301
44404W        W 9631  22.577  20.077  11.120
44405W        W 9632  20.386  37.232  14.721
44406W        W 9633  44.332  42.793  10.179
44407W        W 9634   3.699  13.854  11.996
44408W        W 9635  10.077   1.170  13.385
44409W        W 9636  34.423   8.496   0.459
44410W        W 9637  20.564  13.851  11.557
44411W        W 9638  22.207  41.631  11.592
44412W        W 9639  37.358   3.948   0.750
44413W        W 9640  29.171  44.318  12.443
44414W        W 9641  19.829  34.892  12.015
44415W        W 9642  24.173  10.193  12.516
44416W        W 9643  18.029  11.244   1.889
44417W        W 9644  10.911   0.458  12.017
44418W        W 9645  34.797  42.307  12.461
44419W        W 9646  43.045   8.111   1.742
44420W        W 9647   7.990  36.994   2.422
44421W        W 9648   3.710  42.147   4.885
44422W        W 9649  44.976  23.239   4.512
44423W        W 9650  39.572   9.919   4.663
44424W        W 9651  13.209  44.982  12.422
44425W        W 9652   5.218  22.474   4.177
44426W        W 9653  34.920  44.280   4.492
44427W        W 9654  41.660  11.808  14.670
44428W        W 9655  16.196  20.770   0.534
44429W        W 9656  43.932  43.730   3.682
44430W        W 9657   3.651  13.731  12.928
44431W        W 9658  14.204  20.236   4.278
44432W        W 9659  41.577  18.297  14.777
44433W        W 9660   9.514  38.855   2.207
44434W        W 9661   0.865  33.553  14.067
44435W        W 9662   3.858  19.166  10.779
44436W        W 9663  17.077  43.883  13.966
44437W        W 9664   9.803  24.161  13.902
44438W        W 9665  22.398  37.808  11.480
44439W        W 9666  11.462  30.043   1.021
44440W        W 9667  42.797  12.303   2.312
44441W        W 9668  25.248  14.122  11.543
44442W        W 9669  23.215  14.371   1.318
44443W        W 9670   0.734  35.545  10.759
44444W        W 9671  44.743  35.889   5.069
44445W        W 9672   7.254  20.778   3.248
44446W        W 9673  40.420  29.981  12.548
44447W        W 9674  31.381  41.770  14.562
44448W        W 9675  17.739  30.708   2.208
44449W        W 9676  18.118   8.605  13.875
44450W        W 9677  21.533  26.424   3.096
44451W        W 9678  32.146  39.118  12.212
44452W        W 9679  37.736  43.892  12.921
44453W        W 9680  40.983  28.887   1.789
44454W        W 9681  27.541  15.800   3.635
44455W        W 9682  11.072  24.278  12.051
44456W        W 9683  14.218  38.805   2.332
44457W        W 9684  35.530  34.093  14.437
44458W        W 9685   7.061  22.733   0.914
44459W        W 9686  24.472   1.808   1.853
44460W        W 9687  14.105  27.787  14.035
44461W        W 9688  28.240  15.514   2.818
44462W        W 9689  32.935  17.785  12.604
44463W        W 9690   1.358  28.355  12.215
44464W        W 9691   4.778  38.856  11.437
44465W        W 9692   9.142  20.295   0.624
44466W        W 9693  35.942  21.829   4.120
44467W        W 9694  25.254  12.571   2.305
44468W        W 9695   5.994  42.848   3.378
44469W        W 9696  14.386  25.936   1.307
44470W        W 9697  34.073  43.831   3.447
44471W        W 9698  10.924  35.641  12.073
44472W        W 9699  17.075  36.014   0.028
44473W        W 9700   6.298  27.104  10.657
44474W        W 9701  11.923   7.734   0.317
44475W        W 9702  10.280  15.785   3.200
44476W        W 9703   5.758  17.890  12.932
44477W        W 9704  26.857  22.877   3.749
44478W        W 9705   6.330  37.600   2.409
44479W        W 9706  31.067  38.592  13.273
44480W        W 9707  30.013   1.359  13.614
44481W        W 9708   1.263  32.948  11.262
44482W        W 9709   7.619  43.790  12.915
44483W        W 9710  39.855  38.619  14.889
44484W        W 9711  38.103  15.995  14.510
44485W        W 9712  40.016  36.396  12.024
44486W        W 9713  12.036  39.841  10.569
44487W        W 9714  43.465  43.216   4.119
44488W        W 9715  15.702  38.288  12.910
44489W        W 9716  13.380  38.075   3.185
44490W        W 9717  42.231  17.732  14.225
44491W        W 9718   3.856  28.399  11.525
44492W        W 9719  40.722  11.005   2.480
44493W        W 9720  27.139  37.614  14.840
44494W        W 9721   7.690  37.788  13.511
44495W        W 9722  30.645  33.502   4.470
44496W        W 9723   4.794  16.724   5.516
44497W        W 9724   9.184  40.074  12.044
44498W        W 9725  41.071   7.381   0.714
44499W        W 9726  19.309  25.951  13.777
44500W        W 9727  18.669  36.816   0.023
44501W        W 9728  12.542  30.499  14.068
44502W        W 9729  19.598  13.789   3.227
44503W        W 9730  14.844   0.087  11.564
44504W        W 9731   0.138  37.205   3.177
44505W        W 9732  22.002  20.492  13.933
44506W        W 9733  20.552  14.642   0.958
44507W        W 9734  27.155   6.223   3.721
44508W        W 9735  37.199  19.524   2.852
44509W        W 9736  11.928   7.308  13.911
44510W        W 9737  17.626   3.972   2.144
44511W        W 9738   2.989  22.506  10.231
44512W        W 9739  39.007  32.941   4.134
44513W        W 9740  15.668   3.200  14.601
44514W        W 9741  34.882   0.846   2.115
44515W        W 9742   0.944  37.081   4.237
44516W        W 9743   8.221  40.381  13.966
44517W        W 9744  14.766  38.833   1.637
44518W        W 9745  21.130  35.534  14.956
44519W        W 9746  22.660  44.121   1.138
44520W        W 9747  19.197  42.417  11.073
44521W        W 9748  20.432   1.854  13.429
44522W        W 9749  34.645  20.604  11.151
44523W        W 9750  22.763  42.398  11.989
44524W        W 9751   1.763  43.815  12.949
44525W        W 9752   1.907  33.909   3.612
44526W        W 9753  28.249  22.449   1.275
44527W        W 9754  23.980  19.078  11.074
44528W        W 9755  28.443  37.099   3.683
44529W        W 9756   1.046   9.698   4.889
44530W        W 9757  36.806  37.375   2.320
44531W        W 9758  13.817  20.210   1.445
44532W        W 9759  31.289   9.817   0.799
44533W        W 9760  16.020  10.591  10.305
44534W        W 9761   7.064  25.909   2.394
44535W        W 9762  39.470  42.856   1.664
44536W        W 9763  17.119  37.866   2.309
44537W        W 9764  35.086  18.105   1.012
44538W        W 9765  24.716  12.197  10.910
44539W        W 9766  36.159  35.838  13.990
44540W        W 9767  16.892  35.154   0.442
44541W        W 9768  29.204  29.018   2.833
44542W        W 9769   0.215  22.316  12.477
44543W        W 9770  32.051  16.769  13.645
44544W        W 9771   1.072   0.014   1.028
44545W        W 9772  36.716  40.716   4.074
44546W        W 9773  13.276  32.374   1.381
44547W        W 9774   2.470  22.825  11.859
44548W        W 9775  24.196  15.095   3.956
44549W        W 9776  13.262  38.948  13.590
44550W        W 9777   2.944  18.548  11.220
44551W        W 9778   9.790  35.330  11.630
44552W        W 9779  19.174   3.555   1.712
44553W        W 9780  27.604   0.956   0.878
44554W        W 9781   8.494  12.082   9.888
44555W        W 9782   0.526  41.835   1.454
44556W        W 9783  38.526  16.092   0.804
44557W        W 9784  13.730  27.547  14.387
44558W        W 9785   5.876  27.939   4.221
44559W        W 9786  38.062  28.084   0.273
44560W        W 9787  18.493  16.554   2.933
44561W        W 9788   4.898  27.667   5.267
44562W        W 9789   2.930  17.061  13.360
44563W        W 9790  21.019  31.593  11.965
44564W        W 9791  13.178   9.795   1.442
44565W        W 9792  19.048  30.972   4.358
44566W        W 9793  37.074  13.809  11.553
44567W        W 9794  33.161  30.458  11.160
44568W        W 9795  18.803   2.873   2.352
44569W        W 9796  43.437  19.273  14.097
44570W        W 9797   3.710  20.133   1.925
44571W        W 9798   7.781   1.649   1.917
44572W        W 9799  24.543  27.125   4.134
44573W        W 9800  43.930   7.402   2.659
44574W        W 9801   3.251  26.626   9.894
44575W        W 9802   4.203  29.003   4.111
44576W        W 9803  42.155  26.544   0.420
44577W        W 9804   1.775  12.140   2.435
44578W        W 9805  18.919  21.597  11.635
44579W        W 9806  26.362   2.205   2.284
44580W        W 9807  25.389  23.134  11.168
44581W        W 9808  36.551   5.310   0.888
44582W        W 9809  44.984  18.218   4.945
44583W        W 9810  41.079  27.513   1.899
44584W        W 9811  22.607  44.366  10.671
44585W        W 9812   2.946  15.078   0.370
44586W        W 9813  39.979  13.677  10.471
44587W        W 9814  31.167  42.011   2.150
44588W        W 9815  25.691  22.671  13.308
44589W        W 9816  43.550  32.900   4.176
44590W        W 9817   1.420   9.866  14.282
44591W        W 9818  28.002  40.618   2.779
44592W        W 9819  17.189  30.478   0.324
44593W        W 9820  34.798  12.086  14.396
44594W        W 9821  36.761  35.163  13.447
44595W        W 9822   6.105   8.157   0.120
44596W        W 9823  31.590  25.512   4.297
44597W        W 9824  35.927  41.198  14.042
44598W        W 9825  39.986  39.347   4.443
44599W        W 9826   2.850   0.925  10.873
44600W        W 9827  37.825  27.582   1.417
44601W        W 9828  31.863  39.423   1.865
44602W        W 9829  15.293   5.024   3.768
44603W        W 9830  11.881   9.828   0.572
44604W        W 9831   8.869  14.210   1.204
44605W        W 9832  34.070  14.085   3.624
44606W        W 9833  22.132  20.074  12.112
44607W        W 9834  13.223  17.286   3.654
44608W        W 9835  10.736   9.269   2.819
44609W        W 9836  39.208  36.409   2.460
44610W        W 9837  24.563   3.723   0.312
44611W        W 9838  37.447  35.547  13.822
44612W        W 9839  13.684   3.176   3.591
44613W        W 9840   9.973   0.693   4.690
44614W        W 9841  42.745  30.637   4.290
44615W        W 9842  19.024  13.875  13.526
44616W        W 9843  43.280   7.894  11.477
44617W        W 9844  31.486  30.175  13.930
44618W        W 9845   2.978  17.668   1.006
44619W        W 9846  19.610  38.786   0.829
44620W        W 9847  34.288  35.946   0.872
44621W        W 9848  21.789  34.423   4.162
44622W        W 9849  24.951  14.643  13.049
44623W        W 9850  43.795  37.972   2.330
44624W        W 9851   9.203  25.417   2.730
44625W        W 9852  19.590  12.320   1.185
44626W        W 9853  26.895  43.393  14.172
44627W        W 9854   2.118  30.089   2.343
44628W        W 9855   3.289   0.479   3.570
44629W        W 9856  23.572  39.548   2.139
44630W        W 9857  21.473  28.417   3.794
44631W        W 9858  15.402  13.578  14.707
44632W        W 9859  27.069  36.738  11.396
44633W        W 9860  41.710  14.706   0.833
44634W        W 9861   6.489  33.072  14.288
44635W        W 9862  15.303  13.248  14.262
44636W        W 9863  10.022  17.620  13.395
44637W        W 9864  20.939  12.459  12.618
44638W        W 9865  26.054  30.216  14.464
44639W        W 9866  37.791  26.226   0.681
44640W        W 9867  34.159  40.500  11.556
44641W        W 9868  38.433  44.312   0.892
44642W        W 9869  44.553  34.342  13.051
44643W        W 9870  38.417  14.593   0.861
44644W        W 9871  29.148  24.436   2.176
44645W        W 9872  14.037  15.416   2.128
44646W        W 9873  19.463   6.800  14.466
44647W        W 9874  23.934  40.081  11.934
44648W        W 9875  23.661  10.368  11.621
44649W        W 9876  40.907   7.840  14.788
44650W        W 9877   4.714  25.027  10.891
44651W        W 9878  18.070   7.074  14.436
44652W        W 9879  40.985  30.353   1.871
44653W        W 9880   5.687   1.396  13.607
44654W        W 9881   1.329  33.389   2.415
44655W        W 9882  23.772  42.344  12.987
44656W        W 9883  12.482   5.498   1.896
44657W        W 9884   7.632  43.317  14.893
44658W        W 9885  25.939  43.154  14.044
44659W        W 9886  13.191   9.647  14.000
44660W        W 9887   3.879  21.312  14.565
44661W        W 9888  32.397   9.239  12.001
44662W        W 9889  34.378  16.945   0.396
44663W        W 9890   5.861  30.809   0.158
44664W        W 9891   6.256  21.996   0.273
44665W        W 9892  39.584  14.823   3.364
44666W        W 9893  12.621  25.541  14.048
44667W        W 9894   9.341  27.688   0.976
44668W        W 9895   4.780  16.495  11.438
44669W        W 9896  29.741  36.726  11.632
44670W        W 9897  30.348   6.341   0.228
44671W        W 9898   9.937   5.676   0.734
44672W        W 9899   1.412  22.577  12.938
44673W        W 9900  23.394  16.663  11.557
44674W        W 9901   4.013  27.041   5.030
44675W        W 9902  42.008  20.252   0.270
44676W        W 9903  30.776  13.046  11.965
44677W        W 9904  26.647  25.885   1.137
44678W        W 9905   6.203  39.737   0.381
44679W        W 9906  38.992  29.663   2.363
44680W        W 9907   6.381  22.153  12.286
44681W        W 9908  36.704  35.510  12.904
44682W        W 9909   5.263  21.832  14.267
44683W        W 9910   9.449   0.887  10.761
44684W        W 9911   7.664  24.676  12.955
44685W        W 9912  36.355  41.524  14.815
44686W        W 9913  41.739  34.399  10.807
44687W        W 9914  12.907  10.099  11.991
44688W        W 9915  10.141   9.004   4.194
44689W        W 9916  36.261   5.457  13.305
44690W        W 9917  17.321  38.066  14.739
44691W        W 9918   9.741  31.637   2.794
44692W        W 9919   4.201  43.176   1.413
44693W        W 9920  32.376   0.973  14.348
44694W        W 9921  37.868  29.567   1.825
44695W        W 9922   7.232  24.666   0.893
44696W        W 9923  15.640  39.597   3.131
44697W        W 9924  21.029  19.145   3.366
44698W        W 9925   9.750  37.627  14.161
44699W        W 9926  37.814  13.605  11.175
44700W        W 9927  39.560  37.578   1.744
44701W        W 9928  36.594  26.868  14.976
44702W        W 9929   2.939  35.218   1.345
44703W        W 9930  16.063  22.155  12.605
44704W        W 9931   0.026   7.148   1.310
44705W        W 9932  13.842   0.239   3.312
44706W        W 9933  41.432   7.170   2.868
44707W        W 9934  13.596  27.860   4.936
44708W        W 9935  42.019   3.353  13.556
44709W        W 9936  42.492  31.097  14.337
44710W        W 9937  38.205  29.429   0.139
44711W        W 9938  40.501  23.764   2.288
44712W        W 9939  22.721  34.090  11.676
44713W        W 9940  18.128  31.978  12.072
44714W        W 9941   8.663   4.333  11.479
44715W        W 9942  43.932  13.603   2.695
44716W        W 9943   5.305  41.377  13.411
44717W        W 9944  33.632  32.561   0.201
44718W        W 9945  44.967  21.356   1.419
44719W        W 9946  24.264   6.733   0.957
44720W        W 9947  11.757   3.393   4.695
44721W        W 9948  17.759  15.991   0.848
44722W        W 9949  41.511  32.712   1.405
44723W        W 9950  12.095  43.594   1.210
44724W        W 9951  17.377  38.992   4.534
44725W        W 9952  36.338   5.032  14.052
44726W        W 9953  34.672   3.778   1.278
44727W        W 9954  14.373  43.528   4.754
44728W        W 9955  22.080  24.829  14.021
44729W        W 9956  17.088  20.212   4.193
44730W        W 9957  24.169   4.404   0.637
44731W        W 9958  10.690   3.003   3.702
44732W        W 9959  38.606  19.791  14.928
44733W        W 9960  39.585  18.034  11.625
44734W        W 9961   7.328  24.063   0.272
44735W        W 9962  28.549  25.987  13.736
44736W        W 9963  29.717  19.989   4.562
44737W        W 9964  23.960   0.717   0.718
44738W        W 9965  30.994  36.894   1.233
44739W        W 9966   4.447   6.315   4.650
44740W        W 9967  23.073  32.283   4.271
44741W        W 9968  30.026   1.071   0.423
44742W        W 9969  41.724  10.300   3.230
44743W        W 9970   1.490  32.173  14.768
44744W        W 9971  33.523  34.929  13.603
44745W        W 9972  40.546  12.259   1.415
44746W        W 9973  11.277  20.871   1.890
44747W        W 9974  40.449  26.384   3.674
44748W        W 9975  13.201   3.366   4.768
44749W        W 9976  13.872  31.392   3.488
44750W        W 9977  22.091  13.615  13.118
44751W        W 9978  43.722  20.767   1.888
44752W        W 9979  11.404   6.735  13.618
44753W        W 9980  42.509  19.590  12.732
44754W        W 9981  12.492  37.367   3.584
44755W        W 9982  37.295   2.706  14.446
44756W        W 9983  43.799  40.516   2.130
44757W        W 9984  28.838  29.451  12.934
44758W        W 9985  10.469  10.078   3.427
44759W        W 9986  14.466  24.863   2.689
44760W        W 9987  43.902  43.509  10.769
44761W        W 9988  11.785  22.257  13.806
44762W        W 9989  27.086   7.466   1.203
44763W        W 9990  21.214  25.593  11.549
44764W        W 9991   3.792  26.706   1.823
44765W        W 9992   5.022  10.657  11.602
44766W        W 9993   4.685  22.659   1.406
44767W        W 9994  25.052  32.387  13.404
44768W        W 9995  37.100  25.882   1.295
44769W        W 9996   4.153  38.034  14.779
44770W        W 9997  28.676   1.872  14.750
44771W        W 9998  28.055  26.171   1.765
44772W        W 9999   4.427   2.371   0.355
44773W        W10000  28.914  14.092   3.281
44774W        W10001   9.227  37.442   2.873
44775W        W10002  23.481  12.987   1.205
44776W        W10003  19.565  20.188  14.407
44777W        W10004  13.223  32.513   2.359
44778W        W10005  42.870  20.865   2.903
44779W        W10006  39.608  43.136   0.466
44780W        W10007  33.141  13.314  13.846
44781W        W10008  43.297   1.616   0.682
44782W        W10009   1.274  44.347   5.154
44783W        W10010  32.495  39.890  12.984
44784W        W10011   8.308  42.042  11.933
44785W        W10012   0.570  44.450   0.803
44786W        W10013  28.836  25.145   2.410
44787W        W10014   7.233  28.172   1.354
44788W        W10015   8.380  26.224  13.530
44789W        W10016  28.288  13.196   4.136
44790W        W10017  41.228  19.522   3.916
44791W        W10018  16.604  12.662   1.313
44792W        W10019  10.353   0.380   3.287
44793W        W10020   5.159  44.398  10.662
44794W        W10021  25.221  10.678  13.647
44795W        W10022  37.333  39.888   0.776
44796W        W10023  36.729  24.136  14.955
44797W        W10024  10.356  10.151   0.793
44798W        W10025   8.772  18.515  10.450
44799W        W10026  39.187  42.299  14.904
44800W        W10027  17.733  43.783   2.222
44801W        W10028   2.649  40.541   0.782
44802W        W10029   2.065  20.656  10.340
44803W        W10030   3.945  42.771   1.689
44804W        W10031   2.006   3.287   2.831
44805W        W10032  17.071   0.952   5.257
44806W        W10033  44.507  29.790   1.931
44807W        W10034  34.906   3.858  14.437
44808W        W10035  14.725   9.719  12.966
44809W        W10036  35.482  36.355  14.557
44810W        W10037  42.277  23.193   4.558
44811W        W10038   4.885  11.393  12.081
44812W        W10039  14.267   8.095   1.882
44813W        W10040   2.482   6.721  12.140
44814W        W10041  27.902  35.977  10.231
44815W        W10042  43.634  44.265  14.528
44816W        W10043   5.715  25.394   4.909
44817W        W10044  43.977  26.626   0.569
44818W        W10045  29.226  21.014  10.912
44819W        W10046  30.359  41.860  12.921
44820W        W10047  43.848  10.217  11.526
44821W        W10048  35.116   5.178  14.641
44822W        W10049  35.906  20.368  11.141
44823W        W10050  25.507   6.426  12.439
44824W        W10051  12.625   8.951  14.065
44825W        W10052  19.623  38.069   4.315
44826W        W10053  43.057  10.396  13.165
44827W        W10054  41.859  19.231   1.952
44828W        W10055  15.950  20.643   2.700
44829W        W10056  29.394   1.568   2.701
44830W        W10057  34.085  28.252   1.148
44831W        W10058  31.680  31.024   4.093
44832W        W10059   9.797   9.689  13.583
44833W        W10060  43.711  24.731  14.431
44834W        W10061  14.241  29.157   3.436
44835W        W10062   4.165  22.631   1.494
44836W        W10063   9.107  15.808  12.633
44837W        W10064  44.556  36.418  12.304
44838W        W10065   9.779  10.076   0.029
44839W        W10066  22.743   0.817   2.207
44840W        W10067  32.231  30.705   1.747
44841W        W10068  13.114  41.631   1.058
44842W        W10069  11.233  36.608   3.146
44843W        W10070  17.060   9.704  13.327
44844W        W10071  17.363  25.508   0.684
44845W        W10072  40.585  36.326  13.460
44846W        W10073  10.912  15.739  14.345
44847W        W10074  44.396   3.300   3.464
44848W        W10075  10.860   3.096   2.775
44849W        W10076   6.894  42.971   0.962
44850W        W10077  38.989  12.207   0.193
44851W        W10078  18.546  20.982  14.917
44852W        W10079  20.592  23.911  14.831
44853W        W10080  19.325   6.964  11.309
44854W        W10081  33.325  12.966   0.738
44855W        W10082   4.555  33.507  14.235
44856W        W10083  15.811   4.965   3.596
44857W        W10084  40.249  27.275   4.400
44858W        W10085  15.759   9.155   1.461
44859W        W10086  33.954   6.456   1.877
44860W        W10087  26.674  44.550  10.518
44861W        W10088   0.981  15.294   3.174
44862W        W10089  21.006  22.004   4.702
44863W        W10090   3.850  35.645  13.284
44864W        W10091  32.715  29.997  14.986
44865W        W10092   9.702  11.135  14.027
44866W        W10093  10.124  13.262  14.728
44867W        W10094  17.238  38.319  14.254
44868W        W10095  27.328  25.938  13.890
44869W        W10096  35.351  25.019   4.569
44870W        W10097   1.909  40.403   4.978
44871W        W10098  28.582  18.651   4.884
44872W        W10099  44.645  26.086  11.210
44873W        W10100   5.570   4.996  11.137
44874W        W10101  44.003  38.730  10.728
44875W        W10102  19.123   8.280  12.811
44876W        W10103  42.018  10.709   2.660
44877W        W10104  20.249  23.587   2.441
44878W        W10105   0.729  31.448  10.265
44879W        W10106  15.320   0.310  11.531
44880W        W10107  39.749  38.149   2.289
44881W        W10108  44.727  23.240  11.573
44882W        W10109  32.425  39.068  11.758
44883W        W10110   5.618  10.698   1.952
44884W        W10111   7.650  38.479  14.754
44885W        W10112   7.176   6.972  13.844
44886W        W10113  12.230  34.686  12.465
44887W        W10114   4.350  44.932  10.650
44888W        W10115  16.329  22.580   4.684
44889W        W10116  18.688  31.896  13.065
44890W        W10117   3.380  15.749   2.410
44891W        W10118  31.201   2.634   1.704
44892W        W10119  44.044  33.620  12.409
44893W        W10120  36.561  41.360   1.719
44894W        W10121   0.955  28.202   0.929
44895W        W10122  34.836  31.010   1.894
44896W        W10123  19.076  35.123   3.889
44897W        W10124  14.430   8.676   3.193
44898W        W10125  16.622  38.557   4.425
44899W        W10126  13.147  16.185  11.238
44900W        W10127  41.762  15.114   1.166
44901W        W10128  15.134  15.784   4.381
44902W        W10129  41.432  36.824  12.453
44903W        W10130  33.977  12.099   1.443
44904W        W10131  23.066  27.371  12.491
44905W        W10132   3.432  36.971  14.303
44906W        W10133  14.114   5.831  10.751
44907W        W10134  13.545  33.619   1.840
44908W        W10135  30.016  32.046  14.524
44909W        W10136  24.364  44.820  11.107
44910W        W10137  15.217  31.667   3.531
44911W        W10138  39.445   0.328   2.217
44912W        W10139  43.084  21.554   2.396
44913W        W10140  37.100   3.710  14.461
44914W        W10141   4.978  42.245  11.188
44915W        W10142  44.216   1.407   3.127
44916W        W10143   1.889  44.930   0.458
44917W        W10144   4.149  30.087   3.195
44918W        W10145  41.004  40.311   0.312
44919W        W10146  41.340  25.618  11.530
44920W        W10147  21.740   2.259   3.574
44921W        W10148  13.014  11.121  11.481
44922W        W10149  25.059  39.582  10.466
44923W        W10150  38.556   0.104  12.936
44924W        W10151  28.495   7.694   3.673
44925W        W10152  24.200  27.752   2.573
44926W        W10153  17.662  12.378   4.590
44927W        W10154   7.884   1.739   2.844
44928W        W10155  35.402  27.608   3.377
44929W        W10156  24.488  31.358   3.619
44930W        W10157   3.198   5.527   3.421
44931W        W10158   5.378  23.788   1.296
44932W        W10159  20.687  30.920   2.700
44933W        W10160  11.967  30.121   0.868
44934W        W10161  23.164  34.107  12.578
44935W        W10162  40.837  40.177   3.054
44936W        W10163  34.518  34.023  14.344
44937W        W10164  38.773  25.230  11.965
44938W        W10165   3.626  36.864  12.810
44939W        W10166   6.879   2.138  11.703
44940W        W10167  17.854  15.342  14.811
44941W        W10168  17.472  18.374   2.665
44942W        W10169   1.805  33.688   0.833
44943W        W10170  13.783  36.876  12.367
44944W        W10171  19.400  28.547   2.503
44945W        W10172  16.250  29.347   0.627
44946W        W10173  23.301  43.057  12.770
44947W        W10174  44.793  23.272  14.768
44948W        W10175  19.776   0.679   3.561
44949W        W10176  28.073  36.739  14.913
44950W        W10177  12.316  18.215   2.193
44951W        W10178  26.446  39.392  13.090
44952W        W10179  22.269  35.239  10.472
44953W        W10180  26.996  26.137   3.712
44954W        W10181  28.633   8.902   3.022
44955W        W10182   5.288   3.144  12.633
44956W        W10183  40.661  35.086  14.068
44957W        W10184  33.338  20.791  10.543
44958W        W10185  27.621  26.379   1.009
44959W        W10186  16.790   7.304  13.578
44960W        W10187   9.808  27.585   0.785
44961W        W10188  28.599  28.714   2.293
44962W        W10189  20.447   8.969   4.451
44963W        W10190  11.578  17.671  12.433
44964W        W10191  11.933   7.875  12.473
44965W        W10192   8.682  16.276   1.656
44966W        W10193  37.235  15.788  13.352
44967W        W10194  33.105  10.541   3.657
44968W        W10195  22.623   5.619  10.768
44969W        W10196  10.349  44.988  12.699
44970W        W10197   9.430  24.551  13.980
44971W        W10198   2.328  38.778   1.824
44972W        W10199  31.195  40.051  14.289
44973W        W10200  26.241  28.912   1.812
44974W        W10201  43.450  44.297   0.428
44975W        W10202  37.677  24.248   3.281
44976W        W10203  20.844   8.576  11.577
44977W        W10204   4.260   0.075   0.324
44978W        W10205   4.810   6.374  14.818
44979W        W10206  31.129  44.105  14.821
44980W        W10207  40.593   2.425   4.833
44981W        W10208  15.819   7.696   1.309
44982W        W10209  12.180  18.082  14.445
44983W        W10210  39.990  16.707   1.563
44984W        W10211   6.435  19.232  11.619
44985W        W10212  26.657  28.986  12.526
44986W        W10213   4.056  13.827   1.875
44987W        W10214   6.735  38.179   2.827
44988W        W10215  10.354  16.857   0.347
44989W        W10216   3.748  14.946  11.423
44990W        W10217  43.457  43.548   3.723
44991W        W10218  40.124  26.489   0.319
44992W        W10219  42.273  26.498  14.355
44993W        W10220  44.167  21.050   1.956
44994W        W10221  22.526  10.692  11.274
44995W        W10222  25.789  17.310   3.795
44996W        W10223  23.081   5.945  14.472
44997W        W10224   6.567  38.077   4.802
44998W        W10225  43.143  17.161   1.792
44999W        W10226  18.654  32.946   0.076
45000W        W10227  38.882  37.939  11.146
45001W        W10228  41.624  11.592  10.659
45002W        W10229  33.435  33.084   5.136
45003W        W10230  11.810  11.514  10.770
45004W        W10231  36.951  20.302   4.699
45005W        W10232  14.262  43.563   0.721
45006W        W10233  36.857  21.774  13.500
45007W        W10234  35.434   2.275  12.452
45008W        W10235  43.892   3.671   5.012
45009W        W10236  37.768   7.465  11.927
45010W        W10237  13.170  23.233  11.728
45011W        W10238  29.520  37.468   5.073
45012W        W10239  30.510  40.766   1.879
45013W        W10240  36.917  41.567  11.125
45014W        W10241  19.564  23.472  11.563
45015W        W10242  22.748  39.555  13.573
45016W        W10243   4.423  37.053  12.814
45017W        W10244  11.593  21.658  12.044
45018W        W10245  27.274  44.810  14.748
45019W        W10246  36.025  16.523   4.497
45020W        W10247   4.259  26.054  14.517
45021W        W10248   1.301   2.535   4.244
45022W        W10249  14.205   5.998   4.535
45023W        W10250  39.999   1.762   0.715
45024W        W10251  21.840   6.353   1.706
45025W        W10252  10.811  37.012  12.542
45026W        W10253   7.266   4.505   0.229
45027W        W10254  33.886   9.336  14.889
45028W        W10255  28.729  44.122   1.417
45029W        W10256  37.619  14.628  11.592
45030W        W10257  28.025  28.611  13.530
45031W        W10258   8.911  16.743   1.294
45032W        W10259  18.134   4.338   0.725
45033W        W10260  15.843  17.132  13.967
45034W        W10261  36.880  13.937   0.211
45035W        W10262  12.209   0.417   3.829
45036W        W10263  25.101   7.118  13.278
45037W        W10264  23.244  10.863  14.485
45038W        W10265  25.373   9.259  11.098
45039W        W10266   7.682  27.150   4.189
45040W        W10267  23.071   4.058   3.618
45041W        W10268  43.285  35.323   0.209
45042W        W10269  39.814   6.050  12.759
45043W        W10270   0.237  15.271   2.671
45044W        W10271  20.187   7.579   5.112
45045W        W10272  31.355  15.009   3.601
45046W        W10273  27.579  10.686   2.758
45047W        W10274  18.460  33.255  11.846
45048W        W10275  28.896  16.404  12.901
45049W        W10276  20.794  30.634  14.340
45050W        W10277  14.769  18.707  12.378
45051W        W10278  16.037  36.619   1.568
45052W        W10279  17.245   7.892   3.654
45053W        W10280  11.786  24.465  14.068
45054W        W10281  36.873   8.365   9.911
45055W        W10282  27.605   6.614  12.105
45056W        W10283   3.006  43.371   3.571
45057W        W10284  14.859   8.959   2.193
45058W        W10285  24.570  28.099   1.742
45059W        W10286  39.405   3.474   0.270
45060W        W10287  29.657  17.409   2.360
45061W        W10288  24.997  42.097  11.618
45062W        W10289  25.537  25.278   0.322
45063W        W10290  32.612   1.551   2.048
45064W        W10291   9.822  18.880  11.182
45065W        W10292  34.291  24.030   1.927
45066W        W10293  38.782   4.903   1.233
45067W        W10294  43.775  43.860   2.351
45068W        W10295  21.486   0.318  12.368
45069W        W10296  16.645  12.416   3.098
45070W        W10297  17.221  33.949  11.793
45071W        W10298   5.846  11.726   2.828
45072W        W10299  22.555  30.950  12.442
45073W        W10300  36.532  44.983   4.525
45074W        W10301  20.146  26.920   4.555
45075W        W10302  35.102  24.029  12.889
45076W        W10303  23.032  42.851  10.782
45077W        W10304  28.019  15.051  13.387
45078W        W10305  22.534  27.670   1.337
45079W        W10306   5.644  41.033  13.589
45080W        W10307  44.281  34.804  13.020
45081W        W10308  19.113  34.454   0.513
45082W        W10309  22.278  15.114  12.975
45083W        W10310  33.052   6.869   1.121
45084W        W10311   3.430  35.627  11.155
45085W        W10312  37.811   9.868   3.836
45086W        W10313  23.643  12.821   0.721
45087W        W10314   6.531  36.305  14.468
45088W        W10315  25.033   9.154  13.720
45089W        W10316  16.590  30.126   0.983
45090W        W10317  32.387  43.376  10.646
45091W        W10318  14.414  21.097  12.507
45092W        W10319  15.541  15.328  13.408
45093W        W10320   6.124   7.387   4.138
45094W        W10321   5.170  43.264   1.392
45095W        W10322  35.007  27.616  14.832
45096W        W10323  22.429  19.023  10.026
45097W        W10324  14.687  19.696  12.489
45098W        W10325  22.589  24.067  14.465
45099W        W10326   3.832  26.977  13.378
45100W        W10327  31.165  31.776   9.708
45101W        W10328  26.262   0.191   0.325
45102W        W10329  35.342   8.862  13.583
45103W        W10330  32.984  17.363  13.588
45104W        W10331   9.921  42.412  11.832
45105W        W10332  38.034  35.895  10.944
45106W        W10333   6.372  41.820  14.359
45107W        W10334  24.949  13.708   2.962
45108W        W10335  39.354   2.626  11.363
45109W        W10336  37.452   0.829   1.749
45110W        W10337  15.302   5.988  11.144
45111W        W10338  12.206   2.284  14.750
45112W        W10339  39.509  10.890  12.975
45113W        W10340  14.524  30.401  13.647
45114W        W10341  40.071  41.821  13.840
45115W        W10342   6.385  28.522  13.271
45116W        W10343   1.171  15.338  12.587
45117W        W10344  19.668  28.856  14.859
45118W        W10345  40.005  27.515  12.391
45119W        W10346  23.030   6.771   2.114
45120W        W10347  28.654  28.999  14.358
45121W        W10348  44.290  28.659   4.510
45122W        W10349  33.094  16.101  14.851
45123W        W10350  40.313   1.361   0.506
45124W        W10351  12.144  28.778  12.625
45125W        W10352   9.306   1.488   4.716
45126W        W10353   0.412  21.128   0.375
45127W        W10354  20.692   9.163   2.402
45128W        W10355  39.414   7.690  14.922
45129W        W10356   1.811  33.392   3.620
45130W        W10357  43.686  42.898  14.882
45131W        W10358  42.423  28.736  12.407
45132W        W10359  41.382  12.232   2.373
45133W        W10360   8.925   7.705  14.869
45134W        W10361   4.036  32.179  13.467
45135W        W10362  43.406  37.647  14.840
45136W        W10363  18.041  28.644  10.717
45137W        W10364  36.836  36.118  11.584
45138W        W10365  43.088  18.776   0.271
45139W        W10366  24.655  43.394  13.467
45140W        W10367  18.969  25.581  13.966
45141W        W10368  42.981  38.386  13.979
45142W        W10369   2.412  28.970   4.467
45143W        W10370  28.977  12.615  12.965
45144W        W10371  37.868  23.736  14.416
45145W        W10372  32.538  11.888  11.142
45146W        W10373   3.351  40.570  11.163
45147W        W10374  30.309  33.540   3.546
45148W        W10375  13.712  35.317  12.471
45149W        W10376  29.832  21.154   2.622
45150W        W10377  32.243  42.530  11.099
45151W        W10378  32.883  43.448  11.943
45152W        W10379  12.108  28.530  13.938
45153W        W10380  34.192  38.635   1.202
45154W        W10381   0.068  41.326   3.764
45155W        W10382   8.384  26.516  11.570
45156W        W10383  28.654  25.664   1.437
45157W        W10384  42.940  28.934  10.717
45158W        W10385  35.390  31.230   4.148
45159W        W10386  36.472  37.401   2.788
45160W        W10387  33.399  41.957   3.986
45161W        W10388  40.419  26.648   2.111
45162W        W10389   1.969  16.731   2.564
45163W        W10390   5.763  39.854  10.814
45164W        W10391  35.884  23.158  10.504
45165W        W10392  28.446  35.994   3.944
45166W        W10393   6.404   2.274   2.852
45167W        W10394   6.125   7.915   4.279
45168W        W10395   9.176  10.935   0.614
45169W        W10396   1.804  21.266   1.328
45170W        W10397  16.949   6.604  11.109
45171W        W10398  36.940  38.854  13.806
45172W        W10399  29.633  39.919  12.741
45173W        W10400   2.869  13.681   4.400
45174W        W10401   0.367  35.084   4.594
45175W        W10402   3.289  14.685   3.461
45176W        W10403   3.439   8.437  10.742
45177W        W10404  29.566  12.765  13.285
45178W        W10405  13.366  28.784   0.906
45179W        W10406  42.783  32.954  10.099
45180W        W10407  32.460  14.849  14.306
45181W        W10408  44.128  22.999   0.873
45182W        W10409  34.968  16.301   0.201
45183W        W10410  16.124  18.020   2.833
45184W        W10411  11.705  37.786  11.053
45185W        W10412   4.766  44.471  14.299
45186W        W10413  25.572  12.844  10.713
45187W        W10414   7.177   6.263  12.562
45188W        W10415  34.910  31.387   3.424
45189W        W10416  34.020  28.954   3.130
45190W        W10417  12.328  11.427  12.050
45191W        W10418  29.455  11.398   1.204
45192W        W10419   6.323  15.371  14.377
45193W        W10420  33.881  19.144   1.816
45194W        W10421  40.670  33.931  12.093
45195W        W10422  34.422  26.093   4.496
45196W        W10423   4.717  38.928   1.203
45197W        W10424  37.810   9.323  11.626
45198W        W10425  39.033  12.134   1.203
45199W        W10426  42.587  27.015   4.076
45200W        W10427  41.579   2.899  12.043
45201W        W10428   3.358  11.947  11.598
45202W        W10429  26.825  23.808  11.564
45203W        W10430  11.375  37.326  10.720
45204W        W10431  34.428  23.594   3.895
45205W        W10432  38.934  18.955   3.205
45206W        W10433  32.575  32.022   4.512
45207W        W10434  14.397  17.111  13.634
45208W        W10435  22.102   2.514   3.847
45209W        W10436  19.912  17.321  14.374
45210W        W10437  39.030  25.048  14.356
45211W        W10438  13.343  29.101  12.992
45212W        W10439  16.698  42.662   0.629
45213W        W10440  38.643   2.374   2.817
45214W        W10441  25.547  39.043   1.689
45215W        W10442  19.121  34.030  14.247
45216W        W10443  11.831  10.766   0.301
45217W        W10444  26.096  19.756   2.227
45218W        W10445  18.600  12.892  13.028
45219W        W10446  26.311   6.455  10.677
45220W        W10447  37.219  16.663   3.953
45221W        W10448  44.797   9.181   4.791
45222W        W10449  25.104  23.765  14.331
45223W        W10450  40.335   1.904   3.582
45224W        W10451  28.929  38.846  11.441
45225W        W10452  42.310  10.634  11.612
45226W        W10453  10.587  17.521  13.372
45227W        W10454  28.167  31.010  11.193
45228W        W10455  39.438   2.583  13.553
45229W        W10456  39.452  41.762   0.336
45230W        W10457  23.874  11.546  12.495
45231W        W10458   7.929  39.401  14.615
45232W        W10459  23.930  41.954   4.620
45233W        W10460   2.839  36.052  12.635
45234W        W10461   4.526   4.847   2.797
45235W        W10462  26.986   2.521   3.797
45236W        W10463  31.946  17.240   4.646
45237W        W10464  22.004  25.616   3.019
45238W        W10465  27.332   1.704   5.176
45239W        W10466   1.685   5.320   1.432
45240W        W10467  43.664  22.267   9.754
45241W        W10468  16.106   3.288   3.107
45242W        W10469  43.119  30.626  12.950
45243W        W10470  10.731  23.488   1.503
45244W        W10471  37.337  37.236  14.317
45245W        W10472  44.741  31.417   0.316
45246W        W10473  36.999   6.466  14.775
45247W        W10474  24.468  25.775  11.919
45248W        W10475   9.616   4.216   1.911
45249W        W10476  14.685  44.267  13.802
45250W        W10477  30.696  24.560   1.889
45251W        W10478  11.350  43.594  14.345
45252W        W10479   8.179  36.588   1.703
45253W        W10480  42.053  23.518  14.372
45254W        W10481  12.320  11.295  13.603
45255W        W10482  27.649  41.791  13.026
45256W        W10483  38.947   7.911   4.604
45257W        W10484  23.681  31.081   1.976
45258W        W10485  35.024  10.111   3.359
45259W        W10486  11.099  28.611  10.501
45260W        W10487  32.574  29.021  12.328
45261W        W10488  11.365  22.158   4.709
45262W        W10489  43.234  40.108  10.900
45263W        W10490  30.574  11.387  13.059
45264W        W10491  30.548  11.894   5.023
45265W        W10492  22.489  18.323  14.773
45266W        W10493   2.409  34.590  11.220
45267W        W10494   4.608  43.285  13.765
45268W        W10495  32.929  36.428   1.724
45269W        W10496  36.310  44.099   4.339
45270W        W10497   4.301  11.855  13.356
45271W        W10498  22.581  33.679   1.578
45272W        W10499  38.902   9.224  14.308
45273W        W10500  41.584  20.066  12.927
45274W        W10501  24.266  15.636   5.176
45275W        W10502   6.153  23.563  13.722
45276W        W10503   8.377   1.448   0.921
45277W        W10504  19.087  21.948   1.851
45278W        W10505   7.313  12.413   2.178
45279W        W10506   1.753  29.856   3.693
45280W        W10507  31.602  42.342   0.804
45281W        W10508  21.098  29.895  12.417
45282W        W10509  14.864  42.901  11.275
45283W        W10510  26.551  36.493  13.512
45284W        W10511   5.839   6.712   1.278
45285W        W10512   2.285  40.466  11.487
45286W        W10513  35.965   3.863   4.664
45287W        W10514  43.850  34.229  14.320
45288W        W10515  16.859  17.653   1.211
45289W        W10516  22.903  21.482   0.900
45290W        W10517  24.093  26.382   4.242
45291W        W10518  15.624  41.997  14.936
45292W        W10519   4.159   2.851   0.323
45293W        W10520  15.664  12.770   3.110
45294W        W10521  23.690  15.128   1.260
45295W        W10522  24.468  26.730  10.702
45296W        W10523   9.278  39.845   3.675
45297W        W10524   1.453   7.131  12.782
45298W        W10525   7.185   1.066  12.865
45299W        W10526  17.542   3.536   4.957
45300W        W10527  41.829  15.183  11.018
45301W        W10528   1.546   4.860   4.393
45302W        W10529  35.516  29.830  11.128
45303W        W10530  44.761  39.941   0.742
45304W        W10531  44.330  22.622   3.418
45305W        W10532   7.779  10.373  14.744
45306W        W10533   8.016  16.931   1.276
45307W        W10534  27.422   2.245  11.003
45308W        W10535  33.792   9.641  12.809
45309W        W10536   5.859  37.220  11.652
45310W        W10537  18.737  18.925   2.212
45311W        W10538  20.158  13.836   0.822
45312W        W10539  13.040   1.383   4.015
45313W        W10540  44.325  37.578   3.606
45314W        W10541  41.145  25.629   3.677
45315W        W10542  14.230  38.146   1.701
45316W        W10543  35.874  38.114   1.150
45317W        W10544  12.910  19.643  13.993
45318W        W10545  15.583  15.596  10.480
45319W        W10546   9.855  30.742   0.326
45320W        W10547  28.933  23.518  14.397
45321W        W10548  33.854  23.529   3.032
45322W        W10549  42.540  36.583   4.145
45323W        W10550  30.999   5.219   3.796
45324W        W10551  20.479   5.837   2.285
45325W        W10552  28.978  41.468   4.255
45326W        W10553  36.406  27.031   1.259
45327W        W10554  25.409  18.984   2.691
45328W        W10555  23.000  40.449   2.691
45329W        W10556  32.999   5.735  14.916
45330W        W10557   6.304  43.069   0.417
45331W        W10558  25.581  22.030   4.407
45332W        W10559  44.257  21.074   1.442
45333W        W10560   7.284  41.744  13.394
45334W        W10561  14.483  25.656  14.060
45335W        W10562  13.520  41.022   2.366
45336W        W10563  36.666  32.510  13.950
45337W        W10564  20.227  11.902   4.510
45338W        W10565   3.480  16.529  11.775
45339W        W10566  18.258  10.279   4.856
45340W        W10567   6.767   4.812   4.684
45341W        W10568  12.927  27.716   2.351
45342W        W10569  22.744  36.114  14.080
45343W        W10570  25.203  35.665   2.807
45344W        W10571  40.302  20.535   2.739
45345W        W10572  25.457  40.187   0.088
45346W        W10573  20.731  10.684   4.536
45347W        W10574  12.772  23.672  11.157
45348W        W10575  30.860  24.983  13.949
45349W        W10576  42.249   6.699  13.317
45350W        W10577  34.356  35.017   2.865
45351W        W10578  23.579   1.895   2.513
45352W        W10579  27.267  31.949  13.097
45353W        W10580  15.038  34.925  14.689
45354W        W10581  21.703  17.739  13.146
45355W        W10582  28.424  14.691   5.019
45356W        W10583  44.824  15.602   0.756
45357W        W10584  21.263  24.616   0.798
45358W        W10585  36.664  13.542   1.782
45359W        W10586  40.278  41.026   2.863
45360W        W10587   5.618  28.091   2.686
45361W        W10588  42.785  42.980  12.577
45362W        W10589  20.645  27.487  13.456
45363W        W10590  32.294  35.774   4.627
45364W        W10591  30.575  35.269   0.391
45365W        W10592  29.300  37.978   1.234
45366W        W10593  21.955  29.975  14.966
45367W        W10594  30.537   6.383   1.706
45368W        W10595  17.212  43.770   2.130
45369W        W10596  44.482  44.907   2.702
45370W        W10597  11.370  41.519  11.466
45371W        W10598   4.170   9.661  14.864
45372W        W10599  12.325  32.560  10.876
45373W        W10600   7.190   8.446   3.310
45374W        W10601  28.419   3.387  13.777
45375W        W10602  11.628   5.028   3.953
45376W        W10603   7.474  12.845  14.954
45377W        W10604  17.847  40.085   1.906
45378W        W10605  28.966  28.057   3.737
45379W        W10606  44.253   3.716  12.826
45380W        W10607   5.846  39.216  10.688
45381W        W10608   1.685  20.624  12.876
45382W        W10609  38.638  38.344   4.047
45383W        W10610  29.860   9.892  14.969
45384W        W10611  16.545  38.987  14.437
45385W        W10612  28.241  43.487  11.221
45386W        W10613  35.456  15.622   3.782
45387W        W10614   4.767  14.676   4.168
45388W        W10615  23.008  17.017  14.808
45389W        W10616   8.603  19.806   1.354
45390W        W10617   2.782  11.612  14.736
45391W        W10618  32.008   8.964   2.272
45392W        W10619   4.482  19.588  12.605
45393W        W10620   7.371  43.374  11.610
45394W        W10621  44.449  41.004   2.335
45395W        W10622  37.101   5.630   4.943
45396W        W10623  18.535  37.347   3.687
45397W        W10624  12.686  26.056   1.595
45398W        W10625  30.107  11.320  13.317
45399W        W10626  22.529  14.777  10.933
45400W        W10627  41.307  23.107  13.566
45401W        W10628  10.168   5.182   0.799
45402W        W10629  11.992  44.392   2.873
45403W        W10630   9.170  29.027  12.547
45404W        W10631  10.771  35.857   2.615
45405W        W10632  43.489  34.084  11.610
45406W        W10633  27.275   9.479   2.403
45407W        W10634  11.400  42.980  11.023
45408W        W10635  43.017  10.722  12.409
45409W        W10636  16.264  33.986  12.598
45410W        W10637  32.044  21.647   1.684
45411W        W10638   0.783  29.614  12.981
45412W        W10639  11.172  30.431   3.219
45413W        W10640  39.824  19.457  12.157
45414W        W10641  41.305  15.229   2.178
45415W        W10642  16.403  34.810   2.365
45416W        W10643   6.381  18.316   1.795
45417W        W10644  23.571   3.444   2.560
45418W        W10645  17.766  43.850   3.715
45419W        W10646  40.583  29.967   3.088
45420W        W10647  32.000  32.149   3.706
45421W        W10648   5.965   5.436   1.306
45422W        W10649  11.800   6.276  13.572
45423W        W10650   1.879  41.926   3.719
45424W        W10651  18.712  39.767   3.794
45425W        W10652  33.392  17.226  12.048
45426W        W10653  24.410  32.107   4.547
45427W        W10654  11.844  12.227  14.537
45428W        W10655   4.868   7.778   1.753
45429W        W10656  14.282   6.845   2.022
45430W        W10657  23.084   8.625  12.447
45431W        W10658  22.251  25.262   0.411
45432W        W10659  26.877  19.044  12.368
45433W        W10660   6.725  32.059   1.338
45434W        W10661  41.100  19.987  14.243
45435W        W10662  21.278  25.091   0.604
45436W        W10663   1.302   4.451  13.393
45437W        W10664  42.867  20.665  14.381
45438W        W10665  18.337  25.113   2.502
45439W        W10666   1.328  12.337   3.651
45440W        W10667  20.945  13.619  11.260
45441W        W10668   7.928  14.051  11.118
45442W        W10669  30.516  26.339   4.179
45443W        W10670  33.023  16.724  14.341
45444W        W10671  28.678  42.915   0.449
45445W        W10672  38.097  14.284   2.287
45446W        W10673  20.146   3.297   2.603
45447W        W10674   4.830   3.883   0.225
45448W        W10675  21.080  31.063  10.931
45449W        W10676  30.831  35.371   2.013
45450W        W10677  20.986  40.578  12.376
45451W        W10678  39.399  19.216   4.063
45452W        W10679  19.798   1.926  12.510
45453W        W10680   2.915  22.173  10.631
45454W        W10681  38.883   1.997   2.084
45455W        W10682  29.250  39.616   0.797
45456W        W10683  12.002  20.957  10.490
45457W        W10684  44.598  20.317  10.665
45458W        W10685   1.019  10.184   3.753
45459W        W10686  42.504  23.177  12.517
45460W        W10687   2.752  36.515  12.927
45461W        W10688  43.146  25.663  10.630
45462W        W10689  37.515  22.616   3.022
45463W        W10690   0.868  31.070  11.018
45464W        W10691  21.494   0.074   1.740
45465W        W10692  39.947  22.315  13.546
45466W        W10693  26.119  32.634   0.266
45467W        W10694  22.279   4.765   1.509
45468W        W10695  10.278  25.511  12.685
45469W        W10696  33.906  11.115  11.051
45470W        W10697  20.244  37.884  13.937
45471W        W10698   7.406  18.227   2.244
45472W        W10699  36.810   9.667   3.758
45473W        W10700  15.584  23.742   3.243
45474W        W10701  23.173  35.487   1.406
45475W        W10702  40.119   3.941  10.800
45476W        W10703  26.909  37.908   4.835
45477W        W10704  25.962  11.944   2.122
45478W        W10705   2.220  12.360   0.794
45479W        W10706  33.896  32.327  10.458
45480W        W10707   9.680  27.958  11.854
45481W        W10708  25.052  22.518  10.691
45482W        W10709  26.415   3.837   0.613
45483W        W10710  23.766  29.713  11.624
45484W        W10711  11.353  15.392   0.585
45485W        W10712  44.304  19.463  11.676
45486W        W10713  34.459  11.324  14.835
45487W        W10714  16.747   7.134  13.084
45488W        W10715  27.978  21.145  11.147
45489W        W10716  25.273  41.134  11.734
45490W        W10717  29.685   2.608  11.849
45491W        W10718  37.476  19.575   3.620
45492W        W10719   5.941  10.115  10.991
45493W        W10720  35.624  15.549  11.706
45494W        W10721   0.811  43.910   5.416
45495W        W10722  38.532   7.712   2.568
45496W        W10723  19.670  40.152   0.453
45497W        W10724  37.363  26.145   2.261
45498W        W10725   9.859  19.711   2.226
45499W        W10726  21.117  36.205   2.736
45500W        W10727   8.485  40.453  11.589
45501W        W10728  14.571  31.641  14.410
45502W        W10729   6.894   2.777   2.901
45503W        W10730  43.870  34.818  14.976
45504W        W10731  28.562  21.134  11.838
45505W        W10732   6.005   5.745   2.028
45506W        W10733   5.863   2.222   0.909
45507W        W10734  31.378   0.957  11.401
45508W        W10735  17.081   1.452   3.492
45509W        W10736  34.417  27.564   3.195
45510W        W10737  15.796  42.327   1.207
45511W        W10738   9.254  44.853   2.774
45512W        W10739   6.182  21.645   3.276
45513W        W10740  29.704   4.924   2.598
45514W        W10741   6.293  38.938  11.465
45515W        W10742  20.754   8.822  14.122
45516W        W10743  35.000  29.650  10.240
45517W        W10744  27.225  10.269   0.283
45518W        W10745  15.577  43.066   0.893
45519W        W10746  31.887  14.965  12.910
45520W        W10747  10.401  28.557  14.882
45521W        W10748  22.126   4.346   0.888
45522W        W10749  33.525  15.222  11.198
45523W        W10750  23.915   6.698   4.445
45524W        W10751  20.196  17.575  10.278
45525W        W10752  13.998  34.989  14.846
45526W        W10753  34.976  18.423  11.150
45527W        W10754   2.283  29.082  11.440
45528W        W10755  16.932  39.195   2.227
45529W        W10756   6.396  20.275   2.741
45530W        W10757  37.449  21.926  14.742
45531W        W10758  23.797   2.207   1.219
45532W        W10759  28.468  21.557  12.162
45533W        W10760  40.056  17.523   3.234
45534W        W10761  39.887  38.833  13.008
45535W        W10762  37.076  34.845   3.127
45536W        W10763   5.474  43.493   2.246
45537W        W10764   3.038  43.865   0.685
45538W        W10765   6.180  37.318   4.948
45539W        W10766  16.555  26.094  13.953
45540W        W10767   6.517  37.419   4.396
45541W        W10768  43.564  19.519   3.180
45542W        W10769  18.921  17.703  14.303
45543W        W10770  43.836   2.327  10.550
45544W        W10771   5.114  30.421  11.110
45545W        W10772  15.803  15.611  11.530
45546W        W10773   3.433  27.372  13.658
45547W        W10774  33.554  41.848   1.225
45548W        W10775   8.109  14.488  10.257
45549W        W10776  27.857   1.294  13.354
45550W        W10777  42.762   8.184   0.298
45551W        W10778   6.737  42.271   2.817
45552W        W10779  10.650  12.774   3.357
45553W        W10780  25.412  28.044   3.720
45554W        W10781   2.400  23.347  11.945
45555W        W10782  24.294  17.225   4.701
45556W        W10783  31.502  34.967   5.296
45557W        W10784  38.865  23.537  13.492
45558W        W10785  43.448  28.125   2.708
45559W        W10786  22.814  37.479  14.024
45560W        W10787  33.768   0.549  12.490
45561W        W10788  13.448  35.642  12.789
45562W        W10789  26.245   3.478  13.479
45563W        W10790  16.345  39.248  13.981
45564W        W10791  25.217  11.137  12.560
45565W        W10792  31.576  37.828  13.407
45566W        W10793  37.566  31.055   1.917
45567W        W10794  14.136  21.566   3.141
45568W        W10795   8.002   7.629   0.881
45569W        W10796   4.122  28.477   2.861
45570W        W10797  12.814   9.156   2.338
45571W        W10798  21.026  17.019   4.587
45572W        W10799  42.599  25.011  11.120
45573W        W10800   2.418  42.350  10.601
45574W        W10801  33.564   3.766  12.627
45575W        W10802  22.681  16.878  14.415
45576W        W10803  22.272  29.430   4.560
45577W        W10804  36.916   8.671   4.663
45578W        W10805  30.186  38.866   3.844
45579W        W10806  32.086  34.993   0.273
45580W        W10807  38.056  13.632   4.546
45581W        W10808   8.332  24.721  11.545
45582W        W10809  42.372  30.925  13.478
45583W        W10810  11.411  32.128  13.436
45584W        W10811  39.123  36.625  14.779
45585W        W10812  16.625  19.320  14.348
45586W        W10813  37.062  37.081   3.165
45587W        W10814  12.275  17.308  13.894
45588W        W10815  35.895  21.776   1.923
45589W        W10816  22.118   7.418   3.069
45590W        W10817  10.091   2.070   2.444
45591W        W10818  33.450  23.253   4.674
45592W        W10819  35.779  23.032   3.781
45593W        W10820  13.638  11.832  13.344
45594W        W10821   3.326  32.011   0.007
45595W        W10822   2.644  14.583   4.755
45596W        W10823  20.547  34.073  11.072
45597W        W10824   7.362  30.930  12.507
45598W        W10825  38.457  28.343   3.293
45599W        W10826   7.277  33.667  12.470
45600W        W10827  21.047  18.056   2.413
45601W        W10828  12.262   3.190  13.410
45602W        W10829  43.207   4.617   0.999
45603W        W10830   7.226  10.599   1.854
45604W        W10831  20.613  21.465   4.132
45605W        W10832   0.283  22.093   2.827
45606W        W10833  14.297  33.866   1.683
45607W        W10834   8.437  17.205  13.529
45608W        W10835  35.460  42.703  12.162
45609W        W10836   3.512  24.316  14.787
45610W        W10837  16.062  21.433   1.189
45611W        W10838  42.558  32.003  11.176
45612W        W10839  12.206   8.736  13.829
45613W        W10840  36.778  26.871  11.930
45614W        W10841  17.740  23.059   4.343
45615W        W10842  39.400  37.804  14.886
45616W        W10843  12.333  12.322  12.628
45617W        W10844  15.866  34.855   2.345
45618W        W10845  14.577  26.215   1.700
45619W        W10846  23.070  42.466  11.564
45620W        W10847  36.040  30.156  11.157
45621W        W10848   9.308  27.089  14.096
45622W        W10849   1.254   6.331   2.344
45623W        W10850  14.745  26.994  11.175
45624W        W10851  41.928  13.450   3.114
45625W        W10852  32.330  14.700   1.803
45626W        W10853  35.069  36.573  13.905
45627W        W10854  26.639  13.877  12.127
45628W        W10855  14.237   8.787   3.655
45629W        W10856   4.164   0.776  13.979
45630W        W10857  40.402   5.128  13.417
45631W        W10858   3.069   2.314   2.410
45632W        W10859  19.747  24.270   4.919
45633W        W10860   7.941  43.083   4.248
45634W        W10861  21.592  18.300  13.144
45635W        W10862   4.898  22.140   4.465
45636W        W10863  14.573  20.950   3.737
45637W        W10864  27.932  15.717   1.807
45638W        W10865  32.077  10.088   4.035
45639W        W10866   4.254  26.448   0.827
45640W        W10867  11.868  23.488   4.803
45641W        W10868  26.298   9.871  11.634
45642W        W10869   4.345  27.638   1.796
45643W        W10870  44.233   2.329  12.842
45644W        W10871  13.717  38.605   2.637
45645W        W10872  28.085  33.561   1.028
45646W        W10873  35.344   2.957  10.846
45647W        W10874   9.641   7.897  13.066
45648W        W10875  13.042  16.624  11.501
45649W        W10876  29.423  43.942  11.350
45650W        W10877   9.452  17.392   1.360
45651W        W10878  43.287   9.729   3.864
45652W        W10879  25.697  13.143  12.816
45653W        W10880  11.675  21.152   1.476
45654W        W10881  27.579   3.042   0.782
45655W        W10882  31.474  12.848  14.022
45656W        W10883  10.823  25.010  12.898
45657W        W10884   6.975  22.307  11.578
45658W        W10885  22.491  22.081   0.259
45659W        W10886   3.475  16.375  11.284
45660W        W10887  18.943  16.665   4.101
45661W        W10888  13.769  12.731   2.165
45662W        W10889  33.583   8.321   4.618
45663W        W10890  13.345  13.746   4.477
45664W        W10891  44.417   3.488  12.394
45665W        W10892  18.811  43.455  11.132
45666W        W10893   8.267  22.082  10.980
45667W        W10894  27.405  36.417   1.904
45668W        W10895  10.880   4.889   2.364
45669W        W10896  29.546  12.642   2.922
45670W        W10897   7.906  36.570   0.292
45671W        W10898  37.161  35.026   2.071
45672W        W10899  41.867  19.573  14.103
45673W        W10900   3.737  44.795   5.005
45674W        W10901  29.638  34.379   0.840
45675W        W10902  16.348  42.099  13.019
45676W        W10903  34.444  33.120   3.747
45677W        W10904  37.254   0.092  11.984
45678W        W10905  32.949   8.299  13.930
45679W        W10906  37.282  10.147   1.021
45680W        W10907  33.579  11.012  11.466
45681W        W10908   5.334  11.449   1.765
45682W        W10909  26.066  19.284  13.913
45683W        W10910  18.170  28.595   4.279
45684W        W10911  37.697  12.683   5.047
45685W        W10912  10.574   3.269  13.978
45686W        W10913  21.152  39.622   4.885
45687W        W10914  18.211  36.035  14.107
45688W        W10915  20.392   0.517  12.330
45689W        W10916   9.894  18.563   3.129
45690W        W10917   0.818  31.513   4.336
45691W        W10918   8.894  15.269   0.469
45692W        W10919  29.582  21.936   4.877
45693W        W10920  28.063   3.382  12.483
45694W        W10921  37.306  33.043  13.077
45695W        W10922  43.407  35.029  14.795
45696W        W10923  33.470  30.665   0.375
45697W        W10924  42.873   5.226   4.149
45698W        W10925   5.507  23.996   0.812
45699W        W10926  18.290  13.767   1.906
45700W        W10927  20.065  44.333   2.288
45701W        W10928  42.785   6.867  14.864
45702W        W10929  27.225  35.409   0.434
45703W        W10930  31.533  27.201  12.989
45704W        W10931  25.463  40.383  11.457
45705W        W10932   9.074  33.610   4.370
45706W        W10933  21.533  22.249   0.065
45707W        W10934  18.079  40.410   1.365
45708W        W10935  25.975   3.402  13.056
45709W        W10936  12.875  20.081  13.332
45710W        W10937  13.829  36.928  14.210
45711W        W10938  42.947  15.389  12.869
45712W        W10939   1.781   1.253   3.138
45713W        W10940   4.358  37.902  10.476
45714W        W10941  38.001  20.404  12.001
45715W        W10942  36.468  11.113   2.827
45716W        W10943  42.716  38.615   3.690
45717W        W10944   1.261  15.716   3.664
45718W        W10945  40.739  24.427  14.954
45719W        W10946  34.061   0.119   1.898
45720W        W10947  35.154  19.604   3.310
45721W        W10948  21.902  18.687  12.987
45722W        W10949  13.137  22.464  11.920
45723W        W10950  40.065  17.006   3.301
45724W        W10951  10.264  39.756  11.567
45725W        W10952  22.438  40.330   2.704
45726W        W10953   7.135  28.811   2.681
45727W        W10954  14.670  20.253  11.627
45728W        W10955   6.224  10.443   0.766
45729W        W10956  43.865   8.307   0.409
45730W        W10957  15.811  35.620  11.934
45731W        W10958  31.544  24.158  12.528
45732W        W10959  19.376  16.744  12.962
45733W        W10960  33.337  15.674   0.024
45734W        W10961  10.554  37.050  14.933
45735W        W10962   6.061  15.848   1.903
45736W        W10963  12.629  15.692   0.218
45737W        W10964  22.764  15.687   1.388
45738W        W10965  11.793  36.631  13.001
45739W        W10966  29.101  16.679   2.285
45740W        W10967  32.835   3.947   1.674
45741W        W10968  16.764  40.334   3.862
45742W        W10969  38.260  36.120   3.173
45743W        W10970  44.453   2.992  12.494
45744W        W10971   6.960  38.079   1.918
45745W        W10972  20.173  14.585   2.173
45746W        W10973  17.880  29.999  11.125
45747W        W10974   9.697  40.933  10.609
45748W        W10975  19.932   3.617  14.606
45749W        W10976  42.845  28.038  12.717
45750W        W10977  29.433  42.606  11.535
45751W        W10978  19.263   1.035   4.715
45752W        W10979  25.110   2.870  12.511
45753W        W10980   4.748  13.030   2.670
45754W        W10981  12.598  20.017   3.248
45755W        W10982  21.012  10.517  13.935
45756W        W10983  18.674  21.971   1.224
45757W        W10984  34.928  32.244  13.476
45758W        W10985  18.186  30.767   2.765
45759W        W10986  14.965  26.934  13.570
45760W        W10987  19.565  38.554   1.303
45761W        W10988  31.925   7.390   3.119
45762W        W10989   4.526   3.900   1.843
45763W        W10990   0.735  42.547   0.816
45764W        W10991  25.010  35.084   1.455
45765W        W10992  20.705  37.142  11.987
45766W        W10993  39.502  16.700  11.900
45767W        W10994  28.572  27.507   1.717
45768W        W10995  10.301  17.893  11.660
45769W        W10996   0.890   2.886   4.168
45770W        W10997  27.013  43.566  12.004
45771W        W10998  43.940  43.917   1.338
45772W        W10999   9.576   9.665   3.699
45773W        W11000   1.305  24.511   0.717
45774W        W11001  35.074  34.567   3.614
45775W        W11002  38.823  17.187   1.347
45776W        W11003  31.627  44.356   0.332
45777W        W11004  13.156  11.682  13.251
45778W        W11005  32.662   3.297  10.820
45779W        W11006  40.863  18.162   4.529
45780W        W11007  12.174  40.148  10.956
45781W        W11008  10.468  31.149  13.266
45782W        W11009  23.110  33.818  13.072
45783W        W11010  15.820  41.017   4.112
45784W        W11011  25.869  22.807   1.314
45785W        W11012  25.123  15.975  11.514
45786W        W11013  23.774  39.125  10.352
45787W        W11014   9.143  19.695  13.905
45788W        W11015   2.678   5.752  13.831
45789W        W11016   2.657  13.363   1.755
45790W        W11017  33.390  44.406  10.283
45791W        W11018  19.665  11.295  11.071
45792W        W11019  25.513  27.633  14.579
45793W        W11020  21.689  22.674   1.890
45794W        W11021  15.380   7.213  12.882
45795W        W11022  21.032  12.228  11.832
45796W        W11023   6.435  16.751  12.354
45797W        W11024  38.569   5.185   0.069
45798W        W11025  30.643  13.759  12.416
45799W        W11026   9.493  23.750   1.018
45800W        W11027  38.788  11.829  13.573
45801W        W11028  12.526  34.125  13.959
45802W        W11029  28.313   4.839  10.909
45803W        W11030   7.252   1.857   4.125
45804W        W11031  10.369  42.800  13.574
45805W        W11032  43.552  27.835   4.076
45806W        W11033  37.858  44.864   0.368
45807W        W11034  17.365   5.252  12.470
45808W        W11035  38.373  34.401  12.840
45809W        W11036  40.486  24.671   4.788
45810W        W11037   0.022  22.514   2.751
45811W        W11038  21.454  30.203   2.529
45812W        W11039   7.338  37.492  10.645
45813W        W11040  21.663  34.100  10.703
45814W        W11041  10.177   2.920   4.578
45815W        W11042   3.867   9.028   0.778
45816W        W11043  26.454   2.395  11.187
45817W        W11044  11.340  17.031   4.812
45818W        W11045   1.151  21.295   1.750
45819W        W11046   5.099  39.436  12.122
45820W        W11047  10.851  14.345  14.347
45821W        W11048  35.458  35.033   4.837
45822W        W11049  19.159   4.490  10.494
45823W        W11050  21.220  30.460  10.040
45824W        W11051  15.748   9.810  11.653
45825W        W11052  37.471   6.178  13.740
45826W        W11053  31.963  32.306  10.756
45827W        W11054   5.141  14.590   0.704
45828W        W11055  21.274  23.136  11.904
45829W        W11056  33.293  21.268   1.716
45830W        W11057  19.366   4.924   1.229
45831W        W11058   8.310  43.972   1.638
45832W        W11059  11.727  11.696  13.438
45833W        W11060  17.411  24.156   2.482
45834W        W11061   1.506   3.387   4.667
45835W        W11062  10.732  39.352   2.140
45836W        W11063   8.628  22.954  13.682
45837W        W11064  38.734  14.331  12.095
45838W        W11065   1.822   6.854  10.911
45839W        W11066  42.702  32.567  10.513
45840W        W11067  41.057  43.327   1.334
45841W        W11068  17.280  40.804  12.082
45842W        W11069  44.076  44.990   1.062
45843W        W11070  42.325  19.835  14.030
45844W        W11071  38.517   8.862  13.539
45845W        W11072  37.091   7.199  14.430
45846W        W11073  14.087  14.396   0.377
45847W        W11074   7.766  18.042   4.215
45848W        W11075  24.304   2.546  13.125
45849W        W11076  14.173   7.688  13.316
45850W        W11077  41.949  37.666  13.389
45851W        W11078  42.563   0.233  14.489
45852W        W11079   8.372  42.295   3.349
45853W        W11080  25.134  10.850   3.252
45854W        W11081  18.257  24.816  13.853
45855W        W11082  29.600  14.642   4.878
45856W        W11083  37.570   8.652   0.274
45857W        W11084  10.546  23.663   9.861
45858W        W11085  34.990  38.217  11.397
45859W        W11086   6.561   7.641   4.276
45860W        W11087  12.351  16.542   3.134
45861W        W11088  34.583   3.212   4.175
45862W        W11089  23.439  16.314  10.922
45863W        W11090  24.171  16.444   0.464
45864W        W11091  10.509   7.705  13.780
45865W        W11092  31.594  33.427   1.223
45866W        W11093  24.513  37.602  12.063
45867W        W11094  23.536  30.730  11.548
45868W        W11095  21.708   6.248  11.542
45869W        W11096  23.527  39.816  12.081
45870W        W11097  40.332   8.382   0.319
45871W        W11098   0.809  38.484  14.819
45872W        W11099  26.157  40.130   4.538
45873W        W11100   1.819  25.102   4.125
45874W        W11101  13.278   0.542  12.876
45875W        W11102  22.970  12.189   4.404
45876W        W11103  10.260  31.582  13.077
45877W        W11104  36.426  23.252   0.438
45878W        W11105   9.325  24.169  11.536
45879W        W11106  25.409  17.577  12.491
45880W        W11107  33.077  14.604  13.473
45881W        W11108  24.729  30.249  14.136
45882W        W11109  41.051  24.210   4.103
45883W        W11110  38.058  37.552   3.707
45884W        W11111   8.772   0.198  12.507
45885W        W11112  43.765  25.729  12.025
45886W        W11113   1.502  43.543  11.695
45887W        W11114  38.732  10.195  13.689
45888W        W11115  31.507   3.641  11.982
45889W        W11116  27.944  12.752   4.117
45890W        W11117  20.264  28.930  11.006
45891W        W11118  32.554   9.272   0.780
45892W        W11119  36.382  26.557   0.357
45893W        W11120  15.737   4.801   1.739
45894W        W11121  29.285  40.717  12.630
45895W        W11122  41.471   4.783  11.588
45896W        W11123  20.802  26.406  14.500
45897W        W11124  28.461  25.959   4.113
45898W        W11125   8.641   1.422   1.393
45899W        W11126  25.462   3.716   0.983
45900W        W11127  30.205  34.596  10.366
45901W        W11128  16.164  27.635   2.704
45902W        W11129   1.918  19.386   5.051
45903W        W11130   4.482   0.524   0.302
45904W        W11131  12.186   1.103  12.471
45905W        W11132   9.535   2.776   2.946
45906W        W11133  10.566  42.322  13.001
45907W        W11134   8.718  43.068  10.702
45908W        W11135  39.160   4.807   1.566
45909W        W11136  11.249  41.472   0.689
45910W        W11137   0.893   7.930   4.698
45911W        W11138  23.320  17.356  12.055
45912W        W11139   8.880  17.261  12.044
45913W        W11140  42.499  42.659   4.141
45914W        W11141  13.204  36.267   0.905
45915W        W11142  37.563  26.160  10.841
45916W        W11143  28.781  13.133  14.481
45917W        W11144  36.429   2.954  12.901
45918W        W11145   5.028  20.927   9.939
45919W        W11146  27.485  29.016  14.951
45920W        W11147  14.128   8.179  12.097
45921W        W11148  43.217   7.661   0.799
45922W        W11149  40.929  17.519   3.202
45923W        W11150  29.629  21.776  12.482
45924W        W11151  37.511  21.550   4.821
45925W        W11152   1.755  14.306  12.966
45926W        W11153   1.573  34.222  11.503
45927W        W11154  39.842  23.960   1.532
45928W        W11155  21.696  31.542   4.622
45929W        W11156  18.512  13.366   0.672
45930W        W11157  27.479  13.718  13.472
45931W        W11158  29.870  31.866  11.973
45932W        W11159  34.924  33.520  10.688
45933W        W11160  21.597   1.508   9.802
45934W        W11161  44.805  26.611  12.980
45935W        W11162   4.022  16.623   4.949
45936W        W11163  41.578  29.097   3.501
45937W        W11164  35.583  38.352   4.566
45938W        W11165   4.033  40.948  11.583
45939W        W11166  11.311   0.297  10.673
45940W        W11167  16.621  43.277  11.350
45941W        W11168  19.217  39.264  14.028
45942W        W11169  20.064  33.472   4.437
45943W        W11170  14.340  40.841   0.799
45944W        W11171  34.793  30.551   2.353
45945W        W11172  24.636   3.488   5.028
45946W        W11173  14.647  12.739   2.145
45947W        W11174   0.483  22.065  13.372
45948W        W11175  33.482   4.422  11.647
45949W        W11176   4.620  38.739  11.903
45950W        W11177  19.092  30.561  13.415
45951W        W11178   7.214   8.179  12.918
45952W        W11179  11.233  17.990  13.452
45953W        W11180  17.112  27.907   0.849
45954W        W11181  15.231  19.847   0.919
45955W        W11182  43.672  37.556  11.122
45956W        W11183  21.735  30.188   0.959
45957W        W11184   9.294  39.783   1.211
45958W        W11185  30.502  16.635  13.991
45959W        W11186  29.163  36.100  14.028
45960W        W11187  33.871  22.587   2.208
45961W        W11188  44.155  18.575  10.743
45962W        W11189  22.507  34.526  13.075
45963W        W11190  13.078   1.893  11.974
45964W        W11191  42.825  26.034   0.449
45965W        W11192  23.731  34.418  13.680
45966W        W11193   6.864  27.745   2.573
45967W        W11194  34.019  32.647   2.597
45968W        W11195  27.236  19.604   0.241
45969W        W11196   7.989  17.176   3.118
45970W        W11197  43.949  40.065   3.329
45971W        W11198  31.648  10.725   2.826
45972W        W11199  24.150  18.502  12.422
45973W        W11200  27.256  12.745  11.088
45974W        W11201  44.680  19.858  12.443
45975W        W11202  21.592  19.644  12.238
45976W        W11203  38.018  39.518  12.592
45977W        W11204   1.222  31.637  10.536
45978W        W11205  12.850  40.915   0.022
45979W        W11206  33.641   7.125   3.274
45980W        W11207  27.712  18.413  12.072
45981W        W11208  28.605  41.228   1.166
45982W        W11209  27.178   0.285  11.068
45983W        W11210  39.423  34.017  14.155
45984W        W11211  22.180  18.065   1.494
45985W        W11212  11.741   7.383  12.558
45986W        W11213   4.489  41.763  12.637
45987W        W11214  15.754  26.302  14.482
45988W        W11215  34.100  27.526   0.392
45989W        W11216  37.844   5.141  14.383
45990W        W11217  23.000  38.568  12.023
45991W        W11218   5.491  23.940  11.333
45992W        W11219  17.911  29.488   2.747
45993W        W11220   8.792  17.240   3.704
45994W        W11221   6.740  14.635  13.014
45995W        W11222  34.722  40.985   4.393
45996W        W11223  28.614  22.130  11.684
45997W        W11224  11.251  14.576  11.382
45998W        W11225  13.263   8.006  11.972
45999W        W11226   8.775   6.503  11.527
46000W        W11227  35.326   1.285  13.402
46001W        W11228  37.566   7.149  14.233
46002W        W11229  40.655  22.693   3.883
46003W        W11230  34.990  18.747   3.341
46004W        W11231  16.605   3.911  13.340
46005W        W11232  43.035  34.967  13.343
46006W        W11233  15.856  27.630  11.150
46007W        W11234   3.681  36.272   4.088
46008W        W11235  13.086  35.046   0.071
46009W        W11236  40.552  11.732  13.802
46010W        W11237  27.570  36.824  11.535
46011W        W11238   1.314   1.795   0.348
46012W        W11239  21.374  21.705   2.266
46013W        W11240   0.245  44.531   2.141
46014W        W11241   0.469  36.042  11.556
46015W        W11242  40.773  21.136  13.933
46016W        W11243  34.359  21.229   3.641
46017W        W11244  14.502  14.713   2.821
46018W        W11245   3.781  24.787  12.842
46019W        W11246  14.069  21.807  13.941
46020W        W11247   1.449   0.885  14.366
46021W        W11248  32.588  34.909   4.248
46022W        W11249  36.794  42.077   1.266
46023W        W11250  35.323  23.636  13.159
46024W        W11251  40.729  38.316  12.054
46025W        W11252   7.659  24.304   2.675
46026W        W11253  30.052  23.600  14.816
46027W        W11254  40.793  12.593  11.188
46028W        W11255  29.458  28.688   3.258
46029W        W11256  34.955  16.019   4.641
46030W        W11257  38.507  31.931   3.713
46031W        W11258  11.277   1.782  11.899
46032W        W11259  14.788  32.203  10.715
46033W        W11260  22.185  11.058   0.022
46034W        W11261   5.804   8.615   4.728
46035W        W11262   7.239   9.631   1.786
46036W        W11263  21.550  11.156   3.270
46037W        W11264  12.357  43.464   3.080
46038W        W11265  41.535  42.498  11.580
46039W        W11266   4.675   8.276   1.723
46040W        W11267  19.212  39.235   2.538
46041W        W11268  17.573   3.925   3.208
46042W        W11269  22.273   8.366   3.126
46043W        W11270  27.405  14.862  12.193
46044W        W11271  32.863   5.390   1.816
46045W        W11272  26.756  36.422   1.338
46046W        W11273  12.203   8.602   4.289
46047W        W11274  34.787   6.376   1.290
46048W        W11275  34.306  35.497   3.622
46049W        W11276  20.301  19.511  12.083
46050W        W11277  11.527  21.594   4.259
46051W        W11278  32.676  24.224   4.647
46052W        W11279  44.342  16.558  12.127
46053W        W11280  39.264  37.503  11.848
46054W        W11281  35.313  14.583   1.327
46055W        W11282  24.719  21.908  11.428
46056W        W11283  10.687  32.938  14.954
46057W        W11284   9.516   5.469   1.921
46058W        W11285   4.563  39.957   1.301
46059W        W11286  29.961  29.325   1.244
46060W        W11287  16.823  36.465  13.852
46061W        W11288  21.611  19.157  11.987
46062W        W11289  17.162  17.222  14.232
46063W        W11290  26.906  43.381  11.535
46064W        W11291   1.612  44.195   0.106
46065W        W11292  36.959  10.574   2.290
46066W        W11293   2.326  36.405  11.613
46067W        W11294  41.374   2.792  12.613
46068W        W11295   6.197  41.126  11.187
46069W        W11296  32.373   8.236   1.895
46070W        W11297  11.665   0.671  12.185
46071W        W11298   9.956  19.701   3.704
46072W        W11299  30.272   8.553   4.525
46073W        W11300  23.530   8.356  11.675
46074W        W11301  26.694  25.034  13.085
46075W        W11302  23.018  42.167   3.247
46076W        W11303  39.457  23.164  14.325
46077W        W11304   0.652  36.045   4.936
46078W        W11305  22.420  25.121   1.275
46079W        W11306   3.846  12.850   1.232
46080W        W11307  35.339  13.900   1.321
46081W        W11308  15.468  26.190   3.311
46082W        W11309  39.434   8.817   4.185
46083W        W11310  11.567  19.133   2.870
46084W        W11311  10.121  24.625   1.798
46085W        W11312  18.923  36.112   1.451
46086W        W11313  41.118  36.083   2.949
46087W        W11314  13.551  27.365  14.854
46088W        W11315  39.007  30.375   9.881
46089W        W11316  27.485  44.071   3.202
46090W        W11317  22.348   6.366   1.711
46091W        W11318   1.833  29.337  13.832
46092W        W11319  40.405  38.892  10.942
46093W        W11320  12.141  27.615   0.935
46094W        W11321  31.711   7.029  11.225
46095W        W11322  29.371  20.513  11.143
46096W        W11323  15.699  20.121   0.824
46097W        W11324   5.544  22.170   2.771
46098W        W11325  15.032  22.209  12.126
46099W        W11326  12.352  22.114   3.280
46100W        W11327  18.335  18.027   0.044
46101W        W11328   8.717  34.848   1.158
46102W        W11329   0.777  37.017   4.939
46103W        W11330  24.110  33.000   1.023
46104W        W11331  21.954  28.176   0.766
46105W        W11332  41.120  27.558  14.054
46106W        W11333  26.569   0.287  12.422
46107W        W11334  44.432  40.715  13.083
46108W        W11335   2.282  29.904   4.972
46109W        W11336   5.652  14.646   3.572
46110W        W11337  26.493  44.511   2.815
46111W        W11338  12.635  10.234   2.308
46112W        W11339   9.205  41.631  13.643
46113W        W11340   0.314  27.473  14.802
46114W        W11341  26.077   5.613  11.741
46115W        W11342  15.816  16.266  10.707
46116W        W11343   3.824   9.065   4.455
46117W        W11344  10.681   5.194   0.999
46118W        W11345  31.098  25.441   4.958
46119W        W11346   6.381  44.846   1.919
46120W        W11347  37.456  40.461  13.859
46121W        W11348  39.452   4.170   2.509
46122W        W11349  18.106  11.921  11.151
46123W        W11350  35.409  39.981   2.329
46124W        W11351  19.262  13.074   2.836
46125W        W11352  38.370  15.340  11.526
46126W        W11353  17.233   6.827   3.429
46127W        W11354  12.410  35.220   4.991
46128W        W11355  43.786  36.999  12.815
46129W        W11356  36.858  25.605   4.190
46130W        W11357  26.571  17.353   0.786
46131W        W11358  31.654  43.560  11.170
46132W        W11359  35.165  19.514  11.358
46133W        W11360  11.305  41.029   1.709
46134W        W11361  10.773  21.291   2.342
46135W        W11362  27.188   3.127   1.169
46136W        W11363  35.399  39.083  12.867
46137W        W11364  39.381  32.442  10.465
46138W        W11365  13.093  31.443  12.799
46139W        W11366   7.825   3.422   1.228
46140W        W11367  33.171  18.680   1.728
46141W        W11368  41.539  30.052   2.409
46142W        W11369  37.972  14.664   3.124
46143W        W11370  33.991  30.343   4.194
46144W        W11371  28.528  15.757  13.823
46145W        W11372  24.524  25.537   2.165
46146W        W11373  17.794   0.611   3.929
46147W        W11374  31.595   9.747  13.906
46148W        W11375  37.153  14.757  11.794
46149W        W11376  19.090   0.427   4.465
46150W        W11377  27.413  11.653   1.786
46151W        W11378   3.020  41.784   3.076
46152W        W11379  12.690  14.207  11.431
46153W        W11380  31.122  28.937  12.664
46154W        W11381  32.693  15.706  12.991
46155W        W11382  37.390  28.592  11.168
46156W        W11383  11.308  17.120   4.221
46157W        W11384  15.374   6.220   3.360
46158W        W11385  37.414  31.224  13.014
46159W        W11386   4.388  16.752   3.156
46160W        W11387  33.969  13.098  10.345
46161W        W11388  32.746  23.561  10.833
46162W        W11389  13.317  43.900   0.422
46163W        W11390  22.180  15.395  13.388
46164W        W11391  22.413  35.484   3.142
46165W        W11392   2.985  42.365  12.041
46166W        W11393  24.373  22.160  13.429
46167W        W11394   1.058  12.188  13.883
46168W        W11395   0.763  24.728   0.965
46169W        W11396   0.603  40.459   2.356
46170W        W11397  22.525   9.649   4.253
46171W        W11398  11.234   8.330   0.063
46172W        W11399   7.850  32.848  13.435
46173W        W11400  41.912  13.041  12.403
46174W        W11401  13.101  27.052   2.967
46175W        W11402   0.298  39.531  10.666
46176W        W11403  25.815  37.940   2.177
46177W        W11404  26.969  16.275   3.587
46178W        W11405   9.221  16.883  12.660
46179W        W11406  15.882  16.914  10.114
46180W        W11407  10.264  28.127   3.716
46181W        W11408  38.356  38.499  12.146
46182W        W11409  22.737   5.653  13.796
46183W        W11410  28.827  31.019   0.803
46184W        W11411  37.392  17.728   3.651
46185W        W11412  13.743  36.361  12.403
46186W        W11413   8.067   0.291   1.450
46187W        W11414  39.100  11.220   1.829
46188W        W11415  37.461   9.048  10.676
46189W        W11416  12.996  12.852   2.468
46190W        W11417  21.185  13.674  13.059
46191W        W11418   8.368  36.929   3.870
46192W        W11419  24.395  17.512  12.962
46193W        W11420  15.149  21.293   2.834
46194W        W11421  35.401  15.257  10.771
46195W        W11422  42.249   4.329   2.278
46196W        W11423  10.727  19.494   4.521
46197W        W11424  30.374  38.110   2.706
46198W        W11425   3.856   2.768   3.617
46199W        W11426  22.974   5.410   3.849
46200W        W11427  41.561   3.401   1.201
46201W        W11428   1.340  23.210   4.482
46202W        W11429   5.059  34.754   0.417
46203W        W11430  12.292  36.413   0.986
46204W        W11431  22.188   6.929   2.869
46205W        W11432  20.461  40.085   2.899
46206W        W11433  26.196  38.551   2.726
46207W        W11434  30.004  10.893   0.811
46208W        W11435  19.107  36.955  12.013
46209W        W11436  14.622   7.403  13.398
46210W        W11437   4.182  36.040  11.096
46211W        W11438  38.471  21.343   0.946
46212W        W11439  23.686   7.065  10.991
46213W        W11440   4.080  10.455  12.966
46214W        W11441  14.598  13.246   1.903
46215W        W11442   8.915  29.049  14.883
46216W        W11443  17.326  16.895   0.986
46217W        W11444  34.374   2.405   2.707
46218W        W11445   3.550  33.169   2.378
46219W        W11446  22.249  41.360  14.342
46220W        W11447  37.101  24.990   4.060
46221W        W11448  39.119   9.794   2.885
46222W        W11449   3.363  19.838  12.927
46223W        W11450   6.270  18.550   4.722
46224W        W11451   8.661  42.686  12.354
46225W        W11452  28.267   5.828  12.121
46226W        W11453  31.391  14.402  10.635
46227W        W11454  30.084  31.957  13.382
46228W        W11455   7.958  17.360  13.396
46229W        W11456  39.295  41.462   2.163
46230W        W11457  36.524  29.479   4.888
46231W        W11458  27.520   7.824   1.717
46232W        W11459  16.064  42.816   0.998
46233W        W11460   1.903   0.771  11.908
46234W        W11461  30.960  18.016   0.678
46235W        W11462  20.070  36.251  14.815
46236W        W11463  42.583  42.243  11.134
46237W        W11464  15.114   8.975  10.492
46238W        W11465  42.486  24.601   1.589
46239W        W11466  42.094  24.756  12.092
46240W        W11467  25.384  28.568   1.889
46241W        W11468  10.702  28.073   4.216
46242W        W11469   3.788  22.269   1.573
46243W        W11470  11.201  36.649  13.571
46244W        W11471  13.191  19.684   2.105
46245W        W11472  10.422  16.606  14.427
46246W        W11473   6.406  30.416  13.794
46247W        W11474  41.936  10.011   0.857
46248W        W11475   1.639  20.450  12.019
46249W        W11476  34.372  10.140   1.746
46250W        W11477  40.045  43.859   4.291
46251W        W11478  40.860  24.401   4.543
46252W        W11479   5.949  43.081   0.817
46253W        W11480  18.265  30.681   0.373
46254W        W11481  21.973  13.307  14.385
46255W        W11482  12.646  10.155   0.385
46256W        W11483  39.873  27.350  11.154
46257W        W11484  43.799  33.918   2.854
46258W        W11485  32.073  42.499   3.043
46259W        W11486  25.506  27.623   0.118
46260W        W11487  30.166  31.878  11.110
46261W        W11488   2.115  17.819   1.285
46262W        W11489  35.445  17.104   4.488
46263W        W11490   7.310  18.730   0.947
46264W        W11491   5.005  17.887   3.228
46265W        W11492  16.044   1.628  12.508
46266W        W11493  41.495  13.188  11.492
46267W        W11494  30.321  31.159   2.513
46268W        W11495   9.042  33.354   2.329
46269W        W11496  25.131  42.561   0.739
46270W        W11497   8.387  44.274  11.965
46271W        W11498   3.534  25.446   2.648
46272W        W11499   5.282  10.966  13.457
46273W        W11500  44.548   0.040   0.806
46274W        W11501   3.285  17.522  11.931
46275W        W11502  42.094  44.310  11.660
46276W        W11503   2.935  44.012   4.595
46277W        W11504   9.102   9.938  14.576
46278W        W11505  17.649  16.601  12.574
46279W        W11506  41.631  40.547   0.919
46280W        W11507  29.507  40.667   4.252
46281W        W11508  18.123  32.641   3.214
46282W        W11509   4.912  31.863  11.966
46283W        W11510  18.591  22.104  12.486
46284W        W11511   8.804  18.237   2.775
46285W        W11512  41.557   4.439  12.847
46286W        W11513  32.557  12.295   2.244
46287W        W11514  42.466  32.491   1.239
46288W        W11515  24.682  33.514   4.719
46289W        W11516  12.260  16.386   1.289
46290W        W11517  20.533  32.162  11.142
46291W        W11518   8.367  38.963   3.131
46292W        W11519  25.172  43.646  12.670
46293W        W11520  36.067  26.159   3.301
46294W        W11521  35.084  34.023  10.689
46295W        W11522   6.563   7.378  11.208
46296W        W11523   1.988  37.407  10.724
46297W        W11524  31.240  39.844   5.046
46298W        W11525  15.141  44.575  10.126
46299W        W11526  36.025  23.323  12.547
46300W        W11527  17.815  37.225  12.106
46301W        W11528  25.518   9.890   1.280
46302W        W11529  13.685  32.078  14.713
46303W        W11530   1.172  26.496  12.936
46304W        W11531  20.179  23.110  11.461
46305W        W11532  39.847  13.673  14.433
46306W        W11533   1.988  22.278  14.109
46307W        W11534   4.163  43.028   2.375
46308W        W11535  24.955  43.709   0.241
46309W        W11536  16.987  30.510   2.657
46310W        W11537   1.992   1.291   3.624
46311W        W11538  17.349   8.279  11.556
46312W        W11539   9.201  37.971   4.418
46313W        W11540   1.522  10.598   1.796
46314W        W11541  37.580  40.934  11.436
46315W        W11542  34.856   2.786   4.788
46316W        W11543  29.155  38.828  12.176
46317W        W11544  15.561  22.966   2.786
46318W        W11545   7.971   6.126  13.493
46319W        W11546  25.231   7.519   4.975
46320W        W11547  36.841  15.308   0.922
46321W        W11548   0.783  15.663  11.897
46322W        W11549  33.699   6.126  14.402
46323W        W11550  16.771   5.310   3.782
46324W        W11551  23.719  41.516  10.414
46325W        W11552  39.245  15.294  13.927
46326W        W11553   9.377  18.503  12.413
46327W        W11554  27.581  41.926   0.848
46328W        W11555  26.699  22.139  12.130
46329W        W11556  14.619  15.726   9.620
46330W        W11557  35.231  30.117   1.997
46331W        W11558  40.424  16.394  11.830
46332W        W11559  26.532  38.909   1.359
46333W        W11560  26.704  12.863  12.068
46334W        W11561  42.946  33.505   5.011
46335W        W11562  32.814  10.444   1.762
46336W        W11563  31.503  28.663  13.527
46337W        W11564  19.859  33.025   4.592
46338W        W11565   0.207  14.279  11.540
46339W        W11566  36.914  34.599  10.711
46340W        W11567  43.522   5.311   2.667
46341W        W11568  31.047  16.851   1.836
46342W        W11569  15.746  40.740   1.304
46343W        W11570  33.614  39.958   0.199
46344W        W11571   4.731  14.710  14.380
46345W        W11572  13.374   5.437   1.983
46346W        W11573  41.322   2.815  14.393
46347W        W11574   8.765  36.932  12.398
46348W        W11575  18.003  16.089   1.309
46349W        W11576  25.529  11.867  14.287
46350W        W11577  20.218  25.757   2.334
46351W        W11578  18.854  25.026  10.803
46352W        W11579  42.618  27.645   0.678
46353W        W11580  25.469  43.395   2.211
46354W        W11581   5.229  11.330   4.631
46355W        W11582   5.780  22.474   2.357
46356W        W11583  20.630  29.357  10.405
46357W        W11584  11.817  20.737  13.929
46358W        W11585  13.315   4.327  14.514
46359W        W11586  20.556   3.413   4.074
46360W        W11587  40.937   7.917  13.296
46361W        W11588   3.642  26.553  13.144
46362W        W11589  35.863  21.315   4.108
46363W        W11590  13.389  35.026   4.560
46364W        W11591  40.069  37.449   1.520
46365W        W11592   7.398  44.764   2.854
46366W        W11593  15.989  32.993   3.683
46367W        W11594  34.858  20.778   3.557
46368W        W11595  12.270  29.041   3.849
46369W        W11596  41.398  18.509  11.543
46370W        W11597   2.295   2.797   3.705
46371W        W11598   8.734  16.850  13.957
46372W        W11599  44.768  28.088  12.969
46373W        W11600  43.155  30.921   4.368
46374W        W11601  27.948  12.251  13.874
46375W        W11602  43.787  34.647  12.992
46376W        W11603  29.112  14.825  11.532
46377W        W11604  44.974   4.115   4.274
46378W        W11605  10.055  37.565  10.314
46379W        W11606  42.005   1.244   1.885
46380W        W11607  28.968   5.704  14.290
46381W        W11608  27.717  20.212  14.037
46382W        W11609   6.167  39.064   4.154
46383W        W11610   7.159  33.345   0.432
46384W        W11611   8.819  41.870  14.014
46385W        W11612  31.955   6.688   0.446
46386W        W11613  14.069  37.292   1.360
46387W        W11614  38.160  18.244  13.908
46388W        W11615  24.488  32.524  10.806
46389W        W11616  24.091  22.525  10.904
46390W        W11617   7.757  33.851  13.347
46391W        W11618  10.063   2.530  14.894
46392W        W11619   2.578  20.771  11.081
46393W        W11620  33.851  35.991   3.268
46394W        W11621  32.074  12.870  13.434
46395W        W11622   7.061  27.618   1.707
46396W        W11623  14.129  17.539  13.536
46397W        W11624  22.835  21.546  13.116
46398W        W11625  14.582   2.707  13.411
46399W        W11626  28.986  20.736   0.906
46400W        W11627  10.665  37.823   2.734
46401W        W11628  21.398  39.277   0.307
46402W        W11629  40.900   0.420   4.668
46403W        W11630  12.859  20.785   3.697
46404W        W11631   3.788  29.623   2.878
46405W        W11632  27.658  16.134   0.598
46406W        W11633   9.927   4.260  12.160
46407W        W11634  19.960  14.587  14.319
46408W        W11635   3.590   3.357  10.978
46409W        W11636  28.900  34.661  13.823
46410W        W11637   9.453  11.249  13.366
46411W        W11638  37.116  15.262  13.333
46412W        W11639  25.647   0.477  12.933
46413W        W11640  31.494  23.550   3.102
46414W        W11641  35.997  26.024   4.559
46415W        W11642  20.391   8.006  14.090
46416W        W11643  40.917  30.037   3.514
46417W        W11644  25.195  14.238  13.338
46418W        W11645   3.405  13.258   4.447
46419W        W11646  35.839  16.583  11.542
46420W        W11647   3.943  30.898   2.609
46421W        W11648   6.353  39.138  10.479
46422W        W11649  33.038  37.429  12.655
46423W        W11650  11.296   4.776  12.546
46424W        W11651  12.312   2.429   2.423
46425W        W11652   1.270   3.924   1.331
46426W        W11653  29.538  29.218  13.556
46427W        W11654  11.132  12.089  13.832
46428W        W11655  27.732  26.586  10.201
46429W        W11656  18.793   5.090   0.498
46430W        W11657  41.044   9.226  11.911
46431W        W11658   2.176  30.600  11.558
46432W        W11659  30.472  36.426  14.019
46433W        W11660  15.418  16.595  12.018
46434W        W11661  22.886  19.195  14.495
46435W        W11662  12.201   2.136  14.257
46436W        W11663  27.131   1.190   0.936
46437W        W11664  11.724  32.295   3.113
46438W        W11665  36.611  18.784   3.756
46439W        W11666  29.854  37.353   2.712
46440W        W11667  26.135   7.742   3.739
46441W        W11668  11.051  41.142   3.334
46442W        W11669   5.350  25.536   0.938
46443W        W11670  22.184  17.125  13.259
46444W        W11671  25.513  12.732  11.216
46445W        W11672  36.627   5.180  13.606
46446W        W11673  43.238  31.020  12.048
46447W        W11674  36.013  27.746  13.349
46448W        W11675   3.361  16.692   3.765
46449W        W11676   8.151  17.690   2.538
46450W        W11677   0.735   2.467   3.358
46451W        W11678  37.071  21.726   0.994
46452W        W11679  28.466  21.883   3.502
46453W        W11680  31.625  40.274  11.518
46454W        W11681  16.026  32.704  12.421
46455W        W11682   2.737  44.304  13.274
46456W        W11683  27.624  22.748  11.007
46457W        W11684   9.673   1.204  14.781
46458W        W11685  24.648  15.649  10.549
46459W        W11686  26.985  44.454   0.341
46460W        W11687   8.755   0.224   3.859
46461W        W11688  18.784   4.369  13.662
46462W        W11689  18.341  24.673   4.812
46463W        W11690  41.990  10.101  10.238
46464W        W11691  27.542  21.722  13.334
46465W        W11692   6.920  19.349  11.620
46466W        W11693   1.009  42.972   0.918
46467W        W11694  28.730  10.192   3.924
46468W        W11695  20.733  35.514   1.311
46469W        W11696  18.596  38.203  13.900
46470W        W11697  25.706  43.435  12.415
46471W        W11698  38.224  34.468   2.784
46472W        W11699  14.238  27.224   4.680
46473W        W11700   8.337   0.128   0.458
46474W        W11701  35.848  18.896  12.656
46475W        W11702  26.928  40.809   0.158
46476W        W11703  35.714  25.194   1.257
46477W        W11704  38.287  23.161   4.095
46478W        W11705   4.764  11.097   4.740
46479W        W11706  28.430   2.477  10.723
46480W        W11707  18.051  26.183  11.053
46481W        W11708  28.328   9.711   3.216
46482W        W11709  35.379  31.082   2.566
46483W        W11710  12.762  39.161   0.870
46484W        W11711  30.976  40.308   0.569
46485W        W11712  10.861   9.629  11.994
46486W        W11713   3.815  12.777   0.346
46487W        W11714  10.703  21.206  10.666
46488W        W11715  43.273   4.467  10.381
46489W        W11716  25.244  12.535  13.864
46490W        W11717  27.730   0.198  11.878
46491W        W11718   6.729  14.078   3.277
46492W        W11719  43.452  27.911  11.447
46493W        W11720  24.999  39.038  13.934
46494W        W11721  25.191   0.364   3.202
46495W        W11722  24.011   7.766   1.690
46496W        W11723  27.704  17.005  10.620
46497W        W11724   1.796   7.437  14.099
46498W        W11725  11.984   4.121   1.645
46499W        W11726  23.778  37.501  13.678
46500W        W11727  42.210   9.237  13.991
46501W        W11728  14.292  24.906   1.323
46502W        W11729  19.667  10.848  14.313
46503W        W11730   9.917   4.336   4.367
46504W        W11731  15.296  22.505   0.253
46505W        W11732  43.758  10.289   3.218
46506W        W11733  27.035  37.104  14.915
46507W        W11734   7.822  41.566   3.294
46508W        W11735  40.064  22.812  14.889
46509W        W11736  37.503  34.967   1.023
46510W        W11737  28.451  35.031   2.784
46511W        W11738  18.841  39.585   3.267
46512W        W11739  18.244  35.606   3.730
46513W        W11740  43.541   5.791   2.491
46514W        W11741  29.868   8.073   1.920
46515W        W11742  12.899  10.582   0.295
46516W        W11743  28.035  35.282   1.858
46517W        W11744  29.669  22.277   3.364
46518W        W11745  19.691  23.596  10.691
46519W        W11746   4.172  17.989   3.808
46520W        W11747   2.312   3.971  12.325
46521W        W11748  18.509  11.431  10.333
46522W        W11749  38.401  13.289   4.096
46523W        W11750   9.754   3.941   3.109
46524W        W11751  16.533  27.113   3.134
46525W        W11752   4.389  37.512  11.869
46526W        W11753  42.893  23.159   0.537
46527W        W11754  33.730  43.956  13.110
46528W        W11755  32.646  14.109   3.263
46529W        W11756  26.972  19.420  13.781
46530W        W11757   6.736   4.916   2.823
46531W        W11758  14.428  32.403  10.380
46532W        W11759  32.059   8.456  12.927
46533W        W11760  15.807   6.382  14.116
46534W        W11761  19.637  30.091  11.491
46535W        W11762  33.058  24.435   2.304
46536W        W11763   0.440  28.274   0.877
46537W        W11764  15.191  30.114  13.914
46538W        W11765  39.390  23.825  12.067
46539W        W11766  44.957   7.261  14.072
46540W        W11767  14.687  22.709   4.876
46541W        W11768  37.513  14.797  12.164
46542W        W11769  32.646   5.529  12.548
46543W        W11770  31.529  37.091   3.062
46544W        W11771  36.682  41.771  12.206
46545W        W11772  18.828  43.142  12.390
46546W        W11773  37.795  19.056  13.908
46547W        W11774   9.995  33.227   5.173
46548W        W11775  11.312  38.385   2.679
46549W        W11776  11.249  23.419  12.578
46550W        W11777  26.405  37.521  10.012
46551W        W11778  30.010  21.145  14.500
46552W        W11779  36.270   8.701  11.087
46553W        W11780  28.182  12.515   3.662
46554W        W11781  21.667  17.305   4.093
46555W        W11782  35.025  28.191   1.621
46556W        W11783  44.230  10.396  12.209
46557W        W11784  31.880  15.657   4.995
46558W        W11785   7.755  16.748   0.384
46559W        W11786  24.070  39.978  12.414
46560W        W11787  34.504   5.927   4.892
46561W        W11788   9.213   3.362   4.612
46562W        W11789  28.974  30.273   1.847
46563W        W11790  16.163  11.220   3.585
46564W        W11791  16.890  44.492  14.786
46565W        W11792  31.248  40.753   1.369
46566W        W11793  16.661  31.633  11.563
46567W        W11794  23.410  17.689   1.103
46568W        W11795  19.721   8.308   4.488
46569W        W11796  12.118  34.421   3.905
46570W        W11797  31.624  10.406  10.741
46571W        W11798   6.489  28.893   0.281
46572W        W11799  21.161  18.161  13.393
46573W        W11800  36.647  21.464   4.231
46574W        W11801  24.437  32.018  14.763
46575W        W11802  23.588  37.398   3.161
46576W        W11803  13.725  43.293  14.933
46577W        W11804   9.790  13.693  14.759
46578W        W11805  17.850  12.154   0.823
46579W        W11806  18.245  33.930  11.820
46580W        W11807   6.389  33.646  13.456
46581W        W11808  18.233  40.963   4.531
46582W        W11809   0.357  25.903   1.641
46583W        W11810   1.354  21.896   0.933
46584W        W11811  42.735  29.984   4.498
46585W        W11812  44.134  17.846   4.138
46586W        W11813  31.713  26.443   0.339
46587W        W11814  21.278  19.304   1.928
46588W        W11815  28.872  36.317  14.407
46589W        W11816  20.032  28.934   1.734
46590W        W11817  18.887  43.494  14.509
46591W        W11818  13.157  10.539   4.163
46592W        W11819   1.426  23.238  11.682
46593W        W11820   4.691  27.738  14.022
46594W        W11821  18.992   0.647  11.582
46595W        W11822  44.281  11.709   1.440
46596W        W11823  42.322  38.438   1.830
46597W        W11824  38.794   4.682   4.207
46598W        W11825  23.784  28.086  12.745
46599W        W11826  43.276  18.646  13.678
46600W        W11827  29.570  31.846  12.886
46601W        W11828   8.281  39.100  10.683
46602W        W11829  17.554  21.730   3.640
46603W        W11830   8.132  28.496  12.933
46604W        W11831  10.909   8.669   3.359
46605W        W11832   2.750  40.895   4.701
46606W        W11833  22.879  43.335  13.874
46607W        W11834   5.763  10.424  11.833
46608W        W11835   8.698  15.681   0.766
46609W        W11836   8.825  20.624  13.963
46610W        W11837  43.638  18.749   2.600
46611W        W11838  39.974  37.365   0.241
46612W        W11839  42.772  26.484  14.511
46613W        W11840  10.307  35.729   2.787
46614W        W11841  35.612  30.524   1.393
46615W        W11842  24.454   0.932   1.748
46616W        W11843  25.674  35.883   2.390
46617W        W11844  36.391  42.248   4.091
46618W        W11845   9.808  23.231   2.658
46619W        W11846  38.458  12.925   0.720
46620W        W11847  14.410  33.859  10.383
46621W        W11848   4.757  29.857   0.527
46622W        W11849   2.861  43.429   0.386
46623W        W11850  19.723  29.201  10.295
46624W        W11851  31.962  12.730  13.962
46625W        W11852  27.138  15.215   0.188
46626W        W11853  30.190  13.249  14.284
46627W        W11854   5.815  11.044   0.055
46628W        W11855  26.385  34.099   0.492
46629W        W11856  22.803   5.916  13.365
46630W        W11857  23.101  44.412   9.809
46631W        W11858  40.925  17.077  13.956
46632W        W11859  32.170  31.113   4.617
46633W        W11860   1.980  29.102   0.246
46634W        W11861  18.292   2.303   1.262
46635W        W11862   1.567  22.820  12.483
46636W        W11863   1.792  28.058  13.483
46637W        W11864  14.144  14.280   1.272
46638W        W11865  36.625   1.466   2.739
46639W        W11866  22.688  25.129  14.461
46640W        W11867  23.017  13.106  12.969
46641W        W11868  15.406  31.872   0.697
46642W        W11869  17.339  30.960   0.443
46643W        W11870  22.186  11.834   0.372
46644W        W11871   7.962  20.670  13.754
46645W        W11872  43.642  23.969   4.224
46646W        W11873  22.781  13.777  11.672
46647W        W11874  24.089  36.371   0.281
46648W        W11875  17.833  28.452   3.892
46649W        W11876   1.846  21.940   3.309
46650W        W11877   7.679  42.239  10.704
46651W        W11878  33.717  15.309   3.537
46652W        W11879  18.964  19.751  13.853
46653W        W11880  13.558  26.620   0.771
46654W        W11881   4.940  33.723  14.548
46655W        W11882  36.982  17.577   0.343
46656W        W11883  40.846  14.208   1.778
46657W        W11884  17.443   2.731   1.137
46658W        W11885   2.278  24.322   4.589
46659W        W11886  39.409  31.982   4.401
46660W        W11887   3.389  23.568  11.046
46661W        W11888  11.195  19.812  11.970
46662W        W11889   7.365   9.281   3.048
46663W        W11890  35.564  17.955   3.524
46664W        W11891  39.810  10.233   2.418
46665W        W11892  12.404  42.358   1.210
46666W        W11893   9.404   9.049   1.434
46667W        W11894  31.602  10.306   3.479
46668W        W11895  19.544   0.595   0.484
46669W        W11896   1.043  24.966   3.276
46670W        W11897  22.147  16.545  10.690
46671W        W11898  37.505   2.162  11.100
46672W        W11899   3.149   8.459  11.171
46673W        W11900   2.894  42.755  13.014
46674W        W11901  37.322  18.385   1.410
46675W        W11902  10.707  24.849   2.902
46676W        W11903  16.404  15.105  14.787
46677W        W11904  40.615  18.231  11.787
46678W        W11905   7.834  14.725   3.778
46679W        W11906  42.200   9.234  14.933
46680W        W11907  19.613  39.921   4.140
46681W        W11908  20.625  43.297  10.897
46682W        W11909  17.383  44.352  12.469
46683W        W11910  16.496  23.558  12.934
46684W        W11911  12.425  10.474  12.896
46685W        W11912   0.084  37.953   0.522
46686W        W11913  14.349  36.005   2.114
46687W        W11914  36.930  29.465   4.097
46688W        W11915  34.724  41.081  12.548
46689W        W11916  10.700   2.984   4.564
46690W        W11917  30.593   3.111  14.778
46691W        W11918  23.163  20.806  12.618
46692W        W11919  33.038   7.535  10.701
46693W        W11920   5.311  25.182   5.179
46694W        W11921  43.212  27.201   9.531
46695W        W11922   1.463  31.019   0.338
46696W        W11923  15.262  15.694  12.979
46697W        W11924  30.519  14.387  13.043
46698W        W11925   7.769  18.738   0.526
46699W        W11926  11.188  30.145   1.453
46700W        W11927  10.177  41.826   4.680
46701W        W11928  14.862  33.685  14.068
46702W        W11929  33.076  19.664  14.538
46703W        W11930  37.852  32.551   3.317
46704W        W11931  39.659  34.857  10.082
46705W        W11932  43.327  25.163   1.596
46706W        W11933  29.686   0.845  14.479
46707W        W11934  29.624  23.621   2.863
46708W        W11935  42.524  34.224   4.334
46709W        W11936  17.596  40.475   1.570
46710W        W11937  30.350  19.997  12.934
46711W        W11938  18.766  10.706   1.223
46712W        W11939  18.234  24.930  12.517
46713W        W11940   9.976  16.389  10.941
46714W        W11941  21.264  27.053  12.974
46715W        W11942  35.817  12.393   2.363
46716W        W11943   5.990   7.616  13.512
46717W        W11944   2.481  41.722   1.538
46718W        W11945  41.433  31.538   3.721
46719W        W11946  12.270  20.473   2.139
46720W        W11947   0.789   6.781   0.931
46721W        W11948   7.148  38.527  14.783
46722W        W11949  15.631   2.203  12.305
46723W        W11950   6.413  10.115  12.547
46724W        W11951  38.550   4.412  12.023
46725W        W11952  42.393   1.145  11.163
46726W        W11953  32.278  18.012  13.322
46727W        W11954  35.048  31.203   2.936
46728W        W11955   6.744   8.715  12.149
46729W        W11956  19.209  42.474  12.846
46730W        W11957  13.598   5.464   3.248
46731W        W11958  17.635  13.629   2.850
46732W        W11959  10.420  41.391  11.561
46733W        W11960  20.780   5.453  13.054
46734W        W11961  35.284  26.689  11.825
46735W        W11962  13.632  38.515  11.048
46736W        W11963  29.455  10.099   0.773
46737W        W11964  21.865  16.645  13.982
46738W        W11965  38.502  41.925  13.795
46739W        W11966  36.946  32.769   4.806
46740W        W11967  11.163  20.659  13.265
46741W        W11968   6.928  14.731   2.989
46742W        W11969   1.526   1.053  11.173
46743W        W11970   6.433  27.520   4.945
46744W        W11971  17.773  22.162   1.746
46745W        W11972  17.361   5.629   2.924
46746W        W11973  23.023  42.165  12.813
46747W        W11974   5.546  12.688   2.324
46748W        W11975  23.823  22.115   4.114
46749W        W11976  38.074  27.928   0.765
46750W        W11977  14.367  33.200   3.189
46751W        W11978  17.101  43.472   3.888
46752W        W11979  37.882   5.340   0.302
46753W        W11980  18.753  37.028  11.107
46754W        W11981   7.796  26.242  12.882
46755W        W11982  42.578  27.997   0.323
46756W        W11983  15.376  14.382   0.849
46757W        W11984  33.033  33.124   3.084
46758W        W11985  22.540  37.002   2.656
46759W        W11986  35.282  32.652   2.244
46760W        W11987  32.335  31.658  12.932
46761W        W11988  44.636   9.358   3.231
46762W        W11989  31.613  16.457  12.942
46763W        W11990  23.071  33.851  10.576
46764W        W11991  15.853  15.087  11.585
46765W        W11992  35.715  29.079   3.823
46766W        W11993  30.835   0.714  12.040
46767W        W11994   2.827  42.704   4.705
46768W        W11995  11.969  27.166   1.181
46769W        W11996  12.694  21.748  11.300
46770W        W11997  36.627  34.534   0.820
46771W        W11998   9.729  24.415   2.242
46772W        W11999  22.864   3.927  12.041
46773W        W12000  25.906  19.116   2.747
46774W        W12001  11.835  43.121  12.297
46775W        W12002  42.451   6.286  12.468
46776W        W12003  43.340  16.912  11.063
46777W        W12004  38.635  13.670  13.263
46778W        W12005  44.940  42.045  13.108
46779W        W12006   5.976  44.979   3.227
46780W        W12007   6.466  20.451  11.231
46781W        W12008  27.095   8.234   3.728
46782W        W12009   0.976  40.015  11.046
46783W        W12010  12.430   7.948  12.563
46784W        W12011   7.900   6.700  12.499
46785W        W12012  43.214   6.867   5.089
46786W        W12013  27.157  26.253  13.454
46787W        W12014   1.354  36.315   1.465
46788W        W12015   1.760   5.774   2.652
46789W        W12016  18.975  16.382  14.405
46790W        W12017  42.161  44.550  13.493
46791W        W12018  37.054  25.579   0.203
46792W        W12019  24.040  31.171   2.934
46793W        W12020  34.661  38.054   3.718
46794W        W12021   8.948  17.039   4.996
46795W        W12022  31.674   2.967   0.603
46796W        W12023  25.511  16.750  13.617
46797W        W12024   2.230  27.594   9.802
46798W        W12025   7.805  32.586  10.673
46799W        W12026  38.842  15.220  12.849
46800W        W12027   1.275  29.572   0.416
46801W        W12028   2.534   8.297  12.380
46802W        W12029  41.764  20.509  14.310
46803W        W12030  19.719  25.648   3.361
46804W        W12031  10.402  11.533  12.934
46805W        W12032   5.860   2.685  14.994
46806W        W12033  37.020  37.358  13.765
46807W        W12034  39.586  44.444  13.374
46808W        W12035  13.340  44.868   1.839
46809W        W12036   9.413  22.216   4.496
46810W        W12037  36.821   6.369   9.936
46811W        W12038  27.467  18.534  10.665
46812W        W12039   7.305  10.806  10.710
46813W        W12040  21.772  18.094   1.150
46814W        W12041   9.447   5.306   3.809
46815W        W12042  36.766  21.758   2.191
46816W        W12043  11.177  41.335   2.116
46817W        W12044  15.704  32.323   3.223
46818W        W12045  24.953  40.337   4.238
46819W        W12046  42.880  16.712   2.739
46820W        W12047  26.905  16.270  12.100
46821W        W12048  40.254  18.743   3.605
46822W        W12049  30.006  10.592   5.074
46823W        W12050  37.027  34.558  12.517
46824W        W12051  44.446  40.696   3.668
46825W        W12052  43.626   6.343   0.952
46826W        W12053  42.498  25.638   5.022
46827W        W12054  33.969  32.541  13.714
46828W        W12055  31.078  11.856   4.535
46829W        W12056  36.781  36.597  10.802
46830W        W12057  36.114  11.873  10.973
46831W        W12058  29.135  34.555  11.178
46832W        W12059   0.293  28.501  11.772
46833W        W12060  36.298  40.606  12.489
46834W        W12061   7.207   2.277   4.413
46835W        W12062  33.129  22.054  12.380
46836W        W12063  30.401  18.382  11.142
46837W        W12064  16.802  16.788  11.947
46838W        W12065  43.893  35.114   1.399
46839W        W12066  33.094  44.324  12.722
46840W        W12067  28.697   1.944   3.986
46841W        W12068  38.009   2.785   0.894
46842W        W12069  43.810  18.206  10.785
46843W        W12070  15.456  18.762   1.776
46844W        W12071  17.083  44.040  14.891
46845W        W12072  29.697  27.173  12.901
46846W        W12073  31.455  16.684  11.637
46847W        W12074   3.271  43.233  14.001
46848W        W12075   5.614   7.844  14.429
46849W        W12076  37.833  38.997  13.716
46850W        W12077  19.899  33.738  12.056
46851W        W12078  30.576  28.722   4.625
46852W        W12079  10.365  14.138   0.598
46853W        W12080  32.679  42.848   2.539
46854W        W12081   6.784   9.389   4.322
46855W        W12082  18.446  43.854  11.955
46856W        W12083  35.183  13.853  14.374
46857W        W12084  33.544  22.932   3.717
46858W        W12085  40.153   7.873   0.243
46859W        W12086  34.371   9.144  14.798
46860W        W12087   6.379  19.636   0.849
46861W        W12088  34.482  25.111  12.179
46862W        W12089  27.448   7.756  14.782
46863W        W12090  27.016  44.944   3.643
46864W        W12091  29.564  15.058  14.498
46865W        W12092  42.756  12.707  10.382
46866W        W12093  23.192  42.898   0.992
46867W        W12094   7.984  25.976  13.304
46868W        W12095   1.808   1.932   0.249
46869W        W12096  23.106  40.768  13.430
46870W        W12097   5.238  36.417  11.396
46871W        W12098  10.401  17.157   3.645
46872W        W12099   7.904  14.554   1.683
46873W        W12100  25.290  14.350  14.347
46874W        W12101  21.763  17.052   1.129
46875W        W12102   2.031  10.715   4.542
46876W        W12103   5.160  39.376  13.083
46877W        W12104  42.755  40.237  11.025
46878W        W12105  43.275  30.492   0.962
46879W        W12106  19.371  10.614  10.687
46880W        W12107   9.870   4.946   2.218
46881W        W12108   0.234  19.619   1.229
46882W        W12109   6.662   2.912  10.599
46883W        W12110   0.305  30.476  14.480
46884W        W12111  37.661  20.144  14.459
46885W        W12112  28.885  11.830   0.748
46886W        W12113  32.528  35.458   0.334
46887W        W12114  36.975   1.074  10.758
46888W        W12115  23.948  17.613   1.155
46889W        W12116  34.004  22.093   4.910
46890W        W12117  28.905  26.550  11.180
46891W        W12118  34.861  19.071  13.913
46892W        W12119   3.027  17.116  10.989
46893W        W12120  31.995   6.301   3.224
46894W        W12121  16.835  12.174   2.657
46895W        W12122  24.600  33.133   1.191
46896W        W12123   2.934   4.706  12.924
46897W        W12124  24.275  14.138  14.185
46898W        W12125  23.159  34.481  14.377
46899W        W12126  27.896   1.198   2.688
46900W        W12127  12.104  27.988  14.734
46901W        W12128   4.915  14.673  12.493
46902W        W12129  33.936   4.633  11.054
46903W        W12130  35.031  26.987   3.619
46904W        W12131   0.759  21.998   3.003
46905W        W12132  25.133  24.227   4.609
46906W        W12133  16.159  30.696  13.406
46907W        W12134  28.533  26.461   4.163
46908W        W12135   6.441   6.863  11.167
46909W        W12136   3.701  29.902   3.854
46910W        W12137  42.964  42.077   3.648
46911W        W12138  22.554  10.616   0.902
46912W        W12139   6.197  32.142   1.758
46913W        W12140   9.000  16.109   0.673
46914W        W12141  18.286  19.850   1.915
46915W        W12142  34.008  18.990  10.728
46916W        W12143   7.131  28.415  12.050
46917W        W12144  41.353  20.350  13.455
46918W        W12145  34.574  33.338   1.799
46919W        W12146  12.558  23.505   3.394
46920W        W12147   0.500  41.964  13.835
46921W        W12148   1.861  15.675   1.165
46922W        W12149   2.702  15.372   1.712
46923W        W12150  25.518  27.194  14.304
46924W        W12151  31.546  26.180  12.608
46925W        W12152   5.552  20.609  13.832
46926W        W12153  37.674  37.966   3.606
46927W        W12154  33.601  24.012  14.153
46928W        W12155  22.567  17.788  13.652
46929W        W12156  19.764  43.311  14.723
46930W        W12157  23.497  15.138   4.056
46931W        W12158   4.827  24.673  13.827
46932W        W12159  13.735  44.720  10.695
46933W        W12160  40.393  28.605  11.940
46934W        W12161  40.516  37.982   0.779
46935W        W12162  43.553  24.713  12.006
46936W        W12163  27.550  19.284   1.259
46937W        W12164  17.422   1.716  12.467
46938W        W12165  39.640  24.270  12.198
46939W        W12166  29.983  28.137  10.517
46940W        W12167  29.254  34.330   0.438
46941W        W12168  31.918  21.222  10.308
46942W        W12169   0.387  30.914   1.799
46943W        W12170   3.936  16.910  10.102
46944W        W12171   5.318  26.405  10.211
46945W        W12172  10.810  42.326   1.106
46946W        W12173  13.694  16.772  13.302
46947W        W12174  21.249   3.291   3.442
46948W        W12175  18.640  23.547  11.519
46949W        W12176  13.241  24.422  12.922
46950W        W12177  41.321   6.392   1.858
46951W        W12178   2.458   1.859  14.541
46952W        W12179  33.331  10.565   4.515
46953W        W12180  14.598  37.919   0.242
46954W        W12181   2.785   4.484  14.199
46955W        W12182  23.525  40.327  12.170
46956W        W12183  29.420  36.590   3.632
46957W        W12184  20.988  37.214   2.696
46958W        W12185   9.112  43.540  11.979
46959W        W12186  30.799  15.299  13.862
46960W        W12187  19.947  27.529  12.911
46961W        W12188  42.829   5.809  10.526
46962W        W12189  43.410  27.687   0.539
46963W        W12190   0.892  35.041   5.128
46964W        W12191  37.728  19.646   2.815
46965W        W12192   0.273  42.814   2.179
46966W        W12193  13.912  39.915   4.178
46967W        W12194  12.386  19.189  13.310
46968W        W12195  22.997  36.797   2.988
46969W        W12196  35.649  34.895  14.487
46970W        W12197  35.346  13.715  11.271
46971W        W12198  43.815  40.321  13.095
46972W        W12199  25.056  39.545   4.578
46973W        W12200  18.823   0.470   1.485
46974W        W12201  15.781  26.542   4.523
46975W        W12202  11.930  17.821   3.341
46976W        W12203  30.538  20.541  13.645
46977W        W12204   4.479  14.805  11.244
46978W        W12205  44.818  42.312   1.773
46979W        W12206  35.672  26.434   4.568
46980W        W12207  10.233  39.455   1.787
46981W        W12208   5.485  40.957  11.548
46982W        W12209   1.709  17.541  13.475
46983W        W12210  20.577  16.615   3.637
46984W        W12211  37.106  16.575   1.233
46985W        W12212  28.608  32.549  10.534
46986W        W12213   3.677  19.157  12.476
46987W        W12214  23.571  25.962  10.935
46988W        W12215  21.529  37.088   0.939
46989W        W12216   4.776  27.695   0.820
46990W        W12217   5.368  11.402   2.797
46991W        W12218  40.354  14.984   0.407
46992W        W12219  28.890  14.116   5.462
46993W        W12220   6.570  27.255  11.687
46994W        W12221  15.356  13.875   1.013
46995W        W12222  25.648  22.263   1.801
46996W        W12223  26.234  39.748   0.319
46997W        W12224  12.624  26.164   3.284
46998W        W12225  26.261  39.238  12.091
46999W        W12226  15.823  13.978  11.569
47000W        W12227  44.318  13.772   1.806
47001W        W12228  26.100  32.380  12.779
47002W        W12229  41.731  12.939  11.100
47003W        W12230   9.317  10.310  14.914
47004W        W12231  41.358   4.378  13.718
47005W        W12232   9.207   3.130   1.379
47006W        W12233  35.447  20.075   3.172
47007W        W12234   5.407  15.274  12.042
47008W        W12235  21.264  22.827   2.641
47009W        W12236  22.543  26.453  11.654
47010W        W12237  26.138  14.306  13.755
47011W        W12238  21.059  11.144  12.216
47012W        W12239  39.049   7.338  10.591
47013W        W12240   8.828   2.427  11.408
47014W        W12241  19.551   5.793  11.745
47015W        W12242  41.467   5.475  10.715
47016W        W12243  13.532  26.088  13.987
47017W        W12244  35.056  24.126  11.216
47018W        W12245  23.157  25.242   1.902
47019W        W12246  29.430  33.168  10.181
47020W        W12247  42.672  37.885  13.918
47021W        W12248  15.659  21.090   9.922
47022W        W12249  15.134  24.084   4.533
47023W        W12250  37.738  21.146  12.079
47024W        W12251  12.617  20.445   2.799
47025W        W12252   4.446  32.020  13.184
47026W        W12253  22.047   7.569   3.650
47027W        W12254  31.655  37.863  11.577
47028W        W12255  15.593   2.678  14.790
47029W        W12256  14.052   2.200   4.272
47030W        W12257  20.656  15.289  12.598
47031W        W12258  36.998  11.150   2.339
47032W        W12259  26.065  31.284   2.860
47033W        W12260  15.570  44.249  13.325
47034W        W12261  37.143  14.292  12.955
47035W        W12262  20.538   5.632   0.273
47036W        W12263  10.706   4.980   3.832
47037W        W12264  32.179  37.773   1.469
47038W        W12265  20.800  41.460  12.066
47039W        W12266  37.323  21.685   2.289
47040W        W12267  36.967  26.084   4.766
47041W        W12268  36.146  41.548   4.543
47042W        W12269  39.867   3.086   1.306
47043W        W12270  29.202  44.866   0.516
47044W        W12271  43.009  27.403  13.430
47045W        W12272  12.620   4.430  11.847
47046W        W12273  21.329   8.120  12.087
47047W        W12274  34.819  14.242  12.634
47048W        W12275   4.438  21.206   0.966
47049W        W12276  29.256  37.155  13.445
47050W        W12277  44.729   2.230   3.127
47051W        W12278  38.555  28.661  13.139
47052W        W12279   0.022  34.095   3.387
47053W        W12280  39.533  12.072  14.935
47054W        W12281  25.649  12.756   0.901
47055W        W12282   9.282  32.432   0.517
47056W        W12283  35.917  31.201  12.628
47057W        W12284  16.126  21.621   4.011
47058W        W12285  34.516  20.040   4.278
47059W        W12286  10.156  26.586   2.404
47060W        W12287  12.644  35.814   0.205
47061W        W12288  43.442  21.322   2.755
47062W        W12289  31.917  28.677  12.296
47063W        W12290  16.714  44.037   3.065
47064W        W12291   7.892   2.218   2.684
47065W        W12292   7.620  30.130  14.953
47066W        W12293  16.663  43.995  12.600
47067W        W12294  39.471  27.409  14.403
47068W        W12295  43.885  17.555   0.909
47069W        W12296  22.522  11.426   4.667
47070W        W12297  30.043  31.331   2.908
47071W        W12298  10.521  25.912   3.676
47072W        W12299   1.410  39.504  11.765
47073W        W12300   2.499  35.979   0.163
47074W        W12301  30.280  34.328  12.804
47075W        W12302   8.785  33.777   3.573
47076W        W12303  31.305  12.002   4.082
47077W        W12304  33.656  40.658  11.555
47078W        W12305   1.317   1.908   3.619
47079W        W12306  19.469  20.275   2.395
47080W        W12307  40.012  26.969   4.055
47081W        W12308  37.533  18.564   4.282
47082W        W12309  31.642  18.018   1.428
47083W        W12310  26.921  29.682   1.403
47084W        W12311  26.847  12.152  14.707
47085W        W12312  22.229  37.070  12.020
47086W        W12313   3.924  20.123  12.152
47087W        W12314  25.332   8.613   2.620
47088W        W12315  26.059  19.957  13.130
47089W        W12316  12.906  29.838   4.986
47090W        W12317  34.422   6.851   2.747
47091W        W12318  20.880  40.857  12.814
47092W        W12319  32.878  16.910  13.355
47093W        W12320  33.609  25.845  12.448
47094W        W12321  16.638  34.345  14.918
47095W        W12322  25.721   3.322   0.659
47096W        W12323   1.051  22.600  11.621
47097W        W12324  16.010  25.139  12.005
47098W        W12325   4.872  33.055   1.248
47099W        W12326  10.296  38.492   4.707
47100W        W12327  38.936   7.942  13.986
47101W        W12328   5.876  37.023  12.529
47102W        W12329  34.803  10.493  13.064
47103W        W12330   1.773  26.970  12.304
47104W        W12331   4.688  34.460   5.061
47105W        W12332  12.786  15.370   2.936
47106W        W12333  10.019  34.780   0.025
47107W        W12334  16.829  17.140  13.389
47108W        W12335  12.811  28.683   3.298
47109W        W12336  30.083   8.739   4.053
47110W        W12337  38.383   3.082  12.143
47111W        W12338  33.180  28.317  10.323
47112W        W12339  23.788   4.378   2.624
47113W        W12340  18.253  21.012   3.693
47114W        W12341   5.807   0.814  12.078
47115W        W12342   9.665  39.896   4.609
47116W        W12343   1.695  27.441   2.739
47117W        W12344   1.923  11.939   1.804
47118W        W12345   3.824  25.066  14.256
47119W        W12346  22.478   9.944  13.389
47120W        W12347   7.958   4.958  11.519
47121W        W12348  24.444  18.954  14.443
47122W        W12349  11.767  41.540  14.805
47123W        W12350  26.622  41.051  14.415
47124W        W12351  24.522   2.991   4.892
47125W        W12352  32.106  36.909   1.197
47126W        W12353   0.183  42.975  10.731
47127W        W12354  41.470  13.075  13.492
47128W        W12355  11.189  23.690   3.351
47129W        W12356  22.300  15.783  14.791
47130W        W12357  19.911  16.193   0.715
47131W        W12358   4.246  38.851  11.514
47132W        W12359  23.914  20.701   0.058
47133W        W12360  23.990   1.272   0.022
47134W        W12361  10.755   1.199  11.544
47135W        W12362  35.299  36.843   1.491
47136W        W12363  42.637  29.229  11.525
47137W        W12364  31.653  40.045  14.910
47138W        W12365   2.574  29.490   4.929
47139W        W12366  43.169  37.394  11.120
47140W        W12367  31.616  12.129  11.638
47141W        W12368   9.877  10.286  14.541
47142W        W12369  37.432  43.239  14.366
47143W        W12370  41.610  20.404   3.652
47144W        W12371  17.778  16.281  11.891
47145W        W12372  13.439  22.745   0.916
47146W        W12373  31.078   2.895  14.972
47147W        W12374   5.671   4.297  11.647
47148W        W12375  34.740  28.811  10.758
47149W        W12376   9.660   9.667   3.168
47150W        W12377  25.645  17.734   1.286
47151W        W12378  17.632  14.854   2.341
47152W        W12379  11.890  27.708  13.003
47153W        W12380  12.736  37.441  13.924
47154W        W12381  42.358  23.015  11.859
47155W        W12382  36.619  12.946   3.077
47156W        W12383   1.672  39.288   1.267
47157W        W12384  44.336  25.025  11.035
47158W        W12385  25.996  15.661  13.202
47159W        W12386   8.960  41.086  12.924
47160W        W12387  17.131   3.817   2.943
47161W        W12388  26.736  42.285  13.140
47162W        W12389  24.690   2.726   1.369
47163W        W12390  36.864  13.851   0.751
47164W        W12391  44.992  28.771   2.203
47165W        W12392  23.077  39.722   2.129
47166W        W12393  43.300  40.595  14.343
47167W        W12394   0.413  24.393   0.745
47168W        W12395  26.538  25.034   4.088
47169W        W12396   7.437   0.051  12.426
47170W        W12397  20.903   0.476  12.349
47171W        W12398   7.349  39.313   0.308
47172W        W12399   5.163   5.786  11.654
47173W        W12400  28.864  13.845  11.495
47174W        W12401   9.832  32.169   0.062
47175W        W12402   7.197  42.049   2.270
47176W        W12403  37.504  34.976   2.889
47177W        W12404  41.807  10.162   3.745
47178W        W12405  20.588  18.864   3.249
47179W        W12406   5.441  43.147   1.811
47180W        W12407  29.615  44.836   4.490
47181W        W12408  36.987  36.026   1.667
47182W        W12409  20.494  29.123  12.112
47183W        W12410  28.388  25.428   2.405
47184W        W12411  39.349  26.914  13.537
47185W        W12412   4.270  36.530  13.559
47186W        W12413  32.850   9.596  11.860
47187W        W12414  39.134  25.196  14.843
47188W        W12415  14.814  18.259   4.096
47189W        W12416  41.483  37.605  11.971
47190W        W12417   7.389  20.044  14.065
47191W        W12418  14.689  12.892  11.581
47192W        W12419   6.915  38.872  12.098
47193W        W12420  19.627   5.038  11.047
47194W        W12421  18.205  20.767  12.992
47195W        W12422   5.829  22.753   3.358
47196W        W12423  18.001  15.637  11.159
47197W        W12424  30.140   8.582   2.824
47198W        W12425  35.316  11.228   3.790
47199W        W12426  23.741  19.489   4.148
47200W        W12427  14.232  11.629   4.180
47201W        W12428  27.013  17.291  12.033
47202W        W12429  26.022  33.888  14.753
47203W        W12430  24.923  44.594  13.239
47204W        W12431  15.821   9.265   3.790
47205W        W12432  32.907   5.825  13.523
47206W        W12433   6.729   7.731   2.339
47207W        W12434  27.920   7.544   4.146
47208W        W12435   1.715   0.305  11.237
47209W        W12436  35.958  33.214   1.697
47210W        W12437  36.255  30.062   2.357
47211W        W12438   5.334   0.870  13.284
47212W        W12439   9.145  16.996  11.674
47213W        W12440   5.158  34.477   2.930
47214W        W12441  42.219   5.111   1.543
47215W        W12442  28.567  15.125  10.772
47216W        W12443  21.264   5.347  11.865
47217W        W12444  30.433   0.303   3.319
47218W        W12445   7.801   9.827   3.553
47219W        W12446  34.649  11.373   0.387
47220W        W12447   7.358  11.212  14.496
47221W        W12448  38.486  29.891   0.208
47222W        W12449  10.117  27.670   4.674
47223W        W12450  21.000  14.452  14.122
47224W        W12451   3.287  38.090   4.797
47225W        W12452  13.282  25.134  10.781
47226W        W12453  17.723  39.409  12.986
47227W        W12454  14.538  12.229   1.328
47228W        W12455   1.089  34.587   1.291
47229W        W12456  12.301  34.868   1.814
47230W        W12457   1.878  26.544   0.605
47231W        W12458  40.769  19.213  10.690
47232W        W12459  13.002  15.250  12.139
47233W        W12460  27.386  34.410  13.862
47234W        W12461  38.467  34.257   4.060
47235W        W12462  13.605  41.088  12.581
47236W        W12463   1.991  26.842   3.479
47237W        W12464  20.155  24.459  10.997
47238W        W12465   9.362  32.221  13.932
47239W        W12466  42.768  17.637   1.765
47240W        W12467   5.817  15.323  10.923
47241W        W12468   4.238  16.721   1.367
47242W        W12469  32.937   7.950   2.128
47243W        W12470  32.153   6.931  10.751
47244W        W12471  13.618  24.659   2.923
47245W        W12472   7.766  23.990   0.518
47246W        W12473  10.864  40.298  14.056
47247W        W12474  44.789   2.823  14.292
47248W        W12475  42.260  42.836  13.519
47249W        W12476  31.374  37.886   3.608
47250W        W12477   2.323  36.514  11.102
47251W        W12478  44.947  11.191  11.486
47252W        W12479  31.751  26.572  14.390
47253W        W12480   6.367  31.169   1.408
47254W        W12481  23.463  33.045  11.429
47255W        W12482  14.652  24.333   1.863
47256W        W12483   5.791  39.303   2.097
47257W        W12484   8.113   6.558   1.920
47258W        W12485  39.764  33.424  12.523
47259W        W12486  35.089  24.639  13.029
47260W        W12487   5.361  12.116  13.153
47261W        W12488   2.743  18.337   2.725
47262W        W12489  26.005   4.063   0.247
47263W        W12490  31.038  23.781   2.963
47264W        W12491   8.904  37.511   2.349
47265W        W12492  43.979  40.582  11.017
47266W        W12493  17.810  40.997  13.472
47267W        W12494  17.819   6.080  11.091
47268W        W12495  16.176  20.205   1.878
47269W        W12496  31.058   5.666  12.944
47270W        W12497  10.098  44.360  14.722
47271W        W12498  42.488  30.015   0.962
47272W        W12499  27.616   0.394   3.917
47273W        W12500  44.436  35.444  10.659
47274W        W12501  30.562  24.673   4.993
47275W        W12502  36.735  44.328   9.925
47276W        W12503  30.693  16.305   3.765
47277W        W12504  26.483  39.558   3.208
47278W        W12505  15.246  33.445   2.789
47279W        W12506  40.375  38.588  13.068
47280W        W12507  30.954   2.810  10.713
47281W        W12508  11.520  37.978  14.032
47282W        W12509  14.705   8.198   3.192
47283W        W12510  12.038  21.799  11.798
47284W        W12511   1.079  43.197  12.591
47285W        W12512   5.163   5.667  14.314
47286W        W12513  27.791   8.238  11.480
47287W        W12514  43.255   6.628   1.661
47288W        W12515   7.312   0.266   5.010
47289W        W12516  27.038   6.347   0.249
47290W        W12517  14.017  41.025  14.331
47291W        W12518  18.552  35.798   3.344
47292W        W12519  17.075   0.631  12.981
47293W        W12520  37.901  19.008  10.692
47294W        W12521  25.699  26.745  13.556
47295W        W12522  37.915  30.455   1.702
47296W        W12523  31.904  13.631   0.251
47297W        W12524  35.352   8.582   4.337
47298W        W12525  21.251   3.203   1.505
47299W        W12526  25.052  21.263   0.089
47300W        W12527   9.244   8.218  12.906
47301W        W12528   5.650   2.438   0.480
47302W        W12529  25.239  20.825   4.195
47303W        W12530  44.537  39.506  13.822
47304W        W12531  23.113  19.820   0.229
47305W        W12532  17.287   6.391   4.234
47306W        W12533  12.967  16.113   3.597
47307W        W12534  16.608   9.318   1.374
47308W        W12535  14.985   3.758   1.264
47309W        W12536  36.041  23.329   4.152
47310W        W12537  28.755  31.501  14.536
47311W        W12538   6.425  21.216   3.128
47312W        W12539  42.691  18.147  12.947
47313W        W12540  43.558  41.221   3.444
47314W        W12541  29.020   5.604   2.771
47315W        W12542  15.863  36.344   4.663
47316W        W12543   4.721  16.795  11.054
47317W        W12544  27.089  43.716   1.270
47318W        W12545  22.585  23.699  12.361
47319W        W12546   3.382  21.202  14.493
47320W        W12547  25.292  17.199   4.503
47321W        W12548  27.745   5.560   0.483
47322W        W12549   4.501  34.580   1.057
47323W        W12550   9.356  10.794   0.162
47324W        W12551  35.585   8.124   4.316
47325W        W12552   0.407  15.959   9.612
47326W        W12553  30.584  28.447  13.087
47327W        W12554  16.456  15.643   4.907
47328W        W12555  13.627   4.022   2.235
47329W        W12556  41.059  22.193   1.502
47330W        W12557  33.922   6.249   3.324
47331W        W12558  38.407  40.191  14.820
47332W        W12559   9.263  35.695   1.609
47333W        W12560  14.072  10.630   4.083
47334W        W12561   6.416   9.751   4.505
47335W        W12562  13.679  34.337   3.705
47336W        W12563  32.910  38.609   2.877
47337W        W12564  23.309  19.236   4.043
47338W        W12565  17.884  15.143   0.298
47339W        W12566  24.028  28.884  12.689
47340W        W12567   8.751   5.359  14.312
47341W        W12568  12.891  19.047   3.196
47342W        W12569  31.547  16.173   2.365
47343W        W12570  42.465  31.870  12.849
47344W        W12571  13.352  32.361  14.981
47345W        W12572  37.235   3.281   4.048
47346W        W12573   1.169  44.836   1.919
47347W        W12574  14.362  15.579  10.319
47348W        W12575  16.204  19.012   2.867
47349W        W12576  36.426  36.444  11.983
47350W        W12577  29.438  20.249   1.834
47351W        W12578   8.836  28.876  14.223
47352W        W12579  34.553  34.311  11.663
47353W        W12580  19.168  40.912  13.980
47354W        W12581   2.258   0.786   2.623
47355W        W12582  30.566  15.386   0.493
47356W        W12583  11.280  15.906   0.385
47357W        W12584  14.831  17.862   1.745
47358W        W12585  17.574  32.541   1.956
47359W        W12586  22.909  14.599  12.624
47360W        W12587  10.278  14.650   2.468
47361W        W12588  43.592  34.603  11.200
47362W        W12589   0.567  22.870   9.772
47363W        W12590   5.707  20.251   0.990
47364W        W12591  36.300  39.889  13.178
47365W        W12592  14.276  28.401   0.794
47366W        W12593  21.671  44.370  11.940
47367W        W12594  13.052  15.889  14.329
47368W        W12595  17.883  10.170  10.713
47369W        W12596  18.454  21.069   1.297
47370W        W12597  30.821   6.425  11.632
47371W        W12598  22.856  44.526  11.083
47372W        W12599  16.713  14.215   3.099
47373W        W12600  42.696  41.972  11.614
47374W        W12601  24.286  11.241  12.515
47375W        W12602   5.414  11.310  10.947
47376W        W12603   0.247   9.733   3.903
47377W        W12604  35.985  15.765  13.908
47378W        W12605  36.359  44.843   1.007
47379W        W12606   0.263  12.821   2.429
47380W        W12607  24.316  28.994  13.656
47381W        W12608   7.741  28.041   1.335
47382W        W12609   3.522  44.847   2.321
47383W        W12610  13.054  43.453   3.682
47384W        W12611  18.787  11.138   3.758
47385W        W12612  42.875   3.311   1.699
47386W        W12613  18.442  32.050  12.484
47387W        W12614  10.679   4.841   0.002
47388W        W12615  21.155  25.447   1.368
47389W        W12616  29.968  41.796   0.888
47390W        W12617  32.830   5.486  14.456
47391W        W12618  27.396  12.113   3.711
47392W        W12619   4.732   9.245   1.937
47393W        W12620   7.769  16.225   2.182
47394W        W12621  32.221   1.286   0.562
47395W        W12622  24.136   5.972  13.956
47396W        W12623  33.158  36.860   3.478
47397W        W12624   6.316  23.660  10.943
47398W        W12625  15.498  11.384  11.430
47399W        W12626  26.714  25.268   0.851
47400W        W12627  25.898  41.502  13.967
47401W        W12628  26.033   0.513  13.959
47402W        W12629  14.922  10.579  11.191
47403W        W12630  26.647  42.075   1.470
47404W        W12631   5.258  43.692   0.400
47405W        W12632  21.065  22.184  12.952
47406W        W12633  29.984  27.923  14.912
47407W        W12634   7.347  23.119   4.112
47408W        W12635  20.524  40.786   4.362
47409W        W12636   7.606  21.404   4.254
47410W        W12637  18.881   7.386  14.932
47411W        W12638  16.629   7.063   0.401
47412W        W12639   7.403  20.468  11.161
47413W        W12640  39.232  22.598   4.843
47414W        W12641  17.105  36.527   3.821
47415W        W12642  22.600  28.114  13.402
47416W        W12643  44.173  43.011  13.601
47417W        W12644  35.563  25.692  13.717
47418W        W12645  10.257  39.656   4.037
47419W        W12646  40.962  21.840  13.085
47420W        W12647   7.527  41.576   5.016
47421W        W12648  33.356  39.536   1.793
47422W        W12649   6.430   4.602   3.732
47423W        W12650   9.658   0.491  13.007
47424W        W12651  13.814  42.243   2.003
47425W        W12652  25.471  43.234  12.839
47426W        W12653  35.433  17.188  14.246
47427W        W12654   9.951  36.240   1.806
47428W        W12655  34.529  30.595  12.063
47429W        W12656  11.458  41.447   4.084
47430W        W12657   9.446   0.222   3.187
47431W        W12658  11.581  18.162   2.718
47432W        W12659  30.331  32.009   0.052
47433W        W12660  24.183  16.014   3.705
47434W        W12661   9.654  33.437  13.953
47435W        W12662   8.881  16.178  10.425
47436W        W12663   8.719  13.917   0.686
47437W        W12664  36.587  25.960  11.152
47438W        W12665  27.701   4.854  14.409
47439W        W12666  35.864  18.308  13.525
47440W        W12667  41.773  32.355  14.359
47441W        W12668   3.637   6.924   1.668
47442W        W12669  12.118  16.235   4.439
47443W        W12670  23.490  15.383  11.750
47444W        W12671   7.476  28.968   4.835
47445W        W12672  28.609  30.168   0.419
47446W        W12673  25.328  38.843  11.926
47447W        W12674  38.102  39.942  14.461
47448W        W12675   5.965  14.169  10.314
47449W        W12676  31.386  40.254  13.315
47450W        W12677  26.569  32.481  11.035
47451W        W12678  31.187  15.485   3.626
47452W        W12679   4.594  26.659   3.238
47453W        W12680  21.271  40.557  11.506
47454W        W12681   5.054  22.215  10.603
47455W        W12682   2.794   9.124  10.539
47456W        W12683  25.152  11.638   1.537
47457W        W12684  18.268  16.278  10.757
47458W        W12685  44.239  43.802  14.801
47459W        W12686  39.099  35.644   4.969
47460W        W12687  11.397  22.428  12.377
47461W        W12688  23.670   8.909  11.669
47462W        W12689   6.239  31.549  14.594
47463W        W12690  29.096  36.891   1.351
47464W        W12691  35.056   7.612  14.471
47465W        W12692  13.596  29.130   3.912
47466W        W12693  39.254  13.059  13.340
47467W        W12694  35.153  14.562   3.174
47468W        W12695  21.763  23.301  12.729
47469W        W12696  11.302   9.383  12.072
47470W        W12697  23.012  26.557  14.049
47471W        W12698  18.637  15.950   9.893
47472W        W12699   3.652   3.348  11.594
47473W        W12700  41.462   3.970  14.039
47474W        W12701  28.075   4.447   4.537
47475W        W12702  15.837   8.790   4.779
47476W        W12703  12.330  31.162   2.872
47477W        W12704  17.652  20.170   0.945
47478W        W12705  21.532  13.312  14.853
47479W        W12706  20.479  31.517  13.888
47480W        W12707  42.558  32.990   4.110
47481W        W12708  21.953  30.462   0.218
47482W        W12709  35.540  25.986  12.335
47483W        W12710  31.892  39.048   4.986
47484W        W12711  12.195   0.826  13.852
47485W        W12712  18.330  30.160  13.604
47486W        W12713  32.134  16.016   0.527
47487W        W12714  11.147  19.622   4.857
47488W        W12715  27.390  23.524  13.394
47489W        W12716  35.317  36.353   1.350
47490W        W12717  39.749  34.864   1.709
47491W        W12718   9.153  43.278  12.431
47492W        W12719   5.536  24.101  13.820
47493W        W12720  40.772  21.565  13.519
47494W        W12721  16.366  23.130   0.759
47495W        W12722  35.136  11.810   3.857
47496W        W12723   5.240  43.864  10.638
47497W        W12724  19.148  37.675  14.881
47498W        W12725  12.241  35.380  10.283
47499W        W12726  44.370  10.829  11.971
47500W        W12727  12.958  34.543   0.030
47501W        W12728  13.777  24.968  10.780
47502W        W12729  27.723  30.043  11.100
47503W        W12730  34.491  17.905   0.461
47504W        W12731  44.931  44.709  12.224
47505W        W12732   3.736   4.921  11.538
47506W        W12733  24.083  44.198  11.991
47507W        W12734  38.330  44.166   0.392
47508W        W12735  27.078  30.931  12.103
47509W        W12736  13.131  35.562   3.749
47510W        W12737  42.784   8.672  13.444
47511W        W12738   4.315  31.025   1.635
47512W        W12739  18.196   6.284   3.750
47513W        W12740  26.952   9.658  14.827
47514W        W12741  29.048  10.772  12.364
47515W        W12742  27.703   7.303   3.168
47516W        W12743  34.514  22.670   3.793
47517W        W12744  42.218  38.564   0.123
47518W        W12745  31.593  20.000   3.127
47519W        W12746  17.747  13.113  13.979
47520W        W12747  28.679  13.031  13.057
47521W        W12748  22.266  39.052  10.371
47522W        W12749  23.646  31.917  10.980
47523W        W12750  35.444  35.470  13.465
47524W        W12751   3.978   2.835  13.293
47525W        W12752   3.980  17.234  13.533
47526W        W12753  36.822  43.102   0.694
47527W        W12754  37.094  32.020  10.752
47528W        W12755   4.486   1.447  12.358
47529W        W12756   4.915   4.859  11.645
47530W        W12757  14.019  21.186   4.453
47531W        W12758  27.218  32.080   0.733
47532W        W12759   5.424   8.334   2.301
47533W        W12760  33.875   2.541   3.913
47534W        W12761  15.254  29.389   1.731
47535W        W12762  36.604  12.564   2.762
47536W        W12763  28.832  13.831   3.776
47537W        W12764  17.741   7.596   3.611
47538W        W12765   9.710  29.582   3.104
47539W        W12766   2.913  13.529  14.504
47540W        W12767  28.923  21.762  13.507
47541W        W12768  27.166  28.168   4.644
47542W        W12769  38.531  22.309  10.713
47543W        W12770  43.869  39.928   0.964
47544W        W12771   4.375  38.186   0.710
47545W        W12772  41.747  17.534  14.905
47546W        W12773   9.368  29.943  10.805
47547W        W12774  23.640  31.122  14.370
47548W        W12775  20.359  43.168  14.528
47549W        W12776  25.171   3.015   2.782
47550W        W12777  27.694  21.367   0.466
47551W        W12778  25.043   3.342   1.211
47552W        W12779   5.744   9.796   0.971
47553W        W12780  37.685  11.407  10.168
47554W        W12781  10.408  14.624  12.520
47555W        W12782  14.608  11.340  14.576
47556W        W12783  37.607  12.834  10.841
47557W        W12784  20.543  13.280   3.203
47558W        W12785  27.172   2.165   1.513
47559W        W12786  41.971   1.303  13.927
47560W        W12787  33.378  30.278   4.812
47561W        W12788  17.161  23.098   3.105
47562W        W12789   0.302   2.716  13.479
47563W        W12790  29.639   3.413  14.081
47564W        W12791  17.884  14.139   0.292
47565W        W12792  42.498  20.717   2.401
47566W        W12793  27.166  29.716  13.640
47567W        W12794   3.325  22.940   3.189
47568W        W12795  40.231  17.135  12.938
47569W        W12796  17.022  21.491  14.794
47570W        W12797  29.184   7.144  14.259
47571W        W12798   1.551   2.214   3.251
47572W        W12799  37.061  36.323   0.715
47573W        W12800  10.263  16.596  12.016
47574W        W12801   1.962  25.695   9.686
47575W        W12802  28.639  26.234  12.878
47576W        W12803  38.504   3.329   4.001
47577W        W12804  39.384  14.790  11.798
47578W        W12805  13.013  25.158  10.347
47579W        W12806  29.308   3.175   4.471
47580W        W12807   6.354   6.825   1.355
47581W        W12808   6.784  41.778  13.496
47582W        W12809  10.373  36.159  14.974
47583W        W12810  12.336  19.156   4.532
47584W        W12811   4.646   1.143  12.760
47585W        W12812  21.616  21.216  14.981
47586W        W12813   4.643   6.010   0.153
47587W        W12814   6.392  34.165  10.638
47588W        W12815  18.651  23.667   4.822
47589W        W12816  17.969  38.814   1.392
47590W        W12817  18.263  15.060  14.943
47591W        W12818  19.501  13.226  14.836
47592W        W12819   3.199  34.599   2.105
47593W        W12820  21.215   9.862  12.415
47594W        W12821  12.776  34.374   1.880
47595W        W12822  32.535   2.787  12.365
47596W        W12823  29.612   6.613   4.674
47597W        W12824  27.167  29.069  12.570
47598W        W12825   9.831  22.101   2.950
47599W        W12826   5.857   1.953   2.309
47600W        W12827  31.012  34.955   1.748
47601W        W12828  34.535  21.946  14.458
47602W        W12829  12.712  31.413  13.545
47603W        W12830  41.330  32.189  13.998
47604W        W12831  30.129  11.461  14.723
47605W        W12832  23.029  39.536  14.360
47606W        W12833  25.950  34.518  11.624
47607W        W12834  34.498  31.371  12.503
47608W        W12835   5.429  14.324   1.452
47609W        W12836  43.576   6.516   4.987
47610W        W12837   7.334  30.006   4.770
47611W        W12838  30.659  25.527   4.016
47612W        W12839  22.246   6.523  11.534
47613W        W12840  44.846  24.815   4.711
47614W        W12841  24.876  14.481   4.602
47615W        W12842  40.570  27.097   3.248
47616W        W12843  33.893  18.770  11.195
47617W        W12844   7.859   8.792  13.142
47618W        W12845  13.282  10.945  11.084
47619W        W12846  35.462  34.023   4.863
47620W        W12847  16.914   0.675  12.073
47621W        W12848  23.021  42.419   0.852
47622W        W12849  42.137   9.802  10.672
47623W        W12850  31.175   0.242   2.605
47624W        W12851  27.918  13.800  11.725
47625W        W12852   2.552  43.237   4.172
47626W        W12853  13.732  12.981  12.332
47627W        W12854  35.124  15.218   2.893
47628W        W12855  44.309   3.953  11.538
47629W        W12856  25.663  36.430  14.781
47630W        W12857  13.664  33.087  12.654
47631W        W12858  42.256  15.577  14.796
47632W        W12859  34.282  26.425   4.933
47633W        W12860  26.149  32.600   3.075
47634W        W12861  26.221  41.599   0.740
47635W        W12862  31.355   5.281  13.120
47636W        W12863   9.654   2.287   3.170
47637W        W12864  11.663  39.940   3.512
47638W        W12865  14.185  21.444   1.038
47639W        W12866   5.463   6.938   1.014
47640W        W12867   2.203   0.478   1.130
47641W        W12868  14.736   8.459   1.872
47642W        W12869  36.061  44.793   3.303
47643W        W12870  23.245   1.839   2.901
47644W        W12871   3.228  34.558  13.738
47645W        W12872  35.619  33.579   3.810
47646W        W12873  37.399   5.170   3.085
47647W        W12874  43.436  13.435  13.842
47648W        W12875   9.721   3.895  13.613
47649W        W12876   3.047  36.400   1.882
47650W        W12877  10.296  23.672   3.259
47651W        W12878  16.158  31.848   0.483
47652W        W12879   7.900  33.612  10.472
47653W        W12880  12.084   4.875  13.873
47654W        W12881  42.016   6.539  11.270
47655W        W12882   4.520  35.060   1.272
47656W        W12883  26.129   4.146   4.419
47657W        W12884  33.663   2.365   1.787
47658W        W12885   7.006  32.112  10.811
47659W        W12886  33.207  20.762  14.591
47660W        W12887  37.611   0.948   4.224
47661W        W12888  12.896  25.045  14.167
47662W        W12889  34.369  20.561   1.676
47663W        W12890  35.093  12.196  13.070
47664W        W12891  37.467  32.867   0.865
47665W        W12892  25.197  39.051  12.736
47666W        W12893  34.921  43.855  13.837
47667W        W12894  35.380  33.003   0.314
47668W        W12895  44.398  29.685  12.337
47669W        W12896   0.295   6.933   0.899
47670W        W12897  14.316  27.727  12.422
47671W        W12898  12.549  26.044   2.098
47672W        W12899  42.053  29.864  11.553
47673W        W12900  19.909  30.430  12.086
47674W        W12901   2.486  20.975  14.583
47675W        W12902  34.454   7.109   0.163
47676W        W12903  35.801   5.108  10.252
47677W        W12904  15.113  12.651   3.391
47678W        W12905  38.770   0.487  12.101
47679W        W12906  26.461  12.030   0.051
47680W        W12907  35.070   6.683  12.003
47681W        W12908  44.752  17.690  14.830
47682W        W12909  31.126   4.351   2.776
47683W        W12910  28.930  20.108  12.928
47684W        W12911   5.823  31.424  11.865
47685W        W12912  11.543  25.171  14.341
47686W        W12913  44.236  24.720   2.687
47687W        W12914   3.767  41.751  14.912
47688W        W12915   2.743   5.361   0.951
47689W        W12916   3.274  13.605  13.271
47690W        W12917  42.508  38.815  14.766
47691W        W12918  29.523  30.624  11.148
47692W        W12919  26.590  17.783  14.879
47693W        W12920  23.553   3.397  13.179
47694W        W12921   5.470  44.511  11.132
47695W        W12922  18.562  17.306  10.358
47696W        W12923  43.757   2.773  13.093
47697W        W12924  41.865  23.633   3.255
47698W        W12925  36.481  18.818  11.670
47699W        W12926  17.800  11.218  12.020
47700W        W12927  35.666   8.313  11.988
47701W        W12928  24.606  38.089   3.604
47702W        W12929   1.757  40.513   3.811
47703W        W12930  41.044  20.701  14.822
47704W        W12931  43.968   1.294  11.731
47705W        W12932   7.837  18.394  10.173
47706W        W12933   1.518  27.611  13.426
47707W        W12934  20.788   6.225  14.398
47708W        W12935   2.913  42.537  12.520
47709W        W12936   4.951  36.342   1.842
47710W        W12937  40.043  28.460   1.260
47711W        W12938   2.827  38.058  11.892
47712W        W12939  20.167   4.363  12.659
47713W        W12940  12.274  25.041  13.401
47714W        W12941  13.668   0.299   1.907
47715W        W12942   4.757  38.873   4.219
47716W        W12943   2.707  14.077   4.082
47717W        W12944  17.804  15.703   4.200
47718W        W12945  30.257  37.943   0.723
47719W        W12946   4.346  35.175  13.628
47720W        W12947  44.818  20.849  12.557
47721W        W12948  27.593  11.343  12.337
47722W        W12949  43.463  16.512   1.972
47723W        W12950   0.257  12.493  11.986
47724W        W12951  24.934  20.601   4.548
47725W        W12952  30.047  37.608  12.179
47726W        W12953  29.530  26.718  14.023
47727W        W12954  43.411  28.358   5.260
47728W        W12955  22.021  28.712  10.646
47729W        W12956  19.812   5.913  14.543
47730W        W12957  41.004  16.729  14.769
47731W        W12958  15.653  12.401  11.619
47732W        W12959   7.246  10.847   1.383
47733W        W12960  30.223  24.890   9.866
47734W        W12961  28.865   3.426  14.464
47735W        W12962   1.877  19.310   0.394
47736W        W12963  37.443  25.470  14.255
47737W        W12964   7.958   5.948  13.002
47738W        W12965   3.804  38.980   0.080
47739W        W12966   5.462  21.538   4.518
47740W        W12967  29.027  14.729  13.689
47741W        W12968  13.140  21.021  12.059
47742W        W12969   3.209   0.551   5.376
47743W        W12970  30.145   8.560  14.740
47744W        W12971  28.636  10.905  14.009
47745W        W12972  44.987   6.470   2.822
47746W        W12973  44.491  34.317  14.529
47747W        W12974  31.073   8.109   2.817
47748W        W12975  44.472  31.714   0.930
47749W        W12976   3.349   2.380   1.978
47750W        W12977  13.598  32.008   9.994
47751W        W12978  18.067  30.379  13.019
47752W        W12979  26.101   0.447   3.716
47753W        W12980  17.644   2.513  12.075
47754W        W12981   6.000  17.337  10.721
47755W        W12982  13.398  21.758  14.403
47756W        W12983  40.431   0.869   1.259
47757W        W12984  27.139  15.195   1.776
47758W        W12985  40.982  33.972  12.506
47759W        W12986  20.635  28.774   2.715
47760W        W12987  35.739  29.914  12.038
47761W        W12988  41.797  26.601  12.097
47762W        W12989  44.222  33.557   4.216
47763W        W12990  36.110   3.413  12.686
47764W        W12991  42.514  17.170  11.598
47765W        W12992   9.724  33.916  14.922
47766W        W12993  37.352  17.619  14.727
47767W        W12994  38.481  38.572  12.676
47768W        W12995  36.020  24.318  11.985
47769W        W12996  40.549  12.784  12.385
47770W        W12997  32.911  25.957   4.788
47771W        W12998  34.891   0.203   4.691
47772W        W12999   6.162   9.195  11.960
47773W        W13000  12.120  40.021   0.409
47774W        W13001  34.434  26.636  12.022
47775W        W13002   6.077  16.800  13.383
47776W        W13003  19.956  28.017   4.541
47777W        W13004  12.346  44.427   4.227
47778W        W13005  27.912  25.347   3.294
47779W        W13006  36.273  13.668  11.911
47780W        W13007   0.704  36.459  13.952
47781W        W13008  20.995   2.775   2.979
47782W        W13009  21.150  21.185  12.941
47783W        W13010  43.967  15.158   4.172
47784W        W13011  28.999  23.978   1.251
47785W        W13012  41.740   0.351  13.615
47786W        W13013  44.893  26.504  12.105
47787W        W13014  31.698   1.261   0.462
47788W        W13015  34.629  29.024   2.324
47789W        W13016  27.843  20.702   3.670
47790W        W13017   2.276   4.769   3.825
47791W        W13018   8.812   2.217  12.927
47792W        W13019  36.056  38.469  12.401
47793W        W13020  28.047  41.687   0.873
47794W        W13021  20.149  24.665  11.482
47795W        W13022  19.252  36.911  11.116
47796W        W13023  25.832  42.762  14.704
47797W        W13024  13.758  43.507   0.880
47798W        W13025   9.762  34.064   2.610
47799W        W13026  11.267  21.412  11.276
47800W        W13027  42.017  34.883   2.065
47801W        W13028  17.396  42.424  14.035
47802W        W13029  31.200  44.477   2.287
47803W        W13030  28.654  27.926  12.505
47804W        W13031  32.737  28.097  11.144
47805W        W13032  39.332   7.308   0.351
47806W        W13033  26.018  24.648  13.435
47807W        W13034  43.251  21.304   1.222
47808W        W13035  10.032  36.134   0.935
47809W        W13036  42.362  13.990  13.017
47810W        W13037   3.244  38.712   4.481
47811W        W13038   9.495  14.303   1.016
47812W        W13039   2.368  41.472   4.538
47813W        W13040  28.477  29.774  13.116
47814W        W13041  34.674   9.786  13.509
47815W        W13042  29.899  35.930   4.382
47816W        W13043  31.134  31.102  14.239
47817W        W13044  10.335   7.725  13.284
47818W        W13045  32.906  22.702   1.463
47819W        W13046  35.912   2.474  12.434
47820W        W13047  17.086   8.417  13.832
47821W        W13048   6.431  30.176  10.752
47822W        W13049   0.529   8.954  13.380
47823W        W13050   3.523  15.712   0.248
47824W        W13051  41.559  25.564   1.212
47825W        W13052  16.101  19.967   3.320
47826W        W13053  37.527   1.756   0.233
47827W        W13054  30.609   6.216  13.887
47828W        W13055  30.992  23.929  10.346
47829W        W13056  30.896  23.783   0.300
47830W        W13057  26.087  11.788  10.781
47831W        W13058  12.326  22.985   1.932
47832W        W13059   9.554  27.207  14.686
47833W        W13060   7.336  17.565  14.456
47834W        W13061  29.920  17.738   3.195
47835W        W13062   5.248  16.529   0.926
47836W        W13063  10.253  37.290   1.653
47837W        W13064  42.571  15.332   3.738
47838W        W13065  34.552  28.160   1.850
47839W        W13066  24.601   4.288   1.932
47840W        W13067   4.183  13.418  13.494
47841W        W13068  27.349  18.121  13.099
47842W        W13069  33.251   4.878   4.103
47843W        W13070  10.747  42.896   3.364
47844W        W13071  26.411  22.658   0.576
47845W        W13072  43.494  32.269  12.637
47846W        W13073  15.181  15.073  11.187
47847W        W13074   6.780   0.507   4.134
47848W        W13075  37.454  18.795   3.679
47849W        W13076  15.981  25.101   2.300
47850W        W13077  37.523  11.184   0.727
47851W        W13078  25.910  17.847   3.393
47852W        W13079  11.618  14.198  11.455
47853W        W13080   0.031  13.271   2.247
47854W        W13081  34.566   6.286  14.498
47855W        W13082  13.790  13.462  14.420
47856W        W13083  31.075  25.451   0.985
47857W        W13084  29.439  23.085  13.778
47858W        W13085   9.139  21.039  10.754
47859W        W13086  40.874  13.017   4.598
47860W        W13087  23.456  19.880  14.847
47861W        W13088  40.582  43.768   4.557
47862W        W13089  29.352   6.349  13.930
47863W        W13090  26.653   6.388  11.549
47864W        W13091  29.905   2.150  11.522
47865W        W13092  40.400  16.584   4.282
47866W        W13093   0.484  43.486   0.866
47867W        W13094  42.283  37.593  14.573
47868W        W13095  29.874   9.265  10.699
47869W        W13096   1.756   2.373  10.404
47870W        W13097  40.053  22.697   3.728
47871W        W13098  40.546  16.634   1.835
47872W        W13099  44.436  39.546  11.930
47873W        W13100  24.373  29.510  14.794
47874W        W13101   0.127  15.986   2.696
47875W        W13102  12.100  37.683   3.546
47876W        W13103  13.006  42.431   0.459
47877W        W13104   0.658  37.139   3.195
47878W        W13105   2.466  40.852   4.290
47879W        W13106  20.951   0.321  14.111
47880W        W13107  42.031   3.381   5.045
47881W        W13108  43.877  31.752  14.391
47882W        W13109  25.225   1.890   1.316
47883W        W13110  43.829  39.535   4.189
47884W        W13111  29.742   8.442  14.314
47885W        W13112  24.658  16.698   0.983
47886W        W13113   8.699   3.453   4.612
47887W        W13114  18.540  16.633   3.777
47888W        W13115   8.612  36.137   2.356
47889W        W13116  44.560  37.271   2.306
47890W        W13117  37.499   2.355   4.911
47891W        W13118  34.582  13.236   0.365
47892W        W13119  15.702   1.437  13.688
47893W        W13120  16.806   5.763   1.235
47894W        W13121   2.733  16.152   3.714
47895W        W13122  15.628  16.052  14.106
47896W        W13123  35.323   4.774  13.907
47897W        W13124  31.574  16.796   1.736
47898W        W13125  18.645  27.089  13.938
47899W        W13126  15.741  18.780   2.852
47900W        W13127   5.422  30.531  10.710
47901W        W13128  10.696  12.284   0.439
47902W        W13129  11.706  26.421   0.742
47903W        W13130  40.984  30.504  11.915
47904W        W13131   4.649  43.777   2.138
47905W        W13132  12.463   9.331  14.381
47906W        W13133  21.113  26.530   0.716
47907W        W13134   1.563  19.233  11.552
47908W        W13135  42.963  41.212   2.733
47909W        W13136  35.600  13.655  10.822
47910W        W13137  11.062  34.123   0.242
47911W        W13138   1.967  17.791   4.184
47912W        W13139  22.438  21.112   4.021
47913W        W13140  36.875  39.436  12.972
47914W        W13141  17.005  16.242   0.342
47915W        W13142   3.226   7.512  11.146
47916W        W13143   9.657   4.729  12.081
47917W        W13144  23.049  25.952  14.351
47918W        W13145  29.982  36.432   1.770
47919W        W13146   8.615   2.873  10.625
47920W        W13147  42.275  19.112   3.689
47921W        W13148  28.655   9.916  13.540
47922W        W13149   1.838  27.854   3.572
47923W        W13150  44.009  30.593  12.154
47924W        W13151  42.426   6.034  10.780
47925W        W13152  26.236   7.140  13.494
47926W        W13153   0.141  34.054  11.390
47927W        W13154  33.445  14.838  13.892
47928W        W13155  39.482  40.829   4.120
47929W        W13156  41.710  33.895   0.846
47930W        W13157   6.074  30.393   5.265
47931W        W13158  33.157  16.657  12.987
47932W        W13159  20.492   1.278   2.651
47933W        W13160  39.404   9.386  14.468
47934W        W13161   9.401   7.840   2.193
47935W        W13162  12.690  44.587   0.132
47936W        W13163  20.604  10.308   3.996
47937W        W13164  33.991  39.665   3.911
47938W        W13165   0.323  35.512  13.858
47939W        W13166  39.361   9.137  12.542
47940W        W13167  18.621  39.970   2.902
47941W        W13168  44.738  13.737  10.899
47942W        W13169  37.762  32.802  13.079
47943W        W13170  32.876  41.151   2.909
47944W        W13171  28.038  19.606   3.107
47945W        W13172   1.979  20.487   2.246
47946W        W13173  15.269  24.361   2.573
47947W        W13174  16.576  39.540  11.853
47948W        W13175  13.173   1.211  14.697
47949W        W13176   2.950  23.434  13.459
47950W        W13177  16.040  39.343  11.146
47951W        W13178  36.877  38.899   1.355
47952W        W13179  23.466   4.261  11.628
47953W        W13180  30.129  20.082   0.923
47954W        W13181  13.590  10.573   2.146
47955W        W13182  42.104  14.632  14.867
47956W        W13183  23.085  44.677  10.640
47957W        W13184  29.310   1.086  11.937
47958W        W13185  36.904  14.532  14.753
47959W        W13186  17.298  26.205  13.352
47960W        W13187  26.643   5.455  14.539
47961W        W13188   0.455  22.750   1.410
47962W        W13189  21.704  24.720   4.119
47963W        W13190   1.780  43.423  12.117
47964W        W13191  33.221   6.370  14.344
47965W        W13192  22.470  11.794   1.665
47966W        W13193  20.745   0.827   2.670
47967W        W13194  33.574  39.974  13.213
47968W        W13195   3.186  17.620  12.423
47969W        W13196  37.408  43.776   2.748
47970W        W13197  15.304  42.421  14.972
47971W        W13198  17.114  22.041  11.308
47972W        W13199  26.385  11.730  12.491
47973W        W13200  31.471  44.294  14.462
47974W        W13201  41.199  16.788  12.985
47975W        W13202  12.654  31.124  11.616
47976W        W13203   4.007  26.699   2.560
47977W        W13204  35.428  16.320   1.011
47978W        W13205  24.248  44.976  14.113
47979W        W13206   9.338  44.422  12.442
47980W        W13207  35.997  21.047   3.681
47981W        W13208  44.912   1.742   0.410
47982W        W13209   7.796   2.087   0.022
47983W        W13210  14.315  32.687  14.889
47984W        W13211  31.386  32.436   3.850
47985W        W13212   4.573  28.870  13.478
47986W        W13213  25.048   1.759   3.095
47987W        W13214  24.493  36.097   4.146
47988W        W13215   8.998  23.434  14.487
47989W        W13216  43.932  22.468   0.514
47990W        W13217  12.757  11.769  11.384
47991W        W13218  25.019   6.800  14.000
47992W        W13219  18.287  42.410  10.446
47993W        W13220  25.163  19.488  11.542
47994W        W13221  12.833  18.304   2.347
47995W        W13222  25.131   7.799  14.557
47996W        W13223  25.686  43.931   2.829
47997W        W13224  25.439   7.052   2.739
47998W        W13225   1.913  32.582   0.995
47999W        W13226  14.796  11.148  11.201
48000W        W13227  24.066  41.372  14.003
48001W        W13228  35.518  28.921  14.119
48002W        W13229  35.282   2.261  14.674
48003W        W13230   8.305  15.010   4.595
48004W        W13231  23.307  16.984   2.599
48005W        W13232  31.946  44.358   3.248
48006W        W13233   9.073  17.708   3.656
48007W        W13234  18.092  24.168  12.971
48008W        W13235   7.899   4.525  14.437
48009W        W13236   3.387   3.010   3.438
48010W        W13237  27.273  15.918   1.334
48011W        W13238  25.148   5.868   2.328
48012W        W13239  14.820  11.627  13.816
48013W        W13240  17.914  11.143  10.813
48014W        W13241   6.949  35.078   0.861
48015W        W13242  29.603   7.141  14.934
48016W        W13243   5.281  15.354   5.154
48017W        W13244  39.973  24.687  12.232
48018W        W13245  27.859   7.782  11.743
48019W        W13246  28.041   2.285   0.919
48020W        W13247  28.160  41.537  11.215
48021W        W13248  38.750   6.267   3.573
48022W        W13249  43.917  28.422   5.164
48023W        W13250  37.346  40.216  12.517
48024W        W13251  15.478  28.389  13.755
48025W        W13252   2.971  36.886  11.202
48026W        W13253  44.548  39.158   2.725
48027W        W13254  35.564  31.201  11.395
48028W        W13255  14.972  11.527  13.377
48029W        W13256  36.340  41.341   3.711
48030W        W13257   9.807   2.348   3.679
48031W        W13258  36.925   8.439   0.602
48032W        W13259  26.267   8.383  13.501
48033W        W13260  28.668   7.663   3.170
48034W        W13261  17.050  29.502   3.797
48035W        W13262  41.223   1.018   2.228
48036W        W13263  20.587  14.817  11.923
48037W        W13264  37.364  34.692   0.159
48038W        W13265  43.728  13.843  13.016
48039W        W13266  37.931  40.556  11.187
48040W        W13267  14.093  22.551   3.995
48041W        W13268  21.978  20.523   4.987
48042W        W13269  37.424   5.678   1.417
48043W        W13270  23.594  32.922  12.284
48044W        W13271  19.339  38.318   3.469
48045W        W13272  26.010   4.021   2.708
48046W        W13273  32.519  42.911   1.015
48047W        W13274  38.526  16.447  10.494
48048W        W13275   3.827  44.898   0.912
48049W        W13276   9.954  27.529  14.876
48050W        W13277   9.925  27.114  11.945
48051W        W13278  17.161  36.564  14.244
48052W        W13279   2.029  20.899   4.145
48053W        W13280  22.959  16.259   1.497
48054W        W13281  15.988  26.167  13.815
48055W        W13282  25.011  36.082  10.767
48056W        W13283   2.030  25.993  11.207
48057W        W13284  23.191   0.726   1.257
48058W        W13285  36.564  24.182   0.865
48059W        W13286  16.092  37.039  14.339
48060W        W13287  27.594  20.504   0.829
48061W        W13288  35.443  36.846  13.613
48062W        W13289  43.238  36.821  12.054
48063W        W13290  22.939  19.202  12.877
48064W        W13291  29.098  34.844   4.969
48065W        W13292   9.649  34.255   4.561
48066W        W13293  34.185  40.494   4.441
48067W        W13294  33.202  17.736  12.150
48068W        W13295   3.860  14.560   2.657
48069W        W13296  20.264   2.879   2.287
48070W        W13297  18.938  28.021   5.077
48071W        W13298  33.952  35.398   3.984
48072W        W13299  20.583   7.169   2.456
48073W        W13300  15.264   9.814  11.918
48074W        W13301  30.619  11.861  12.872
48075W        W13302  13.258   3.009  10.517
48076W        W13303  43.839  29.008   0.780
48077W        W13304  31.445  25.237   2.268
48078W        W13305   9.722  13.742  11.564
48079W        W13306  36.482  16.642  14.057
48080W        W13307  26.517   5.238  12.968
48081W        W13308   2.377  19.585  12.853
48082W        W13309  18.854  32.429   2.155
48083W        W13310  33.700  18.578  10.765
48084W        W13311  33.132  38.846  12.135
48085W        W13312  31.371  18.538   3.219
48086W        W13313  23.541   8.431  12.545
48087W        W13314  30.435  34.889  11.194
48088W        W13315  33.423  38.100   3.249
48089W        W13316  27.966  27.958  14.911
48090W        W13317  37.969  12.709   1.635
48091W        W13318  22.095  38.666   4.530
48092W        W13319  35.003  29.334   3.090
48093W        W13320  39.049  16.335   4.213
48094W        W13321  30.474  31.085   3.633
48095W        W13322  26.446   6.264   2.216
48096W        W13323  17.362  24.039  10.712
48097W        W13324  14.460   8.132  11.157
48098W        W13325   1.849   7.222  13.158
48099W        W13326  14.856  21.544   0.224
48100W        W13327  41.896  30.565  11.017
48101W        W13328  38.910  42.884  11.925
48102W        W13329  42.402   0.525   4.598
48103W        W13330  43.685  12.894  10.709
48104W        W13331  23.046  13.583   0.833
48105W        W13332  31.957  12.327   3.204
48106W        W13333   8.574  40.362   1.677
48107W        W13334  33.432  21.688  12.671
48108W        W13335  22.141  27.859  13.392
48109W        W13336   9.209  18.779   9.702
48110W        W13337   0.700  35.250   3.364
48111W        W13338  15.101   6.905   4.054
48112W        W13339  26.623  15.845  12.596
48113W        W13340  27.944  31.850  11.975
48114W        W13341  15.378   3.340   4.561
48115W        W13342  24.625  18.366   1.340
48116W        W13343  43.467  12.211  13.978
48117W        W13344  28.983  37.952   0.037
48118W        W13345  44.860  29.096   2.597
48119W        W13346  35.811  25.953   0.738
48120W        W13347  11.628   2.367  10.688
48121W        W13348   3.762   2.997   4.203
48122W        W13349  31.663  40.831   4.104
48123W        W13350  39.840   0.368   1.592
48124W        W13351   3.500   1.706   5.115
48125W        W13352  40.807  27.937  13.895
48126W        W13353  34.500  27.170   2.847
48127W        W13354  18.091  36.307   4.138
48128W        W13355  42.585  19.664   0.823
48129W        W13356  23.943  21.137   4.424
48130W        W13357  18.811   6.107  10.973
48131W        W13358   2.639   1.956   2.337
48132W        W13359  27.299  22.085  14.780
48133W        W13360  14.845  40.199  11.634
48134W        W13361  34.554  15.758   4.463
48135W        W13362   6.867   9.409  10.560
48136W        W13363  18.019  40.597   1.873
48137W        W13364  38.104   1.790   0.888
48138W        W13365  31.969  43.789   1.294
48139W        W13366  19.162  43.425   4.559
48140W        W13367   6.144  10.742  12.079
48141W        W13368  31.600  32.528   2.163
48142W        W13369  16.218  19.183   2.370
48143W        W13370  16.619  28.012  13.651
48144W        W13371  10.836  29.686  11.107
48145W        W13372  16.543  29.398  11.120
48146W        W13373  31.366  15.627   0.330
48147W        W13374  36.478  28.505  14.420
48148W        W13375   6.842   5.198   0.906
48149W        W13376  26.352  20.193   2.239
48150W        W13377  38.346  41.720  14.686
48151W        W13378   9.806  17.840  11.487
48152W        W13379  20.892  41.552   0.771
48153W        W13380   8.538  43.504  12.016
48154W        W13381  30.442   8.075  13.887
48155W        W13382  34.144  37.067   0.342
48156W        W13383  12.684  37.251  13.425
48157W        W13384  11.956  39.847   4.182
48158W        W13385   0.486  37.330   0.886
48159W        W13386  33.721  39.055   0.531
48160W        W13387  27.720  36.485  11.941
48161W        W13388  23.554   8.804   3.879
48162W        W13389  20.001  19.244   2.971
48163W        W13390   7.987   8.187  11.083
48164W        W13391  26.571  28.810   2.744
48165W        W13392  14.882  26.624   4.005
48166W        W13393  42.414  22.032   0.288
48167W        W13394  23.594  35.206  12.648
48168W        W13395  36.864  36.414  13.886
48169W        W13396  24.586  30.511   2.190
48170W        W13397  20.214  12.909   4.294
48171W        W13398  31.593  22.221  10.735
48172W        W13399   5.976  28.075  11.427
48173W        W13400  23.239   1.554  13.990
48174W        W13401  41.470  22.019  14.430
48175W        W13402   7.353  42.949  12.464
48176W        W13403  41.132  11.618  12.068
48177W        W13404  12.809   9.205   2.853
48178W        W13405   6.071  10.424   3.687
48179W        W13406  22.361  39.285  13.798
48180W        W13407   6.098  24.620   0.162
48181W        W13408  29.803  40.286  11.062
48182W        W13409   1.857   3.418  11.063
48183W        W13410  33.488  25.263   3.821
48184W        W13411  40.966  37.764   3.221
48185W        W13412   1.733  33.943   1.709
48186W        W13413  13.305  39.352  14.231
48187W        W13414  42.780  33.983   3.786
48188W        W13415  15.196  27.915   3.333
48189W        W13416  12.432  22.690  11.519
48190W        W13417   8.240  31.992   4.717
48191W        W13418   1.873  33.020   0.289
48192W        W13419   7.870  43.822   4.576
48193W        W13420  28.488  12.455  11.107
48194W        W13421  42.783  33.600  11.187
48195W        W13422  38.252  39.624  11.318
48196W        W13423  43.478  43.062  12.276
48197W        W13424  20.158  30.855   0.440
48198W        W13425  33.130  23.211   2.780
48199W        W13426   6.883  34.287  13.476
48200W        W13427  42.528  42.305  13.503
48201W        W13428  29.584   4.666   4.622
48202W        W13429   2.125  31.601  14.496
48203W        W13430  22.520  12.875  12.165
48204W        W13431  20.177  26.289   0.020
48205W        W13432  31.631  31.087  14.069
48206W        W13433  31.192  35.346   5.026
48207W        W13434  16.470  21.075   3.283
48208W        W13435   1.593  29.065   4.855
48209W        W13436  44.317  36.367   0.164
48210W        W13437   2.890  39.455   2.232
48211W        W13438  30.743   6.782  11.204
48212W        W13439   6.694  13.734   1.521
48213W        W13440  25.609  34.642  14.521
48214W        W13441  30.056  20.721  13.169
48215W        W13442  34.466  15.134  14.641
48216W        W13443  15.411  20.297  12.171
48217W        W13444  44.221  30.977   4.701
48218W        W13445  43.192  29.337   1.984
48219W        W13446  22.990  13.106  13.472
48220W        W13447  13.206  41.125  12.912
48221W        W13448   1.914  28.058   0.902
48222W        W13449  38.979  39.743  11.467
48223W        W13450  40.010  32.295   0.305
48224W        W13451  33.490  17.255   3.687
48225W        W13452  37.430   3.199  13.334
48226W        W13453  27.414  32.541   4.197
48227W        W13454  31.113  22.802   1.964
48228W        W13455  22.052  15.291   2.961
48229W        W13456  39.675  17.562   1.460
48230W        W13457  16.641  41.424  12.186
48231W        W13458  30.604  11.665   4.571
48232W        W13459  43.483   3.967   0.401
48233W        W13460  14.759  19.312   0.247
48234W        W13461  34.629  14.334  14.455
48235W        W13462  33.671  16.741  12.925
48236W        W13463   2.287  15.809  13.941
48237W        W13464  12.126  34.372  14.418
48238W        W13465  41.341  32.378  13.501
48239W        W13466  37.790  10.336   4.079
48240W        W13467  19.685   9.123   2.267
48241W        W13468  12.195   5.805  14.232
48242W        W13469  31.845   3.074  11.953
48243W        W13470  29.624  43.792   3.632
48244W        W13471  33.920  39.127  12.630
48245W        W13472   2.577  23.484   4.726
48246W        W13473  35.382  29.184   1.683
48247W        W13474  17.291  10.646  12.486
48248W        W13475  38.563  37.508   2.799
48249W        W13476  11.766  21.012  12.539
48250W        W13477   7.703  32.412  14.360
48251W        W13478  11.611  19.230   1.324
48252W        W13479   5.016  39.559   4.822
48253W        W13480  36.308  38.619   4.103
48254W        W13481   6.848   1.711  13.420
48255W        W13482  13.377  12.205  14.400
48256W        W13483  21.039  42.862  10.319
48257W        W13484  23.745  18.863  11.479
48258W        W13485  27.802  42.523   1.357
48259W        W13486  32.363  44.332  10.153
48260W        W13487  10.191  26.736   3.884
48261W        W13488  13.275  41.174   0.856
48262W        W13489  13.604  23.065  14.499
48263W        W13490  44.517  21.562   1.314
48264W        W13491  15.564   8.234   3.649
48265W        W13492  34.238  44.451  13.505
48266W        W13493  35.909  44.754   0.756
48267W        W13494  41.770   5.944   1.528
48268W        W13495   2.312  44.161   0.025
48269W        W13496  25.486  26.305  12.944
48270W        W13497   6.906   8.608  13.431
48271W        W13498   4.781   9.079  13.888
48272W        W13499  37.382  31.877  12.015
48273W        W13500  38.418   7.483   4.228
48274W        W13501  34.283  12.427  12.916
48275W        W13502  13.815   2.114   2.834
48276W        W13503   2.191  38.448   2.221
48277W        W13504  16.028  35.280   1.691
48278W        W13505  39.537  27.430   2.410
48279W        W13506  31.014  20.663  11.970
48280W        W13507   2.370  20.008   3.591
48281W        W13508  16.270  17.073  12.143
48282W        W13509  21.515   2.560  11.415
48283W        W13510  38.387   9.245  12.323
48284W        W13511  11.591  44.031   1.182
48285W        W13512   4.361  43.029  11.924
48286W        W13513  31.396   1.235  12.659
48287W        W13514  38.492  43.460  11.260
48288W        W13515  26.728   2.294  12.910
48289W        W13516  38.241  15.192  14.902
48290W        W13517  38.112   5.286  14.836
48291W        W13518  38.075   5.567   3.058
48292W        W13519  31.332  24.659   1.234
48293W        W13520  14.507  30.149   3.161
48294W        W13521  19.039  42.301   3.759
48295W        W13522   9.272   6.431  13.910
48296W        W13523  31.143  28.070  11.987
48297W        W13524  25.003  35.362  10.808
48298W        W13525   0.472   1.852  11.684
48299W        W13526  28.972  10.154   2.524
48300W        W13527  15.685   7.561   0.463
48301W        W13528  38.341  36.728   0.838
48302W        W13529  30.523  20.050  13.441
48303W        W13530  18.505   9.557  14.254
48304W        W13531  18.363  43.308   1.452
48305W        W13532  37.537  32.554  14.343
48306W        W13533  35.977   3.900   4.128
48307W        W13534   1.355  27.672  13.932
48308W        W13535  40.076  11.367  14.948
48309W        W13536  15.590  26.444  14.023
48310W        W13537   1.861   3.621  13.506
48311W        W13538  40.320   8.601  13.723
48312W        W13539  20.544  22.318  12.452
48313W        W13540  32.541  37.813   1.851
48314W        W13541  40.253  31.064  10.580
48315W        W13542  27.580  41.480  14.053
48316W        W13543  21.283  16.750   1.974
48317W        W13544  41.851  36.633  11.619
48318W        W13545  30.843   5.631  10.239
48319W        W13546  31.965  28.082  11.941
48320W        W13547  30.348   8.420   3.697
48321W        W13548  32.230  26.769  14.452
48322W        W13549  39.932  44.298   2.866
48323W        W13550  10.248  36.558  10.573
48324W        W13551   5.878  32.952   0.616
48325W        W13552  17.775  18.806   4.201
48326W        W13553  15.211  18.995   1.352
48327W        W13554  25.586  41.533   3.095
48328W        W13555   0.816  24.513  11.536
48329W        W13556  42.818  16.364  13.772
48330W        W13557  32.176  41.197  13.461
48331W        W13558  13.087  25.210   4.451
48332W        W13559  24.132  33.701  13.826
48333W        W13560  19.622  26.099   4.566
48334W        W13561  31.531  31.901   3.847
48335W        W13562  10.593  38.893  14.959
48336W        W13563  31.131  19.010   2.939
48337W        W13564  14.691   4.682  11.142
48338W        W13565  15.573   1.775   0.927
48339W        W13566   0.852  28.957  13.831
48340W        W13567  43.787  32.112   0.351
48341W        W13568   0.930  17.654  11.545
48342W        W13569  43.272  24.137  13.860
48343W        W13570  30.502   1.624  13.783
48344W        W13571  31.576  40.006   3.132
48345W        W13572  23.136  15.896   4.252
48346W        W13573  27.937  19.231   0.860
48347W        W13574  13.530   1.762  10.415
48348W        W13575  15.306   7.734   4.050
48349W        W13576  42.343  10.891  10.767
48350W        W13577  33.378   7.949  11.545
48351W        W13578  31.677  43.769  14.415
48352W        W13579  29.070  14.249  12.231
48353W        W13580  25.768  16.321   2.808
48354W        W13581   4.647  26.081  10.589
48355W        W13582  26.884  42.231   2.492
48356W        W13583  21.499  42.354  10.588
48357W        W13584  31.143  18.110  10.524
48358W        W13585  44.553   7.690  12.011
48359W        W13586   2.456  31.191   0.430
48360W        W13587  32.582  33.454   1.306
48361W        W13588  10.303  32.654  13.050
48362W        W13589  15.022  12.066  13.308
48363W        W13590  24.646  24.040   4.573
48364W        W13591  29.371  14.056   2.524
48365W        W13592  21.647  20.794   4.272
48366W        W13593  18.981  32.427  12.909
48367W        W13594  39.903  21.488  11.983
48368W        W13595  26.425  26.514   4.572
48369W        W13596  23.462   1.818   1.993
48370W        W13597   3.314   8.497  14.503
48371W        W13598  41.965   0.733   0.849
48372W        W13599   7.180   2.535   2.110
48373W        W13600   0.875   8.027  10.671
48374W        W13601  35.187  40.946   4.175
48375W        W13602  44.528   5.271   3.575
48376W        W13603  35.284  16.768   4.075
48377W        W13604  11.737  22.078   3.656
48378W        W13605   3.841   4.855   2.370
48379W        W13606   9.743  25.368  10.419
48380W        W13607  43.236   4.925   0.098
48381W        W13608  34.816  18.627  11.595
48382W        W13609  32.178  17.711   4.630
48383W        W13610  11.752   3.015   2.386
48384W        W13611  41.843   9.139  13.349
48385W        W13612  16.074  43.489   2.710
48386W        W13613  42.397  24.700   4.594
48387W        W13614  22.450  18.792  11.613
48388W        W13615  37.902   6.687  12.627
48389W        W13616  15.695  40.537   0.800
48390W        W13617  15.624  14.746  14.894
48391W        W13618  32.633  17.232  10.587
48392W        W13619   2.896  14.587   0.241
48393W        W13620  18.907  39.525   2.199
48394W        W13621   1.516  21.480  12.097
48395W        W13622  32.415  17.834   0.760
48396W        W13623  19.311  40.361   1.886
48397W        W13624  35.861   0.030   2.193
48398W        W13625   8.826  23.129  12.960
48399W        W13626   2.946  16.352  14.903
48400W        W13627   1.484  21.105  12.946
48401W        W13628  43.491   7.393   4.465
48402W        W13629  11.497  37.993  12.822
48403W        W13630  24.209  37.460  11.632
48404W        W13631  11.674  44.466   5.027
48405W        W13632   4.295  42.298   4.474
48406W        W13633  18.889  13.171  13.954
48407W        W13634  17.154  12.425  10.159
48408W        W13635  43.669  37.079  11.925
48409W        W13636  23.708  41.633   1.032
48410W        W13637   3.647  10.381   0.714
48411W        W13638  44.999  14.908   1.512
48412W        W13639   2.697   8.704   2.324
48413W        W13640   4.654  15.109  14.041
48414W        W13641   3.194  19.177   3.355
48415W        W13642  32.425  15.189  11.539
48416W        W13643  44.028  42.148  12.802
48417W        W13644  18.521   7.904   1.659
48418W        W13645  14.434  26.953  13.609
48419W        W13646  27.877  16.071   4.590
48420W        W13647  19.776  37.027  11.135
48421W        W13648   1.267   4.869   2.066
48422W        W13649   0.502  12.419   0.525
48423W        W13650   8.623  40.817   0.932
48424W        W13651  17.224  15.703   0.303
48425W        W13652  43.469  19.544   1.869
48426W        W13653  17.775   7.033   4.555
48427W        W13654  42.801   3.777   1.475
48428W        W13655   6.575  35.848  12.748
48429W        W13656  32.417   1.360  14.691
48430W        W13657  27.159   5.703   0.966
48431W        W13658  18.114  11.212  14.686
48432W        W13659  16.157  42.954  11.782
48433W        W13660   2.828  15.463   4.451
48434W        W13661  16.664  26.815   1.704
48435W        W13662  18.920  22.235   3.593
48436W        W13663  29.276   2.183  10.641
48437W        W13664   4.246  17.713  10.442
48438W        W13665   6.795  32.472   3.870
48439W        W13666  22.969   7.458  14.310
48440W        W13667   0.774  43.167   2.639
48441W        W13668  29.196  22.185  10.790
48442W        W13669  22.938   9.396  12.041
48443W        W13670  44.174  10.754  10.753
48444W        W13671  39.514  26.205   0.765
48445W        W13672   0.898  21.236   0.236
48446W        W13673  28.126  18.144  14.462
48447W        W13674   0.311  22.406  14.215
48448W        W13675  16.697   4.012   3.147
48449W        W13676  12.366  17.333  11.162
48450W        W13677  27.620  38.804  12.565
48451W        W13678  13.962  12.673   3.604
48452W        W13679   7.546  26.342   3.797
48453W        W13680  13.338  36.129  12.599
48454W        W13681  34.505  35.309  11.975
48455W        W13682  18.326   4.907  11.143
48456W        W13683   0.756  33.900   2.826
48457W        W13684  27.078  41.933  12.921
48458W        W13685  22.636  12.464   4.735
48459W        W13686   9.755  40.111  14.462
48460W        W13687   8.779  32.084  13.113
48461W        W13688  18.844  13.148   4.115
48462W        W13689   3.463  29.164   1.985
48463W        W13690  10.810   2.826   3.234
48464W        W13691  39.524  39.954  10.766
48465W        W13692  31.642   1.339  11.227
48466W        W13693  33.253  21.161  14.965
48467W        W13694   1.869  14.694  14.621
48468W        W13695  14.647  35.926  12.092
48469W        W13696  27.561   1.979   0.818
48470W        W13697   2.185  29.095  12.352
48471W        W13698  16.727  19.864   1.321
48472W        W13699  38.096   3.733  11.535
48473W        W13700  39.843  22.509  12.095
48474W        W13701  29.146   9.607   0.193
48475W        W13702   6.795  10.709  10.729
48476W        W13703  40.460  11.104  13.807
48477W        W13704  24.305  22.060  12.590
48478W        W13705  26.923  28.421   3.860
48479W        W13706  37.390  14.128  14.249
48480W        W13707  36.628  30.936   2.661
48481W        W13708  27.270   5.461   2.863
48482W        W13709  40.912  35.369  12.675
48483W        W13710  33.948  15.836   2.822
48484W        W13711  38.304  16.605   2.080
48485W        W13712  12.071  40.065   1.158
48486W        W13713  44.887   7.908  14.776
48487W        W13714  26.714  34.277   0.839
48488W        W13715  18.301   0.495  12.479
48489W        W13716  37.883   8.913   4.332
48490W        W13717  22.054  35.433  10.890
48491W        W13718  29.445   5.828   0.199
48492W        W13719   2.846  38.932  12.233
48493W        W13720  11.862  32.379   1.264
48494W        W13721  21.555  19.436   4.268
48495W        W13722  26.899  12.251   0.218
48496W        W13723  38.837  13.393   1.816
48497W        W13724  33.867  31.350   4.078
48498W        W13725  13.888  16.300  13.283
48499W        W13726  40.952  15.664  11.633
48500W        W13727  22.028  40.832  10.432
48501W        W13728  15.891   1.950   2.311
48502W        W13729  20.076  19.820  14.896
48503W        W13730  25.658  36.020   0.397
48504W        W13731  35.922   6.623  14.777
48505W        W13732  42.431  14.080  14.108
48506W        W13733  37.558   2.902   4.179
48507W        W13734  40.924  20.571   3.240
48508W        W13735  28.568   9.147  11.943
48509W        W13736   2.324  23.028   2.167
48510W        W13737   8.338   2.707  13.437
48511W        W13738  28.594   0.282  10.544
48512W        W13739   1.303  28.971  13.567
48513W        W13740   5.248  44.434   3.040
48514W        W13741  34.576  15.996  12.398
48515W        W13742   6.780   3.893   4.719
48516W        W13743  16.679  43.547  14.056
48517W        W13744  10.863  25.251   2.591
48518W        W13745   5.744  18.067   0.355
48519W        W13746  17.028  26.233  12.099
48520W        W13747   3.743   7.889  13.448
48521W        W13748  15.738  28.512  12.451
48522W        W13749  23.092   2.522   1.639
48523W        W13750   5.854   7.914  11.513
48524W        W13751  34.872  18.299   3.120
48525W        W13752  12.556  21.836  11.772
48526W        W13753  42.910  14.751   3.091
48527W        W13754  10.713  40.941   4.627
48528W        W13755  32.319  31.457   3.045
48529W        W13756  40.538  38.944   1.307
48530W        W13757  43.357  27.396   3.244
48531W        W13758  24.065  19.648   0.626
48532W        W13759  12.923  18.109  11.245
48533W        W13760  16.915  14.082  10.997
48534W        W13761  16.766   3.675  11.218
48535W        W13762  25.272  18.136   1.197
48536W        W13763  17.075  33.476   4.575
48537W        W13764  29.195  22.198   2.787
48538W        W13765  13.970  37.971  13.232
48539W        W13766  20.296  39.128   4.828
48540W        W13767  35.968  16.011   2.239
48541W        W13768  22.685  42.042   3.820
48542W        W13769   6.169  40.506   1.657
48543W        W13770  28.528  19.733   2.851
48544W        W13771  20.537   6.674   1.764
48545W        W13772  17.609   0.442   0.513
48546W        W13773   5.087   3.418   4.901
48547W        W13774  26.907  11.738   1.878
48548W        W13775   6.766  42.452   0.961
48549W        W13776  22.284  40.370  12.554
48550W        W13777  40.739   3.399  11.958
48551W        W13778   9.228   5.384  14.011
48552W        W13779   9.258   5.820  10.901
48553W        W13780  27.438  15.892   2.244
48554W        W13781  36.433  40.504  13.830
48555W        W13782  43.595  18.798  11.574
48556W        W13783  26.911   2.221  11.046
48557W        W13784   8.742   0.430   2.416
48558W        W13785  27.266  26.521  12.979
48559W        W13786  44.504  12.800   0.040
48560W        W13787   1.490  20.162  13.028
48561W        W13788   4.295   8.783  13.766
48562W        W13789   0.265  22.832  12.337
48563W        W13790   2.462  28.663   1.806
48564W        W13791  13.643  36.864  13.291
48565W        W13792  20.546  18.306  10.657
48566W        W13793  23.965  18.108   2.764
48567W        W13794  31.478  21.681  14.913
48568W        W13795  25.285   1.419  10.680
48569W        W13796  40.027  13.087  11.706
48570W        W13797  27.976  36.880   2.601
48571W        W13798   8.366   5.816  12.696
48572W        W13799  37.357   6.531   1.670
48573W        W13800  43.935   4.530   1.655
48574W        W13801   9.927  42.324  12.336
48575W        W13802  42.817  34.408   1.109
48576W        W13803  35.176  25.993  14.951
48577W        W13804  27.450  29.875  10.691
48578W        W13805   2.409  28.126   1.860
48579W        W13806  33.542  15.183   0.007
48580W        W13807  31.119  28.747  10.374
48581W        W13808  10.717   7.878  11.112
48582W        W13809   7.438  28.382  14.397
48583W        W13810  17.730  27.981   1.842
48584W        W13811  40.315  37.132  11.525
48585W        W13812  32.183  12.232   3.652
48586W        W13813  27.065   8.739  12.377
48587W        W13814  11.718  44.759  10.631
48588W        W13815   9.369   1.077  11.619
48589W        W13816   4.270  40.036  14.019
48590W        W13817  29.560  15.598   3.015
48591W        W13818  21.748  39.410   0.736
48592W        W13819  19.025  24.647  12.967
48593W        W13820  34.335  10.935  10.610
48594W        W13821   1.975   6.244   1.854
48595W        W13822  25.631  25.147   2.734
48596W        W13823  13.170  13.065  14.140
48597W        W13824  17.079  22.341   1.293
48598W        W13825  16.337  27.666  14.330
48599W        W13826  24.453  21.635   0.094
48600W        W13827   9.893  32.846  14.459
48601W        W13828   2.196  41.937   5.403
48602W        W13829  13.608   1.517   4.660
48603W        W13830  30.426  21.959   4.833
48604W        W13831   7.821   0.710   2.878
48605W        W13832  41.312   3.707  11.460
48606W        W13833  34.801   3.393   1.658
48607W        W13834   5.708  35.409   1.458
48608W        W13835  25.169  18.839  14.001
48609W        W13836  43.744   6.450   1.803
48610W        W13837  24.922  35.358   4.556
48611W        W13838  43.785  12.549  12.044
48612W        W13839  38.491   6.719   2.803
48613W        W13840  32.482  35.878  10.539
48614W        W13841  10.204   1.981   4.134
48615W        W13842  37.843  31.786  13.826
48616W        W13843  23.645  22.458   1.969
48617W        W13844  39.824  44.036  14.499
48618W        W13845  42.453  32.561  13.497
48619W        W13846   2.681  35.699   1.246
48620W        W13847   1.734  31.933  11.466
48621W        W13848  24.613   2.263  12.816
48622W        W13849  12.330  22.853   4.915
48623W        W13850  40.105  44.999   3.192
48624W        W13851  12.399   7.818  11.336
48625W        W13852   1.762  27.828  14.824
48626W        W13853  41.506  19.799  12.487
48627W        W13854   9.315   9.590  14.898
48628W        W13855   5.294   3.855  11.015
48629W        W13856   0.930  16.547  13.010
48630W        W13857   1.496  34.957  13.100
48631W        W13858  17.257  24.148   5.209
48632W        W13859   7.686   8.949  14.650
48633W        W13860   9.451  10.381  13.485
48634W        W13861  36.932  42.202   1.762
48635W        W13862  39.844   9.278  12.433
48636W        W13863  42.924  34.436   0.608
48637W        W13864  40.324   7.251  12.079
48638W        W13865   2.790  34.697   4.764
48639W        W13866   0.974  17.275   3.708
48640W        W13867  24.023  22.251   3.641
48641W        W13868   8.456  14.601   0.376
48642W        W13869  21.945  11.641  11.145
48643W        W13870  24.652  20.041  11.660
48644W        W13871  12.210   3.912  14.944
48645W        W13872  42.863   8.356   3.614
48646W        W13873  27.223  20.290   2.471
48647W        W13874  21.555  11.977  11.275
48648W        W13875  37.572   0.491   0.775
48649W        W13876  26.925   7.696  14.929
48650W        W13877   5.706  30.623   1.197
48651W        W13878  40.502  21.238  10.742
48652W        W13879  28.493  13.940  11.116
48653W        W13880  29.021  31.843  10.806
48654W        W13881   4.751   4.819  13.326
48655W        W13882  25.563  43.696   3.779
48656W        W13883  20.120   6.784   2.702
48657W        W13884  38.877  24.319   1.797
48658W        W13885  33.730  44.346  11.549
48659W        W13886  30.321  35.511   2.434
48660W        W13887   3.852  13.102  14.368
48661W        W13888  26.309  25.299  10.714
48662W        W13889  30.984  41.778   3.202
48663W        W13890  11.347  14.203   4.500
48664W        W13891  28.647   1.518   0.933
48665W        W13892  13.026   3.755  11.106
48666W        W13893  32.670  17.757  14.436
48667W        W13894  20.684  33.099   1.900
48668W        W13895   8.875  12.582   3.675
48669W        W13896  13.095  31.618   0.448
48670W        W13897  21.179   6.354   1.239
48671W        W13898  22.767  15.724  10.558
48672W        W13899  23.551  16.084   2.374
48673W        W13900  33.158  30.295   1.873
48674W        W13901  36.581  41.603   1.271
48675W        W13902   0.238  21.502   1.813
48676W        W13903  11.080  25.955   0.811
48677W        W13904  34.330  10.425   3.184
48678W        W13905  43.657  26.858   2.637
48679W        W13906   4.850  12.693   3.097
48680W        W13907   7.407   4.289  11.009
48681W        W13908  15.084  23.127   0.805
48682W        W13909  44.896  26.934  14.840
48683W        W13910   2.711  26.832  12.657
48684W        W13911   7.227  23.629   3.069
48685W        W13912  36.078  34.041   0.743
48686W        W13913  22.180   2.489   3.339
48687W        W13914  23.839   8.209   2.694
48688W        W13915   7.652  22.755  11.141
48689W        W13916  30.421  42.524  11.106
48690W        W13917  38.271  14.099   0.884
48691W        W13918  19.143  19.247   0.264
48692W        W13919   6.662  39.233  11.798
48693W        W13920  23.131  13.172  10.684
48694W        W13921  12.134  20.209   3.555
48695W        W13922  10.925  44.035  11.159
48696W        W13923  23.903  43.446  11.603
48697W        W13924  32.405  11.048   4.301
48698W        W13925  35.481  10.878  13.486
48699W        W13926   2.465  13.325  11.153
48700W        W13927  11.142  22.715  11.121
48701W        W13928  20.143  43.368   3.736
48702W        W13929  42.965  14.725  14.574
48703W        W13930  29.454  32.899  12.664
48704W        W13931  24.697  27.903   1.248
48705W        W13932   4.337  14.059  10.675
48706W        W13933  41.353  22.595   1.142
48707W        W13934   9.041   9.893   4.472
48708W        W13935  24.007  10.825  11.590
48709W        W13936  24.535   6.619  10.984
48710W        W13937  22.271  22.635  14.809
48711W        W13938  12.187  25.760  13.860
48712W        W13939  10.601  36.868  12.079
48713W        W13940  38.358  15.851   0.349
48714W        W13941   7.443  37.903  12.957
48715W        W13942  31.701  39.970  12.510
48716W        W13943   5.890  10.066  11.492
48717W        W13944   9.265  39.029  14.277
48718W        W13945  11.784  28.563   2.302
48719W        W13946  33.369  43.006  14.473
48720W        W13947  29.945  43.420   2.402
48721W        W13948  34.685   5.041   5.090
48722W        W13949   1.016   3.481   1.489
48723W        W13950  13.293  33.426  13.387
48724W        W13951  36.884  31.302  13.058
48725W        W13952  19.170  30.979   2.812
48726W        W13953  30.723   4.716  13.699
48727W        W13954  23.078  19.583  12.462
48728W        W13955   7.699  15.062   0.352
48729W        W13956   4.405   1.906   4.994
48730W        W13957  39.106  22.203  10.622
48731W        W13958   5.755   9.092  14.398
48732W        W13959  35.007   5.891  11.576
48733W        W13960  18.240  24.666   4.310
48734W        W13961  15.580  20.560  10.686
48735W        W13962  10.371  41.075  14.034
48736W        W13963  39.566  14.102  14.402
48737W        W13964  44.701  22.257   4.568
48738W        W13965  35.797   4.687  14.884
48739W        W13966  15.948   1.585  11.607
48740W        W13967  38.498  32.473   3.682
48741W        W13968  39.418  38.053   0.424
48742W        W13969  39.341   8.902   4.674
48743W        W13970  35.203  34.963  14.744
48744W        W13971  27.386   0.868   0.406
48745W        W13972  18.729   3.877  10.782
48746W        W13973   5.820  14.257   3.253
48747W        W13974  17.708  19.810   0.573
48748W        W13975  26.040   1.875  11.698
48749W        W13976  23.137  32.840  12.047
48750W        W13977  30.567   0.525  13.505
48751W        W13978  37.734  25.970  13.853
48752W        W13979  29.426  22.782  10.264
48753W        W13980   3.144   2.847   0.193
48754W        W13981  42.246  34.385  11.643
48755W        W13982   4.263  22.204  12.053
48756W        W13983  30.950  35.087   4.475
48757W        W13984  10.227   5.082   4.646
48758W        W13985  41.999  44.434   0.273
48759W        W13986  10.562  38.805  11.979
48760W        W13987  28.357  11.557  12.053
48761W        W13988   5.730  17.994   3.733
48762W        W13989  11.686  11.871   3.127
48763W        W13990  28.796  34.635   1.664
48764W        W13991  30.569   7.153   1.357
48765W        W13992  24.404  44.918   0.407
48766W        W13993  36.303  10.917  14.327
48767W        W13994  37.976  44.696  13.316
48768W        W13995  41.353  19.031  11.463
48769W        W13996  29.036  36.990  13.904
48770W        W13997  36.642   2.264  14.097
48771W        W13998  33.493  22.483  11.093
48772W        W13999  42.134  29.344  11.585
48773W        W14000  24.760  13.204   1.240
48774W        W14001  10.640  37.925   4.581
48775W        W14002  28.923   5.775  13.318
48776W        W14003   4.844  31.028   1.317
48777W        W14004  14.924   5.859  14.330
48778W        W14005   0.259   3.678   4.595
48779W        W14006   9.359  37.471   1.893
48780W        W14007  26.422  30.968  13.543
48781W        W14008  25.629  25.184   3.867
48782W        W14009  34.264   4.844   4.071
48783W        W14010  42.035  19.089  13.956
48784W        W14011  39.581   5.627  11.361
48785W        W14012  43.635  36.530   1.122
48786W        W14013  24.982   2.729   0.820
48787W        W14014  22.181  14.815   2.814
48788W        W14015  18.797   3.038  14.828
48789W        W14016   6.948  14.269  12.101
48790W        W14017  12.604  10.914   4.364
48791W        W14018  12.027  40.839   2.259
48792W        W14019  44.325  17.353   4.174
48793W        W14020  42.458  43.126  12.948
48794W        W14021  22.155   6.007  11.538
48795W        W14022   3.891  33.519  10.677
48796W        W14023  36.720  18.278   4.738
48797W        W14024  24.245  26.718   1.981
48798W        W14025  31.160  20.032   2.827
48799W        W14026  23.761  43.384   3.620
48800W        W14027  42.206  23.975   1.936
48801W        W14028  28.346  39.939  11.909
48802W        W14029  24.343  16.256   4.640
48803W        W14030  13.793  16.563   3.594
48804W        W14031  15.127   3.861   2.367
48805W        W14032  17.853  39.835  11.379
48806W        W14033   8.189  17.076  12.980
48807W        W14034  15.790  32.256   1.392
48808W        W14035  10.452  31.382  14.867
48809W        W14036   1.278  22.060  13.237
48810W        W14037  15.366  21.991  12.939
48811W        W14038  25.037  11.562  11.958
48812W        W14039  24.424  40.390  12.185
48813W        W14040   0.952  11.910  14.998
48814W        W14041  29.226  17.210  11.477
48815W        W14042   0.318  26.085  10.709
48816W        W14043  38.917   3.797   2.679
48817W        W14044   2.799  20.828  12.480
48818W        W14045  30.096   0.277  12.431
48819W        W14046  19.192  25.497  12.064
48820W        W14047  17.054  25.599   0.243
48821W        W14048  21.268  17.939  12.931
48822W        W14049  30.432  19.578   0.434
48823W        W14050   2.925  23.120   2.445
48824W        W14051  14.786  15.522  12.923
48825W        W14052  44.200  12.871  10.757
48826W        W14053  30.204  25.074   5.519
48827W        W14054  28.078  44.333  10.293
48828W        W14055  34.513  27.189  13.848
48829W        W14056  35.828  26.428   2.356
48830W        W14057  29.097  20.266  13.392
48831W        W14058  35.975   4.554   1.185
48832W        W14059  37.360  36.487  13.788
48833W        W14060   8.241  27.722   3.713
48834W        W14061  21.075  43.708   5.055
48835W        W14062  35.980   8.866   4.014
48836W        W14063   2.524  15.623  12.987
48837W        W14064  38.570  38.180  12.995
48838W        W14065  19.844  15.047  13.373
48839W        W14066  21.168  22.908   1.749
48840W        W14067   1.867  14.024   2.890
48841W        W14068  20.939  12.240  13.078
48842W        W14069  25.521  19.424   2.918
48843W        W14070  15.761  37.794  14.544
48844W        W14071  23.972  22.601   2.865
48845W        W14072  28.074   5.749  14.674
48846W        W14073  17.606  31.180   3.580
48847W        W14074  34.126   1.609   2.297
48848W        W14075   1.978  25.966  14.438
48849W        W14076  11.814  40.233  14.673
48850W        W14077   0.776  31.921  10.484
48851W        W14078   8.803   2.901  12.694
48852W        W14079  41.005  12.518   2.167
48853W        W14080  27.189  16.485   3.157
48854W        W14081  19.655  23.723  13.461
48855W        W14082  17.862  16.034  11.464
48856W        W14083  21.479  23.556  14.233
48857W        W14084  28.945   6.158   2.691
48858W        W14085  12.498   4.127   1.754
48859W        W14086  36.565  41.272   4.709
48860W        W14087  40.689  25.301  13.954
48861W        W14088  29.001  33.389  14.401
48862W        W14089   1.372  31.513   4.082
48863W        W14090  14.864  40.243   4.506
48864W        W14091  23.754  33.811   3.854
48865W        W14092  28.599  24.921   2.811
48866W        W14093  19.161  28.000  12.580
48867W        W14094  27.892   3.490   2.345
48868W        W14095   3.737  15.374   3.139
48869W        W14096  36.357  42.363   0.294
48870W        W14097  28.474  32.002   4.865
48871W        W14098  40.506  25.229  12.495
48872W        W14099   5.237  24.037   4.495
48873W        W14100  23.932  36.916   4.718
48874W        W14101   5.836  33.126  11.289
48875W        W14102  14.646  37.618   4.139
48876W        W14103  29.325  37.718  14.370
48877W        W14104  25.548  40.956  11.141
48878W        W14105   7.282  23.469  11.913
48879W        W14106  37.088  21.546   0.514
48880W        W14107  24.474  32.998  11.224
48881W        W14108  35.506  20.251  13.299
48882W        W14109  19.030  13.513  12.561
48883W        W14110  12.821  12.859  13.321
48884W        W14111  33.592  31.453   0.672
48885W        W14112  25.058  20.337   4.096
48886W        W14113  24.578   5.409   9.567
48887W        W14114  20.701  10.707   3.628
48888W        W14115   9.815   8.470  14.474
48889W        W14116  30.057  19.875  11.808
48890W        W14117  29.525  20.718   4.111
48891W        W14118  34.183   0.959  10.854
48892W        W14119  27.863  27.334   2.523
48893W        W14120  37.328  24.120   1.300
48894W        W14121  33.516  38.142  12.932
48895W        W14122  29.792   5.283  14.382
48896W        W14123  25.007  43.854   1.716
48897W        W14124  25.313  10.285  10.202
48898W        W14125  20.056  34.516   0.693
48899W        W14126  26.250  42.883   2.402
48900W        W14127  32.160   0.264   1.277
48901W        W14128  12.280   4.778  10.921
48902W        W14129  20.810   6.678  12.506
48903W        W14130  22.563  44.807  14.900
48904W        W14131  29.118   2.221  14.775
48905W        W14132  44.845  15.565   2.514
48906W        W14133  35.557  11.267  10.995
48907W        W14134   5.331  21.483  14.816
48908W        W14135  14.589  28.496   2.724
48909W        W14136  23.914  27.919  11.200
48910W        W14137  32.861  18.143  12.125
48911W        W14138  24.007  11.214   2.260
48912W        W14139  34.331  13.330  10.598
48913W        W14140  24.243  44.275   3.654
48914W        W14141   3.381   0.977  11.443
48915W        W14142  37.003  29.483   4.613
48916W        W14143  13.295   1.011   1.039
48917W        W14144  25.187  18.061  12.008
48918W        W14145  13.470  41.180   0.365
48919W        W14146  39.568   5.879   2.223
48920W        W14147  36.968  20.068  12.753
48921W        W14148   9.848  26.024  10.671
48922W        W14149  29.219   6.808   0.074
48923W        W14150   5.043  21.189  12.781
48924W        W14151  25.712  29.956   0.368
48925W        W14152  22.687   6.716   4.391
48926W        W14153  19.058  16.070  12.560
48927W        W14154  43.556  38.448  12.037
48928W        W14155   9.549  12.666  12.116
48929W        W14156  37.260  44.630   1.015
48930W        W14157  16.775  44.169  11.376
48931W        W14158   4.808  35.367   2.023
48932W        W14159  30.717  28.634  10.688
48933W        W14160  34.949   7.263  10.733
48934W        W14161  17.646  29.189  10.547
48935W        W14162  11.457   2.896   4.686
48936W        W14163  16.917   1.363  13.395
48937W        W14164   1.917  39.571  11.770
48938W        W14165  28.319   8.344   4.333
48939W        W14166  14.364   8.244   0.725
48940W        W14167  23.431  17.581  12.872
48941W        W14168  39.573  41.444   0.756
48942W        W14169  29.932  36.078  11.978
48943W        W14170  39.263  31.532   1.902
48944W        W14171   4.186  42.043  10.747
48945W        W14172  35.968   6.917  10.667
48946W        W14173   7.123  38.397   3.610
48947W        W14174  24.513   9.747  13.395
48948W        W14175  38.543  14.691   4.426
48949W        W14176  38.563  40.034  11.487
48950W        W14177   4.537  25.689  13.816
48951W        W14178  19.996  28.027  14.960
48952W        W14179  16.897  30.919   1.684
48953W        W14180  41.180  35.930   1.840
48954W        W14181  25.258  27.653   2.136
48955W        W14182  43.178  22.807  10.355
48956W        W14183  13.239  20.491  13.922
48957W        W14184  44.788  14.712   2.413
48958W        W14185   9.919  42.006   0.018
48959W        W14186  11.062  31.110   1.520
48960W        W14187  25.604  20.249   3.210
48961W        W14188  18.834   0.816   3.906
48962W        W14189  38.000   1.473   1.301
48963W        W14190  33.121  13.786  14.869
48964W        W14191  36.629  30.561   1.210
48965W        W14192   9.845  21.213  12.422
48966W        W14193  27.914  26.622  11.102
48967W        W14194  27.175   2.328   2.857
48968W        W14195   4.174   3.410   0.278
48969W        W14196  42.438   6.528   2.777
48970W        W14197   0.712  42.091  14.879
48971W        W14198  10.812  44.944  14.910
48972W        W14199  10.445  39.981   1.856
48973W        W14200  12.684  31.066  14.895
48974W        W14201   7.736   5.023  12.884
48975W        W14202  36.806   9.265  13.119
48976W        W14203   0.326  33.163  10.707
48977W        W14204  40.299  26.740   0.823
48978W        W14205   0.443  36.093  12.933
48979W        W14206   0.474  23.098   0.971
48980W        W14207  15.684  29.193  13.099
48981W        W14208  34.826  34.958  12.774
48982W        W14209  37.438  29.984   0.555
48983W        W14210  16.046  19.935  13.351
48984W        W14211  11.313  13.703   2.609
48985W        W14212   6.697  26.503   2.911
48986W        W14213  21.696  42.812   0.431
48987W        W14214  28.550  35.890  11.730
48988W        W14215  30.548   3.231   0.809
48989W        W14216  35.016   7.303  12.537
48990W        W14217  20.307   6.818  14.797
48991W        W14218  26.731  18.713   1.818
48992W        W14219  31.429  22.329  12.564
48993W        W14220  19.046  28.670  14.276
48994W        W14221  13.061  15.143   4.565
48995W        W14222  13.248  31.364   3.205
48996W        W14223  27.112  36.590   3.167
48997W        W14224  31.016   6.662  14.552
48998W        W14225  44.483  30.195   1.068
48999W        W14226   0.223  21.808   5.152
49000W        W14227  12.629   2.392   2.012
49001W        W14228  44.274  32.699   0.305
49002W        W14229  42.630  34.622  14.276
49003W        W14230  13.163  24.549   0.861
49004W        W14231  22.782  18.150  12.791
49005W        W14232  31.477  39.532  14.898
49006W        W14233  35.649   8.467   3.918
49007W        W14234  19.155  26.777  12.772
49008W        W14235   1.784  13.258   1.294
49009W        W14236   7.623  35.279   4.837
49010W        W14237  22.555  23.922  11.589
49011W        W14238  41.285  13.710  12.447
49012W        W14239  11.711  25.074  12.186
49013W        W14240  44.435  30.569  11.499
49014W        W14241  29.432   3.737   1.199
49015W        W14242  13.581   5.605  12.456
49016W        W14243  23.189  43.525  14.804
49017W        W14244  34.688  34.949  12.294
49018W        W14245  41.977  25.640  13.872
49019W        W14246  36.263  19.113   2.909
49020W        W14247   1.355  15.667   3.171
49021W        W14248  42.970  43.097   2.696
49022W        W14249  14.793  22.676  13.873
49023W        W14250  18.736   0.184  11.591
49024W        W14251  16.794  14.959  13.984
49025W        W14252  42.952  42.943  13.058
49026W        W14253  23.532  14.875   1.689
49027W        W14254  16.159  12.054  14.307
49028W        W14255  32.112  41.686  13.513
49029W        W14256  35.178  31.546   1.197
49030W        W14257  29.368  19.503  11.089
49031W        W14258  21.521  20.956   3.352
49032W        W14259  17.507   1.381   2.589
49033W        W14260   7.785   1.715  11.017
49034W        W14261  27.103  37.761   0.329
49035W        W14262  21.360   4.050  10.202
49036W        W14263  34.616  36.200   1.196
49037W        W14264   1.941  15.123  11.982
49038W        W14265   4.800  23.986  13.531
49039W        W14266  42.437  20.815   1.412
49040W        W14267  35.630  42.842   1.792
49041W        W14268  28.996   8.595  13.626
49042W        W14269   3.360  44.809  11.672
49043W        W14270  44.010  13.494  14.850
49044W        W14271  19.363  34.331   1.733
49045W        W14272  24.203   5.328  14.926
49046W        W14273  11.817   0.825  14.617
49047W        W14274  41.055  23.107  14.886
49048W        W14275  38.628  36.950  11.044
49049W        W14276  25.711   2.317   3.104
49050W        W14277  31.168   2.402  11.527
49051W        W14278  32.848  31.886   0.109
49052W        W14279  30.409  19.798  14.934
49053W        W14280   0.278  38.108   3.301
49054W        W14281  33.612  16.244  12.132
49055W        W14282  16.272  43.741   3.130
49056W        W14283   7.090  23.957   3.455
49057W        W14284   1.211  13.958   1.261
49058W        W14285  40.299  15.557   4.540
49059W        W14286  30.964  23.179  13.914
49060W        W14287  42.831  12.172   1.160
49061W        W14288  29.541  28.554   3.775
49062W        W14289  18.651  31.723  11.134
49063W        W14290  22.727  18.479   2.298
49064W        W14291   7.850   5.944   4.426
49065W        W14292  18.149   7.803   1.326
49066W        W14293  22.599  19.404  12.524
49067W        W14294  35.197  15.932   2.890
49068W        W14295  43.509  43.368   1.737
49069W        W14296  12.023  12.119   2.333
49070W        W14297  14.325   4.672  13.444
49071W        W14298  42.918  23.388   1.430
49072W        W14299  41.372  24.107  12.142
49073W        W14300  22.483  11.290  11.954
49074W        W14301  41.678  23.570  11.419
49075W        W14302  10.251   2.689   1.373
49076W        W14303  30.200  40.988  12.266
49077W        W14304  24.284  32.340   1.732
49078W        W14305  13.075  40.269  12.088
49079W        W14306  28.969  20.228  11.301
49080W        W14307  20.798  28.034   1.433
49081W        W14308  19.349  29.940   0.578
49082W        W14309  25.067   2.006   2.653
49083W        W14310  24.456  27.057   1.078
49084W        W14311   5.299   3.879   3.573
49085W        W14312  12.654  22.732  12.772
49086W        W14313  31.915  22.780   4.527
49087W        W14314  17.822  18.362  12.407
49088W        W14315  23.345  17.529  13.996
49089W        W14316  18.974  13.791  13.024
49090W        W14317  36.914   6.461  10.442
49091W        W14318  15.359  27.564   0.831
49092W        W14319  24.371  30.510   1.700
49093W        W14320  26.506  24.433   3.415
49094W        W14321  43.444  25.444   2.324
49095W        W14322  12.212   3.791   2.027
49096W        W14323  10.854  31.460   4.784
49097W        W14324  38.441  19.705   3.267
49098W        W14325  28.736   4.458  12.080
49099W        W14326   6.201  42.482  10.282
49100W        W14327  27.225   1.928  11.371
49101W        W14328   1.283  42.441   0.344
49102W        W14329  37.036   5.337  13.315
49103W        W14330  33.559  32.076  10.800
49104W        W14331  44.529   6.367   1.204
49105W        W14332  44.915  24.949  10.819
49106W        W14333  16.793   7.967   4.159
49107W        W14334  11.284   8.613  12.835
49108W        W14335  36.596   2.692   0.230
49109W        W14336  21.567  11.300   0.796
49110W        W14337   0.835   5.428   0.777
49111W        W14338  24.108   9.802   1.635
49112W        W14339   8.217   8.119   1.770
49113W        W14340   2.237  10.697  13.409
49114W        W14341  10.738  13.016   1.092
49115W        W14342  19.980  14.188  12.243
49116W        W14343  26.245   9.151   1.201
49117W        W14344  25.221  30.549  12.708
49118W        W14345  35.922  37.579  11.163
49119W        W14346  39.058  39.449   2.738
49120W        W14347  18.959  27.881   3.185
49121W        W14348  22.044   0.851  14.891
49122W        W14349  11.415  16.032   5.113
49123W        W14350   6.291   7.925   3.323
49124W        W14351  33.514  32.124   2.408
49125W        W14352   3.271   0.382   1.551
49126W        W14353  22.649  26.444  13.458
49127W        W14354  40.875  17.223   2.372
49128W        W14355  19.333   2.887   2.307
49129W        W14356  43.081  14.755   1.184
49130W        W14357  34.021   8.449   1.776
49131W        W14358  44.237   6.105  10.485
49132W        W14359  25.851  15.597   2.520
49133W        W14360  25.581  40.394  13.054
49134W        W14361  24.117  16.728   4.430
49135W        W14362  24.311  20.775  11.688
49136W        W14363  40.307   7.819   1.203
49137W        W14364  32.430  23.969   3.814
49138W        W14365   1.345  32.951  11.765
49139W        W14366   5.586  30.191   5.197
49140W        W14367  43.375  40.080  13.443
49141W        W14368  36.445  39.385   4.950
49142W        W14369   1.824  15.220   2.567
49143W        W14370  30.631   3.706   3.289
49144W        W14371   4.794  25.981   2.652
49145W        W14372  44.173   3.324  13.835
49146W        W14373  36.988   4.905   3.710
49147W        W14374  10.814  38.525  14.370
49148W        W14375  14.475  42.338  13.919
49149W        W14376   6.682  12.607   3.744
49150W        W14377  24.224  15.102   0.059
49151W        W14378  11.859   3.624   1.688
49152W        W14379  32.837  21.203   3.715
49153W        W14380   2.213  23.079  14.477
49154W        W14381  16.209  40.175   1.915
49155W        W14382  12.351  16.693  11.940
49156W        W14383   6.716  15.273   2.734
49157W        W14384  37.020  32.030  11.253
49158W        W14385   2.430  43.432  11.675
49159W        W14386  32.991  17.255   4.616
49160W        W14387   1.718  40.932  14.996
49161W        W14388  36.531   0.739   3.257
49162W        W14389  12.514  34.815  11.103
49163W        W14390   3.896  21.244   4.292
49164W        W14391  28.636  24.687   1.777
49165W        W14392  21.721  37.193  13.003
49166W        W14393  39.540  38.908  11.983
49167W        W14394  14.902  34.544   3.374
49168W        W14395  39.954  38.485  13.399
49169W        W14396  36.793  40.878   1.716
49170W        W14397  41.183  22.738  11.153
49171W        W14398  24.005   0.486  13.766
49172W        W14399  26.035  20.104  10.869
49173W        W14400  38.118  40.824   0.431
49174W        W14401  14.763  24.101   1.221
49175W        W14402  18.060  43.061  14.428
49176W        W14403   8.095  44.698   0.288
49177W        W14404  25.132  29.448   5.100
49178W        W14405   0.508  22.363   9.846
49179W        W14406  43.036   0.105  10.589
49180W        W14407  37.559   1.439  13.352
49181W        W14408  35.142  44.512   2.342
49182W        W14409  40.701  35.833   1.635
49183W        W14410  20.117  24.092   3.082
49184W        W14411   9.656  40.005   1.505
49185W        W14412  13.289  28.416  11.023
49186W        W14413  12.318  37.674  12.691
49187W        W14414  23.453  24.734  13.894
49188W        W14415  34.008   8.529  10.413
49189W        W14416  43.156  16.271   2.748
49190W        W14417   9.736  31.143  13.539
49191W        W14418   3.411  19.134  13.378
49192W        W14419  16.537   4.837   4.721
49193W        W14420  13.848  23.230   4.592
49194W        W14421  14.534   6.174   0.380
49195W        W14422  33.841  13.134   3.404
49196W        W14423  33.538  25.162  13.839
49197W        W14424  36.601  32.013  10.939
49198W        W14425  27.193  38.126   0.738
49199W        W14426  27.103  35.504   4.497
49200W        W14427  38.391  44.119  13.972
49201W        W14428  38.900  35.803  10.601
49202W        W14429  15.029  28.171  12.063
49203W        W14430  11.862  39.792  14.406
49204W        W14431   1.220  28.656  14.040
49205W        W14432  36.598  17.763  10.640
49206W        W14433  21.285  32.371  10.704
49207W        W14434  41.843  44.855   2.359
49208W        W14435  34.465  14.025   4.593
49209W        W14436  12.681  35.373  14.953
49210W        W14437  27.044  36.862   2.739
49211W        W14438  32.995  38.019  10.845
49212W        W14439  18.572  31.686  12.140
49213W        W14440  43.080   7.768   2.852
49214W        W14441   8.396  23.683  11.581
49215W        W14442  35.489   8.167  11.095
49216W        W14443  17.082   8.072  11.160
49217W        W14444  41.102  39.366   3.264
49218W        W14445  27.868  19.268  11.747
49219W        W14446  42.234  37.915  14.968
49220W        W14447  29.413  40.388  14.286
49221W        W14448  19.500   8.480   0.917
49222W        W14449  31.302  23.756  10.748
49223W        W14450  26.517  33.052  13.278
49224W        W14451  26.667  12.758   2.855
49225W        W14452  13.819  34.423   1.191
49226W        W14453   6.194   8.946   4.760
49227W        W14454   6.606   6.302  13.519
49228W        W14455   3.277  14.870   2.489
49229W        W14456  12.836  11.525   1.740
49230W        W14457  15.596  31.532  13.202
49231W        W14458   5.988  43.563   2.346
49232W        W14459  11.228  38.031  13.239
49233W        W14460  17.795  25.518  13.542
49234W        W14461  34.421  12.444  14.300
49235W        W14462  10.740  33.829  13.965
49236W        W14463  41.776  10.320   0.067
49237W        W14464   4.675  25.780   5.393
49238W        W14465  28.268  21.084  10.713
49239W        W14466  17.331  22.502  11.478
49240W        W14467  14.068  43.552  13.473
49241W        W14468  44.301  27.133   1.739
49242W        W14469  25.110  26.229   3.662
49243W        W14470  23.436   9.835  10.684
49244W        W14471  43.863  35.840  14.876
49245W        W14472  15.796  30.594   3.274
49246W        W14473  17.890   1.015   4.298
49247W        W14474  32.519  16.138  13.600
49248W        W14475  36.770  16.225  13.958
49249W        W14476  20.039  25.179   3.182
49250W        W14477  10.684  37.153   3.371
49251W        W14478   8.366  33.629  11.078
49252W        W14479  41.787  33.237  13.387
49253W        W14480  23.069  31.050  12.415
49254W        W14481  21.004  34.415  12.915
49255W        W14482  39.610  28.019   1.792
49256W        W14483  17.204   0.241   0.269
49257W        W14484   9.432  28.529  10.751
49258W        W14485  24.031  18.984   1.390
49259W        W14486  36.313   1.511  14.873
49260W        W14487  18.421  43.450   2.885
49261W        W14488  24.140  23.624   2.968
49262W        W14489   6.126   0.435  11.552
49263W        W14490  34.271  16.688  12.536
49264W        W14491  40.588   2.173   1.796
49265W        W14492  19.687  22.257  12.923
49266W        W14493  29.416  26.105   1.242
49267W        W14494  22.647   8.683  13.904
49268W        W14495  11.814  15.506   1.202
49269W        W14496  15.846  36.711  10.892
49270W        W14497   1.868  39.922   4.094
49271W        W14498  21.893  28.087  13.786
49272W        W14499   3.434   4.280  10.733
49273W        W14500  10.199  40.740   1.454
49274W        W14501  24.466  36.481  12.585
49275W        W14502  40.608  23.046   1.548
49276W        W14503  36.846   2.568   2.599
49277W        W14504  37.229   9.288   1.798
49278W        W14505  23.632  12.915   4.608
49279W        W14506  39.963  14.100  10.785
49280W        W14507  18.495  24.954   1.116
49281W        W14508  32.548  10.138   3.769
49282W        W14509   0.630  36.088   0.342
49283W        W14510  44.196  40.470   1.784
49284W        W14511  26.436  12.326  14.435
49285W        W14512  33.426  12.677   2.109
49286W        W14513  17.346  11.140  13.370
49287W        W14514   0.047  10.132   4.746
49288W        W14515   5.896  32.354   0.444
49289W        W14516  26.421   0.033   1.887
49290W        W14517  39.057  20.139  12.094
49291W        W14518  15.495  32.416  11.079
49292W        W14519  12.863  20.132   4.571
49293W        W14520  23.000   2.933   1.983
49294W        W14521  43.343  33.490  14.027
49295W        W14522  38.601  34.507   3.126
49296W        W14523   6.917  18.144  11.114
49297W        W14524  40.499   4.842   2.234
49298W        W14525  34.230  36.261   5.053
49299W        W14526  40.210  42.674   3.108
49300W        W14527  23.073  13.712   3.701
49301W        W14528  14.541  12.122   0.336
49302W        W14529  36.080  42.780   0.075
49303W        W14530  13.210  10.900   3.211
49304W        W14531  27.756  34.459   1.701
49305W        W14532  25.153   7.297  10.444
49306W        W14533  34.081  29.025  12.098
49307W        W14534  29.054  20.607  12.975
49308W        W14535   5.821  44.511  11.991
49309W        W14536   9.213   4.764   2.174
49310W        W14537  44.140  18.764  13.343
49311W        W14538   7.863  35.374   1.983
49312W        W14539  21.707   5.947   2.000
49313W        W14540  43.061  37.971   4.531
49314W        W14541  17.279  14.115   1.364
49315W        W14542   4.697   0.991  12.208
49316W        W14543  12.796  30.858  10.328
49317W        W14544  11.159  11.666  14.327
49318W        W14545   3.372  34.746   4.087
49319W        W14546  13.169  40.860  13.349
49320W        W14547  37.355  18.060  13.813
49321W        W14548  14.443   9.062   2.831
49322W        W14549   3.868   5.943  13.018
49323W        W14550  15.583   1.773   3.750
49324W        W14551   9.253   3.878  11.560
49325W        W14552  31.085  21.665   2.808
49326W        W14553  24.288  34.209  11.990
49327W        W14554  10.343  10.670  13.309
49328W        W14555   3.498  36.064  13.253
49329W        W14556  43.941   9.056  13.118
49330W        W14557  40.936   0.767  13.651
49331W        W14558   7.377   4.299  13.263
49332W        W14559  38.634  39.961  14.418
49333W        W14560  20.074  18.932   0.569
49334W        W14561  17.599   1.896   3.697
49335W        W14562  43.084  31.036   3.847
49336W        W14563   0.547  30.015  14.516
49337W        W14564  34.466  31.750  14.065
49338W        W14565  31.020  14.884   4.550
49339W        W14566  42.126  39.119  14.955
49340W        W14567   9.360  15.887   1.519
49341W        W14568   6.005   1.730   0.954
49342W        W14569  31.718  26.431  13.531
49343W        W14570  34.962  44.860   3.328
49344W        W14571  30.222  43.247  13.921
49345W        W14572   9.202   7.172   1.479
49346W        W14573  10.143   4.474  13.838
49347W        W14574  22.046  30.952   0.418
49348W        W14575   6.690  26.964  12.112
49349W        W14576   0.848  29.907   3.665
49350W        W14577  28.687  43.228  11.558
49351W        W14578  10.136  34.903   1.798
49352W        W14579  31.966   3.655  11.202
49353W        W14580  22.278  42.482  11.051
49354W        W14581  17.694  18.991  10.718
49355W        W14582  11.332  37.285  14.360
49356W        W14583  31.630  10.632  14.486
49357W        W14584  18.291  14.397   2.708
49358W        W14585   8.705   4.679  13.848
49359W        W14586  12.430  32.252  12.565
49360W        W14587  30.399  26.934   2.800
49361W        W14588  41.129  37.996  12.047
49362W        W14589  43.871  30.000   3.420
49363W        W14590  26.224  39.418   2.750
49364W        W14591  27.999  24.140   0.274
49365W        W14592  28.080  36.096  12.319
49366W        W14593  39.830  11.768   1.228
49367W        W14594  43.388  10.184   2.245
49368W        W14595   7.691   4.607   1.923
49369W        W14596  44.450  16.208   0.945
49370W        W14597  31.682  14.375  14.902
49371W        W14598  10.830  13.213   1.547
49372W        W14599  38.506  16.561  11.882
49373W        W14600   3.245  23.423  11.504
49374W        W14601  26.010  28.647  11.537
49375W        W14602   9.772  36.298  14.789
49376W        W14603  20.236   5.470   2.982
49377W        W14604  14.337  30.365  14.815
49378W        W14605  31.125  37.052  11.915
49379W        W14606  12.762  21.184   2.424
49380W        W14607  24.411  18.318  14.416
49381W        W14608   5.780  17.485   3.854
49382W        W14609  18.521  42.995   0.803
49383W        W14610   8.113  30.514   2.778
49384W        W14611  15.558   0.907  11.992
49385W        W14612  32.049  38.840   2.533
49386W        W14613  41.464  23.912  13.508
49387W        W14614  13.769   9.333  14.930
49388W        W14615   3.719  33.996   0.860
49389W        W14616  11.970  21.804   4.038
49390W        W14617   3.660  29.408  12.484
49391W        W14618  43.737  24.570   1.365
49392W        W14619  41.471  40.392  14.399
49393W        W14620   7.107  26.341  14.446
49394W        W14621  32.879  21.508   2.473
49395W        W14622  37.729  30.456  10.650
49396W        W14623  28.858   2.995  13.068
49397W        W14624  10.604  12.819   1.798
49398W        W14625  44.278  12.876   1.325
49399W        W14626  27.863   9.737   1.262
49400W        W14627  35.469   7.235   0.009
49401W        W14628  12.843  22.053  12.134
49402W        W14629  30.164   2.004   4.058
49403W        W14630  20.554   2.124  10.595
49404W        W14631  22.483  22.223   2.812
49405W        W14632  17.676  13.834  10.539
49406W        W14633  37.887  13.766   3.677
49407W        W14634  25.994   2.589  11.082
49408W        W14635   6.198  43.928  14.230
49409W        W14636  39.005  14.204   4.602
49410W        W14637  24.873  40.316   3.347
49411W        W14638  37.306  42.020   1.297
49412W        W14639   2.398  13.660  13.586
49413W        W14640   6.217  19.072  13.041
49414W        W14641  37.861  16.007   0.389
49415W        W14642  20.497  13.945  12.523
49416W        W14643  42.632  17.101   1.748
49417W        W14644  29.460   1.603  11.952
49418W        W14645  28.064  26.030  13.461
49419W        W14646  37.642   3.835  11.283
49420W        W14647  35.390  26.060  14.454
49421W        W14648  34.548  43.154   1.473
49422W        W14649  24.760  41.733  10.394
49423W        W14650  35.629  34.353  13.105
49424W        W14651   5.727  42.357   4.520
49425W        W14652  12.563  41.979   4.647
49426W        W14653   1.571  21.200   4.165
49427W        W14654  11.838  13.831   2.760
49428W        W14655  14.533   0.014   0.006
49429W        W14656  34.082   9.722   4.811
49430W        W14657  31.538  19.312   0.850
49431W        W14658  17.498  40.172  11.261
49432W        W14659  15.517  12.824   0.764
49433W        W14660  21.173  11.102  10.237
49434W        W14661   8.735  44.774   2.709
49435W        W14662  44.335  15.692   1.648
49436W        W14663   8.905  27.090   0.551
49437W        W14664  41.755   6.212   1.070
49438W        W14665  33.587  20.301  13.366
49439W        W14666  30.402  18.436   2.183
49440W        W14667  42.189  26.616   4.894
49441W        W14668  44.665  38.678  13.000
49442W        W14669  18.244  26.434  12.404
49443W        W14670  12.740   3.477   3.326
49444W        W14671  33.925  23.431   4.765
49445W        W14672   6.043  18.308   4.015
49446W        W14673   8.431  39.891   2.408
49447W        W14674  22.528  39.352   0.074
49448W        W14675  26.115  31.544  13.595
49449W        W14676  42.455   1.054   3.710
49450W        W14677  17.699  38.958  13.281
49451W        W14678  25.175  16.577   4.038
49452W        W14679  37.051  26.986  13.016
49453W        W14680  12.285   0.254   4.893
49454W        W14681  11.320  26.563   0.070
49455W        W14682  21.542  31.356  11.072
49456W        W14683  42.370  40.843   4.373
49457W        W14684  23.831  13.359  14.890
49458W        W14685  20.629  29.775   2.709
49459W        W14686  36.227  17.499  10.883
49460W        W14687  41.839  13.552  12.428
49461W        W14688  24.059  36.533   1.179
49462W        W14689  10.402  40.545  14.087
49463W        W14690   4.187  27.864  11.999
49464W        W14691  29.315  18.207  10.733
49465W        W14692  32.985  17.998   3.186
49466W        W14693  17.340  26.482  14.049
49467W        W14694  14.869  18.073   3.618
49468W        W14695  33.115   3.969  14.471
49469W        W14696  33.103  26.327  11.243
49470W        W14697  25.526  24.023  14.500
49471W        W14698  11.595   6.233   2.877
49472W        W14699  37.088   0.877   3.187
49473W        W14700  22.262  24.467   1.737
49474W        W14701  17.120  24.179  11.154
49475W        W14702   0.212  16.744   1.939
49476W        W14703   9.001  27.739  11.227
49477W        W14704  33.400  43.229   2.233
49478W        W14705   4.200  18.738   0.826
49479W        W14706  26.702   3.244  12.602
49480W        W14707  43.345   0.505   4.577
49481W        W14708  38.525  17.962   2.104
49482W        W14709   4.532  27.366   5.014
49483W        W14710  39.639  44.881   0.791
49484W        W14711   2.956   8.767   3.353
49485W        W14712  17.253   6.757  11.501
49486W        W14713  19.842  21.183  10.724
49487W        W14714  33.849  41.408  12.117
49488W        W14715  44.680  23.545  13.402
49489W        W14716  37.613  16.077  14.404
49490W        W14717  27.026  42.911   3.013
49491W        W14718   9.245  18.583  13.398
49492W        W14719  37.230  20.261  13.552
49493W        W14720   9.588  40.785  13.864
49494W        W14721  20.101  32.813  12.050
49495W        W14722  27.899  18.705   3.661
49496W        W14723  23.440  13.245  11.162
49497W        W14724   4.486   4.624  12.919
49498W        W14725  43.969  34.089  12.007
49499W        W14726  25.393  31.800   3.614
49500W        W14727  35.835  27.575   4.478
49501W        W14728  25.749   5.834   1.311
49502W        W14729  14.054  44.830  13.879
49503W        W14730  22.764   5.468   3.074
49504W        W14731  10.595  32.951  12.704
49505W        W14732   2.735  35.518   2.636
49506W        W14733  26.140  13.764   4.397
49507W        W14734   1.878  44.961  12.619
49508W        W14735  38.292  17.135  10.767
49509W        W14736  22.465  39.304   3.934
49510W        W14737  11.209  36.643   2.607
49511W        W14738  17.950   9.847   1.254
49512W        W14739   5.932   8.396   4.290
49513W        W14740  19.999   4.658   2.666
49514W        W14741  40.435  20.027  14.788
49515W        W14742  41.014   0.537  11.017
49516W        W14743   3.647   0.550   4.027
49517W        W14744  34.103  38.412  14.511
49518W        W14745   5.368  22.745   2.150
49519W        W14746  30.073   7.241   0.112
49520W        W14747  14.221  42.042  10.778
49521W        W14748  32.851  44.312   3.149
49522W        W14749  21.423   8.335   3.841
49523W        W14750  42.346  13.117  12.722
49524W        W14751   6.237  29.010  11.213
49525W        W14752  25.448   8.730  12.427
49526W        W14753  15.418  33.635   4.944
49527W        W14754  39.037  42.200  11.168
49528W        W14755  24.571   6.435   2.743
49529W        W14756  25.707  38.486  13.403
49530W        W14757  37.897  13.112   4.832
49531W        W14758  39.020  12.586   5.032
49532W        W14759   0.107  16.041   5.375
49533W        W14760  20.105  28.850   0.537
49534W        W14761  11.928   7.576   4.072
49535W        W14762   6.330  14.129   4.524
49536W        W14763  14.855   4.179  11.159
49537W        W14764  29.878  12.322   3.255
49538W        W14765  13.741  10.066   2.110
49539W        W14766  36.274   9.705   3.857
49540W        W14767   3.398  20.816  14.148
49541W        W14768  34.551  14.644  10.703
49542W        W14769  26.322  44.919  12.150
49543W        W14770   0.501  23.795   1.453
49544W        W14771  38.049   0.364  14.117
49545W        W14772   8.233  38.086  14.375
49546W        W14773  35.620  11.892  11.125
49547W        W14774  39.402  16.386   3.822
49548W        W14775   0.222  32.096   2.642
49549W        W14776  29.106  36.473   4.884
49550W        W14777  17.657  36.806   2.705
49551W        W14778  25.556   2.020  11.594
49552W        W14779  39.565  30.204  13.438
49553W        W14780  35.492  28.476  11.430
49554W        W14781  13.641  18.106   3.600
49555W        W14782  19.282  38.379   2.663
49556W        W14783  36.075  42.102   1.834
49557W        W14784  36.507  30.406  11.168
49558W        W14785  41.915  32.625  12.228
49559W        W14786  38.157  42.271   1.504
49560W        W14787  39.401   5.806   1.734
49561W        W14788   6.138  43.386   3.548
49562W        W14789  42.511  37.333  13.916
49563W        W14790  43.692   0.510  14.974
49564W        W14791   4.687  10.738  12.879
49565W        W14792  18.823  16.658   0.421
49566W        W14793  44.372   1.378  12.981
49567W        W14794  22.153  41.181   2.793
49568W        W14795   3.521  28.986  11.088
49569W        W14796  36.631   0.450  11.244
49570W        W14797  10.088  33.257  14.194
49571W        W14798  40.067  21.706  11.048
49572W        W14799   9.952   0.941  10.620
49573W        W14800  43.385  20.397   0.062
49574W        W14801  39.470  42.373   1.950
49575W        W14802  16.222  24.033   2.314
49576W        W14803  17.831  15.100   3.762
49577W        W14804  14.944  22.459  10.728
49578W        W14805  43.295   1.898  11.632
49579W        W14806   9.302  23.505  13.455
49580W        W14807  31.099   0.467  13.986
49581W        W14808   1.028  29.616  12.534
49582W        W14809  42.868  29.538   2.786
49583W        W14810  44.834   8.365  14.554
49584W        W14811  20.662  27.043   2.412
49585W        W14812  31.593  40.543  11.068
49586W        W14813  43.587  14.853   3.577
49587W        W14814  13.129   2.701  12.010
49588W        W14815  25.581  34.127  14.503
49589W        W14816  35.195   0.489  13.214
49590W        W14817  41.433  27.556   3.690
49591W        W14818  25.969  12.734   3.197
49592W        W14819  18.905  34.184  11.095
49593W        W14820  19.281  40.017  14.725
49594W        W14821  12.381  29.987  12.853
49595W        W14822   7.144  38.871   4.362
49596W        W14823  25.977  14.613   2.827
49597W        W14824  43.967  43.109  13.150
49598W        W14825  44.168  27.103   3.871
49599W        W14826   3.015  10.139   1.310
49600W        W14827  18.587  28.154  13.507
49601W        W14828  29.049  22.280  11.961
49602W        W14829  42.208  21.605   2.818
49603W        W14830  18.660  14.893   0.779
49604W        W14831   3.235  30.470  13.980
49605W        W14832  13.479  41.564  12.704
49606W        W14833  42.724   0.332   2.372
49607W        W14834  26.034  33.677  11.152
49608W        W14835  29.137   4.784  11.942
49609W        W14836  19.538  29.211  11.172
49610W        W14837  40.337  11.424   4.090
49611W        W14838  12.143  36.908  13.360
49612W        W14839   1.317  35.570  11.972
49613W        W14840   8.739  38.351  13.107
49614W        W14841  22.454   3.718  13.924
49615W        W14842   8.965  23.032   3.223
49616W        W14843  27.975  14.766   4.782
49617W        W14844   2.168  43.445   3.284
49618W        W14845  42.896  27.264  14.898
49619W        W14846  18.347  11.554  14.983
49620W        W14847  36.598  32.628  11.654
49621W        W14848  34.373   1.983  12.890
49622W        W14849   8.419  15.877   4.496
49623W        W14850  27.227   8.750   0.295
49624W        W14851  40.833   9.921  10.597
49625W        W14852  39.589  13.441  13.505
49626W        W14853  40.940  19.282  14.782
49627W        W14854  29.179  26.737  12.061
49628W        W14855  10.903   1.199  14.432
49629W        W14856   0.387  42.113   2.802
49630W        W14857  31.626  38.778   4.577
49631W        W14858  24.160  42.399   4.498
49632W        W14859  27.753  41.847  12.171
49633W        W14860  11.893   5.310   4.741
49634W        W14861  39.565  19.030   0.349
49635W        W14862  14.540  35.577  10.664
49636W        W14863  12.589  27.366  14.841
49637W        W14864  25.082  36.300   3.627
49638W        W14865  36.349  22.107   3.681
49639W        W14866  31.213  24.083   3.813
49640W        W14867   3.465  41.605   2.888
49641W        W14868  29.879  17.290   4.882
49642W        W14869  28.863  40.867  13.968
49643W        W14870  42.829  18.097  13.958
49644W        W14871  24.778  44.936  12.496
49645W        W14872  35.936   0.798  14.830
49646W        W14873  27.554   4.633  12.147
49647W        W14874  35.513  35.687  11.157
49648W        W14875  18.215  41.540  13.558
49649W        W14876   7.921  24.048   5.032
49650W        W14877  29.381  14.713  14.864
49651W        W14878  31.648  44.978  11.113
49652W        W14879  15.050  38.042  12.024
49653W        W14880   9.571  31.833   4.068
49654W        W14881  27.058  44.284   3.356
49655W        W14882   5.265  10.698  12.968
49656W        W14883   4.625  37.891   2.409
49657W        W14884  23.405  24.045  11.248
49658W        W14885  10.841  16.010   4.416
49659W        W14886  19.994  13.779   0.344
49660W        W14887  25.215  32.292   3.248
49661W        W14888  17.759   1.395  11.607
49662W        W14889  14.588  14.797  11.983
49663W        W14890  12.810  41.554   4.491
49664W        W14891  38.775  25.687  14.919
49665W        W14892  40.841  12.812  10.711
49666W        W14893  17.845  24.004   0.245
49667W        W14894  17.795  30.422   1.738
49668W        W14895   3.969  23.060   3.501
49669W        W14896  24.586   2.936  12.568
49670W        W14897  44.487  43.232  13.960
49671W        W14898  15.864   2.616  10.853
49672W        W14899   5.645  20.634   1.787
49673W        W14900  34.535  39.090   0.909
49674W        W14901   6.733   2.218   0.757
49675W        W14902   6.219  23.179   4.830
49676W        W14903  13.187   0.294  14.801
49677W        W14904   9.853  34.813   3.762
49678W        W14905  16.388  31.201  11.617
49679W        W14906   4.756  30.338   3.267
49680W        W14907  34.200  21.149   2.227
49681W        W14908  10.879  29.595  13.187
49682W        W14909  24.380  40.308  10.764
49683W        W14910  44.530  17.217  11.499
49684W        W14911   7.494  10.908  13.519
49685W        W14912   3.904  14.191  14.858
49686W        W14913  10.639  36.508  14.193
49687W        W14914  26.677  36.749  14.009
49688W        W14915  18.369  20.754   4.779
49689W        W14916  34.741  12.821  13.582
49690W        W14917  12.837   0.715  10.798
49691W        W14918   5.842   9.956   1.442
49692W        W14919  44.319  31.902   4.691
49693W        W14920   1.567  27.926  14.345
49694W        W14921  21.273  24.237  12.969
49695W        W14922  31.726  40.235  10.692
49696W        W14923  40.617  36.018  13.042
49697W        W14924  40.360  12.791  14.238
49698W        W14925   4.512  24.134  13.000
49699W        W14926  28.329  16.897  14.258
49700W        W14927  20.733   8.147   2.104
49701W        W14928   4.254   6.815  12.579
49702W        W14929   5.199  16.666  14.190
49703W        W14930  26.131  26.005  14.495
49704W        W14931   4.236   7.935  13.308
49705W        W14932  11.157  19.919  10.791
49706W        W14933  32.597  12.707  12.868
49707W        W14934  33.132  17.253  14.453
49708W        W14935   7.803  26.713   4.522
49709W        W14936  25.327  31.353   4.723
49710W        W14937  39.742  43.439   0.887
49711W        W14938   7.352  26.108   0.811
49712W        W14939  23.458  38.603   4.214
49713W        W14940  31.004   7.245  11.273
49714W        W14941  20.386  34.813   4.225
49715W        W14942   3.048   3.294   9.970
49716W        W14943  17.178  11.684  14.498
49717W        W14944  33.193  38.996   0.400
49718W        W14945  29.941  41.420  14.793
49719W        W14946  31.197  22.783   3.538
49720W        W14947  28.153  33.327   2.793
49721W        W14948  38.326  10.448  13.511
49722W        W14949  11.189   3.938   2.718
49723W        W14950  28.617  38.836   4.553
49724W        W14951  11.216   9.647  11.578
49725W        W14952  11.674   9.324   4.812
49726W        W14953  10.127  25.119   1.321
49727W        W14954  40.870  21.319   4.358
49728W        W14955  43.400  30.837   2.498
49729W        W14956  11.214   9.567  14.253
49730W        W14957  24.032  37.960   4.334
49731W        W14958  16.770  10.246   3.374
49732W        W14959  15.770  25.262  14.503
49733W        W14960  21.686   3.345  11.669
49734W        W14961  28.347  21.108  13.862
49735W        W14962  18.971  32.986  14.291
49736W        W14963  21.219   8.948   0.355
49737W        W14964  39.056  13.201  14.288
49738W        W14965  23.602   1.784   1.479
49739W        W14966  13.415   5.250   4.260
49740W        W14967  44.329  29.266  11.092
49741W        W14968   7.301  23.659  14.377
49742W        W14969  39.243  18.856   3.688
49743W        W14970  11.791  44.024  12.404
49744W        W14971  44.896  35.869   1.552
49745W        W14972  17.835  44.736  14.282
49746W        W14973  28.667  35.037   0.502
49747W        W14974   1.340  11.631   4.407
49748W        W14975  36.605   7.647  13.640
49749W        W14976  31.961  43.298   2.208
49750W        W14977   9.342  36.970   1.603
49751W        W14978  41.873   9.883  12.958
49752W        W14979  24.680   8.374  13.361
49753W        W14980  15.561  19.793  14.424
49754W        W14981  41.471   9.832  13.305
49755W        W14982   7.871  14.062   1.533
49756W        W14983  21.824  39.964   3.807
49757W        W14984  38.112  33.228  13.927
49758W        W14985  20.239  13.251   1.820
49759W        W14986  31.387  23.319  11.568
49760W        W14987   6.410  39.388   4.746
49761W        W14988  17.120  37.156   1.843
49762W        W14989  16.136  22.171  11.475
49763W        W14990  13.939  10.497   0.782
49764W        W14991  32.862   7.848  11.584
49765W        W14992   5.279  26.015   2.199
49766W        W14993  25.670  21.143  11.878
49767W        W14994  24.478  14.855  13.541
49768W        W14995  23.926  10.164  12.028
49769W        W14996  28.045  30.416   4.389
49770W        W14997  19.684  41.473   2.910
49771W        W14998  25.626   2.507   4.035
49772W        W14999  31.519  43.278  14.374
49773W        W15000   1.929  30.749  13.553
49774W        W15001  35.333  39.451   3.679
49775W        W15002   2.475  42.665   0.717
49776W        W15003  40.415  27.784  10.422
49777W        W15004   6.185  21.262   9.922
49778W        W15005  27.539  19.797  13.073
49779W        W15006  24.609  21.232  14.810
49780W        W15007  44.841  14.641   1.914
49781W        W15008  21.704  26.173   4.336
49782W        W15009  10.153   7.879  10.623
49783W        W15010  20.446  20.203  14.851
49784W        W15011   7.203  14.088   4.053
49785W        W15012  44.930  43.490   2.614
49786W        W15013  12.126  17.583  14.333
49787W        W15014   8.238  18.543  14.318
49788W        W15015   7.541  24.205   4.734
49789W        W15016  33.449  36.958   0.881
49790W        W15017  24.725  38.803   0.303
49791W        W15018   6.881  34.324   3.249
49792W        W15019  41.521  42.878  10.728
49793W        W15020  21.671  39.874  12.146
49794W        W15021  13.782  41.917   0.069
49795W        W15022  44.856  33.900  12.819
49796W        W15023  21.725  44.273  14.429
49797W        W15024  20.315  40.598  14.936
49798W        W15025  44.620  35.999   1.975
49799W        W15026  12.639  41.412   1.328
49800W        W15027   0.220  10.979   1.081
49801W        W15028  34.443  13.520   4.645
49802W        W15029  33.622  20.530   4.596
49803W        W15030  26.684  19.209   1.237
49804W        W15031  39.563  13.881   0.367
49805W        W15032  38.309  26.656   1.138
49806W        W15033  34.973  25.942   2.820
49807W        W15034  19.308  43.361   2.736
49808W        W15035  29.844  35.968   4.895
49809W        W15036  15.154  11.431   1.388
49810W        W15037  27.963  26.966   0.457
49811W        W15038   5.676  37.869   2.396
49812W        W15039  20.037  30.213   4.190
49813W        W15040  29.899   7.456  11.456
49814W        W15041  36.452   1.985   0.016
49815W        W15042  13.609  10.893   0.818
49816W        W15043  37.829  36.941  12.587
49817W        W15044   9.755  40.047   0.960
49818W        W15045  35.821  41.127   1.856
49819W        W15046  21.064  12.191   0.788
49820W        W15047  41.422  14.816  13.942
49821W        W15048  38.325  42.764   2.808
49822W        W15049  30.902  21.980   2.427
49823W        W15050  19.848  41.151   0.459
49824W        W15051  28.128  41.487   2.376
49825W        W15052  16.452  36.023   2.735
49826W        W15053  24.371  15.108  12.272
49827W        W15054   6.678   5.784  12.963
49828W        W15055  25.622   7.631  12.139
49829W        W15056  13.183  28.558  12.492
49830W        W15057  35.051  41.976   4.094
49831W        W15058  42.462  14.813  13.402
49832W        W15059  16.238  28.761  11.715
49833W        W15060  35.369   2.417   1.340
49834W        W15061  34.580  41.581  14.076
49835W        W15062  11.117  12.988  13.015
49836W        W15063  34.784  18.373   1.905
49837W        W15064   7.020   5.406   0.462
49838W        W15065  42.415  26.399  10.759
49839W        W15066  16.275  17.122   1.788
49840W        W15067  26.011  43.262   3.781
49841W        W15068  33.741  17.725   3.681
49842W        W15069  35.922  37.052   1.795
49843W        W15070  32.260   7.536  11.553
49844W        W15071  33.674  39.528  12.383
49845W        W15072  40.318   7.024   5.639
49846W        W15073  35.882  30.206  12.457
49847W        W15074  22.197  27.063  12.008
49848W        W15075  10.315   2.190   0.279
49849W        W15076  37.247   0.042   3.698
49850W        W15077  10.733  36.655  13.343
49851W        W15078  12.848  39.695   0.874
49852W        W15079  22.500  42.232  10.653
49853W        W15080  19.185  12.642  10.813
49854W        W15081  31.176  19.572   3.652
49855W        W15082  28.097   9.621  10.312
49856W        W15083   5.338  12.053   0.362
49857W        W15084  20.558   3.327   2.250
49858W        W15085  41.190  20.965  14.215
49859W        W15086  36.864  12.538  11.213
49860W        W15087  12.757  12.366   1.668
49861W        W15088  10.752  16.295  12.018
49862W        W15089  25.440  28.130  13.867
49863W        W15090  12.246  33.121   4.050
49864W        W15091  19.235  43.446  13.057
49865W        W15092  10.541   0.770   2.652
49866W        W15093   7.995  16.256  12.040
49867W        W15094   1.453   7.882   3.258
49868W        W15095  15.734  29.945   0.658
49869W        W15096   8.398   6.235   0.838
49870W        W15097  37.522  36.336  13.335
49871W        W15098   4.897  32.056   1.326
49872W        W15099   5.584   5.895   2.444
49873W        W15100  34.059  22.785   0.245
49874W        W15101  17.816   1.671  10.943
49875W        W15102  14.389   3.024   1.681
49876W        W15103  15.331  13.770  14.204
49877W        W15104   6.437   3.870  11.785
49878W        W15105  25.195  34.297  12.893
49879W        W15106  31.852  19.674   2.202
49880W        W15107   3.930  19.622   3.195
49881W        W15108  10.296  11.375   1.362
49882W        W15109  17.100  32.168   1.746
49883W        W15110  36.510  11.104  13.880
49884W        W15111  36.072  38.573   4.562
49885W        W15112  39.955  36.040  14.981
49886W        W15113  42.096  19.557   1.002
49887W        W15114   4.913  42.169  14.381
49888W        W15115  30.559  29.916  10.781
49889W        W15116  24.106  39.255   3.121
49890W        W15117  43.054  33.022  12.974
49891W        W15118  35.485  44.097   2.250
49892W        W15119  30.189  44.461   2.270
49893W        W15120  37.668  25.345  13.811
49894W        W15121  11.191  40.529   1.787
49895W        W15122  10.660   8.231  13.859
49896W        W15123  25.164  30.555  14.108
49897W        W15124   5.064  11.830  12.839
49898W        W15125  41.517  16.888   1.466
49899W        W15126  18.596  14.786  10.980
49900W        W15127  32.527  31.088   4.988
49901W        W15128   5.297  27.096   2.181
49902W        W15129   1.306   5.806  14.494
49903W        W15130  13.725  13.648  13.504
49904W        W15131   1.756  41.804  14.913
49905W        W15132  26.966  43.236  10.681
49906W        W15133  22.504   4.433   4.504
49907W        W15134  36.855  40.142   0.862
49908W        W15135  40.312   9.237   0.927
49909W        W15136  16.683  13.354  11.446
49910W        W15137  11.512   4.606   2.808
49911W        W15138  30.709  19.422  12.125
49912W        W15139  37.396  15.664  12.125
49913W        W15140  37.925  13.176   4.318
49914W        W15141   3.389   8.870   4.603
49915W        W15142  19.721  14.793  10.698
49916W        W15143  30.992  44.126  13.502
49917W        W15144   8.371  25.516  11.964
49918W        W15145  22.558  26.002  10.804
49919W        W15146  30.827  30.187  12.630
49920W        W15147  24.098  16.791   2.228
49921W        W15148  34.448  35.465   1.705
49922W        W15149  14.388  23.625   1.434
49923W        W15150   5.726  37.452  12.085
49924W        W15151  38.290  39.374   3.261
49925W        W15152  36.315   5.665   3.230
49926W        W15153  16.713  41.834  14.370
49927W        W15154  37.008  35.828   3.095
49928W        W15155  27.004   2.558   0.328
49929W        W15156   5.464  43.406  10.572
49930W        W15157  39.784   4.389   9.902
49931W        W15158   5.551   9.705   0.498
49932W        W15159   7.896  22.594   0.504
49933W        W15160  42.702  35.440   2.317
49934W        W15161  33.313  40.347   0.396
49935W        W15162  17.781  18.590   3.314
49936W        W15163   4.709   7.596   2.228
49937W        W15164   3.903  42.214   3.651
49938W        W15165  17.532  40.760   3.251
49939W        W15166  34.343  39.464  11.466
49940W        W15167  17.076  27.402  11.637
49941W        W15168  24.238   5.836  14.912
49942W        W15169  14.297  43.245   2.186
49943W        W15170  11.773  40.357   0.205
49944W        W15171  25.484  31.357   3.319
49945W        W15172  10.572  35.565   2.246
49946W        W15173  35.949  31.407   4.099
49947W        W15174   3.426  21.266   0.917
49948W        W15175  24.095   0.656   2.195
49949W        W15176  21.628   6.671  11.863
49950W        W15177  27.218  42.858   2.092
49951W        W15178  31.248  27.134   2.449
49952W        W15179  20.997   0.341   1.040
49953W        W15180  40.052  37.079  14.813
49954W        W15181  16.665  27.824   0.555
49955W        W15182   4.105  36.729  10.633
49956W        W15183  20.950  39.997   3.569
49957W        W15184   4.201  37.190   0.924
49958W        W15185  13.815  28.908   2.704
49959W        W15186   3.214  35.663   1.232
49960W        W15187  36.098  19.058  14.377
49961W        W15188   6.486   6.620   1.879
49962W        W15189  17.088  14.809  12.811
49963W        W15190  43.534   0.595  14.472
49964W        W15191   1.325  18.997   3.224
49965W        W15192  15.855   5.388  10.753
49966W        W15193  28.248  43.602  14.950
49967W        W15194  38.404  29.436  13.190
49968W        W15195  12.753  29.838   4.144
49969W        W15196  22.525  33.617  14.616
49970W        W15197  14.176  12.369  12.914
49971W        W15198  23.151  25.600   3.671
49972W        W15199  22.948  18.554   1.369
49973W        W15200  44.288  21.833   5.428
49974W        W15201  12.836  26.252  12.377
49975W        W15202  33.307  24.159   0.117
49976W        W15203  37.596  14.510  13.082
49977W        W15204  24.810   2.950  11.534
49978W        W15205  31.386  44.573  11.264
49979W        W15206  20.563  11.687   1.971
49980W        W15207  22.200  39.924  11.957
49981W        W15208  38.004  38.922   0.714
49982W        W15209  10.449  23.101   1.845
49983W        W15210  15.406  44.338   0.349
49984W        W15211  26.668  27.426  10.306
49985W        W15212  40.068  18.675  14.385
49986W        W15213  23.575  15.087  12.814
49987W        W15214  27.201  38.930   1.709
49988W        W15215   8.086  17.558   3.536
49989W        W15216  37.322  29.946   1.466
49990W        W15217   0.234  35.605   1.293
49991W        W15218  25.029  24.103  14.769
49992W        W15219  36.731  35.388   4.455
49993W        W15220  30.985  35.109   3.611
49994W        W15221  31.082   8.934   2.420
49995W        W15222   2.666  29.936  11.105
49996W        W15223  38.631  40.809  12.699
49997W        W15224  12.637  26.123  11.914
49998W        W15225  19.946  43.300   3.263
49999W        W15226  38.899   8.547   2.798
50000W        W15227  12.683  17.458   4.744
50001W        W15228  41.011  17.174   1.236
50002W        W15229  39.479   3.303  10.665
50003W        W15230  29.965  16.676   3.714
50004W        W15231   9.760  38.271   0.430
50005W        W15232  29.736  31.992  12.436
50006W        W15233   1.466   0.781  11.620
50007W        W15234  33.521  37.618  12.555
50008W        W15235  28.921  16.313   1.904
50009W        W15236   1.803  36.532   3.293
50010W        W15237   0.999  42.636   1.820
50011W        W15238   9.304  43.719  14.076
50012W        W15239  41.736  42.673   3.283
50013W        W15240  15.009  31.293   1.859
50014W        W15241  42.134  24.140   4.104
50015W        W15242  17.237  44.235  11.116
50016W        W15243  29.145   2.033   4.227
50017W        W15244  35.354  10.489  12.567
50018W        W15245  16.804   8.728   4.664
50019W        W15246  13.832  43.534   4.714
50020W        W15247  31.007   5.434  14.091
50021W        W15248  35.253   5.748  14.016
50022W        W15249   8.306  18.807   3.717
50023W        W15250   1.191  38.073  11.643
50024W        W15251  27.934  17.596   0.153
50025W        W15252  32.531  30.676  14.292
50026W        W15253  17.481  26.404  11.181
50027W        W15254  20.022  10.388   0.738
50028W        W15255  10.573   8.758   2.552
50029W        W15256   9.196  11.788   0.469
50030W        W15257  42.667  38.842  14.045
50031W        W15258   7.071  30.531   4.175
50032W        W15259  19.365  36.238   3.723
50033W        W15260   9.028  23.484   1.813
50034W        W15261  22.477  40.003  14.469
50035W        W15262  15.562  38.780   5.004
50036W        W15263   1.844  42.766  14.374
50037W        W15264  27.511  19.454   0.669
50038W        W15265   1.559  40.565   2.327
50039W        W15266  16.416  33.566  12.329
50040W        W15267  31.108  22.525  13.303
50041W        W15268  18.619  41.868   1.224
50042W        W15269   0.208  30.593   4.092
50043W        W15270   1.741   9.374   3.189
50044W        W15271  42.843  14.823   4.552
50045W        W15272  33.040  27.526   3.896
50046W        W15273  12.256   4.939  10.422
50047W        W15274  18.997   4.417   2.654
50048W        W15275  28.245  14.276   4.115
50049W        W15276  41.333  36.266  13.895
50050W        W15277  32.462   8.702   2.297
50051W        W15278  38.959  24.555   4.543
50052W        W15279  16.671  23.992  12.041
50053W        W15280  13.675  36.614   2.064
50054W        W15281  10.180  21.748   0.384
50055W        W15282  10.186  16.973   2.216
50056W        W15283  25.152  11.673   2.133
50057W        W15284  35.594  34.810  10.604
50058W        W15285  43.719   7.907  10.587
50059W        W15286  22.036  40.396  14.589
50060W        W15287  39.736   1.298  11.273
50061W        W15288  44.329  31.076   3.409
50062W        W15289  17.570  32.329  11.044
50063W        W15290  36.847  27.640   0.285
50064W        W15291  15.715  14.212   4.121
50065W        W15292  40.009   8.762   3.324
50066W        W15293  31.134   2.398   0.719
50067W        W15294  36.312  36.582  11.511
50068W        W15295  27.831  20.054  11.647
50069W        W15296   4.752  13.082   1.791
50070W        W15297  39.617   3.598   4.951
50071W        W15298  26.140  44.290   0.199
50072W        W15299   1.022  16.181  14.732
50073W        W15300  41.118  44.751   0.151
50074W        W15301  12.206  35.878   3.763
50075W        W15302  18.177   4.969   2.929
50076W        W15303   6.967  20.224   1.643
50077W        W15304   9.124   2.023  12.328
50078W        W15305   6.206  16.719   3.639
50079W        W15306  24.748  25.749  11.412
50080W        W15307  35.581   2.830  13.926
50081W        W15308  13.213  26.404  12.067
50082W        W15309  38.119   8.369   0.778
50083W        W15310  31.921   7.930   3.156
50084W        W15311  12.389  13.065   3.060
50085W        W15312  41.373  35.885   4.412
50086W        W15313  32.866  17.822  11.723
50087W        W15314   9.649  15.250  14.299
50088W        W15315  10.803  36.363   0.179
50089W        W15316  22.624   4.922   2.758
50090W        W15317  32.924  33.073   2.165
50091W        W15318  16.737  16.752   0.445
50092W        W15319   6.434  34.630   1.225
50093W        W15320  23.622  26.277   3.077
50094W        W15321  40.850  31.915   3.848
50095W        W15322  20.143  35.019   0.780
50096W        W15323  36.392  10.619  13.869
50097W        W15324  41.727  35.077   1.535
50098W        W15325   0.772  36.061   4.077
50099W        W15326  27.056  38.978  10.112
50100W        W15327  38.051  42.822  13.756
50101W        W15328  40.556  14.375   9.575
50102W        W15329  27.925  13.615  14.595
50103W        W15330  32.007  42.559   3.586
50104W        W15331   9.613  24.690  11.140
50105W        W15332  28.564  11.713  10.565
50106W        W15333  44.754  32.473  12.198
50107W        W15334  26.927  36.483   4.115
50108W        W15335  18.048   9.631  13.037
50109W        W15336  13.576   3.153   1.274
50110W        W15337  35.990  32.921  12.453
50111W        W15338  12.107  43.751  12.995
50112W        W15339   8.899  21.313   4.705
50113W        W15340  40.866  20.378   1.288
50114W        W15341   1.262  12.330  11.958
50115W        W15342  36.081   4.078  13.902
50116W        W15343  11.872  26.137  14.344
50117W        W15344  24.781  41.247  11.583
50118W        W15345   5.283  22.844   4.522
50119W        W15346  38.137   3.379  11.152
50120W        W15347  39.037  31.451  12.039
50121W        W15348   2.958  39.522   0.712
50122W        W15349   3.139  35.189   3.892
50123W        W15350  15.331   0.907  14.292
50124W        W15351  18.130  25.077   0.043
50125W        W15352  18.942  44.166   2.677
50126W        W15353  28.150  22.197  13.779
50127W        W15354  11.347  14.869   1.258
50128W        W15355  14.276  12.177  11.566
50129W        W15356   7.889  31.075   4.209
50130W        W15357  12.104  31.625   0.959
50131W        W15358  28.671  41.828  13.849
50132W        W15359  44.759  44.021   2.579
50133W        W15360  32.528   7.851  12.634
50134W        W15361   5.929  36.582   4.606
50135W        W15362  16.189  18.082   4.800
50136W        W15363   6.983  29.867  13.557
50137W        W15364  20.288  33.203   3.199
50138W        W15365   8.368  32.091   2.712
50139W        W15366  33.242  14.428  11.705
50140W        W15367  16.293  30.742   0.962
50141W        W15368  20.032   4.143   2.602
50142W        W15369  18.072  29.879   1.396
50143W        W15370  30.109  37.601   1.078
50144W        W15371   0.917  35.320  11.211
50145W        W15372   2.677  31.535  10.733
50146W        W15373  12.609  31.844   3.423
50147W        W15374   0.734   1.944  12.378
50148W        W15375   8.823  24.488  11.558
50149W        W15376  15.707  27.088   1.280
50150W        W15377  11.656   9.857   4.650
50151W        W15378   7.493  17.090   3.223
50152W        W15379  32.646   9.922  13.147
50153W        W15380  33.462  43.503  13.076
50154W        W15381  37.917  19.200  13.424
50155W        W15382   8.740  29.698  13.595
50156W        W15383  22.926   7.622  11.441
50157W        W15384  22.986  33.519  13.943
50158W        W15385  21.002  41.092  12.371
50159W        W15386   4.156  19.071  13.870
50160W        W15387  35.429  18.184  14.998
50161W        W15388   6.295   2.644  13.954
50162W        W15389   0.821  17.328  13.350
50163W        W15390  11.217  28.945   1.936
50164W        W15391  25.083   6.476   0.316
50165W        W15392  29.702  28.865  11.388
50166W        W15393  40.667  14.675   0.966
50167W        W15394  15.216  24.709  10.403
50168W        W15395  14.815  22.219  14.576
50169W        W15396  25.364  15.870  12.617
50170W        W15397  15.666  41.065  11.560
50171W        W15398  22.685  20.640  11.178
50172W        W15399  17.028  27.129  13.338
50173W        W15400  16.281   6.785  14.368
50174W        W15401   7.739  34.648  12.068
50175W        W15402  19.046   5.700   2.259
50176W        W15403   3.741   4.121  12.522
50177W        W15404   7.754  11.253  11.111
50178W        W15405  22.270  14.194  12.465
50179W        W15406  24.441   7.826   2.451
50180W        W15407  42.520  15.253   4.577
50181W        W15408  33.782  41.956   3.608
50182W        W15409  38.757  29.899   4.284
50183W        W15410   2.212  35.782   4.929
50184W        W15411   0.330  10.457   2.632
50185W        W15412  19.221  36.390  12.865
50186W        W15413   5.723   7.283  13.916
50187W        W15414  10.169  33.092  12.047
50188W        W15415   4.867  10.116   5.043
50189W        W15416   9.311  36.870  14.452
50190W        W15417  33.818  42.753  13.433
50191W        W15418   0.898  24.100  14.206
50192W        W15419  40.442  25.739   4.501
50193W        W15420   7.794   8.381  14.975
50194W        W15421   8.376   9.876   2.248
50195W        W15422  31.612  22.459  13.449
50196W        W15423  18.650  37.898   2.240
50197W        W15424   8.778  37.130   4.154
50198W        W15425   9.175  22.414  14.382
50199W        W15426  43.345  42.075  12.036
50200W        W15427   8.653  27.489   3.893
50201W        W15428  43.690   2.363   3.772
50202W        W15429   4.748   0.263  13.022
50203W        W15430  15.848   7.283  13.196
50204W        W15431  27.328  37.566   4.836
50205W        W15432  35.360  30.734  10.556
50206W        W15433  12.923  33.978   4.110
50207W        W15434  17.856  11.028  13.559
50208W        W15435  42.677   3.783   2.913
50209W        W15436  29.369  44.325  14.346
50210W        W15437  16.232   5.401   0.693
50211W        W15438  41.570  23.157  12.143
50212W        W15439   8.769  32.995   2.907
50213W        W15440   3.403  19.962  14.869
50214W        W15441  17.066  21.539   1.678
50215W        W15442   5.133  19.009  11.114
50216W        W15443  10.406   8.266  11.190
50217W        W15444   4.248  42.346  10.328
50218W        W15445  21.603   9.175   3.403
50219W        W15446   8.253  36.957  10.666
50220W        W15447  38.120  42.485  13.089
50221W        W15448  13.098  18.554  10.462
50222W        W15449  10.675   7.678  11.564
50223W        W15450   0.267  29.603   2.789
50224W        W15451  27.446  10.679   3.732
50225W        W15452   3.919   9.756  11.640
50226W        W15453  11.278  27.460  14.718
50227W        W15454  17.837   4.363  10.624
50228W        W15455  18.281   0.919   4.694
50229W        W15456  34.077  11.942   2.428
50230W        W15457   2.880  28.583   4.900
50231W        W15458  18.572  27.167   4.571
50232W        W15459  27.606  16.333   1.594
50233W        W15460  27.928  38.546   4.811
50234W        W15461  32.131  44.370   0.438
50235W        W15462   8.883  12.010  10.660
50236W        W15463  11.387  11.636   3.661
50237W        W15464   4.790  28.627  10.717
50238W        W15465  30.884  30.714   1.927
50239W        W15466   9.916  32.825  13.415
50240W        W15467  25.993  23.721  14.414
50241W        W15468   5.204  19.672   2.608
50242W        W15469   1.041  39.775   0.828
50243W        W15470  28.638  11.420   3.680
50244W        W15471  17.140  22.746  11.060
50245W        W15472  22.727  24.407  10.721
50246W        W15473  12.125  20.024   4.056
50247W        W15474  33.042  28.215   1.841
50248W        W15475  23.537  17.562  13.394
50249W        W15476   4.264  14.189   4.046
50250W        W15477  27.198   7.609   2.436
50251W        W15478  38.859   1.961   2.591
50252W        W15479   1.458  43.001  12.259
50253W        W15480  18.057  40.730   4.103
50254W        W15481   8.437  24.918   2.318
50255W        W15482   6.303  11.439  10.094
50256W        W15483  22.825   7.000  13.097
50257W        W15484  13.308  27.187  11.697
50258W        W15485   9.862  16.564   1.224
50259W        W15486   5.419  21.082  11.077
50260W        W15487  11.357  35.988  10.424
50261W        W15488   6.253   0.352  13.970
50262W        W15489  38.035  42.779   2.371
50263W        W15490  13.677   5.898   1.250
50264W        W15491   5.396  17.027   0.876
50265W        W15492  17.110  27.651   0.385
50266W        W15493  33.351  40.411  13.423
50267W        W15494   2.052  26.411  13.293
50268W        W15495  20.197  10.058  14.770
50269W        W15496  26.259  14.024  12.444
50270W        W15497   8.670  16.109   4.930
50271W        W15498  22.068   7.008  11.506
50272W        W15499  37.936  26.097   2.303
50273W        W15500  19.865  15.717   4.206
50274W        W15501  15.690  21.631   4.291
50275W        W15502   4.737  12.707   5.008
50276W        W15503  26.992  37.337  14.423
50277W        W15504  37.617   0.426   2.063
50278W        W15505  21.438  20.356   4.134
50279W        W15506   7.123  14.853   2.151
50280W        W15507  21.809  25.933   0.320
50281W        W15508   6.373  24.153   2.376
50282W        W15509  29.488  24.008   3.824
50283W        W15510   1.669   4.642   2.901
50284W        W15511  27.259  14.893   2.207
50285W        W15512  41.006  33.217  11.505
50286W        W15513  36.478  19.335  11.632
50287W        W15514  42.761  28.974  12.713
50288W        W15515  39.074  18.740  11.197
50289W        W15516  35.932  26.937   1.467
50290W        W15517  44.188  24.283  13.965
50291W        W15518  37.021  19.253  12.465
50292W        W15519  11.830  11.308   0.314
50293W        W15520   6.233  31.841   5.051
50294W        W15521  20.779  37.972  11.743
50295W        W15522  35.793  11.804   4.443
50296W        W15523  26.646  44.466  14.041
50297W        W15524  24.554   8.908  14.194
50298W        W15525  15.290  33.688  12.276
50299W        W15526  13.598  26.481  14.866
50300W        W15527  19.519  32.297   0.802
50301W        W15528  34.030  15.745   3.323
50302W        W15529  29.515  42.737   0.460
50303W        W15530  41.994   5.436   3.661
50304W        W15531  16.882  39.847  11.352
50305W        W15532  24.683  39.293   0.993
50306W        W15533  15.964  30.631   4.128
50307W        W15534  37.296  30.057  13.106
50308W        W15535  30.485  38.316  12.082
50309W        W15536  28.853   3.345   3.216
50310W        W15537  31.210  16.015  11.929
50311W        W15538  31.647  36.891  14.371
50312W        W15539  40.321  31.669  12.125
50313W        W15540  41.837  30.513   1.252
50314W        W15541  17.762  22.159   4.140
50315W        W15542  15.649   6.033   4.458
50316W        W15543  27.451   8.194  14.408
50317W        W15544  30.530   9.450   1.757
50318W        W15545  11.116  39.763   1.322
50319W        W15546   5.986  13.086  14.574
50320W        W15547  10.594  24.441   1.935
50321W        W15548  19.144  27.866   3.697
50322W        W15549  15.183  16.014   2.647
50323W        W15550  37.089  13.226  14.035
50324W        W15551   6.737  17.190   3.054
50325W        W15552  33.476  20.529  13.853
50326W        W15553   9.263   5.288  14.519
50327W        W15554  20.125  11.092  12.118
50328W        W15555  23.965   3.811   2.582
50329W        W15556   9.679  39.101  11.874
50330W        W15557  35.058  36.059   4.688
50331W        W15558   8.168  23.440  11.161
50332W        W15559  44.742   9.518  11.958
50333W        W15560  22.505  42.976  13.852
50334W        W15561  35.288  12.108  10.686
50335W        W15562   9.824   5.050   0.393
50336W        W15563  25.319   5.849   0.968
50337W        W15564   1.675  42.202   3.286
50338W        W15565  40.485  44.227  14.864
50339W        W15566  36.247  25.235  11.866
50340W        W15567  32.103  41.212   2.614
50341W        W15568  16.024  38.670   1.951
50342W        W15569  29.653  43.728   1.315
50343W        W15570  30.939  38.926  13.911
50344W        W15571  17.021  44.788   1.866
50345W        W15572  33.503   0.341  14.928
50346W        W15573  42.581   7.881   1.716
50347W        W15574   4.951  35.835  11.231
50348W        W15575  31.677  15.880   4.549
50349W        W15576   8.890  22.528  13.504
50350W        W15577  11.378  38.453   1.286
50351W        W15578  30.016  42.932   1.220
50352W        W15579  17.236  35.465  10.679
50353W        W15580  35.347   6.916   0.945
50354W        W15581  37.727  29.680  12.459
50355W        W15582  42.344   6.913   4.145
50356W        W15583  35.439  23.888  13.683
50357W        W15584  23.263  21.081   3.754
50358W        W15585  32.523  22.003   0.954
50359W        W15586  40.987  13.061  12.363
50360W        W15587  23.473   2.979   0.757
50361W        W15588  39.032  20.006   4.138
50362W        W15589  22.252  33.116   0.869
50363W        W15590  12.929  42.384  13.471
50364W        W15591  18.602  10.439  12.491
50365W        W15592  33.634  41.469  10.701
50366W        W15593  24.955  28.900  11.934
50367W        W15594   3.353  17.677   0.644
50368W        W15595  27.177  11.267   2.666
50369W        W15596   7.562  25.106   1.121
50370W        W15597  36.388  14.155  12.653
50371W        W15598   6.108  17.598   2.133
50372W        W15599  17.031  19.852  12.397
50373W        W15600   0.192  12.247   0.891
50374W        W15601  30.937   1.371   3.382
50375W        W15602  27.523  35.838   0.520
50376W        W15603  42.159  10.715   4.028
50377W        W15604  37.522  23.767  14.849
50378W        W15605   1.094   0.306  12.386
50379W        W15606   2.662   7.130  11.794
50380W        W15607   3.175  18.519  14.838
50381W        W15608  15.342  27.987   1.688
50382W        W15609  20.119  37.234  12.703
50383W        W15610  43.039  31.963   3.189
50384W        W15611  24.147  24.635  13.195
50385W        W15612   6.848  34.070  11.957
50386W        W15613  19.509   7.178  12.891
50387W        W15614   1.890  37.676  11.574
50388W        W15615   0.384  28.163   2.224
50389W        W15616  11.140  37.536  11.702
50390W        W15617  41.499  19.295   1.592
50391W        W15618  12.233   7.372  10.639
50392W        W15619  27.555  10.680   4.630
50393W        W15620  11.849   2.808  13.695
50394W        W15621   9.279  44.240   1.273
50395W        W15622  43.768  24.952   0.149
50396W        W15623  14.570  28.696   0.425
50397W        W15624  26.188  31.572   1.464
50398W        W15625  37.762  14.342  13.965
50399W        W15626   8.857  16.240   1.163
50400W        W15627  25.191   9.507   4.636
50401W        W15628  43.096  34.013   0.317
50402W        W15629  30.019  16.600   2.390
50403W        W15630  39.074  10.306  12.743
50404W        W15631  40.846  10.256   4.770
50405W        W15632  27.372   1.169  13.211
50406W        W15633  23.580  32.427   4.483
50407W        W15634  10.710  36.975   4.373
50408W        W15635   9.738  22.745  13.751
50409W        W15636  26.035  29.910  14.915
50410W        W15637  39.995  33.893  13.798
50411W        W15638   3.418  43.486   2.700
50412W        W15639   0.904  14.456   3.505
50413W        W15640  34.475  41.002  12.990
50414W        W15641  25.346  41.840  14.776
50415W        W15642  20.643  25.424   1.376
50416W        W15643  39.939  15.060  10.640
50417W        W15644  43.468  22.873  12.654
50418W        W15645  37.101  21.376  11.290
50419W        W15646   0.143  26.515  10.168
50420W        W15647   6.196  34.441  14.537
50421W        W15648  40.914  21.106   3.008
50422W        W15649  29.415  28.150  12.019
50423W        W15650  32.665  13.994  11.562
50424W        W15651  24.658  15.836   4.748
50425W        W15652  18.565  44.036   1.017
50426W        W15653  35.432  36.322  13.622
50427W        W15654  11.294   9.077   4.563
50428W        W15655  16.063  41.360   0.989
50429W        W15656  26.527   0.186   3.606
50430W        W15657  13.733  17.036  11.955
50431W        W15658   3.452  31.985  12.868
50432W        W15659  24.515  34.670  10.742
50433W        W15660  30.385  14.597  13.963
50434W        W15661  17.195  16.840  12.363
50435W        W15662  24.070  22.703   1.840
50436W        W15663  30.160  42.011   3.690
50437W        W15664   4.881  25.100  14.346
50438W        W15665  16.794  16.035   4.838
50439W        W15666  11.936  36.340  13.419
50440W        W15667  25.476  17.636  14.001
50441W        W15668   3.258  42.996  14.858
50442W        W15669  26.827  37.195   0.911
50443W        W15670  29.735  40.703  14.026
50444W        W15671  25.407   7.495  12.567
50445W        W15672  12.338  40.495   0.354
50446W        W15673  12.163   1.982  12.046
50447W        W15674  20.133  18.317   2.584
50448W        W15675  12.282  10.690   2.576
50449W        W15676  17.830   5.840   1.408
50450W        W15677  10.334  37.706  13.521
50451W        W15678  13.438  31.166   2.170
50452W        W15679  26.273  40.782   1.320
50453W        W15680  11.719  36.417  14.817
50454W        W15681  13.413  40.776   3.700
50455W        W15682  37.772   4.246  10.936
50456W        W15683  29.071   1.199  12.598
50457W        W15684   5.451  38.387   1.430
50458W        W15685  31.022  34.085   2.558
50459W        W15686  24.153  18.656  13.357
50460W        W15687  10.638  14.013  11.636
50461W        W15688   4.138  33.353   3.255
50462W        W15689  40.336  44.932  14.545
50463W        W15690   3.271  13.258   0.791
50464W        W15691   8.786  16.566  14.882
50465W        W15692  18.699  31.027  13.969
50466W        W15693  40.895   0.811   3.854
50467W        W15694  32.616   2.837   1.623
50468W        W15695  32.871  22.980   2.358
50469W        W15696  44.236  20.657   3.143
50470W        W15697   2.894  15.276  12.825
50471W        W15698  39.832   9.672   2.207
50472W        W15699  36.524  26.015   0.105
50473W        W15700  30.462  37.886   1.754
50474W        W15701  15.761  17.952  13.557
50475W        W15702  41.907  12.198   1.510
50476W        W15703  12.705   3.353   1.190
50477W        W15704   9.870  16.489   4.538
50478W        W15705  16.717  10.327  12.135
50479W        W15706   4.664   1.787  14.876
50480W        W15707   5.962   8.719   2.840
50481W        W15708  25.498  42.031  11.474
50482W        W15709   1.360   8.284   0.109
50483W        W15710  15.357   8.970  13.136
50484W        W15711  27.676  17.732  12.916
50485W        W15712  16.254  42.555   0.306
50486W        W15713  13.334  20.967  14.047
50487W        W15714  20.659  15.708   1.176
50488W        W15715  37.550   9.562   4.137
50489W        W15716   7.053  39.414  10.960
50490W        W15717  19.633   4.741  13.197
50491W        W15718  33.637  36.417   1.368
50492W        W15719   2.953   9.146   4.624
50493W        W15720  37.965  16.010  13.518
50494W        W15721  35.417  32.453  12.550
50495W        W15722  39.568  11.933   3.793
50496W        W15723  44.888  42.447  12.753
50497W        W15724   9.993  31.094  13.062
50498W        W15725  30.727  43.456   0.916
50499W        W15726  28.696  39.086  12.314
50500W        W15727   7.106  42.808  11.667
50501W        W15728  34.976  36.595  12.402
50502W        W15729  26.607  26.488   5.078
50503W        W15730  30.277  27.622  13.477
50504W        W15731  43.922  16.264   3.688
50505W        W15732  12.420  18.235  11.995
50506W        W15733   4.643  20.365   1.735
50507W        W15734   3.530   9.858   2.799
50508W        W15735   5.059  36.888  11.451
50509W        W15736  31.022  23.687  12.089
50510W        W15737   4.233  36.775   1.276
50511W        W15738  38.088  10.068  10.092
50512W        W15739  15.579  23.383   1.977
50513W        W15740   2.783  28.101   5.045
50514W        W15741  24.263  23.034  14.032
50515W        W15742  37.849   0.756  12.803
50516W        W15743  42.919  30.636   0.188
50517W        W15744  39.025  14.058   2.639
50518W        W15745  11.757  18.120  12.566
50519W        W15746  41.592  43.312   1.375
50520W        W15747   4.906  43.607   3.550
50521W        W15748   3.565   1.517   4.617
50522W        W15749   8.208  18.062   4.510
50523W        W15750  21.178   5.716   4.863
50524W        W15751  43.848   5.211   3.127
50525W        W15752   5.658   6.187  12.507
50526W        W15753  15.259  27.110  12.525
50527W        W15754  13.328   8.728  13.081
50528W        W15755  21.142  38.408   4.073
50529W        W15756   8.395  30.041   1.687
50530W        W15757  44.848  21.203  14.498
50531W        W15758  30.131  23.545  13.951
50532W        W15759  31.435  24.565  12.063
50533W        W15760  20.113  33.921   4.172
50534W        W15761   7.652  32.382  13.423
50535W        W15762   4.414  24.349   0.758
50536W        W15763   2.728   8.212  14.865
50537W        W15764  33.861  29.473  10.783
50538W        W15765  25.026  42.593  10.762
50539W        W15766  18.039  22.701   3.602
50540W        W15767   4.324  13.060  10.570
50541W        W15768  14.301  42.663   9.997
50542W        W15769  24.331  44.687  12.029
50543W        W15770   9.839  36.787  10.824
50544W        W15771   2.117  36.161   2.759
50545W        W15772  17.137   1.908  14.966
50546W        W15773  14.166  10.842   4.534
50547W        W15774  14.795  15.805  12.063
50548W        W15775  36.932  23.039   3.026
50549W        W15776  32.579  21.690   2.870
50550W        W15777   1.716  17.037  12.423
50551W        W15778  12.765   6.348  14.014
50552W        W15779  25.136  20.196   2.820
50553W        W15780  12.624   7.846   2.729
50554W        W15781  33.080  29.675   2.415
50555W        W15782   9.689  12.547  14.995
50556W        W15783  10.564  33.777  12.507
50557W        W15784  35.386  43.740   3.936
50558W        W15785  36.943  19.971  11.776
50559W        W15786   0.278  24.777  12.061
50560W        W15787  30.994   5.326   2.787
50561W        W15788   4.724  39.733   1.746
50562W        W15789  12.120  21.588  14.269
50563W        W15790  44.136   6.314   0.883
50564W        W15791  42.619  38.033   1.706
50565W        W15792  30.574  19.318   4.265
50566W        W15793   4.056  28.173   4.497
50567W        W15794  44.028  30.032  14.299
50568W        W15795  32.027  30.771  14.384
50569W        W15796  13.115  19.154   0.266
50570W        W15797  33.902  24.875   1.781
50571W        W15798  28.285   6.131  12.578
50572W        W15799   8.889  30.187   3.173
50573W        W15800   0.018  25.051  13.740
50574W        W15801   7.214  24.616   4.726
50575W        W15802   4.212  22.021  13.409
50576W        W15803  40.525  31.040   2.863
50577W        W15804  37.340  34.801  14.568
50578W        W15805  13.140   8.197  14.292
50579W        W15806   7.842  22.224  11.718
50580W        W15807  35.304   4.330  14.215
50581W        W15808  11.709   1.806   0.487
50582W        W15809  13.783  34.916   2.952
50583W        W15810  11.666  14.310  14.819
50584W        W15811  15.854  42.775   1.482
50585W        W15812   8.373  27.545  14.572
50586W        W15813   4.407   3.999  10.792
50587W        W15814  16.604  14.778  13.012
50588W        W15815   8.572  18.085   4.131
50589W        W15816  21.494  10.395   3.745
50590W        W15817   5.730  28.053  14.808
50591W        W15818  40.938  38.861  14.056
50592W        W15819  17.855   7.995  13.573
50593W        W15820   8.073   9.899  14.524
50594W        W15821  43.868   3.980   4.487
50595W        W15822  17.559  21.293   2.422
50596W        W15823  39.321  20.631  11.507
50597W        W15824  22.027  42.264   3.674
50598W        W15825  19.544  42.244   4.135
50599W        W15826  20.227  44.034   4.074
50600W        W15827  32.818   2.830  11.104
50601W        W15828  19.623  36.963   0.419
50602W        W15829  33.160  28.653  10.732
50603W        W15830  26.132  44.799  11.694
50604W        W15831  12.551  20.597   4.583
50605W        W15832  35.453  28.526   4.663
50606W        W15833  42.328  31.051   0.764
50607W        W15834  42.020  21.773  13.953
50608W        W15835  15.654  21.017  13.979
50609W        W15836  42.883  12.433  12.206
50610W        W15837   1.319   5.494  10.743
50611W        W15838  16.740   0.593   3.320
50612W        W15839  21.980  28.470   2.914
50613W        W15840  37.446  29.598  14.116
50614W        W15841  40.809  27.041  13.375
50615W        W15842  44.797  16.843  11.149
50616W        W15843  23.154  32.031   4.948
50617W        W15844   6.227   4.996   3.494
50618W        W15845  37.486  41.278   1.748
50619W        W15846  10.330   4.900  14.061
50620W        W15847  11.353  44.608  11.639
50621W        W15848  24.450   8.429   0.361
50622W        W15849  11.972  25.063   4.944
50623W        W15850  35.561  11.648   3.599
50624W        W15851  30.617   9.764  10.699
50625W        W15852  20.771  13.231  10.672
50626W        W15853  26.135   1.432  14.957
50627W        W15854  26.939  21.115  10.276
50628W        W15855  30.499  14.861  12.066
50629W        W15856  32.195  44.316   4.165
50630W        W15857  20.576  19.142   2.678
50631W        W15858  12.006  12.769  10.590
50632W        W15859  42.615  39.759   2.858
50633W        W15860  29.827   6.767   0.818
50634W        W15861  39.802  31.654   3.264
50635W        W15862   1.308  43.425  13.031
50636W        W15863   5.404  30.424   2.212
50637W        W15864  29.567   3.847   2.287
50638W        W15865  15.259  12.308   4.199
50639W        W15866   1.421  26.099   9.923
50640W        W15867  20.139  35.107  10.568
50641W        W15868  43.316   6.154  11.453
50642W        W15869   2.213  43.518   0.626
50643W        W15870  10.618  38.502   1.911
50644W        W15871  42.950  16.662   1.854
50645W        W15872  20.204  34.355  14.218
50646W        W15873  44.993  13.143   4.349
50647W        W15874  44.935  41.572  14.802
50648W        W15875  28.157   7.424   4.571
50649W        W15876  25.702   5.316  14.557
50650W        W15877  38.408  31.099   1.166
50651W        W15878  10.730  28.442  11.330
50652W        W15879  37.999  37.552  11.507
50653W        W15880   8.350  10.343  14.500
50654W        W15881  40.544  24.968  12.940
50655W        W15882  32.155   7.882  13.027
50656W        W15883  19.518  25.107  13.454
50657W        W15884   8.781   9.796   0.498
50658W        W15885  26.579   0.851  12.886
50659W        W15886  30.560  25.070   2.646
50660W        W15887  44.483  40.834  13.979
50661W        W15888  40.515  16.856   2.307
50662W        W15889  15.238  20.029   2.735
50663W        W15890   9.314   4.871  11.688
50664W        W15891  12.201  28.460  14.496
50665W        W15892  17.757   8.892  13.632
50666W        W15893  10.311  10.768  12.440
50667W        W15894  13.051  23.521  12.636
50668W        W15895  32.546  41.022  10.770
50669W        W15896  15.876   9.315  12.512
50670W        W15897   8.830   1.310   4.574
50671W        W15898  10.106  26.129   0.912
50672W        W15899   6.233  28.024  14.936
50673W        W15900   3.900  15.612  10.462
50674W        W15901  41.178  33.424   4.994
50675W        W15902  26.466   2.463   3.845
50676W        W15903   8.775  17.361   4.592
50677W        W15904  44.958  13.869  11.345
50678W        W15905  24.360  18.733   1.752
50679W        W15906  25.771  36.369   0.771
50680W        W15907  14.189  36.656   0.613
50681W        W15908   1.685   3.218  10.603
50682W        W15909   8.284  18.370  12.556
50683W        W15910   5.902  24.962  14.389
50684W        W15911  22.056  10.277   1.800
50685W        W15912  33.402  24.553   1.895
50686W        W15913  42.812   6.846  12.480
50687W        W15914   3.179  23.998   0.030
50688W        W15915  37.121   1.964   3.178
50689W        W15916  34.029  35.021   3.617
50690W        W15917  34.420  23.592   0.289
50691W        W15918  38.927   5.747   0.912
50692W        W15919  20.092  19.574  10.865
50693W        W15920  26.612  29.858   1.805
50694W        W15921  14.945  42.837   1.497
50695W        W15922  32.568  31.278   4.320
50696W        W15923   9.218  10.562   1.372
50697W        W15924  15.725  36.640  11.919
50698W        W15925   6.773  36.419  12.112
50699W        W15926  31.364   4.318  12.997
50700W        W15927   6.956  41.431  14.757
50701W        W15928   3.438  13.541  10.716
50702W        W15929  34.011   0.967   2.213
50703W        W15930  38.438  33.640  11.889
50704W        W15931  30.865   2.452  11.118
50705W        W15932  30.040  40.064   1.289
50706W        W15933  44.480  39.123   0.914
50707W        W15934  33.498  10.368  10.727
50708W        W15935   5.906   5.932   4.643
50709W        W15936  43.302   7.350   4.921
50710W        W15937   8.875  10.746   0.026
50711W        W15938  37.755  35.407   2.711
50712W        W15939  42.218  24.490  14.413
50713W        W15940  26.012  26.668  12.525
50714W        W15941   0.412  29.623  11.170
50715W        W15942  12.707  13.802   3.651
50716W        W15943  20.208  34.617   2.135
50717W        W15944  15.280  16.075   1.745
50718W        W15945  33.432  22.136  11.519
50719W        W15946   9.912  17.954   0.865
50720W        W15947  29.741  19.288  12.956
50721W        W15948  38.980  38.461  13.276
50722W        W15949  36.484  12.189  11.183
50723W        W15950  12.934  12.594  14.046
50724W        W15951  24.461   1.206  10.652
50725W        W15952  21.465  17.705   3.336
50726W        W15953   8.799  20.366  13.508
50727W        W15954  41.509  32.589  10.900
50728W        W15955   4.489  10.847  11.644
50729W        W15956   8.424  24.135   2.298
50730W        W15957  17.301  12.360  11.040
50731W        W15958  33.049  11.093  11.034
50732W        W15959  18.512  41.753  12.421
50733W        W15960  30.474  26.476   3.641
50734W        W15961  31.128  14.837  10.535
50735W        W15962  22.378  36.098  11.141
50736W        W15963  39.996  23.564   0.240
50737W        W15964  18.290  16.666  13.950
50738W        W15965  16.028   3.219   1.781
50739W        W15966  42.836   9.372   3.676
50740W        W15967  11.524   7.394   0.416
50741W        W15968   5.452  31.515   4.506
50742W        W15969   4.521  31.866  10.324
50743W        W15970   8.659  36.418   3.730
50744W        W15971  37.465   3.770  12.819
50745W        W15972  30.987   1.190  14.516
50746W        W15973  10.704   2.038  13.139
50747W        W15974   4.417  43.512   1.009
50748W        W15975  33.134  43.930   4.097
50749W        W15976  39.684  26.055  13.510
50750W        W15977  26.363   6.856  13.900
50751W        W15978  16.186  40.658  14.980
50752W        W15979  23.199  16.619   1.135
50753W        W15980  30.654   8.692  14.759
50754W        W15981  17.426  34.497  13.439
50755W        W15982  18.077  31.662  12.486
50756W        W15983  43.235  44.099   2.423
50757W        W15984   1.759  24.147  13.905
50758W        W15985  36.650  10.054  10.314
50759W        W15986   3.205  31.950   4.398
50760W        W15987   4.714  25.857   4.133
50761W        W15988   4.939  37.556   1.152
50762W        W15989  33.421   3.537  10.323
50763W        W15990   9.123   0.805  12.009
50764W        W15991  10.140   4.300  10.496
50765W        W15992   6.376  11.724   0.038
50766W        W15993  36.624  14.042   1.299
50767W        W15994  24.234  43.423   3.419
50768W        W15995  20.523  21.711  10.497
50769W        W15996   4.884   0.491  12.053
50770W        W15997  40.300  13.850  11.236
50771W        W15998  42.318  36.633   2.059
50772W        W15999   9.313   7.499   3.864
50773W        W16000  25.906  20.412  11.244
50774W        W16001  35.045  40.679   2.339
50775W        W16002  36.893  19.571  11.463
50776W        W16003  36.340  39.975   1.848
50777W        W16004  43.996   2.817  10.773
50778W        W16005  40.854   4.728   3.253
50779W        W16006   8.979  12.112  14.361
50780W        W16007  24.768  28.091  10.696
50781W        W16008  25.774  11.117   1.893
50782W        W16009   6.459  12.399   4.414
50783W        W16010  44.361   0.767  10.662
50784W        W16011  44.813  43.733   9.755
50785W        W16012  35.027  34.104  14.292
50786W        W16013  42.045  40.452   4.211
50787W        W16014  11.861  33.116  14.618
50788W        W16015  34.507   6.681  14.871
50789W        W16016  23.797  14.855   0.815
50790W        W16017  22.952  22.494   0.896
50791W        W16018  18.344  23.693   1.223
50792W        W16019  23.708  27.643  12.987
50793W        W16020  20.098   9.232  14.919
50794W        W16021  32.078   3.201   3.698
50795W        W16022   9.396  29.540  12.452
50796W        W16023  21.590  28.504  10.378
50797W        W16024  28.043   3.245   2.795
50798W        W16025   0.898  19.193   0.273
50799W        W16026  18.558   2.456  13.463
50800W        W16027   7.738  39.017   2.241
50801W        W16028  29.104  34.318  10.714
50802W        W16029   1.870  16.295  10.469
50803W        W16030  37.330  41.756   2.727
50804W        W16031  20.856   2.782  12.950
50805W        W16032   7.862  28.141  10.800
50806W        W16033  41.317  16.642   0.573
50807W        W16034  13.055  44.899  11.685
50808W        W16035   5.394  18.205  10.648
50809W        W16036  44.838  23.901  12.974
50810W        W16037  40.139  15.148  11.939
50811W        W16038  16.504  19.476  13.429
50812W        W16039  42.017   3.556  12.458
50813W        W16040   3.815   0.415  13.945
50814W        W16041  34.556  32.350  12.519
50815W        W16042  16.299   8.618   4.646
50816W        W16043  30.408  16.598  13.488
50817W        W16044  17.782  29.423   4.162
50818W        W16045  44.366  32.116  13.760
50819W        W16046  42.524  23.453  12.090
50820W        W16047  34.903   1.254   4.564
50821W        W16048  28.032  34.789  10.919
50822W        W16049  35.437  28.493   0.823
50823W        W16050  33.936   4.168  13.811
50824W        W16051   7.689  31.134  10.764
50825W        W16052  36.554   1.377  10.698
50826W        W16053   6.101  39.263  11.856
50827W        W16054  44.892  43.931   4.030
50828W        W16055  21.655   9.438  11.043
50829W        W16056  34.214  36.604  12.413
50830W        W16057  10.367  28.110   4.631
50831W        W16058  44.853  31.873  10.697
50832W        W16059   7.286  29.229   1.387
50833W        W16060  35.176   7.835  13.538
50834W        W16061   3.167  38.017   3.686
50835W        W16062  18.969  35.325  11.590
50836W        W16063  42.526  12.105  14.976
50837W        W16064  43.433  28.202  14.214
50838W        W16065   7.021  44.350  13.409
50839W        W16066  29.006  11.256   2.792
50840W        W16067  35.516  15.528  13.930
50841W        W16068  22.462  43.240   3.192
50842W        W16069  15.723  43.252  11.164
50843W        W16070  19.578   8.388  10.720
50844W        W16071  22.470   9.525  14.287
50845W        W16072  22.086  32.612  13.324
50846W        W16073  13.119  11.484  11.134
50847W        W16074  18.224  16.791   2.002
50848W        W16075   3.762  24.189  10.775
50849W        W16076  39.104  18.255   0.695
50850W        W16077   4.900  22.140  12.414
50851W        W16078  20.429  28.759  14.867
50852W        W16079  44.382   3.491  14.295
50853W        W16080  25.257  22.944   0.273
50854W        W16081  11.846  21.170   4.291
50855W        W16082  40.345  25.819   3.134
50856W        W16083  24.378   6.760  10.493
50857W        W16084   6.804  27.715  12.493
50858W        W16085  26.688  39.424   1.320
50859W        W16086  36.095  37.306  11.584
50860W        W16087  26.460  40.586   4.110
50861W        W16088   7.663  29.051  10.563
50862W        W16089  16.242  25.196   3.760
50863W        W16090  18.052  22.070   0.383
50864W        W16091   8.178   9.169   1.712
50865W        W16092  38.374   8.845  12.659
50866W        W16093  43.075  21.618   0.802
50867W        W16094  10.333  42.564  12.122
50868W        W16095   7.314  14.312  14.441
50869W        W16096   3.431  40.304   2.466
50870W        W16097   5.936  40.726  13.889
50871W        W16098   5.117  30.266   4.990
50872W        W16099   9.564  29.431   1.643
50873W        W16100  14.096   2.002   0.778
50874W        W16101  18.230  44.811  13.945
50875W        W16102  18.854  19.417   2.178
50876W        W16103  19.096  41.722  11.642
50877W        W16104  28.007  26.584  13.454
50878W        W16105  40.444  34.816  14.510
50879W        W16106  28.559  14.304   0.349
50880W        W16107   0.383  18.054  10.716
50881W        W16108  44.511  22.947   4.106
50882W        W16109  28.110  29.115  13.545
50883W        W16110  24.322   4.819  14.480
50884W        W16111   9.216  15.186  12.624
50885W        W16112  11.555   9.672  13.426
50886W        W16113  32.028   8.330   0.445
50887W        W16114  39.769  32.054  10.618
50888W        W16115  15.316  44.281  11.422
50889W        W16116  21.538   8.248   4.358
50890W        W16117  18.954  23.582  12.936
50891W        W16118  42.310  17.635  14.745
50892W        W16119  20.671  30.160  12.494
50893W        W16120  32.636  16.837   0.754
50894W        W16121  40.352  16.363   1.441
50895W        W16122  10.747  18.636   3.160
50896W        W16123  37.319  10.101  14.532
50897W        W16124  11.139   9.051   1.912
50898W        W16125  10.379   7.844   2.267
50899W        W16126  36.482  27.265  12.110
50900W        W16127  25.346  21.204   3.666
50901W        W16128  19.518  25.213   3.191
50902W        W16129   8.157  36.859  11.971
50903W        W16130  21.290  31.408   1.305
50904W        W16131   0.567  11.601   4.078
50905W        W16132   4.475   2.468  12.453
50906W        W16133  12.581  14.085   4.082
50907W        W16134  32.894  38.442  12.328
50908W        W16135  43.859  20.249  11.065
50909W        W16136  40.411  11.873   2.161
50910W        W16137   8.661  33.028  13.031
50911W        W16138   5.196  36.154   1.425
50912W        W16139   6.006   7.280   1.875
50913W        W16140  43.485  33.331   0.951
50914W        W16141  25.231  35.257  11.964
50915W        W16142  31.019  42.391  12.639
50916W        W16143  33.200  12.382  12.620
50917W        W16144  17.441  35.637  13.931
50918W        W16145   5.052   7.236  12.671
50919W        W16146  29.560   3.511   2.697
50920W        W16147  34.005  21.578   0.758
50921W        W16148  32.416  34.092  10.782
50922W        W16149   0.152  16.555  11.718
50923W        W16150  25.926  29.544   4.093
50924W        W16151  41.378  44.134   3.427
50925W        W16152  10.780  20.114  13.393
50926W        W16153   0.280  42.088  11.151
50927W        W16154  38.573  18.556  13.554
50928W        W16155  43.800  37.612  14.419
50929W        W16156  42.214  17.679   3.264
50930W        W16157  43.326  14.099   3.546
50931W        W16158  18.106  17.031  11.192
50932W        W16159  20.129  38.378  14.080
50933W        W16160  43.055  39.862   2.510
50934W        W16161  13.881   8.256  13.013
50935W        W16162  38.886  14.684   1.850
50936W        W16163   3.557  12.845  12.910
50937W        W16164  19.590   4.829   3.220
50938W        W16165  15.714  17.598  14.897
50939W        W16166  26.984  42.369   2.966
50940W        W16167   7.923  23.171   0.956
50941W        W16168  15.432   4.226   2.578
50942W        W16169  35.485  38.112  14.512
50943W        W16170  32.848  14.289  12.020
50944W        W16171   0.591  34.919   2.919
50945W        W16172  43.432   9.680  11.234
50946W        W16173  40.806   6.984  13.508
50947W        W16174  33.481  19.004  13.812
50948W        W16175  34.147   4.481  13.445
50949W        W16176   9.215   0.909  14.771
50950W        W16177  32.844  44.741   3.454
50951W        W16178  38.555  39.849   3.158
50952W        W16179  31.401  15.765  12.519
50953W        W16180   1.267  27.041  12.269
50954W        W16181  42.994  31.570   2.461
50955W        W16182  21.555  43.032   3.617
50956W        W16183   8.829  44.570  10.657
50957W        W16184  42.479   5.326   0.708
50958W        W16185  29.171  14.326   5.062
50959W        W16186  35.303  19.980   3.647
50960W        W16187  13.525   6.870   2.970
50961W        W16188   8.578  11.611   3.823
50962W        W16189   4.447  30.331   0.536
50963W        W16190   4.029  15.930  11.246
50964W        W16191   5.709  23.019   1.886
50965W        W16192  26.431  21.543   3.232
50966W        W16193  19.256  17.076  12.562
50967W        W16194  44.778  26.904  13.510
50968W        W16195  11.159  14.977  12.901
50969W        W16196   8.901  26.684  14.253
50970W        W16197  11.604  15.587   3.514
50971W        W16198  26.177  40.759  11.706
50972W        W16199   9.973   3.690   4.455
50973W        W16200  11.683  15.257   2.749
50974W        W16201  19.691  21.648  12.110
50975W        W16202  43.938  31.918   4.333
50976W        W16203  39.932   2.175   4.061
50977W        W16204  10.817   5.691  13.810
50978W        W16205  18.011  12.676   1.928
50979W        W16206  39.899   4.418  14.994
50980W        W16207  13.363  26.183   4.685
50981W        W16208  12.806  41.493  12.908
50982W        W16209  16.585   7.473   4.184
50983W        W16210  41.524  35.542   0.268
50984W        W16211  28.841   1.778   1.822
50985W        W16212  19.771  36.894   3.882
50986W        W16213  15.965  43.392  11.954
50987W        W16214   7.359  41.382  10.675
50988W        W16215   0.815  31.222  13.854
50989W        W16216  36.403  22.021  13.447
50990W        W16217   6.489   1.946   1.130
50991W        W16218  35.855  33.665   4.925
50992W        W16219  25.262  39.020   4.494
50993W        W16220  15.600  31.327   1.255
50994W        W16221  16.597  20.679   0.838
50995W        W16222  30.475  35.608   3.351
50996W        W16223  33.154  24.222  12.041
50997W        W16224   4.924  36.346   0.999
50998W        W16225   7.508  34.054   1.594
50999W        W16226  40.289  19.139   4.962
51000W        W16227  27.908  14.686   2.613
51001W        W16228   6.913  36.827  12.526
51002W        W16229  13.677  37.596  11.945
51003W        W16230  25.683  32.473   2.763
51004W        W16231  38.398  29.166  10.651
51005W        W16232  39.952  26.467  10.893
51006W        W16233   3.074  40.006   0.364
51007W        W16234  38.794  42.580   0.751
51008W        W16235  23.183  11.651  11.522
51009W        W16236  40.805  31.929  10.621
51010W        W16237  29.923   0.768   4.082
51011W        W16238  36.106  27.203  12.591
51012W        W16239  43.079  30.146  11.136
51013W        W16240  27.407  41.930   4.071
51014W        W16241  28.660  21.273   1.934
51015W        W16242  27.090  23.109   0.910
51016W        W16243  42.644  15.086  10.363
51017W        W16244  39.406   9.089  14.060
51018W        W16245  29.932  37.112  13.345
51019W        W16246  34.282   5.297  11.703
51020W        W16247  16.713  31.119   1.228
51021W        W16248  43.899  27.508   1.868
51022W        W16249  15.024  16.713  13.548
51023W        W16250   7.211   8.469  11.535
51024W        W16251  42.586  13.135  11.625
51025W        W16252  26.610  40.432  13.525
51026W        W16253  13.275   0.684   2.212
51027W        W16254  27.577  23.196   2.262
51028W        W16255  28.033   1.735  10.122
51029W        W16256  11.622  31.492   2.391
51030W        W16257   9.182   9.742   3.401
51031W        W16258  22.139  38.784  12.507
51032W        W16259  16.776  32.869  14.820
51033W        W16260  15.823   5.998   2.746
51034W        W16261   0.687  27.453   1.841
51035W        W16262  30.962  44.418  12.829
51036W        W16263   0.309  39.924  11.537
51037W        W16264  26.674  22.009   3.253
51038W        W16265  23.437   4.343   3.001
51039W        W16266  25.043  36.123   4.128
51040W        W16267  33.592  29.480  12.999
51041W        W16268   9.688  28.319   3.536
51042W        W16269   4.470  44.780  11.137
51043W        W16270   8.298  10.560  13.946
51044W        W16271  28.397  19.413   1.640
51045W        W16272  23.060  41.450   4.303
51046W        W16273   4.311  33.833  10.675
51047W        W16274  28.797  14.311  11.263
51048W        W16275  33.948  42.300  11.716
51049W        W16276  15.778   4.753  12.134
51050W        W16277  18.718  37.796   0.830
51051W        W16278  35.194  34.099   1.208
51052W        W16279  34.036  25.491   3.926
51053W        W16280   8.364  13.334  11.570
51054W        W16281  36.814  20.859   0.027
51055W        W16282  12.747   3.199  11.822
51056W        W16283  36.797   2.691   1.609
51057W        W16284  13.142  41.342  10.602
51058W        W16285  16.604   7.799  12.542
51059W        W16286   6.723  12.527   3.245
51060W        W16287  11.277   0.717  10.366
51061W        W16288  27.503  39.696  12.797
51062W        W16289  10.185  10.837  14.237
51063W        W16290  23.626  10.333  10.702
51064W        W16291  39.245  43.328   0.979
51065W        W16292  40.053   2.043   1.262
51066W        W16293  23.634  10.602   4.105
51067W        W16294  39.131  39.904  14.256
51068W        W16295  29.872  17.666  12.526
51069W        W16296  11.750  40.929  10.985
51070W        W16297  44.528  15.607  14.429
51071W        W16298   7.761  32.654   0.430
51072W        W16299   0.470  37.028   0.268
51073W        W16300   0.014  22.160   0.817
51074W        W16301  23.105  30.332  13.125
51075W        W16302  20.541   1.001  12.999
51076W        W16303  25.717  32.033  11.663
51077W        W16304  30.515   4.876   0.302
51078W        W16305  16.845  24.019  10.741
51079W        W16306  32.704   6.252  10.495
51080W        W16307  39.278  37.297   5.018
51081W        W16308  11.183  43.999   3.161
51082W        W16309  18.005  42.034   1.792
51083W        W16310  11.957  20.572  11.731
51084W        W16311  42.579  19.751  13.583
51085W        W16312   8.323  21.834   0.767
51086W        W16313  21.538   0.855   3.128
51087W        W16314  19.122  28.165  14.465
51088W        W16315   6.375  20.690  14.961
51089W        W16316  42.759  14.735   0.773
51090W        W16317  22.178  44.258  12.069
51091W        W16318  41.531  42.355  13.518
51092W        W16319  39.458  36.432  13.586
51093W        W16320   7.124  16.593  13.433
51094W        W16321  42.453  29.040   3.397
51095W        W16322  21.416  42.744   4.172
51096W        W16323  41.088  35.045   0.043
51097W        W16324  37.040  26.527  10.657
51098W        W16325  24.618  11.652   0.855
51099W        W16326  42.357  25.135  13.442
51100W        W16327  43.384   3.337   2.381
51101W        W16328  32.613   7.443  13.881
51102W        W16329  17.575  15.066  13.585
51103W        W16330   4.741  38.937   2.834
51104W        W16331  11.669  10.009   5.154
51105W        W16332  10.862  11.741   2.815
51106W        W16333  20.876  27.993  12.047
51107W        W16334  38.908  43.030   2.840
51108W        W16335  19.302  34.370  11.498
51109W        W16336  17.304  13.245   1.368
51110W        W16337  18.630  31.081   0.754
51111W        W16338   2.637  11.861   3.770
51112W        W16339  10.525  16.477  11.599
51113W        W16340  42.362  23.642   2.313
51114W        W16341  27.710  21.996  10.706
51115W        W16342  21.263  10.761  12.569
51116W        W16343  24.294  24.431  13.656
51117W        W16344  28.046  28.426   1.809
51118W        W16345   1.774  30.534  10.728
51119W        W16346  11.021  20.323  14.752
51120W        W16347  43.781  39.089   2.178
51121W        W16348  24.086  37.313   3.238
51122W        W16349   5.161  14.266  13.423
51123W        W16350  13.855  10.281  10.535
51124W        W16351  41.308  31.911  12.673
51125W        W16352  40.818  38.635  11.121
51126W        W16353  44.329  16.758   2.345
51127W        W16354  11.782  43.282  10.825
51128W        W16355   2.416  34.276   1.860
51129W        W16356  25.742  16.337  13.383
51130W        W16357   6.843  11.886  13.904
51131W        W16358  34.734  43.023  13.521
51132W        W16359  12.343  14.187   3.611
51133W        W16360  41.731   0.861  13.804
51134W        W16361  42.251  37.082  14.450
51135W        W16362  16.664  26.763  13.357
51136W        W16363   3.170   5.888  10.682
51137W        W16364   9.437  19.271  11.134
51138W        W16365  14.743  36.685  11.986
51139W        W16366  16.632  40.726   3.573
51140W        W16367   4.196   2.333   3.754
51141W        W16368  14.579  41.439   4.271
51142W        W16369  23.139  39.945  12.384
51143W        W16370   2.827  19.592   4.548
51144W        W16371  32.018  17.955   1.086
51145W        W16372   0.417  29.232   0.924
51146W        W16373   9.285   0.831  12.493
51147W        W16374  40.329  37.543   2.543
51148W        W16375  18.314  14.673   2.225
51149W        W16376  33.704  36.164   5.055
51150W        W16377  28.130   8.300   1.227
51151W        W16378  35.373  21.477   1.378
51152W        W16379   5.625  38.340   1.919
51153W        W16380  19.599  17.649  14.963
51154W        W16381   5.769  26.031   3.152
51155W        W16382  42.811   5.931  13.001
51156W        W16383  24.052  12.864   3.815
51157W        W16384  41.313  19.974   3.630
51158W        W16385  32.930  25.473   3.135
51159W        W16386  43.269  22.543  11.146
51160W        W16387  24.890  43.912  11.087
51161W        W16388  21.068  17.923   0.992
51162W        W16389  35.132   3.549   4.260
51163W        W16390  29.982  39.899   3.383
51164W        W16391  16.817   0.012   1.383
51165W        W16392  25.601  15.544  12.916
51166W        W16393   6.272   5.348  14.493
51167W        W16394   4.290  11.802   1.545
51168W        W16395   5.523  24.035   4.974
51169W        W16396  43.913  41.456  12.986
51170W        W16397  44.935  30.803  13.615
51171W        W16398   7.731  22.683   1.489
51172W        W16399  27.398  34.971  11.722
51173W        W16400   7.021   1.332   0.449
51174W        W16401  16.171  21.715  11.695
51175W        W16402  25.612   7.139   0.649
51176W        W16403  14.435  37.373   0.084
51177W        W16404  42.815  23.286   4.477
51178W        W16405  40.284   1.048  12.518
51179W        W16406  22.091  41.855   0.499
51180W        W16407   6.698   0.373  11.152
51181W        W16408  15.662  22.636   2.284
51182W        W16409  30.132  32.767  12.925
51183W        W16410  31.998  25.923   4.858
51184W        W16411  12.412  17.931   3.779
51185W        W16412  22.553  36.108   2.410
51186W        W16413   5.907  36.141   2.774
51187W        W16414  11.587  36.951  14.942
51188W        W16415  10.300  15.484   3.643
51189W        W16416  14.273  43.741   2.331
51190W        W16417   1.213   4.971  13.506
51191W        W16418  39.110  19.403   5.101
51192W        W16419   1.272  34.660   2.986
51193W        W16420  21.221  35.386  12.875
51194W        W16421  33.397  42.638   1.538
51195W        W16422  16.093  35.668   2.594
51196W        W16423  22.667  10.151   5.086
51197W        W16424  20.984  12.901  14.258
51198W        W16425   1.345   8.207   4.638
51199W        W16426  38.932  16.180   0.480
51200W        W16427  11.020   9.560  12.479
51201W        W16428  12.385   1.208   0.435
51202W        W16429  20.757  41.825   5.315
51203W        W16430  21.765  26.432   2.393
51204W        W16431   1.322  33.525  11.125
51205W        W16432  10.081  28.857   3.276
51206W        W16433  40.074   1.309   1.815
51207W        W16434  10.064  21.530   0.876
51208W        W16435  43.436  19.384   2.701
51209W        W16436   8.320  17.351  14.927
51210W        W16437   7.408  36.402  10.482
51211W        W16438  28.595  43.943  13.345
51212W        W16439  25.453  31.227   2.210
51213W        W16440  27.047  37.391   2.666
51214W        W16441  21.818  28.241  12.936
51215W        W16442  38.988   4.909   0.117
51216W        W16443  15.160  16.759   2.281
51217W        W16444  32.269  14.893   2.320
51218W        W16445  18.141  39.296   2.755
51219W        W16446   7.790   6.446  13.071
51220W        W16447  26.063  31.633   0.514
51221W        W16448  32.142  10.847   1.266
51222W        W16449  28.106   3.645  13.349
51223W        W16450  24.042  26.450   2.370
51224W        W16451  21.747  44.805   1.099
51225W        W16452  32.177  27.553   3.130
51226W        W16453  34.351  44.994   0.341
51227W        W16454  38.059  30.998   1.794
51228W        W16455  19.209  33.894   4.073
51229W        W16456  19.070  33.694   3.432
51230W        W16457   9.777  20.096  12.598
51231W        W16458   2.038  10.688  10.623
51232W        W16459  40.543  14.403   2.253
51233W        W16460  39.069  27.614  14.704
51234W        W16461  23.498  23.644  13.946
51235W        W16462   1.771  38.457  14.047
51236W        W16463  40.860   9.179  11.010
51237W        W16464  26.560  31.424   0.399
51238W        W16465  29.104  26.884  13.813
51239W        W16466  20.798  31.845  11.478
51240W        W16467  42.770  24.960   1.809
51241W        W16468  24.179  42.884  12.243
51242W        W16469  33.484  24.829  11.550
51243W        W16470  15.138   8.766   1.747
51244W        W16471  34.392  22.043  11.398
51245W        W16472  28.273  36.031   4.937
51246W        W16473  39.605  13.088   3.433
51247W        W16474  44.753  24.934  13.303
51248W        W16475  29.134  14.559  13.160
51249W        W16476  43.247  18.588  11.914
51250W        W16477  26.200  25.185   0.818
51251W        W16478  23.797   5.769   2.814
51252W        W16479  40.219  23.209   1.224
51253W        W16480   3.921  25.242  11.952
51254W        W16481  44.788  38.087   3.463
51255W        W16482   1.752  44.227   2.181
51256W        W16483  22.108   0.371   2.768
51257W        W16484   0.890   5.774  10.697
51258W        W16485  43.730  31.599  13.458
51259W        W16486  42.747  30.316   2.372
51260W        W16487  18.664  27.872  14.392
51261W        W16488  19.244  37.822   4.062
51262W        W16489   6.792  38.208  14.400
51263W        W16490  28.196  23.921   4.452
51264W        W16491  39.020  13.691   4.686
51265W        W16492  10.723   5.897   1.458
51266W        W16493  18.087  17.745   3.044
51267W        W16494  11.157  30.584   1.772
51268W        W16495  30.367  29.378   3.539
51269W        W16496  41.548  13.109  14.012
51270W        W16497  18.227  32.106  14.300
51271W        W16498   2.349  29.542  11.184
51272W        W16499  42.835  18.493  10.818
51273W        W16500  23.933  17.773  10.544
51274W        W16501  24.775  13.404  11.564
51275W        W16502  18.272  43.732  10.661
51276W        W16503   9.951  11.235  14.477
51277W        W16504  43.281  34.434   3.559
51278W        W16505  36.508  23.068   2.755
51279W        W16506  25.649  40.414   1.430
51280W        W16507  22.195  26.026  12.078
51281W        W16508  13.847  24.123  12.461
51282W        W16509   0.311  30.200  14.934
51283W        W16510  29.705  32.301   4.095
51284W        W16511  30.611  19.112  14.505
51285W        W16512  27.161  41.111   4.570
51286W        W16513  22.560  15.197   2.716
51287W        W16514  29.586  25.906  10.332
51288W        W16515  23.553  44.874  11.543
51289W        W16516  12.218  13.702   3.432
51290W        W16517   8.256   7.341   2.466
51291W        W16518  14.256  42.225   1.323
51292W        W16519   4.915  25.491   1.302
51293W        W16520   4.750  38.098  11.209
51294W        W16521   8.208   4.162   0.353
51295W        W16522  13.244  18.516  11.497
51296W        W16523  17.511   9.775   0.924
51297W        W16524  22.487  18.124  10.655
51298W        W16525  42.670   0.741   1.199
51299W        W16526  15.674   6.600  13.652
51300W        W16527  33.646  14.305   1.864
51301W        W16528  44.888   7.477   0.912
51302W        W16529  29.002  27.526   4.996
51303W        W16530   9.362  37.942  14.032
51304W        W16531  20.968  38.019  10.442
51305W        W16532  18.881  38.551  14.690
51306W        W16533  14.678   5.283   4.488
51307W        W16534  32.395  31.948  12.040
51308W        W16535  30.692  30.074   0.253
51309W        W16536  17.196   5.804  14.828
51310W        W16537  23.158  32.920  10.629
51311W        W16538  20.948  36.390   1.917
51312W        W16539   6.263  24.590  11.392
51313W        W16540  27.739  24.508   3.067
51314W        W16541   6.254  12.428   1.745
51315W        W16542  31.419   7.419   1.645
51316W        W16543  14.227  19.176   0.947
51317W        W16544  23.044   8.941  12.878
51318W        W16545  37.796  17.841  13.980
51319W        W16546   2.594  24.698   4.394
51320W        W16547  30.497  34.415  14.848
51321W        W16548  44.468   2.490  12.393
51322W        W16549  27.180  43.402   1.930
51323W        W16550  14.577  18.027  12.395
51324W        W16551   9.375  16.425  11.856
51325W        W16552  27.163  20.438  11.232
51326W        W16553  20.196  32.660   2.642
51327W        W16554   9.808  27.080   0.666
51328W        W16555  44.277   1.366   2.597
51329W        W16556   3.252  11.812  13.421
51330W        W16557  10.688   8.360   1.887
51331W        W16558  35.090   2.947   2.937
51332W        W16559  26.071  34.590  14.227
51333W        W16560   8.104   2.841  14.757
51334W        W16561   0.931  13.104   3.371
51335W        W16562  43.389   7.143  10.490
51336W        W16563  20.047  34.844   0.306
51337W        W16564  21.707  31.386  11.546
51338W        W16565  41.858  22.894  12.585
51339W        W16566  33.136   9.145  14.452
51340W        W16567   9.537  19.522  14.983
51341W        W16568   8.167  44.388   2.602
51342W        W16569  44.257  37.554   0.320
51343W        W16570   5.743  19.699   2.430
51344W        W16571  28.604  42.607  10.777
51345W        W16572  19.167   0.260   3.990
51346W        W16573  12.405  20.474   4.108
51347W        W16574  30.077  17.911  12.028
51348W        W16575  18.588  14.608  13.530
51349W        W16576  10.139  30.419  11.112
51350W        W16577  24.283  31.602  10.535
51351W        W16578  30.190  39.835   2.918
51352W        W16579  12.852  34.096  12.517
51353W        W16580  41.303   7.563  12.985
51354W        W16581  30.456  40.436  12.352
51355W        W16582  34.465  42.100   2.451
51356W        W16583  40.397  27.854   3.753
51357W        W16584   3.485  34.133  13.560
51358W        W16585  13.806  34.084   5.032
51359W        W16586  17.217  30.598   0.854
51360W        W16587  26.976  37.095  13.575
51361W        W16588  37.132  25.545  12.203
51362W        W16589   9.553  44.588  12.887
51363W        W16590   9.914  17.770   4.096
51364W        W16591  19.036  27.618   1.372
51365W        W16592   3.823   2.734  12.784
51366W        W16593   0.961  20.129   2.290
51367W        W16594   6.284   1.828   2.575
51368W        W16595  21.182   0.472   3.162
51369W        W16596  38.145  23.922  13.964
51370W        W16597  16.166  21.669   4.525
51371W        W16598  25.914  32.601   2.312
51372W        W16599  35.515  31.720   4.236
51373W        W16600  37.462   1.790  12.918
51374W        W16601  37.690  32.986   3.541
51375W        W16602  20.051  27.933  11.147
51376W        W16603  27.666   7.397  11.484
51377W        W16604  11.816  17.550  13.919
51378W        W16605   2.494  26.741  13.375
51379W        W16606   2.236   2.324   2.191
51380W        W16607  16.729  29.525   2.324
51381W        W16608   3.563  10.756   2.645
51382W        W16609  37.026   8.193  12.015
51383W        W16610   3.877  33.958   2.130
51384W        W16611  43.101  16.644  14.916
51385W        W16612  41.173  42.480  12.968
51386W        W16613   4.729  34.950  11.377
51387W        W16614   7.157   0.307   1.589
51388W        W16615  39.610  23.577  12.919
51389W        W16616  38.127   2.304   1.064
51390W        W16617  12.499  40.035  11.327
51391W        W16618  26.982  27.431   4.332
51392W        W16619  30.975   2.872   0.867
51393W        W16620  43.234  14.366  13.555
51394W        W16621   8.265  14.063   0.450
51395W        W16622  27.535  37.869  10.732
51396W        W16623  39.202  41.454  11.612
51397W        W16624   9.065   5.983   1.223
51398W        W16625  41.437  20.828   4.215
51399W        W16626  38.692  25.327   3.119
51400W        W16627  17.376  16.123  11.592
51401W        W16628   7.194  16.336   1.989
51402W        W16629  30.904  40.721  13.557
51403W        W16630  44.824  38.603  11.684
51404W        W16631  29.933  22.303   0.288
51405W        W16632  34.729  23.426  13.956
51406W        W16633  36.095  14.080  11.616
51407W        W16634  22.164  21.959  11.225
51408W        W16635  25.588  22.166   0.782
51409W        W16636  25.478  17.078   1.848
51410W        W16637   6.954  40.074  12.891
51411W        W16638  34.054  35.467  13.071
51412W        W16639  34.426  39.628   0.292
51413W        W16640  19.054  30.174   1.453
51414W        W16641  24.014  28.979   1.216
51415W        W16642  21.961   3.573  12.045
51416W        W16643  37.826  18.680  11.733
51417W        W16644  13.009  18.179   0.022
51418W        W16645  38.991  40.500   1.909
51419W        W16646  12.870  36.595  12.925
51420W        W16647  30.411  33.106  14.402
51421W        W16648  28.215   1.769  14.426
51422W        W16649  34.363  37.972  13.429
51423W        W16650  35.392  16.036  12.275
51424W        W16651  13.345  28.901  10.888
51425W        W16652  25.070  15.617   9.644
51426W        W16653  19.382   0.809  11.254
51427W        W16654  44.482   5.933  13.377
51428W        W16655  18.953  43.898  13.152
51429W        W16656   5.931   4.229  12.660
51430W        W16657   0.000  44.395  11.394
51431W        W16658   8.658  28.406  14.131
51432W        W16659  23.487  16.437  12.031
51433W        W16660  27.938  12.833  14.631
51434W        W16661  24.115   4.886  13.840
51435W        W16662  10.297  19.154  11.172
51436W        W16663  44.857  12.636   4.254
51437W        W16664  40.891   1.284   4.042
51438W        W16665  30.849  29.145  13.620
51439W        W16666  19.612   7.373  11.447
51440W        W16667  32.000  21.186   0.365
51441W        W16668  17.115  18.636  12.087
51442W        W16669  15.616  29.128  10.687
51443W        W16670  43.806   4.620   2.390
51444W        W16671   1.168  13.152   0.702
51445W        W16672  43.965  32.452  14.952
51446W        W16673  33.891  33.161   2.555
51447W        W16674  35.412  30.659   3.272
51448W        W16675  35.297  32.609   3.975
51449W        W16676  23.490  32.498   3.063
51450W        W16677  32.188   6.686   1.844
51451W        W16678  23.013  30.558  11.399
51452W        W16679  14.671  32.577  14.523
51453W        W16680  41.067  30.404   0.966
51454W        W16681  32.018  32.132  14.702
51455W        W16682   9.569  18.283  11.297
51456W        W16683  18.449  22.736  12.068
51457W        W16684  37.578  33.157  14.058
51458W        W16685  39.611   4.637   2.324
51459W        W16686  39.225  13.559   2.676
51460W        W16687  11.589   2.025   3.256
51461W        W16688  31.955  33.845   0.774
51462W        W16689  43.411  25.524  13.896
51463W        W16690   4.691  32.675   2.792
51464W        W16691  26.644  10.766  11.162
51465W        W16692   4.860   9.243  10.321
51466W        W16693  29.446  33.897   3.677
51467W        W16694   7.324  12.568   0.834
51468W        W16695  34.109  39.824  12.499
51469W        W16696  29.091  28.058   2.686
51470W        W16697  12.552  42.170   0.497
51471W        W16698  30.495  35.833   0.273
51472W        W16699  14.740  31.676   1.146
51473W        W16700  31.309  34.082  11.567
51474W        W16701  26.319  12.391  11.194
51475W        W16702  36.904  24.441   4.189
51476W        W16703  41.783  16.599   4.689
51477W        W16704  44.999  31.080  13.093
51478W        W16705  10.249  25.131   4.579
51479W        W16706  15.377  20.545   0.275
51480W        W16707  38.169  11.246   3.754
51481W        W16708  31.508  33.672  12.498
51482W        W16709  18.547  44.347  13.958
51483W        W16710   9.690  41.907  12.553
51484W        W16711  40.656  24.214  13.456
51485W        W16712  44.056   9.355  13.517
51486W        W16713  22.921  29.059  14.917
51487W        W16714  43.008   0.875  11.301
51488W        W16715  13.766  21.554  12.820
51489W        W16716  10.144  26.058  11.280
51490W        W16717  42.991   8.868   3.743
51491W        W16718  32.229  15.070  14.727
51492W        W16719  32.681  24.453  11.344
51493W        W16720  10.958  16.746   4.050
51494W        W16721   6.706  29.511  13.849
51495W        W16722  32.180  22.522  11.487
51496W        W16723  30.086  22.082   2.675
51497W        W16724   1.173  20.073   1.831
51498W        W16725  42.326   0.265   4.160
51499W        W16726  38.035  43.070  12.895
51500W        W16727  34.508  27.103  10.823
51501W        W16728  25.435  26.176   1.764
51502W        W16729  36.612   3.696   3.594
51503W        W16730  44.200  41.570   5.090
51504W        W16731  21.567  23.178   4.607
51505W        W16732  39.639   0.068   4.110
51506W        W16733  42.771  25.326   0.311
51507W        W16734  26.976   8.282   4.222
51508W        W16735  44.771  35.046  10.732
51509W        W16736  13.761  32.051   0.220
51510W        W16737  41.552  20.068  14.472
51511W        W16738  19.218  28.387   3.617
51512W        W16739   5.448  18.156   3.323
51513W        W16740   5.268  31.051   0.340
51514W        W16741  26.698  23.657   1.459
51515W        W16742   6.643  17.511   1.380
51516W        W16743  37.464  44.563   0.514
51517W        W16744  11.268  40.663   3.204
51518W        W16745  16.392   7.790  14.015
51519W        W16746   5.224  14.372   3.675
51520W        W16747  33.375   9.310  12.108
51521W        W16748   3.763  25.654  13.134
51522W        W16749  10.702  40.782  12.393
51523W        W16750  36.595  13.847   3.230
51524W        W16751  35.032  33.886   2.427
51525W        W16752  41.294  29.426  14.327
51526W        W16753  25.390  38.321  13.799
51527W        W16754  11.385  38.328  10.729
51528W        W16755  41.510  34.863  12.902
51529W        W16756  37.127  35.709   1.275
51530W        W16757  30.610  32.124   0.915
51531W        W16758  36.019  39.908  11.240
51532W        W16759  44.007  30.140   1.997
51533W        W16760   8.154  29.584   1.150
51534W        W16761  12.289   4.680   3.186
51535W        W16762  35.195  25.691  14.112
51536W        W16763   4.110  31.873   4.243
51537W        W16764   1.733  28.317   1.351
51538W        W16765  15.283  27.233  13.922
51539W        W16766   1.285   1.707   1.217
51540W        W16767   0.809  11.761  13.080
51541W        W16768  10.203  17.930  12.548
51542W        W16769  11.104   6.724  14.046
51543W        W16770  24.059  30.605   3.670
51544W        W16771  39.229  16.189   4.686
51545W        W16772  11.489  30.630   3.720
51546W        W16773  42.174   1.655   2.154
51547W        W16774  40.035  28.228   3.659
51548W        W16775  43.489  34.858   4.668
51549W        W16776  24.088   3.373  13.469
51550W        W16777  43.337  12.525  14.987
51551W        W16778  27.903  14.290  11.533
51552W        W16779  32.648  17.680  12.189
51553W        W16780   2.031   6.110  14.384
51554W        W16781   3.096   6.624  13.052
51555W        W16782  24.201   9.877  12.994
51556W        W16783  35.038  42.049   0.066
51557W        W16784   1.875  20.255   1.299
51558W        W16785  40.558  28.666   3.945
51559W        W16786   9.842  43.581   3.820
51560W        W16787  35.093  35.056   3.830
51561W        W16788  39.880   2.838   1.771
51562W        W16789  42.077  23.464   1.890
51563W        W16790  40.017  13.874   3.193
51564W        W16791  10.604   0.698   1.110
51565W        W16792  17.709  25.665  14.474
51566W        W16793  31.952   4.970  13.911
51567W        W16794  16.139  36.331   0.237
51568W        W16795   8.915  14.796  12.887
51569W        W16796  24.855  24.002  13.038
51570W        W16797  24.613  16.516   3.687
51571W        W16798   9.621  11.106   0.851
51572W        W16799  17.657  16.559  11.494
51573W        W16800  28.487  30.018  10.632
51574W        W16801  32.962  11.536  12.412
51575W        W16802  14.731  26.239   2.642
51576W        W16803   5.664  41.762  10.650
51577W        W16804  35.380  39.065  12.346
51578W        W16805  35.070  14.591  13.999
51579W        W16806  18.261  27.541  14.371
51580W        W16807  22.966  20.287   3.253
51581W        W16808   6.745   2.535   3.555
51582W        W16809  16.827   2.795   0.413
51583W        W16810  37.806  21.021   2.650
51584W        W16811  29.656  16.065   2.731
51585W        W16812  26.183   1.510   3.591
51586W        W16813  34.859  21.716  13.279
51587W        W16814  28.998  24.367   0.310
51588W        W16815   3.726   7.220   2.868
51589W        W16816  43.725  32.076   2.191
51590W        W16817  13.726  33.956  12.884
51591W        W16818  13.755  14.704  13.593
51592W        W16819  39.356  39.607   0.478
51593W        W16820  37.576  30.040   1.923
51594W        W16821  18.630  20.833  11.154
51595W        W16822   4.093  39.407  11.107
51596W        W16823  30.403  10.572  14.929
51597W        W16824  15.394  40.665  11.184
51598W        W16825  27.430  33.130   1.776
51599W        W16826  20.299   8.934  13.896
51600W        W16827  26.261  36.494   0.867
51601W        W16828  23.535  19.961  12.047
51602W        W16829  15.508  26.769  14.441
51603W        W16830   3.650  42.015  12.915
51604W        W16831  21.916   5.633   1.318
51605W        W16832  44.422   4.355   1.661
51606W        W16833  14.087  23.442   4.172
51607W        W16834  10.902   7.948   0.681
51608W        W16835   7.260  37.036  13.329
51609W        W16836   3.514  36.070   2.810
51610W        W16837  31.930   4.177   3.805
51611W        W16838  27.108  44.331  13.825
51612W        W16839  13.642  10.365   4.105
51613W        W16840  33.937  27.930   0.738
51614W        W16841  43.661  17.777   9.912
51615W        W16842  22.589  11.276   3.337
51616W        W16843  13.188  25.611  13.377
51617W        W16844   4.249  31.868  10.761
51618W        W16845  23.407   4.894   1.773
51619W        W16846  10.319  17.890   1.187
51620W        W16847  21.327  19.153  10.723
51621W        W16848  38.104  13.233   2.933
51622W        W16849   5.712  35.589   3.692
51623W        W16850   4.150  15.316  11.389
51624W        W16851   9.191  16.822  12.156
51625W        W16852  39.458  36.111   1.324
51626W        W16853  21.806   6.152  14.300
51627W        W16854   1.538  26.158   0.473
51628W        W16855  33.412  28.452  14.938
51629W        W16856  35.602   4.387  13.239
51630W        W16857  30.044   9.360   2.474
51631W        W16858  28.986  31.011   4.540
51632W        W16859  36.918  23.455   0.707
51633W        W16860   7.130   6.401   1.221
51634W        W16861  18.832  32.969   1.099
51635W        W16862  32.629  24.969   3.903
51636W        W16863   9.588  34.452  14.988
51637W        W16864  21.086  23.979  12.395
51638W        W16865  19.198  39.827   3.590
51639W        W16866  43.498   0.978  11.424
51640W        W16867  37.767   5.851   3.375
51641W        W16868  29.903  11.732   3.850
51642W        W16869  21.044  22.790  14.352
51643W        W16870   8.126   5.495   2.827
51644W        W16871   2.451   5.277  13.979
51645W        W16872  43.431  32.002  14.944
51646W        W16873  19.202  11.831  12.035
51647W        W16874  43.277  27.642   2.564
51648W        W16875  35.016  22.965  12.111
51649W        W16876   8.291  29.667   3.369
51650W        W16877  11.974  13.762  11.668
51651W        W16878  42.069  22.443  12.676
51652W        W16879   8.110   0.967  14.406
51653W        W16880  13.318  41.777  11.825
51654W        W16881  24.148  30.856   4.149
51655W        W16882  42.255  32.287  10.371
51656W        W16883  24.496  29.078   2.078
51657W        W16884  39.893   9.378   0.647
51658W        W16885  28.090   0.353   0.415
51659W        W16886  23.259  43.905  12.006
51660W        W16887  27.568  16.044  10.584
51661W        W16888  37.648   3.344   3.041
51662W        W16889  11.952  11.956  13.833
51663W        W16890  33.540   5.240  14.345
51664W        W16891   5.163  38.112  12.017
51665W        W16892  16.595   6.834   3.317
51666W        W16893   0.239  15.309   1.729
51667W        W16894  36.919  12.340   4.575
51668W        W16895   0.807  28.642  12.555
51669W        W16896  37.940  10.870  10.668
51670W        W16897  12.877  28.820  12.169
51671W        W16898   4.675  32.322   3.218
51672W        W16899  32.873  34.026   0.966
51673W        W16900  32.794   3.012   3.198
51674W        W16901  15.161  15.260   4.645
51675W        W16902  33.620  21.705  14.475
51676W        W16903   0.759  23.242  14.769
51677W        W16904   8.417  10.477   2.276
51678W        W16905   9.259  20.244  14.802
51679W        W16906  18.586  15.511  13.782
51680W        W16907  44.790   2.572   2.261
51681W        W16908  33.641   3.861  13.132
51682W        W16909  21.715  27.721   2.987
51683W        W16910  41.383   1.226   1.259
51684W        W16911  44.974   1.981  12.990
51685W        W16912   4.677   4.351   2.099
51686W        W16913   4.155  32.330   3.211
51687W        W16914  41.906  37.344   2.565
51688W        W16915  38.020  31.119  11.607
51689W        W16916   0.957  13.669   2.541
51690W        W16917  33.898  29.656  12.214
51691W        W16918  28.607   2.086  14.281
51692W        W16919  29.031  34.264   2.461
51693W        W16920   8.641  22.522   4.507
51694W        W16921  34.076  22.266   1.829
51695W        W16922  18.619   9.926  14.729
51696W        W16923   8.847  27.064   3.594
51697W        W16924   4.703  11.222   0.427
51698W        W16925   9.788  33.889  10.619
51699W        W16926   1.205   6.680   2.765
51700W        W16927  39.105  26.197   3.052
51701W        W16928   5.052  44.339  11.430
51702W        W16929   2.818  33.624   1.781
51703W        W16930   7.885  12.763  12.424
51704W        W16931   4.917   9.312   1.461
51705W        W16932   7.553  41.349  12.010
51706W        W16933  10.142  38.995  10.713
51707W        W16934  40.764   4.874   0.032
51708W        W16935   4.977   2.027  11.503
51709W        W16936  38.809  12.633   0.951
51710W        W16937  31.494   2.903  11.462
51711W        W16938  33.913  40.304   0.753
51712W        W16939  17.065  21.656   3.810
51713W        W16940   1.618  19.998   5.348
51714W        W16941   7.305   7.886  13.380
51715W        W16942  14.619   9.578  11.178
51716W        W16943   2.832   0.491   4.460
51717W        W16944  27.604  19.971   2.315
51718W        W16945  34.580   4.455   1.887
51719W        W16946   4.722  32.835   0.277
51720W        W16947  11.114  40.680   4.094
51721W        W16948  35.081  23.073  12.648
51722W        W16949  18.135   0.347  11.197
51723W        W16950  35.042  15.790  12.561
51724W        W16951  28.608  33.510   4.641
51725W        W16952   0.429   4.378  12.852
51726W        W16953  38.059  39.836   3.394
51727W        W16954  35.808   8.863   2.630
51728W        W16955  21.411  24.756   4.567
51729W        W16956  12.751  30.036   2.832
51730W        W16957  22.150  28.224   4.502
51731W        W16958  33.897  25.571   0.004
51732W        W16959  17.895  12.875   4.536
51733W        W16960  19.218  40.446  10.603
51734W        W16961  18.624  24.589  10.652
51735W        W16962  35.329   3.603  12.233
51736W        W16963  39.279  24.499  10.378
51737W        W16964   6.118  42.605  14.186
51738W        W16965  36.881  37.210  13.300
51739W        W16966   8.398  36.338   0.260
51740W        W16967  30.967  10.290   1.951
51741W        W16968  26.667   2.659  11.629
51742W        W16969  11.856   9.582  11.441
51743W        W16970  32.804  11.707   0.417
51744W        W16971  35.879   2.274   2.560
51745W        W16972   3.450   6.886   4.460
51746W        W16973   8.989   7.294  11.183
51747W        W16974   2.285  20.594  12.765
51748W        W16975   9.463  36.560   2.376
51749W        W16976  39.080  27.095  14.848
51750W        W16977  36.011  17.350  12.462
51751W        W16978   3.894  11.119   1.730
51752W        W16979   2.780  13.483  12.008
51753W        W16980  29.762  33.052   3.406
51754W        W16981   1.087   1.441   2.782
51755W        W16982  11.465  29.950   3.342
51756W        W16983  29.106  31.349   2.771
51757W        W16984  15.700  36.491  12.403
51758W        W16985  10.828  25.922  10.560
51759W        W16986   0.889   5.445   1.501
51760W        W16987  29.517  23.245  10.807
51761W        W16988   5.934  39.312   0.174
51762W        W16989  44.368   3.376   0.305
51763W        W16990  28.088   3.956   2.232
51764W        W16991  28.501  34.948  11.738
51765W        W16992  19.939  44.875  13.452
51766W        W16993   0.414   8.206   4.742
51767W        W16994   6.765  11.106   1.332
51768W        W16995   1.494  30.182  10.513
51769W        W16996  16.286  29.977  11.985
51770W        W16997  11.413  29.905  12.545
51771W        W16998   3.288   9.212   3.301
51772W        W16999  33.624   1.944  12.380
51773W        W17000  27.920  13.400   4.875
51774W        W17001  20.084  44.098  13.830
51775W        W17002  22.697  27.970   1.717
51776W        W17003  43.090  28.090   0.408
51777W        W17004  24.082  12.940   4.340
51778W        W17005  31.476  43.379   2.051
51779W        W17006  20.090  20.416   4.149
51780W        W17007  36.636   9.457   4.988
51781W        W17008  18.115   0.698   3.417
51782W        W17009  12.029  31.330  10.209
51783W        W17010  18.777  27.658  13.473
51784W        W17011  27.380   2.378   4.101
51785W        W17012  19.798   5.661  12.152
51786W        W17013  41.371   2.487  13.044
51787W        W17014  31.967   0.296  12.421
51788W        W17015  44.926  21.005   2.651
51789W        W17016  23.028  38.801  11.529
51790W        W17017  42.301  30.533   0.961
51791W        W17018  26.160  37.201   2.265
51792W        W17019   9.157  31.041   1.847
51793W        W17020  38.801   2.172  11.476
51794W        W17021  43.509  40.968   0.343
51795W        W17022  23.299  44.778  10.196
51796W        W17023  36.524   7.395   1.352
51797W        W17024   0.522  31.198   2.211
51798W        W17025  10.166  43.024  10.435
51799W        W17026  16.549  15.225  11.256
51800W        W17027  33.700  20.724  14.373
51801W        W17028  15.233  20.327   3.744
51802W        W17029  10.136  25.511   4.905
51803W        W17030  27.204  25.373  12.508
51804W        W17031  31.499  37.536   1.809
51805W        W17032  44.473   5.261  11.871
51806W        W17033   8.636  21.713   2.115
51807W        W17034  41.920  21.143   4.134
51808W        W17035  35.345  33.522  10.969
51809W        W17036  34.052  40.080  11.283
51810W        W17037   4.373  21.312   4.546
51811W        W17038  29.366  41.071  13.983
51812W        W17039   8.152  44.200   3.670
51813W        W17040  38.571  40.515  11.720
51814W        W17041  16.227  26.543   1.773
51815W        W17042  35.523   7.788   0.754
51816W        W17043  10.615  43.716   0.448
51817W        W17044  23.804  14.149   2.632
51818W        W17045  40.716  16.750  14.311
51819W        W17046   5.517  15.225   1.368
51820W        W17047   0.773  35.938   2.647
51821W        W17048   4.684   8.608  14.086
51822W        W17049   9.202  39.328   4.095
51823W        W17050  38.359  16.740  13.956
51824W        W17051  37.467   2.230  11.949
51825W        W17052  28.227   3.784  14.275
51826W        W17053  23.090  34.952   1.586
51827W        W17054   8.962  39.392   0.889
51828W        W17055  14.810  15.748  11.092
51829W        W17056   0.877   4.257   4.107
51830W        W17057  41.640  25.717  10.667
51831W        W17058  30.830  26.098  14.339
51832W        W17059  28.250  15.717   4.479
51833W        W17060  37.098   3.839  11.357
51834W        W17061  18.640  32.809  12.011
51835W        W17062  10.402  42.720   2.687
51836W        W17063  25.194  17.070  11.622
51837W        W17064  26.441   4.889   3.740
51838W        W17065  41.825  15.832  11.709
51839W        W17066  37.499  21.672   4.301
51840W        W17067  18.538  17.572   1.647
51841W        W17068  16.019   3.477  13.365
51842W        W17069   8.491  14.290  13.952
51843W        W17070  19.288  32.488  10.735
51844W        W17071  38.239  35.346   2.846
51845W        W17072  37.975   2.543   3.763
51846W        W17073   9.549  13.304   1.327
51847W        W17074  35.466  38.856   5.157
51848W        W17075  17.346  31.838  13.200
51849W        W17076  24.670  14.185   2.905
51850W        W17077  40.166  34.584   4.160
51851W        W17078  18.059  44.037   2.558
51852W        W17079  19.409  18.342  14.921
51853W        W17080   5.055  12.567  10.222
51854W        W17081  25.707  19.075   1.202
51855W        W17082  44.579  23.415   0.209
51856W        W17083  33.614  18.146  12.907
51857W        W17084  41.971  44.376   5.172
51858W        W17085  25.059  10.412  10.642
51859W        W17086  27.049  18.403   1.438
51860W        W17087  25.477   8.352  14.540
51861W        W17088  43.652  11.829   3.164
51862W        W17089  42.782  23.278   2.707
51863W        W17090   4.002  30.002  10.674
51864W        W17091  30.994  19.046  10.902
51865W        W17092   2.582  13.581   3.398
51866W        W17093  16.144  36.439  11.674
51867W        W17094  19.203  16.160   2.636
51868W        W17095  38.510  37.740  11.496
51869W        W17096   8.785  23.406  13.451
51870W        W17097  20.088  26.001   0.448
51871W        W17098  18.118  26.210   3.832
51872W        W17099  18.211   3.861  14.967
51873W        W17100  39.520   4.007   0.253
51874W        W17101  44.944  10.338   3.855
51875W        W17102   7.694   0.392   0.840
51876W        W17103  35.378   4.718   3.880
51877W        W17104  15.037  15.334  12.494
51878W        W17105   0.822  34.033  10.847
51879W        W17106  13.382  34.513   0.923
51880W        W17107  30.001  20.618  14.936
51881W        W17108  40.881  35.737   3.298
51882W        W17109  19.334  30.583   3.232
51883W        W17110   6.242  17.705   1.127
51884W        W17111   2.368  19.741   0.845
51885W        W17112  36.268  10.243   4.026
51886W        W17113   0.047  33.109   0.958
51887W        W17114   5.946  39.873   3.345
51888W        W17115  26.606  44.350   0.938
51889W        W17116  34.326   2.743   4.163
51890W        W17117  30.214   5.545   4.129
51891W        W17118  31.863  37.664  13.903
51892W        W17119  31.138  12.113   2.772
51893W        W17120  38.262  19.724   1.356
51894W        W17121   2.692  35.094   0.443
51895W        W17122  23.014  28.423  12.555
51896W        W17123  36.240  19.662  10.651
51897W        W17124  35.778  29.951  10.690
51898W        W17125  43.238  38.373   0.351
51899W        W17126   5.815  25.971   2.114
51900W        W17127  44.447  24.129   3.615
51901W        W17128  18.451   5.244  12.541
51902W        W17129  33.082  13.342  12.354
51903W        W17130  13.206  27.852  11.992
51904W        W17131  31.634  32.024  13.906
51905W        W17132  41.007  16.351   1.850
51906W        W17133   1.483  11.214   4.686
51907W        W17134  41.487  14.073   2.801
51908W        W17135  28.181  42.114   0.009
51909W        W17136  19.065  36.094   4.107
51910W        W17137  40.277  15.718   0.941
51911W        W17138  41.073  37.806   1.866
51912W        W17139  27.978  38.077   4.586
51913W        W17140  36.365  17.428   3.200
51914W        W17141  29.601  38.373   3.092
51915W        W17142  24.061  28.673  10.749
51916W        W17143  22.157  36.833   4.150
51917W        W17144  19.094  19.773   2.999
51918W        W17145  22.273  30.909  11.979
51919W        W17146  14.301  22.902  11.064
51920W        W17147  12.932  18.628  12.994
51921W        W17148   3.144  39.981  12.419
51922W        W17149  12.889   5.169   3.860
51923W        W17150  17.987  11.872  13.268
51924W        W17151  42.029  29.396   0.548
51925W        W17152  23.458   7.785  13.243
51926W        W17153   6.944  32.832   0.896
51927W        W17154  31.155   5.487  11.519
51928W        W17155  34.519  33.932  13.394
51929W        W17156  21.666  11.685   3.502
51930W        W17157  28.141  36.826   1.739
51931W        W17158  20.156  40.466   4.513
51932W        W17159  27.884  33.574  11.702
51933W        W17160  35.278  20.902  11.546
51934W        W17161  15.414  29.998  12.580
51935W        W17162  31.116  33.727  10.885
51936W        W17163  23.975   2.943   3.710
51937W        W17164  17.852  42.489  13.287
51938W        W17165  11.251  22.823   3.501
51939W        W17166   0.705  24.196   1.769
51940W        W17167   1.237  38.896  11.180
51941W        W17168   6.254  11.299   1.367
51942W        W17169  28.603   8.632   4.856
51943W        W17170   9.817   7.283  14.820
51944W        W17171  10.763  18.947   2.734
51945W        W17172  33.533   4.311   3.253
51946W        W17173  29.569  20.474   4.590
51947W        W17174  32.508  22.770  13.129
51948W        W17175  30.003  10.380  13.352
51949W        W17176  36.845  25.126  13.454
51950W        W17177  20.661  33.778   3.973
51951W        W17178  35.026   4.882  11.615
51952W        W17179  42.571  15.726  13.466
51953W        W17180  38.390  26.188   1.334
51954W        W17181  36.391  21.118   0.828
51955W        W17182   4.253   3.216  13.544
51956W        W17183  35.952  29.098   0.272
51957W        W17184  40.550  16.304   0.430
51958W        W17185  23.657  22.244  10.893
51959W        W17186   6.354  34.042   4.311
51960W        W17187  24.203   7.869  11.148
51961W        W17188  18.820  18.730  14.485
51962W        W17189  28.196   0.688   2.854
51963W        W17190  18.709  38.672  13.110
51964W        W17191   4.684  27.251   4.536
51965W        W17192   0.717   6.683  13.609
51966W        W17193  23.565   7.533   1.839
51967W        W17194  15.726  18.567   2.212
51968W        W17195  39.944  16.221   0.774
51969W        W17196  44.920  14.465   2.854
51970W        W17197   4.981   6.681   1.760
51971W        W17198   4.320   3.399  12.600
51972W        W17199  41.554  23.229  14.845
51973W        W17200   1.331   7.378   4.125
51974W        W17201  11.323   2.797  12.927
51975W        W17202  13.138  24.132  14.490
51976W        W17203   8.318  12.188  12.568
51977W        W17204   5.963  30.089   2.291
51978W        W17205  24.106  29.676   1.456
51979W        W17206  31.727  27.122  12.509
51980W        W17207  22.983  38.672   4.030
51981W        W17208  28.789  27.778  13.935
51982W        W17209  33.931  42.244  13.392
51983W        W17210  22.242   5.232   1.309
51984W        W17211  36.129   9.759   1.437
51985W        W17212   4.684   3.456  11.604
51986W        W17213   8.374  25.138  13.312
51987W        W17214  31.099  31.387  11.456
51988W        W17215  39.645  15.171  12.062
51989W        W17216  10.717  21.521  14.096
51990W        W17217   4.556  33.484  13.735
51991W        W17218  24.667   5.423   3.631
51992W        W17219  35.903  19.531  14.276
51993W        W17220  35.760   7.311   4.020
51994W        W17221  22.529  23.379  11.650
51995W        W17222   6.613  13.563   3.333
51996W        W17223  30.352  23.729  14.401
51997W        W17224   2.931   0.400   4.954
51998W        W17225  34.589  14.825   4.909
51999W        W17226   8.185   4.014  12.283
52000W        W17227  21.938  13.117   3.307
52001W        W17228   7.777  24.788  11.192
52002W        W17229  39.367  28.470   4.705
52003W        W17230  28.216   4.943   2.801
52004W        W17231  34.872  26.138  11.246
52005W        W17232  23.785  16.291  13.353
52006W        W17233   2.915  14.531  14.370
52007W        W17234  15.754  40.429   1.737
52008W        W17235   4.859   7.648  10.497
52009W        W17236  31.669  16.137   5.024
52010W        W17237  36.802  13.078   1.956
52011W        W17238  14.536  23.667  13.631
52012W        W17239  23.917  31.045   2.446
52013W        W17240  43.477  10.472   4.037
52014W        W17241  24.599  17.029   3.782
52015W        W17242  13.340  12.295  11.323
52016W        W17243  36.702  37.904   1.317
52017W        W17244  14.352   2.655   4.520
52018W        W17245   6.040  12.930   5.089
52019W        W17246   8.902  30.401   0.348
52020W        W17247   1.034  15.090  11.174
52021W        W17248  10.496  13.715   4.514
52022W        W17249  13.974  27.456  12.692
52023W        W17250  30.972  42.411  11.939
52024W        W17251  18.005  40.974   3.655
52025W        W17252   9.291  26.209  12.544
52026W        W17253  31.146  42.969   2.069
52027W        W17254  10.209  32.550   0.189
52028W        W17255  40.974  29.179  10.748
52029W        W17256  37.964  42.467   4.166
52030W        W17257  34.744  21.814  11.077
52031W        W17258  20.808  23.422  11.622
52032W        W17259  12.148   0.887   0.049
52033W        W17260   2.994  12.739   4.993
52034W        W17261   4.020  32.275   3.728
52035W        W17262  44.102  14.826   1.221
52036W        W17263  19.047   8.155   0.909
52037W        W17264  41.853  21.524  11.108
52038W        W17265  35.653  17.780  11.571
52039W        W17266  35.355   8.742  14.953
52040W        W17267   6.190   5.644  13.063
52041W        W17268  30.512  43.749   1.316
52042W        W17269   9.867  43.198  11.900
52043W        W17270  40.469  11.291   1.768
52044W        W17271  14.049  42.496  11.024
52045W        W17272   8.861  29.520  11.669
52046W        W17273   1.298  16.325   0.572
52047W        W17274  11.065   6.368  12.852
52048W        W17275  41.949  36.994   2.147
52049W        W17276  23.644  34.816  11.144
52050W        W17277  23.148  19.811   2.157
52051W        W17278  30.509  12.795  14.308
52052W        W17279  39.550  44.635  12.117
52053W        W17280   5.110   6.921  14.620
52054W        W17281   1.329  21.074   1.324
52055W        W17282  37.986  20.477  14.743
52056W        W17283  35.408  22.199  14.451
52057W        W17284  40.072  28.834   3.916
52058W        W17285   6.627  41.387  12.128
52059W        W17286  22.983  11.249  11.788
52060W        W17287   8.676  28.995  12.343
52061W        W17288   0.590  16.279   3.271
52062W        W17289   2.624   1.698  11.929
52063W        W17290  44.387  41.755  12.898
52064W        W17291  23.708   5.302   0.152
52065W        W17292  36.557  11.413   2.410
52066W        W17293  22.649  43.234  13.404
52067W        W17294  28.406  10.187   3.106
52068W        W17295   2.214  14.616  10.777
52069W        W17296  44.746   0.218  14.922
52070W        W17297  12.520   6.588   0.302
52071W        W17298  14.210  41.373  11.462
52072W        W17299  37.799  14.585  14.423
52073W        W17300  32.870   7.780  13.585
52074W        W17301  12.296  38.306  11.540
52075W        W17302   1.616  30.051  14.774
52076W        W17303   8.017   3.109  13.422
52077W        W17304   0.402  18.037  13.815
52078W        W17305  36.651  31.616   0.307
52079W        W17306   9.433  41.344  13.035
52080W        W17307  30.666  42.909   3.935
52081W        W17308  31.371  39.315  12.604
52082W        W17309  20.481  36.554   4.451
52083W        W17310  17.145  28.612  14.015
52084W        W17311  34.661  18.312   0.811
52085W        W17312  28.100   4.319  12.692
52086W        W17313  28.570   1.016  10.960
52087W        W17314  29.883  34.113   4.101
52088W        W17315  16.701  22.675   0.213
52089W        W17316  21.993   9.274  12.005
52090W        W17317   0.204  23.426  13.467
52091W        W17318  42.303  36.036   2.916
52092W        W17319   9.089  24.233  12.649
52093W        W17320  38.410   8.325  13.493
52094W        W17321  42.524  21.534  11.647
52095W        W17322  39.518  15.234   2.268
52096W        W17323  41.834   4.045  14.383
52097W        W17324  37.131  27.059   3.417
52098W        W17325  20.882   8.254  14.816
52099W        W17326  44.633   6.387  10.708
52100W        W17327  17.402  36.875   2.231
52101W        W17328   1.507  37.406   2.978
52102W        W17329  40.856   6.670  10.227
52103W        W17330  15.127  30.387  14.365
52104W        W17331  11.665   7.145  13.475
52105W        W17332  38.399  34.342  11.091
52106W        W17333  34.645  25.651   4.749
52107W        W17334  27.955  11.813   0.909
52108W        W17335   6.592   6.889  14.506
52109W        W17336   2.438  26.100  13.120
52110W        W17337  17.692  14.854  14.055
52111W        W17338  10.236  43.818   4.679
52112W        W17339   6.368  40.522   1.187
52113W        W17340  40.159  35.015   1.989
52114W        W17341  38.844  12.330  11.197
52115W        W17342  36.961  29.323   0.422
52116W        W17343  27.990  22.478   3.115
52117W        W17344  15.817  37.333  12.949
52118W        W17345   4.758  22.007  13.981
52119W        W17346  25.830  24.037  11.215
52120W        W17347  37.924   3.194   4.504
52121W        W17348  10.368  42.138  14.825
52122W        W17349  28.934  36.614   0.030
52123W        W17350  23.989  24.407   0.180
52124W        W17351  16.261  18.006  13.309
52125W        W17352  20.317   8.613  14.318
52126W        W17353  24.199   0.222   4.435
52127W        W17354   1.475  40.955   3.642
52128W        W17355   7.597   8.404  12.420
52129W        W17356  24.261  43.590  13.728
52130W        W17357  42.044  26.665  12.548
52131W        W17358   0.778  39.262  12.385
52132W        W17359  35.064  40.947   0.907
52133W        W17360   1.189  37.407  12.294
52134W        W17361  23.285   6.441  14.462
52135W        W17362   1.775  30.155  10.071
52136W        W17363  17.938  38.049  10.766
52137W        W17364  40.894  34.166   0.526
52138W        W17365  22.022   5.785   4.248
52139W        W17366  15.098  40.409  12.622
52140W        W17367   8.098  24.311  12.899
52141W        W17368  20.008  24.593   3.898
52142W        W17369  24.780  36.019   1.846
52143W        W17370  42.384  19.802   3.081
52144W        W17371   1.003  21.164  10.600
52145W        W17372  11.076   7.869  14.414
52146W        W17373  42.774   4.449   2.227
52147W        W17374  35.358  32.848   3.506
52148W        W17375  11.178   5.198   4.170
52149W        W17376   5.354  43.970   0.827
52150W        W17377  17.515  15.571   4.620
52151W        W17378  36.504  19.740  10.183
52152W        W17379  20.622  21.001   0.249
52153W        W17380   8.997  15.668  10.254
52154W        W17381  38.089  35.808  11.810
52155W        W17382  13.528  33.533   0.964
52156W        W17383  41.355   0.484   2.203
52157W        W17384  36.774   5.302   4.128
52158W        W17385  10.718  19.713  10.622
52159W        W17386   1.521  15.933  14.277
52160W        W17387  18.092  40.395  10.788
52161W        W17388  23.767  41.800  12.993
52162W        W17389  15.311  44.126   9.961
52163W        W17390   8.496  30.593  13.985
52164W        W17391  24.526  38.857  14.811
52165W        W17392  36.843  32.100   3.556
52166W        W17393   1.911   4.005   0.920
52167W        W17394  26.353  20.875   2.752
52168W        W17395   6.193  41.643  13.877
52169W        W17396  41.514   4.354  14.688
52170W        W17397  14.362  30.182  11.140
52171W        W17398  38.067   9.278   0.388
52172W        W17399  13.548   0.459   3.731
52173W        W17400  33.485  14.352  13.683
52174W        W17401   6.559   5.198   4.382
52175W        W17402  36.458   7.177  13.405
52176W        W17403  40.170  28.724  11.462
52177W        W17404   3.431  37.423   4.760
52178W        W17405  18.048  35.887  12.093
52179W        W17406   5.723  17.132  12.089
52180W        W17407   2.431  23.007   4.854
52181W        W17408   0.276  22.230   5.474
52182W        W17409   5.655  37.023  14.966
52183W        W17410  43.051  11.439  10.807
52184W        W17411  35.762  13.747   2.191
52185W        W17412  26.743  41.969   3.291
52186W        W17413  30.873   7.460  10.507
52187W        W17414  22.258   9.799   2.608
52188W        W17415  12.803  15.857   2.309
52189W        W17416  13.039  39.556   3.176
52190W        W17417  10.506   9.307  11.809
52191W        W17418  33.079  31.586  12.444
52192W        W17419  33.298  17.390  10.059
52193W        W17420  20.230  36.250  12.987
52194W        W17421   6.427  18.160  12.520
52195W        W17422  28.088  32.120  14.389
52196W        W17423   9.875  31.123   2.758
52197W        W17424   6.512  37.814  12.563
52198W        W17425  21.560   4.675  10.740
52199W        W17426  15.771  10.774   3.797
52200W        W17427  18.534   8.720  12.942
52201W        W17428  39.342  24.043   1.720
52202W        W17429  23.388  35.533  13.563
52203W        W17430  42.599  17.290   0.365
52204W        W17431  14.089  32.410  12.139
52205W        W17432   1.335   7.296  13.244
52206W        W17433   5.167   8.201   1.855
52207W        W17434  35.777  40.051   2.666
52208W        W17435  36.338  24.904   3.748
52209W        W17436  16.147  26.321   3.735
52210W        W17437  43.943  17.903  11.700
52211W        W17438  33.111  33.435  10.674
52212W        W17439   7.878   1.224   2.902
52213W        W17440  40.501   1.462   4.299
52214W        W17441   5.167  35.963  14.501
52215W        W17442  24.387  35.325  11.574
52216W        W17443   1.698  38.022   0.800
52217W        W17444  35.487  35.203  11.980
52218W        W17445  44.777  18.522  13.903
52219W        W17446  24.013  31.108   3.724
52220W        W17447  22.852  18.227  10.995
52221W        W17448  19.098  44.304  14.165
52222W        W17449  25.270  29.459   3.802
52223W        W17450  32.301   6.881   3.782
52224W        W17451  16.581   4.774   2.059
52225W        W17452  30.902  40.208  13.486
52226W        W17453  28.172  32.268  10.676
52227W        W17454   6.652  34.367  14.273
52228W        W17455  17.178  26.241   1.568
52229W        W17456  14.233   8.234  13.396
52230W        W17457  34.840  25.451   2.793
52231W        W17458  10.853   3.718  13.842
52232W        W17459   2.789  20.996   1.749
52233W        W17460  10.537  36.421  12.388
52234W        W17461  26.226  29.515   0.914
52235W        W17462  30.500  10.613  10.487
52236W        W17463  42.806   7.863  10.567
52237W        W17464  16.961  25.309  13.276
52238W        W17465  10.192  34.991   4.134
52239W        W17466  18.945  34.898  12.467
52240W        W17467  18.607  25.672  12.608
52241W        W17468  35.034   8.658  13.029
52242W        W17469   1.283  25.039  10.571
52243W        W17470  37.214  33.500  14.213
52244W        W17471  43.373   0.812   2.855
52245W        W17472   9.361  31.566   4.453
52246W        W17473  37.993  30.101   3.696
52247W        W17474  39.244  37.397   4.164
52248W        W17475   5.823   1.848   9.910
52249W        W17476  21.302  23.168  12.927
52250W        W17477  40.908  14.232   0.773
52251W        W17478  44.794  43.588   3.635
52252W        W17479  11.896   0.425  11.375
52253W        W17480   7.155  19.691  14.979
52254W        W17481  28.419   2.569  14.290
52255W        W17482   9.328   9.516   1.202
52256W        W17483  28.144  16.041  13.468
52257W        W17484  16.758  43.530   3.191
52258W        W17485  40.447  39.529  11.102
52259W        W17486  15.125  16.923   3.672
52260W        W17487  34.646  20.569  14.209
52261W        W17488  44.022  20.483  13.916
52262W        W17489   9.469  24.391   2.884
52263W        W17490   4.159  16.214   1.305
52264W        W17491   1.766   6.214   2.343
52265W        W17492   9.532  33.478   5.111
52266W        W17493  44.194   7.140   5.102
52267W        W17494   8.298  27.171  12.132
52268W        W17495  24.058   7.903   1.128
52269W        W17496  25.639  13.734  10.709
52270W        W17497   0.021   9.322  10.744
52271W        W17498  15.093  29.042   3.916
52272W        W17499  44.037  30.623   3.593
52273W        W17500  34.522  29.166   4.510
52274W        W17501  40.241   2.516  11.528
52275W        W17502  42.661  33.658   3.353
52276W        W17503   5.173  43.029  10.360
52277W        W17504  12.737  43.994   2.265
52278W        W17505  18.785  24.098  14.858
52279W        W17506  19.337   8.320   3.453
52280W        W17507  40.893  12.020   2.358
52281W        W17508  10.489  31.249   1.642
52282W        W17509  37.533  27.146   3.122
52283W        W17510   6.914  39.826   1.440
52284W        W17511  10.859   0.235   3.350
52285W        W17512  10.784  41.344  14.898
52286W        W17513  13.912  43.986   0.693
52287W        W17514   3.314  22.823  14.311
52288W        W17515  21.790   4.344   0.079
52289W        W17516  17.087  33.595  10.070
52290W        W17517  42.041   0.034   2.838
52291W        W17518  14.040  30.158   0.520
52292W        W17519   0.925   5.234   1.950
52293W        W17520  12.285  44.662  12.697
52294W        W17521  37.481  42.725  14.426
52295W        W17522  38.849  35.451  12.595
52296W        W17523  30.784  31.892  10.212
52297W        W17524  28.572  20.179   3.307
52298W        W17525   5.721   2.141  12.153
52299W        W17526  30.197  38.302   0.318
52300W        W17527  39.238  24.704  12.489
52301W        W17528  13.611   8.307   1.437
52302W        W17529  16.831  10.178   0.369
52303W        W17530  25.587   1.223  13.481
52304W        W17531  38.299  30.523   2.429
52305W        W17532  37.584   8.286  11.337
52306W        W17533   9.360  19.573  11.537
52307W        W17534  30.542   0.018  13.376
52308W        W17535  31.692  42.971   0.248
52309W        W17536  34.047  25.912  12.019
52310W        W17537   4.109  44.237  11.297
52311W        W17538  14.634  43.689  10.347
52312W        W17539  13.580  34.042   0.950
52313W        W17540   6.448  27.603  13.849
52314W        W17541  20.310  24.869   3.553
52315W        W17542  17.538  15.136  14.455
52316W        W17543  42.416  15.873  11.245
52317W        W17544  10.342  27.487  14.473
52318W        W17545  28.935  21.026   0.155
52319W        W17546   5.166  11.308   1.299
52320W        W17547  34.251   9.385   0.253
52321W        W17548  44.954  38.544   3.262
52322W        W17549  42.859   1.343  11.104
52323W        W17550   6.739  23.966  11.000
52324W        W17551  26.436  41.541  12.424
52325W        W17552  17.803  24.552  13.842
52326W        W17553  17.102  36.905  10.705
52327W        W17554  16.123  43.978   2.635
52328W        W17555  30.648  21.158   4.233
52329W        W17556   1.973  36.987   4.181
52330W        W17557  12.419  42.847  14.800
52331W        W17558  26.026   9.594   3.092
52332W        W17559  34.988  27.037   2.662
52333W        W17560  24.465  32.367   3.881
52334W        W17561  22.427   2.323   4.580
52335W        W17562  21.281  41.220  13.395
52336W        W17563  44.344  37.110  14.926
52337W        W17564  41.819  24.321  13.797
52338W        W17565  18.529  11.824  13.995
52339W        W17566  41.759   2.709   3.803
52340W        W17567  39.387  26.546  13.056
52341W        W17568   9.928  21.210   3.797
52342W        W17569  19.541   3.984  11.138
52343W        W17570  23.558  39.025  12.331
52344W        W17571  17.683  14.133   1.730
52345W        W17572  11.856  33.434   3.231
52346W        W17573  42.615  34.911   4.952
52347W        W17574  36.932   0.229  13.465
52348W        W17575  26.312   0.897   0.035
52349W        W17576  33.140   4.481  14.433
52350W        W17577  16.251  14.646   4.502
52351W        W17578  17.219   4.912  14.843
52352W        W17579  17.181  37.402  11.602
52353W        W17580  30.083  15.252   3.705
52354W        W17581  33.531  33.170   3.345
52355W        W17582  40.605  42.565  13.918
52356W        W17583  12.173  24.652  13.731
52357W        W17584  22.641  11.949   0.193
52358W        W17585  19.164   8.093   2.948
52359W        W17586   5.155  15.392   1.731
52360W        W17587  26.415  35.538   3.694
52361W        W17588  20.797   2.888   2.220
52362W        W17589  41.701  15.539   0.508
52363W        W17590  25.268  36.147  14.083
52364W        W17591   6.102  20.286   4.674
52365W        W17592  20.946   8.930   4.570
52366W        W17593   7.383   4.294   2.244
52367W        W17594  19.157   6.301   4.726
52368W        W17595  28.360  13.279   1.864
52369W        W17596  42.318  14.120   2.278
52370W        W17597  15.085  26.244  13.924
52371W        W17598  43.457  10.809  11.478
52372W        W17599  16.528  20.013  13.510
52373W        W17600  12.020  38.938  13.037
52374W        W17601  40.488  13.955   0.540
52375W        W17602  13.756  37.928  12.317
52376W        W17603   7.620  21.998   4.382
52377W        W17604   5.479  20.403  14.582
52378W        W17605  24.263  16.251   2.807
52379W        W17606  39.360  36.101  13.964
52380W        W17607  28.924  32.323  12.621
52381W        W17608  20.126   6.195   0.698
52382W        W17609  18.290  10.830   1.474
52383W        W17610   4.312   2.542   4.822
52384W        W17611  13.128  16.515  12.518
52385W        W17612   8.940  20.763  12.512
52386W        W17613   0.652  18.475   1.585
52387W        W17614  24.801  22.282   4.188
52388W        W17615  40.538  13.288  12.677
52389W        W17616  10.390  10.439  12.024
52390W        W17617  40.323   8.978   3.692
52391W        W17618   1.859   9.805  13.970
52392W        W17619  16.648   4.533   3.030
52393W        W17620  32.634  16.594  12.844
52394W        W17621  17.773  15.449   3.352
52395W        W17622  22.521  31.774  13.820
52396W        W17623  33.612  38.993   2.830
52397W        W17624  33.962  19.675   1.956
52398W        W17625   8.970  12.132   4.621
52399W        W17626  38.429   9.480   0.760
52400W        W17627   0.857   9.831   1.488
52401W        W17628  40.890  12.067  12.581
52402W        W17629  17.731  14.679   1.017
52403W        W17630  42.756  17.624   3.191
52404W        W17631  26.648  27.941   1.784
52405W        W17632   6.788  33.374  14.601
52406W        W17633  15.702  19.151  11.021
52407W        W17634  16.178  41.240  13.122
52408W        W17635   4.369  15.831   2.828
52409W        W17636  25.634  15.255   1.760
52410W        W17637  34.513  33.249  13.855
52411W        W17638   2.176   9.293  14.424
52412W        W17639  14.178  18.458   2.427
52413W        W17640  38.445   9.446  13.355
52414W        W17641  32.474  19.510  13.886
52415W        W17642  11.814  36.027   2.588
52416W        W17643   0.754   6.690   4.798
52417W        W17644  44.745  43.877   4.521
52418W        W17645  12.434   4.199  13.182
52419W        W17646  43.539   9.728   0.461
52420W        W17647  37.824  32.663   4.860
52421W        W17648  20.567   9.836  11.970
52422W        W17649  25.672   4.381  11.129
52423W        W17650  31.872   2.181   2.275
52424W        W17651  10.401  14.829  11.578
52425W        W17652  14.043  16.056   1.061
52426W        W17653  18.520   5.440   1.647
52427W        W17654   1.925   1.934  14.330
52428W        W17655  31.960   6.779  14.810
52429W        W17656   0.377  27.100   2.684
52430W        W17657  29.819  10.822  13.089
52431W        W17658  14.646  34.043   2.392
52432W        W17659  33.853  42.417   2.363
52433W        W17660  11.184   3.830  12.050
52434W        W17661  10.248  21.376   1.358
52435W        W17662  43.622  13.291   4.543
52436W        W17663  35.570  38.109   0.340
52437W        W17664  38.956  36.174  10.932
52438W        W17665  19.213   4.219   0.878
52439W        W17666   6.342  32.319  10.649
52440W        W17667  26.914  15.312  14.008
52441W        W17668  39.327  16.845  14.763
52442W        W17669  37.123  12.335  11.608
52443W        W17670  11.213   8.117   1.893
52444W        W17671   9.103  36.683  11.999
52445W        W17672  35.351  13.122   1.656
52446W        W17673  31.627  17.165  11.479
52447W        W17674  28.412  12.774  10.701
52448W        W17675  39.411  23.102   3.213
52449W        W17676  40.755  39.936  12.483
52450W        W17677  26.549   0.972  14.268
52451W        W17678  27.573  27.524  14.081
52452W        W17679   1.355  20.558   1.816
52453W        W17680   3.388  28.755  12.860
52454W        W17681  31.409   8.127   3.208
52455W        W17682  28.129  31.199  10.159
52456W        W17683  18.735  12.677   1.361
52457W        W17684  41.537  40.042  13.014
52458W        W17685  10.789  38.633  11.165
52459W        W17686   9.365  15.714  13.505
52460W        W17687  42.237   0.391  14.942
52461W        W17688  14.388  42.987   0.007
52462W        W17689  15.793  18.374   1.703
52463W        W17690  13.804  23.207   2.258
52464W        W17691  11.062  29.101   3.791
52465W        W17692  37.806  12.170  12.991
52466W        W17693  37.048  29.872  14.282
52467W        W17694  42.083  37.410   3.675
52468W        W17695  26.982  42.407   3.476
52469W        W17696  42.667  42.029  10.680
52470W        W17697  30.469   7.129   3.373
52471W        W17698   9.180  40.693   4.772
52472W        W17699  41.145  28.400  12.377
52473W        W17700  35.871  42.075  12.494
52474W        W17701  43.867  19.720  13.447
52475W        W17702  26.112  42.376   2.719
52476W        W17703  32.016  28.592   3.665
52477W        W17704  27.412  25.742   3.740
52478W        W17705  29.995  20.742  10.672
52479W        W17706  41.063  43.828   0.861
52480W        W17707   5.237  19.532  12.865
52481W        W17708  36.757   7.534   4.102
52482W        W17709   8.427  12.115   3.076
52483W        W17710  11.896  22.324   0.822
52484W        W17711  13.670  43.531  11.486
52485W        W17712   2.870   4.962   2.174
52486W        W17713   7.170  13.540  13.871
52487W        W17714  25.005  30.930   1.223
52488W        W17715  23.643  23.085   0.557
52489W        W17716  41.282  43.190  14.463
52490W        W17717  44.005  13.134  14.442
52491W        W17718  11.855  28.814   0.713
52492W        W17719  17.897   0.834  12.457
52493W        W17720   8.306   9.699   2.860
52494W        W17721  30.001  12.958   0.224
52495W        W17722  27.389  13.186  13.373
52496W        W17723  22.466   2.146  11.487
52497W        W17724  42.855  33.221  14.800
52498W        W17725  22.687  37.428   2.377
52499W        W17726  15.592  19.688   2.946
52500W        W17727  12.879  28.763  10.563
52501W        W17728  11.896  35.085   1.217
52502W        W17729  42.257  22.547  14.428
52503W        W17730  38.906   5.231   1.787
52504W        W17731  11.800   5.875   3.631
52505W        W17732  25.586  12.426   1.327
52506W        W17733  17.198  12.178  11.938
52507W        W17734  32.665  29.161  11.157
52508W        W17735  34.032  36.065  10.725
52509W        W17736  31.916  17.258   3.735
52510W        W17737  33.152  36.589   1.238
52511W        W17738  33.387   3.940   1.685
52512W        W17739  32.688  12.564   9.913
52513W        W17740   4.148   3.939   2.930
52514W        W17741  13.788  17.695  14.235
52515W        W17742   1.528  33.467  14.586
52516W        W17743  11.284  12.731   0.405
52517W        W17744  28.985  44.232   2.415
52518W        W17745  34.355  34.078   3.956
52519W        W17746  37.940  26.465  14.767
52520W        W17747   1.526  18.492  14.400
52521W        W17748  42.391  41.963   3.637
52522W        W17749   2.547   1.767   0.438
52523W        W17750   1.657  30.872  12.201
52524W        W17751  11.153  30.020   2.365
52525W        W17752  37.655  35.156   1.897
52526W        W17753  12.339  17.831  11.188
52527W        W17754  23.132  31.521   4.656
52528W        W17755  15.160   5.759   2.611
52529W        W17756   0.753  15.400   1.766
52530W        W17757  10.257   5.436  11.659
52531W        W17758  40.743  26.685  14.533
52532W        W17759  12.421  26.050   0.729
52533W        W17760  44.957  33.910  13.799
52534W        W17761  26.921   9.156  14.931
52535W        W17762  25.657   8.383  11.520
52536W        W17763   8.246  33.422  12.551
52537W        W17764  38.446  15.838  11.354
52538W        W17765  30.734  42.117  11.580
52539W        W17766  13.094   7.676  14.384
52540W        W17767  33.416   8.725  14.592
52541W        W17768  27.594  19.610  14.274
52542W        W17769   7.173  39.568   0.725
52543W        W17770  39.646   5.166   4.012
52544W        W17771  17.729  14.579  13.620
52545W        W17772  43.992  35.934  13.958
52546W        W17773  39.341  36.369  13.072
52547W        W17774  25.164   9.642  11.433
52548W        W17775  10.707   9.702  12.945
52549W        W17776  21.918  37.862  11.670
52550W        W17777  37.822  21.559  12.463
52551W        W17778  31.175  23.202   3.858
52552W        W17779  29.030  33.511   4.332
52553W        W17780  37.829  23.090  11.564
52554W        W17781  19.113  16.087  14.005
52555W        W17782   9.644  25.643  12.934
52556W        W17783  12.308  43.862   3.466
52557W        W17784  28.994   0.901  13.935
52558W        W17785  20.709  27.780   2.959
52559W        W17786  23.017  38.351   4.442
52560W        W17787   2.699  25.535  12.216
52561W        W17788   0.969  36.565  10.759
52562W        W17789  31.511  35.873  10.360
52563W        W17790   8.745  21.112  13.811
52564W        W17791  18.026  43.140  12.836
52565W        W17792  28.996  36.453   1.887
52566W        W17793  27.663  10.169  14.330
52567W        W17794  36.857  21.847  14.368
52568W        W17795   2.033  17.307  10.722
52569W        W17796  26.034  25.041   4.130
52570W        W17797  30.849  42.892  11.181
52571W        W17798  38.909  27.079  11.976
52572W        W17799  10.125  37.043  10.470
52573W        W17800   8.542  34.006   1.801
52574W        W17801  15.443   5.462  11.119
52575W        W17802  44.576  11.674   4.192
52576W        W17803  31.446  33.833  13.571
52577W        W17804   3.404  31.561  11.995
52578W        W17805  29.585   1.466  12.821
52579W        W17806  25.665  39.083  11.032
52580W        W17807  10.249  33.312   1.782
52581W        W17808  28.603   2.896  13.518
52582W        W17809   8.927  38.444   4.464
52583W        W17810  11.646  29.064  14.265
52584W        W17811  44.733  35.866   2.960
52585W        W17812   9.918  22.632  12.446
52586W        W17813  44.971  33.151  11.138
52587W        W17814  27.710  19.520  13.458
52588W        W17815   6.322  33.176  11.473
52589W        W17816  43.500  13.860   1.371
52590W        W17817  43.543   8.243  13.344
52591W        W17818  11.612  44.516  12.913
52592W        W17819   3.372  36.342   5.044
52593W        W17820  31.836  31.298  11.091
52594W        W17821  39.020   2.958   2.243
52595W        W17822   2.152  28.663   1.347
52596W        W17823  43.000   7.717   0.238
52597W        W17824   2.170  24.074  14.802
52598W        W17825  33.568  42.996   1.211
52599W        W17826  16.186  12.012   0.818
52600W        W17827  10.118  24.388   4.121
52601W        W17828  33.140  41.711  10.736
52602W        W17829  26.494  23.532  14.332
52603W        W17830  11.376   7.343  14.850
52604W        W17831   3.848   2.486   4.580
52605W        W17832  22.619   0.376   1.953
52606W        W17833   5.248  42.476   0.795
52607W        W17834   4.716  19.698  13.846
52608W        W17835  39.763  21.774  13.376
52609W        W17836  23.142   8.082  12.457
52610W        W17837  40.945  26.463   4.601
52611W        W17838  26.622  31.253   0.883
52612W        W17839  14.134  20.645  10.655
52613W        W17840  34.820   2.840   2.420
52614W        W17841  38.649   2.776  12.463
52615W        W17842   5.388  26.500  11.950
52616W        W17843   0.498   7.850  11.958
52617W        W17844  20.136   0.614  12.778
52618W        W17845  19.371  33.000  12.521
52619W        W17846  23.993   8.013   2.222
52620W        W17847  13.589  10.469  11.534
52621W        W17848  21.354  27.868  12.122
52622W        W17849  37.560  16.106   2.733
52623W        W17850   0.605  29.161   0.206
52624W        W17851  18.222  42.654  12.916
52625W        W17852   9.880  24.717   4.981
52626W        W17853  33.632   3.915   2.145
52627W        W17854  15.197  24.512   0.328
52628W        W17855  32.281   5.874   4.607
52629W        W17856  35.340   1.504   4.610
52630W        W17857   9.428  37.351  11.116
52631W        W17858  25.384  23.791  11.190
52632W        W17859  33.593  14.300   3.700
52633W        W17860  43.529  18.217   2.773
52634W        W17861   2.969  35.980   1.574
52635W        W17862  28.112  40.472  12.906
52636W        W17863   3.692  32.532  11.821
52637W        W17864  14.857  13.675   0.916
52638W        W17865  10.706  20.970   5.035
52639W        W17866  41.056   9.282   1.998
52640W        W17867  35.408  18.451  13.288
52641W        W17868   1.793  12.126  14.472
52642W        W17869  19.221  15.398   4.386
52643W        W17870   6.136  37.861   1.271
52644W        W17871  17.173  40.830  14.891
52645W        W17872   3.728   1.990   4.749
52646W        W17873  41.855  43.375   0.911
52647W        W17874   6.160  14.816  12.182
52648W        W17875  38.866  42.861  14.378
52649W        W17876  33.962  33.144  11.487
52650W        W17877  21.251   7.077   1.369
52651W        W17878  34.308  28.842   2.702
52652W        W17879  31.504  36.787  12.156
52653W        W17880  26.145  38.775  12.271
52654W        W17881  24.652  37.785   2.574
52655W        W17882  23.601  21.632   4.083
52656W        W17883  32.458   7.368   3.165
52657W        W17884  18.613  20.554   0.391
52658W        W17885  28.048   1.254   4.609
52659W        W17886   2.383  29.807   4.084
52660W        W17887  37.578  16.066   0.862
52661W        W17888   5.680   2.973   0.395
52662W        W17889   2.397  31.192   2.691
52663W        W17890  42.414   1.451   0.740
52664W        W17891  19.951  35.429   1.800
52665W        W17892   2.383  39.522   1.446
52666W        W17893  14.848   7.977  14.979
52667W        W17894  19.766  16.834  10.702
52668W        W17895   7.410   2.467  13.874
52669W        W17896  20.656  33.625   1.904
52670W        W17897  29.535   1.771   2.244
52671W        W17898  34.357   2.446   3.712
52672W        W17899  36.832  13.603  14.791
52673W        W17900  43.466  39.034  14.420
52674W        W17901  18.795  13.697   2.366
52675W        W17902  31.645  12.190   2.680
52676W        W17903  18.306   7.705   4.192
52677W        W17904  25.092   5.979   0.460
52678W        W17905   6.927   9.209  12.106
52679W        W17906  26.628   4.373   3.722
52680W        W17907  12.745  32.446   2.165
52681W        W17908  19.171   8.391  11.990
52682W        W17909  26.015  28.076  12.018
52683W        W17910  34.666  21.683   4.570
52684W        W17911  19.816  33.255  11.934
52685W        W17912  43.299  36.845   2.858
52686W        W17913  39.091  33.024   1.658
52687W        W17914  26.637  27.206  12.813
52688W        W17915  27.594  11.890   0.222
52689W        W17916  21.672  15.200  11.181
52690W        W17917  17.700  26.024  13.665
52691W        W17918  44.291  20.681  12.452
52692W        W17919  38.459  17.281  14.365
52693W        W17920  15.086  33.025   1.263
52694W        W17921  26.442  33.975   1.888
52695W        W17922  11.955   8.668  14.767
52696W        W17923  11.650   8.658  14.341
52697W        W17924   3.267  14.803  11.946
52698W        W17925  25.222  37.409  13.221
52699W        W17926  43.523   9.301   4.021
52700W        W17927  17.548  17.761  11.103
52701W        W17928  31.606  31.613   9.982
52702W        W17929   0.101  37.800  14.449
52703W        W17930  25.533  26.311   2.629
52704W        W17931   6.406  23.659   4.138
52705W        W17932  39.230  25.822   1.268
52706W        W17933   9.369  43.786   3.113
52707W        W17934  11.410  31.111   2.788
52708W        W17935  36.110  43.355  14.812
52709W        W17936   1.935  16.383   3.164
52710W        W17937  41.436   5.861   2.517
52711W        W17938  26.643  19.714  14.459
52712W        W17939  41.827  25.120  10.709
52713W        W17940  43.212  24.119   0.277
52714W        W17941  21.451   3.062   0.906
52715W        W17942  10.696  39.893  12.871
52716W        W17943  34.526  38.030   1.828
52717W        W17944  12.111  34.815   3.144
52718W        W17945  21.986  25.441  11.204
52719W        W17946  44.489  25.745  13.857
52720W        W17947  17.777  14.264  10.887
52721W        W17948   6.263  23.694  14.675
52722W        W17949  12.893   9.637  14.434
52723W        W17950  21.981  11.942  11.577
52724W        W17951  42.948  40.305  14.080
52725W        W17952  38.626  24.234  11.094
52726W        W17953  34.326  16.884   1.672
52727W        W17954  25.059  21.116  14.051
52728W        W17955   6.953  28.103   0.640
52729W        W17956  36.540  38.338   4.591
52730W        W17957   4.738  30.895   3.341
52731W        W17958  17.815   3.912   1.616
52732W        W17959  39.499  33.115   4.146
52733W        W17960  29.119  34.121   0.901
52734W        W17961  43.997  10.230  14.387
52735W        W17962  29.611  20.301  12.498
52736W        W17963  23.781  18.268   4.043
52737W        W17964  17.855  27.440  13.525
52738W        W17965  27.271  41.611  11.395
52739W        W17966  24.200  17.033  12.885
52740W        W17967  30.153  22.281  10.746
52741W        W17968  44.055  13.328  10.527
52742W        W17969  17.781  26.606   0.813
52743W        W17970  23.031  36.369   4.333
52744W        W17971   4.853  15.093   2.652
52745W        W17972   3.852  14.216  10.810
52746W        W17973  24.915  38.519  14.912
52747W        W17974   4.777  42.754  12.052
52748W        W17975  37.477  39.066  11.150
52749W        W17976  42.059   2.737   1.863
52750W        W17977   5.420  22.338  14.182
52751W        W17978  26.128   5.753   4.691
52752W        W17979  39.318  43.206   4.743
52753W        W17980  27.139  10.700   0.001
52754W        W17981   9.520  27.523   3.234
52755W        W17982  19.563  43.054  12.910
52756W        W17983  22.236   5.812   3.773
52757W        W17984  30.933  24.617  12.106
52758W        W17985   7.780  41.010   1.191
52759W        W17986  27.171  32.975   4.038
52760W        W17987  32.320  23.005   2.322
52761W        W17988  16.010   6.570   1.880
52762W        W17989  44.830  19.542   2.626
52763W        W17990   0.265  29.591   1.292
52764W        W17991  33.889   6.919  13.423
52765W        W17992  30.410  41.767  11.802
52766W        W17993  43.247   2.570   3.322
52767W        W17994  26.243  13.083  11.992
52768W        W17995  43.511  40.593  10.754
52769W        W17996  41.873  30.813  11.742
52770W        W17997  39.313  44.516  10.674
52771W        W17998  21.102  29.991  14.893
52772W        W17999   8.668  33.430  13.652
52773W        W18000  33.251  43.608   1.821
52774W        W18001  18.179  33.464  12.626
52775W        W18002  35.179   1.201  12.046
52776W        W18003  29.624  14.370   3.513
52777W        W18004   3.227  21.038   2.769
52778W        W18005  38.697  29.407   0.296
52779W        W18006   4.313  37.385  10.537
52780W        W18007   9.793  28.966  13.788
52781W        W18008  12.789  16.329   0.704
52782W        W18009  23.678  34.821  14.009
52783W        W18010  29.886  28.466  14.927
52784W        W18011  12.162  26.434  12.601
52785W        W18012  30.588  37.285  13.575
52786W        W18013  18.548  43.432  14.051
52787W        W18014  21.588  26.142  10.405
52788W        W18015   7.329  39.307  14.230
52789W        W18016   5.458  29.996   4.721
52790W        W18017  31.548  36.975   4.021
52791W        W18018  41.639  32.775   1.944
52792W        W18019  20.778  15.654  11.950
52793W        W18020   1.641  43.975  14.361
52794W        W18021  21.698  21.482  12.522
52795W        W18022  37.906  36.977   0.687
52796W        W18023  25.635  21.304  10.430
52797W        W18024  43.363   9.140   3.157
52798W        W18025  25.560  11.771   4.864
52799W        W18026   8.151  43.392   2.738
52800W        W18027   9.461  20.696   1.956
52801W        W18028  28.615  41.756  12.002
52802W        W18029  29.877  26.086   1.051
52803W        W18030  26.980  39.273   4.071
52804W        W18031  19.741  43.787   0.256
52805W        W18032   8.676  30.791  11.958
52806W        W18033  43.454  21.170   4.113
52807W        W18034  19.807   8.820   4.343
52808W        W18035  44.829  38.170  12.929
52809W        W18036  10.231   8.486  12.386
52810W        W18037  19.098  44.975  13.306
52811W        W18038  24.009   0.074  12.017
52812W        W18039  39.161  38.919   4.671
52813W        W18040  22.129  14.041  14.978
52814W        W18041  14.816   3.015   0.836
52815W        W18042  19.712   8.927  13.351
52816W        W18043  21.352  25.664   3.676
52817W        W18044  31.102  25.447   4.426
52818W        W18045  16.824   6.283   0.774
52819W        W18046  15.538  31.846   1.201
52820W        W18047  19.385   4.368  14.474
52821W        W18048  39.932  24.795   0.903
52822W        W18049   2.178  25.066   4.533
52823W        W18050   2.557  12.815   2.890
52824W        W18051  38.681  29.156  14.019
52825W        W18052  30.948  31.597   4.279
52826W        W18053   0.907  44.829  12.241
52827W        W18054  10.594   1.947  11.119
52828W        W18055  27.236   3.984  10.623
52829W        W18056  32.249   4.864  10.654
52830W        W18057  30.775   6.733   2.858
52831W        W18058   4.250  39.446  12.835
52832W        W18059   5.120  38.966  11.879
52833W        W18060  43.501   3.320   4.389
52834W        W18061  18.572   5.816  14.281
52835W        W18062  41.928  41.704  10.336
52836W        W18063  44.744  12.748  13.469
52837W        W18064  44.408  24.736  11.457
52838W        W18065  20.762  22.372   0.834
52839W        W18066   8.058   2.540   1.884
52840W        W18067   2.405  34.072  11.295
52841W        W18068   4.282  33.661  11.151
52842W        W18069  42.920  24.451  14.955
52843W        W18070  22.460  15.247   0.884
52844W        W18071   5.326  41.487  11.675
52845W        W18072   7.689  31.325   0.345
52846W        W18073  23.111  22.199  11.765
52847W        W18074  36.589  16.843   1.468
52848W        W18075   2.437  37.019  11.155
52849W        W18076  21.264  31.875   3.688
52850W        W18077   5.358  13.013   3.457
52851W        W18078  17.273  31.590   3.337
52852W        W18079  43.234  44.429  13.740
52853W        W18080   9.850  39.888  11.217
52854W        W18081  18.136  42.274  14.776
52855W        W18082  33.980  15.353   1.751
52856W        W18083  11.398  37.037  12.267
52857W        W18084   1.702  21.205   2.926
52858W        W18085  32.181  35.039   1.187
52859W        W18086  40.794  39.291   0.321
52860W        W18087  43.054   1.332  10.624
52861W        W18088  16.699   4.791   3.864
52862W        W18089  39.577   0.385   0.851
52863W        W18090  44.883  38.271  14.328
52864W        W18091  38.816  11.616   4.164
52865W        W18092  28.357   6.848   3.707
52866W        W18093  33.141   2.051  13.656
52867W        W18094   4.875  37.139  11.043
52868W        W18095  41.366  24.627   4.071
52869W        W18096  17.233   7.691   4.127
52870W        W18097   0.628  43.470   9.962
52871W        W18098  35.511   8.326   0.882
52872W        W18099   2.310  11.363   2.272
52873W        W18100  15.701  15.758  10.959
52874W        W18101  41.783   4.497   2.133
52875W        W18102  42.063  43.393  12.115
52876W        W18103  12.012   8.245   3.357
52877W        W18104  13.115  15.119   1.615
52878W        W18105  19.666  32.392   2.205
52879W        W18106  39.605  31.144   2.704
52880W        W18107  40.365  19.245   3.296
52881W        W18108   6.271  10.363  11.748
52882W        W18109  44.399  27.648  14.851
52883W        W18110  44.526  22.439   1.929
52884W        W18111  38.563  28.696  12.622
52885W        W18112  40.279  23.305  12.412
52886W        W18113  16.215  18.574   1.351
52887W        W18114  30.753   7.681   2.148
52888W        W18115  27.037  26.759  12.442
52889W        W18116  41.635  20.989  11.950
52890W        W18117  24.374  34.531   4.830
52891W        W18118  42.239  42.283  14.380
52892W        W18119  28.001  18.844   4.169
52893W        W18120  40.824  38.782   1.717
52894W        W18121   0.981  40.847   2.263
52895W        W18122  16.007  11.815  12.005
52896W        W18123  32.535  19.167   1.077
52897W        W18124  26.462  38.557   3.170
52898W        W18125  42.766  23.802   2.606
52899W        W18126  33.877  23.928  13.200
52900W        W18127   8.192  41.186   4.178
52901W        W18128  16.545  44.945   1.817
52902W        W18129  34.524  13.266  14.840
52903W        W18130  37.252  34.006  13.486
52904W        W18131  16.741  29.874   3.503
52905W        W18132  18.204  36.298   3.329
52906W        W18133   0.691  12.344  14.247
52907W        W18134  29.725  17.999  14.355
52908W        W18135  32.408   8.914   5.062
52909W        W18136  19.019  37.363   1.670
52910W        W18137  11.615  22.123   1.223
52911W        W18138  44.741  30.416   4.000
52912W        W18139   7.666   8.635   2.174
52913W        W18140  12.234  16.825  13.724
52914W        W18141  34.664  37.814   4.766
52915W        W18142  39.371   9.908  14.462
52916W        W18143  19.518  21.540   4.504
52917W        W18144  32.972  22.281   3.610
52918W        W18145  19.715  24.722   2.724
52919W        W18146  35.094  21.934   3.194
52920W        W18147  40.491  21.399   3.187
52921W        W18148   8.432  42.762   4.171
52922W        W18149   9.924   8.656  14.979
52923W        W18150  22.480  10.670  10.750
52924W        W18151  31.674  38.860   3.671
52925W        W18152  27.337  34.122  14.519
52926W        W18153  33.359  41.395   4.692
52927W        W18154  16.765   3.161  11.210
52928W        W18155  21.102  25.202  13.752
52929W        W18156  21.076  25.568   2.571
52930W        W18157   1.378   0.703   2.384
52931W        W18158  16.197  16.298  13.969
52932W        W18159  27.859  15.130   2.939
52933W        W18160  19.361  37.805   3.575
52934W        W18161  22.860   0.303  12.095
52935W        W18162  10.197  36.454  12.828
52936W        W18163  16.088   3.996   2.516
52937W        W18164   4.029  27.454   9.693
52938W        W18165  35.020  38.484   1.441
52939W        W18166   9.567  35.539  10.349
52940W        W18167  28.908   8.196   2.344
52941W        W18168  30.220  11.100  14.382
52942W        W18169  23.726  36.005  10.475
52943W        W18170  11.983  36.315   3.634
52944W        W18171  41.777  38.205  14.999
52945W        W18172  37.430  34.328  11.630
52946W        W18173   0.466  12.296   2.736
52947W        W18174  19.219  15.685   2.390
52948W        W18175   5.739  35.704  11.547
52949W        W18176  21.541  30.443  10.932
52950W        W18177  41.007  37.040  13.797
52951W        W18178  11.103  16.466  12.634
52952W        W18179  24.308  24.016   1.319
52953W        W18180   7.983   2.952   0.262
52954W        W18181  28.444   1.401  14.741
52955W        W18182  40.908  18.076   1.583
52956W        W18183   1.282  38.251  14.974
52957W        W18184  10.481  30.192   5.120
52958W        W18185  20.809  28.491  11.989
52959W        W18186   9.748  10.164   1.858
52960W        W18187   8.460  20.669  14.413
52961W        W18188  11.244  25.004  14.737
52962W        W18189   0.700  31.651   0.510
52963W        W18190  27.594  13.830   0.406
52964W        W18191  13.564  14.551   2.839
52965W        W18192  33.095  40.797  14.222
52966W        W18193  33.887  25.104   4.622
52967W        W18194  40.396  33.121   3.742
52968W        W18195  28.381  13.698  11.549
52969W        W18196  33.512  24.763  13.472
52970W        W18197   6.747  24.609   4.976
52971W        W18198   4.196  41.496   2.008
52972W        W18199   7.217   0.224   3.569
52973W        W18200  10.721  38.802  13.943
52974W        W18201  38.580  18.257  10.789
52975W        W18202  35.709   8.830   1.014
52976W        W18203  40.775  26.493   1.738
52977W        W18204  23.499   8.839   4.938
52978W        W18205  40.223  26.471   4.972
52979W        W18206  29.423  39.015  10.566
52980W        W18207  33.941   5.730   0.233
52981W        W18208  27.669  19.196   3.681
52982W        W18209  27.506  37.586   1.429
52983W        W18210  21.756  37.162  11.076
52984W        W18211  36.326   5.895  12.420
52985W        W18212  44.756  22.930   2.720
52986W        W18213   0.909  37.948  13.976
52987W        W18214  28.165  16.192   0.797
52988W        W18215   3.273  44.555   5.033
52989W        W18216  30.379   2.413   0.215
52990W        W18217  21.521  43.358   3.224
52991W        W18218   8.320   5.245   2.315
52992W        W18219   3.032   6.279   0.906
52993W        W18220  22.549  36.030   4.978
52994W        W18221  34.512  23.145  12.973
52995W        W18222   6.384  36.604   4.881
52996W        W18223  30.947  35.942   3.293
52997W        W18224  10.629  11.779   0.293
52998W        W18225  15.260  25.152  10.682
52999W        W18226  34.344  33.954   3.393
53000W        W18227  10.110  43.093   5.159
53001W        W18228  10.306   9.171  10.462
53002W        W18229  38.464  15.042  14.443
53003W        W18230  44.056  37.083   2.283
53004W        W18231  43.988  12.699   0.901
53005W        W18232  23.509  24.141  12.482
53006W        W18233   2.084   0.326   2.822
53007W        W18234   9.339   2.976   0.892
53008W        W18235   8.353  20.357   0.893
53009W        W18236  24.044  31.393   4.152
53010W        W18237  10.741  26.077   4.519
53011W        W18238  11.092   6.857  12.661
53012W        W18239  16.212   9.134   1.707
53013W        W18240  23.043  31.061  11.552
53014W        W18241   1.464  37.982   2.266
53015W        W18242  40.323   7.897   2.969
53016W        W18243  20.861  16.872  10.852
53017W        W18244  36.364   7.260  10.697
53018W        W18245  25.979  43.328  12.840
53019W        W18246   1.999  35.923  13.924
53020W        W18247   3.720  33.035   3.148
53021W        W18248  16.703  13.584   0.939
53022W        W18249  29.695  22.023  10.787
53023W        W18250   0.646  42.007  13.299
53024W        W18251   5.855  41.271  14.001
53025W        W18252  18.602  43.444   3.816
53026W        W18253  30.061  44.835  13.116
53027W        W18254  36.584  32.391   2.587
53028W        W18255  16.472  33.153  14.470
53029W        W18256   8.469   3.350  12.715
53030W        W18257  28.229  34.427   0.794
53031W        W18258  32.431  18.769   1.425
53032W        W18259  24.595  14.829   4.902
53033W        W18260  29.885  15.981   3.209
53034W        W18261   7.458   5.393  12.332
53035W        W18262  33.899  23.006   0.802
53036W        W18263  34.073   0.654  11.238
53037W        W18264   4.770  24.331   0.033
53038W        W18265  17.125  28.968   2.431
53039W        W18266   8.776  19.240  11.572
53040W        W18267  28.483  23.266   0.191
53041W        W18268  36.428  35.421   0.262
53042W        W18269  31.111  26.187   3.178
53043W        W18270  24.560  39.584   1.415
53044W        W18271   4.772  42.236   0.721
53045W        W18272   9.871  31.670   3.677
53046W        W18273  42.863   6.809   4.150
53047W        W18274  11.579  23.859   5.240
53048W        W18275   5.220  23.692   2.306
53049W        W18276  30.005  41.271  13.806
53050W        W18277  15.265  15.216   3.683
53051W        W18278   2.753  32.825  12.118
53052W        W18279  31.210  21.881  14.501
53053W        W18280   6.411  10.445  14.756
53054W        W18281  40.906   6.185  13.950
53055W        W18282  43.034  23.106   1.022
53056W        W18283  17.132  24.697   3.863
53057W        W18284  40.302  40.744  10.594
53058W        W18285  13.920  34.475  14.745
53059W        W18286   0.928  35.328  12.682
53060W        W18287  25.060  18.595  11.891
53061W        W18288  36.077   4.784   5.047
53062W        W18289  36.064  37.777  10.695
53063W        W18290   0.999  15.336   0.386
53064W        W18291   6.086  34.892  11.128
53065W        W18292  39.127  19.672  10.996
53066W        W18293   0.165   4.200  11.992
53067W        W18294   4.699  26.712   0.819
53068W        W18295  14.020  15.169  14.761
53069W        W18296  12.420  22.347   0.723
53070W        W18297  11.164  21.513   2.578
53071W        W18298  22.219  29.191  14.240
53072W        W18299  11.730   2.326  14.407
53073W        W18300  35.408  36.776   0.988
53074W        W18301  35.323  26.554   1.326
53075W        W18302  32.142   8.191  14.327
53076W        W18303  13.875  29.944  11.161
53077W        W18304   4.287  41.653  14.870
53078W        W18305  40.246  23.452  14.757
53079W        W18306  41.944   8.847  13.759
53080W        W18307   0.196  26.982   2.171
53081W        W18308  29.953   9.374  13.538
53082W        W18309  10.174  10.883  13.739
53083W        W18310  19.195  22.266   4.576
53084W        W18311  26.880  13.287  12.819
53085W        W18312  18.337   5.682  11.721
53086W        W18313   8.506   4.321   5.249
53087W        W18314  20.468  34.381  11.495
53088W        W18315  42.817  16.026  11.972
53089W        W18316  16.227  43.746   1.262
53090W        W18317  38.576   9.120  10.950
53091W        W18318  35.314   3.561  14.396
53092W        W18319  35.015   1.343   2.225
53093W        W18320   1.771   7.768  10.901
53094W        W18321  33.696  16.011   4.041
53095W        W18322  41.840  43.212   3.253
53096W        W18323   3.542   2.776  12.337
53097W        W18324   8.107  22.493  14.991
53098W        W18325  38.100  11.156  11.049
53099W        W18326   6.929  39.630  13.996
53100W        W18327  14.134  32.419   9.943
53101W        W18328  42.861  22.840   1.446
53102W        W18329  20.423  40.935  13.033
53103W        W18330  35.399  29.882  14.316
53104W        W18331  41.398  43.413  13.956
53105W        W18332   4.437   9.580   3.614
53106W        W18333  23.944  43.027  10.770
53107W        W18334  13.479  15.204  12.302
53108W        W18335  11.780  38.022  13.295
53109W        W18336   2.940  29.119   2.760
53110W        W18337  14.069   9.193  11.829
53111W        W18338  23.224  25.917  12.612
53112W        W18339  12.253   6.751  11.208
53113W        W18340  17.027   2.685  12.935
53114W        W18341  40.044  20.285   4.202
53115W        W18342   1.978  10.211   4.694
53116W        W18343  32.611   0.512   3.905
53117W        W18344  22.532  29.253   1.427
53118W        W18345   7.362  33.556  12.973
53119W        W18346  27.729  29.545  11.005
53120W        W18347  29.885  12.877   2.587
53121W        W18348  14.070  24.676  13.429
53122W        W18349  28.438  19.146   0.735
53123W        W18350  25.433  38.774  14.068
53124W        W18351  35.782  38.235  10.172
53125W        W18352  36.019  38.293  10.630
53126W        W18353  11.245  31.853   2.367
53127W        W18354  22.045   5.489  14.231
53128W        W18355  19.776  44.563   3.164
53129W        W18356  13.652  42.843  12.440
53130W        W18357  35.472  10.970   1.413
53131W        W18358  40.335   7.860  13.155
53132W        W18359  29.470  33.451  12.584
53133W        W18360  23.642   8.957  10.792
53134W        W18361  28.651  23.671  11.994
53135W        W18362  36.923  23.493  12.119
53136W        W18363  43.345   8.742  10.074
53137W        W18364  38.963  37.578   9.720
53138W        W18365   0.750  42.844   1.373
53139W        W18366  17.131  40.512  10.607
53140W        W18367   2.922   8.113   4.743
53141W        W18368  34.910  31.081   1.376
53142W        W18369  39.550  18.301   0.983
53143W        W18370  27.613   5.469   1.010
53144W        W18371   9.365  13.282  14.460
53145W        W18372  23.030  32.136  14.977
53146W        W18373  33.956  44.862   4.926
53147W        W18374  35.911  21.752   0.308
53148W        W18375  44.546  34.444   1.267
53149W        W18376   7.939  14.096   4.532
53150W        W18377  32.116  22.424   3.630
53151W        W18378  14.269   1.161  11.134
53152W        W18379   7.856   7.826  10.728
53153W        W18380  38.037  11.333  13.273
53154W        W18381  38.434   0.686   2.899
53155W        W18382  20.902   7.968  13.992
53156W        W18383  23.420  11.873   4.524
53157W        W18384  36.719  41.201  13.484
53158W        W18385  39.058   5.020  10.310
53159W        W18386  43.618  29.611   4.590
53160W        W18387  19.778  30.152  12.490
53161W        W18388  26.548   9.742   4.170
53162W        W18389   6.345  42.750  14.807
53163W        W18390  23.508  15.848  11.076
53164W        W18391  26.529  21.171  12.139
53165W        W18392  21.663  15.285  11.664
53166W        W18393  38.519  17.785  14.471
53167W        W18394   8.105  27.548  12.434
53168W        W18395  21.654  40.692   3.226
53169W        W18396  42.020  25.675   1.429
53170W        W18397  16.290  30.956   4.312
53171W        W18398  31.873  40.450   3.261
53172W        W18399   5.818  39.382   0.678
53173W        W18400  26.574  44.997   0.891
53174W        W18401  17.877  20.183  11.965
53175W        W18402   7.235  23.168   0.685
53176W        W18403  11.249  23.503   2.735
53177W        W18404  28.454  40.392   2.872
53178W        W18405   2.364   0.500  10.959
53179W        W18406  40.290   1.880   4.499
53180W        W18407   9.398  35.479  13.498
53181W        W18408  19.732  26.161  11.149
53182W        W18409  33.124   3.787   2.078
53183W        W18410  20.685  12.940  11.970
53184W        W18411  40.072   5.474   1.871
53185W        W18412   5.891  33.678  12.156
53186W        W18413  12.795  14.380  13.804
53187W        W18414   4.649  40.248   2.404
53188W        W18415  27.729   1.378  10.374
53189W        W18416  15.784  20.254   2.242
53190W        W18417  21.537  38.321  13.848
53191W        W18418  35.336  18.264  12.054
53192W        W18419  19.760  20.607  13.733
53193W        W18420  14.069   4.209  13.448
53194W        W18421  17.155  40.460   0.683
53195W        W18422  36.051  28.397  11.510
53196W        W18423   4.013   2.232   5.110
53197W        W18424  39.521   4.105   4.992
53198W        W18425  23.108  19.814  13.394
53199W        W18426   4.988  38.443  14.044
53200W        W18427   7.120  44.275   2.833
53201W        W18428   5.202  14.295  10.704
53202W        W18429   3.921  21.123  13.306
53203W        W18430  33.023  23.968  12.470
53204W        W18431  42.385  21.758   1.953
53205W        W18432  27.767  32.592   1.075
53206W        W18433  34.107   2.555  11.572
53207W        W18434  21.652   7.493   3.315
53208W        W18435  20.821  23.423   3.925
53209W        W18436   1.100   8.202  13.969
53210W        W18437   2.532  36.739   1.146
53211W        W18438  44.717  42.468   2.313
53212W        W18439  43.473  31.001   0.965
53213W        W18440  36.976  26.830   4.755
53214W        W18441   8.069  34.458   5.504
53215W        W18442  29.959  21.938   4.133
53216W        W18443   1.179  42.367  11.085
53217W        W18444  29.912  27.270  12.159
53218W        W18445  41.550  35.837   1.018
53219W        W18446  42.767   1.983   1.376
53220W        W18447   8.663  16.244   0.286
53221W        W18448  27.941  37.151  13.779
53222W        W18449   1.899  14.103  12.070
53223W        W18450  22.395  22.588   3.174
53224W        W18451  31.102  19.613   0.825
53225W        W18452   9.139   8.799   3.360
53226W        W18453  44.895   1.938   1.438
53227W        W18454  25.940  31.483   2.373
53228W        W18455  21.845   7.966  12.158
53229W        W18456   1.165  18.711  13.562
53230W        W18457  16.888  35.423   3.221
53231W        W18458   2.124  41.286  14.301
53232W        W18459   2.516  23.526  10.133
53233W        W18460  38.944  21.163   0.884
53234W        W18461   2.887  22.589  13.086
53235W        W18462  30.564  11.309  13.575
53236W        W18463  14.338  44.447   4.224
53237W        W18464  33.580   6.423   4.866
53238W        W18465  31.671   8.953   4.083
53239W        W18466  14.925  41.473   1.714
53240W        W18467  13.258  44.395  11.554
53241W        W18468  25.290  21.012  10.726
53242W        W18469  20.663  38.857  12.090
53243W        W18470  23.759  18.606   4.455
53244W        W18471   3.103   3.770   3.820
53245W        W18472   3.229  15.339   4.128
53246W        W18473   1.022  14.607  11.525
53247W        W18474  13.358  31.855   1.539
53248W        W18475  17.773  38.381   0.465
53249W        W18476  23.633  28.520  11.987
53250W        W18477  14.161  40.862  11.511
53251W        W18478  31.046  39.986   3.246
53252W        W18479  30.640  42.766  12.976
53253W        W18480   6.276  22.613   4.100
53254W        W18481  26.327  38.469   1.870
53255W        W18482  29.049  34.815  10.690
53256W        W18483  18.795  24.651   0.143
53257W        W18484  19.657  15.875   5.138
53258W        W18485  35.427  18.507  13.786
53259W        W18486   1.984   5.077  11.172
53260W        W18487  30.968  34.574   4.660
53261W        W18488   1.268   5.458   4.587
53262W        W18489  12.469  32.273  13.626
53263W        W18490  39.724  28.218  11.553
53264W        W18491  29.562  22.404  14.420
53265W        W18492  35.363  42.499   2.148
53266W        W18493  14.358  17.861   1.513
53267W        W18494   4.803  29.041   3.020
53268W        W18495  28.030  40.370  10.154
53269W        W18496  11.886  24.124  13.010
53270W        W18497  34.261  26.439   9.818
53271W        W18498  27.522   7.946   2.709
53272W        W18499   4.183   8.849  12.463
53273W        W18500   8.647  22.485   3.121
53274W        W18501  35.882  23.627  11.117
53275W        W18502  13.699  16.541  13.770
53276W        W18503  14.804   4.549  13.482
53277W        W18504  38.777  10.227   4.446
53278W        W18505   9.717  22.966   0.248
53279W        W18506  17.374   5.363   0.060
53280W        W18507  37.680  23.742   3.224
53281W        W18508  17.682   3.754  13.205
53282W        W18509  15.569  43.300  10.685
53283W        W18510   4.459  22.377   4.671
53284W        W18511  27.623  26.532   4.128
53285W        W18512   2.694  24.421  11.943
53286W        W18513  12.125  17.319   4.561
53287W        W18514   3.759   3.865   1.042
53288W        W18515  10.485  28.200  10.237
53289W        W18516  15.072  33.407   1.854
53290W        W18517  40.814  28.056  12.203
53291W        W18518  35.395  26.782   4.843
53292W        W18519  17.706  16.495   3.259
53293W        W18520   0.403  43.071   1.735
53294W        W18521  16.216  35.397   0.825
53295W        W18522  22.779   1.536   3.021
53296W        W18523  18.206   7.476  11.112
53297W        W18524   4.253   0.975  12.454
53298W        W18525  21.529  35.322  13.324
53299W        W18526  34.836  39.671  11.531
53300W        W18527   2.829   1.287  10.502
53301W        W18528  13.676   0.526  11.126
53302W        W18529   9.206  39.571   1.676
53303W        W18530  38.275  13.611   0.727
53304W        W18531  12.328  22.044   4.316
53305W        W18532   0.732  28.724  12.052
53306W        W18533   7.110  12.018  11.152
53307W        W18534  22.588  38.142   1.769
53308W        W18535  22.163  16.566   2.198
53309W        W18536  36.813   0.330   3.191
53310W        W18537  19.612  31.567   3.915
53311W        W18538  34.999   6.163  12.013
53312W        W18539  23.016  15.999  10.923
53313W        W18540  26.066  31.285   0.123
53314W        W18541  42.003  44.669   4.746
53315W        W18542  34.585  43.834  12.129
53316W        W18543   0.787  17.713   3.494
53317W        W18544  18.379  32.600  14.282
53318W        W18545  25.695  14.167  11.001
53319W        W18546  36.334  16.223   0.775
53320W        W18547  35.540  20.496   0.973
53321W        W18548  35.370  39.254   1.863
53322W        W18549  20.814  14.859  12.383
53323W        W18550  22.995  33.125  13.555
53324W        W18551  39.013  17.779   2.109
53325W        W18552  21.532  36.848   3.690
53326W        W18553   5.271   2.196  14.477
53327W        W18554  29.587  23.319  13.319
53328W        W18555  12.378   7.005   1.079
53329W        W18556  18.123  36.571   1.234
53330W        W18557  39.055   9.861   4.651
53331W        W18558  32.907  24.262  14.745
53332W        W18559  36.521  15.303  12.131
53333W        W18560   9.213  17.069  13.898
53334W        W18561   0.455  37.651  11.955
53335W        W18562  32.338  32.173   2.872
53336W        W18563  25.491  26.626  12.522
53337W        W18564   2.424  42.812  12.407
53338W        W18565  30.705   8.970  10.996
53339W        W18566   8.495  25.657  14.365
53340W        W18567  28.789  43.869   4.701
53341W        W18568  35.919  26.431   0.580
53342W        W18569  28.046   4.824  14.814
53343W        W18570  26.533  42.081  14.410
53344W        W18571  16.068  14.951   3.590
53345W        W18572  24.732  28.017  12.460
53346W        W18573  37.574  37.404  12.570
53347W        W18574  12.684  25.580   0.889
53348W        W18575   5.006   9.435  14.366
53349W        W18576  33.310  39.455  13.801
53350W        W18577  15.577  17.151   5.446
53351W        W18578   5.243  14.651  14.407
53352W        W18579  25.141   3.174   3.801
53353W        W18580  21.906   3.460   4.203
53354W        W18581  40.440  26.753  12.611
53355W        W18582   3.833  33.981  10.402
53356W        W18583  39.097  32.572  11.400
53357W        W18584  37.927  41.098  14.010
53358W        W18585  33.571  38.421  13.408
53359W        W18586   4.522   1.826   2.902
53360W        W18587  18.626  33.481   4.585
53361W        W18588  15.589   0.718  14.881
53362W        W18589   6.777  40.924   3.123
53363W        W18590  25.011  30.438   3.447
53364W        W18591   7.914  40.844  10.961
53365W        W18592  32.978  28.142  13.778
53366W        W18593  23.520  13.767  11.197
53367W        W18594  37.085  31.688   2.781
53368W        W18595  26.247  41.807   3.334
53369W        W18596  20.468  42.468   3.247
53370W        W18597  42.868  34.057  13.389
53371W        W18598  32.543  33.652  14.538
53372W        W18599  31.103  30.057   0.584
53373W        W18600   9.217  38.921  11.139
53374W        W18601   5.429  35.609  11.984
53375W        W18602  29.402  41.364   1.608
53376W        W18603  16.049  42.142  12.124
53377W        W18604   9.786  10.188  12.642
53378W        W18605   2.876  43.478   4.543
53379W        W18606  19.814   8.112  13.051
53380W        W18607  13.078  40.093   2.312
53381W        W18608  10.707  18.311  14.336
53382W        W18609   9.976   5.371   1.740
53383W        W18610  20.026   4.142  11.212
53384W        W18611  44.890  10.371   2.361
53385W        W18612   5.590  31.078  13.540
53386W        W18613  36.134  35.901   1.399
53387W        W18614  24.053  10.383  14.750
53388W        W18615  30.416   3.312  11.147
53389W        W18616  15.437  44.012   0.830
53390W        W18617   1.518  37.504   3.479
53391W        W18618  24.267  10.864  14.659
53392W        W18619   5.378  44.347  12.191
53393W        W18620  35.134  34.606   4.130
53394W        W18621  19.972  11.885  14.042
53395W        W18622  20.750  23.069   1.426
53396W        W18623  32.387   9.807   3.320
53397W        W18624  31.001   5.717   3.683
53398W        W18625  34.796  10.619   0.333
53399W        W18626  27.182  37.086   3.936
53400W        W18627  31.992  21.590  12.809
53401W        W18628  25.142  41.585   2.276
53402W        W18629  14.802   1.848  12.876
53403W        W18630  34.069   5.828   4.560
53404W        W18631  14.914   6.988  12.511
53405W        W18632  26.443  32.899   0.857
53406W        W18633  25.690  44.336   1.409
53407W        W18634  30.051  40.460  10.632
53408W        W18635  10.220  14.670  14.895
53409W        W18636  28.278  33.925  14.534
53410W        W18637  11.607   9.630   2.706
53411W        W18638   9.925   0.022  12.999
53412W        W18639  30.391  11.303   1.707
53413W        W18640  13.472  42.745   2.801
53414W        W18641   7.110  37.944   1.427
53415W        W18642  42.781  19.263   2.132
53416W        W18643   3.115  33.166  11.936
53417W        W18644  42.798  23.234  11.642
53418W        W18645   3.820  29.202   3.176
53419W        W18646  28.308  42.848   3.973
53420W        W18647  33.361   7.871   3.703
53421W        W18648   9.303   2.496  12.190
53422W        W18649  16.138  34.447  14.928
53423W        W18650   5.064  10.393  11.077
53424W        W18651   8.874  36.904   3.697
53425W        W18652  13.055  38.416  12.478
53426W        W18653  41.015  10.086  14.483
53427W        W18654  33.470  14.201  13.173
53428W        W18655  44.105   3.315  10.678
53429W        W18656   9.185   5.553   0.983
53430W        W18657  36.647   2.421   0.848
53431W        W18658  33.669  29.059   4.664
53432W        W18659  40.303   3.136   0.048
53433W        W18660   0.654  11.710  11.658
53434W        W18661   3.908  39.518   4.025
53435W        W18662  42.806  32.521   0.830
53436W        W18663   2.734   6.309   1.457
53437W        W18664  42.490   1.842   3.267
53438W        W18665  37.004  26.527  13.244
53439W        W18666  41.954  21.744  14.830
53440W        W18667   0.045  18.223   1.378
53441W        W18668  34.188  24.127  12.410
53442W        W18669  33.107  32.983  11.110
53443W        W18670  27.960  21.740  14.747
53444W        W18671  37.718  24.661   4.539
53445W        W18672  38.003  24.595  10.717
53446W        W18673  28.766  25.146   0.247
53447W        W18674   0.305  25.201   0.251
53448W        W18675  20.559  41.374   3.239
53449W        W18676  27.107   9.162   0.940
53450W        W18677   8.338   5.230   3.261
53451W        W18678  44.909  44.961   0.357
53452W        W18679  42.467  39.248   2.887
53453W        W18680  24.598   6.191  14.052
53454W        W18681  32.348  20.421  13.773
53455W        W18682  33.622   9.486  11.683
53456W        W18683  23.294  24.146   1.426
53457W        W18684  22.968  24.581  13.850
53458W        W18685  42.680   0.740  14.441
53459W        W18686  33.054   1.871   4.586
53460W        W18687   4.021  36.471  12.012
53461W        W18688  38.441  12.598   1.769
53462W        W18689  31.847   0.823   2.907
53463W        W18690  38.308  14.972   3.590
53464W        W18691   4.223  26.949   0.697
53465W        W18692  28.363  41.883   4.010
53466W        W18693  18.807  14.502  11.705
53467W        W18694   4.460  39.120   1.618
53468W        W18695  43.639   7.395  11.778
53469W        W18696  29.877  42.303  14.460
53470W        W18697  22.272  36.346  12.515
53471W        W18698  36.520  34.688  12.510
53472W        W18699   8.738   5.182  12.076
53473W        W18700  17.444  35.634   1.710
53474W        W18701   8.782  22.011  14.516
53475W        W18702  41.749  41.945  14.779
53476W        W18703  27.571  23.661  14.416
53477W        W18704  13.221  18.353   2.714
53478W        W18705   8.629  21.940  14.027
53479W        W18706   6.361  41.471  12.582
53480W        W18707  27.274  31.475  12.635
53481W        W18708   4.804  33.902  11.890
53482W        W18709  44.535   8.659  12.045
53483W        W18710  24.498  40.312   0.362
53484W        W18711  31.132  13.808   3.746
53485W        W18712  20.206  39.328  14.096
53486W        W18713  12.848  43.938  11.354
53487W        W18714  39.815  22.625   1.285
53488W        W18715  10.134  35.134   0.390
53489W        W18716  10.171  21.346  12.793
53490W        W18717   6.609  16.692  13.332
53491W        W18718   8.607  27.112  14.339
53492W        W18719  34.906  41.264  13.838
53493W        W18720   7.384  36.564   0.079
53494W        W18721  17.823  17.182  13.535
53495W        W18722   0.039  25.975  14.333
53496W        W18723   4.378  42.594  14.813
53497W        W18724  21.101  29.015   3.809
53498W        W18725  26.662  16.289  13.123
53499W        W18726   2.062  21.181  14.813
53500W        W18727   8.748  34.347   1.286
53501W        W18728  32.602   0.048  12.983
53502W        W18729  42.087  42.341  12.804
53503W        W18730  15.644   3.470  14.155
53504W        W18731  43.861   5.306   0.811
53505W        W18732   8.950  24.369  14.846
53506W        W18733  24.989  22.200  13.293
53507W        W18734   9.531  10.110   4.396
53508W        W18735  41.773  19.146  14.402
53509W        W18736  17.620  37.141  13.012
53510W        W18737  21.061   9.641  12.872
53511W        W18738  19.483   8.090  14.938
53512W        W18739   9.301  24.138   3.312
53513W        W18740  12.792  13.101  10.520
53514W        W18741  29.872  11.242   3.712
53515W        W18742  38.110  21.228  10.136
53516W        W18743  31.900   6.625  12.481
53517W        W18744  18.144  20.307   4.653
53518W        W18745   7.498  26.013  13.476
53519W        W18746  39.513   2.082  13.460
53520W        W18747  43.783  41.513   3.099
53521W        W18748  20.673  42.741   0.301
53522W        W18749   3.311  39.531   2.773
53523W        W18750   3.977  24.637   2.450
53524W        W18751  37.853  17.851   1.787
53525W        W18752  27.895  23.279   0.934
53526W        W18753  15.403  11.179  14.952
53527W        W18754   9.389   6.664   0.224
53528W        W18755   9.808  42.018   4.973
53529W        W18756   2.976  12.364  13.697
53530W        W18757  21.294  12.639   0.927
53531W        W18758  39.723  17.700   3.883
53532W        W18759  33.596  42.611  10.689
53533W        W18760   2.197  12.608  11.141
53534W        W18761  12.905  27.150  14.041
53535W        W18762  22.408  20.208  10.634
53536W        W18763  28.105  25.919  14.867
53537W        W18764   0.222  16.313  14.419
53538W        W18765   5.394  21.692   2.638
53539W        W18766   5.898  16.501  12.495
53540W        W18767  16.290  17.937  11.138
53541W        W18768   5.299  36.630   2.355
53542W        W18769  24.304   9.796  13.872
53543W        W18770  26.204  34.609  13.034
53544W        W18771  44.388  33.789  12.054
53545W        W18772  42.468  42.333   4.574
53546W        W18773  25.979  22.132   4.095
53547W        W18774  19.176  41.804  13.855
53548W        W18775  33.531  10.829  14.710
53549W        W18776   2.892   9.606  11.617
53550W        W18777  12.820   1.525  11.193
53551W        W18778  29.117   0.991  11.471
53552W        W18779  23.407  20.324   2.894
53553W        W18780   0.914  36.464   0.537
53554W        W18781   4.962   7.731  12.844
53555W        W18782  19.154  31.533  13.874
53556W        W18783  16.244   7.611  14.951
53557W        W18784  21.171  24.282  13.909
53558W        W18785  29.549   5.383  13.012
53559W        W18786   5.099  20.194   1.575
53560W        W18787  11.393  44.825  12.430
53561W        W18788  23.893   9.608   3.880
53562W        W18789  16.676   5.273   1.930
53563W        W18790  37.515  16.817   1.437
53564W        W18791  21.989  32.713  11.905
53565W        W18792  30.911  20.649  10.947
53566W        W18793  30.681  21.473  13.993
53567W        W18794   4.985  18.041   4.226
53568W        W18795  29.094   4.425   0.143
53569W        W18796  23.239  29.387   4.916
53570W        W18797  20.584  38.790  13.473
53571W        W18798  17.093   0.677   4.824
53572W        W18799  20.347   2.186  14.208
53573W        W18800  24.761   4.196   2.446
53574W        W18801  28.186  35.607  13.930
53575W        W18802   8.278   1.553   1.806
53576W        W18803  37.387  31.117   4.298
53577W        W18804   2.411  20.629   1.856
53578W        W18805  30.611  20.192   4.056
53579W        W18806  23.678  11.167  13.434
53580W        W18807   4.664  31.061  10.688
53581W        W18808  25.484  31.809   4.505
53582W        W18809   3.021  29.998   2.645
53583W        W18810  18.755  23.315  11.957
53584W        W18811  10.881  33.898  10.127
53585W        W18812  12.788  30.056  10.703
53586W        W18813  39.077   1.997  13.820
53587W        W18814  13.776  40.086   0.480
53588W        W18815  11.619  39.258   5.241
53589W        W18816  22.553  17.176  14.993
53590W        W18817  41.327   9.912  12.820
53591W        W18818  35.585  25.268  13.419
53592W        W18819  12.727  29.295   4.127
53593W        W18820  16.824  19.481   0.289
53594W        W18821  34.162   4.443  12.565
53595W        W18822  30.605  13.624   2.413
53596W        W18823  18.472  19.103  13.316
53597W        W18824  13.618  44.051  11.393
53598W        W18825  43.263   3.735   1.762
53599W        W18826   9.166   3.092   2.725
53600W        W18827  16.144  42.072  10.760
53601W        W18828  24.549  28.580  10.610
53602W        W18829   9.172   0.536   3.830
53603W        W18830  15.799   4.288   4.765
53604W        W18831  14.696  29.358  11.257
53605W        W18832  37.373  39.931  11.269
53606W        W18833  23.187  26.519   1.219
53607W        W18834  19.045  14.108  14.774
53608W        W18835   5.172  32.702   2.535
53609W        W18836  10.345  15.996  11.713
53610W        W18837  43.801  26.531   1.646
53611W        W18838  26.163  10.733  14.293
53612W        W18839  41.483  30.411   1.704
53613W        W18840   1.832  36.959   2.128
53614W        W18841  39.353  38.054  11.344
53615W        W18842  29.502  29.355  11.444
53616W        W18843  18.590  16.744  10.493
53617W        W18844  38.591  22.443  12.988
53618W        W18845  15.001   9.760  11.478
53619W        W18846  43.720  37.040  11.171
53620W        W18847  36.453   9.654  11.848
53621W        W18848  43.583  30.786  12.431
53622W        W18849  10.556  16.107   2.332
53623W        W18850  27.786  30.684   0.033
53624W        W18851  22.653   5.222   4.929
53625W        W18852   3.048   0.394   2.783
53626W        W18853   3.161   3.326  10.494
53627W        W18854  33.642  14.268   0.449
53628W        W18855   0.349  40.115   0.170
53629W        W18856   5.499  44.948   4.147
53630W        W18857   5.588  27.125   0.830
53631W        W18858  32.425  16.779   4.019
53632W        W18859  17.326   4.447   2.227
53633W        W18860  23.697  10.556   1.896
53634W        W18861  37.033  28.473   3.740
53635W        W18862  14.094  26.927   4.317
53636W        W18863  24.164  10.088  14.273
53637W        W18864  27.965  30.127   0.810
53638W        W18865  41.272  42.130   1.393
53639W        W18866  21.157   7.096   3.179
53640W        W18867  34.417  44.452   0.664
53641W        W18868   0.177  11.704  14.009
53642W        W18869  39.323  24.656  14.133
53643W        W18870   2.979  15.734   1.450
53644W        W18871  29.445  19.831   4.983
53645W        W18872  43.963  43.438   4.151
53646W        W18873  40.003  39.826   1.322
53647W        W18874  30.197   8.838   2.355
53648W        W18875  22.261  43.161  12.542
53649W        W18876  28.647  29.891  12.646
53650W        W18877  18.209  12.063   2.494
53651W        W18878  38.542  34.401  11.610
53652W        W18879  14.321  33.163  13.497
53653W        W18880  15.081  29.092  11.606
53654W        W18881  25.211  42.410   1.216
53655W        W18882   7.147   5.640  13.149
53656W        W18883   0.237   5.264   2.585
53657W        W18884  25.835  31.382   3.740
53658W        W18885  10.693  13.152   3.722
53659W        W18886  13.967   6.826  12.230
53660W        W18887  35.428  10.012  12.801
53661W        W18888  18.731  24.053  13.803
53662W        W18889  43.267   4.017  13.638
53663W        W18890  31.498  23.147   1.774
53664W        W18891  22.068   1.430   0.798
53665W        W18892   7.295  34.398  11.919
53666W        W18893  34.829  41.377  13.040
53667W        W18894  31.913  32.854  10.763
53668W        W18895  42.771  39.806  14.433
53669W        W18896  14.329   4.747   0.780
53670W        W18897  25.132   9.436  10.202
53671W        W18898  26.422  15.856   3.163
53672W        W18899  31.413  29.371  10.696
53673W        W18900   5.170  33.916  12.612
53674W        W18901  20.085  17.377  14.867
53675W        W18902  10.275  23.183   3.378
53676W        W18903   5.344  40.412  12.542
53677W        W18904   9.405  32.833   0.203
53678W        W18905  23.952  29.577   1.920
53679W        W18906  31.882  14.282  12.493
53680W        W18907  32.875  35.795   4.656
53681W        W18908  39.685  28.435  14.367
53682W        W18909  42.772   0.004   4.118
53683W        W18910   7.257   9.348   4.569
53684W        W18911  14.100  22.394   0.676
53685W        W18912  21.461  40.485  11.032
53686W        W18913  20.711  32.447   4.122
53687W        W18914  15.362  39.870  10.922
53688W        W18915  13.084  40.609  12.898
53689W        W18916  40.375  40.147   1.490
53690W        W18917   4.880   8.138  13.992
53691W        W18918  27.162  13.268   2.975
53692W        W18919  18.169   0.330   2.111
53693W        W18920  23.766  17.582   2.035
53694W        W18921  19.349   8.724  12.401
53695W        W18922  29.421   4.471  10.365
53696W        W18923   9.227  34.682  12.985
53697W        W18924  12.087  20.777  14.452
53698W        W18925  15.163   6.898  14.472
53699W        W18926   5.259  28.683  13.350
53700W        W18927  42.969  44.971  14.255
53701W        W18928  41.552  11.582  12.959
53702W        W18929  12.369  13.621  13.490
53703W        W18930   0.390  33.643   2.527
53704W        W18931  41.431  10.641  14.855
53705W        W18932   3.642  14.380   3.271
53706W        W18933  18.219  14.610   0.865
53707W        W18934  10.249  22.480  14.813
53708W        W18935   5.574  43.455  14.037
53709W        W18936   4.856   3.954  13.330
53710W        W18937  35.666  15.695   0.411
53711W        W18938  32.572  17.559   5.537
53712W        W18939  21.601  34.535  12.117
53713W        W18940  42.034   2.263  10.656
53714W        W18941  12.142   8.354   1.454
53715W        W18942   6.360   7.355  12.558
53716W        W18943   8.724   8.097   1.300
53717W        W18944  15.280   3.641   1.913
53718W        W18945  33.216  11.875   1.796
53719W        W18946  21.208   9.096  13.384
53720W        W18947  10.677  33.575   1.890
53721W        W18948  30.039  31.220   0.102
53722W        W18949  13.856  31.406  11.101
53723W        W18950  30.155  21.263   4.984
53724W        W18951  20.669  11.650   4.745
53725W        W18952  34.986  36.111   3.654
53726W        W18953  40.613  29.450  14.740
53727W        W18954  29.427  22.201  11.540
53728W        W18955  33.451   5.172   2.710
53729W        W18956  23.713  17.235  12.600
53730W        W18957  32.707  29.752   0.837
53731W        W18958  24.734  27.410   1.336
53732W        W18959   0.242  36.489  11.698
53733W        W18960  40.629  30.173   1.459
53734W        W18961  21.034   2.335  13.638
53735W        W18962  40.610  37.814  14.270
53736W        W18963  20.286  43.735  11.541
53737W        W18964  40.156   0.791   1.686
53738W        W18965  22.371  19.372  14.486
53739W        W18966   3.208  16.724   0.234
53740W        W18967  20.674  35.417  10.775
53741W        W18968   4.313  10.113   1.294
53742W        W18969  42.837  11.862   0.294
53743W        W18970  23.957  37.493   4.107
53744W        W18971  12.173  28.627  11.084
53745W        W18972  39.089   1.772   0.199
53746W        W18973  12.672  36.004   4.050
53747W        W18974  42.824  30.076  10.229
53748W        W18975  28.506  28.529  12.827
53749W        W18976  18.506  19.612  11.743
53750W        W18977  35.727  19.769  13.272
53751W        W18978   5.867  26.441   2.338
53752W        W18979  22.985  28.654  13.473
53753W        W18980   7.777  36.716  10.713
53754W        W18981  35.387  30.015   4.821
53755W        W18982  22.462  38.510  14.970
53756W        W18983  19.535   4.369   2.638
53757W        W18984  21.627   3.908  14.845
53758W        W18985  34.380  16.229  12.799
53759W        W18986   6.853  33.723   2.228
53760W        W18987  42.917   3.188  11.504
53761W        W18988   1.972  41.293  10.311
53762W        W18989  25.014  29.212  12.935
53763W        W18990  12.103  31.397   4.109
53764W        W18991   5.246  18.608   0.894
53765W        W18992   2.792  44.271   0.442
53766W        W18993  35.015  16.023   2.407
53767W        W18994  25.151  41.550   4.725
53768W        W18995  28.110  32.468   4.485
53769W        W18996   6.419  25.687  10.778
53770W        W18997   2.843   5.668  12.869
53771W        W18998  26.000   6.272   1.391
53772W        W18999  39.255  11.636  13.425
53773W        W19000  35.874  40.098   1.635
53774W        W19001  24.073  32.051  10.727
53775W        W19002  43.465   1.847   2.024
53776W        W19003  16.722  36.460   0.908
53777W        W19004  22.203   0.176  14.291
53778W        W19005  42.496  38.920   1.631
53779W        W19006  14.017  38.287  10.767
53780W        W19007  17.159  35.798   4.173
53781W        W19008  12.913   5.218   4.394
53782W        W19009  44.688  34.998  11.646
53783W        W19010   7.481  35.518  12.453
53784W        W19011  41.919   4.726  10.703
53785W        W19012  14.726  42.442   2.881
53786W        W19013   0.363  14.167  14.122
53787W        W19014  28.587   3.259  12.328
53788W        W19015  40.345  36.572   1.774
53789W        W19016   7.892  19.210   4.916
53790W        W19017  39.350  31.408  14.517
53791W        W19018  23.783  17.213  13.122
53792W        W19019  22.153  35.668  13.557
53793W        W19020  41.554  37.446   3.740
53794W        W19021  27.601  32.106   2.967
53795W        W19022  21.372  22.505   3.954
53796W        W19023   4.696  14.330   4.899
53797W        W19024  35.478   4.890  11.379
53798W        W19025  33.325   5.736  14.472
53799W        W19026  21.422  28.370  11.858
53800W        W19027   6.414  11.976  13.127
53801W        W19028  43.344  10.306  11.400
53802W        W19029  22.977  42.204   5.051
53803W        W19030  40.275   9.125   1.859
53804W        W19031  11.729  14.835  10.572
53805W        W19032  30.392   4.381  11.267
53806W        W19033  32.463  38.557  13.030
53807W        W19034  42.928  33.363   2.132
53808W        W19035  30.527   7.576   3.101
53809W        W19036   0.433   8.474  14.770
53810W        W19037  33.030  24.911   4.594
53811W        W19038  24.431   3.002   2.323
53812W        W19039   5.903  17.835   4.203
53813W        W19040  11.557  10.329   4.258
53814W        W19041  41.297   1.419  11.261
53815W        W19042  12.139  17.241   0.765
53816W        W19043   5.841   3.180  11.055
53817W        W19044  14.600   1.309  14.499
53818W        W19045   5.844   5.720   2.885
53819W        W19046  33.944  36.854  12.055
53820W        W19047  27.167  23.385  11.183
53821W        W19048   4.162  20.528  10.695
53822W        W19049  27.883   5.497   1.507
53823W        W19050   9.896  26.717   4.295
53824W        W19051  23.232  18.529   4.628
53825W        W19052  28.458  29.468  12.430
53826W        W19053   0.312  20.355  13.911
53827W        W19054  16.346  34.357   2.576
53828W        W19055  28.646  27.164   3.059
53829W        W19056  17.678  35.554   2.683
53830W        W19057  40.054  13.549   2.256
53831W        W19058   7.008  16.704   2.347
53832W        W19059  20.773  11.897  13.414
53833W        W19060  34.851  10.257   2.909
53834W        W19061  10.869  33.508   2.868
53835W        W19062  38.599   0.980  12.091
53836W        W19063  40.243  33.620   0.214
53837W        W19064  25.475  30.508   3.240
53838W        W19065  20.044   0.488  14.017
53839W        W19066  13.596  14.866   1.879
53840W        W19067  26.478  31.479  10.347
53841W        W19068  41.969  24.503   3.748
53842W        W19069  43.193  19.910  14.966
53843W        W19070  33.669  30.259   1.286
53844W        W19071  43.070  24.531   1.862
53845W        W19072  30.596   7.912  10.473
53846W        W19073  25.223  28.378   0.700
53847W        W19074  35.989  14.169   2.484
53848W        W19075   7.769   3.989  12.593
53849W        W19076  43.822  29.413  14.821
53850W        W19077  11.786  13.551   2.333
53851W        W19078  35.421  14.357  14.896
53852W        W19079  18.760   0.929  12.091
53853W        W19080  18.804  22.268   0.800
53854W        W19081  12.937  24.361   1.870
53855W        W19082   3.456  41.436  14.642
53856W        W19083  41.450  23.044   4.007
53857W        W19084  17.125   7.773  13.497
53858W        W19085  41.853  27.418   4.499
53859W        W19086  10.735  20.333   0.977
53860W        W19087  16.585  37.414   0.806
53861W        W19088  37.753  16.581   2.827
53862W        W19089  37.541   7.074   3.919
53863W        W19090  15.106  12.411  10.511
53864W        W19091   7.670  30.004   0.827
53865W        W19092  37.577  28.117   4.134
53866W        W19093  37.339   9.609   0.376
53867W        W19094  37.565  21.621  11.322
53868W        W19095  33.614   8.407  11.637
53869W        W19096  17.415   4.640  12.957
53870W        W19097  22.166   6.894  14.930
53871W        W19098  36.830  11.547  12.460
53872W        W19099  13.276  37.320   0.873
53873W        W19100   2.433  33.988   3.548
53874W        W19101   8.820   9.209   3.423
53875W        W19102   1.610  21.014   1.749
53876W        W19103   9.315   0.411   0.669
53877W        W19104  43.060  37.159   3.816
53878W        W19105  13.405  13.066   1.244
53879W        W19106  19.438  35.591   2.026
53880W        W19107  36.462  42.029   3.297
53881W        W19108  28.476  19.103   2.061
53882W        W19109   6.587  35.554   2.729
53883W        W19110  24.690  19.627  11.360
53884W        W19111  36.420  44.975   0.530
53885W        W19112  27.180  40.696  11.631
53886W        W19113  15.845  33.556  10.620
53887W        W19114  23.180   0.495   2.138
53888W        W19115  36.495  38.054   3.240
53889W        W19116   8.927  22.557   0.259
53890W        W19117  29.613  42.707   1.441
53891W        W19118  24.003  27.499   0.233
53892W        W19119  15.013  11.912  12.117
53893W        W19120  12.382  40.249  10.507
53894W        W19121  30.220  22.242  13.211
53895W        W19122   6.429  44.886  13.798
53896W        W19123   8.880  12.602  13.501
53897W        W19124   4.175  43.027  13.641
53898W        W19125   9.651  10.112  13.872
53899W        W19126  42.571  28.125  14.483
53900W        W19127   3.462  28.551  14.655
53901W        W19128  32.630  28.926   1.375
53902W        W19129  43.247   5.766   1.307
53903W        W19130  24.537  34.860  13.751
53904W        W19131  42.587  44.406  11.554
53905W        W19132   5.168  17.142   4.420
53906W        W19133   1.733   4.822  13.381
53907W        W19134  35.351  12.353  11.152
53908W        W19135  28.272  43.953   4.779
53909W        W19136  41.903  16.521   1.354
53910W        W19137   9.498  17.675  13.297
53911W        W19138  34.104  32.635   1.694
53912W        W19139  33.340  17.708  12.938
53913W        W19140  41.967   7.454   1.191
53914W        W19141   9.913  43.221  12.536
53915W        W19142  17.023   3.442  13.567
53916W        W19143  36.323  42.753  10.620
53917W        W19144  26.938  22.964  14.893
53918W        W19145  20.139   9.561  11.717
53919W        W19146  26.430  16.836   0.825
53920W        W19147  39.112  31.123  12.440
53921W        W19148  29.410  42.712   2.781
53922W        W19149  37.501  41.451   3.699
53923W        W19150  15.857   7.675   2.770
53924W        W19151  30.564  17.446   2.154
53925W        W19152  16.521  43.935   1.712
53926W        W19153  35.531  16.702  14.027
53927W        W19154   5.799  15.686  10.123
53928W        W19155   7.444  15.856   0.028
53929W        W19156  38.359  23.073   3.198
53930W        W19157  11.191  19.434  11.054
53931W        W19158  37.800  18.667  12.543
53932W        W19159  10.601   1.457  13.014
53933W        W19160   5.529  33.853  13.063
53934W        W19161  30.047  23.533  11.113
53935W        W19162  21.020  34.178  11.669
53936W        W19163  38.712   8.030   3.373
53937W        W19164  22.983  39.034  10.580
53938W        W19165   2.731  33.752  11.091
53939W        W19166  13.223   6.280   3.397
53940W        W19167  38.880  39.635   0.767
53941W        W19168   2.386   2.961  12.461
53942W        W19169  35.428  26.246  13.313
53943W        W19170   7.204  36.625   2.222
53944W        W19171  28.410  30.431   0.835
53945W        W19172   9.430  42.930   1.018
53946W        W19173  43.012  43.412  10.747
53947W        W19174  16.338  41.875   4.099
53948W        W19175   9.897  41.248   1.865
53949W        W19176   3.378  36.526  11.178
53950W        W19177  14.708  41.320  13.283
53951W        W19178  40.917  19.858  13.764
53952W        W19179  34.136   7.426   3.375
53953W        W19180  25.668  34.106   2.382
53954W        W19181  38.901  19.220  11.068
53955W        W19182  24.918  19.546   0.431
53956W        W19183  25.856  16.792  14.929
53957W        W19184   9.595   8.212  11.539
53958W        W19185  20.489  36.868  12.604
53959W        W19186  20.758  13.183   3.670
53960W        W19187  33.863  16.886  13.398
53961W        W19188   0.617  22.820  14.007
53962W        W19189  17.242  43.848   3.575
53963W        W19190  19.313  17.198   2.707
53964W        W19191  22.973  39.428   4.536
53965W        W19192   3.961  10.149  14.890
53966W        W19193   3.068  19.639  10.808
53967W        W19194  40.870  34.157   0.008
53968W        W19195  20.677   1.412  13.343
53969W        W19196  24.768   4.832  10.896
53970W        W19197  25.578   9.882  12.504
53971W        W19198  17.256  19.353  11.605
53972W        W19199  23.980  27.221   3.279
53973W        W19200  19.005  30.617  11.872
53974W        W19201  12.109  23.257   0.849
53975W        W19202   1.803  31.823   0.875
53976W        W19203  38.120   7.969  12.647
53977W        W19204   3.913  43.880  14.483
53978W        W19205  13.201  22.311   1.042
53979W        W19206   2.762   7.919  13.423
53980W        W19207  32.239   1.269   5.050
53981W        W19208  15.838  42.990  13.088
53982W        W19209  34.954  30.511   1.788
53983W        W19210   9.322  30.599  14.530
53984W        W19211  21.772  24.650   0.791
53985W        W19212  10.238   1.445   0.706
53986W        W19213   7.966  36.997   1.443
53987W        W19214  15.277  26.300   2.430
53988W        W19215  28.633  39.585  14.058
53989W        W19216  20.671  20.215  13.552
53990W        W19217  26.679   0.238  11.179
53991W        W19218  16.303  34.808  12.727
53992W        W19219  24.119  13.338   3.997
53993W        W19220  30.104  19.551   0.889
53994W        W19221  39.152  14.598   4.998
53995W        W19222  14.284  18.121   4.238
53996W        W19223  43.978  28.650  12.760
53997W        W19224  22.785  34.194   4.187
53998W        W19225  20.159  19.471   1.835
53999W        W19226   6.924  27.678   3.676
54000W        W19227   7.109  29.924  11.190
54001W        W19228  10.872   6.787   0.428
54002W        W19229  22.508   7.352  14.541
54003W        W19230  36.944   3.031  13.572
54004W        W19231  22.156  23.934  12.241
54005W        W19232  29.146   9.672  10.699
54006W        W19233  42.829   1.473   1.121
54007W        W19234  24.114   2.774   3.242
54008W        W19235  15.696  42.506  11.819
54009W        W19236  28.516  37.063  11.869
54010W        W19237   4.785  36.510  13.395
54011W        W19238   6.383   5.154   4.874
54012W        W19239  31.210  43.246  11.114
54013W        W19240  37.089  13.137   1.418
54014W        W19241   1.514  31.024  13.358
54015W        W19242  27.592  41.292   1.691
54016W        W19243  27.511  19.225  14.955
54017W        W19244  36.714   3.379   2.240
54018W        W19245   0.465  25.491   3.825
54019W        W19246  22.133  28.128  14.280
54020W        W19247   4.628  28.432   2.729
54021W        W19248  13.600   4.693  10.220
54022W        W19249  11.353  40.613  11.263
54023W        W19250  21.999  19.972  13.869
54024W        W19251   6.706  15.788   0.535
54025W        W19252   2.930  40.438   4.577
54026W        W19253  37.886   0.735  10.856
54027W        W19254   2.804   3.727  13.020
54028W        W19255  40.743  35.472  14.894
54029W        W19256  26.710  20.543   0.776
54030W        W19257  34.622  13.738   3.190
54031W        W19258  12.831  33.812   0.439
54032W        W19259  43.066   5.399  14.416
54033W        W19260  11.881  20.660   0.876
54034W        W19261  44.416  10.025   9.776
54035W        W19262  31.762   2.619   1.448
54036W        W19263  21.697  28.280   1.218
54037W        W19264  30.167  26.060  13.028
54038W        W19265  42.929  44.487   0.506
54039W        W19266  32.720  28.482   4.064
54040W        W19267  32.426  11.776   2.254
54041W        W19268  21.031  25.783   0.505
54042W        W19269  12.170   6.970   3.769
54043W        W19270   2.904  41.503  14.445
54044W        W19271   4.391  21.021   0.264
54045W        W19272  28.476  32.640   4.813
54046W        W19273  26.386  38.927  13.352
54047W        W19274  16.850   4.142  14.252
54048W        W19275   3.347   0.979   9.827
54049W        W19276  26.097  16.208   4.658
54050W        W19277  34.681  39.408  11.114
54051W        W19278  39.862  43.413  14.931
54052W        W19279  31.727  41.409  11.107
54053W        W19280  40.605  15.526  11.270
54054W        W19281   5.276  32.318   2.154
54055W        W19282  17.694  28.429   4.396
54056W        W19283  26.628  14.938  10.782
54057W        W19284   7.620   5.735   1.276
54058W        W19285  39.221  24.385   4.095
54059W        W19286  11.856  31.449   4.553
54060W        W19287  33.366   8.656   2.257
54061W        W19288   6.721  44.118  13.040
54062W        W19289  19.860  24.564  14.474
54063W        W19290  36.172  23.356  13.248
54064W        W19291  20.792  17.933  13.728
54065W        W19292  41.538  42.457   2.663
54066W        W19293  36.554  17.850   2.390
54067W        W19294   6.151   8.857   2.368
54068W        W19295  18.776   6.998   1.665
54069W        W19296  29.069  20.658  11.600
54070W        W19297  14.224  40.166  14.725
54071W        W19298   2.287  19.609  12.328
54072W        W19299   5.664   4.623  12.419
54073W        W19300  29.466  44.829  14.321
54074W        W19301  38.698  24.261   4.187
54075W        W19302  22.860  34.848  14.091
54076W        W19303  33.620   0.304   0.940
54077W        W19304   1.825  34.599  12.381
54078W        W19305  10.282  17.662   1.652
54079W        W19306  10.636   6.327   0.327
54080W        W19307  15.506  10.711  13.335
54081W        W19308   3.474   1.482  11.150
54082W        W19309   6.225  20.221   0.106
54083W        W19310   1.944  36.581  12.449
54084W        W19311  19.033  22.509  10.828
54085W        W19312  35.893   4.620  11.165
54086W        W19313  34.838  33.254   1.121
54087W        W19314  41.142  34.505   2.783
54088W        W19315  21.743  14.319   0.236
54089W        W19316  19.946   9.967  14.247
54090W        W19317   2.682  11.420   0.515
54091W        W19318  37.885  20.558   2.906
54092W        W19319  38.589   6.258   1.598
54093W        W19320  33.985  18.024  11.746
54094W        W19321  10.620  40.509   1.713
54095W        W19322   6.881   3.598  14.270
54096W        W19323   4.452  36.306   1.350
54097W        W19324  30.273  33.916   3.190
54098W        W19325  30.077  30.187   3.885
54099W        W19326  12.998   5.906  13.840
54100W        W19327   6.901  21.455  13.352
54101W        W19328   2.716  42.030   5.309
54102W        W19329  43.487   3.372   2.889
54103W        W19330   3.824  30.510   1.229
54104W        W19331  16.111  42.514   2.788
54105W        W19332  14.589  40.611  13.844
54106W        W19333  36.880  31.195   1.368
54107W        W19334  20.532  13.603  13.951
54108W        W19335   5.975   6.425   0.456
54109W        W19336   0.394  28.603  14.873
54110W        W19337  17.587   5.356  11.463
54111W        W19338   5.733  44.005   2.480
54112W        W19339  13.463   7.833   1.281
54113W        W19340  26.092   2.779  10.622
54114W        W19341  22.777  16.326   2.827
54115W        W19342  15.067  23.441   1.967
54116W        W19343  31.378  32.961  10.871
54117W        W19344  12.778  24.923   0.956
54118W        W19345  38.745  26.488  13.640
54119W        W19346  37.797  18.001   2.696
54120W        W19347  17.395  33.680   2.337
54121W        W19348  43.431  38.707  12.477
54122W        W19349  42.398  18.279   0.004
54123W        W19350  22.014   4.436  10.614
54124W        W19351  39.869  28.613   4.675
54125W        W19352  42.030  14.291   4.603
54126W        W19353  22.612  23.663   3.249
54127W        W19354  43.219  30.525   4.009
54128W        W19355  33.740  22.040  14.091
54129W        W19356  37.658  32.851  14.961
54130W        W19357  31.890  31.525  13.842
54131W        W19358   1.990  43.928   0.376
54132W        W19359  17.769  33.009   3.632
54133W        W19360  44.232  18.654   9.869
54134W        W19361  21.797  29.462   2.404
54135W        W19362  38.892  36.949   1.008
54136W        W19363   3.796  36.365  10.856
54137W        W19364  12.258  34.112  12.948
54138W        W19365   7.770  36.594   4.266
54139W        W19366  32.511  20.272  14.238
54140W        W19367  28.568  36.145  11.274
54141W        W19368  17.552  39.872   0.775
54142W        W19369  36.439  40.828   3.037
54143W        W19370   9.783  30.358   1.250
54144W        W19371   0.917  27.880   0.515
54145W        W19372  38.158  33.109   2.637
54146W        W19373  39.204   9.918   0.839
54147W        W19374  14.540  44.780  11.310
54148W        W19375  19.624   0.026   1.788
54149W        W19376  18.578  15.599   3.771
54150W        W19377  23.638  25.436   0.396
54151W        W19378  37.694  12.546   0.099
54152W        W19379  25.689  11.404  13.358
54153W        W19380  43.127  24.155   3.596
54154W        W19381  41.264  18.328  12.002
54155W        W19382  36.938  44.045   2.660
54156W        W19383   5.041   1.830   3.645
54157W        W19384  21.605  30.020  11.233
54158W        W19385  32.855   9.444   2.488
54159W        W19386  20.069  38.075  12.466
54160W        W19387  28.155  32.009  13.247
54161W        W19388   4.970  21.864  14.829
54162W        W19389  26.084  36.044   2.107
54163W        W19390  44.203  20.427  11.993
54164W        W19391  10.722  21.509   1.553
54165W        W19392  20.534   0.827  10.276
54166W        W19393  41.308  39.914   3.692
54167W        W19394  27.827  23.047  14.486
54168W        W19395  25.915  28.181   3.640
54169W        W19396  10.450  31.453  12.107
54170W        W19397  18.733  23.286   0.905
54171W        W19398  24.923  44.800   0.314
54172W        W19399   5.372  20.058  12.106
54173W        W19400  27.275  39.426   2.750
54174W        W19401  39.225  11.434   3.307
54175W        W19402  41.558  42.240  11.131
54176W        W19403  20.604  33.824  10.531
54177W        W19404   2.868   1.456  14.826
54178W        W19405   1.229  11.343  13.509
54179W        W19406  26.394  38.471  14.756
54180W        W19407  31.668  34.448   4.248
54181W        W19408  23.678  10.747  11.987
54182W        W19409  36.888  23.043  10.609
54183W        W19410  21.677   1.322  10.284
54184W        W19411  17.569   0.840  12.877
54185W        W19412  11.255  38.380  11.213
54186W        W19413  10.461  25.910   2.900
54187W        W19414   1.802  40.744   4.583
54188W        W19415  13.830  26.121  12.116
54189W        W19416  25.477  18.343   0.739
54190W        W19417  43.592  30.260  11.269
54191W        W19418  19.109  18.280  11.374
54192W        W19419  10.927  28.724  14.866
54193W        W19420  41.344  12.546   4.498
54194W        W19421  29.396  27.704   3.014
54195W        W19422  41.394  40.957   3.599
54196W        W19423  20.646  11.312   3.344
54197W        W19424  23.234  20.312  13.452
54198W        W19425  20.078  33.105  10.644
54199W        W19426   7.609  14.425   1.222
54200W        W19427  41.872   5.606   3.199
54201W        W19428  27.496  33.951   3.751
54202W        W19429  25.828  27.140  14.970
54203W        W19430   7.352  18.662   2.854
54204W        W19431  22.411  13.817   2.638
54205W        W19432  44.338  32.741  12.057
54206W        W19433  41.021  13.379  12.788
54207W        W19434  43.884  44.442  13.056
54208W        W19435   9.608  34.931   1.775
54209W        W19436  36.897  29.362  13.451
54210W        W19437   3.439   9.104  12.716
54211W        W19438  41.623  37.772  14.155
54212W        W19439   8.707  42.860   1.167
54213W        W19440   8.216  10.411  11.907
54214W        W19441  28.426  23.207   0.802
54215W        W19442  15.383   9.822   4.106
54216W        W19443  44.288   6.202  12.971
54217W        W19444   1.239  10.921  12.236
54218W        W19445   1.212  21.325   4.512
54219W        W19446  30.911   6.267   3.062
54220W        W19447   6.151  38.255   4.519
54221W        W19448   3.783  33.899   3.668
54222W        W19449  37.772   3.431   2.116
54223W        W19450  20.259  14.393  12.647
54224W        W19451  24.505  26.547   1.558
54225W        W19452  42.927  13.823  14.536
54226W        W19453  11.531  41.942   2.222
54227W        W19454  28.521   4.474  13.030
54228W        W19455  26.272  18.076   0.288
54229W        W19456   9.124   8.922  14.320
54230W        W19457  44.476  16.382  13.944
54231W        W19458  29.630   6.336  12.948
54232W        W19459  27.168   6.722  11.652
54233W        W19460  43.866  16.279   1.161
54234W        W19461   6.932  27.147  13.540
54235W        W19462  18.392  39.522   2.337
54236W        W19463   6.220  14.624   1.771
54237W        W19464  34.390  23.146   3.598
54238W        W19465  30.355  15.143   2.294
54239W        W19466  35.805  28.119   4.718
54240W        W19467  41.944  39.109   3.999
54241W        W19468  15.619  34.550   5.083
54242W        W19469  33.232  23.647   3.489
54243W        W19470   8.805  16.917  11.292
54244W        W19471  31.121   0.956   0.827
54245W        W19472  26.010  22.284  12.384
54246W        W19473  23.763  10.489  12.437
54247W        W19474  32.219  34.091  14.415
54248W        W19475   6.620   7.728  12.876
54249W        W19476   3.261  23.697  13.748
54250W        W19477   8.089   7.092   4.149
54251W        W19478  20.949   5.458   1.773
54252W        W19479  15.609  33.030   2.255
54253W        W19480  18.048  19.815  11.547
54254W        W19481  35.909  18.376  12.655
54255W        W19482  18.590   6.800   3.682
54256W        W19483  28.233   8.889   1.412
54257W        W19484   5.354  41.329  12.578
54258W        W19485   5.361  44.873  10.782
54259W        W19486   2.307  39.042   2.854
54260W        W19487  32.890  38.133  13.306
54261W        W19488  29.884  27.942   1.273
54262W        W19489   0.160  21.713   2.412
54263W        W19490  36.622  16.122   1.971
54264W        W19491  17.742  29.629   0.744
54265W        W19492  13.322  42.464  12.913
54266W        W19493   6.718   8.509  11.680
54267W        W19494  14.788   3.720   1.745
54268W        W19495  33.882  44.289  14.460
54269W        W19496  20.892  13.677   3.708
54270W        W19497  10.691   3.029   0.477
54271W        W19498  41.901  26.220   0.022
54272W        W19499   8.430  11.438   3.371
54273W        W19500  18.642  35.833   4.768
54274W        W19501  40.537  14.257   2.779
54275W        W19502  44.167  11.390   4.100
54276W        W19503  22.576  23.190  14.776
54277W        W19504  33.377  39.113   4.072
54278W        W19505  23.318  34.737  12.527
54279W        W19506  43.230  20.728  12.570
54280W        W19507  30.533  34.278   4.670
54281W        W19508  33.425  36.791  12.092
54282W        W19509  13.361  28.257  14.359
54283W        W19510  11.284  16.929   0.426
54284W        W19511   1.002   8.644   0.160
54285W        W19512  11.397  24.707   1.277
54286W        W19513  30.263  22.691  11.565
54287W        W19514   3.742  42.136  10.448
54288W        W19515  41.750  38.222  10.982
54289W        W19516   9.343  23.175  14.949
54290W        W19517  30.027  16.269   0.475
54291W        W19518  18.883  23.058   2.758
54292W        W19519  20.421  21.991  11.675
54293W        W19520   7.309   3.741   3.887
54294W        W19521   5.037  28.467   0.445
54295W        W19522  13.981  18.260  14.272
54296W        W19523  22.289  21.856  13.389
54297W        W19524  25.443  31.738  12.938
54298W        W19525  17.086  22.589   3.263
54299W        W19526  38.323  44.311  10.713
54300W        W19527  36.846  33.853  11.172
54301W        W19528  20.672   0.635   0.262
54302W        W19529  32.614  27.268   2.326
54303W        W19530  35.556   7.766   4.697
54304W        W19531  25.159  34.047   3.336
54305W        W19532  21.280  25.169  10.678
54306W        W19533  26.209  42.221   1.263
54307W        W19534  34.309  31.490  14.891
54308W        W19535  41.007  40.562   2.696
54309W        W19536  17.226  24.669   2.713
54310W        W19537   6.351  42.234   1.810
54311W        W19538  35.462  28.613   3.169
54312W        W19539  13.100  15.727  11.514
54313W        W19540  31.025   8.934   4.219
54314W        W19541  43.452  35.577   3.317
54315W        W19542  13.024  26.477  11.195
54316W        W19543  35.399   4.685   0.834
54317W        W19544  20.799  20.245   2.649
54318W        W19545   6.261  33.185   2.912
54319W        W19546  25.034  15.258   1.011
54320W        W19547  23.334   3.718   2.202
54321W        W19548   3.809  32.949  14.643
54322W        W19549  36.689  40.401   3.420
54323W        W19550   5.301  10.879  13.995
54324W        W19551  16.758  35.599  10.980
54325W        W19552   6.525  31.531   0.489
54326W        W19553   5.504  31.452  13.169
54327W        W19554  41.367  17.644   0.264
54328W        W19555  27.676  23.853   3.472
54329W        W19556  21.601  38.158   4.243
54330W        W19557  34.347  27.928  12.759
54331W        W19558  23.958  11.477  13.850
54332W        W19559  41.743  41.541   1.849
54333W        W19560  11.034  40.316  11.592
54334W        W19561  41.343   3.446  12.902
54335W        W19562  18.565  34.940   3.159
54336W        W19563  38.472  11.849   0.769
54337W        W19564   2.185  33.282   9.992
54338W        W19565  13.107  13.336  11.595
54339W        W19566  11.233  22.014  12.610
54340W        W19567  27.268  15.246   2.763
54341W        W19568  17.054  23.218   1.421
54342W        W19569  16.180   5.509   2.783
54343W        W19570  29.796   5.141  11.056
54344W        W19571   4.483  16.319   2.832
54345W        W19572  43.936  27.408   0.003
54346W        W19573  15.191  18.271   1.722
54347W        W19574   7.918  29.405   0.175
54348W        W19575  37.447  34.674  12.015
54349W        W19576  29.631  20.223   4.109
54350W        W19577  10.422  21.140  10.210
54351W        W19578   0.718  42.318   1.277
54352W        W19579  24.470  25.457  14.328
54353W        W19580  27.457   8.622   3.606
54354W        W19581  24.113  17.986  12.518
54355W        W19582  27.028  33.426  13.980
54356W        W19583   9.392  27.398   1.879
54357W        W19584  43.195   1.416  14.790
54358W        W19585  34.325  44.710   3.457
54359W        W19586  36.025   7.331  10.298
54360W        W19587  36.516  20.023  10.888
54361W        W19588  21.055   6.709   1.730
54362W        W19589  39.862  31.772   0.286
54363W        W19590   2.952  23.837   1.226
54364W        W19591   6.551  43.668   4.265
54365W        W19592  24.676  32.624   0.820
54366W        W19593  35.402  43.820   1.826
54367W        W19594  24.704  34.100   1.497
54368W        W19595  42.590   8.840   4.682
54369W        W19596  18.827  41.438   4.577
54370W        W19597  37.518   0.570  14.882
54371W        W19598   4.889  25.216  12.985
54372W        W19599  14.878  40.744   4.523
54373W        W19600  38.571   4.317   1.912
54374W        W19601  31.995  11.759  13.744
54375W        W19602  11.457  10.068   2.914
54376W        W19603  39.877  30.952  12.046
54377W        W19604  35.284   5.814  12.647
54378W        W19605  37.879  29.483  13.846
54379W        W19606  21.304  37.495  13.862
54380W        W19607  11.488  39.695  14.756
54381W        W19608  26.201  15.230   4.609
54382W        W19609  23.106  24.966   4.301
54383W        W19610  25.233  25.028   1.258
54384W        W19611   5.159  42.289   2.850
54385W        W19612  32.660  28.967   0.489
54386W        W19613  29.824   6.656   2.677
54387W        W19614  29.085  18.993   1.270
54388W        W19615  17.830  24.543   1.152
54389W        W19616  22.036  35.715  14.886
54390W        W19617  44.306  42.781   1.688
54391W        W19618  12.099  37.688   0.347
54392W        W19619  18.086  39.160  11.344
54393W        W19620  40.836  41.933  14.709
54394W        W19621  17.694  17.772  14.863
54395W        W19622  36.061   6.110   3.257
54396W        W19623  40.585  41.318  12.447
54397W        W19624  35.404  38.971  11.362
54398W        W19625   2.706  43.728   1.291
54399W        W19626  24.005  40.229   3.853
54400W        W19627  13.565  14.360   1.836
54401W        W19628  12.823   7.417   0.446
54402W        W19629   7.676  21.484   2.285
54403W        W19630  30.621  20.941   4.711
54404W        W19631  22.956   2.816   3.831
54405W        W19632  39.408  28.435  12.075
54406W        W19633  28.921  35.281   2.761
54407W        W19634  34.863  23.282   3.804
54408W        W19635   1.357  24.098   4.660
54409W        W19636  20.564  12.438  11.971
54410W        W19637  18.476  38.820  11.461
54411W        W19638  34.360  31.643   2.956
54412W        W19639   2.946  29.018  12.870
54413W        W19640  38.587  11.609   4.629
54414W        W19641  13.257   8.915   2.179
54415W        W19642   8.364  40.122  14.422
54416W        W19643   0.170  41.598   2.082
54417W        W19644   3.152  36.419   0.709
54418W        W19645   8.833  33.088  11.988
54419W        W19646  16.681  28.059   1.795
54420W        W19647  37.354  39.348   4.402
54421W        W19648  35.354  39.511   1.382
54422W        W19649  16.679  41.981   3.294
54423W        W19650  28.423  23.458   4.478
54424W        W19651  42.786  17.392  14.866
54425W        W19652  31.377  21.595  12.108
54426W        W19653  29.471  32.069   2.660
54427W        W19654  21.136  37.490   0.834
54428W        W19655  13.189   9.836  11.080
54429W        W19656  28.926  40.470  12.353
54430W        W19657   2.637  20.572  11.594
54431W        W19658   5.003  36.653  11.000
54432W        W19659   2.807   1.542  13.867
54433W        W19660  38.652   4.530  14.387
54434W        W19661   0.009  33.986   1.920
54435W        W19662  23.013  37.361  12.962
54436W        W19663   0.152  16.652   4.703
54437W        W19664  43.759  35.461   3.713
54438W        W19665  36.372  25.876   1.862
54439W        W19666  16.135  31.958  11.934
54440W        W19667  43.547  13.711  14.720
54441W        W19668  32.782   4.200  14.129
54442W        W19669  31.818   5.375  14.467
54443W        W19670  33.682  15.030  12.447
54444W        W19671   5.884  35.798  12.893
54445W        W19672  31.891  11.874   1.431
54446W        W19673  33.556   7.771  14.437
54447W        W19674  20.458  32.667  11.179
54448W        W19675  12.394  15.553   3.254
54449W        W19676  42.558  44.898  10.676
54450W        W19677  44.903  31.131   1.723
54451W        W19678  24.771  20.207  14.011
54452W        W19679   4.396  36.029   5.119
54453W        W19680  28.712  11.258  10.755
54454W        W19681  19.642  31.802  11.185
54455W        W19682  27.501   5.107   4.776
54456W        W19683  41.701  43.525   0.371
54457W        W19684  29.504  33.899   0.631
54458W        W19685  30.467  19.219  13.629
54459W        W19686  41.339  31.465  12.116
54460W        W19687  15.012   7.773  13.420
54461W        W19688   4.501   3.454  10.746
54462W        W19689  40.407   6.984   2.688
54463W        W19690   2.725  31.602   2.733
54464W        W19691  25.636  31.558  13.396
54465W        W19692  33.545   3.009  13.398
54466W        W19693  26.025  33.378  10.598
54467W        W19694  32.939  41.367  14.875
54468W        W19695  31.841  20.982   4.954
54469W        W19696   4.737  34.721  14.969
54470W        W19697  31.608  29.348   0.474
54471W        W19698  28.733   6.362  12.704
54472W        W19699  39.098  36.529   5.079
54473W        W19700  30.218  18.180  11.564
54474W        W19701  42.979   1.919   1.890
54475W        W19702  17.164  33.416   1.521
54476W        W19703   5.145  22.967  13.471
54477W        W19704  31.630  33.414   4.131
54478W        W19705  42.802   2.285  12.581
54479W        W19706  29.510  24.698  11.978
54480W        W19707   0.975  31.176   3.141
54481W        W19708  41.380  27.100   4.538
54482W        W19709  22.325   2.136  10.357
54483W        W19710  21.296  17.276  14.323
54484W        W19711  22.843  39.240  13.969
54485W        W19712  17.355  22.215  13.978
54486W        W19713  28.545  28.246  10.533
54487W        W19714  10.883  21.133  14.402
54488W        W19715  23.074  18.820   3.138
54489W        W19716  26.316  26.623  11.215
54490W        W19717  23.433  22.156  12.252
54491W        W19718   5.071  11.794   4.296
54492W        W19719   7.916  12.226  10.764
54493W        W19720  44.739  16.304  13.496
54494W        W19721  34.593   4.573   4.864
54495W        W19722  44.182  19.917  11.879
54496W        W19723  25.483  25.782   1.401
54497W        W19724  10.148  12.711  10.779
54498W        W19725   7.744  42.319   1.178
54499W        W19726  29.529  37.013  14.290
54500W        W19727  22.283   7.397   0.760
54501W        W19728  18.817  18.585  11.096
54502W        W19729   4.999   4.760  14.540
54503W        W19730  40.054  25.181  11.077
54504W        W19731  11.615  31.988  12.689
54505W        W19732  24.397   1.465  14.786
54506W        W19733  25.177  25.203  10.775
54507W        W19734  13.259  37.098   3.268
54508W        W19735  10.078  21.791  13.034
54509W        W19736  22.486  25.448  12.609
54510W        W19737  11.351  26.440  11.083
54511W        W19738   3.323  24.614  12.669
54512W        W19739   1.280  15.725  12.034
54513W        W19740   9.462  28.012  10.494
54514W        W19741  18.165  18.666   0.115
54515W        W19742   5.398  19.560  12.286
54516W        W19743  31.710  10.247  13.955
54517W        W19744  28.185  42.928  13.240
54518W        W19745  40.544  30.670  12.841
54519W        W19746  25.752   2.373   1.230
54520W        W19747  44.254  32.232   5.096
54521W        W19748   6.115  26.742   4.513
54522W        W19749  31.312   6.204  11.635
54523W        W19750  44.730   6.200   4.930
54524W        W19751  25.134  34.037   4.818
54525W        W19752  16.628  44.966  13.025
54526W        W19753  28.995  28.568   0.706
54527W        W19754  40.073  17.152  13.441
54528W        W19755  37.991  20.819   1.361
54529W        W19756  44.810   7.174  12.549
54530W        W19757  32.786  19.827  12.964
54531W        W19758  29.675  21.065   0.836
54532W        W19759  11.409   5.719   2.878
54533W        W19760   1.346  40.290  12.218
54534W        W19761  36.865  40.336   4.426
54535W        W19762  12.783  44.218  14.769
54536W        W19763  20.630  14.050  14.922
54537W        W19764  20.742  19.059  11.160
54538W        W19765  36.381  40.092   0.173
54539W        W19766   7.645  21.504  12.349
54540W        W19767  12.308  38.814  11.678
54541W        W19768  17.687  14.682   0.423
54542W        W19769   7.240  38.356   1.157
54543W        W19770   3.991  19.253  12.069
54544W        W19771  43.472  19.686  13.792
54545W        W19772  39.754  31.655   4.154
54546W        W19773   1.392  29.887  11.390
54547W        W19774  20.362  24.615  14.350
54548W        W19775  37.510  20.785   0.308
54549W        W19776  33.959   2.704   2.661
54550W        W19777  36.446  35.892   0.472
54551W        W19778   9.995   9.834  12.319
54552W        W19779  10.743   8.674  11.288
54553W        W19780  14.858   1.944   1.251
54554W        W19781  37.030  22.170   1.917
54555W        W19782  15.104  11.782   2.648
54556W        W19783  19.124  38.305   1.425
54557W        W19784  37.955  14.955  12.369
54558W        W19785   4.216  35.932  14.860
54559W        W19786  41.868  11.755   1.229
54560W        W19787  21.185  33.998   4.673
54561W        W19788  22.487  19.232  14.987
54562W        W19789  44.052  21.737  14.827
54563W        W19790  27.431  40.944  13.955
54564W        W19791  36.772  23.046   3.858
54565W        W19792  22.201  23.412   2.337
54566W        W19793  15.866  18.308  10.557
54567W        W19794  12.284   0.753  13.345
54568W        W19795  37.667  28.507  14.115
54569W        W19796  27.408  12.784  14.302
54570W        W19797  38.575  37.408  12.460
54571W        W19798  40.775   4.150  12.414
54572W        W19799   4.711  17.587   1.364
54573W        W19800  22.095  30.659   1.280
54574W        W19801  13.582  18.632   3.364
54575W        W19802   3.484  23.908   4.938
54576W        W19803  27.663  11.813  11.047
54577W        W19804  21.666  14.800   0.940
54578W        W19805  33.594  35.564   0.934
54579W        W19806  12.715  17.061   3.787
54580W        W19807  15.885   9.025  14.765
54581W        W19808  13.619  31.236  11.528
54582W        W19809   2.023  25.439  14.372
54583W        W19810  39.590  32.697   1.178
54584W        W19811  39.622  38.046   3.203
54585W        W19812  13.578  21.172   4.780
54586W        W19813  15.430  11.903   4.467
54587W        W19814   6.875  23.134  12.120
54588W        W19815  22.038  39.409  14.842
54589W        W19816  42.121   9.915   2.110
54590W        W19817  14.374   2.303  12.504
54591W        W19818  41.398  28.393  14.343
54592W        W19819   5.174  29.066  14.759
54593W        W19820   1.388  14.091   0.204
54594W        W19821  37.522  42.957   4.494
54595W        W19822  31.498  28.901   0.199
54596W        W19823  34.872  22.700  12.967
54597W        W19824  28.231  36.595  11.966
54598W        W19825  25.119  13.734   3.873
54599W        W19826  42.766  22.686   3.221
54600W        W19827   0.502  10.288  14.752
54601W        W19828  29.018  20.798  14.552
54602W        W19829  18.579  19.326   1.253
54603W        W19830  23.106   0.004  13.550
54604W        W19831  29.182  18.807   1.735
54605W        W19832  44.919  18.017  11.503
54606W        W19833  13.445  28.357  13.840
54607W        W19834  20.053  19.250   1.387
54608W        W19835   5.884  41.423   3.636
54609W        W19836  24.294  25.838  10.513
54610W        W19837  10.832  40.498  11.159
54611W        W19838  32.961  42.778   1.782
54612W        W19839  41.054  41.082  12.924
54613W        W19840  22.648   8.402  13.467
54614W        W19841  16.662  12.121  12.196
54615W        W19842  26.510  12.352   3.158
54616W        W19843  37.409  21.964   3.204
54617W        W19844  18.095  16.928   1.522
54618W        W19845  26.648  15.544  11.436
54619W        W19846  41.105  24.283  13.734
54620W        W19847  27.322  23.700  11.647
54621W        W19848  11.669  32.166   0.831
54622W        W19849  31.909  35.864  13.168
54623W        W19850  27.809  16.984  14.429
54624W        W19851  39.757  30.620  13.027
54625W        W19852  36.015  31.131  11.040
54626W        W19853  21.699  22.819   2.920
54627W        W19854   8.436  19.011  13.573
54628W        W19855   5.146  21.248  11.481
54629W        W19856   8.320  29.340  14.843
54630W        W19857  36.588  12.770  10.809
54631W        W19858  13.519  38.367   4.141
54632W        W19859  18.657  26.222   1.780
54633W        W19860  10.639  28.953   4.711
54634W        W19861  18.753   6.932   4.158
54635W        W19862  15.136  19.484  14.241
54636W        W19863   3.235  35.124   0.491
54637W        W19864  28.925   9.735   1.179
54638W        W19865  29.562   6.932   2.293
54639W        W19866  25.715  21.235   0.789
54640W        W19867  32.900  36.632  12.105
54641W        W19868  13.378  12.224   4.158
54642W        W19869   5.253  28.900   4.165
54643W        W19870  13.408  18.792   0.960
54644W        W19871   2.820   3.720  10.707
54645W        W19872   9.536  19.387  14.015
54646W        W19873  15.614  25.557  12.168
54647W        W19874  18.900   9.535  13.407
54648W        W19875  17.212  25.116   0.368
54649W        W19876  42.710   5.854   1.291
54650W        W19877  24.384   4.388  12.940
54651W        W19878  14.267   5.516   1.874
54652W        W19879  20.525  25.016  13.142
54653W        W19880   2.417   6.920  14.420
54654W        W19881  22.224  10.572   0.229
54655W        W19882  16.216  37.545  11.183
54656W        W19883   8.822  16.999   0.791
54657W        W19884  23.749  22.683   4.835
54658W        W19885   7.388  34.945   2.525
54659W        W19886   1.428  30.203   4.332
54660W        W19887  26.065  15.218  13.475
54661W        W19888  18.782  33.392  14.784
54662W        W19889  30.539  43.261   1.451
54663W        W19890  15.813   4.170   2.938
54664W        W19891  24.262   0.188  14.574
54665W        W19892  16.689  38.912  10.693
54666W        W19893  38.917  42.874   4.821
54667W        W19894  21.508  22.878   0.906
54668W        W19895  27.641  24.725  14.122
54669W        W19896  33.538  37.647  13.086
54670W        W19897  38.510  13.522   3.091
54671W        W19898  44.662  26.208  14.043
54672W        W19899  31.533   7.450  12.553
54673W        W19900  24.875  36.933   2.500
54674W        W19901  23.077  35.970  14.460
54675W        W19902  19.569  41.977  14.441
54676W        W19903  12.553  12.579  14.426
54677W        W19904   5.632  35.560  14.827
54678W        W19905  11.058  39.535   1.779
54679W        W19906  35.846  12.883   2.430
54680W        W19907  17.721   5.379  14.221
54681W        W19908  25.966  23.188  14.413
54682W        W19909   3.165  32.033  13.764
54683W        W19910  34.375  31.540   1.092
54684W        W19911  22.184   8.903  14.063
54685W        W19912  23.462  26.802   0.760
54686W        W19913  32.421  20.780  12.906
54687W        W19914   1.670  22.071   2.810
54688W        W19915   4.149  21.597  11.100
54689W        W19916   1.909  42.831  14.897
54690W        W19917  30.623  40.273  10.826
54691W        W19918   9.714  25.409  13.394
54692W        W19919  37.575  10.454   1.341
54693W        W19920  18.001  37.073   1.333
54694W        W19921   6.375  33.189   9.928
54695W        W19922  35.479   5.418  14.357
54696W        W19923   5.796   4.828   4.238
54697W        W19924   9.585  32.736  10.445
54698W        W19925   0.509  11.836   5.060
54699W        W19926  16.524   3.401   1.848
54700W        W19927  11.024   5.680  11.274
54701W        W19928   9.280   5.746   4.069
54702W        W19929  15.999  44.767  11.017
54703W        W19930  24.927  11.401   4.477
54704W        W19931  12.597  29.538   2.807
54705W        W19932  35.125  13.329  14.277
54706W        W19933  32.090  14.691   1.202
54707W        W19934  33.254  12.716  13.504
54708W        W19935  40.728  23.914   1.800
54709W        W19936  43.254  17.316   0.681
54710W        W19937  12.436   5.181  12.998
54711W        W19938  34.730  11.017  11.890
54712W        W19939   2.699  17.048  11.841
54713W        W19940  18.205  20.539  11.047
54714W        W19941  25.044  43.655  10.661
54715W        W19942  23.689  32.848   4.761
54716W        W19943  40.505  31.567  12.614
54717W        W19944   2.853  41.511   5.383
54718W        W19945   7.695  17.249  11.532
54719W        W19946  32.757   8.716  11.755
54720W        W19947  33.158   4.695   0.834
54721W        W19948   9.283   9.129  11.391
54722W        W19949   8.204   1.970  14.658
54723W        W19950  29.504  30.788   0.822
54724W        W19951  27.760  29.190   0.918
54725W        W19952   0.945  26.134   1.823
54726W        W19953  35.925  27.888  11.479
54727W        W19954  14.831   5.703  11.999
54728W        W19955  10.525  26.320  10.435
54729W        W19956  14.547  30.067   4.741
54730W        W19957  23.894  14.244  14.601
54731W        W19958  29.870  36.872  12.879
54732W        W19959  22.173  12.577  10.592
54733W        W19960  25.038  30.270  11.745
54734W        W19961  29.434   2.342  11.483
54735W        W19962  11.084  44.854   0.372
54736W        W19963  14.766  36.659  13.281
54737W        W19964  32.057  25.981  14.950
54738W        W19965  20.590  29.436  13.756
54739W        W19966   7.018  31.602   0.371
54740W        W19967  23.051  15.060   3.746
54741W        W19968  11.738   2.557  11.606
54742W        W19969  22.527  14.265   0.869
54743W        W19970  35.050  37.593  12.454
54744W        W19971  44.992  39.484   0.878
54745W        W19972  31.844  32.170   1.831
54746W        W19973  14.220  17.137  12.126
54747W        W19974   0.864  12.719   1.455
54748W        W19975  15.084  35.560  10.626
54749W        W19976  25.628  26.145   3.470
54750W        W19977  38.102  36.103  11.388
54751W        W19978  11.197  20.444  10.766
54752W        W19979  20.752  21.689   0.011
54753W        W19980   5.216  40.820  13.361
54754W        W19981  41.310  22.972   0.787
54755W        W19982  35.535  24.936  11.478
54756W        W19983  11.322   6.278  13.782
54757W        W19984   6.674  41.361   1.404
54758W        W19985   5.742  40.354   0.816
54759W        W19986   1.028  41.523  13.447
54760W        W19987  20.759   5.289  13.890
54761W        W19988  34.584  15.174   1.195
54762W        W19989  36.817   1.426   0.663
54763W        W19990   7.937  28.740   3.253
54764W        W19991  17.287  17.905   0.969
54765W        W19992  23.147  39.229   2.247
54766W        W19993  25.611   9.620  14.969
54767W        W19994  18.325  15.767   4.186
54768W        W19995  30.892  11.748  11.028
54769W        W19996   9.461  37.341   3.320
54770W        W19997  42.195   5.273  11.575
54771W        W19998  17.214   9.867   4.419
54772W        W19999  20.127  17.038   0.278
54773W        W20000  10.991  13.115   4.991
54774W        W20001  30.563  33.865  13.321
54775W        W20002  11.224  19.545  14.463
54776W        W20003  38.489  24.475  12.986
54777W        W20004  16.634  18.349   3.659
54778W        W20005  40.450   9.245  11.333
54779W        W20006  17.188  14.325   2.875
54780W        W20007  24.410  34.356   0.276
54781W        W20008  30.955  26.289   4.597
54782W        W20009   7.581  42.834  11.504
54783W        W20010   4.979  39.323  11.513
54784W        W20011  43.853  11.672  13.304
54785W        W20012   6.258  17.801   2.620
54786W        W20013  22.212  30.017  12.437
54787W        W20014  29.107  35.081  14.875
54788W        W20015   0.904  27.731   1.438
54789W        W20016  20.241  30.923  14.244
54790W        W20017  24.002   4.069   4.431
54791W        W20018  10.737  42.620   0.295
54792W        W20019   8.369   6.930  12.511
54793W        W20020  15.258  15.187  12.976
54794W        W20021  25.632  14.200  13.976
54795W        W20022  15.221  26.533   1.908
54796W        W20023  38.436  15.376   3.279
54797W        W20024  41.837  38.433   0.473
54798W        W20025  43.328  20.211  12.626
54799W        W20026   1.134  14.352  12.093
54800W        W20027   4.388  11.668   3.685
54801W        W20028  33.426  32.086   4.405
54802W        W20029  20.690  38.365   2.148
54803W        W20030  14.843   6.414  13.595
54804W        W20031  32.947  27.193   1.278
54805W        W20032  30.091  40.351   1.735
54806W        W20033  11.225  25.325  13.011
54807W        W20034  18.294  42.367  12.395
54808W        W20035  23.520  24.745   0.972
54809W        W20036  23.945  36.478  10.415
54810W        W20037  21.623  27.037   1.722
54811W        W20038  28.456  37.827  13.431
54812W        W20039  25.546  27.134   1.879
54813W        W20040  33.027  18.034  10.743
54814W        W20041  31.659  36.426  12.502
54815W        W20042   0.367  42.049   0.369
54816W        W20043   8.579  26.564   2.830
54817W        W20044   5.895   4.676  11.384
54818W        W20045   8.300   2.997  13.858
54819W        W20046  24.722  10.384  11.223
54820W        W20047  28.530  44.823   4.989
54821W        W20048  42.128   3.828  10.295
54822W        W20049  42.519  10.214   1.961
54823W        W20050  21.200  20.757  13.922
54824W        W20051  26.177   6.941   3.256
54825W        W20052  17.037  25.739  14.676
54826W        W20053  26.995  30.446  14.014
54827W        W20054   8.541  27.986  14.888
54828W        W20055  30.193  15.576   3.315
54829W        W20056   3.692  21.268   2.843
54830W        W20057  37.919  31.592  14.315
54831W        W20058  11.171  34.347  12.888
54832W        W20059  12.861  14.749  13.403
54833W        W20060  20.838  44.718   1.435
54834W        W20061  12.170   9.159   4.816
54835W        W20062  44.725  18.011  12.788
54836W        W20063   5.668  23.513  12.473
54837W        W20064  32.473  40.880   2.760
54838W        W20065  11.290   3.006  10.606
54839W        W20066  35.106  39.400  14.375
54840W        W20067   7.817  37.842  12.596
54841W        W20068  29.319  24.560  13.496
54842W        W20069  10.589   5.757   4.561
54843W        W20070  13.696  33.334   0.517
54844W        W20071  37.819   2.881  13.428
54845W        W20072  42.073  41.373  14.489
54846W        W20073  38.608  11.086   0.538
54847W        W20074  36.717   6.567   4.871
54848W        W20075  35.579  32.243   4.214
54849W        W20076  15.329  19.067   2.735
54850W        W20077  17.606  37.470   0.971
54851W        W20078   3.000  12.088   1.163
54852W        W20079  30.166  13.269  14.862
54853W        W20080   4.175  17.960  12.057
54854W        W20081   6.362  39.027  14.948
54855W        W20082  15.130  25.375   2.176
54856W        W20083   4.831  41.159  13.436
54857W        W20084  12.398  19.813  13.943
54858W        W20085   3.564  26.054  11.448
54859W        W20086   9.663  30.494   2.630
54860W        W20087  17.261  39.445   9.967
54861W        W20088  40.769  24.532  10.882
54862W        W20089   6.189  41.492   1.275
54863W        W20090  30.472   1.353   0.267
54864W        W20091  33.995   1.669   1.059
54865W        W20092  27.346  34.290   4.547
54866W        W20093  36.398  25.613  11.533
54867W        W20094  38.891   7.161  11.055
54868W        W20095  35.629  42.300  11.899
54869W        W20096   2.184   4.801   2.883
54870W        W20097  30.128   5.360  10.748
54871W        W20098  22.537  17.609   1.352
54872W        W20099  21.202  22.444  13.378
54873W        W20100   0.151  38.398  10.850
54874W        W20101  24.656  10.409  12.534
54875W        W20102  15.326   8.880  11.449
54876W        W20103  28.119  40.207  11.521
54877W        W20104   2.740  20.250   5.058
54878W        W20105  11.209  34.459  14.101
54879W        W20106   7.330   4.691  12.901
54880W        W20107   0.028  25.093  14.729
54881W        W20108   8.291  37.110  11.526
54882W        W20109  31.566  30.007   5.139
54883W        W20110  12.262  24.740  12.227
54884W        W20111  30.359  39.570   3.492
54885W        W20112  36.268   5.402  11.175
54886W        W20113   7.759  39.756  14.963
54887W        W20114  12.744  33.950  12.992
54888W        W20115  35.457  35.929   4.972
54889W        W20116   0.697   8.789   2.714
54890W        W20117  22.852  22.995  11.563
54891W        W20118  27.994  13.330  11.463
54892W        W20119  43.939  25.210   3.846
54893W        W20120  43.005  31.398  12.289
54894W        W20121  37.076  33.500   0.235
54895W        W20122   2.877  33.272  11.065
54896W        W20123  36.422  34.609  14.660
54897W        W20124  24.190   3.410   3.818
54898W        W20125  31.935  42.961   3.236
54899W        W20126   9.402  10.143  10.436
54900W        W20127  19.988  31.745   4.207
54901W        W20128  16.010  35.421   0.264
54902W        W20129  43.056  13.825   2.250
54903W        W20130  25.233  44.528   3.779
54904W        W20131  11.262  21.508  10.759
54905W        W20132  23.351  10.301  11.168
54906W        W20133   9.773   1.293   4.623
54907W        W20134  20.292  37.950  13.364
54908W        W20135  44.434  19.001  10.891
54909W        W20136  32.561   1.100  11.601
54910W        W20137  13.244  26.981   0.573
54911W        W20138  42.275  10.075   3.283
54912W        W20139  11.250  19.666   0.811
54913W        W20140  16.256  38.814   3.404
54914W        W20141  16.665  41.796   0.397
54915W        W20142  15.691  26.969  12.257
54916W        W20143  44.470  12.017   3.137
54917W        W20144  10.289  33.391  11.634
54918W        W20145  39.705  26.924  10.883
54919W        W20146  18.124   5.231  12.915
54920W        W20147  23.690  11.672  11.525
54921W        W20148   9.058  36.590   1.411
54922W        W20149   9.162  34.775  11.455
54923W        W20150  23.633  11.879   3.709
54924W        W20151   7.168  23.222  13.140
54925W        W20152   4.195  20.577   1.625
54926W        W20153  15.735  36.137  14.754
54927W        W20154   7.388   6.629   2.909
54928W        W20155  21.278  10.368   2.239
54929W        W20156  40.538  11.109   0.809
54930W        W20157  29.075  35.811   0.378
54931W        W20158  22.144  15.112   1.908
54932W        W20159  27.753   4.573   0.160
54933W        W20160  42.868   5.486  14.900
54934W        W20161  18.155  13.824  13.375
54935W        W20162  16.046  30.549   5.071
54936W        W20163  11.071  17.971   3.732
54937W        W20164  33.171   6.609  12.115
54938W        W20165  43.404  21.940   0.586
54939W        W20166  34.719  33.508   5.110
54940W        W20167   7.136  11.932   3.555
54941W        W20168  37.523  25.108   4.318
54942W        W20169  21.081  39.613   1.808
54943W        W20170  24.043  12.785   2.875
54944W        W20171   6.853   9.679  13.968
54945W        W20172  18.005  40.400  14.303
54946W        W20173  10.943  26.546   1.930
54947W        W20174   0.166  21.110  12.285
54948W        W20175  42.377  22.246   1.772
54949W        W20176  17.770  37.531   1.458
54950W        W20177  44.004  42.247   4.634
54951W        W20178   9.313  12.253   5.465
54952W        W20179  40.044  38.870   4.680
54953W        W20180  33.648   1.227   4.835
54954W        W20181  30.293  36.863  13.660
54955W        W20182  16.553  37.940   1.491
54956W        W20183  16.556  38.422   1.226
54957W        W20184   4.468  42.764   4.264
54958W        W20185   5.303   3.369  10.729
54959W        W20186  22.945  36.146  13.590
54960W        W20187  40.735  42.689  12.545
54961W        W20188   7.419  12.982  12.557
54962W        W20189  39.508  40.023   2.716
54963W        W20190  11.757  26.331  14.839
54964W        W20191  27.470   2.264   0.388
54965W        W20192  36.816   8.887  13.706
54966W        W20193  26.518   9.556   2.709
54967W        W20194  37.111  15.542  12.512
54968W        W20195  38.802  13.636  14.500
54969W        W20196  42.799  27.456   2.823
54970W        W20197  33.432  15.079   3.153
54971W        W20198  34.309  28.560   0.112
54972W        W20199  29.506  35.868   2.221
54973W        W20200  22.462   8.340   0.771
54974W        W20201  14.489  21.435   3.608
54975W        W20202  14.025  36.038   2.550
54976W        W20203  28.769  26.143   9.721
54977W        W20204  31.440  30.211  11.259
54978W        W20205   9.923  10.102   4.713
54979W        W20206   7.415  11.598   1.769
54980W        W20207  22.783  25.310   2.291
54981W        W20208  35.390  21.008   2.714
54982W        W20209  23.958   1.126   2.329
54983W        W20210  11.330  15.650   1.949
54984W        W20211  44.392  23.780  13.789
54985W        W20212  37.642   3.708  14.427
54986W        W20213  29.514  36.369   2.056
54987W        W20214  35.013  43.578   2.702
54988W        W20215  16.212  16.717  11.787
54989W        W20216  13.659  27.636  11.754
54990W        W20217   5.755  40.901  11.127
54991W        W20218  28.407   1.368   2.699
54992W        W20219  22.217   4.293   3.276
54993W        W20220  31.711  12.365  12.430
54994W        W20221  38.511  20.843   0.916
54995W        W20222  42.073  17.149  12.150
54996W        W20223   2.995  28.743   1.727
54997W        W20224  23.151  29.629   2.778
54998W        W20225  43.022  23.611   0.337
54999W        W20226  42.197  25.442   1.007
55000W        W20227   0.823   4.765   1.727
55001W        W20228  38.085   0.723  10.359
55002W        W20229  32.166  14.228  10.230
55003W        W20230   9.839  40.515  14.775
55004W        W20231  42.922  44.266  11.905
55005W        W20232  24.470  15.926  13.576
55006W        W20233  27.503  19.169   1.783
55007W        W20234  18.636  34.838   3.661
55008W        W20235  21.092  30.002   2.819
55009W        W20236   1.762  34.831   0.548
55010W        W20237  38.147  41.314  11.643
55011W        W20238  40.306  29.456  10.230
55012W        W20239  21.364  27.899  12.926
55013W        W20240  40.814  19.159   5.103
55014W        W20241   0.248  37.518   1.322
55015W        W20242  27.549   9.897   0.855
55016W        W20243  36.750  21.270   2.742
55017W        W20244  35.096   9.410  14.268
55018W        W20245  37.607   5.490   1.857
55019W        W20246  10.312  19.136   1.912
55020W        W20247  44.802  34.810  12.959
55021W        W20248  21.126  38.338  10.864
55022W        W20249  40.083  15.391   3.213
55023W        W20250  43.033  41.534   1.882
55024W        W20251  18.391  24.224   4.099
55025W        W20252  30.555  44.335   2.672
55026W        W20253  37.928   3.982  13.581
55027W        W20254  12.691  22.812  11.087
55028W        W20255  40.789  32.012  12.807
55029W        W20256  20.784   8.666   0.464
55030W        W20257  40.890   9.384   0.424
55031W        W20258  26.593  25.953  12.272
55032W        W20259  27.625  21.033   0.858
55033W        W20260  10.050  44.491  12.962
55034W        W20261   6.237  30.746   3.380
55035W        W20262  37.468  19.254  12.151
55036W        W20263  26.167  42.718   1.426
55037W        W20264  30.420  10.280   4.978
55038W        W20265  11.148   7.137   0.688
55039W        W20266   8.902  34.538  14.179
55040W        W20267   0.744   5.806  14.272
55041W        W20268  12.261  39.600   4.559
55042W        W20269  11.209  27.742   4.524
55043W        W20270   5.162   0.919  14.126
55044W        W20271  38.067  43.914  11.486
55045W        W20272  35.935   8.133  14.754
55046W        W20273  38.306  14.604   2.702
55047W        W20274  12.603  22.897   2.827
55048W        W20275  29.408  27.211  12.037
55049W        W20276   0.472  44.251  10.658
55050W        W20277   9.928   6.300  13.583
55051W        W20278   1.504   0.548   3.692
55052W        W20279  19.241  32.250  11.611
55053W        W20280   2.443  18.903  11.215
55054W        W20281  43.014  30.239   3.555
55055W        W20282  43.860   9.092   4.857
55056W        W20283  16.229   0.786   1.541
55057W        W20284  31.989   6.169   0.500
55058W        W20285  25.558  13.386  14.497
55059W        W20286  23.055   6.263   2.236
55060W        W20287  41.574  29.495   1.829
55061W        W20288  12.249   6.202  13.871
55062W        W20289   2.813  23.471  11.153
55063W        W20290   9.306   9.148   4.235
55064W        W20291  40.541  21.255  12.590
55065W        W20292  15.553  41.782   3.598
55066W        W20293  20.447  27.081   3.995
55067W        W20294   4.476  31.178  13.025
55068W        W20295  24.445  16.614  11.647
55069W        W20296  17.200  11.927   1.212
55070W        W20297   3.456   3.296   3.896
55071W        W20298   4.349  25.495   4.213
55072W        W20299  28.981  17.019  14.962
55073W        W20300  18.325  21.864   4.736
55074W        W20301  20.036  26.942   2.808
55075W        W20302   5.305  22.820  12.950
55076W        W20303   3.012  25.078   1.848
55077W        W20304   7.779  17.592   1.707
55078W        W20305  26.840  15.744   2.220
55079W        W20306   5.730  20.111  14.060
55080W        W20307  33.328   9.335  11.180
55081W        W20308   0.162   6.211   4.575
55082W        W20309   8.283   9.652  14.924
55083W        W20310  10.246   1.954   0.742
55084W        W20311  43.023  33.158  14.289
55085W        W20312  26.888  32.807  12.471
55086W        W20313  33.382  22.417   2.246
55087W        W20314  37.919   7.926   2.727
55088W        W20315  29.567  40.391  12.933
55089W        W20316  37.506  42.017  14.064
55090W        W20317  28.422   1.895   2.670
55091W        W20318  30.008   7.381   4.316
55092W        W20319  21.324  32.559  14.879
55093W        W20320  36.688   3.003   4.717
55094W        W20321  40.461  35.895  14.962
55095W        W20322   3.451  28.056  14.787
55096W        W20323  38.613  42.899   1.538
55097W        W20324  34.550   8.359  10.780
55098W        W20325  22.764  31.491   2.971
55099W        W20326  42.074   8.692  11.689
55100W        W20327  23.592   4.692  13.930
55101W        W20328  35.700  11.952  11.619
55102W        W20329  15.545  43.416  13.394
55103W        W20330  36.876  15.026  14.656
55104W        W20331  18.120  16.371   0.868
55105W        W20332  37.300  20.087   5.057
55106W        W20333  13.736  36.483   1.540
55107W        W20334  44.305  32.956  14.469
55108W        W20335  20.998  39.728  13.933
55109W        W20336   1.019   6.261  11.929
55110W        W20337  43.947  36.027   1.284
55111W        W20338  18.467   2.776  11.642
55112W        W20339  44.309  17.083  13.662
55113W        W20340   0.200  24.123   1.710
55114W        W20341   1.938  41.906   4.956
55115W        W20342  28.332  30.347   9.813
55116W        W20343  42.023  10.594  13.869
55117W        W20344   8.197  23.694   2.501
55118W        W20345  28.900  44.178   3.897
55119W        W20346  35.009  32.216   1.277
55120W        W20347  39.562  24.060   4.729
55121W        W20348   5.674  16.598   3.675
55122W        W20349  11.714   6.704   2.698
55123W        W20350   8.106  18.748  10.890
55124W        W20351  25.536   4.647  11.998
55125W        W20352  24.899  10.856   2.782
55126W        W20353  43.038  29.794   3.211
55127W        W20354  29.183  23.694   4.135
55128W        W20355  22.580  41.291  11.652
55129W        W20356  40.844   4.228  11.551
55130W        W20357  14.834  16.159  13.785
55131W        W20358   3.895  17.996  14.908
55132W        W20359  41.357  29.139   1.514
55133W        W20360  14.029  21.124   3.944
55134W        W20361  11.241  23.841   0.420
55135W        W20362  31.663  30.482   4.914
55136W        W20363  33.116   4.219   4.657
55137W        W20364  22.835  10.844  12.233
55138W        W20365  16.850  24.745   4.298
55139W        W20366  11.763   4.474   0.384
55140W        W20367  42.812   9.314   4.558
55141W        W20368  38.743   5.602  12.704
55142W        W20369  43.218  36.317  12.108
55143W        W20370  34.503   5.383  12.677
55144W        W20371   5.129   2.315   3.419
55145W        W20372  10.310   1.460  11.630
55146W        W20373  16.539   3.740  14.553
55147W        W20374  23.182  41.111  14.377
55148W        W20375  27.109  19.322   0.986
55149W        W20376  38.174  30.780   2.954
55150W        W20377  43.336   7.758  13.339
55151W        W20378  16.814  18.427   1.611
55152W        W20379  36.374  33.736  14.073
55153W        W20380  24.710  12.498  13.399
55154W        W20381  19.309   6.639  11.684
55155W        W20382   3.799  34.004  12.817
55156W        W20383  43.629  24.466  14.012
55157W        W20384  14.620  13.336  11.338
55158W        W20385  39.451   5.955   0.825
55159W        W20386  28.146  37.635  13.875
55160W        W20387  12.785   6.327  12.451
55161W        W20388   9.690  32.092  12.130
55162W        W20389  42.145  21.895   0.715
55163W        W20390  27.890  14.321   4.506
55164W        W20391  34.219   2.746  13.733
55165W        W20392  31.031   1.916  14.017
55166W        W20393  27.939  33.484   2.348
55167W        W20394  41.937   1.538   0.438
55168W        W20395  12.228   0.820  11.371
55169W        W20396  35.517  26.488   1.819
55170W        W20397  37.746  35.348  11.631
55171W        W20398  44.980  37.831  12.061
55172W        W20399   6.241  17.219  12.115
55173W        W20400  25.751  19.029   1.726
55174W        W20401  17.385  29.646  12.304
55175W        W20402   3.945  22.521   2.403
55176W        W20403   8.764  27.969  12.028
55177W        W20404  32.548   9.811  12.663
55178W        W20405   5.984  31.545   0.659
55179W        W20406  19.746   0.849  14.301
55180W        W20407  23.805   4.146  13.882
55181W        W20408   1.148   4.710  10.401
55182W        W20409  24.078  13.549   3.154
55183W        W20410  37.613  10.834  14.873
55184W        W20411  37.156   2.448  14.867
55185W        W20412  40.827   7.239  14.792
55186W        W20413   4.979  20.499   0.436
55187W        W20414  37.185  28.385  13.283
55188W        W20415  24.188  15.880  10.709
55189W        W20416  28.058  34.190  12.475
55190W        W20417  38.159  23.713   0.345
55191W        W20418  31.379   7.286   0.190
55192W        W20419  17.194   4.638   0.329
55193W        W20420  21.783  29.956   4.040
55194W        W20421  20.690  16.079  14.764
55195W        W20422  22.676   3.936   2.431
55196W        W20423  36.986  27.145   2.950
55197W        W20424  21.816  41.965  12.515
55198W        W20425  14.028   2.767   3.571
55199W        W20426  41.834   1.250  14.993
55200W        W20427   3.228   3.105  12.000
55201W        W20428  38.020  27.442   0.958
55202W        W20429  15.095   4.287  12.326
55203W        W20430  23.994  28.111   3.414
55204W        W20431   8.023  26.153  12.430
55205W        W20432  33.677  19.134   3.333
55206W        W20433  41.299  10.754  10.770
55207W        W20434  37.308   7.451  13.864
55208W        W20435  39.784  27.329   0.492
55209W        W20436  37.286  39.004  12.997
55210W        W20437  14.744  35.120   1.557
55211W        W20438  20.025   0.981   3.215
55212W        W20439  39.956  18.063  12.594
55213W        W20440  39.766  17.569  13.425
55214W        W20441  17.261  23.707   2.927
55215W        W20442  29.609  14.706   3.080
55216W        W20443  23.142  14.150   3.444
55217W        W20444  26.332  12.268   3.649
55218W        W20445  39.343   0.294   4.477
55219W        W20446  44.201   9.659   2.889
55220W        W20447  35.067  28.438  14.369
55221W        W20448  41.751  15.850  10.449
55222W        W20449  35.618   7.917   1.246
55223W        W20450  31.280   0.041  11.457
55224W        W20451  27.329  15.595   3.184
55225W        W20452   1.271  40.848  11.138
55226W        W20453  28.043  44.717   1.648
55227W        W20454   7.977  38.052  12.118
55228W        W20455   6.707  21.691  12.408
55229W        W20456  41.292  13.228  14.895
55230W        W20457   4.417   7.710  14.858
55231W        W20458   5.801  22.788  12.061
55232W        W20459   6.342   2.274   4.378
55233W        W20460  16.085   7.482  11.645
55234W        W20461  10.321  43.546  11.618
55235W        W20462  44.445  40.298  14.923
55236W        W20463  31.930  16.542  11.537
55237W        W20464  28.002  16.860  12.826
55238W        W20465  22.028  16.352  12.524
55239W        W20466  44.861  29.027   3.974
55240W        W20467  34.894  40.896   2.800
55241W        W20468  44.158  16.251   2.780
55242W        W20469  19.120  12.106  12.800
55243W        W20470   8.481  43.910   2.448
55244W        W20471  32.063  11.767   3.295
55245W        W20472  19.290  37.357   0.292
55246W        W20473  35.175  18.193  10.741
55247W        W20474   7.234  24.967  13.025
55248W        W20475   3.001  26.356  11.779
55249W        W20476  35.442  20.892   0.646
55250W        W20477  26.179  21.166  10.759
55251W        W20478  15.226   8.483  10.588
55252W        W20479  13.157  22.701   1.906
55253W        W20480  13.767  39.039   3.212
55254W        W20481  32.523  31.093   3.846
55255W        W20482  27.033   3.642   1.189
55256W        W20483  41.040  23.064  14.002
55257W        W20484   9.788  12.698   2.448
55258W        W20485  41.628  35.083   0.969
55259W        W20486  44.387  30.994  14.233
55260W        W20487  14.066   9.236  13.125
55261W        W20488  29.652   7.495   0.393
55262W        W20489  28.995  29.805  13.984
55263W        W20490  44.444  10.083   3.844
55264W        W20491  44.682  28.594  11.510
55265W        W20492  25.575  40.088   4.384
55266W        W20493  22.564  28.181  12.524
55267W        W20494  34.926  25.428  12.507
55268W        W20495  24.368   2.258   4.515
55269W        W20496  38.602   8.450  14.874
55270W        W20497   3.782  31.826   3.850
55271W        W20498   4.985  41.769  12.519
55272W        W20499  28.218  15.703   1.235
55273W        W20500  12.342  42.468   2.233
55274W        W20501  33.444  22.027   4.121
55275W        W20502  19.545   3.426  14.925
55276W        W20503  32.084  37.397   2.408
55277W        W20504   8.645  17.280   5.358
55278W        W20505  37.428  18.297  12.458
55279W        W20506  30.044  37.622   2.303
55280W        W20507  41.924   3.635   3.692
55281W        W20508  40.505  23.850  12.045
55282W        W20509   9.838  41.048   2.758
55283W        W20510  12.856  38.366  13.919
55284W        W20511   3.332   1.416   3.560
55285W        W20512  12.698  24.028   3.617
55286W        W20513  22.079  38.979   4.111
55287W        W20514  33.735   4.680   4.071
55288W        W20515  44.243   6.186  10.994
55289W        W20516  39.784  20.084   2.225
55290W        W20517  40.800  13.235   1.824
55291W        W20518  17.056  10.300  12.981
55292W        W20519  44.616   2.941   0.058
55293W        W20520  25.966  25.973   2.838
55294W        W20521  18.532   2.779  14.404
55295W        W20522  41.798  42.695  11.148
55296W        W20523   6.370  32.390   0.758
55297W        W20524  42.396  42.344   3.208
55298W        W20525  11.522   3.447  11.360
55299W        W20526  37.846  25.177   3.354
55300W        W20527  34.359   9.337  11.688
55301W        W20528   4.491   7.496  13.537
55302W        W20529   6.025  25.071   0.775
55303W        W20530  40.835  26.448  10.750
55304W        W20531  24.290  12.307  10.644
55305W        W20532  27.161  17.940   0.335
55306W        W20533  37.606  37.665  13.034
55307W        W20534  23.021  43.951   0.051
55308W        W20535   9.987  16.883  11.072
55309W        W20536  34.557  22.315  11.001
55310W        W20537  17.668   2.637  11.219
55311W        W20538   1.999  26.040   1.850
55312W        W20539  41.969   5.857  12.967
55313W        W20540  32.146  39.580   3.752
55314W        W20541  36.859  26.219  11.516
55315W        W20542  10.777  29.695  13.707
55316W        W20543  40.769  18.149  11.175
55317W        W20544  11.754  16.815  10.215
55318W        W20545  18.525  17.607  13.492
55319W        W20546  31.493  13.021  14.529
55320W        W20547  32.031  43.173  10.316
55321W        W20548  24.420  42.856   0.392
55322W        W20549  34.853  33.307  11.195
55323W        W20550   1.260   5.600   3.705
55324W        W20551   7.493  22.995  12.787
55325W        W20552  17.316  40.873  13.474
55326W        W20553   4.842  19.296   3.850
55327W        W20554  34.287   9.664   3.634
55328W        W20555  32.587  31.085   3.325
55329W        W20556  17.081  32.830   2.826
55330W        W20557   7.460  24.955  12.001
55331W        W20558   8.437  43.814   1.173
55332W        W20559   1.282   4.838   2.585
55333W        W20560  22.156  30.983   1.810
55334W        W20561  32.090  35.822   4.137
55335W        W20562  25.744  28.509  11.961
55336W        W20563  32.411  27.501   1.685
55337W        W20564  24.583  42.754  13.809
55338W        W20565  14.544  31.011   0.374
55339W        W20566  43.025   4.715  13.999
55340W        W20567   6.287  14.224  11.635
55341W        W20568  27.998  12.454  12.862
55342W        W20569  10.056  29.554  10.729
55343W        W20570  31.395   5.775  13.373
55344W        W20571   0.368  24.333  11.802
55345W        W20572  11.791  20.812   2.311
55346W        W20573  29.644  30.263   4.266
55347W        W20574  28.564   8.584   1.166
55348W        W20575  30.480  43.992   4.890
55349W        W20576   8.198  38.779   2.201
55350W        W20577  33.596  22.585   1.762
55351W        W20578  11.540  30.944   1.399
55352W        W20579  32.800  18.318  12.595
55353W        W20580  23.996   8.766   4.535
55354W        W20581  41.702   9.307  13.845
55355W        W20582  30.981  30.647  12.458
55356W        W20583  33.416   7.709  12.393
55357W        W20584  10.326  28.544  14.349
55358W        W20585  38.813   1.632   1.196
55359W        W20586  14.545  40.367   2.675
55360W        W20587  43.465  14.990   4.088
55361W        W20588  28.587  26.184  14.207
55362W        W20589  24.511  38.872  11.573
55363W        W20590  11.351   5.938  11.595
55364W        W20591  36.840  22.832  13.580
55365W        W20592   0.786  29.456  14.782
55366W        W20593  42.618  41.002  14.813
55367W        W20594   1.069  14.672   2.734
55368W        W20595  40.508   8.644   1.794
55369W        W20596  43.687   4.038  14.932
55370W        W20597  23.520  41.771  11.558
55371W        W20598   0.985  42.856  11.194
55372W        W20599   1.846  36.098  13.448
55373W        W20600   7.596   0.311  10.710
55374W        W20601  19.720  24.342  11.254
55375W        W20602  34.187  35.888   2.724
55376W        W20603   4.645  14.234  12.524
55377W        W20604  21.282  30.667  12.102
55378W        W20605  41.573  27.396   2.113
55379W        W20606  44.866  28.945  13.721
55380W        W20607  41.151  34.974   3.860
55381W        W20608  39.046  23.513   4.376
55382W        W20609  29.637   4.264   1.888
55383W        W20610  21.202  33.941  14.010
55384W        W20611  28.660  20.524  13.329
55385W        W20612  17.783  32.900  13.973
55386W        W20613  36.122  38.807  13.938
55387W        W20614  26.019  21.035   2.340
55388W        W20615   4.369  11.127  11.123
55389W        W20616   1.459   4.374  14.270
55390W        W20617  23.621  40.485  11.185
55391W        W20618  42.422   3.655   1.085
55392W        W20619  33.605   3.598   0.382
55393W        W20620  38.586   6.216  12.128
55394W        W20621  22.442   7.693   3.365
55395W        W20622  42.121  27.544   0.784
55396W        W20623  35.659   5.084   2.741
55397W        W20624  10.377  30.556  13.837
55398W        W20625  24.271  33.069  13.082
55399W        W20626  10.166  36.805   1.818
55400W        W20627  37.825  27.010  10.696
55401W        W20628  37.214  23.498   3.075
55402W        W20629  40.500   6.868  12.897
55403W        W20630   5.914  28.421   1.327
55404W        W20631  19.447  32.783  11.144
55405W        W20632  23.044  40.933   1.882
55406W        W20633  13.665   5.765  13.123
55407W        W20634  32.105  42.065  10.838
55408W        W20635  40.428  16.256   0.948
55409W        W20636  15.191   0.776   4.603
55410W        W20637   5.243  15.432   2.710
55411W        W20638  19.285  17.591  12.427
55412W        W20639  43.353  44.545  11.883
55413W        W20640   8.765  17.345  13.953
55414W        W20641  29.379   4.302  13.831
55415W        W20642  28.647   2.817   0.079
55416W        W20643   7.723  31.994  12.472
55417W        W20644  43.527   4.097  12.874
55418W        W20645   4.676   6.835  12.953
55419W        W20646   0.278   8.524  12.489
55420W        W20647  42.201  33.881   1.034
55421W        W20648   1.146   1.283  12.865
55422W        W20649  36.431  14.644   0.503
55423W        W20650   7.480   0.757   1.764
55424W        W20651  36.618  21.761   4.675
55425W        W20652  22.061  33.090  13.116
55426W        W20653   5.769  10.734   0.802
55427W        W20654  28.118  38.152   5.077
55428W        W20655  42.141  33.530  12.055
55429W        W20656   6.099  19.615  11.717
55430W        W20657   1.536   7.681  14.499
55431W        W20658  26.968  28.464   0.599
55432W        W20659  12.141  27.174   3.191
55433W        W20660  21.107  43.507   2.456
55434W        W20661  42.435  24.092   1.412
55435W        W20662  11.951  16.842   3.075
55436W        W20663  30.354  11.112   2.771
55437W        W20664   6.669   0.379   9.885
55438W        W20665  28.185  20.578   4.933
55439W        W20666   8.808  20.258  12.523
55440W        W20667  12.383  14.987   2.336
55441W        W20668  18.102  23.573   3.737
55442W        W20669  30.495   5.450   1.934
55443W        W20670  16.318   2.668   4.706
55444W        W20671  34.613  28.614   3.110
55445W        W20672  14.397  22.344   3.634
55446W        W20673  14.957   8.109  12.823
55447W        W20674  34.059   9.853   0.336
55448W        W20675  19.924  18.344  12.770
55449W        W20676  11.071  30.454   2.671
55450W        W20677  25.631   5.810   4.570
55451W        W20678  44.724  32.377  11.660
55452W        W20679  23.563  11.641   3.230
55453W        W20680  14.416  10.751   2.090
55454W        W20681  35.760  39.329  11.484
55455W        W20682  20.605  42.607   4.620
55456W        W20683  13.268  27.937  12.979
55457W        W20684  15.860  37.831   2.900
55458W        W20685  10.594  42.749   1.349
55459W        W20686  33.581  22.938   0.309
55460W        W20687  26.807  36.113  12.440
55461W        W20688  12.609  38.804   3.094
55462W        W20689   7.239  16.540   1.038
55463W        W20690  14.154  37.124  12.609
55464W        W20691  19.669   9.510  14.272
55465W        W20692  37.832   6.924   1.881
55466W        W20693  11.622  23.443   0.638
55467W        W20694  36.443   3.576  11.504
55468W        W20695  26.583  28.200  12.027
55469W        W20696  38.564  41.267   4.290
55470W        W20697   9.312  42.903  13.119
55471W        W20698  43.817  13.073  12.077
55472W        W20699  10.410  38.454  14.670
55473W        W20700   1.296  22.302   1.903
55474W        W20701   0.538  11.405  12.801
55475W        W20702  27.978  28.904  14.022
55476W        W20703  11.791   1.337  14.683
55477W        W20704  39.520  16.345   0.442
55478W        W20705   8.192  41.823  11.484
55479W        W20706   9.426  26.501  12.955
55480W        W20707  44.950  39.931   1.657
55481W        W20708  42.416  38.944  11.600
55482W        W20709   5.841  23.647  11.124
55483W        W20710  22.753  40.166  12.632
55484W        W20711   0.855  41.605  13.956
55485W        W20712   8.711  23.498   3.243
55486W        W20713   4.886   0.536   3.655
55487W        W20714  10.682  17.047  14.348
55488W        W20715   9.172  40.280   2.870
55489W        W20716  31.983   1.379  12.249
55490W        W20717  12.611  12.112  10.720
55491W        W20718  40.897  15.155   0.883
55492W        W20719  20.768   7.582  14.894
55493W        W20720  29.175  30.967   1.224
55494W        W20721  19.537  20.093   0.790
55495W        W20722   7.362  22.008   3.627
55496W        W20723  30.321  42.600  14.370
55497W        W20724  32.286  21.682   0.306
55498W        W20725  25.851   2.411   5.036
55499W        W20726  25.963  42.947   0.178
55500W        W20727  16.257  42.028  14.224
55501W        W20728  13.596  36.806   0.187
55502W        W20729   5.797   3.665   1.771
55503W        W20730  13.834  11.238   3.663
55504W        W20731  21.321  37.452  14.801
55505W        W20732  29.908  39.559   2.215
55506W        W20733  18.714  21.742   3.332
55507W        W20734  34.452  10.934   3.093
55508W        W20735  18.456  40.552   5.108
55509W        W20736  36.507   8.703   0.010
55510W        W20737  32.886  41.439   4.149
55511W        W20738   7.068  33.488  10.786
55512W        W20739   1.337  19.370  12.409
55513W        W20740   2.708  19.287  12.524
55514W        W20741   7.194  13.165   1.662
55515W        W20742  30.557   2.006  10.989
55516W        W20743  35.416   1.838  12.977
55517W        W20744  23.105  31.325   3.305
55518W        W20745   7.882  12.161   0.438
55519W        W20746   2.689   2.987   1.277
55520W        W20747   5.186   6.634   0.108
55521W        W20748  21.748  42.041   2.764
55522W        W20749  27.428   7.851  11.495
55523W        W20750  30.078  36.582  12.038
55524W        W20751  23.124  41.969  11.257
55525W        W20752  18.259  28.152   3.954
55526W        W20753  19.676  24.164  13.736
55527W        W20754  23.363  14.150  12.308
55528W        W20755  40.540  33.073   2.944
55529W        W20756  25.189  19.929   3.274
55530W        W20757  41.433  40.921  11.666
55531W        W20758  17.982  11.514   3.189
55532W        W20759  21.475  10.799  14.035
55533W        W20760   7.071  27.290  13.018
55534W        W20761  12.869  28.761  11.092
55535W        W20762  37.030  42.531   3.337
55536W        W20763  29.672  18.616   1.756
55537W        W20764  37.078  36.985  10.644
55538W        W20765  43.762  29.252   4.090
55539W        W20766  23.437  27.818  11.442
55540W        W20767   9.112  30.070   4.127
55541W        W20768  28.441   0.125   0.772
55542W        W20769  44.280  23.934   4.165
55543W        W20770   2.175  24.255  11.968
55544W        W20771   4.248  13.314   4.604
55545W        W20772  37.267  39.889  11.815
55546W        W20773  30.489  31.794  13.703
55547W        W20774  20.565   5.167   4.238
55548W        W20775   6.018   8.632   0.807
55549W        W20776  28.581   9.547   0.845
55550W        W20777  44.395  14.219   0.650
55551W        W20778  25.059  25.708  12.600
55552W        W20779   4.281  40.010   1.726
55553W        W20780  26.233   8.491  12.138
55554W        W20781  41.394  31.989   4.050
55555W        W20782  21.727   9.703  12.572
55556W        W20783  43.894  19.496   3.616
55557W        W20784   1.468   5.941   3.231
55558W        W20785  13.603  37.734   0.801
55559W        W20786  19.946  21.817  11.698
55560W        W20787  29.789  25.707  10.799
55561W        W20788  18.030  43.913   4.157
55562W        W20789  25.461  27.320   2.883
55563W        W20790  43.832  39.383   3.670
55564W        W20791  25.001  14.662  10.716
55565W        W20792  12.235  16.797   2.632
55566W        W20793  38.870   1.144   1.366
55567W        W20794  23.033  30.329   4.840
55568W        W20795  26.706  32.498  10.545
55569W        W20796  35.781  34.065   3.795
55570W        W20797  36.562  14.516   1.918
55571W        W20798  19.585  25.274  11.283
55572W        W20799   7.639  30.641   1.868
55573W        W20800   2.819  11.302  10.876
55574W        W20801   0.355  14.764  13.591
55575W        W20802  35.520  29.670   0.776
55576W        W20803  19.194  15.523  10.708
55577W        W20804   5.640  41.312   5.068
55578W        W20805  27.104  19.705  10.627
55579W        W20806  31.921   4.899   1.970
55580W        W20807  37.358  14.117   2.866
55581W        W20808  14.954  26.776   0.370
55582W        W20809  13.521  30.394   1.479
55583W        W20810  19.186  25.464   2.577
55584W        W20811  34.387  11.874  11.178
55585W        W20812  42.347   9.578  11.093
55586W        W20813  34.557  22.962   1.895
55587W        W20814  28.074   9.911  12.939
55588W        W20815  27.144  36.008   4.675
55589W        W20816  10.846   8.319  10.919
55590W        W20817  28.156  34.815  13.539
55591W        W20818  31.741   0.962   0.003
55592W        W20819  19.578  24.729   0.386
55593W        W20820   9.303  40.086  11.551
55594W        W20821  18.287   3.390  12.822
55595W        W20822  38.363  41.383   2.277
55596W        W20823  24.120  34.575  11.210
55597W        W20824  10.660  36.450  11.471
55598W        W20825  12.288  36.506  12.094
55599W        W20826  22.237  38.544   1.331
55600W        W20827  24.818  14.407   0.722
55601W        W20828  41.680  18.143  10.748
55602W        W20829   9.158  38.393   2.143
55603W        W20830  31.246  14.706   4.119
55604W        W20831   8.388  43.931  12.383
55605W        W20832  23.535   7.768   2.313
55606W        W20833   4.137  24.247  11.178
55607W        W20834   2.521  29.452  12.092
55608W        W20835   2.415   1.828  10.669
55609W        W20836  15.765   3.575  10.646
55610W        W20837  20.806  32.907  12.976
55611W        W20838   2.871  29.811  14.550
55612W        W20839  29.241   6.415  12.588
55613W        W20840  26.141  10.503   4.849
55614W        W20841  37.169  23.979  12.877
55615W        W20842   7.674  18.745  11.227
55616W        W20843  32.426   3.225  10.363
55617W        W20844  28.575   2.960   2.725
55618W        W20845  25.488   5.187   9.959
55619W        W20846   9.819  17.283  13.043
55620W        W20847  24.191  22.414   5.046
55621W        W20848   9.239   5.132  11.159
55622W        W20849  35.865  38.076  11.064
55623W        W20850  10.846  35.872  13.949
55624W        W20851  24.746  24.625  13.464
55625W        W20852  25.501  11.705   1.078
55626W        W20853  24.699   2.548   5.692
55627W        W20854  35.679  20.675  13.562
55628W        W20855  38.920   8.816  12.594
55629W        W20856  13.855  44.962  11.939
55630W        W20857  30.520  31.887   4.121
55631W        W20858  40.007  38.339  11.689
55632W        W20859  13.165   8.862  12.609
55633W        W20860  19.676  30.209   2.777
55634W        W20861  22.747  10.161  14.544
55635W        W20862  24.460  11.281  13.877
55636W        W20863   7.062  29.179  10.724
55637W        W20864  18.473   1.886   1.505
55638W        W20865  32.642  19.105   4.125
55639W        W20866  28.661  27.112  13.078
55640W        W20867   8.142  36.158   3.206
55641W        W20868  16.294   4.755  11.884
55642W        W20869  21.395  39.856  12.641
55643W        W20870  23.679  43.996  12.948
55644W        W20871  40.227  22.782  12.372
55645W        W20872  13.707  33.815   2.784
55646W        W20873   5.705  27.177   3.790
55647W        W20874  36.777  37.555   3.217
55648W        W20875  24.644   3.366   4.530
55649W        W20876  18.253  41.771   0.673
55650W        W20877  20.827   7.636  13.604
55651W        W20878   8.252   4.319   3.600
55652W        W20879  21.724  22.639   2.429
55653W        W20880  32.039   2.634  12.497
55654W        W20881  15.158   9.494   0.378
55655W        W20882  42.586   0.207   3.251
55656W        W20883   5.389  11.655   3.593
55657W        W20884  23.167  35.233  12.358
55658W        W20885  35.077   9.860   4.598
55659W        W20886  25.499   5.205   0.578
55660W        W20887  30.533  32.596  14.537
55661W        W20888   6.885  11.760   2.753
55662W        W20889  17.455  22.308  11.029
55663W        W20890   0.435  18.804  14.960
55664W        W20891  17.704  37.909   0.712
55665W        W20892  30.055  23.865   0.257
55666W        W20893  21.990   4.374   4.547
55667W        W20894   0.910  27.593   2.302
55668W        W20895   1.325  41.442  12.053
55669W        W20896  40.769  11.265  12.059
55670W        W20897  41.941  37.486   3.155
55671W        W20898   4.700  21.013  10.698
55672W        W20899   7.773   7.956  14.653
55673W        W20900  38.821  28.729  11.526
55674W        W20901  12.816  44.071  11.840
55675W        W20902  19.333   8.143  12.383
55676W        W20903   1.454  28.531  11.264
55677W        W20904  32.905  44.872   2.162
55678W        W20905  35.450  43.876   3.435
55679W        W20906   4.664  26.143  11.945
55680W        W20907   7.848  21.635   0.755
55681W        W20908  31.501   8.775   4.961
55682W        W20909   5.847  39.465   3.048
55683W        W20910  34.739  40.642  13.290
55684W        W20911  29.122  42.029  11.083
55685W        W20912  26.273   5.638  12.605
55686W        W20913  44.126  35.055  13.644
55687W        W20914  15.782   6.706  11.731
55688W        W20915  36.366  33.877   2.557
55689W        W20916  29.615  25.498  13.916
55690W        W20917   8.245  13.106   3.209
55691W        W20918  11.912  10.380  12.984
55692W        W20919   6.698  25.593  13.435
55693W        W20920  34.944  13.234   2.632
55694W        W20921  25.929  41.365   1.764
55695W        W20922   2.846   2.065   1.244
55696W        W20923   0.313  34.724   0.916
55697W        W20924   1.506  42.466  12.054
55698W        W20925  30.722   9.458  14.303
55699W        W20926  18.825  34.267  14.850
55700W        W20927   5.289  19.779  11.339
55701W        W20928   0.756  35.459  14.144
55702W        W20929  22.238  19.770  12.524
55703W        W20930  43.066  28.842   2.142
55704W        W20931  27.161  32.537  10.819
55705W        W20932  30.199  21.086   2.967
55706W        W20933  16.541   9.576  13.420
55707W        W20934   3.499  30.314  12.308
55708W        W20935  22.310  22.695   3.701
55709W        W20936  44.829  32.409   4.125
55710W        W20937  16.203  32.943  14.026
55711W        W20938  25.998  10.246  14.939
55712W        W20939   3.149  32.456   1.271
55713W        W20940  20.519   3.979  11.033
55714W        W20941  16.665  43.277   0.070
55715W        W20942  25.740   1.417   0.746
55716W        W20943  33.508  10.639   2.255
55717W        W20944  41.898  31.134   3.104
55718W        W20945  15.216  37.293   2.139
55719W        W20946   7.565  43.820   0.350
55720W        W20947  40.224  38.341   1.868
55721W        W20948  32.389  35.960   3.377
55722W        W20949  25.656  33.488  12.794
55723W        W20950  36.357   7.130   2.670
55724W        W20951  33.633   3.253  12.584
55725W        W20952  20.012  35.965   5.013
55726W        W20953  31.062  19.191  13.583
55727W        W20954  27.503  18.546  13.471
55728W        W20955  38.698  26.491   0.807
55729W        W20956  30.072  42.339   0.933
55730W        W20957  20.552  41.944  14.251
55731W        W20958   7.820  22.243  11.207
55732W        W20959   5.913  16.364  10.679
55733W        W20960  28.326  27.117  12.707
55734W        W20961  38.569  37.646  12.928
55735W        W20962  29.687  35.084   3.595
55736W        W20963  12.582  44.930  11.832
55737W        W20964  32.900  13.550  14.418
55738W        W20965   6.171   3.954   1.275
55739W        W20966  27.685  31.161   0.942
55740W        W20967  17.496  28.278   3.083
55741W        W20968   7.297   6.102   2.875
55742W        W20969  19.391  28.091   2.235
55743W        W20970  15.100  18.519   0.288
55744W        W20971  16.059   8.426   3.726
55745W        W20972   2.656  10.848  11.087
55746W        W20973  14.352   0.468   3.329
55747W        W20974  14.493   8.349  13.834
55748W        W20975  13.704   4.859   0.239
55749W        W20976  34.552   8.844  11.655
55750W        W20977  29.002   7.127  10.605
55751W        W20978  28.580  33.034  14.436
55752W        W20979  35.999  12.445   3.171
55753W        W20980  27.167   3.370  12.443
55754W        W20981  31.623  23.106   3.621
55755W        W20982  35.052  17.110   3.747
55756W        W20983  35.471   4.028   4.770
55757W        W20984  28.703   0.651   2.959
55758W        W20985  42.282  23.059   2.675
55759W        W20986  30.663  25.255   1.270
55760W        W20987  14.381  37.013   2.324
55761W        W20988  36.468  36.313  11.102
55762W        W20989  24.765  11.697  13.839
55763W        W20990   6.899   2.869   2.398
55764W        W20991  30.892   1.471   2.887
55765W        W20992  27.671   0.410   2.172
55766W        W20993  22.567  21.172   2.328
55767W        W20994   6.702   7.749   0.551
55768W        W20995   6.643  43.816   0.667
55769W        W20996  28.207  30.190   2.158
55770W        W20997  27.072  38.072  10.638
55771W        W20998  34.745  22.863  14.719
55772W        W20999  18.451   9.155   1.781
55773W        W21000  22.047  21.082   4.346
55774W        W21001  43.398  33.604   2.263
55775W        W21002   5.738  32.152  11.110
55776W        W21003  43.480  39.404  12.048
55777W        W21004  38.111  13.357  11.643
55778W        W21005  21.511  14.360  13.878
55779W        W21006  19.613  23.615   0.516
55780W        W21007  15.710  11.083  13.801
55781W        W21008  16.127  25.605   2.445
55782W        W21009  44.879   9.740   1.184
55783W        W21010  34.412  20.127  11.238
55784W        W21011  44.683  21.792  10.858
55785W        W21012  42.116  43.390  13.488
55786W        W21013  40.878  23.568  11.081
55787W        W21014  19.235  13.786   2.064
55788W        W21015  19.303  38.084   0.182
55789W        W21016   2.077  33.423  14.535
55790W        W21017  34.144  21.253   0.334
55791W        W21018   2.251  29.310   2.733
55792W        W21019  14.059  15.743  14.923
55793W        W21020  22.568  16.224  10.766
55794W        W21021  19.642  27.092   1.624
55795W        W21022  27.220  33.134  11.051
55796W        W21023  36.974   4.101   4.287
55797W        W21024  22.788  40.529   1.716
55798W        W21025   1.805   8.291   4.098
55799W        W21026  39.486  23.965   4.225
55800W        W21027   1.784  38.833   1.104
55801W        W21028  30.135   9.999  11.144
55802W        W21029  35.616  29.407   2.372
55803W        W21030  12.462  37.132   2.832
55804W        W21031  27.523  38.556  11.950
55805W        W21032   2.138   5.365   0.431
55806W        W21033  14.342  13.227   4.650
55807W        W21034  38.075  28.008   4.153
55808W        W21035   3.726  37.271   0.743
55809W        W21036  42.018  36.335  10.695
55810W        W21037  37.970  28.368  13.353
55811W        W21038  29.446  11.213   3.057
55812W        W21039   3.283   9.335   4.244
55813W        W21040  37.510  42.939  13.914
55814W        W21041  27.357  18.114   1.955
55815W        W21042  26.228  17.083  11.655
55816W        W21043  17.047  18.156   2.875
55817W        W21044  30.362  17.662  11.677
55818W        W21045  16.802  29.459   3.220
55819W        W21046  33.608   9.686  13.284
55820W        W21047  14.448  35.384   1.924
55821W        W21048  23.028  12.792  14.227
55822W        W21049  43.585   5.376  14.478
55823W        W21050  25.899  36.612   1.247
55824W        W21051  26.920  35.775  13.827
55825W        W21052   7.198   5.239  14.163
55826W        W21053  19.033   5.529   1.760
55827W        W21054   1.344   7.677   4.563
55828W        W21055  16.734  17.066  11.078
55829W        W21056  25.536  39.511  14.469
55830W        W21057  36.003  44.755   4.648
55831W        W21058  35.876  34.677   2.695
55832W        W21059  25.253  29.567  12.561
55833W        W21060  12.428  19.062   0.704
55834W        W21061  19.591   4.196  10.660
55835W        W21062  42.334  41.578  13.849
55836W        W21063  17.123  32.578   4.125
55837W        W21064  13.623  22.420   3.824
55838W        W21065  24.411  30.411   1.188
55839W        W21066  36.340  14.711  10.804
55840W        W21067  33.247  38.922   1.431
55841W        W21068  17.601  18.010   4.640
55842W        W21069  34.003  16.554  11.358
55843W        W21070  43.490  40.255  11.742
55844W        W21071   4.229  12.271   4.663
55845W        W21072  40.540   3.100   2.776
55846W        W21073  31.179   6.700   3.237
55847W        W21074  42.032   4.744  12.466
55848W        W21075   8.089  14.326   3.587
55849W        W21076  42.033  24.981   0.854
55850W        W21077  29.692  30.490   3.612
55851W        W21078  18.552  41.161  10.033
55852W        W21079  32.524  11.564   3.135
55853W        W21080  41.361   6.261  11.854
55854W        W21081   2.741   2.041  13.994
55855W        W21082   9.312  44.025  11.946
55856W        W21083   3.592  34.665   1.318
55857W        W21084  43.298  18.298  11.048
55858W        W21085  21.724  29.162  13.931
55859W        W21086  31.929  31.194  12.616
55860W        W21087  37.158  37.261   1.822
55861W        W21088  28.998  36.166  11.622
55862W        W21089  34.845  31.879   5.339
55863W        W21090  27.194  40.918  10.771
55864W        W21091   3.864  31.016  10.704
55865W        W21092  11.482  23.823  12.870
55866W        W21093  10.451   9.095   0.429
55867W        W21094  17.802   0.961  14.264
55868W        W21095  36.998  10.986   0.784
55869W        W21096  27.146  44.449   1.807
55870W        W21097  11.160  42.543   3.932
55871W        W21098  37.395  19.705  14.484
55872W        W21099  13.601  30.034   0.298
55873W        W21100  11.169  24.266   1.392
55874W        W21101  36.311  36.098   0.921
55875W        W21102   8.813  29.893   0.433
55876W        W21103   4.260   6.368   0.166
55877W        W21104  34.685  33.078  12.091
55878W        W21105  25.572  24.475   2.112
55879W        W21106   4.445   8.534  14.538
55880W        W21107   0.299  40.590   0.456
55881W        W21108  27.658  41.259  13.050
55882W        W21109  26.730  30.182  11.117
55883W        W21110  32.371  22.386   2.322
55884W        W21111  24.085  39.886   0.729
55885W        W21112  33.638  20.994  12.564
55886W        W21113  33.483  15.204   1.860
55887W        W21114  34.602   0.478  14.364
55888W        W21115  12.637  14.811  14.894
55889W        W21116   2.526  20.805  10.572
55890W        W21117   1.506  16.116   1.868
55891W        W21118  25.546  18.754   0.436
55892W        W21119  36.227  33.819   3.053
55893W        W21120  41.595  38.441   2.367
55894W        W21121  17.294  15.062   4.663
55895W        W21122   3.372  32.850  11.597
55896W        W21123  15.890   0.244   2.820
55897W        W21124  21.630  43.827  11.183
55898W        W21125  30.529  24.659   0.573
55899W        W21126  34.394   0.494  13.060
55900W        W21127  19.715  12.598  13.324
55901W        W21128  40.325  39.575  12.159
55902W        W21129   3.671  27.090  12.055
55903W        W21130  43.756  20.689  11.986
55904W        W21131  41.172   5.218  11.626
55905W        W21132  37.207  24.729   4.507
55906W        W21133  15.548  14.185   4.817
55907W        W21134  16.002   9.427   0.094
55908W        W21135   4.671  13.663  13.056
55909W        W21136  11.950   7.474   2.226
55910W        W21137  32.893  16.391   0.780
55911W        W21138   5.200  37.052  10.610
55912W        W21139  30.123  20.656   2.617
55913W        W21140  28.796   3.634  12.991
55914W        W21141  44.992  11.408   3.615
55915W        W21142  42.929  35.488   3.222
55916W        W21143  11.163  33.372   0.771
55917W        W21144   0.735  10.669   2.388
55918W        W21145  31.395   9.402   2.726
55919W        W21146  20.596  29.387   0.728
55920W        W21147  41.253   0.920  10.651
55921W        W21148   9.427   1.558  14.386
55922W        W21149   3.317  39.890  14.907
55923W        W21150   3.283  41.990   5.157
55924W        W21151   5.732  29.975   0.289
55925W        W21152   0.125  28.965   0.194
55926W        W21153   0.471  44.170  11.585
55927W        W21154  35.568   6.257  13.501
55928W        W21155  18.710  34.771  14.923
55929W        W21156  29.017   7.683   2.364
55930W        W21157  37.259  24.828   0.227
55931W        W21158  32.447  18.133   3.730
55932W        W21159  34.152  13.237   0.919
55933W        W21160  41.450  17.833  11.206
55934W        W21161  15.318  36.735  11.641
55935W        W21162   6.128  24.517   2.713
55936W        W21163  25.272   3.989   4.548
55937W        W21164  26.098   8.146   2.074
55938W        W21165  43.087  14.247  14.267
55939W        W21166  28.956  21.757  12.148
55940W        W21167  27.767  33.470  10.794
55941W        W21168   3.431  17.239   4.569
55942W        W21169  14.152   6.431   2.313
55943W        W21170  29.384   0.711   4.107
55944W        W21171  29.895  21.271   0.367
55945W        W21172  44.966  37.614  13.711
55946W        W21173  29.067  33.143  10.966
55947W        W21174   3.024  38.593  12.658
55948W        W21175  30.459  34.927  14.995
55949W        W21176  14.642  40.612  11.365
55950W        W21177   1.355  20.009  10.041
55951W        W21178  17.766  33.103   4.553
55952W        W21179  29.781  43.931   4.423
55953W        W21180  41.565  24.581  11.455
55954W        W21181  16.964   2.763   1.398
55955W        W21182  23.696  33.454  11.213
55956W        W21183  17.254  27.093   2.056
55957W        W21184  36.378  40.820   3.553
55958W        W21185  42.237  13.702   1.880
55959W        W21186  13.922  33.627  13.895
55960W        W21187  29.501  32.887  14.020
55961W        W21188  16.483  34.021  13.590
55962W        W21189  19.625  15.626   3.752
55963W        W21190  10.704  17.675   1.953
55964W        W21191  41.093   7.026  10.558
55965W        W21192   4.696   5.358   0.907
55966W        W21193   0.876  37.663   5.078
55967W        W21194   4.751  31.038   4.264
55968W        W21195  42.914  36.959  13.854
55969W        W21196   3.721  25.826   1.756
55970W        W21197  18.144   8.761  10.943
55971W        W21198  27.853  35.458   0.782
55972W        W21199  43.959  17.915   5.394
55973W        W21200   6.381  28.675  10.586
55974W        W21201  16.320  31.708  12.476
55975W        W21202   1.269  18.968   5.510
55976W        W21203  30.833   2.364  14.956
55977W        W21204  39.860  19.852   4.482
55978W        W21205  15.124  17.014   0.540
55979W        W21206  28.430   5.834  11.485
55980W        W21207   2.338   3.636  10.949
55981W        W21208   8.951  14.291  13.033
55982W        W21209  39.426  18.360  13.838
55983W        W21210   4.959  40.378   2.804
55984W        W21211  33.545  33.180  12.761
55985W        W21212   4.606  39.548  11.058
55986W        W21213  22.083   3.056  14.762
55987W        W21214  25.832  20.114   3.651
55988W        W21215  10.603  29.715  12.759
55989W        W21216   6.119  18.808  10.045
55990W        W21217  15.440  25.176   2.544
55991W        W21218  11.036  25.430  10.622
55992W        W21219   7.988  34.431  13.082
55993W        W21220  28.038  20.055   1.242
55994W        W21221  31.603  22.006   4.491
55995W        W21222  21.721  11.283  14.014
55996W        W21223  36.311  22.207  12.505
55997W        W21224  32.924   9.560  12.361
55998W        W21225  10.803  39.308  11.931
55999W        W21226  40.773  28.993   0.928
56000W        W21227  36.960  28.494   2.744
56001W        W21228  23.106  35.810  13.228
56002W        W21229  42.873  24.682  11.665
56003W        W21230   3.749  30.899  14.373
56004W        W21231   1.721   3.187   3.252
56005W        W21232  21.652  15.798  10.654
56006W        W21233  34.044  44.381  13.017
56007W        W21234   8.926  26.339  11.300
56008W        W21235  36.634  40.751  10.249
56009W        W21236   0.935   8.141   2.614
56010W        W21237   0.787  37.256  11.948
56011W        W21238   8.689   3.815   4.236
56012W        W21239  40.322  20.061   4.592
56013W        W21240  37.813   6.494   2.720
56014W        W21241  21.337  31.205   4.248
56015W        W21242  22.006   0.441  13.884
56016W        W21243  26.960  18.853  14.516
56017W        W21244  11.887  37.114   0.455
56018W        W21245   2.913  34.014  11.520
56019W        W21246   9.654  28.998   0.911
56020W        W21247  24.112  11.353  11.664
56021W        W21248  25.301  17.242  13.684
56022W        W21249  24.570   2.525   2.247
56023W        W21250   3.718  14.547   1.746
56024W        W21251  35.601  14.417  10.618
56025W        W21252  14.584  43.159   3.459
56026W        W21253  26.518  29.913   4.627
56027W        W21254  23.126   7.148  12.378
56028W        W21255  17.067  28.008  13.386
56029W        W21256  34.975  18.579  13.008
56030W        W21257  27.080  25.368   4.532
56031W        W21258  20.457  18.071  11.103
56032W        W21259  21.077  28.016  12.535
56033W        W21260   5.977   8.183  13.544
56034W        W21261   6.671   7.246   3.279
56035W        W21262  19.376  28.673  11.087
56036W        W21263  31.754  37.072   2.606
56037W        W21264  13.482  23.244  12.608
56038W        W21265  21.242  34.277  10.458
56039W        W21266  29.166  15.377  14.288
56040W        W21267  35.785  34.919   1.339
56041W        W21268  33.886  18.103  10.727
56042W        W21269  10.263  24.726  11.322
56043W        W21270  30.579  30.993  14.848
56044W        W21271  44.440  39.204  12.964
56045W        W21272  14.821   5.532   1.312
56046W        W21273  13.631  24.123   3.669
56047W        W21274  33.080  33.011   0.770
56048W        W21275  34.182  16.566   3.430
56049W        W21276  27.691  30.347   2.077
56050W        W21277  23.601  17.855  14.293
56051W        W21278  12.854  26.095   1.010
56052W        W21279  16.209  43.799  13.883
56053W        W21280  17.298  12.290   2.405
56054W        W21281  43.540  10.763   2.559
56055W        W21282  32.627  16.537   1.241
56056W        W21283  17.133  25.788   2.756
56057W        W21284  28.444   0.759   3.915
56058W        W21285  29.150   3.745   1.972
56059W        W21286  36.429   3.610   4.076
56060W        W21287  26.205   3.489   2.614
56061W        W21288  25.551  44.559   4.798
56062W        W21289  11.481  13.743  12.570
56063W        W21290  19.330  11.531   3.244
56064W        W21291  14.381   5.713   4.113
56065W        W21292  18.706  39.634  12.934
56066W        W21293  16.828  40.673  11.045
56067W        W21294   7.930  41.675   1.933
56068W        W21295   2.918  28.786   3.658
56069W        W21296  28.338  15.218   3.244
56070W        W21297  19.799  34.132   0.352
56071W        W21298  42.540  39.584  14.994
56072W        W21299   5.322  34.122  14.604
56073W        W21300  24.580  10.081   3.256
56074W        W21301  28.588   1.299   0.443
56075W        W21302   4.028  12.886   1.968
56076W        W21303  43.397  41.815   4.692
56077W        W21304   8.966  26.618   0.285
56078W        W21305  20.067  19.055  11.999
56079W        W21306  30.059  40.797  11.473
56080W        W21307  37.364  44.054   0.439
56081W        W21308  12.207   3.478  13.840
56082W        W21309  18.512  36.595   2.076
56083W        W21310  38.840  25.586   0.767
56084W        W21311  31.130  10.385  13.265
56085W        W21312  10.708   3.762   4.117
56086W        W21313  36.474  40.867   0.762
56087W        W21314  16.141  19.052   0.433
56088W        W21315   7.229  22.259   2.293
56089W        W21316  27.167   6.337  12.945
56090W        W21317  21.737  17.650   4.769
56091W        W21318  32.114  23.765  11.145
56092W        W21319  29.754  39.874   2.611
56093W        W21320   1.328  26.275   0.011
56094W        W21321   4.209  17.928   4.621
56095W        W21322  10.757   6.900   0.932
56096W        W21323  27.128   0.431   0.328
56097W        W21324  10.292  10.804   2.236
56098W        W21325  19.081  26.168  10.966
56099W        W21326  28.120  15.291  10.583
56100W        W21327  22.264  32.053  11.236
56101W        W21328  20.480   5.406  11.001
56102W        W21329  24.578   3.772  14.436
56103W        W21330  11.786   0.815  11.691
56104W        W21331  42.153   3.047   3.709
56105W        W21332  36.064  34.950  11.080
56106W        W21333   9.408   5.931  13.956
56107W        W21334  19.680  38.006   2.758
56108W        W21335  14.597  44.821   2.620
56109W        W21336  32.085  11.321  14.329
56110W        W21337   9.919   3.340  12.021
56111W        W21338  41.907   6.808  11.681
56112W        W21339  17.809  18.661   0.894
56113W        W21340  16.145   6.755   0.393
56114W        W21341  29.656  37.323   0.982
56115W        W21342  33.575  12.729  14.395
56116W        W21343   3.382  32.886   2.772
56117W        W21344  22.857  43.397  12.953
56118W        W21345  10.642  41.833   3.741
56119W        W21346  24.504  27.358   0.282
56120W        W21347  41.781  10.643  11.659
56121W        W21348  17.352   1.876   4.144
56122W        W21349   5.762  39.750   1.835
56123W        W21350  19.826  38.888   3.139
56124W        W21351  41.587   3.326   4.749
56125W        W21352  14.250  29.130  11.081
56126W        W21353  42.412  15.559   4.184
56127W        W21354  22.329   0.639  12.564
56128W        W21355   5.899  39.122  13.471
56129W        W21356   8.152  25.342  12.892
56130W        W21357   3.828  31.947   3.351
56131W        W21358  40.230  40.492  11.332
56132W        W21359   1.917  10.387  11.009
56133W        W21360  13.764  39.303  13.395
56134W        W21361  31.917  38.732   1.211
56135W        W21362   0.511  12.163   0.068
56136W        W21363  35.645  39.736   4.315
56137W        W21364   8.693  18.787  14.925
56138W        W21365  19.702  13.149   1.818
56139W        W21366   2.808  22.363   9.761
56140W        W21367  27.229   7.972   1.249
56141W        W21368  16.646  18.748  11.208
56142W        W21369  42.506  23.274   0.171
56143W        W21370  36.404   8.608  12.649
56144W        W21371  25.111   3.018  14.395
56145W        W21372  31.962  41.915  11.321
56146W        W21373   9.655  33.579   3.903
56147W        W21374   8.367  30.553   1.404
56148W        W21375  37.271  23.682   4.582
56149W        W21376   3.214   6.223  12.555
56150W        W21377  33.922   9.346  13.970
56151W        W21378  35.413  28.156   3.476
56152W        W21379   7.790  11.927   1.878
56153W        W21380  16.272   3.038  12.500
56154W        W21381  29.806  33.475   3.711
56155W        W21382  39.906  26.701   1.897
56156W        W21383  22.700   1.372   0.350
56157W        W21384  23.558  16.523   2.108
56158W        W21385  26.949  21.378  13.004
56159W        W21386  40.141  24.251   5.038
56160W        W21387  38.109  11.822   3.669
56161W        W21388  19.052   1.275  14.025
56162W        W21389   5.392   2.384  14.979
56163W        W21390  28.538   8.690  14.721
56164W        W21391  21.576  10.822  14.995
56165W        W21392  37.104   4.501  13.941
56166W        W21393   7.266   6.780   0.194
56167W        W21394  38.598  16.602   1.631
56168W        W21395  26.635  40.631   0.995
56169W        W21396  14.294  31.112   0.858
56170W        W21397  28.984   8.121  11.663
56171W        W21398  41.530  41.060   1.744
56172W        W21399  18.057  37.875  12.852
56173W        W21400  37.353   4.537  11.173
56174W        W21401  15.163  18.792  13.477
56175W        W21402  14.647  41.780   0.089
56176W        W21403  18.779  14.024   0.329
56177W        W21404  36.246  13.825  13.928
56178W        W21405  22.124  19.715   5.055
56179W        W21406  35.562  13.633   3.020
56180W        W21407  37.480   6.656   1.028
56181W        W21408   8.516  33.871  12.431
56182W        W21409  11.213  38.883   4.576
56183W        W21410   2.013   7.160   4.788
56184W        W21411   6.352  21.267   4.833
56185W        W21412  23.910   4.923  14.817
56186W        W21413   0.384  17.340  11.318
56187W        W21414  14.277  19.532  13.929
56188W        W21415  40.524  38.340  12.636
56189W        W21416  43.397   4.383   3.984
56190W        W21417  38.381   5.301   0.539
56191W        W21418  41.099  31.887  11.938
56192W        W21419  31.960  28.568  13.267
56193W        W21420  26.118   3.387   2.118
56194W        W21421  19.809  38.100  13.645
56195W        W21422  14.223  30.658  12.379
56196W        W21423  20.110   1.804  14.932
56197W        W21424  19.355  12.113   0.416
56198W        W21425  39.105  32.797  13.911
56199W        W21426  17.733  14.265   4.110
56200W        W21427  38.856   4.374   1.432
56201W        W21428  15.497   9.354   1.858
56202W        W21429  24.054   2.628  13.988
56203W        W21430  11.638   1.071  10.190
56204W        W21431  39.133  41.328   0.300
56205W        W21432  35.889  15.326   3.762
56206W        W21433  33.941   1.443  10.695
56207W        W21434  14.617  42.312  14.438
56208W        W21435  39.004  22.052  14.027
56209W        W21436  21.600  37.839   1.109
56210W        W21437  18.590  18.100  14.416
56211W        W21438  19.532   2.990   3.148
56212W        W21439  14.150  20.711  11.670
56213W        W21440  26.155   8.815  13.185
56214W        W21441  36.034   8.355  13.839
56215W        W21442  32.342  40.882   9.833
56216W        W21443  36.767  36.635   3.020
56217W        W21444  41.468  41.805   4.508
56218W        W21445  14.928  15.540  11.614
56219W        W21446  23.576  42.024  14.479
56220W        W21447   9.582   7.942   0.336
56221W        W21448  40.818   8.735   4.323
56222W        W21449  18.755   4.676  10.227
56223W        W21450  16.794  16.108  12.650
56224W        W21451  16.825   3.861  12.844
56225W        W21452  38.032  14.814  13.949
56226W        W21453  32.379   0.424  12.693
56227W        W21454  32.941  36.847   0.833
56228W        W21455  13.120   8.264   4.252
56229W        W21456   3.848   6.170   0.405
56230W        W21457  25.756  29.477   0.155
56231W        W21458  32.165   1.704   2.318
56232W        W21459  15.547  44.052   4.211
56233W        W21460  42.180  20.596  12.541
56234W        W21461   6.451  13.749   2.133
56235W        W21462  29.540   4.842  13.919
56236W        W21463  23.567  10.395  14.960
56237W        W21464  36.547   8.129  13.843
56238W        W21465  42.060   8.200  10.789
56239W        W21466  20.125   7.430  11.575
56240W        W21467   4.387  36.551   3.165
56241W        W21468  18.305  17.567   2.613
56242W        W21469  31.415  39.990   0.883
56243W        W21470  21.551  31.640  12.876
56244W        W21471  36.922  39.370  14.757
56245W        W21472  32.954  26.973  13.024
56246W        W21473  36.651  31.633  14.384
56247W        W21474  11.410  36.386   3.589
56248W        W21475  36.007  24.658   3.263
56249W        W21476   2.286  40.909  13.994
56250W        W21477  20.289   9.280   1.534
56251W        W21478  22.211  32.221   3.470
56252W        W21479  33.569  10.348  12.009
56253W        W21480  18.729  25.674   0.999
56254W        W21481  34.200  31.195   2.738
56255W        W21482  34.637  20.777   4.748
56256W        W21483   4.334  43.205  12.389
56257W        W21484  39.063  25.390   2.762
56258W        W21485  29.729  17.152   0.777
56259W        W21486   2.193  19.772  11.325
56260W        W21487  32.040  10.369   0.287
56261W        W21488  19.516  27.011   4.024
56262W        W21489  17.351   0.358  13.915
56263W        W21490  21.867   7.387   2.620
56264W        W21491  12.726   6.203   0.022
56265W        W21492  16.248  11.761  11.528
56266W        W21493  36.584  36.936  12.039
56267W        W21494  15.227  14.514  13.501
56268W        W21495   0.926  21.696   4.310
56269W        W21496   5.825  32.799  11.760
56270W        W21497   9.761  34.413  14.095
56271W        W21498  21.034   1.410  11.436
56272W        W21499   2.313  35.443   0.322
56273W        W21500  16.790  12.853   4.649
56274W        W21501   6.419  41.550   4.182
56275W        W21502  32.071  28.164   2.324
56276W        W21503  35.873  31.755  10.918
56277W        W21504  11.240   3.355   4.491
56278W        W21505  12.077  19.589  13.589
56279W        W21506  21.172  21.528  14.731
56280W        W21507  30.675   2.230   0.915
56281W        W21508  31.964  17.760   9.873
56282W        W21509   1.895  32.441  13.220
56283W        W21510  16.282  10.948   2.336
56284W        W21511  27.088  18.737   4.201
56285W        W21512  22.202   0.344   1.634
56286W        W21513  27.530  31.381   0.428
56287W        W21514  29.109  18.951   4.142
56288W        W21515  33.967  25.133   3.083
56289W        W21516  31.419  10.457   1.549
56290W        W21517  16.728  44.734   2.816
56291W        W21518   9.452  34.930  12.297
56292W        W21519   5.530  28.501   9.954
56293W        W21520  39.768  24.020   2.827
56294W        W21521  17.391  24.615   0.924
56295W        W21522  43.036   2.346  13.874
56296W        W21523  40.434  23.659  13.525
56297W        W21524  10.337  21.053   0.952
56298W        W21525  30.091  39.803   0.298
56299W        W21526   9.255  18.250   2.479
56300W        W21527  23.082  33.028   1.274
56301W        W21528  17.295  35.865  12.019
56302W        W21529  37.636  33.355   0.934
56303W        W21530  23.215  25.037   2.408
56304W        W21531   4.759  26.408  11.011
56305W        W21532  27.643   0.452   0.177
56306W        W21533  31.196  30.441  12.886
56307W        W21534   1.265  16.245  11.831
56308W        W21535   3.453   1.415   4.057
56309W        W21536  14.233  41.892   0.376
56310W        W21537  22.106   1.667   5.348
56311W        W21538   7.058   8.698   0.806
56312W        W21539  35.393   0.051   1.396
56313W        W21540  20.156  10.593  12.019
56314W        W21541   2.858   9.656  12.249
56315W        W21542  10.335  16.470  13.934
56316W        W21543  36.697  38.630  14.393
56317W        W21544  18.862  17.730   4.377
56318W        W21545  38.347  44.451   1.911
56319W        W21546  43.310  16.479   1.159
56320W        W21547  43.035  42.825   1.059
56321W        W21548  28.547  24.129   2.469
56322W        W21549   0.800   0.910  13.016
56323W        W21550  12.805  23.269  10.781
56324W        W21551  37.307  18.130  14.877
56325W        W21552  31.420  14.493   3.678
56326W        W21553  43.177  23.115   5.069
56327W        W21554  19.093  20.987   2.161
56328W        W21555   7.390   0.968   2.226
56329W        W21556  20.218   3.102  11.959
56330W        W21557  35.393   3.188  13.019
56331W        W21558  21.652  29.208  12.532
56332W        W21559  24.406  23.190   3.048
56333W        W21560  28.609  33.084  11.199
56334W        W21561  42.871  26.092  10.429
56335W        W21562  28.194   3.855  11.887
56336W        W21563  30.634  18.866  11.236
56337W        W21564  25.773  14.038   1.467
56338W        W21565   1.405  11.894   2.181
56339W        W21566  37.114  19.068   2.622
56340W        W21567   8.722  10.075   5.401
56341W        W21568  21.738  20.919   4.766
56342W        W21569  24.128  19.575   4.557
56343W        W21570  25.542  37.801   2.641
56344W        W21571   0.378  24.727  10.906
56345W        W21572  28.654  19.834   0.180
56346W        W21573   3.008   1.202  13.434
56347W        W21574  22.234  39.098  11.160
56348W        W21575  23.480  41.848  10.868
56349W        W21576   9.871  12.290  12.001
56350W        W21577  22.000  38.979  14.536
56351W        W21578  30.565   2.075  11.992
56352W        W21579  19.086   0.274   1.065
56353W        W21580   1.284  20.286   0.873
56354W        W21581  18.196   3.023   0.222
56355W        W21582   5.426  11.833   3.092
56356W        W21583  19.705  26.957  14.698
56357W        W21584   6.238  38.618  13.052
56358W        W21585   5.429  29.676  12.532
56359W        W21586  14.590  18.610  10.535
56360W        W21587  12.900   3.606  14.363
56361W        W21588  14.180  21.244  14.757
56362W        W21589  11.292  32.518   0.185
56363W        W21590  24.471   5.169  11.500
56364W        W21591  28.134   9.319   1.665
56365W        W21592  17.735  16.844  13.949
56366W        W21593  25.108   5.177   3.619
56367W        W21594   1.074  39.535  10.903
56368W        W21595   3.259   4.213  14.222
56369W        W21596  33.204  31.025   2.654
56370W        W21597  23.839  15.082  11.502
56371W        W21598  37.000   2.280  12.542
56372W        W21599  31.315   2.094   0.299
56373W        W21600  31.990  24.434   2.651
56374W        W21601   4.427   9.890   3.206
56375W        W21602  19.836  41.314   4.632
56376W        W21603  40.062  14.540   0.026
56377W        W21604   8.702  43.786  14.296
56378W        W21605  22.016  43.936  14.799
56379W        W21606  24.137  35.535  11.970
56380W        W21607  21.670  34.884  14.825
56381W        W21608  40.963  25.955  12.809
56382W        W21609  40.489  38.357   4.634
56383W        W21610   0.181   7.675  13.782
56384W        W21611   7.464  37.947   1.857
56385W        W21612   0.048  41.334  14.339
56386W        W21613  29.893  43.273  11.990
56387W        W21614  32.663  15.981   0.529
56388W        W21615  13.284  19.756   0.739
56389W        W21616  30.467   8.082   3.309
56390W        W21617  16.154  33.903   2.354
56391W        W21618   1.328  32.204   4.599
56392W        W21619  11.792  36.340  12.182
56393W        W21620   1.184   7.576   2.704
56394W        W21621  43.761  22.663   1.083
56395W        W21622  41.025  36.535  13.617
56396W        W21623   5.768  30.180   2.756
56397W        W21624  14.249  37.909   2.888
56398W        W21625  21.011  24.513   1.266
56399W        W21626  22.433  18.503  11.174
56400W        W21627  28.977   3.796  12.522
56401W        W21628  13.266   7.852  13.927
56402W        W21629  37.086   7.058  11.251
56403W        W21630  43.813  29.987   2.909
56404W        W21631  20.658  22.136  11.262
56405W        W21632  21.009  12.483   3.271
56406W        W21633  19.272  41.928  10.920
56407W        W21634  24.033  22.153   4.631
56408W        W21635  15.218  17.080  14.266
56409W        W21636  39.089  33.494  14.863
56410W        W21637  33.117   4.381  13.534
56411W        W21638   1.559   6.296  14.412
56412W        W21639  15.992  21.270  13.471
56413W        W21640  32.889  23.513  13.309
56414W        W21641  10.403  28.951  13.146
56415W        W21642  15.608  23.962   2.679
56416W        W21643  24.180   6.562  12.058
56417W        W21644  13.730  28.410  12.498
56418W        W21645   6.684   6.309  12.669
56419W        W21646  34.559  40.494   2.107
56420W        W21647  11.794   4.414   4.656
56421W        W21648  40.919  21.582  14.961
56422W        W21649   4.285  12.836   1.527
56423W        W21650  42.490  31.594   2.354
56424W        W21651   9.628  41.835   3.161
56425W        W21652   9.761  24.460  11.586
56426W        W21653  42.949   1.411  13.710
56427W        W21654  28.697  28.000   0.796
56428W        W21655  25.061  42.911   1.280
56429W        W21656   6.200   6.366  14.488
56430W        W21657  39.798  37.765   1.212
56431W        W21658  22.232  37.374   3.297
56432W        W21659  28.017  13.663  13.597
56433W        W21660  41.469  18.412  13.844
56434W        W21661  12.781  42.053   0.967
56435W        W21662   6.971  42.328  11.939
56436W        W21663  34.831  29.208  12.454
56437W        W21664  36.039  35.907  12.913
56438W        W21665  10.751  25.171  14.677
56439W        W21666   7.754  41.812  14.842
56440W        W21667   9.417  16.561  13.003
56441W        W21668  31.506   4.980   4.585
56442W        W21669  18.102   0.881  10.715
56443W        W21670   6.716  16.563   0.984
56444W        W21671   1.469  27.069   3.559
56445W        W21672   0.858  30.709   1.746
56446W        W21673  28.092  23.120   4.244
56447W        W21674  21.508  23.055   2.211
56448W        W21675  43.456  30.617   1.431
56449W        W21676   9.269   7.252  13.036
56450W        W21677   7.966  14.739   3.257
56451W        W21678  11.282  12.827   2.228
56452W        W21679  16.331  28.021   1.414
56453W        W21680  31.485  32.046  10.669
56454W        W21681  35.518   1.945   1.508
56455W        W21682  26.626  24.530  11.146
56456W        W21683  20.197   2.225   1.248
56457W        W21684   2.731  41.843   4.468
56458W        W21685   2.528  31.371   3.156
56459W        W21686  34.169  34.236  12.445
56460W        W21687  11.583  41.837   1.320
56461W        W21688  39.113  34.605   4.232
56462W        W21689  18.301  38.512   4.569
56463W        W21690   2.212  25.020   1.410
56464W        W21691  15.055  30.096   0.440
56465W        W21692  15.601  38.771   0.143
56466W        W21693  21.825  27.149   4.159
56467W        W21694  32.048  39.278   2.872
56468W        W21695   1.212  10.118   1.791
56469W        W21696  20.016  41.823  13.061
56470W        W21697  20.174  35.853   0.918
56471W        W21698  37.242  39.990  13.973
56472W        W21699  40.053  25.429   4.773
56473W        W21700  28.001  42.434   3.810
56474W        W21701  39.448  15.652  12.106
56475W        W21702  25.672  30.975   3.016
56476W        W21703  33.959  23.764  11.154
56477W        W21704  30.545  29.992   1.662
56478W        W21705  17.572   6.780   1.003
56479W        W21706  44.884  23.576   0.596
56480W        W21707  29.777   2.569   0.313
56481W        W21708  39.969  35.062  11.487
56482W        W21709   7.378   1.806   4.645
56483W        W21710   7.958  10.213  13.738
56484W        W21711   3.883  20.194   1.445
56485W        W21712  39.449   3.702   2.769
56486W        W21713  25.700  37.296   2.867
56487W        W21714  37.505  12.870   1.515
56488W        W21715  26.538  34.088  11.952
56489W        W21716  39.132  15.966   1.827
56490W        W21717  36.590   3.831   0.356
56491W        W21718  34.370  13.020   1.891
56492W        W21719   8.167  12.499   2.137
56493W        W21720  41.499  14.650   1.316
56494W        W21721  44.735   4.550   4.052
56495W        W21722  15.723  11.849  11.545
56496W        W21723  11.267  35.118  13.626
56497W        W21724  13.622  30.897  14.925
56498W        W21725   6.500  44.997   3.241
56499W        W21726   4.990  37.405   4.027
56500W        W21727   8.633  43.756   0.710
56501W        W21728  25.166   7.205   1.874
56502W        W21729  34.262   2.626   0.860
56503W        W21730  31.440  34.503  13.870
56504W        W21731  16.584   8.309   1.672
56505W        W21732  29.093  44.516   1.482
56506W        W21733  12.357  44.866   4.526
56507W        W21734  33.036   7.734  14.589
56508W        W21735   5.645   0.164   2.865
56509W        W21736  14.350  27.483   2.823
56510W        W21737  39.297   0.508  13.387
56511W        W21738  20.318  37.549   4.599
56512W        W21739  11.604  33.094   1.814
56513W        W21740   5.419  40.938   3.153
56514W        W21741  33.534  31.125   4.462
56515W        W21742   5.540  34.430   4.702
56516W        W21743  24.294  39.109  11.967
56517W        W21744  15.147  16.675  14.574
56518W        W21745  13.268   4.965   4.719
56519W        W21746  27.958   0.761  14.082
56520W        W21747  43.128  40.533  13.644
56521W        W21748   4.773  34.141  12.368
56522W        W21749  30.546  29.495  10.499
56523W        W21750  24.477   1.034   2.258
56524W        W21751   4.955   0.316   2.191
56525W        W21752  23.471  19.814   2.835
56526W        W21753   2.134  24.582  13.083
56527W        W21754  30.762   8.112   3.778
56528W        W21755  21.216  35.308   0.423
56529W        W21756   7.683  13.195  14.198
56530W        W21757  17.314  22.073   0.902
56531W        W21758   5.631  37.954   1.242
56532W        W21759  32.422  22.431   4.188
56533W        W21760   6.390  17.249   1.763
56534W        W21761  42.320  14.583   1.734
56535W        W21762  38.797  26.723   1.273
56536W        W21763  38.130  20.565   1.788
56537W        W21764  31.315  10.689  11.682
56538W        W21765  14.161  34.872   0.728
56539W        W21766  16.739  12.623  14.927
56540W        W21767  19.274  13.293   0.302
56541W        W21768  32.480  35.595   3.734
56542W        W21769  25.783  27.685   2.015
56543W        W21770  15.309  32.491  12.899
56544W        W21771   0.716  41.680   2.850
56545W        W21772  43.280  23.309   3.608
56546W        W21773  16.024  13.571   0.347
56547W        W21774  15.881   1.733  14.982
56548W        W21775   3.357   4.667   4.180
56549W        W21776  40.863  11.803   1.236
56550W        W21777   0.471  43.560   2.641
56551W        W21778  33.842   4.863  12.536
56552W        W21779   6.260  31.104  11.754
56553W        W21780   9.373   4.254  13.359
56554W        W21781  17.024   7.265  11.450
56555W        W21782  27.616  39.251  14.851
56556W        W21783  22.769  42.792   3.236
56557W        W21784  34.405  27.540  13.086
56558W        W21785  36.430   3.490   4.688
56559W        W21786  41.770  41.960   2.709
56560W        W21787  37.676  28.072   2.688
56561W        W21788  18.993  40.811   3.969
56562W        W21789  37.991  20.333   4.622
56563W        W21790  23.965   9.119  13.479
56564W        W21791  42.539  29.332   0.422
56565W        W21792  37.965  22.477   2.772
56566W        W21793  30.386  27.823   1.267
56567W        W21794  10.761   4.238   2.756
56568W        W21795  12.383  31.490  14.784
56569W        W21796   0.332  10.943  13.022
56570W        W21797   3.464  44.121  12.107
56571W        W21798  30.690   8.633   2.207
56572W        W21799  18.078  20.072   1.249
56573W        W21800   1.307  19.778   0.944
56574W        W21801   6.507   3.889  14.562
56575W        W21802   6.832  21.409   4.338
56576W        W21803  26.106  15.351   3.672
56577W        W21804  13.954  23.713   3.746
56578W        W21805  44.247  10.194   1.762
56579W        W21806   2.836  36.040   3.920
56580W        W21807  29.358  25.924  13.341
56581W        W21808  14.542  36.483   3.203
56582W        W21809  12.037  28.966  11.766
56583W        W21810   4.845  28.435   9.564
56584W        W21811  10.236  31.524   2.608
56585W        W21812  31.942  19.788  12.266
56586W        W21813  23.088  11.393   4.008
56587W        W21814  36.572  39.793   1.359
56588W        W21815  31.041  25.191  14.980
56589W        W21816  28.043  33.064   0.854
56590W        W21817  36.682  15.040  13.067
56591W        W21818   7.963  16.668   4.424
56592W        W21819   9.434  42.768   4.093
56593W        W21820   2.752   6.946   2.680
56594W        W21821  20.491  16.550  14.736
56595W        W21822  20.389   4.717  13.689
56596W        W21823  32.188  11.625   1.808
56597W        W21824  23.752  38.453   2.003
56598W        W21825  29.176  37.495  13.886
56599W        W21826  12.507  28.384  12.153
56600W        W21827  34.505  18.585   3.339
56601W        W21828  10.387   7.195  13.921
56602W        W21829  34.722  44.124   5.029
56603W        W21830   1.883  35.338  14.559
56604W        W21831  16.807   7.141   4.603
56605W        W21832  41.020   1.470   0.940
56606W        W21833  38.968  36.417   9.748
56607W        W21834   7.888  14.961  11.623
56608W        W21835   9.710  29.975   2.770
56609W        W21836  29.354  44.780  12.564
56610W        W21837   3.190  34.932   3.449
56611W        W21838  30.283  13.710   2.824
56612W        W21839   9.653  39.042   3.177
56613W        W21840   6.351  30.971   4.346
56614W        W21841  44.455  11.707  12.162
56615W        W21842  40.945  31.477   3.566
56616W        W21843  20.955   2.960   0.842
56617W        W21844  40.981  36.363   0.625
56618W        W21845   9.831  15.182   2.960
56619W        W21846  40.552  30.565  14.711
56620W        W21847  18.924  40.601  14.338
56621W        W21848   0.924  29.472  13.800
56622W        W21849  33.488  18.176   3.794
56623W        W21850  22.137   5.887  14.573
56624W        W21851  10.768  37.081   5.491
56625W        W21852  25.992  33.653  11.953
56626W        W21853  23.042  20.766  11.561
56627W        W21854  31.207  28.904   1.906
56628W        W21855  13.764  35.840  12.410
56629W        W21856   2.884   2.768   3.350
56630W        W21857  35.350  39.443   0.819
56631W        W21858  21.743  18.029  12.716
56632W        W21859  31.185  35.985   0.055
56633W        W21860  28.618  18.057  11.458
56634W        W21861  21.559  27.077  14.676
56635W        W21862  29.716  44.862   3.436
56636W        W21863   9.405  20.205   1.044
56637W        W21864   7.071  33.611   2.718
56638W        W21865  28.708   9.427  14.979
56639W        W21866   5.440  27.570   0.001
56640W        W21867  39.238  14.386  12.103
56641W        W21868  23.686  16.546  14.266
56642W        W21869  18.183  41.810   4.057
56643W        W21870  19.503   8.258  11.625
56644W        W21871   9.174  18.687   0.722
56645W        W21872  24.577  38.803   2.773
56646W        W21873   7.867   7.686   3.832
56647W        W21874  25.518  26.726   2.239
56648W        W21875  15.667  25.690   4.191
56649W        W21876  23.441  18.766   2.779
56650W        W21877   4.642  14.630   9.907
56651W        W21878  32.398  17.374  11.014
56652W        W21879  20.747  17.614  14.156
56653W        W21880  19.740  23.033  10.830
56654W        W21881   8.237  39.596   1.307
56655W        W21882   7.585  38.431  12.130
56656W        W21883  28.875  13.829   1.379
56657W        W21884  32.714  29.476   0.324
56658W        W21885   3.125  32.958  12.932
56659W        W21886  40.432  16.305  13.525
56660W        W21887  29.251  26.220   3.095
56661W        W21888   8.123  12.848   3.683
56662W        W21889   0.665  38.071   4.769
56663W        W21890   8.396   7.164   0.845
56664W        W21891  41.036   4.936   3.695
56665W        W21892  30.738  22.568  11.507
56666W        W21893  29.547  35.482   1.754
56667W        W21894  21.006  27.626  14.474
56668W        W21895   0.978  29.933   5.007
56669W        W21896   4.104  29.777   2.259
56670W        W21897  40.890  16.921   0.767
56671W        W21898  14.300  37.455   4.643
56672W        W21899  43.092   8.805   4.631
56673W        W21900  19.859  31.691   0.243
56674W        W21901  43.148  12.137   4.648
56675W        W21902  40.767  33.479   4.049
56676W        W21903  18.839   4.457  12.041
56677W        W21904  30.947  26.904   4.411
56678W        W21905  28.922  44.326  13.486
56679W        W21906  30.497  10.131  12.583
56680W        W21907   1.635   8.223  13.905
56681W        W21908  20.120  31.559   3.695
56682W        W21909   4.723  28.723   2.302
56683W        W21910   3.721  15.674  14.739
56684W        W21911   4.732  16.852  13.672
56685W        W21912  18.654  33.571   3.133
56686W        W21913  29.735  35.583  11.841
56687W        W21914  20.259  13.307   0.468
56688W        W21915  38.361  34.800  11.301
56689W        W21916  41.742  24.130   3.209
56690W        W21917   1.477  35.571   0.392
56691W        W21918  25.024  26.212  10.847
56692W        W21919  41.841  41.112  12.429
56693W        W21920   9.439  18.182  14.888
56694W        W21921   1.279   6.586  12.885
56695W        W21922  38.954  39.356   0.227
56696W        W21923  43.119  35.857   3.577
56697W        W21924   8.210  39.768   0.805
56698W        W21925   5.388  31.044   1.394
56699W        W21926  39.383  11.204   2.478
56700W        W21927  29.432  39.846   3.604
56701W        W21928  16.617  14.044  12.558
56702W        W21929  39.103  38.522  12.750
56703W        W21930  15.017  13.026   4.921
56704W        W21931  29.504   0.633  12.096
56705W        W21932  22.811  13.222  14.895
56706W        W21933  32.356  31.844  14.966
56707W        W21934  14.396  28.892   0.860
56708W        W21935  21.454  26.496  13.777
56709W        W21936   2.105  27.697  14.369
56710W        W21937   3.411  30.524   0.056
56711W        W21938  34.028   1.569   3.529
56712W        W21939  16.937  23.578   1.835
56713W        W21940  38.076  40.789   2.330
56714W        W21941  37.927  36.055   0.160
56715W        W21942  39.474   7.777   2.345
56716W        W21943   9.647  10.480  13.034
56717W        W21944  19.180  43.781  12.668
56718W        W21945   9.630  44.303   4.558
56719W        W21946  16.299   0.341  11.662
56720W        W21947   5.755  31.674  14.807
56721W        W21948  22.170  13.635  10.757
56722W        W21949  39.118  33.388   3.337
56723W        W21950  11.814   6.476   2.242
56724W        W21951  32.898  20.262  14.612
56725W        W21952  36.032  33.326  14.115
56726W        W21953  34.884   6.884   1.799
56727W        W21954   2.238  20.330   5.306
56728W        W21955  27.004   6.092   9.709
56729W        W21956  19.768  25.039  13.891
56730W        W21957  23.747  10.462   1.355
56731W        W21958  30.219   0.246  14.011
56732W        W21959  40.302  22.182   2.055
56733W        W21960  21.707   8.616  11.487
56734W        W21961   9.014  20.802   2.263
56735W        W21962  21.453  26.669  11.040
56736W        W21963  20.772   4.323   2.250
56737W        W21964  15.688   5.404  11.567
56738W        W21965  34.564  14.204   2.355
56739W        W21966  23.265  43.670   3.050
56740W        W21967  44.649  41.407  10.794
56741W        W21968  14.213  26.757   2.133
56742W        W21969  31.607   2.864  12.330
56743W        W21970   8.292  17.012   3.485
56744W        W21971  33.256  10.452  13.932
56745W        W21972  26.788   9.341   2.309
56746W        W21973  15.558  29.190   3.660
56747W        W21974  26.044  33.670   3.749
56748W        W21975  44.057  40.105  11.193
56749W        W21976   7.959  25.558  10.830
56750W        W21977   6.511  19.552   3.647
56751W        W21978  38.786  11.701   1.333
56752W        W21979   5.452  33.842  13.778
56753W        W21980  40.806  21.260  14.482
56754W        W21981  33.864   7.460  12.505
56755W        W21982   2.002  14.843   0.107
56756W        W21983  31.483  22.007  13.659
56757W        W21984  33.811  25.174  11.695
56758W        W21985  18.013  21.619   4.402
56759W        W21986  39.934  11.254  12.906
56760W        W21987   4.776  20.179   3.281
56761W        W21988  11.022  13.646  13.989
56762W        W21989  37.047   4.329  12.515
56763W        W21990  38.837  18.655  11.645
56764W        W21991  22.723  26.882  13.159
56765W        W21992  34.325  35.104  11.485
56766W        W21993  23.125  44.773   4.098
56767W        W21994  29.784  23.703   2.223
56768W        W21995  31.234  18.037  11.037
56769W        W21996   8.319  25.252  11.525
56770W        W21997  38.765  35.253   4.092
56771W        W21998   9.683  20.992   0.274
56772W        W21999  11.812   8.740  13.497
56773W        W22000  19.023  19.951   2.477
56774W        W22001  41.723  39.004  14.573
56775W        W22002  14.508   1.041   0.882
56776W        W22003  39.000  10.432  10.787
56777W        W22004  29.070  40.428   4.816
56778W        W22005  43.291  34.609   0.088
56779W        W22006   2.859  43.191  10.765
56780W        W22007  13.659  30.147   4.396
56781W        W22008  41.707  17.240   3.656
56782W        W22009  11.561  44.821   2.275
56783W        W22010  11.217  20.867   4.966
56784W        W22011  40.061  24.267  14.742
56785W        W22012  17.207  20.599  14.875
56786W        W22013  43.882  34.594   2.298
56787W        W22014  31.993  30.468   0.973
56788W        W22015  31.967  13.897   3.379
56789W        W22016  35.187  42.587   1.659
56790W        W22017  21.232  10.120   0.894
56791W        W22018  34.200  41.883  10.735
56792W        W22019  37.871  41.233   2.455
56793W        W22020  38.211  21.298   1.392
56794W        W22021  21.249  12.144  13.493
56795W        W22022  14.585   6.006   2.818
56796W        W22023  34.962  29.016   4.295
56797W        W22024  34.199  41.334  11.330
56798W        W22025  38.698   7.423   2.968
56799W        W22026   4.433  40.599   4.149
56800W        W22027  26.965   7.303  14.520
56801W        W22028   8.920  18.171  14.941
56802W        W22029  15.631  37.164  10.697
56803W        W22030  28.372   2.025   4.916
56804W        W22031  27.518  13.591  10.560
56805W        W22032  17.489  37.703   3.841
56806W        W22033   4.371  28.494  14.950
56807W        W22034  25.555   8.131   3.678
56808W        W22035  20.752  25.713  11.405
56809W        W22036  23.243  17.897  11.151
56810W        W22037  30.094  40.935  14.587
56811W        W22038  40.127  32.916   2.663
56812W        W22039  15.206  31.500   0.967
56813W        W22040  43.929  28.126  14.033
56814W        W22041  30.563  30.998  12.704
56815W        W22042   6.629  21.323  14.376
56816W        W22043  33.964  14.562   1.255
56817W        W22044  28.423  27.734   1.253
56818W        W22045  36.666  30.248  11.909
56819W        W22046   9.649  38.569  11.933
56820W        W22047  38.064  30.174   0.358
56821W        W22048  38.071  11.155   0.589
56822W        W22049  13.542   7.030  12.556
56823W        W22050  40.502  20.836   3.120
56824W        W22051  43.689   2.170  11.497
56825W        W22052   7.869  41.978  14.359
56826W        W22053  27.502  33.618   3.309
56827W        W22054   2.734  30.486   1.295
56828W        W22055  32.353  42.333  13.940
56829W        W22056  26.078  38.063   4.636
56830W        W22057  19.963   3.922   3.341
56831W        W22058   6.329  36.442   3.007
56832W        W22059   5.755  13.242   2.679
56833W        W22060  18.022  29.234   1.865
56834W        W22061  39.495   6.811   2.546
56835W        W22062   7.817  29.774   4.776
56836W        W22063  31.617   9.600  10.325
56837W        W22064  39.337  26.894   4.807
56838W        W22065  13.968  17.770   1.866
56839W        W22066  40.919  36.964   2.847
56840W        W22067  40.296  18.768   2.573
56841W        W22068  10.625   1.682   4.093
56842W        W22069   6.383   7.444  12.041
56843W        W22070  20.282  14.856  12.353
56844W        W22071   3.939   5.824  14.623
56845W        W22072  15.127   2.909  12.154
56846W        W22073  38.564  12.517  14.100
56847W        W22074  11.697   3.812  13.559
56848W        W22075  33.280  44.834  12.792
56849W        W22076  11.435  44.471  10.281
56850W        W22077  39.845  23.648   1.117
56851W        W22078  23.913  21.598   0.221
56852W        W22079  41.309  18.695  14.997
56853W        W22080  31.857  42.521  10.743
56854W        W22081  14.428  30.668   3.118
56855W        W22082  41.825  29.604   1.388
56856W        W22083   9.447  43.442   0.869
56857W        W22084  20.130  44.927   0.853
56858W        W22085  38.505  40.337   1.118
56859W        W22086  19.723   6.243   1.900
56860W        W22087  37.034  10.824  14.909
56861W        W22088  40.113  17.561  13.800
56862W        W22089  25.965  24.969   0.358
56863W        W22090   4.059  44.627   0.496
56864W        W22091  17.095  39.959  10.499
56865W        W22092  18.707   5.328   3.440
56866W        W22093  32.949  24.043  13.404
56867W        W22094  41.905   7.528   3.648
56868W        W22095  11.442   0.325   2.329
56869W        W22096  16.097  23.697  13.307
56870W        W22097  26.276  36.248   1.345
56871W        W22098  26.257   9.800  12.612
56872W        W22099  10.409  24.669   1.339
56873W        W22100  38.967  14.302  13.150
56874W        W22101  43.335  20.987  12.109
56875W        W22102  27.479  17.186  13.555
56876W        W22103   3.642  35.039   3.743
56877W        W22104  17.238  32.432   3.137
56878W        W22105  32.943  19.171   1.936
56879W        W22106  44.837  38.363   4.299
56880W        W22107  40.537  42.471   1.718
56881W        W22108  22.461  35.636   2.643
56882W        W22109   7.366  34.892   3.883
56883W        W22110  26.586  30.027  12.550
56884W        W22111  23.210  21.236  11.736
56885W        W22112   5.943  23.951  12.543
56886W        W22113   8.926  43.818   2.825
56887W        W22114  39.433  23.319  13.784
56888W        W22115  20.802  19.555  11.942
56889W        W22116   2.248  27.168   2.269
56890W        W22117  37.359  32.076   3.784
56891W        W22118  28.502  31.444   0.952
56892W        W22119  10.721  29.355  14.514
56893W        W22120   7.855  10.186  13.224
56894W        W22121  34.485  13.672   3.699
56895W        W22122  22.419  20.636  10.293
56896W        W22123  18.372  34.424   1.178
56897W        W22124  10.510  13.830  13.952
56898W        W22125  44.047  38.050  14.585
56899W        W22126  29.424  32.948   3.818
56900W        W22127   5.417  13.354  14.057
56901W        W22128  24.548  26.328   4.799
56902W        W22129  32.514  20.851  12.077
56903W        W22130  44.234  19.543   4.511
56904W        W22131  15.001  42.454   0.379
56905W        W22132  25.983   2.119   2.711
56906W        W22133  20.980   0.933   3.102
56907W        W22134  11.722  13.404   5.021
56908W        W22135  37.643  43.590   2.325
56909W        W22136  17.363  10.211  10.664
56910W        W22137  37.544  21.190   2.222
56911W        W22138  25.609  15.272  14.329
56912W        W22139  19.070  12.567   0.567
56913W        W22140  14.716  18.777  11.860
56914W        W22141   7.951   8.232  10.421
56915W        W22142  30.116  43.425   2.891
56916W        W22143  44.555  17.828   0.318
56917W        W22144  35.545  22.171  12.829
56918W        W22145  33.465  39.487   2.765
56919W        W22146  18.670   3.293   5.171
56920W        W22147   5.345  22.989   3.318
56921W        W22148  28.324  26.411   2.718
56922W        W22149  27.687  33.442   0.707
56923W        W22150  17.641  25.485   1.340
56924W        W22151  29.095  38.608  13.463
56925W        W22152   8.992  30.715  10.579
56926W        W22153   7.743  36.370   1.888
56927W        W22154   4.755  15.001   1.713
56928W        W22155  17.020  26.906  10.701
56929W        W22156  42.961  13.298  13.408
56930W        W22157  16.134  40.263   0.931
56931W        W22158  42.021   5.513  11.151
56932W        W22159   0.883  40.990   1.194
56933W        W22160   3.244  39.824   2.362
56934W        W22161  39.888  30.702   1.200
56935W        W22162  41.086  36.592  11.136
56936W        W22163   2.309   4.540   4.709
56937W        W22164  29.362  12.347  13.886
56938W        W22165  31.432  27.696   9.825
56939W        W22166  16.576   6.470  12.471
56940W        W22167  35.887  29.738  14.416
56941W        W22168  30.707  14.514  14.761
56942W        W22169  17.276  22.987   4.123
56943W        W22170  20.659  21.980  14.104
56944W        W22171  39.644  17.231  11.168
56945W        W22172   7.717  27.707   2.190
56946W        W22173  30.124  39.279   0.301
56947W        W22174  41.446  30.808  13.484
56948W        W22175  42.579  28.616  14.763
56949W        W22176  40.433  32.176   4.070
56950W        W22177  15.063  24.767  11.403
56951W        W22178   0.032   6.237  14.639
56952W        W22179   6.274  22.090  14.111
56953W        W22180  22.683  13.081  12.592
56954W        W22181  27.921  17.335   4.107
56955W        W22182  42.802   8.718  12.521
56956W        W22183   6.525  43.617   3.264
56957W        W22184   4.975  31.983   4.072
56958W        W22185  18.451  26.119   1.197
56959W        W22186   7.865  30.826  11.154
56960W        W22187  15.355  20.742  11.130
56961W        W22188  35.942  35.542  13.587
56962W        W22189  23.844  41.406  12.603
56963W        W22190   4.245  30.761  14.513
56964W        W22191  16.334   7.675  12.101
56965W        W22192  34.591  28.438  11.089
56966W        W22193   2.458  23.126   3.703
56967W        W22194   5.439  11.800  10.771
56968W        W22195  41.180  11.240  12.436
56969W        W22196   3.025  31.607  14.120
56970W        W22197  28.160  16.632  14.652
56971W        W22198  41.347  33.067  10.722
56972W        W22199  40.060   7.030   1.844
56973W        W22200  42.352  27.134  11.493
56974W        W22201  41.517  43.818  14.879
56975W        W22202  22.688  41.333  14.009
56976W        W22203  29.505  36.850   9.808
56977W        W22204  34.665   5.830   2.760
56978W        W22205  11.828  34.144   3.562
56979W        W22206  42.761   8.749   4.197
56980W        W22207  25.101  11.900   4.615
56981W        W22208  16.399  12.360   1.721
56982W        W22209  31.630  31.478  13.348
56983W        W22210  42.478  16.048  14.830
56984W        W22211   0.479  13.857  12.509
56985W        W22212  26.027  33.920  10.712
56986W        W22213  36.388   7.801   2.219
56987W        W22214  43.422  25.211  14.866
56988W        W22215  39.926  43.562   3.062
56989W        W22216  27.710  33.182  11.224
56990W        W22217  34.859  21.285   3.570
56991W        W22218  34.913   7.401   3.672
56992W        W22219   5.481  32.916   3.889
56993W        W22220  29.441  19.524  14.373
56994W        W22221  29.421  26.268  14.251
56995W        W22222  43.616   9.234   0.496
56996W        W22223   4.261  27.124   2.339
56997W        W22224   2.885  44.901  10.594
56998W        W22225  43.469  10.613   3.548
56999W        W22226  40.400  24.091   4.589
57000W        W22227  34.015  27.728  12.427
57001W        W22228  35.102  36.670  10.187
57002W        W22229   2.198  39.934  12.002
57003W        W22230  25.697  39.568  11.202
57004W        W22231  13.579   5.352   0.182
57005W        W22232  18.089  18.340   1.483
57006W        W22233  37.333  17.769  12.442
57007W        W22234  10.688  10.388  10.733
57008W        W22235  22.386  28.647  11.638
57009W        W22236  34.426  14.530   4.509
57010W        W22237  39.997   3.570   2.706
57011W        W22238  33.648  15.993   0.491
57012W        W22239  17.597  30.090  10.686
57013W        W22240  10.350  29.142   1.544
57014W        W22241  26.997  14.650  11.002
57015W        W22242  36.007  23.224  12.044
57016W        W22243  10.559  15.921  10.777
57017W        W22244  21.518   7.012   0.380
57018W        W22245  11.295  31.589   1.684
57019W        W22246  16.483  35.066  14.353
57020W        W22247   2.056  10.223   3.737
57021W        W22248   6.274  37.784   5.157
57022W        W22249  14.079  32.481   1.906
57023W        W22250  35.928  41.052   3.646
57024W        W22251  37.288  36.478  14.692
57025W        W22252  22.292  34.301   4.192
57026W        W22253   5.913  19.239  14.862
57027W        W22254  24.017  16.576  12.045
57028W        W22255  15.440  18.340  13.460
57029W        W22256  24.415  25.753   1.174
57030W        W22257  11.252  22.897  12.500
57031W        W22258  42.478   1.420  13.921
57032W        W22259  42.965  25.613  14.155
57033W        W22260  17.757  43.221   3.172
57034W        W22261   9.195  44.372   2.026
57035W        W22262  15.345   3.827  10.780
57036W        W22263  18.777  35.347   3.477
57037W        W22264  12.169   9.181   4.282
57038W        W22265  23.471  22.679  12.155
57039W        W22266  15.681   4.177   3.860
57040W        W22267   3.818  12.548   4.887
57041W        W22268  20.997   3.791   9.949
57042W        W22269  27.642  30.513  13.256
57043W        W22270   8.204  24.110   1.669
57044W        W22271  38.240   6.320  12.513
57045W        W22272  40.056   3.555  12.415
57046W        W22273  20.107   5.776   4.606
57047W        W22274  15.860   8.575  12.068
57048W        W22275  26.342  41.776  11.179
57049W        W22276  33.634  29.142   1.998
57050W        W22277   4.804  31.762   3.094
57051W        W22278   5.991  12.263   2.677
57052W        W22279   3.371   8.916  10.944
57053W        W22280  15.680  31.988  14.578
57054W        W22281  22.981  38.994  14.390
57055W        W22282   7.452  26.665   4.163
57056W        W22283  20.154  34.670   1.183
57057W        W22284  34.643   7.885  13.551
57058W        W22285   7.344  31.013   2.911
57059W        W22286   1.532   7.710  11.960
57060W        W22287  23.010  14.242   0.072
57061W        W22288   4.871  34.366   0.774
57062W        W22289  28.630  14.700  11.635
57063W        W22290  22.611  13.166   1.400
57064W        W22291  22.248  31.644   4.120
57065W        W22292  34.011  30.937   3.266
57066W        W22293  42.306  42.803   0.249
57067W        W22294   2.310  15.544  14.853
57068W        W22295  14.135   8.059  14.545
57069W        W22296   3.486  39.151  13.479
57070W        W22297   9.495   8.021  14.450
57071W        W22298   7.695  39.856  12.461
57072W        W22299  20.887   4.285  14.505
57073W        W22300  32.145   6.919   4.842
57074W        W22301   4.230  20.541   2.140
57075W        W22302  15.176   7.935  10.744
57076W        W22303   6.669  44.732   3.648
57077W        W22304   7.239  37.080   1.850
57078W        W22305  10.755  43.274  10.765
57079W        W22306  30.576   3.706  13.826
57080W        W22307  23.687  24.761  14.346
57081W        W22308  19.056  15.073   1.708
57082W        W22309   6.719  29.719  14.337
57083W        W22310   2.275  39.046   4.219
57084W        W22311   0.563   8.826   4.074
57085W        W22312  23.647   3.751   5.231
57086W        W22313   1.447  10.724   4.519
57087W        W22314  42.206  33.116  14.684
57088W        W22315  20.175  35.398  13.857
57089W        W22316  42.372   6.194  13.157
57090W        W22317  41.360  21.045   0.211
57091W        W22318  38.478  23.997   3.775
57092W        W22319  29.967  33.946   3.601
57093W        W22320   6.012  21.508  13.278
57094W        W22321  16.680  19.900  11.106
57095W        W22322  31.453   3.125   2.371
57096W        W22323  27.440  20.372   4.510
57097W        W22324  31.334  35.830   5.017
57098W        W22325  41.248  28.088   4.026
57099W        W22326  17.558  29.091   2.728
57100W        W22327  43.417  15.464  12.627
57101W        W22328   2.407  13.575  14.941
57102W        W22329   4.291   8.960   3.328
57103W        W22330   3.879  38.959   3.205
57104W        W22331  17.644   2.133  11.092
57105W        W22332  29.194  11.843   1.169
57106W        W22333  32.355  34.898   4.704
57107W        W22334  37.861  26.250   2.802
57108W        W22335  19.217  15.524   1.495
57109W        W22336  29.593  14.853  11.379
57110W        W22337  10.868   2.979  12.721
57111W        W22338   2.324   3.277  14.431
57112W        W22339  30.074  20.793  11.632
57113W        W22340  21.781  19.619  13.105
57114W        W22341  36.026   4.801  13.096
57115W        W22342   2.852  18.312  13.466
57116W        W22343  16.535   2.156  13.720
57117W        W22344   8.802  23.715   4.538
57118W        W22345   7.738   0.419  11.191
57119W        W22346   6.178  33.454   4.648
57120W        W22347  29.385   2.447   1.717
57121W        W22348  23.654  18.550   3.203
57122W        W22349  22.127  25.960   4.123
57123W        W22350  27.636  39.046   2.749
57124W        W22351  12.229   3.445   3.239
57125W        W22352  13.348  15.755  11.047
57126W        W22353   2.630  29.183  13.776
57127W        W22354  34.695  11.035   4.249
57128W        W22355  23.140  36.342  13.134
57129W        W22356  26.272  30.620  10.332
57130W        W22357  11.585  43.535   2.455
57131W        W22358   1.771  34.368  14.973
57132W        W22359  29.026  43.783  13.617
57133W        W22360  15.902  44.411   0.114
57134W        W22361   4.896  19.446  10.094
57135W        W22362  27.132  26.341  10.849
57136W        W22363  41.281  27.548   0.562
57137W        W22364  34.359  44.251  14.918
57138W        W22365  23.152  40.506   0.382
57139W        W22366  43.521  39.152   1.657
57140W        W22367  40.353  20.506  14.622
57141W        W22368  17.337  13.610  12.962
57142W        W22369  15.668  19.041  12.695
57143W        W22370  36.598  37.710   5.343
57144W        W22371  21.071  31.811   3.222
57145W        W22372   4.533  41.847   3.227
57146W        W22373  33.123  23.229  10.730
57147W        W22374  19.595  10.399  12.878
57148W        W22375  23.892  14.322  11.986
57149W        W22376   5.926  31.312  12.876
57150W        W22377  37.903  27.486  14.903
57151W        W22378  32.428   1.834  12.110
57152W        W22379  24.747  41.424  12.855
57153W        W22380  27.373  12.662  12.366
57154W        W22381  12.026  11.134   3.321
57155W        W22382  43.031  26.479   4.652
57156W        W22383   8.051   0.008  11.248
57157W        W22384  18.546  30.134   3.249
57158W        W22385  26.658  36.449   0.451
57159W        W22386   3.934  16.053  10.750
57160W        W22387  13.564  39.354   3.565
57161W        W22388  28.567  12.690  14.335
57162W        W22389  10.291  19.411   2.363
57163W        W22390  40.484  35.806   0.866
57164W        W22391  11.325  37.813   1.038
57165W        W22392   2.333  25.456  12.618
57166W        W22393  30.368   1.045  10.689
57167W        W22394  28.027  41.381   1.327
57168W        W22395  16.228  30.240   2.308
57169W        W22396  23.795  29.472  12.086
57170W        W22397   5.235  25.612  13.078
57171W        W22398  10.101  22.600   5.034
57172W        W22399  36.542   3.445   1.764
57173W        W22400  19.620  14.721   0.089
57174W        W22401  17.535   6.002  10.678
57175W        W22402  40.034  40.048   0.837
57176W        W22403  12.206  10.244  13.932
57177W        W22404  32.145   3.136  12.452
57178W        W22405  40.333  26.984  13.100
57179W        W22406  23.752  31.567   0.238
57180W        W22407  35.087  12.977   4.060
57181W        W22408  15.440  28.904   1.624
57182W        W22409   6.777  39.120  11.287
57183W        W22410  18.333  39.460   4.059
57184W        W22411  11.106  16.810  14.930
57185W        W22412  30.989   1.321  11.137
57186W        W22413  23.571  32.003  11.884
57187W        W22414  10.751  34.343  13.828
57188W        W22415  37.371   3.474  10.400
57189W        W22416  39.021   4.783   3.021
57190W        W22417  29.576  39.560  14.031
57191W        W22418  21.751  44.320   2.412
57192W        W22419  26.059  33.852  12.419
57193W        W22420  31.002  16.151   2.288
57194W        W22421  11.147   7.009   2.289
57195W        W22422  23.001  12.699  12.344
57196W        W22423   7.686  36.434   1.363
57197W        W22424  31.770  17.766   2.744
57198W        W22425  42.803  10.562  10.692
57199W        W22426  18.791   6.385   0.174
57200W        W22427   1.655   2.307   4.560
57201W        W22428   4.357   7.701   4.879
57202W        W22429  24.153  42.564   3.999
57203W        W22430  27.901  10.290   1.683
57204W        W22431  25.257  19.378  13.050
57205W        W22432  38.593  43.528   3.237
57206W        W22433  37.547   8.503  13.751
57207W        W22434  18.244  42.567  13.818
57208W        W22435  11.498  25.518   1.474
57209W        W22436  17.973  16.614   2.830
57210W        W22437   5.744  37.561  14.071
57211W        W22438  16.997  23.998  13.784
57212W        W22439  18.605  28.213  11.148
57213W        W22440   2.890   7.740   1.641
57214W        W22441  16.746  31.344  11.996
57215W        W22442  38.834  43.357   4.651
57216W        W22443   4.133  43.959  14.001
57217W        W22444   1.509  10.902  13.554
57218W        W22445   6.857  41.397   4.395
57219W        W22446  40.858   8.248  12.122
57220W        W22447  25.202  29.097   2.796
57221W        W22448   7.341  35.156  13.344
57222W        W22449  28.967   1.412  14.715
57223W        W22450  44.367   0.968  11.721
57224W        W22451  43.318  37.112   3.332
57225W        W22452  23.191  14.738  14.929
57226W        W22453  40.868  32.169  11.488
57227W        W22454  26.799  43.812   0.845
57228W        W22455  20.572  14.324   3.220
57229W        W22456  32.567  24.227  12.473
57230W        W22457  33.633  10.135  13.782
57231W        W22458   2.837  25.504  14.087
57232W        W22459  43.942  15.975   2.391
57233W        W22460  24.048   3.273   9.828
57234W        W22461  20.577   6.829   4.748
57235W        W22462  32.944  18.636  12.008
57236W        W22463  31.159   4.359  14.877
57237W        W22464  13.839  19.015   0.681
57238W        W22465  42.032   1.214   2.408
57239W        W22466   6.327  17.595  14.288
57240W        W22467   1.454  10.301   2.225
57241W        W22468  18.244  39.232  10.176
57242W        W22469  38.894  16.646  14.563
57243W        W22470  18.163   3.174  14.205
57244W        W22471  36.802  18.791  12.605
57245W        W22472  15.215   3.974  14.799
57246W        W22473   2.400  38.744  13.082
57247W        W22474  32.403  11.194  13.768
57248W        W22475  42.586  35.422   4.047
57249W        W22476   4.963  44.672  11.048
57250W        W22477   4.693  35.349  13.276
57251W        W22478  19.866   4.006   4.369
57252W        W22479  38.430  19.127  10.394
57253W        W22480  24.303  40.418  12.662
57254W        W22481  41.914  35.189   3.151
57255W        W22482  18.353  21.973   0.807
57256W        W22483  25.945   3.501  13.897
57257W        W22484  42.463  27.722  12.586
57258W        W22485  22.371  29.427  12.032
57259W        W22486  24.004   8.830   3.206
57260W        W22487  24.615  31.603  14.035
57261W        W22488   6.290  43.029   4.340
57262W        W22489  19.634  37.510   4.161
57263W        W22490   0.823  11.121  14.347
57264W        W22491  44.050  23.016   0.335
57265W        W22492  31.889  24.192  13.862
57266W        W22493   8.482  11.147   4.796
57267W        W22494  24.675  19.284   2.337
57268W        W22495   9.381  29.510  10.504
57269W        W22496   1.988  29.087  11.867
57270W        W22497  34.108  13.326   9.899
57271W        W22498  36.292  44.826   2.821
57272W        W22499  11.203  26.671  14.075
57273W        W22500  15.981  21.001   3.092
57274W        W22501  39.668  19.139   1.808
57275W        W22502  11.272   4.336  11.396
57276W        W22503  43.983  13.328  11.525
57277W        W22504   2.325  31.412   2.199
57278W        W22505  39.306  21.599  13.162
57279W        W22506  20.028   5.153  12.144
57280W        W22507  30.679   0.512   2.299
57281W        W22508   6.224  10.309   1.321
57282W        W22509  36.620   8.327  12.991
57283W        W22510  25.958  24.814  12.481
57284W        W22511  38.068  10.376  10.521
57285W        W22512  38.894  18.506   1.528
57286W        W22513  36.964  43.964  10.722
57287W        W22514  14.612  36.919   4.655
57288W        W22515   8.409  36.087  11.515
57289W        W22516  18.178  29.909  12.010
57290W        W22517  37.945  39.044  14.209
57291W        W22518  10.905  12.436  11.590
57292W        W22519  27.143  24.614   1.406
57293W        W22520  39.258  19.631  11.501
57294W        W22521  11.419  23.297  11.215
57295W        W22522  24.474   8.336  14.003
57296W        W22523  13.095  14.727  12.069
57297W        W22524   4.746   7.983  11.948
57298W        W22525  39.861  40.566  11.656
57299W        W22526   3.326  33.621  14.098
57300W        W22527   3.750  22.314  12.006
57301W        W22528  30.603   6.206   4.474
57302W        W22529  43.739  35.580   2.213
57303W        W22530   0.458  25.259  11.631
57304W        W22531  44.362  12.266   3.595
57305W        W22532  36.509  23.247  12.820
57306W        W22533   0.214   3.791  11.697
57307W        W22534  21.661   7.944  14.375
57308W        W22535  36.493  40.726   2.529
57309W        W22536  22.326  16.752  12.399
57310W        W22537   8.922  19.529  13.293
57311W        W22538  42.068  10.290  13.257
57312W        W22539  32.479  18.523  13.923
57313W        W22540  30.163  44.856   0.793
57314W        W22541  25.791  13.134   2.691
57315W        W22542   5.797  30.235   1.826
57316W        W22543   9.437  12.502   4.065
57317W        W22544  13.693  43.878  11.893
57318W        W22545   0.451  15.059   4.547
57319W        W22546  26.668  21.513   5.019
57320W        W22547  27.134  42.527   4.847
57321W        W22548  25.584  32.158  14.472
57322W        W22549  16.155  27.557   3.199
57323W        W22550  35.086  32.992   4.317
57324W        W22551   0.725  40.402   3.280
57325W        W22552  28.504  17.259  12.037
57326W        W22553  33.618  21.149   4.123
57327W        W22554   7.785  34.964  14.272
57328W        W22555  38.424  23.310   2.202
57329W        W22556   6.864   2.346   2.577
57330W        W22557   2.404   3.680   2.138
57331W        W22558  43.114  39.896   3.017
57332W        W22559  43.901  31.874   1.744
57333W        W22560  40.226  25.109   1.811
57334W        W22561   5.834   7.575   4.537
57335W        W22562  17.239  42.558  14.861
57336W        W22563  18.185   7.354   3.804
57337W        W22564   0.506  25.669   2.912
57338W        W22565   1.841  19.184  14.898
57339W        W22566  22.605  16.759  11.952
57340W        W22567  42.402  26.948   4.545
57341W        W22568  18.531  30.184   4.097
57342W        W22569  14.496   2.610  11.547
57343W        W22570  14.368  34.452   0.506
57344W        W22571   8.179   8.824   3.487
57345W        W22572  31.468   8.614   1.408
57346W        W22573  30.338  37.042  13.040
57347W        W22574   3.946  27.990  10.461
57348W        W22575   3.238   3.705  13.301
57349W        W22576  14.163  21.283  13.023
57350W        W22577  31.855  23.239   0.808
57351W        W22578  15.813  14.163   1.049
57352W        W22579  20.957  44.475  14.087
57353W        W22580  22.975  35.457   4.212
57354W        W22581  10.014  14.119   0.975
57355W        W22582  10.190   4.007  13.404
57356W        W22583   6.656  42.725   3.639
57357W        W22584  15.548   1.351   4.039
57358W        W22585  24.604  26.957   0.605
57359W        W22586  11.795  39.278   2.924
57360W        W22587  34.347  21.722   4.172
57361W        W22588  27.165  43.849  12.418
57362W        W22589  34.009  15.538  13.872
57363W        W22590  44.254  16.503  11.150
57364W        W22591  23.559  22.333   4.496
57365W        W22592   8.274   8.388   3.834
57366W        W22593  29.072  14.361  14.048
57367W        W22594  38.118  35.400   3.641
57368W        W22595  20.527   6.918  12.936
57369W        W22596  30.361  43.835  14.906
57370W        W22597  44.738  19.563   1.086
57371W        W22598  20.881   6.265   2.846
57372W        W22599  40.486  28.399   1.507
57373W        W22600  27.451  37.008  11.073
57374W        W22601  43.585  28.344  13.700
57375W        W22602  13.718   3.618  11.561
57376W        W22603  40.530   6.566  13.339
57377W        W22604  27.174  25.939   1.838
57378W        W22605  13.185  29.566   4.112
57379W        W22606  21.092  28.511   2.800
57380W        W22607  10.254  24.235  11.533
57381W        W22608  25.644  33.837   1.455
57382W        W22609   0.780  10.695   1.102
57383W        W22610  38.799  34.723  14.385
57384W        W22611  30.384  44.714  13.870
57385W        W22612  17.813  42.554  11.508
57386W        W22613  14.645  20.121  13.381
57387W        W22614  34.530  27.670   0.087
57388W        W22615  34.184  17.081   5.029
57389W        W22616   7.300   9.476  11.875
57390W        W22617  24.779   6.308  10.673
57391W        W22618   0.371  20.713   2.663
57392W        W22619  42.704  26.746   4.944
57393W        W22620  44.354   1.362   2.067
57394W        W22621  36.035  12.675  11.646
57395W        W22622  24.261  27.109  13.827
57396W        W22623  37.954  34.140   4.163
57397W        W22624  44.788  15.024   2.812
57398W        W22625  10.667  10.270   4.880
57399W        W22626  34.931  44.518   9.604
57400W        W22627  32.536  23.771  13.565
57401W        W22628  13.113  39.304  11.914
57402W        W22629  40.777   8.018   1.143
57403W        W22630   3.930  43.888  13.466
57404W        W22631   2.422  11.861   2.365
57405W        W22632  10.794  17.786  11.133
57406W        W22633  35.609  38.080  11.508
57407W        W22634  43.841  25.123  12.553
57408W        W22635  11.118  30.101   4.479
57409W        W22636  35.126  15.385   0.595
57410W        W22637  31.253  29.415  12.482
57411W        W22638   7.581  44.961   3.304
57412W        W22639  36.755  33.883   3.824
57413W        W22640  23.141  34.476   1.370
57414W        W22641  19.269   5.250   2.127
57415W        W22642  27.852  16.883   5.082
57416W        W22643  42.951  35.864  14.740
57417W        W22644  18.949  10.833  14.372
57418W        W22645  25.792  28.075  10.729
57419W        W22646  35.012  14.763   3.984
57420W        W22647  22.017  33.880   0.353
57421W        W22648  12.658  18.750  10.773
57422W        W22649  28.129   2.903   4.225
57423W        W22650  17.077  14.748   3.347
57424W        W22651  18.248  24.585   0.858
57425W        W22652  12.776  10.135  11.182
57426W        W22653  33.117  27.241   1.776
57427W        W22654   7.396  32.601   0.799
57428W        W22655  30.389  33.875  11.473
57429W        W22656  25.779  25.574   1.764
57430W        W22657   5.976  19.191  11.411
57431W        W22658   8.431  40.070   1.235
57432W        W22659  41.852  33.976   2.295
57433W        W22660  11.558  22.992  14.204
57434W        W22661  18.215  10.638   3.571
57435W        W22662  30.612  37.489   0.992
57436W        W22663   2.967   4.818   4.557
57437W        W22664  12.787  12.028  13.180
57438W        W22665  20.217  38.413  10.948
57439W        W22666  12.358   4.945   2.715
57440W        W22667  40.630   4.368   4.109
57441W        W22668  41.688  34.588  14.511
57442W        W22669  10.288  37.507   0.021
57443W        W22670   4.610  36.085  12.437
57444W        W22671  35.873  33.364   2.215
57445W        W22672  29.863  36.376  11.140
57446W        W22673  14.160  19.672  14.646
57447W        W22674  11.577  28.644  10.696
57448W        W22675  10.122  44.090   1.630
57449W        W22676  34.479  18.931  11.889
57450W        W22677  22.410  12.117  10.398
57451W        W22678  39.454  36.312  11.189
57452W        W22679  40.130   1.696   2.605
57453W        W22680  41.448  39.500  11.816
57454W        W22681  25.414  16.472  10.781
57455W        W22682  13.640  29.925  12.586
57456W        W22683  16.688  30.550   0.200
57457W        W22684  28.299  20.600  12.504
57458W        W22685  27.440  36.325  11.522
57459W        W22686  16.337  25.190  12.407
57460W        W22687  25.095  31.535   4.262
57461W        W22688  25.243  39.209  12.260
57462W        W22689  19.401   9.288   3.672
57463W        W22690   6.940  14.210  10.329
57464W        W22691  24.375  14.069  11.048
57465W        W22692   5.862  19.627   3.369
57466W        W22693   1.783  29.350   3.645
57467W        W22694  39.332  43.636   4.376
57468W        W22695   1.631   8.051   0.990
57469W        W22696   9.098  12.704  11.458
57470W        W22697  43.124  24.432  12.605
57471W        W22698  44.458  38.926  10.547
57472W        W22699   4.164  42.968  11.080
57473W        W22700  40.408   4.393  10.745
57474W        W22701  17.302  42.747   2.333
57475W        W22702  12.418  33.664   4.954
57476W        W22703  28.837  27.494  11.613
57477W        W22704  20.123  35.827   4.144
57478W        W22705  20.563  23.181   2.966
57479W        W22706  31.422   8.080  14.829
57480W        W22707  43.906   1.311   3.733
57481W        W22708  32.067  27.034  11.701
57482W        W22709   1.364  37.576   4.831
57483W        W22710  30.899   6.949   0.971
57484W        W22711  35.114   6.673   4.095
57485W        W22712  38.673  30.143  12.319
57486W        W22713  25.617  41.899  11.947
57487W        W22714  32.471  29.333  11.623
57488W        W22715  30.387  38.580   2.949
57489W        W22716  37.284  19.025  13.994
57490W        W22717   6.600   6.690   2.450
57491W        W22718   3.060  36.888   3.127
57492W        W22719  13.619   0.023  14.767
57493W        W22720  34.665  34.135   1.926
57494W        W22721  16.360   1.658   2.282
57495W        W22722  18.283  39.796  11.643
57496W        W22723   4.309   9.196  12.089
57497W        W22724   8.357  22.025  14.943
57498W        W22725  25.473   5.680  11.895
57499W        W22726  36.617  36.001  13.748
57500W        W22727  14.724  29.701  13.115
57501W        W22728  25.450  21.689   0.905
57502W        W22729  24.043  34.665  12.101
57503W        W22730  43.064  32.870  11.107
57504W        W22731  36.133  39.855   4.111
57505W        W22732  26.096  23.966   2.103
57506W        W22733  17.111  21.066   0.538
57507W        W22734  24.587  30.521  11.831
57508W        W22735  39.559   5.056   2.646
57509W        W22736  18.565   3.848   4.673
57510W        W22737  13.108  39.119  11.244
57511W        W22738  29.515  18.131   1.661
57512W        W22739  36.049  37.537  14.102
57513W        W22740  39.572  28.190   3.376
57514W        W22741   1.526   0.820   3.262
57515W        W22742   2.964  13.678   0.911
57516W        W22743  19.338  39.236  12.663
57517W        W22744   9.708  25.474   3.540
57518W        W22745   8.203  10.182  14.972
57519W        W22746  11.678  40.920  10.471
57520W        W22747  24.112  31.175   0.306
57521W        W22748  13.308  37.189  12.444
57522W        W22749  19.697   1.011  10.457
57523W        W22750  28.161  22.666   2.636
57524W        W22751  30.158   1.225   3.777
57525W        W22752   8.327  13.155  12.917
57526W        W22753  32.176  33.086   3.336
57527W        W22754  35.404  23.966   0.249
57528W        W22755  41.347  25.511  13.367
57529W        W22756   6.883  12.888   1.963
57530W        W22757  36.892  38.993  11.047
57531W        W22758  31.776  21.215   1.715
57532W        W22759  37.921   6.710  13.139
57533W        W22760  10.584  26.481   3.678
57534W        W22761  14.059  15.743   4.015
57535W        W22762  11.382  17.068  13.420
57536W        W22763   6.146  28.139  11.949
57537W        W22764   0.913  25.195   1.886
57538W        W22765  23.480   1.373   2.272
57539W        W22766  35.750   2.360  13.745
57540W        W22767  15.068  13.843   1.435
57541W        W22768  43.142  10.315   0.637
57542W        W22769  42.286   7.489   1.861
57543W        W22770  13.443  13.877   1.000
57544W        W22771  24.675  12.455   1.186
57545W        W22772  14.253   8.610   1.887
57546W        W22773  19.553   2.746   1.196
57547W        W22774  29.090  18.827   2.616
57548W        W22775  11.150  30.631   1.264
57549W        W22776  37.231  28.736  13.979
57550W        W22777  16.026  20.009  14.380
57551W        W22778  16.395  36.423   4.507
57552W        W22779  16.826  34.416   3.302
57553W        W22780  40.391  19.228   1.454
57554W        W22781  14.132  32.067   0.717
57555W        W22782  36.450  12.990  11.620
57556W        W22783  12.054  41.652   3.339
57557W        W22784  36.138   1.959   3.488
57558W        W22785  15.654  11.923   0.787
57559W        W22786  25.498  36.489   1.559
57560W        W22787  42.909  25.438   1.781
57561W        W22788  23.496  27.076   1.774
57562W        W22789   4.863  15.521   0.343
57563W        W22790  30.856  31.343   3.365
57564W        W22791  20.351  37.755  12.790
57565W        W22792  20.378  40.294  13.492
57566W        W22793  27.971   1.966   3.272
57567W        W22794   0.897   7.176  13.496
57568W        W22795  17.179  25.245   1.508
57569W        W22796   6.357  24.487  13.077
57570W        W22797  12.688  37.776  13.530
57571W        W22798  36.035  17.797  13.387
57572W        W22799  34.086   8.637  11.716
57573W        W22800  18.671  14.797  14.779
57574W        W22801  12.611  26.873  14.843
57575W        W22802  22.510  39.764   0.495
57576W        W22803   7.755  27.655   4.420
57577W        W22804  26.862  40.112  13.203
57578W        W22805   3.176  11.916  14.869
57579W        W22806  11.958  44.456  10.222
57580W        W22807  30.134  26.002   2.405
57581W        W22808  11.572  22.682  11.979
57582W        W22809  31.986  38.159   3.623
57583W        W22810  26.068  41.803   3.814
57584W        W22811  40.433   2.795   1.828
57585W        W22812  25.652  37.916  14.601
57586W        W22813  41.890  28.874  13.911
57587W        W22814   8.936  32.331  12.687
57588W        W22815  15.560  38.597  11.158
57589W        W22816   0.974  12.383   2.831
57590W        W22817  21.680  11.824  14.860
57591W        W22818  39.060  23.070   4.671
57592W        W22819  17.421  23.158  10.330
57593W        W22820  15.989  17.334   3.375
57594W        W22821  27.011   9.112  13.496
57595W        W22822  43.397  27.519   2.072
57596W        W22823  35.272  41.444   0.272
57597W        W22824  28.387   5.363   1.667
57598W        W22825  26.278   1.425   0.795
57599W        W22826   4.139  36.976   1.748
57600W        W22827  32.573  20.536   0.398
57601W        W22828  43.102  33.946   3.352
57602W        W22829  10.560  16.648   1.724
57603W        W22830  43.828  31.398  14.819
57604W        W22831  29.536  40.658   4.754
57605W        W22832  23.263  18.779  12.104
57606W        W22833  34.759  10.022  12.126
57607W        W22834   7.621  33.373   4.592
57608W        W22835  29.794  33.683  12.977
57609W        W22836   2.054  24.505   0.074
57610W        W22837  10.742  28.188  14.998
57611W        W22838  12.783  15.287   3.448
57612W        W22839  27.413  35.109   1.208
57613W        W22840  25.473  30.198   2.396
57614W        W22841  19.080   6.828   2.851
57615W        W22842  21.147  24.283  14.565
57616W        W22843  14.397  39.425  14.068
57617W        W22844  24.657  33.434  14.307
57618W        W22845  42.901  30.556   1.629
57619W        W22846  21.221   6.628   2.702
57620W        W22847  29.163  37.850  13.102
57621W        W22848  18.639  24.636   2.601
57622W        W22849  44.419  14.835  12.530
57623W        W22850  35.966  35.058   3.601
57624W        W22851  27.207  20.078  13.428
57625W        W22852   1.010  15.848  14.309
57626W        W22853  28.755  21.513  12.604
57627W        W22854  15.136   4.102   1.682
57628W        W22855   6.407  20.500   4.317
57629W        W22856   3.991  33.511  12.885
57630W        W22857  32.870  43.669   0.708
57631W        W22858  33.305   5.641   4.624
57632W        W22859  32.231   0.337   0.430
57633W        W22860  43.037  40.898  13.995
57634W        W22861  40.499  28.536   0.971
57635W        W22862   5.645  17.760  10.711
57636W        W22863  29.463   6.128  10.239
57637W        W22864  34.129  38.213   4.910
57638W        W22865  23.143  16.882   0.669
57639W        W22866   8.529  26.790  12.985
57640W        W22867  38.468  36.445   0.395
57641W        W22868  15.819  18.286   9.769
57642W        W22869  12.773  39.993  14.832
57643W        W22870  38.034  18.640   0.027
57644W        W22871  31.446  22.770   4.774
57645W        W22872  17.388  29.611  11.779
57646W        W22873  22.601   1.446  14.500
57647W        W22874   4.340   9.920  13.932
57648W        W22875  31.192   7.794   0.239
57649W        W22876  42.372  12.708   0.326
57650W        W22877  22.804  26.617   3.112
57651W        W22878  41.471   9.815   4.572
57652W        W22879  38.740  29.637  14.251
57653W        W22880  40.097  34.898  10.613
57654W        W22881  11.048  34.624   4.079
57655W        W22882  39.186   2.852  13.206
57656W        W22883   0.091   4.684   4.561
57657W        W22884  15.237   0.704   1.348
57658W        W22885  35.532  40.936   2.244
57659W        W22886  23.123   0.898  13.469
57660W        W22887  25.001  27.934  11.143
57661W        W22888  25.195  28.586  13.798
57662W        W22889   4.360  28.422   4.832
57663W        W22890   5.592  28.351   4.348
57664W        W22891   7.956  42.980  13.316
57665W        W22892  18.204  21.530  14.504
57666W        W22893  14.464   9.249   3.685
57667W        W22894  14.070  28.233   4.597
57668W        W22895  29.081   4.910   4.838
57669W        W22896  34.878   1.908  13.831
57670W        W22897  32.534  29.033   2.648
57671W        W22898  33.973  37.533  13.570
57672W        W22899   7.840  21.804   3.615
57673W        W22900   7.227  41.313  14.274
57674W        W22901  17.620  40.470  13.323
57675W        W22902   9.902  20.282  11.108
57676W        W22903  14.115   3.948   4.511
57677W        W22904   0.799   1.440  13.752
57678W        W22905  10.949   9.292   4.906
57679W        W22906  33.691  29.687  11.212
57680W        W22907   2.308  24.728   2.901
57681W        W22908  38.396  22.282   2.520
57682W        W22909  32.711  33.269  10.941
57683W        W22910  39.772  13.729   4.046
57684W        W22911  14.271  18.765  14.987
57685W        W22912  33.552  41.558   0.347
57686W        W22913  44.666  23.650   1.966
57687W        W22914  22.008  16.168   3.692
57688W        W22915  25.670  32.540   3.277
57689W        W22916  35.632  39.543  11.045
57690W        W22917  11.979  24.180   4.366
57691W        W22918   5.728   8.906  11.992
57692W        W22919  32.827  26.471   9.729
57693W        W22920  44.777  32.687   0.810
57694W        W22921  26.831   3.700   3.189
57695W        W22922  25.016  37.413   0.940
57696W        W22923  15.255   0.124   3.621
57697W        W22924   7.215  42.439  10.620
57698W        W22925  38.978  33.042  12.345
57699W        W22926  18.701   2.998  13.477
57700W        W22927   3.322   5.709  11.615
57701W        W22928  20.038  39.372   3.158
57702W        W22929  23.767   6.438  10.322
57703W        W22930  22.790  32.950   0.825
57704W        W22931  19.405  35.212   1.150
57705W        W22932   5.458   8.838   4.323
57706W        W22933  22.983  17.681  12.657
57707W        W22934   3.864  13.170   0.721
57708W        W22935  33.936  29.276   1.260
57709W        W22936   4.261  18.875  10.959
57710W        W22937  19.093  42.490   4.225
57711W        W22938  26.233  21.077   1.864
57712W        W22939  24.150  43.843  10.274
57713W        W22940  40.980  43.675  10.824
57714W        W22941  12.187  37.571  12.189
57715W        W22942  32.817   8.672   3.613
57716W        W22943  29.246  35.661  12.457
57717W        W22944  11.399   6.179   4.478
57718W        W22945  19.617  40.820   1.788
57719W        W22946  44.034  18.111  14.468
57720W        W22947  21.591   6.991   3.530
57721W        W22948  13.990  11.873  12.928
57722W        W22949   9.623  34.018  13.354
57723W        W22950  39.334  19.679   3.821
57724W        W22951  22.901   0.718   1.696
57725W        W22952   8.039   5.453   0.425
57726W        W22953   5.075  10.446  13.799
57727W        W22954  35.010  19.014   4.549
57728W        W22955  31.717  16.388  11.991
57729W        W22956  32.916  22.620  14.050
57730W        W22957  16.228  20.561   2.278
57731W        W22958  13.040  29.947  11.566
57732W        W22959  19.095  10.981   3.358
57733W        W22960   0.761  29.573  12.080
57734W        W22961   5.081  16.604  12.705
57735W        W22962  22.577  17.092   3.735
57736W        W22963   0.355  13.277   2.678
57737W        W22964  19.099  31.005  10.645
57738W        W22965  15.098  18.594  14.474
57739W        W22966  13.357  18.179   2.253
57740W        W22967   8.422  39.273   3.646
57741W        W22968  40.211   1.265   3.242
57742W        W22969  34.713  16.196  11.022
57743W        W22970  14.659  18.959  13.443
57744W        W22971  38.937  11.775  11.169
57745W        W22972  40.900  19.165   0.680
57746W        W22973  10.503  10.485   4.018
57747W        W22974  30.440   0.771   0.349
57748W        W22975  23.974  26.274   0.258
57749W        W22976  44.008   5.133   3.656
57750W        W22977   3.399  42.283   3.657
57751W        W22978  28.245  44.473  12.143
57752W        W22979  20.859  30.071   4.325
57753W        W22980  30.248  39.981  11.111
57754W        W22981  26.080   9.754  14.794
57755W        W22982   8.756  20.284   4.392
57756W        W22983  25.652   9.647   2.479
57757W        W22984  24.063  17.199   4.196
57758W        W22985  35.965  15.180  14.825
57759W        W22986   5.350  24.571  12.978
57760W        W22987  11.883   4.708  10.117
57761W        W22988  34.647  35.804  11.960
57762W        W22989   2.981   9.001   2.707
57763W        W22990   6.365  11.287   3.866
57764W        W22991  25.211  20.279   0.901
57765W        W22992   4.302  30.374   1.034
57766W        W22993  41.868  12.748   4.579
57767W        W22994   4.038  10.784   2.831
57768W        W22995  17.587  30.921  14.965
57769W        W22996  10.100   4.790  14.934
57770W        W22997   4.149  29.688   3.711
57771W        W22998  44.934   5.802  10.952
57772W        W22999  18.113  31.280   2.767
57773W        W23000  10.769  40.816  14.944
57774W        W23001  33.030  42.364  12.269
57775W        W23002  39.911   4.765  10.246
57776W        W23003  16.727  30.064   2.447
57777W        W23004  31.650  44.552  14.051
57778W        W23005  44.004   8.839   3.678
57779W        W23006  41.659  41.349   4.630
57780W        W23007   4.121  43.016  14.984
57781W        W23008   4.369  15.062   2.424
57782W        W23009  19.194   7.481  14.159
57783W        W23010  10.411  39.451   0.747
57784W        W23011   8.096  23.963   1.155
57785W        W23012   7.486  17.081  11.073
57786W        W23013   9.098  20.309   2.309
57787W        W23014   7.458  18.229  10.526
57788W        W23015   4.953  43.390   1.861
57789W        W23016  16.750  44.508   1.129
57790W        W23017  43.717  19.480  11.150
57791W        W23018  17.703  11.623  14.502
57792W        W23019   6.336  23.200  11.169
57793W        W23020   8.746  33.590  14.127
57794W        W23021  36.805   7.877  12.826
57795W        W23022  39.687  41.315   0.267
57796W        W23023  16.293  24.188  13.282
57797W        W23024   3.543  16.283   4.061
57798W        W23025  30.199  23.493   4.187
57799W        W23026  26.560  17.522  10.507
57800W        W23027  19.258   5.911  13.406
57801W        W23028   9.885  12.591   0.985
57802W        W23029  33.552  31.927  13.406
57803W        W23030   0.430  12.922   4.565
57804W        W23031  25.936  21.751  14.858
57805W        W23032   9.805  29.588   2.091
57806W        W23033  33.176  43.359  13.888
57807W        W23034   3.643  10.174  13.365
57808W        W23035  39.199  12.082   5.063
57809W        W23036  25.620  44.386   3.039
57810W        W23037  41.136  18.312  13.017
57811W        W23038  39.977  11.733   2.453
57812W        W23039  19.026  10.342  11.470
57813W        W23040  18.544   2.040  14.838
57814W        W23041  10.428   6.302   4.556
57815W        W23042  11.253  28.504  12.444
57816W        W23043  41.953  35.776  12.919
57817W        W23044   0.380  10.822  12.119
57818W        W23045  23.167  18.748  14.538
57819W        W23046  12.175  41.430   0.766
57820W        W23047   3.779  11.131  12.592
57821W        W23048   1.033   4.203   0.020
57822W        W23049  44.822  13.745   3.428
57823W        W23050   5.866  29.539   3.069
57824W        W23051  13.587  39.191   1.379
57825W        W23052  15.219  23.512  11.605
57826W        W23053   0.230  23.958  12.150
57827W        W23054  35.539  37.084   0.447
57828W        W23055  17.295  43.437  12.423
57829W        W23056  36.111  24.735  12.309
57830W        W23057  42.461   7.766   1.221
57831W        W23058   8.844   6.497   4.582
57832W        W23059  32.418   0.856   2.927
57833W        W23060   3.904  18.198  10.722
57834W        W23061   0.397  17.809  11.520
57835W        W23062   9.677   0.259   4.678
57836W        W23063  36.781  24.966   0.347
57837W        W23064  21.726  11.912  14.350
57838W        W23065  10.162   2.480  13.931
57839W        W23066  33.820  16.856   1.921
57840W        W23067  23.568  44.727  13.637
57841W        W23068  38.271  43.738  13.647
57842W        W23069  35.357   5.899   4.441
57843W        W23070  14.148  17.698  12.486
57844W        W23071   7.967   2.800  14.225
57845W        W23072  43.071   8.167  13.561
57846W        W23073  34.098  38.417  13.560
57847W        W23074  35.519   0.388  13.605
57848W        W23075  23.033   4.968   4.096
57849W        W23076  26.896  14.399  11.433
57850W        W23077  30.360  24.014  13.937
57851W        W23078  34.430  18.076  13.524
57852W        W23079  23.552  30.348   3.529
57853W        W23080  11.635  32.681  14.838
57854W        W23081  31.732  43.748   4.316
57855W        W23082   0.465  39.385   3.552
57856W        W23083  26.483  44.030  13.829
57857W        W23084   2.761  30.604   3.012
57858W        W23085  10.799  40.233   1.297
57859W        W23086  19.300  12.565   2.729
57860W        W23087  34.991  35.713   5.116
57861W        W23088  41.475   7.294  10.864
57862W        W23089  21.295   9.769   2.823
57863W        W23090  19.225  32.134   2.380
57864W        W23091   4.347  36.076  13.895
57865W        W23092  37.624  36.832   4.124
57866W        W23093  36.835  14.679   2.327
57867W        W23094  14.236  40.053   0.220
57868W        W23095  15.199   6.817  13.597
57869W        W23096  42.440  22.079   2.795
57870W        W23097   6.773   3.790   0.286
57871W        W23098  35.989  26.390   1.526
57872W        W23099  29.817  41.421   4.881
57873W        W23100  10.984  40.164   4.072
57874W        W23101  30.047  38.139   2.283
57875W        W23102  41.034  20.165  12.112
57876W        W23103  29.157  20.379   4.298
57877W        W23104  13.116  19.155   2.056
57878W        W23105  39.780  11.860  10.737
57879W        W23106  16.238   2.324  11.139
57880W        W23107  25.196  31.013  14.908
57881W        W23108  44.874  24.984   1.556
57882W        W23109  40.852   1.975   0.909
57883W        W23110   9.365  22.215   2.181
57884W        W23111   7.508  26.171  12.459
57885W        W23112  28.140  12.642   0.111
57886W        W23113  15.330  10.133  12.520
57887W        W23114  15.385  22.598  12.988
57888W        W23115  30.941  13.059  11.258
57889W        W23116  21.567  40.434   2.169
57890W        W23117  14.248   5.235   0.977
57891W        W23118  14.256   5.261   2.326
57892W        W23119  18.671  32.060   1.067
57893W        W23120   2.969  37.604   1.626
57894W        W23121  11.645   1.010   3.979
57895W        W23122  14.962   7.444  10.892
57896W        W23123  34.007  42.445  12.204
57897W        W23124   2.323  15.145  11.569
57898W        W23125   5.672   3.764   2.657
57899W        W23126  31.477   3.795  13.453
57900W        W23127   5.752  20.458   2.290
57901W        W23128   4.618  14.808   5.056
57902W        W23129  19.353  32.377   4.209
57903W        W23130  33.445   6.746  10.603
57904W        W23131  29.471  40.045  13.821
57905W        W23132  18.018   1.354  12.532
57906W        W23133  27.144  40.639   3.818
57907W        W23134  34.532  36.825   3.441
57908W        W23135  24.196  13.567  12.368
57909W        W23136  41.774  19.624  14.603
57910W        W23137   9.568  10.129   3.894
57911W        W23138  28.122   8.478   1.707
57912W        W23139  33.008  28.199   4.494
57913W        W23140   3.904  33.043  13.082
57914W        W23141  19.949   2.007   3.228
57915W        W23142   0.301   9.143   4.664
57916W        W23143  18.164  25.935  12.436
57917W        W23144  20.256  41.962   4.123
57918W        W23145  34.596   4.913  11.958
57919W        W23146  27.497  18.007  10.777
57920W        W23147  41.828  34.085  14.601
57921W        W23148  18.702  16.822  14.253
57922W        W23149  34.434  30.616   4.156
57923W        W23150   0.465  10.317  14.224
57924W        W23151  40.770  33.553   1.718
57925W        W23152  23.151  21.109   1.509
57926W        W23153   6.308   2.904  11.973
57927W        W23154   9.577  13.650   0.384
57928W        W23155   6.704  24.567  14.289
57929W        W23156  12.066   7.624  14.296
57930W        W23157  35.050  18.170   0.496
57931W        W23158  29.414   5.050  14.849
57932W        W23159  12.782   1.363  14.988
57933W        W23160  42.776  42.005   0.021
57934W        W23161  24.029  26.131   4.693
57935W        W23162   8.619   0.954  11.972
57936W        W23163  37.490  28.968   0.359
57937W        W23164  26.102  44.294   0.690
57938W        W23165  41.073   2.168  10.504
57939W        W23166  44.262  37.326   1.382
57940W        W23167  15.119  39.916  12.435
57941W        W23168  21.389  29.471   1.430
57942W        W23169  30.628   7.219  13.627
57943W        W23170  14.833  14.855   3.325
57944W        W23171  39.091  32.368  10.030
57945W        W23172   3.355   3.225  12.504
57946W        W23173  16.723  12.744   1.808
57947W        W23174  41.009  44.737   1.981
57948W        W23175  11.693  43.420  13.077
57949W        W23176  31.915   5.690   3.714
57950W        W23177  26.406   9.953  13.492
57951W        W23178  23.594  34.740  14.502
57952W        W23179   6.216  34.478  14.028
57953W        W23180  35.981  17.688  14.883
57954W        W23181   8.300  29.283  11.743
57955W        W23182  38.705  24.990  13.392
57956W        W23183  35.406  38.599  10.200
57957W        W23184  10.224  12.981  13.739
57958W        W23185  26.586  30.322   4.930
57959W        W23186   4.369  17.095  11.993
57960W        W23187  20.016  12.740   1.850
57961W        W23188  23.571   5.926   4.231
57962W        W23189  40.080   7.732   0.726
57963W        W23190  35.345  17.701   0.510
57964W        W23191  24.414  34.697   2.150
57965W        W23192  35.096  15.102   1.082
57966W        W23193  29.767   8.964   3.701
57967W        W23194  18.131  31.165   4.058
57968W        W23195   0.510  27.694  12.028
57969W        W23196  37.335  23.996  10.676
57970W        W23197  13.531  32.352   2.735
57971W        W23198  14.666  33.628   0.470
57972W        W23199  35.875  12.855   3.776
57973W        W23200   7.648  32.934   1.823
57974W        W23201  34.575  39.039   1.805
57975W        W23202   3.722  15.154  10.643
57976W        W23203  34.563  14.520  13.899
57977W        W23204   8.907  35.432  14.438
57978W        W23205  33.005  19.192  13.617
57979W        W23206  35.454  38.543  12.184
57980W        W23207  26.670  11.405   4.453
57981W        W23208  32.259   6.223  12.465
57982W        W23209   8.717  43.379   4.585
57983W        W23210  17.080  10.362   3.815
57984W        W23211  42.740  31.600   0.986
57985W        W23212   4.966  35.341  11.094
57986W        W23213  19.276   5.918   1.429
57987W        W23214  14.242  21.854   3.809
57988W        W23215   1.211  28.548  14.907
57989W        W23216  30.865  12.650   9.826
57990W        W23217  18.318   5.736   4.460
57991W        W23218  26.915   3.148  13.872
57992W        W23219  35.072  19.763  10.919
57993W        W23220  37.013  10.048  12.433
57994W        W23221  22.100  22.723  14.333
57995W        W23222  19.084   2.087   3.241
57996W        W23223  20.133   3.907  10.646
57997W        W23224  25.962  23.944   1.125
57998W        W23225  43.925   8.066  13.048
57999W        W23226   8.896  22.321  12.550
58000W        W23227  19.683  11.899  11.864
58001W        W23228   3.700  24.637  12.328
58002W        W23229  24.472  41.001  13.568
58003W        W23230  15.782  10.329  14.326
58004W        W23231  28.755  25.933   2.880
58005W        W23232  34.435  29.620  11.645
58006W        W23233  43.339  27.421  11.419
58007W        W23234   2.532   4.348  12.856
58008W        W23235  15.537  35.011   3.873
58009W        W23236  15.177  39.102   1.767
58010W        W23237  44.370  34.121  13.506
58011W        W23238  44.320  37.308  12.430
58012W        W23239  15.339  27.730   0.315
58013W        W23240  14.732  36.052  10.689
58014W        W23241  44.264   7.206  10.901
58015W        W23242   8.537  31.584   1.321
58016W        W23243  25.696  43.000  11.205
58017W        W23244  19.217  14.864   3.005
58018W        W23245  12.713  16.348   1.583
58019W        W23246   4.377  20.654  11.969
58020W        W23247  12.617  27.065   1.387
58021W        W23248  38.522  30.951   4.560
58022W        W23249  35.781  37.118  11.006
58023W        W23250   2.474   3.456   1.406
58024W        W23251  24.077   1.801   0.035
58025W        W23252  10.610  32.401  13.379
58026W        W23253  11.681  30.268  13.907
58027W        W23254  27.068  38.560   2.341
58028W        W23255  22.590  30.410   3.546
58029W        W23256  38.459  36.049   0.061
58030W        W23257  10.433   1.458  14.386
58031W        W23258  27.376  34.123  12.090
58032W        W23259  44.620  25.003   2.436
58033W        W23260  33.107   3.475   0.340
58034W        W23261  12.094  31.356  14.315
58035W        W23262  32.605  16.181  14.636
58036W        W23263  20.184  36.476  12.492
58037W        W23264   3.692  12.628   1.660
58038W        W23265  40.220  21.159  12.991
58039W        W23266   8.920   6.839   0.189
58040W        W23267  13.373   8.691   3.079
58041W        W23268  34.901   6.421  11.580
58042W        W23269  26.900   4.801   2.198
58043W        W23270  15.211  31.979  10.988
58044W        W23271  37.332  19.019   4.415
58045W        W23272  18.552  14.223   3.575
58046W        W23273  31.771  23.552  10.678
58047W        W23274  43.091  14.692   0.139
58048W        W23275  36.821  13.100   2.623
58049W        W23276  41.232  41.190   0.279
58050W        W23277  16.982  42.953  11.522
58051W        W23278  24.219   0.876   3.347
58052W        W23279  24.092  24.309  11.681
58053W        W23280  23.452   9.772  14.322
58054W        W23281  29.533  15.719  12.458
58055W        W23282  17.356  18.758   0.658
58056W        W23283  24.003  42.434  11.601
58057W        W23284  43.597   0.446   3.274
58058W        W23285  28.056   4.594   3.179
58059W        W23286  19.599  28.353  14.981
58060W        W23287  16.074   3.337  13.872
58061W        W23288  21.253  23.154  14.001
58062W        W23289  16.612  20.769   3.810
58063W        W23290   2.341  23.541   0.388
58064W        W23291  19.202  29.077  14.997
58065W        W23292  44.765  25.250   2.864
58066W        W23293   8.867  14.236  12.136
58067W        W23294  18.506  34.755  11.974
58068W        W23295  34.342  40.584   0.789
58069W        W23296  37.425  29.955   4.530
58070W        W23297  29.090  40.134   0.177
58071W        W23298   1.116   9.501  12.482
58072W        W23299  33.498  31.713   4.069
58073W        W23300  43.772  14.290  11.758
58074W        W23301  28.003  33.927  12.947
58075W        W23302  12.323  36.805   1.382
58076W        W23303  29.347  16.626  12.021
58077W        W23304  34.583   3.949   1.749
58078W        W23305  33.456  28.651   0.452
58079W        W23306  18.947  20.614   1.817
58080W        W23307   8.458  34.855   5.428
58081W        W23308   9.319   7.304  10.779
58082W        W23309  40.231  33.390  13.445
58083W        W23310  22.573  19.769   2.636
58084W        W23311  36.774  35.636   2.687
58085W        W23312  38.396  25.297  12.408
58086W        W23313  17.593  18.510  11.611
58087W        W23314  11.892  44.175   4.173
58088W        W23315  16.781  27.833  14.134
58089W        W23316  22.647  44.738   2.389
58090W        W23317  25.561  10.175   0.842
58091W        W23318  10.647  33.430  12.897
58092W        W23319  13.120   5.212   2.404
58093W        W23320   1.804  37.658  13.537
58094W        W23321  42.482  42.758   2.172
58095W        W23322  32.529  11.205  10.983
58096W        W23323   7.229  12.620   1.716
58097W        W23324  32.437   0.474   0.883
58098W        W23325  11.303  18.796  12.835
58099W        W23326  27.158   3.922  12.532
58100W        W23327  35.851   6.707  13.337
58101W        W23328  26.389  12.945  11.236
58102W        W23329  28.131  10.432   0.326
58103W        W23330  38.349  19.614   4.220
58104W        W23331  12.365  20.566  14.090
58105W        W23332  20.603  10.882  11.049
58106W        W23333  15.288  38.787  12.453
58107W        W23334  44.738  30.979  14.595
58108W        W23335  13.313  28.682   2.367
58109W        W23336   1.315  25.194  14.907
58110W        W23337  10.648  25.229  12.467
58111W        W23338  24.659  33.110   3.163
58112W        W23339  19.042  18.571  12.638
58113W        W23340  15.728  26.982   3.660
58114W        W23341   1.763  33.801  11.984
58115W        W23342  24.264  16.519  14.161
58116W        W23343   6.708  23.275   3.562
58117W        W23344  30.989   2.426   1.273
58118W        W23345  37.027  15.756  13.828
58119W        W23346  16.243  30.677   0.433
58120W        W23347  42.361  26.095   0.239
58121W        W23348  23.130  14.349  14.094
58122W        W23349  27.984  28.061   3.759
58123W        W23350   8.847  14.709   2.766
58124W        W23351   2.937  30.662  13.563
58125W        W23352  10.757  15.298  12.029
58126W        W23353   7.928  26.112  13.801
58127W        W23354   5.786   2.961   2.301
58128W        W23355  16.283  23.464   4.570
58129W        W23356  14.774  42.296   4.660
58130W        W23357  13.658  21.803  10.602
58131W        W23358  44.175  34.341   3.710
58132W        W23359   3.024   6.919   3.120
58133W        W23360  41.344  14.306  11.118
58134W        W23361  17.567  10.948   0.265
58135W        W23362  32.994  36.275  12.456
58136W        W23363  30.614  38.825  12.017
58137W        W23364  31.604  33.032  13.036
58138W        W23365  35.553  16.422  11.995
58139W        W23366  41.519  21.026   1.663
58140W        W23367  42.776   6.436   2.370
58141W        W23368  28.212  28.712  14.451
58142W        W23369  40.040  27.965   3.176
58143W        W23370   7.145   7.417   3.291
58144W        W23371  15.803  38.480  10.668
58145W        W23372  36.034  21.187  12.084
58146W        W23373   8.412  22.616   0.402
58147W        W23374  42.670   8.612   3.218
58148W        W23375   2.221  42.007   1.919
58149W        W23376  28.715   5.900  11.896
58150W        W23377  12.157  43.362   4.722
58151W        W23378   6.338  21.079   0.285
58152W        W23379  11.228  11.345   0.975
58153W        W23380  34.485  19.115   3.143
58154W        W23381   2.985   6.500   2.830
58155W        W23382  39.095  42.785  10.562
58156W        W23383  22.548  33.118  13.285
58157W        W23384  20.557  25.965   4.626
58158W        W23385  37.915  44.493   1.644
58159W        W23386   4.483  38.401  10.566
58160W        W23387  34.111  10.595   1.461
58161W        W23388  22.627  37.319  11.458
58162W        W23389   3.211  26.055   3.672
58163W        W23390  39.207  34.026  10.549
58164W        W23391  11.593  37.091   1.845
58165W        W23392  44.742  11.791   1.181
58166W        W23393  38.772  33.808   4.019
58167W        W23394  43.546  26.505  12.495
58168W        W23395  15.781  14.092   2.354
58169W        W23396   5.316  25.949  14.095
58170W        W23397   7.515  12.834  11.514
58171W        W23398  28.715  25.441  14.835
58172W        W23399  44.305   5.368   2.138
58173W        W23400   7.265  22.004   1.323
58174W        W23401  26.121  30.145   4.878
58175W        W23402  24.459   3.958   0.761
58176W        W23403  35.902  15.362  13.531
58177W        W23404  21.550  28.533  13.295
58178W        W23405  26.525  39.820  13.489
58179W        W23406  32.155  40.934  11.686
58180W        W23407  31.387   5.498   4.590
58181W        W23408   9.598   5.367   2.893
58182W        W23409   3.250   7.460  13.898
58183W        W23410  18.210  39.153   1.021
58184W        W23411  40.377  34.119   2.115
58185W        W23412  27.687  39.489   0.352
58186W        W23413  37.309  18.196   2.394
58187W        W23414  29.444   5.251   0.345
58188W        W23415   6.387   9.610   3.230
58189W        W23416  36.106   7.355  14.385
58190W        W23417  23.214   3.711   1.329
58191W        W23418  38.345  16.989  12.079
58192W        W23419  41.988   3.035   0.437
58193W        W23420  17.276  42.912  13.929
58194W        W23421  22.620  15.651  11.509
58195W        W23422  36.075  35.388  12.778
58196W        W23423  41.254  40.005  11.652
58197W        W23424  34.816   5.829  12.422
58198W        W23425  16.574  41.372   4.112
58199W        W23426  42.334  39.385   1.439
58200W        W23427  28.409   6.807   2.826
58201W        W23428  12.672  19.674  14.894
58202W        W23429  34.242  18.152  14.841
58203W        W23430  43.387   4.912  10.638
58204W        W23431   5.912  25.000   4.353
58205W        W23432   2.280  20.093  12.545
58206W        W23433  43.884   4.844  10.894
58207W        W23434  18.544  36.733  10.728
58208W        W23435  16.516  29.047  12.822
58209W        W23436   1.067  16.621  12.203
58210W        W23437  31.248  20.140  14.025
58211W        W23438  27.007  42.997   4.999
58212W        W23439   2.787  26.076  12.163
58213W        W23440  43.017  42.336  11.397
58214W        W23441  43.872  37.428   2.660
58215W        W23442  43.648  41.729  10.788
58216W        W23443  24.181  23.192  14.527
58217W        W23444  42.650  44.207   3.655
58218W        W23445   4.530  13.619   2.696
58219W        W23446  39.839   9.352  13.827
58220W        W23447  44.826   5.783   3.240
58221W        W23448  26.073  42.282   1.827
58222W        W23449  30.166  35.543   4.921
58223W        W23450  35.927  39.894   3.135
58224W        W23451  11.394  16.273   2.792
58225W        W23452  13.108  18.531  10.973
58226W        W23453  19.072  35.569  14.833
58227W        W23454  27.020   7.088  13.889
58228W        W23455  12.325  13.048  14.792
58229W        W23456  23.589   6.233   2.099
58230W        W23457   2.908  34.554  10.659
58231W        W23458  28.000  28.914  14.965
58232W        W23459  34.317  18.250   1.727
58233W        W23460  10.704   7.241  12.569
58234W        W23461  27.148  43.261   0.985
58235W        W23462  34.953   0.953  14.865
58236W        W23463  27.415  19.102  11.539
58237W        W23464  20.655   4.288  13.572
58238W        W23465  29.924   4.235   2.319
58239W        W23466  27.204  41.010  13.035
58240W        W23467  11.810   4.037  10.464
58241W        W23468  11.332  16.548  13.619
58242W        W23469  34.085  18.853   3.323
58243W        W23470  26.981   4.146   1.264
58244W        W23471  42.046  43.876   1.022
58245W        W23472   0.577   1.496   2.798
58246W        W23473  41.824  24.645  12.954
58247W        W23474  21.354   4.231  14.255
58248W        W23475  34.594  11.118   1.646
58249W        W23476  34.886  17.587  11.493
58250W        W23477  28.618  12.918   2.348
58251W        W23478   9.163  41.170   3.169
58252W        W23479  14.978  12.532   5.124
58253W        W23480  26.996  34.465   3.082
58254W        W23481  39.765  43.415  11.589
58255W        W23482  26.790  10.200   4.109
58256W        W23483   5.640  40.282   3.151
58257W        W23484  10.276  33.145   0.887
58258W        W23485   2.781   8.765  13.497
58259W        W23486   5.848  11.422  11.300
58260W        W23487  44.772  40.459   0.878
58261W        W23488  19.267   0.855   3.551
58262W        W23489  11.153  31.102   3.676
58263W        W23490   7.196  11.355  14.975
58264W        W23491  36.134  27.686  11.036
58265W        W23492  43.850  12.530  14.756
58266W        W23493  44.958  22.495   0.429
58267W        W23494  29.906   2.398  12.264
58268W        W23495  11.206  32.423   0.676
58269W        W23496  37.278   6.431   4.836
58270W        W23497  37.530  16.705  12.445
58271W        W23498  13.153   4.979  13.993
58272W        W23499  41.909   0.242   1.049
58273W        W23500  20.768  41.974  11.337
58274W        W23501  19.784  42.331   1.772
58275W        W23502  33.664  25.229   2.229
58276W        W23503   1.879  23.769   0.461
58277W        W23504  26.039  28.745   2.683
58278W        W23505  17.719  23.779  11.522
58279W        W23506  21.905  24.672  12.181
58280W        W23507   1.924   4.397  13.978
58281W        W23508   7.719  31.311   2.441
58282W        W23509  33.404   9.163   2.138
58283W        W23510   5.167  31.402  13.539
58284W        W23511  40.829   7.785   2.802
58285W        W23512  42.034  13.116  10.726
58286W        W23513  41.805   7.401  13.004
58287W        W23514   6.148  10.672  10.942
58288W        W23515  28.563  12.966   4.543
58289W        W23516  27.497  38.834   0.944
58290W        W23517   1.609  37.178   0.907
58291W        W23518  32.061  39.466  13.350
58292W        W23519   4.111  18.645  10.531
58293W        W23520  26.715  41.460   0.710
58294W        W23521   5.736  15.358   2.792
58295W        W23522   3.966  36.517  12.941
58296W        W23523  44.816   6.182  12.118
58297W        W23524  43.654   7.634  12.949
58298W        W23525  37.208  27.686  14.936
58299W        W23526  15.670   7.916   5.153
58300W        W23527  16.176   8.808  11.291
58301W        W23528  29.164   6.343   4.662
58302W        W23529  19.860   8.995   0.943
58303W        W23530  33.514  13.848   0.736
58304W        W23531  44.190  15.319  12.414
58305W        W23532  35.434  42.032  10.686
58306W        W23533  28.170  17.111   2.381
58307W        W23534  36.523  21.080   3.305
58308W        W23535  34.699  41.881  10.831
58309W        W23536  34.627  17.395   0.414
58310W        W23537  30.684  21.771  14.457
58311W        W23538  14.583  12.326  13.236
58312W        W23539  41.445  41.849  14.053
58313W        W23540  31.651  11.635   4.038
58314W        W23541  22.040  38.159   4.542
58315W        W23542  10.930  18.666  10.197
58316W        W23543  39.289  26.611   3.317
58317W        W23544   2.737   8.482   4.142
58318W        W23545   7.385  38.339   4.880
58319W        W23546  43.488   4.655  11.633
58320W        W23547   2.461  40.039   2.966
58321W        W23548   2.501  12.216   1.212
58322W        W23549   7.277  30.993  13.950
58323W        W23550   0.016  44.855  13.406
58324W        W23551  21.470   5.762   1.571
58325W        W23552  24.601   3.237   1.496
58326W        W23553  39.143  12.161  13.309
58327W        W23554  31.533  11.148   4.130
58328W        W23555  19.247  12.940   4.373
58329W        W23556  19.020  21.641  14.703
58330W        W23557  23.687  10.244  14.394
58331W        W23558  34.818  40.142  13.142
58332W        W23559  34.017  14.808   4.357
58333W        W23560  43.168  23.822  13.457
58334W        W23561  40.037  29.474  13.873
58335W        W23562  33.928  30.239   4.716
58336W        W23563  28.218  29.996   4.015
58337W        W23564  20.204  35.621   1.375
58338W        W23565  31.475  14.993   2.703
58339W        W23566  25.962   0.305   1.353
58340W        W23567  29.622  15.313  10.618
58341W        W23568  22.978   2.388   4.160
58342W        W23569  37.805   8.921   3.331
58343W        W23570  13.763  28.786  13.800
58344W        W23571  12.655   9.881  14.856
58345W        W23572  24.213  14.323  13.296
58346W        W23573   6.498   2.196   1.612
58347W        W23574  35.314  39.963   0.763
58348W        W23575  37.381  11.600   0.404
58349W        W23576   6.835  42.365  10.946
58350W        W23577  27.153  11.995   2.647
58351W        W23578   1.887  14.743  13.958
58352W        W23579  18.554   6.415  11.274
58353W        W23580  37.050  43.354   1.476
58354W        W23581  18.019   6.812  13.064
58355W        W23582  32.173  33.968   2.701
58356W        W23583  11.328  21.998   2.544
58357W        W23584  43.967  38.234  10.638
58358W        W23585   6.664  13.722  12.940
58359W        W23586  29.742  33.678  11.139
58360W        W23587   2.889  37.028  13.853
58361W        W23588  34.766   3.771   3.492
58362W        W23589  23.226  26.517   3.845
58363W        W23590  20.778  27.814   4.600
58364W        W23591  12.719  15.223  13.570
58365W        W23592  15.173   0.544  11.981
58366W        W23593  38.584  40.075  12.003
58367W        W23594  43.357  44.806   0.352
58368W        W23595  18.599  29.664  14.648
58369W        W23596   3.878   4.888   1.034
58370W        W23597  10.632  25.977  13.052
58371W        W23598  15.831   0.185  13.515
58372W        W23599  17.510  21.706   2.776
58373W        W23600  28.790  29.165   0.230
58374W        W23601  44.890   7.102   3.057
58375W        W23602  22.113  21.783  12.544
58376W        W23603  14.799   3.835   2.810
58377W        W23604   7.083  42.866   4.553
58378W        W23605  27.931  12.281  13.350
58379W        W23606  32.258   7.352   1.334
58380W        W23607  20.156  37.887   1.472
58381W        W23608  33.883  32.487  14.734
58382W        W23609   7.057  44.316   4.518
58383W        W23610   3.900  36.241   4.961
58384W        W23611   8.165  29.181  12.219
58385W        W23612  17.450  36.905   1.312
58386W        W23613  16.813  23.612   2.711
58387W        W23614  40.264  36.473  12.497
58388W        W23615  14.644  12.717   3.616
58389W        W23616  27.494  14.103  10.611
58390W        W23617  12.829   5.813   0.317
58391W        W23618  30.971   2.441  13.960
58392W        W23619   0.494  15.874  13.573
58393W        W23620  42.738  19.145   0.358
58394W        W23621  34.733   3.771   2.931
58395W        W23622  31.077  12.648   3.633
58396W        W23623  20.399  30.671  13.350
58397W        W23624  11.771  15.286  10.307
58398W        W23625  11.270  40.954   0.784
58399W        W23626  20.612  30.244   2.898
58400W        W23627  20.187  44.791  14.368
58401W        W23628  11.136  40.843  11.647
58402W        W23629  42.704   2.382   4.933
58403W        W23630  11.696  19.520   1.887
58404W        W23631  36.952  37.589  14.234
58405W        W23632  23.007  37.955   0.922
58406W        W23633  34.537   1.723   0.943
58407W        W23634  20.213  30.124  14.922
58408W        W23635  13.640  32.150  14.223
58409W        W23636   0.836  43.161  12.120
58410W        W23637  41.468   7.381  12.073
58411W        W23638  30.443  38.633  12.511
58412W        W23639   0.503  40.765   1.956
58413W        W23640  13.202  11.264   1.033
58414W        W23641  23.196   9.718   2.216
58415W        W23642  12.594  31.236  12.819
58416W        W23643  16.567  22.582   1.987
58417W        W23644   4.797  42.275   3.203
58418W        W23645   0.485   0.745   1.468
58419W        W23646  13.047  17.004  12.597
58420W        W23647   7.402   8.428  13.329
58421W        W23648  37.116  12.561   1.354
58422W        W23649  28.921  18.552   0.877
58423W        W23650   3.982  15.258   2.153
58424W        W23651   7.180  41.866  11.506
58425W        W23652  25.428  11.297  12.116
58426W        W23653  25.232  22.002  14.124
58427W        W23654  40.776  40.318  12.049
58428W        W23655   6.274  29.482   3.751
58429W        W23656  30.883   9.985   4.304
58430W        W23657   5.398  38.810   1.721
58431W        W23658  33.362  25.958   2.905
58432W        W23659   4.708  18.161  11.054
58433W        W23660  17.759  18.327  14.914
58434W        W23661  17.030  24.401   3.458
58435W        W23662  20.693  12.162   3.708
58436W        W23663   3.539  21.550  13.593
58437W        W23664  28.752  27.475  14.823
58438W        W23665   7.064  23.131  14.490
58439W        W23666  40.757  27.957  14.838
58440W        W23667   5.746  38.174   2.847
58441W        W23668  14.733   9.446   0.750
58442W        W23669   1.189  16.355  11.331
58443W        W23670  21.507   6.200   0.757
58444W        W23671  31.468   5.491   2.794
58445W        W23672  22.156  12.129  12.017
58446W        W23673  22.224  23.976   1.638
58447W        W23674  33.663  27.707   4.196
58448W        W23675  32.668  31.979  13.806
58449W        W23676  29.719  35.120  13.231
58450W        W23677   7.570  37.555   0.259
58451W        W23678   6.728  37.513  11.999
58452W        W23679  16.468  40.373  13.421
58453W        W23680   9.133   9.098  14.806
58454W        W23681  29.054  42.127  13.997
58455W        W23682   7.361   2.332   3.286
58456W        W23683  34.179  11.659  13.010
58457W        W23684  38.813  28.115  13.990
58458W        W23685   6.405  44.718   2.824
58459W        W23686  10.595  30.170  11.071
58460W        W23687  32.929   2.304   4.278
58461W        W23688  13.329  19.400  12.941
58462W        W23689  32.876  13.606   2.320
58463W        W23690  28.693  27.629  13.359
58464W        W23691  26.211  17.245   1.839
58465W        W23692   1.366  39.878  14.210
58466W        W23693   9.590  26.048   0.792
58467W        W23694  21.514  31.944   1.950
58468W        W23695  28.842  44.667  12.643
58469W        W23696  28.088  44.837  14.475
58470W        W23697  43.897  43.911   0.322
58471W        W23698  11.843   1.264   3.576
58472W        W23699  20.672  25.749  10.892
58473W        W23700  21.285  31.170  11.906
58474W        W23701  40.846  19.246   2.346
58475W        W23702  18.738  29.580   3.670
58476W        W23703   5.760  40.885   0.824
58477W        W23704  13.348   5.487  13.789
58478W        W23705  43.796  18.819  13.738
58479W        W23706  42.439  40.999  11.472
58480W        W23707   3.431   1.265  12.478
58481W        W23708   4.715  40.661  13.370
58482W        W23709  23.988   9.427  14.879
58483W        W23710  28.504  15.173  14.913
58484W        W23711  41.033  13.290  13.301
58485W        W23712   5.914   0.188  14.351
58486W        W23713  34.510  16.091   1.475
58487W        W23714  42.504   2.914   1.670
58488W        W23715   6.316  26.647   0.825
58489W        W23716  26.010   3.792   3.923
58490W        W23717   7.906  20.493  14.822
58491W        W23718  42.104  39.811  13.036
58492W        W23719   1.402   0.606  12.113
58493W        W23720  14.068  10.710  11.587
58494W        W23721  44.262  32.776   4.827
58495W        W23722  18.467  20.713   1.694
58496W        W23723  23.170  35.123   0.087
58497W        W23724  29.440  41.076   0.429
58498W        W23725  37.094  19.502   4.386
58499W        W23726   9.350  31.027   4.181
58500W        W23727  43.098  39.647  11.269
58501W        W23728  10.772  32.103  14.337
58502W        W23729  43.746  22.799  10.986
58503W        W23730  32.741  20.684   3.771
58504W        W23731   0.385  18.649  11.215
58505W        W23732  31.832  35.427  13.448
58506W        W23733  42.253  20.149  13.507
58507W        W23734  29.411  17.624   1.518
58508W        W23735  15.851  29.041   0.533
58509W        W23736  26.757  34.625  10.577
58510W        W23737   2.917   8.786  14.852
58511W        W23738  39.105  17.380  11.225
58512W        W23739   2.374  31.085  11.476
58513W        W23740  29.054  41.122  12.318
58514W        W23741  16.796  30.099  11.720
58515W        W23742   0.546  24.812   3.252
58516W        W23743   8.134  43.818  12.832
58517W        W23744  39.370  15.023   2.911
58518W        W23745  13.503   6.251   0.887
58519W        W23746  44.172   3.397   2.168
58520W        W23747  35.889  12.379   3.992
58521W        W23748  12.681  39.284   4.643
58522W        W23749  42.858  21.006  12.334
58523W        W23750  29.782  33.557  14.133
58524W        W23751  34.131  17.487   0.428
58525W        W23752  43.763  15.114  13.469
58526W        W23753  41.799  34.983  11.631
58527W        W23754  43.354  15.752  14.845
58528W        W23755  38.135  39.423  14.544
58529W        W23756  15.291  27.463   1.764
58530W        W23757  23.665  41.802  13.901
58531W        W23758  27.980  28.878  13.056
58532W        W23759   2.628  40.851  12.231
58533W        W23760   2.241  35.349  12.526
58534W        W23761  31.196  31.578   2.396
58535W        W23762  42.046  28.470  12.685
58536W        W23763  29.882  40.467  14.486
58537W        W23764  28.723  32.157   2.288
58538W        W23765  20.570   4.910  14.180
58539W        W23766  30.071  24.621   2.416
58540W        W23767  11.098  33.915   1.822
58541W        W23768  21.147   0.822   0.373
58542W        W23769  28.648  16.453   2.341
58543W        W23770  11.142  14.944  12.054
58544W        W23771  42.269  18.425   2.896
58545W        W23772   1.495   4.880   1.133
58546W        W23773  18.677  18.596   2.601
58547W        W23774   6.802  13.755   1.022
58548W        W23775  37.856  30.566  13.405
58549W        W23776  11.778   5.797  11.837
58550W        W23777  37.486  13.349   4.582
58551W        W23778  34.698  25.883   1.131
58552W        W23779  41.769  21.584  14.380
58553W        W23780   5.487  16.851  12.479
58554W        W23781  34.808  32.537   4.102
58555W        W23782  27.029  27.934  12.915
58556W        W23783  23.511  41.841  12.108
58557W        W23784  40.775  13.576  14.096
58558W        W23785   9.610   1.389   4.132
58559W        W23786  17.455   3.786   1.202
58560W        W23787  24.675  13.807  14.024
58561W        W23788  39.753  42.846  12.565
58562W        W23789   7.935  28.701   4.665
58563W        W23790  39.421  30.910   1.225
58564W        W23791  13.811  26.511   4.608
58565W        W23792  10.115  22.064  13.481
58566W        W23793  11.821  29.072   2.760
58567W        W23794  41.641  42.244   4.689
58568W        W23795  20.310  28.683   2.094
58569W        W23796  10.832  30.187  11.931
58570W        W23797   2.853  31.121  13.365
58571W        W23798  40.502  25.551   0.522
58572W        W23799  25.241  16.801  11.151
58573W        W23800  40.014  21.254  12.511
58574W        W23801  27.531  25.442  13.794
58575W        W23802   7.854  24.400   1.930
58576W        W23803  36.985  15.426   2.612
58577W        W23804  22.201  15.850   3.352
58578W        W23805  33.547   6.373   4.051
58579W        W23806  33.410   5.688   0.836
58580W        W23807  37.862  17.338   1.734
58581W        W23808   8.298   6.878   1.539
58582W        W23809   9.672  39.335  13.855
58583W        W23810  20.772  23.977   4.943
58584W        W23811  42.623  40.448   0.771
58585W        W23812  37.043  41.593   3.433
58586W        W23813  15.171  20.361   3.233
58587W        W23814  25.477  22.268  13.576
58588W        W23815  26.729  33.815  13.839
58589W        W23816  11.608  20.518  12.523
58590W        W23817  26.951  28.879   4.204
58591W        W23818  32.638   0.238   4.352
58592W        W23819  11.384  35.623   4.094
58593W        W23820  18.432  12.014   0.182
58594W        W23821  27.455  14.586  10.801
58595W        W23822  27.854   7.812  11.189
58596W        W23823   2.290  23.503   5.150
58597W        W23824   1.760  21.255  12.498
58598W        W23825  15.001  10.660  13.398
58599W        W23826  38.218  38.053   1.420
58600W        W23827   1.417  34.620   0.884
58601W        W23828  42.238  40.985   4.843
58602W        W23829  29.810   5.271   4.395
58603W        W23830   2.935  17.856   2.794
58604W        W23831  27.185   9.078  12.748
58605W        W23832  33.185  33.011  13.082
58606W        W23833  33.292  24.107  12.910
58607W        W23834  13.340  26.542   0.295
58608W        W23835  35.348  44.306   3.138
58609W        W23836  34.888  41.586   3.295
58610W        W23837  31.267  24.769  10.288
58611W        W23838  10.634  11.176  13.804
58612W        W23839   4.378  34.886   2.672
58613W        W23840   9.613  34.518   1.465
58614W        W23841  26.981  27.252  13.600
58615W        W23842  25.079  16.654  14.483
58616W        W23843  15.136  28.672   1.262
58617W        W23844  36.491  43.024   1.540
58618W        W23845  14.684  16.363   4.161
58619W        W23846  31.534   4.231   3.118
58620W        W23847  39.956  17.695  11.489
58621W        W23848  12.611  24.146  11.214
58622W        W23849  35.166  11.314  13.566
58623W        W23850  23.708  16.108   1.826
58624W        W23851  20.035  30.989  10.673
58625W        W23852   7.402   4.446  13.748
58626W        W23853   2.978  12.133   0.338
58627W        W23854   6.238   5.495   0.794
58628W        W23855  17.879  13.886   2.217
58629W        W23856   8.215  39.129  11.579
58630W        W23857  23.815  24.239   1.355
58631W        W23858   4.759   8.937  12.138
58632W        W23859  34.016  21.144  14.329
58633W        W23860  42.243  29.892  12.051
58634W        W23861  41.828  18.856  11.605
58635W        W23862  41.450  13.570  12.983
58636W        W23863  13.810  21.494  14.524
58637W        W23864  26.662   2.231  14.743
58638W        W23865  15.267  10.709  14.752
58639W        W23866  16.089  10.835   2.818
58640W        W23867  44.209  24.494   3.331
58641W        W23868  31.131  35.374  12.923
58642W        W23869   5.870  40.721   3.297
58643W        W23870  18.575  39.454  13.408
58644W        W23871  29.976   5.251   3.032
58645W        W23872  13.490   1.669  13.541
58646W        W23873   9.416  16.624  14.330
58647W        W23874  20.061  24.110   2.049
58648W        W23875   5.710  30.981  12.527
58649W        W23876  11.327   3.502  13.784
58650W        W23877  34.372  37.018   1.704
58651W        W23878   3.539  11.770  12.952
58652W        W23879  34.049   2.402  14.083
58653W        W23880   3.303   3.208   4.418
58654W        W23881   2.845   4.233   3.309
58655W        W23882  32.306  31.394   1.199
58656W        W23883   6.225   1.706   0.200
58657W        W23884  33.523  21.564   3.844
58658W        W23885  19.102  22.010  14.352
58659W        W23886  10.515  16.831   3.209
58660W        W23887   4.378  12.234  12.072
58661W        W23888  28.167  36.916   1.176
58662W        W23889  43.358   0.509  12.178
58663W        W23890  41.411  18.164   3.825
58664W        W23891   1.673   9.259   2.703
58665W        W23892  41.584   1.399   2.196
58666W        W23893  26.275   7.828  12.921
58667W        W23894   3.370  28.980   3.009
58668W        W23895  13.309  14.216  10.237
58669W        W23896   0.078  35.006  13.551
58670W        W23897  20.525  10.806   4.108
58671W        W23898   5.900  30.134  14.430
58672W        W23899  30.140  32.190   3.847
58673W        W23900  42.191  40.605  10.213
58674W        W23901  37.764  40.548  12.560
58675W        W23902  22.683   1.775  14.106
58676W        W23903  14.705  28.412   1.353
58677W        W23904  20.172  39.821   0.442
58678W        W23905  44.352  13.743   0.917
58679W        W23906  22.757  22.501  14.912
58680W        W23907   2.368   1.839  13.626
58681W        W23908  16.692  10.972  10.807
58682W        W23909  37.903  33.935   2.196
58683W        W23910   6.680  11.332   1.806
58684W        W23911   0.008  41.884   2.496
58685W        W23912  39.422   6.784   3.052
58686W        W23913  35.695  40.903  13.339
58687W        W23914  31.690  20.304  12.477
58688W        W23915  33.789  21.184   3.621
58689W        W23916  23.529  28.078  13.736
58690W        W23917  42.880  25.117   3.017
58691W        W23918  14.783  39.474   2.905
58692W        W23919   9.121  44.719   1.172
58693W        W23920  40.320   3.327   2.365
58694W        W23921  13.655   6.463   2.141
58695W        W23922  29.232  14.225  13.556
58696W        W23923  14.807  15.742   1.741
58697W        W23924  17.727   4.212  12.944
58698W        W23925  33.358   7.413   9.659
58699W        W23926  40.921  37.242   3.314
58700W        W23927  18.548  17.729   3.468
58701W        W23928  25.702  20.120   2.215
58702W        W23929  34.989  26.549   5.095
58703W        W23930  29.901  28.000  13.857
58704W        W23931  41.916  20.530  13.015
58705W        W23932  22.349  26.267  11.206
58706W        W23933   9.650  42.380  10.905
58707W        W23934  23.077   3.212   1.300
58708W        W23935   8.060  39.081   2.702
58709W        W23936  40.055   2.135   0.346
58710W        W23937  44.108  28.185   4.584
58711W        W23938  29.361  20.507  14.294
58712W        W23939  21.553  16.157   3.362
58713W        W23940   7.872  40.997   4.708
58714W        W23941   6.297  13.883   1.203
58715W        W23942   0.965  27.374   0.419
58716W        W23943  38.382   2.738   1.683
58717W        W23944   1.325  32.092   2.744
58718W        W23945   9.723   7.512  14.385
58719W        W23946  21.677  35.398   3.769
58720W        W23947  20.297  22.346   4.065
58721W        W23948  43.473  13.136  13.416
58722W        W23949  12.994  42.523  11.076
58723W        W23950  35.384   5.756  10.747
58724W        W23951  41.175   5.675   0.271
58725W        W23952  25.731   2.180  10.830
58726W        W23953   4.346  42.569  13.848
58727W        W23954  37.264  27.096   0.670
58728W        W23955  18.295   8.889   3.583
58729W        W23956   7.772   3.199  13.861
58730W        W23957  34.918   6.137  12.854
58731W        W23958  20.579   9.857   0.420
58732W        W23959   5.274  38.900  14.873
58733W        W23960  15.037  41.620   4.129
58734W        W23961  12.346   0.298  12.108
58735W        W23962  11.443   7.807  12.580
58736W        W23963  23.649  11.738   1.233
58737W        W23964  17.042   2.022  12.132
58738W        W23965   5.206  33.878   3.621
58739W        W23966  43.984  15.541   2.115
58740W        W23967  11.184  39.103   3.212
58741W        W23968  35.879  11.161   2.204
58742W        W23969  17.345  15.331  14.916
58743W        W23970   6.921   2.635  13.785
58744W        W23971  11.257  44.438   0.997
58745W        W23972  36.285  40.915   1.753
58746W        W23973  13.414  26.115  12.449
58747W        W23974   3.873   9.768   3.709
58748W        W23975   9.211   5.909  11.712
58749W        W23976  32.036  14.347  14.269
58750W        W23977   6.253  18.530   3.186
58751W        W23978  14.777  10.618   3.692
58752W        W23979   0.059  12.227   0.351
58753W        W23980   1.404  18.618  14.894
58754W        W23981  32.925   3.258   4.619
58755W        W23982  42.476  33.384   3.762
58756W        W23983  22.690  39.950   1.391
58757W        W23984  15.486  32.979   3.684
58758W        W23985  44.272  22.565  11.927
58759W        W23986  36.277  37.562   3.310
58760W        W23987  43.453  12.370  12.954
58761W        W23988  26.165   9.656   0.304
58762W        W23989  36.794  12.354  13.904
58763W        W23990  28.858  38.813   2.985
58764W        W23991  34.063  25.463  10.948
58765W        W23992  22.281  12.338   0.241
58766W        W23993  26.016   0.949  12.170
58767W        W23994  25.037   9.216   1.883
58768W        W23995   7.452  40.365  14.303
58769W        W23996  32.029  32.199   4.564
58770W        W23997  20.085  43.299  12.932
58771W        W23998  26.495  29.060   3.211
58772W        W23999  16.192  11.140   0.209
58773W        W24000  13.079  35.049  13.823
58774W        W24001   7.055  42.192   1.763
58775W        W24002  44.979  33.562   3.264
58776W        W24003  29.514  40.154   4.929
58777W        W24004  28.566  44.775  11.789
58778W        W24005  16.734  11.193   2.415
58779W        W24006   3.257   4.495   0.368
58780W        W24007  21.095  43.471  14.936
58781W        W24008  24.453  40.717  14.521
58782W        W24009  12.091  16.495   0.212
58783W        W24010  24.367  24.592   5.044
58784W        W24011  40.777  20.078  11.161
58785W        W24012  31.387  14.715   0.149
58786W        W24013  34.555  21.294   9.812
58787W        W24014  30.363  10.739   9.696
58788W        W24015   4.798  11.900  12.004
58789W        W24016  12.803  37.298   3.188
58790W        W24017   6.290  43.851   1.032
58791W        W24018   8.801  11.494  10.735
58792W        W24019   9.694  23.271   3.609
58793W        W24020   2.371  35.824  12.572
58794W        W24021  13.215  34.419  12.331
58795W        W24022  40.139   3.975   2.353
58796W        W24023   0.492  31.909  14.706
58797W        W24024  18.714  30.071  12.425
58798W        W24025  27.030  31.725   4.435
58799W        W24026   0.478  39.812   1.759
58800W        W24027  24.023   7.214   2.793
58801W        W24028   0.926  39.505  11.946
58802W        W24029  26.703  33.870   1.438
58803W        W24030   3.340  23.624  10.536
58804W        W24031   1.817  10.670   2.668
58805W        W24032   1.452  36.405  12.624
58806W        W24033   6.079   2.858  14.406
58807W        W24034  30.604  32.896   4.052
58808W        W24035  32.081   2.911   2.206
58809W        W24036  37.932  25.722   0.743
58810W        W24037  38.110   6.663   2.298
58811W        W24038  35.448  17.314   4.031
58812W        W24039  27.038  19.847  12.889
58813W        W24040  24.068   7.153  10.650
58814W        W24041  12.301  41.456  14.826
58815W        W24042  13.116  15.298  12.761
58816W        W24043   0.415  23.883  14.228
58817W        W24044   7.269  27.493  12.410
58818W        W24045   0.306  44.289  10.182
58819W        W24046  27.223   7.322   4.630
58820W        W24047  32.527   8.350   3.288
58821W        W24048   5.343  24.579  13.834
58822W        W24049  16.354  23.615  14.023
58823W        W24050  32.112  39.386  11.496
58824W        W24051   8.923  26.571   4.065
58825W        W24052  10.859  22.533  12.442
58826W        W24053  27.319  26.696   4.503
58827W        W24054  28.344  13.940  11.990
58828W        W24055  41.959   7.407  11.077
58829W        W24056  35.078  14.929   0.337
58830W        W24057   9.246   8.136  13.925
58831W        W24058  13.605  34.430   2.852
58832W        W24059  23.460  40.512   4.304
58833W        W24060  34.455  17.746  13.925
58834W        W24061  42.515  43.654   1.864
58835W        W24062  41.917  16.618  13.799
58836W        W24063  36.569  30.385   4.572
58837W        W24064  16.826  33.796  12.089
58838W        W24065  12.331   4.454  11.425
58839W        W24066   6.413  31.180   4.820
58840W        W24067  40.587  30.578  13.343
58841W        W24068   8.168  16.324  13.426
58842W        W24069  32.495  18.297  14.407
58843W        W24070  12.381  19.016   1.646
58844W        W24071   9.442  11.231  14.477
58845W        W24072  39.129  42.473  11.586
58846W        W24073  18.995  44.568  10.280
58847W        W24074  38.910  33.011  14.840
58848W        W24075   5.791  38.051   3.822
58849W        W24076  23.697  37.977  14.584
58850W        W24077  12.886   4.641  14.393
58851W        W24078  26.966  11.110  14.231
58852W        W24079  10.382  42.145  10.773
58853W        W24080   0.260  12.783  13.385
58854W        W24081  15.340  10.535   2.421
58855W        W24082  25.519  22.436  14.525
58856W        W24083  24.435  28.474  12.412
58857W        W24084  31.469   5.443   0.389
58858W        W24085  31.367  20.245  10.807
58859W        W24086  32.192  35.334   4.899
58860W        W24087  11.683  27.322   1.970
58861W        W24088  25.898  40.426  13.896
58862W        W24089  34.176  10.914   4.160
58863W        W24090  11.349  12.680  11.712
58864W        W24091   2.448   4.435   1.947
58865W        W24092  23.163  39.994  12.893
58866W        W24093   5.280  43.976   3.375
58867W        W24094  42.802  25.186  11.550
58868W        W24095  24.194  26.639   3.810
58869W        W24096  30.041  20.776   1.279
58870W        W24097  19.830   8.326  11.182
58871W        W24098  17.291  36.067   4.586
58872W        W24099  18.629  31.510  10.660
58873W        W24100   3.798  27.937  14.418
58874W        W24101  42.428  36.080  12.114
58875W        W24102  24.455  40.142  14.420
58876W        W24103  24.232  19.286   4.136
58877W        W24104  41.548  37.317   1.273
58878W        W24105  16.324  25.965  11.794
58879W        W24106  40.751  40.158  11.493
58880W        W24107  11.378   0.492  14.563
58881W        W24108  26.076  42.106   0.761
58882W        W24109  33.454   0.423   3.656
58883W        W24110  23.483  42.907   4.138
58884W        W24111  13.877  19.500   1.928
58885W        W24112  16.527  43.217   2.712
58886W        W24113  21.026   2.322  13.132
58887W        W24114   1.069   5.717   4.180
58888W        W24115  33.563  26.068   4.251
58889W        W24116   1.510  28.492   3.111
58890W        W24117  43.408  11.660  13.564
58891W        W24118  22.030   1.236   9.904
58892W        W24119  25.558  34.899  14.959
58893W        W24120  11.056   9.603   3.714
58894W        W24121  19.760  32.067  11.611
58895W        W24122  14.742  20.487   3.850
58896W        W24123  39.018   1.378  10.536
58897W        W24124  20.988  34.113   4.200
58898W        W24125  22.053   8.573   2.178
58899W        W24126  43.611  31.628   4.599
58900W        W24127  13.539  29.531   0.259
58901W        W24128  22.728  43.984   0.484
58902W        W24129   4.764  16.622   3.697
58903W        W24130  32.630  20.829  11.208
58904W        W24131  19.659  25.721   0.517
58905W        W24132  18.624   0.901   2.837
58906W        W24133  28.841   2.869   0.541
58907W        W24134  32.603  17.478  13.992
58908W        W24135  41.569  38.091   2.782
58909W        W24136   2.691  19.227   3.249
58910W        W24137  22.015  38.032   0.519
58911W        W24138  16.350  38.254  13.950
58912W        W24139  29.275  13.145  14.348
58913W        W24140  20.147   2.681   5.128
58914W        W24141   3.964   0.519   0.393
58915W        W24142   3.040  15.606   0.440
58916W        W24143  28.417  31.477  11.976
58917W        W24144   6.472  34.969   1.634
58918W        W24145   9.781  44.049   1.227
58919W        W24146  13.407  22.735   1.455
58920W        W24147   7.789   3.677  12.189
58921W        W24148  22.940  22.255  12.259
58922W        W24149  12.735  38.001  12.707
58923W        W24150   8.722  11.111   0.879
58924W        W24151  30.056  10.316  10.494
58925W        W24152  27.771   6.412   1.446
58926W        W24153  19.659  21.937   1.283
58927W        W24154  30.932  17.076   4.884
58928W        W24155  40.054  11.375   1.453
58929W        W24156  16.107   8.643  10.808
58930W        W24157   0.010   9.280   1.409
58931W        W24158  39.662  30.475   4.590
58932W        W24159  44.889  38.982  14.860
58933W        W24160  37.980  14.148   2.796
58934W        W24161  36.375  43.897   1.912
58935W        W24162   0.140  21.198  14.947
58936W        W24163  40.703   2.805  11.533
58937W        W24164  39.042  31.942   1.659
58938W        W24165  36.949  31.585  11.525
58939W        W24166  22.163   9.272   2.661
58940W        W24167  39.362  27.018   2.150
58941W        W24168  14.014   1.286   4.401
58942W        W24169  24.030  35.413   1.684
58943W        W24170  11.307  29.257   0.017
58944W        W24171  14.379  14.805   4.169
58945W        W24172   3.320  38.358  13.042
58946W        W24173  25.104  18.439   3.395
58947W        W24174  32.646   6.265   4.619
58948W        W24175  17.310  10.609   2.259
58949W        W24176  36.938  18.148  13.324
58950W        W24177  43.558   5.205  12.371
58951W        W24178  27.169   4.945   1.781
58952W        W24179   0.275  18.695   1.297
58953W        W24180  34.070  26.011   4.119
58954W        W24181  17.607  25.044  11.263
58955W        W24182  40.779  20.688  14.373
58956W        W24183  26.783  36.946   4.309
58957W        W24184   6.475  29.879   9.897
58958W        W24185   2.019  38.452  12.504
58959W        W24186  34.381   3.635  11.724
58960W        W24187  28.498  13.755   3.395
58961W        W24188  31.385  16.300   4.622
58962W        W24189   1.853  39.339  12.649
58963W        W24190  22.715  29.714  10.142
58964W        W24191  22.706  24.005   0.065
58965W        W24192   2.446  22.487  13.861
58966W        W24193  19.053  12.978   3.329
58967W        W24194  22.025   9.101  11.137
58968W        W24195  39.479  20.614  12.609
58969W        W24196  27.989  17.058   4.587
58970W        W24197  37.930  18.152  12.572
58971W        W24198  37.980   9.899   4.862
58972W        W24199  34.463  43.416   1.013
58973W        W24200  25.170  43.279   3.078
58974W        W24201  26.211  17.661   1.518
58975W        W24202  19.686  37.727  13.992
58976W        W24203   7.212   5.699  14.467
58977W        W24204  36.254  32.060   2.876
58978W        W24205  38.548  32.531   2.009
58979W        W24206  18.736  29.946  11.464
58980W        W24207  43.040  38.871   0.352
58981W        W24208  30.691  25.817  12.549
58982W        W24209  39.411  40.549  11.883
58983W        W24210  22.394  29.728  14.241
58984W        W24211  26.668  11.566   0.012
58985W        W24212  11.716  23.719  14.664
58986W        W24213  19.790  39.853   4.634
58987W        W24214  22.208  10.083  11.314
58988W        W24215  34.570  20.789   2.123
58989W        W24216  22.539   0.760  13.024
58990W        W24217  27.238   0.734  14.914
58991W        W24218   5.320  38.938  12.867
58992W        W24219  11.655  10.356   4.767
58993W        W24220  26.154  24.986   2.785
58994W        W24221   7.268   7.048  11.555
58995W        W24222   9.232  21.229  13.947
58996W        W24223  15.283  10.971  11.177
58997W        W24224  30.023  43.022  14.359
58998W        W24225  23.479   9.673   2.921
58999W        W24226   4.442   0.266   1.272
59000W        W24227  26.724   8.812  11.029
59001W        W24228  20.728  20.714  14.798
59002W        W24229  22.267  31.078  14.398
59003W        W24230  14.840   6.032  12.439
59004W        W24231  33.287  27.723   1.835
59005W        W24232   9.179  27.721   2.293
59006W        W24233  39.557  15.787  14.777
59007W        W24234  32.585   6.446   3.684
59008W        W24235  27.869  27.443  10.528
59009W        W24236  43.737  35.840  11.646
59010W        W24237  37.367   6.888  10.463
59011W        W24238  15.683  24.520  13.493
59012W        W24239  39.725   8.682   2.451
59013W        W24240   4.549  10.700   2.821
59014W        W24241   7.893  32.398   0.953
59015W        W24242  20.283   9.883  12.540
59016W        W24243  15.808  19.618  11.692
59017W        W24244   6.926  35.962   2.687
59018W        W24245  44.254  28.851   1.665
59019W        W24246   6.585  15.212  14.835
59020W        W24247   5.914   2.284  10.668
59021W        W24248  31.589  28.211  13.253
59022W        W24249  27.889  30.723  13.734
59023W        W24250  43.864   1.875   9.682
59024W        W24251  10.919  30.027   1.862
59025W        W24252  34.546  22.155   1.360
59026W        W24253  42.390  43.279   3.280
59027W        W24254   4.817   3.167   2.392
59028W        W24255  18.291   5.364  14.061
59029W        W24256  18.318  44.470  12.513
59030W        W24257  32.947  40.550   4.175
59031W        W24258  10.171  44.889   2.645
59032W        W24259  30.512  42.212  12.575
59033W        W24260   0.353  34.434   2.814
59034W        W24261  34.811  34.073   3.719
59035W        W24262  19.391  29.668   4.227
59036W        W24263  17.297  30.645  11.464
59037W        W24264   7.244  31.076  13.410
59038W        W24265  33.400   4.352   1.330
59039W        W24266  35.833  34.752  13.380
59040W        W24267  14.895   0.737   1.785
59041W        W24268  16.629  38.321  14.755
59042W        W24269   4.911  36.978   4.321
59043W        W24270  30.617  34.429  13.204
59044W        W24271  32.087  37.595  14.840
59045W        W24272  18.042   0.230   0.240
59046W        W24273  20.093  32.567   4.496
59047W        W24274   6.897  10.297  14.631
59048W        W24275   0.926  35.592   4.971
59049W        W24276  16.153  35.872   0.493
59050W        W24277   8.228  15.702   1.690
59051W        W24278   1.604   8.426   3.221
59052W        W24279  29.996  38.914   2.802
59053W        W24280  28.368   4.641  13.503
59054W        W24281   8.206   3.262   3.322
59055W        W24282  30.599  29.636  13.111
59056W        W24283  38.971  26.282   4.279
59057W        W24284   6.188  14.748   9.926
59058W        W24285  18.567  31.530  14.490
59059W        W24286  28.385   5.234   4.551
59060W        W24287  27.779  31.571   1.286
59061W        W24288  17.970  19.519  11.120
59062W        W24289  25.653  35.301  11.546
59063W        W24290  43.929  27.173   2.325
59064W        W24291   5.886  26.501  12.118
59065W        W24292   6.872  13.587  14.279
59066W        W24293  25.614  15.480  10.940
59067W        W24294  35.338  32.591  13.569
59068W        W24295  30.392  31.724   4.589
59069W        W24296  44.729  17.311  13.454
59070W        W24297  18.699   4.382   0.891
59071W        W24298   5.231  44.556  13.490
59072W        W24299  17.118  25.963   0.606
59073W        W24300  10.366  43.187   3.045
59074W        W24301  11.219  17.579  14.351
59075W        W24302   0.199  13.881   0.198
59076W        W24303   3.776  44.462   5.400
59077W        W24304  16.359  20.877  13.547
59078W        W24305  20.234  28.530   5.110
59079W        W24306  44.278   1.013   4.932
59080W        W24307  27.464  30.672  11.814
59081W        W24308  37.463  41.934  11.716
59082W        W24309  25.027  37.783  11.186
59083W        W24310  20.516  34.466  13.816
59084W        W24311  43.362  21.540  12.049
59085W        W24312  22.855  42.511   3.675
59086W        W24313  32.100  37.729  10.376
59087W        W24314   6.413  42.752   1.840
59088W        W24315  44.185  43.718   2.021
59089W        W24316  32.546   6.955   2.853
59090W        W24317   3.086  12.788  10.242
59091W        W24318  34.450  30.632   3.266
59092W        W24319  38.557  38.602  11.683
59093W        W24320  40.097  14.287   5.202
59094W        W24321  18.537  43.267  10.738
59095W        W24322  33.240  38.544  11.437
59096W        W24323  26.959  20.718   2.037
59097W        W24324  13.859  16.518   2.720
59098W        W24325  18.555   1.308   0.811
59099W        W24326  11.286  40.808  12.638
59100W        W24327  15.178  24.141   3.589
59101W        W24328  20.407  19.317  13.401
59102W        W24329  17.037  25.049   2.404
59103W        W24330  37.497  43.365   1.193
59104W        W24331  44.023   7.324   1.865
59105W        W24332  22.631  23.870  10.774
59106W        W24333  42.804  17.048   0.878
59107W        W24334  44.621  25.453   1.406
59108W        W24335   0.361  42.875  10.253
59109W        W24336  37.117  39.538  13.444
59110W        W24337  42.915   9.027   0.815
59111W        W24338   4.212  14.386  13.429
59112W        W24339  38.318  18.626  11.638
59113W        W24340  12.778  10.650   1.235
59114W        W24341  20.542  15.683   1.903
59115W        W24342  31.594  36.453  11.547
59116W        W24343  35.044   3.033   4.258
59117W        W24344  26.326   2.888  11.313
59118W        W24345   5.666   2.530  14.547
59119W        W24346  24.160  37.482  10.249
59120W        W24347  21.476  35.433  11.428
59121W        W24348  35.441  21.778  12.543
59122W        W24349   3.122  11.247  14.550
59123W        W24350  11.352  40.210  14.928
59124W        W24351  38.547  24.369  12.066
59125W        W24352  41.528  40.548   2.720
59126W        W24353  10.763  35.938  12.491
59127W        W24354  27.327  23.093  10.734
59128W        W24355   2.197  19.564  14.792
59129W        W24356  38.112  20.186  11.516
59130W        W24357  31.619  11.608  11.653
59131W        W24358   4.400  16.986   3.735
59132W        W24359  28.362   5.400  10.256
59133W        W24360  42.196   5.638   1.439
59134W        W24361  19.732  18.789   2.357
59135W        W24362   9.966  27.675  12.551
59136W        W24363  15.835  44.935  14.305
59137W        W24364  34.293  33.540   4.154
59138W        W24365  21.728  40.065  13.616
59139W        W24366  13.613  38.934  14.890
59140W        W24367  34.862  13.627   0.614
59141W        W24368  26.465  27.911   4.582
59142W        W24369  12.126   7.931   2.738
59143W        W24370  12.763  23.587   3.868
59144W        W24371  30.202   8.931  13.348
59145W        W24372  25.719  41.480  13.183
59146W        W24373   4.129   3.453  14.361
59147W        W24374  41.448  14.313  13.923
59148W        W24375  30.889  18.273   2.014
59149W        W24376  37.531   5.120   1.491
59150W        W24377  28.110  41.518  12.963
59151W        W24378  42.486   7.561  14.455
59152W        W24379  23.836  12.108   3.290
59153W        W24380  13.623  32.118  12.921
59154W        W24381  19.283  42.479   1.696
59155W        W24382  32.577  43.862  13.256
59156W        W24383   0.236  27.013   0.698
59157W        W24384  19.330   1.255  10.739
59158W        W24385   7.185  44.759   0.304
59159W        W24386  10.923  14.620  12.569
59160W        W24387  39.799  19.058  10.844
59161W        W24388  22.246  25.575  13.454
59162W        W24389   1.907  19.100  10.219
59163W        W24390  41.839  35.531   1.339
59164W        W24391  25.759  22.949   0.394
59165W        W24392  36.226  43.385   3.603
59166W        W24393  27.369  39.302  14.390
59167W        W24394  33.414   9.161  13.986
59168W        W24395   6.909  18.605   0.538
59169W        W24396   1.354  44.982  11.438
59170W        W24397  31.066   7.500   4.569
59171W        W24398  44.550  20.849   5.362
59172W        W24399  25.712   1.706  10.596
59173W        W24400  18.670  11.580   0.379
59174W        W24401   2.168   6.792   1.787
59175W        W24402  22.016   2.512   4.339
59176W        W24403  27.799  38.965   4.533
59177W        W24404  22.386   7.730   1.395
59178W        W24405  16.550  23.232  11.341
59179W        W24406  30.011  38.770   0.435
59180W        W24407  33.328   3.921   3.548
59181W        W24408   2.274  31.778   2.966
59182W        W24409  36.875  11.443  11.513
59183W        W24410  25.500   3.816   4.132
59184W        W24411  22.562   6.529   2.221
59185W        W24412  30.376  43.314  12.901
59186W        W24413  31.469  33.315  13.564
59187W        W24414  13.795  20.485  14.746
59188W        W24415  23.813  34.667  12.670
59189W        W24416  29.007  29.348   1.560
59190W        W24417  22.036  44.864   2.826
59191W        W24418  37.571  40.774   4.179
59192W        W24419   9.413  38.991   1.672
59193W        W24420  30.736  24.126  11.902
59194W        W24421  16.639  16.153   0.735
59195W        W24422   8.097  44.774   1.280
59196W        W24423   9.147  23.291   3.631
59197W        W24424  41.849   2.116   1.178
59198W        W24425   6.849  44.835   1.664
59199W        W24426   8.960  29.111   4.051
59200W        W24427   1.985  10.328  12.253
59201W        W24428  43.019  14.276   0.901
59202W        W24429  36.887  31.931  12.127
59203W        W24430  44.411  41.783  10.436
59204W        W24431   5.160  13.294  12.570
59205W        W24432  11.041  25.630   4.613
59206W        W24433  37.117  21.151  11.818
59207W        W24434  44.378  22.840   2.362
59208W        W24435   9.368   1.761  10.428
59209W        W24436  44.891  42.992  13.031
59210W        W24437  42.454  13.626  11.675
59211W        W24438  20.941  32.860   0.735
59212W        W24439  20.226   3.983   4.747
59213W        W24440  35.432  20.106  11.153
59214W        W24441  22.470  15.735  11.007
59215W        W24442  17.485  10.618  14.491
59216W        W24443  34.183  12.044   4.825
59217W        W24444   9.422  29.788   4.917
59218W        W24445  17.118  29.649   1.491
59219W        W24446  29.135  17.628   4.408
59220W        W24447  26.527  16.169  11.745
59221W        W24448   2.677   7.813  12.548
59222W        W24449  25.053  19.658   2.850
59223W        W24450  39.683  30.553  14.844
59224W        W24451  17.267  36.021   2.004
59225W        W24452  23.788  28.924   1.725
59226W        W24453  33.940   3.273   1.677
59227W        W24454  17.137   0.715  10.746
59228W        W24455  12.660  37.403   4.905
59229W        W24456  21.999  30.375  11.148
59230W        W24457  20.546  14.343  13.539
59231W        W24458  35.671  24.467  13.020
59232W        W24459  20.117  27.019  10.913
59233W        W24460  17.049  43.767   0.323
59234W        W24461  14.398  44.014   0.955
59235W        W24462  33.112  36.696   0.297
59236W        W24463  23.595  10.250   5.026
59237W        W24464  42.467  24.632   0.707
59238W        W24465  25.919  33.635  10.156
59239W        W24466  16.790  15.657  13.434
59240W        W24467  44.417  40.013   1.678
59241W        W24468  43.976  24.008  12.460
59242W        W24469  14.585  30.973  12.132
59243W        W24470  38.808   6.907  13.977
59244W        W24471  32.495  13.931   2.223
59245W        W24472  40.054  41.784   1.708
59246W        W24473   8.598  14.238   2.664
59247W        W24474  35.081  18.730  10.745
59248W        W24475  39.934  21.372   3.621
59249W        W24476   7.566  10.204   3.282
59250W        W24477   8.418  23.046   0.952
59251W        W24478  30.148  26.317  11.788
59252W        W24479  31.128  20.136   4.168
59253W        W24480  20.710  31.571  13.422
59254W        W24481  34.599   8.386   1.312
59255W        W24482  20.045  12.114   3.167
59256W        W24483  37.679  29.445   0.016
59257W        W24484  15.391   0.874   1.833
59258W        W24485  15.852  19.735  14.888
59259W        W24486   6.455  39.638  12.066
59260W        W24487  13.681  11.100  12.611
59261W        W24488  21.044  16.287   3.293
59262W        W24489  13.835  24.455  10.784
59263W        W24490  20.737  34.871   1.797
59264W        W24491  25.474  22.080  13.102
59265W        W24492  36.984  17.589   1.341
59266W        W24493  21.539  42.305  14.369
59267W        W24494   5.142  32.600   1.722
59268W        W24495  25.481  43.203   3.708
59269W        W24496  10.190  27.149  11.529
59270W        W24497  11.326  19.892  14.831
59271W        W24498  23.556  42.689  11.470
59272W        W24499   5.712  35.177  13.938
59273W        W24500  16.625  35.429   3.649
59274W        W24501  13.181  19.683  10.501
59275W        W24502  44.033  40.097  11.839
59276W        W24503  22.115  23.712  11.756
59277W        W24504   2.192   0.744   0.331
59278W        W24505  13.759  12.882  11.787
59279W        W24506   1.236  34.742   4.814
59280W        W24507  15.195  10.915   1.399
59281W        W24508  10.627  25.531   0.472
59282W        W24509  13.851  38.501   2.070
59283W        W24510  30.854   4.764  14.856
59284W        W24511  11.636  11.415  12.992
59285W        W24512   3.686  16.288  12.604
59286W        W24513  25.238   8.217   1.334
59287W        W24514  13.967  34.654   0.246
59288W        W24515  10.192  26.517   0.017
59289W        W24516  40.384  14.040  13.340
59290W        W24517   5.325  11.299  14.330
59291W        W24518  14.509  18.139  10.283
59292W        W24519  10.123  22.289  11.835
59293W        W24520  22.176  16.308  11.153
59294W        W24521  21.122  40.436  10.622
59295W        W24522  21.547  41.860   4.577
59296W        W24523  21.099  31.721   1.695
59297W        W24524  11.286  28.255  11.935
59298W        W24525  44.020  31.535   2.111
59299W        W24526  21.424   1.940   4.081
59300W        W24527  41.702   8.856  12.041
59301W        W24528   8.766   5.494   2.357
59302W        W24529  35.173  42.639  12.564
59303W        W24530  16.190  33.886  11.606
59304W        W24531  22.952  34.033   2.984
59305W        W24532   8.778  13.276  12.642
59306W        W24533  26.756  40.582  10.726
59307W        W24534  30.800  41.270  11.610
59308W        W24535   2.624  16.089   1.260
59309W        W24536  22.240  37.018  14.540
59310W        W24537  31.125   2.276   4.549
59311W        W24538  38.978  28.768  14.234
59312W        W24539  28.985  18.479   1.388
59313W        W24540  42.336   6.409   0.815
59314W        W24541  30.067  28.265   0.371
59315W        W24542  34.917  19.661   3.783
59316W        W24543  37.515  42.795  11.796
59317W        W24544  12.687   3.414   4.191
59318W        W24545  43.277  41.031  10.587
59319W        W24546   1.560  22.466  13.913
59320W        W24547  33.341  10.138   4.877
59321W        W24548   2.963  30.672  14.854
59322W        W24549  28.881  24.060  13.504
59323W        W24550  13.738   6.559   0.531
59324W        W24551  32.426  34.841  11.438
59325W        W24552  41.792  10.807   1.644
59326W        W24553  24.196  43.438  10.574
59327W        W24554   4.777   2.266   1.883
59328W        W24555  13.012  24.778  13.236
59329W        W24556  30.261  43.011   2.186
59330W        W24557  16.002  43.578  10.603
59331W        W24558  19.868  17.833   3.698
59332W        W24559  12.902  35.119   1.390
59333W        W24560  29.199  15.551   1.476
59334W        W24561   1.721  29.467   2.818
59335W        W24562  10.688  12.481  10.708
59336W        W24563  13.155  20.117   2.428
59337W        W24564  35.373  25.972  11.440
59338W        W24565   3.909  25.035   2.132
59339W        W24566  15.156  21.497  11.541
59340W        W24567  22.485   3.225  14.444
59341W        W24568  38.900  36.273   3.648
59342W        W24569  33.935  10.186   1.178
59343W        W24570   8.313  32.266   1.431
59344W        W24571  37.292  26.983  10.728
59345W        W24572  37.535  15.234  12.510
59346W        W24573  32.573   2.392   1.888
59347W        W24574   5.412   3.341  10.191
59348W        W24575  40.860  16.068  13.688
59349W        W24576  35.578   9.009  13.129
59350W        W24577  39.864   3.677   0.470
59351W        W24578  32.128  28.547  14.779
59352W        W24579  18.991  33.198  11.998
59353W        W24580   8.792  39.834  14.428
59354W        W24581  43.981  44.679   2.668
59355W        W24582  13.715  13.568  10.736
59356W        W24583  13.168  22.167  12.620
59357W        W24584   3.661  18.478   3.177
59358W        W24585  43.508  44.418   2.785
59359W        W24586   2.788  34.140  12.392
59360W        W24587  36.974   8.505   3.847
59361W        W24588  30.329  19.277   3.758
59362W        W24589  38.953   3.398   4.803
59363W        W24590  23.439   9.767  11.909
59364W        W24591   8.717  18.083  12.326
59365W        W24592  36.400  34.115  14.802
59366W        W24593  41.332  28.509   4.654
59367W        W24594  14.994   9.626  10.436
59368W        W24595   1.923   4.281  11.710
59369W        W24596  10.054  32.213   4.511
59370W        W24597  17.771  21.761  14.338
59371W        W24598  16.010  20.566   1.007
59372W        W24599  27.469   1.197   2.376
59373W        W24600  13.889  40.323  10.742
59374W        W24601   0.722  34.550  14.937
59375W        W24602   8.199  13.095   4.148
59376W        W24603   7.091  10.246   1.490
59377W        W24604  11.768  42.859   1.826
59378W        W24605  37.972  41.946  13.747
59379W        W24606  15.669   5.652  10.228
59380W        W24607  25.343  34.785   1.724
59381W        W24608   0.282  25.299  12.133
59382W        W24609  22.597  38.576   4.664
59383W        W24610  15.256   9.050   2.536
59384W        W24611   7.939   3.953   3.060
59385W        W24612  35.451  40.526   3.932
59386W        W24613  30.491  20.468  14.202
59387W        W24614  35.363  36.100  10.522
59388W        W24615  36.808  44.308   3.140
59389W        W24616  19.239  14.278   2.292
59390W        W24617  37.455  23.341   0.754
59391W        W24618  35.497  18.522  10.507
59392W        W24619   8.169  24.624   4.362
59393W        W24620   1.869  17.706  13.945
59394W        W24621  25.080  13.356   2.208
59395W        W24622  31.977  33.883  12.430
59396W        W24623  20.836  31.514   3.762
59397W        W24624  30.546  39.322   1.065
59398W        W24625  44.835   0.173  12.042
59399W        W24626  28.374  13.805   9.854
59400W        W24627  11.466  39.169  14.560
59401W        W24628  15.605  43.226   1.382
59402W        W24629  16.691  29.553  13.079
59403W        W24630  29.890   3.907   1.361
59404W        W24631  18.025  15.141   2.158
59405W        W24632   4.686  32.098   4.897
59406W        W24633  26.198  40.750  14.435
59407W        W24634   4.800  37.503  10.676
59408W        W24635   6.670  41.976   0.750
59409W        W24636   4.078  36.074   2.763
59410W        W24637  10.532  32.960  13.410
59411W        W24638  20.905  14.398   4.302
59412W        W24639   8.600  43.833   0.217
59413W        W24640  22.917  32.019  14.008
59414W        W24641   2.686   1.861   4.750
59415W        W24642  42.541  37.023  11.661
59416W        W24643   1.228  25.854   2.176
59417W        W24644  34.108  13.536   1.345
59418W        W24645   2.913   0.951   5.201
59419W        W24646  39.450  27.401   3.728
59420W        W24647   0.176   1.677  14.934
59421W        W24648   6.865  41.676  14.315
59422W        W24649  33.801  30.927   4.870
59423W        W24650  27.131  42.801   0.259
59424W        W24651  42.309  18.100   4.384
59425W        W24652   5.049   8.576   4.168
59426W        W24653  24.950  33.679   2.590
59427W        W24654  32.028   8.711  13.461
59428W        W24655   2.013  43.543   2.716
59429W        W24656  25.583  31.922  11.170
59430W        W24657  15.215   9.916  12.965
59431W        W24658  14.528  40.180   1.506
59432W        W24659  13.234  20.727  11.195
59433W        W24660   0.812  41.306  12.110
59434W        W24661  28.642  24.191  11.927
59435W        W24662  25.548   5.175   0.068
59436W        W24663  44.930  32.930   4.214
59437W        W24664   0.807  26.868  12.909
59438W        W24665   2.456  44.048  14.525
59439W        W24666  19.701  30.129  10.993
59440W        W24667  43.948  35.328  10.778
59441W        W24668  18.019  15.346   1.672
59442W        W24669   5.962  35.975  13.391
59443W        W24670  18.867   9.147  14.266
59444W        W24671  44.514  40.342  13.959
59445W        W24672  18.094  15.166   3.074
59446W        W24673  22.319  27.021   4.138
59447W        W24674  14.483  19.242  14.791
59448W        W24675  16.157  35.775  12.874
59449W        W24676  27.672  26.948   0.907
59450W        W24677   9.886   1.844  14.392
59451W        W24678  31.348  29.112   4.986
59452W        W24679  10.236  36.416  11.080
59453W        W24680  33.822  17.365  10.101
59454W        W24681  19.759  27.624   3.296
59455W        W24682  28.355  37.317  13.504
59456W        W24683   6.659   0.511  10.652
59457W        W24684  11.702  31.427   1.391
59458W        W24685  42.139   8.357  13.861
59459W        W24686  32.873  39.470   3.195
59460W        W24687  43.789  34.827  10.773
59461W        W24688  38.105  14.209   3.808
59462W        W24689  35.667  39.147   0.217
59463W        W24690  33.294   0.417   4.617
59464W        W24691  30.842  39.896   3.710
59465W        W24692  36.561  14.773   4.196
59466W        W24693   7.078  13.156   2.468
59467W        W24694  23.200  32.473  10.339
59468W        W24695  44.813  10.803  13.748
59469W        W24696   1.998   2.973   4.072
59470W        W24697   4.686  31.080   2.500
59471W        W24698  22.606   3.624   4.148
59472W        W24699   1.241  44.209   1.384
59473W        W24700  36.927   0.839  14.895
59474W        W24701   9.322  12.006   4.155
59475W        W24702  24.733  12.854  14.821
59476W        W24703  33.107  13.862   3.106
59477W        W24704  13.627   8.172  11.179
59478W        W24705  43.404  26.555   1.317
59479W        W24706  10.694  39.820   3.831
59480W        W24707  38.498  39.949   2.652
59481W        W24708  11.770   6.372  14.591
59482W        W24709  31.557  16.172  11.554
59483W        W24710   8.201  11.681   1.718
59484W        W24711  42.343   4.001  14.425
59485W        W24712  31.479  30.243   0.882
59486W        W24713   9.845  41.753   1.826
59487W        W24714  41.777  14.743   4.518
59488W        W24715  23.742  38.424  13.281
59489W        W24716   3.963  43.854   0.945
59490W        W24717  36.071  31.808   1.348
59491W        W24718  28.692  39.964  14.416
59492W        W24719  42.366  43.886  14.692
59493W        W24720  30.695  38.890   3.675
59494W        W24721  17.762  12.847  14.427
59495W        W24722  17.907  27.118   2.169
59496W        W24723  29.357  29.002   3.659
59497W        W24724  40.271  40.293  10.866
59498W        W24725  22.860  25.438  10.395
59499W        W24726  20.810  21.090  13.796
59500W        W24727  33.674  40.948  10.782
59501W        W24728  20.838  23.781   2.666
59502W        W24729  37.495   0.311   1.586
59503W        W24730   8.395  31.041  13.739
59504W        W24731  26.006  20.073   2.637
59505W        W24732  10.608  32.187  13.838
59506W        W24733  43.689  44.901   2.081
59507W        W24734   9.731  41.862  11.672
59508W        W24735   9.801  44.464  13.923
59509W        W24736  11.145  21.099  13.019
59510W        W24737  30.988   9.234   4.820
59511W        W24738  38.539   0.999  14.360
59512W        W24739  12.947  21.626   3.746
59513W        W24740  38.461  41.449  13.462
59514W        W24741  16.636  27.588   2.499
59515W        W24742   4.649  25.489   1.741
59516W        W24743  13.149  34.491   3.737
59517W        W24744   1.135  18.592   1.710
59518W        W24745   0.381   5.702  10.718
59519W        W24746  21.141  27.678   1.732
59520W        W24747  20.464   7.478   1.363
59521W        W24748  37.415  15.148   4.729
59522W        W24749  41.420  16.856  11.162
59523W        W24750  32.516  22.268   1.441
59524W        W24751   8.661  19.254   0.341
59525W        W24752   1.737  11.752   1.358
59526W        W24753  16.875   6.893  12.503
59527W        W24754   7.638  35.982   3.270
59528W        W24755  32.886  28.640   2.758
59529W        W24756  20.269  37.992   3.229
59530W        W24757  44.243   9.454  13.977
59531W        W24758  10.704   7.010  14.344
59532W        W24759  27.525  26.700   0.318
59533W        W24760  17.527  28.627  12.912
59534W        W24761  42.017  35.765  11.985
59535W        W24762  33.976  25.052   3.640
59536W        W24763  43.460  32.538  14.922
59537W        W24764  30.475  16.499   3.123
59538W        W24765  27.466  29.068   2.293
59539W        W24766  27.094   2.756  11.865
59540W        W24767  31.603  30.588  12.047
59541W        W24768  11.820  31.717  10.495
59542W        W24769  29.854  30.588   1.212
59543W        W24770  15.106  27.277   0.376
59544W        W24771  35.364  42.185  12.413
59545W        W24772   3.439  43.401  13.225
59546W        W24773  17.028  43.655  12.815
59547W        W24774  37.556  17.403   4.148
59548W        W24775  44.920  11.740   3.205
59549W        W24776   0.477  24.889  14.797
59550W        W24777  23.589  28.178   2.584
59551W        W24778  24.611   0.076  11.526
59552W        W24779  35.131  44.811   0.190
59553W        W24780  43.644  10.131   4.418
59554W        W24781  20.117  28.372  12.419
59555W        W24782  38.775  14.690   3.619
59556W        W24783  29.687   8.953  13.396
59557W        W24784  20.719  17.341  11.587
59558W        W24785  36.316  16.776  14.519
59559W        W24786  13.998  26.666   3.164
59560W        W24787   2.259  38.145  11.165
59561W        W24788  13.568   3.800  11.102
59562W        W24789  34.105   1.406   4.021
59563W        W24790  34.345  21.287  11.806
59564W        W24791   9.392  22.001   1.244
59565W        W24792   8.762  35.555  12.101
59566W        W24793  37.702  27.434   4.696
59567W        W24794  37.913  33.985   1.249
59568W        W24795  20.657  36.146  13.900
59569W        W24796  43.058  34.782   1.350
59570W        W24797  27.483  18.877  12.014
59571W        W24798  12.950   7.778   4.190
59572W        W24799  18.801  36.986  13.414
59573W        W24800  22.707   8.332  12.620
59574W        W24801  24.198  38.478   0.716
59575W        W24802  35.011  11.822   4.758
59576W        W24803   4.496  17.876   4.185
59577W        W24804  28.598  11.427  11.224
59578W        W24805  27.639   9.877  12.664
59579W        W24806  13.453  28.437   3.825
59580W        W24807  14.231   7.235  12.062
59581W        W24808   7.204  31.860   1.442
59582W        W24809  38.943  29.629   1.414
59583W        W24810  10.379  44.785   4.436
59584W        W24811  39.357  11.152  10.810
59585W        W24812  36.515  18.579  12.126
59586W        W24813  17.567  10.194   4.738
59587W        W24814  43.607  41.420  13.420
59588W        W24815  29.914   7.716   0.795
59589W        W24816  19.779  43.521   2.832
59590W        W24817  34.793  30.029   2.287
59591W        W24818   4.487  44.310  13.896
59592W        W24819  43.909   4.306  12.584
59593W        W24820  35.483  14.129   3.530
59594W        W24821   5.388  18.589   3.719
59595W        W24822   9.773  39.834   2.438
59596W        W24823  25.743  23.301   1.261
59597W        W24824   8.409  11.315  12.502
59598W        W24825  26.885  13.231   1.726
59599W        W24826   6.517  14.642  14.949
59600W        W24827   5.860   7.064   4.485
59601W        W24828   6.874  44.600  12.991
59602W        W24829  13.413  16.850   1.831
59603W        W24830  17.033  30.549  12.398
59604W        W24831  24.152  16.765   0.866
59605W        W24832   5.803  12.183   1.646
59606W        W24833  24.111  19.497   1.122
59607W        W24834  27.329  15.567  13.896
59608W        W24835  12.569  13.677  10.673
59609W        W24836  35.440  33.688   2.177
59610W        W24837  25.615  19.206   0.708
59611W        W24838   1.387  28.907   2.289
59612W        W24839   8.919  34.944   2.704
59613W        W24840   6.579  34.030  11.510
59614W        W24841  26.728  27.933   3.824
59615W        W24842  35.996   4.193  12.006
59616W        W24843  32.312  40.285   1.722
59617W        W24844   3.250   4.860  14.919
59618W        W24845  35.526   9.796  14.998
59619W        W24846  41.464  39.417   2.190
59620W        W24847  32.254  43.323   1.259
59621W        W24848  37.382   7.844   0.808
59622W        W24849  11.305   6.304  14.306
59623W        W24850  22.655  27.490   0.441
59624W        W24851  11.660  35.888  13.469
59625W        W24852  27.918  21.782  11.240
59626W        W24853  20.480  29.035   4.551
59627W        W24854  21.918  36.311   2.385
59628W        W24855  32.411  25.147  13.851
59629W        W24856  20.472   3.788   3.280
59630W        W24857   1.515  36.075  13.884
59631W        W24858  11.095  40.945   2.474
59632W        W24859   5.249  16.648   4.604
59633W        W24860  35.985  34.330   4.187
59634W        W24861  22.104  41.236  11.907
59635W        W24862  17.642  22.977   0.483
59636W        W24863   4.589  11.627   0.107
59637W        W24864   9.923  41.556   2.760
59638W        W24865  29.060  32.309  10.602
59639W        W24866   2.044  25.047  11.585
59640W        W24867   4.360  32.836   2.437
59641W        W24868  40.471  15.986  11.039
59642W        W24869   8.072  38.538  12.010
59643W        W24870  10.911  15.023  11.589
59644W        W24871   8.411   7.594   2.926
59645W        W24872   1.892  23.086  11.472
59646W        W24873  30.044  44.026   2.539
59647W        W24874  41.900  16.061  11.246
59648W        W24875  39.328  33.614   0.351
59649W        W24876  25.463   7.431  11.702
59650W        W24877  13.182  35.872   4.170
59651W        W24878  36.509  20.151  12.344
59652W        W24879  39.338  23.170  13.282
59653W        W24880  34.030  37.955   1.779
59654W        W24881  11.500   7.838  11.730
59655W        W24882  33.177  10.750   1.175
59656W        W24883  32.534  41.948   0.422
59657W        W24884  16.792  36.048   2.321
59658W        W24885  10.170  35.582  11.902
59659W        W24886  14.317  40.037   4.530
59660W        W24887  22.523  30.372  11.282
59661W        W24888   6.461  29.053   2.216
59662W        W24889  24.486   8.704   2.851
59663W        W24890  13.624  41.357  14.446
59664W        W24891   6.247  22.814   1.216
59665W        W24892  25.075  31.484   2.957
59666W        W24893  38.764  33.260   1.329
59667W        W24894  18.878  15.294  11.279
59668W        W24895   0.835  39.296   0.264
59669W        W24896  10.669  27.666  14.114
59670W        W24897  42.819  12.274   0.639
59671W        W24898  28.376  36.767  12.597
59672W        W24899  14.678  17.353   0.691
59673W        W24900  27.431  29.637   4.162
59674W        W24901  43.980   4.718  12.904
59675W        W24902  22.178  20.278  13.458
59676W        W24903  35.881  24.940  14.763
59677W        W24904  35.075  28.569   1.226
59678W        W24905  27.972  39.757  12.589
59679W        W24906  24.103  20.901   3.189
59680W        W24907  24.755  22.236   3.249
59681W        W24908  38.055   6.445  12.059
59682W        W24909   9.254  13.455  12.057
59683W        W24910  40.515  25.701  13.387
59684W        W24911  43.862  24.023   2.324
59685W        W24912  26.065  27.609  13.368
59686W        W24913  16.737  40.512  14.874
59687W        W24914  23.882   7.816  14.826
59688W        W24915  26.555   2.519  12.109
59689W        W24916  31.922  19.138   4.603
59690W        W24917  38.470  41.994   3.222
59691W        W24918  42.519  44.661  11.127
59692W        W24919   0.398  40.763   3.094
59693W        W24920  18.163  33.176   3.318
59694W        W24921  14.897  23.652   1.500
59695W        W24922  32.467  32.542   0.284
59696W        W24923  28.041  33.104   1.789
59697W        W24924  22.091  12.852   4.588
59698W        W24925   3.335  33.225   0.873
59699W        W24926   2.637  23.442   2.158
59700W        W24927  25.847  40.364  11.818
59701W        W24928  17.265  17.240  12.740
59702W        W24929  43.045  13.113   2.757
59703W        W24930   7.265   1.360  11.523
59704W        W24931   7.230  18.450  14.309
59705W        W24932  37.035  37.449  11.398
59706W        W24933  41.485  19.050  10.611
59707W        W24934  17.804  19.320  11.987
59708W        W24935  42.731  32.631   1.679
59709W        W24936  33.206  15.759  12.967
59710W        W24937  10.532  17.562  14.420
59711W        W24938  32.149   5.790   3.255
59712W        W24939  36.005  18.043   3.737
59713W        W24940  20.856  30.532   4.630
59714W        W24941  27.862  44.929   2.200
59715W        W24942   4.240   3.897  12.523
59716W        W24943  25.077   1.891   0.336
59717W        W24944  18.714  18.783  12.982
59718W        W24945  10.256  18.070   3.738
59719W        W24946  44.860  40.927   1.304
59720W        W24947  10.381  22.675  10.658
59721W        W24948   6.709  28.435  11.249
59722W        W24949  21.549  40.890  10.711
59723W        W24950  29.865  35.539  14.026
59724W        W24951  38.753  15.329  14.092
59725W        W24952  38.935   4.725  10.735
59726W        W24953  26.443  41.302   3.962
59727W        W24954  16.824  20.755  10.847
59728W        W24955  43.933  37.958  13.816
59729W        W24956   3.907  32.093   2.329
59730W        W24957   6.871   4.187   1.046
59731W        W24958  26.982  12.323  11.556
59732W        W24959  41.422  12.837  11.872
59733W        W24960   7.670   1.448   3.353
59734W        W24961  14.561  10.446   4.115
59735W        W24962  39.297  20.010   0.519
59736W        W24963  44.326  40.936  11.197
59737W        W24964  28.471  21.617  10.825
59738W        W24965   5.731   1.173   2.777
59739W        W24966  24.159  25.965  13.528
59740W        W24967  44.246  24.880  13.542
59741W        W24968  40.827  27.886  13.274
59742W        W24969  11.917   9.691  10.465
59743W        W24970   6.805  10.784  14.831
59744W        W24971  28.474  22.257   1.721
59745W        W24972  42.027  29.987  14.567
59746W        W24973  31.098  43.447   3.332
59747W        W24974  38.636  32.479   0.407
59748W        W24975  28.585  36.822   3.255
59749W        W24976  18.657  16.838   3.316
59750W        W24977  41.431  14.266   0.884
59751W        W24978  30.654  25.706   0.985
59752W        W24979   2.189  28.932  13.951
59753W        W24980   0.189   0.533  12.099
59754W        W24981   0.762  12.677  13.426
59755W        W24982  26.347   7.273   3.653
59756W        W24983  22.740  33.149   2.613
59757W        W24984  21.165  18.192  12.007
59758W        W24985  38.349  37.640  12.031
59759W        W24986  39.560  28.322   2.499
59760W        W24987  15.763  37.618  10.378
59761W        W24988  32.899   7.778   2.634
59762W        W24989  20.312  40.969  14.523
59763W        W24990  13.253  12.200  13.359
59764W        W24991   3.264   9.614   1.360
59765W        W24992   5.909  22.241   3.198
59766W        W24993  41.951  16.866   1.796
59767W        W24994   5.297   0.756  11.951
59768W        W24995  24.188  13.704   0.396
59769W        W24996   3.022  20.198  13.004
59770W        W24997   1.485  33.988   2.482
59771W        W24998   9.766   7.608   4.364
59772W        W24999  41.266  42.691   3.048
59773W        W25000   5.392   7.367  10.945
59774W        W25001  29.359   3.426   3.152
59775W        W25002   1.302   3.161  12.035
59776W        W25003   5.861  42.067  13.621
59777W        W25004   3.887  22.257  12.509
59778W        W25005  25.112  41.939  12.109
59779W        W25006  16.660  35.830  12.907
59780W        W25007   6.297   6.643  10.327
59781W        W25008   5.375  19.835   1.216
59782W        W25009  20.958  35.368   4.878
59783W        W25010  32.004   3.655  13.289
59784W        W25011   1.304   1.618  11.126
59785W        W25012  43.901  39.518   4.752
59786W        W25013  15.764  44.285   2.802
59787W        W25014  27.939   7.333  11.018
59788W        W25015  35.264  15.065  14.035
59789W        W25016  41.560  10.727  11.210
59790W        W25017   6.884   3.971  12.616
59791W        W25018  44.804  39.080   1.335
59792W        W25019   5.921  21.213  11.130
59793W        W25020  33.448  31.133   2.194
59794W        W25021   9.445  18.184  13.056
59795W        W25022  10.783  15.361   2.547
59796W        W25023  13.309  28.197   4.686
59797W        W25024  40.196   7.655  14.009
59798W        W25025  13.145  24.597  14.804
59799W        W25026  33.096  15.328   0.846
59800W        W25027  19.679  25.252  12.955
59801W        W25028  19.748   7.508  10.971
59802W        W25029   5.135  29.175  13.469
59803W        W25030   6.542  34.091  13.819
59804W        W25031  11.317  38.497  14.457
59805W        W25032  13.128   4.004  12.386
59806W        W25033  28.321   0.143  10.979
59807W        W25034  28.294  10.855  13.404
59808W        W25035  26.631   0.344   3.131
59809W        W25036  30.573  39.035   4.178
59810W        W25037  43.902  12.695  11.140
59811W        W25038  13.217   9.029  11.620
59812W        W25039  35.032   2.932   0.271
59813W        W25040  27.715  10.831  12.223
59814W        W25041   9.763   9.284   4.001
59815W        W25042  38.403  16.787  14.482
59816W        W25043  19.524   2.253  11.141
59817W        W25044  29.061  44.244   4.406
59818W        W25045  41.983  18.755   2.108
59819W        W25046  10.620  23.797   4.574
59820W        W25047  27.962  41.900   2.675
59821W        W25048  18.271  33.101  13.973
59822W        W25049  23.739  16.864   3.560
59823W        W25050  10.735  24.969   3.970
59824W        W25051  35.037   1.514   4.144
59825W        W25052  40.004   1.908  13.380
59826W        W25053   9.759  23.502  13.142
59827W        W25054   1.680  25.247   2.788
59828W        W25055  27.542  21.479  13.795
59829W        W25056   0.251  16.443   3.620
59830W        W25057  40.682   8.967   2.163
59831W        W25058  28.013  15.309   1.510
59832W        W25059  22.300  42.482  13.831
59833W        W25060  30.763  22.427  14.592
59834W        W25061  41.449  36.960  10.742
59835W        W25062   7.799  36.425   0.816
59836W        W25063  34.791  10.307   4.649
59837W        W25064   3.373  28.465   3.564
59838W        W25065   9.598  28.515  13.002
59839W        W25066   9.867  26.738   1.462
59840W        W25067  32.372   5.736  11.111
59841W        W25068  26.010  35.637  11.620
59842W        W25069  12.077   0.434  12.983
59843W        W25070  35.695  18.780   4.118
59844W        W25071  22.990  37.137  11.151
59845W        W25072  40.607  14.212   4.316
59846W        W25073  18.805   8.403  11.195
59847W        W25074   0.640  37.398  14.943
59848W        W25075  24.777  20.210  10.737
59849W        W25076  16.636  24.331   4.518
59850W        W25077  11.662   6.843  14.806
59851W        W25078  40.635  42.757  14.695
59852W        W25079  24.016   4.703  12.028
59853W        W25080  43.138  30.121   9.796
59854W        W25081  20.789  28.669   0.736
59855W        W25082  42.749  30.620  13.315
59856W        W25083  39.371  17.772  14.870
59857W        W25084  23.105  37.456   0.820
59858W        W25085   7.847  44.107   3.217
59859W        W25086   3.331  22.719   3.671
59860W        W25087   5.826  42.460  10.648
59861W        W25088  22.034  23.078   4.250
59862W        W25089  14.625  37.562  14.274
59863W        W25090   8.847  20.591   0.945
59864W        W25091   1.967  39.892  12.860
59865W        W25092  37.077  25.722   2.379
59866W        W25093   1.828  26.934   0.254
59867W        W25094  34.287  16.186  10.011
59868W        W25095  22.132  12.167   1.781
59869W        W25096  32.736   5.058   2.219
59870W        W25097   5.717  10.878   3.192
59871W        W25098   6.083  34.601  13.280
59872W        W25099   0.996  40.718  11.565
59873W        W25100  17.723  12.234   1.761
59874W        W25101  35.054  21.121  13.071
59875W        W25102  29.752   2.505  13.988
59876W        W25103   1.934  39.887  14.468
59877W        W25104  32.945  24.182   2.754
59878W        W25105  35.338  21.321   3.744
59879W        W25106  28.544   8.455   3.353
59880W        W25107  24.142  35.881  10.763
59881W        W25108  30.172   8.984  11.073
59882W        W25109  24.370  42.870   4.386
59883W        W25110  40.762  43.414   1.759
59884W        W25111  30.230  18.080   3.386
59885W        W25112   4.878  40.726  12.039
59886W        W25113  32.966  17.482   3.223
59887W        W25114   6.144  14.280   4.999
59888W        W25115  24.205  28.414  12.867
59889W        W25116   3.347  10.745  12.247
59890W        W25117  24.287  20.620   2.763
59891W        W25118  17.353  42.770   3.256
59892W        W25119  29.979  17.487  14.895
59893W        W25120   7.352  36.619   1.003
59894W        W25121  12.111   8.740  10.940
59895W        W25122  28.458  26.810   3.763
59896W        W25123  31.995   7.863   1.355
59897W        W25124  29.548  24.850   3.498
59898W        W25125  12.553  19.138   2.565
59899W        W25126  29.155  20.115   0.183
59900W        W25127  17.758  43.397  11.439
59901W        W25128  15.646   5.244  12.076
59902W        W25129  17.799  35.615  14.990
59903W        W25130   2.969  17.809   4.142
59904W        W25131  31.880   9.974   5.069
59905W        W25132  15.917  16.422  12.107
59906W        W25133  18.351   0.831  11.175
59907W        W25134  26.673  26.872  10.240
59908W        W25135  19.882  10.610   1.193
59909W        W25136   8.423  35.657  12.534
59910W        W25137  19.400  11.185  13.170
59911W        W25138   9.360  38.912  13.776
59912W        W25139  10.886  40.904   1.987
59913W        W25140  28.331  22.243  10.443
59914W        W25141  43.525   4.784  10.018
59915W        W25142  13.346   7.254  13.293
59916W        W25143   9.989  33.661   9.924
59917W        W25144   8.378  31.664  11.964
59918W        W25145  21.754  38.571  13.421
59919W        W25146   1.289  31.637   4.633
59920W        W25147   1.870  21.725   3.769
59921W        W25148  17.037  11.805   4.029
59922W        W25149   6.904  30.201   2.429
59923W        W25150  24.550  12.395  12.900
59924W        W25151  39.259  42.795  14.740
59925W        W25152  33.512  16.603   0.551
59926W        W25153  12.955  20.902   2.823
59927W        W25154  33.078  32.305  11.461
59928W        W25155   7.692  13.656  11.932
59929W        W25156  23.787  38.118   2.427
59930W        W25157   5.076  10.126  10.034
59931W        W25158  28.464  16.786   1.397
59932W        W25159  16.131  18.830  12.532
59933W        W25160  33.052   3.470   3.214
59934W        W25161  40.737  13.843  11.543
59935W        W25162   3.600  37.921   3.957
59936W        W25163   9.208  31.135   3.372
59937W        W25164  21.700  27.755   1.029
59938W        W25165   8.577  44.733  11.854
59939W        W25166  22.492  15.491   3.137
59940W        W25167   5.687  16.103   4.635
59941W        W25168  14.721  33.622   4.567
59942W        W25169  31.124  31.490  10.166
59943W        W25170  38.753   9.781   4.180
59944W        W25171  33.076  39.120   2.853
59945W        W25172  14.946  17.551   3.541
59946W        W25173  36.406  11.175  11.455
59947W        W25174   4.464   2.731  14.905
59948W        W25175  37.890  11.399  10.649
59949W        W25176  16.049  24.035  14.059
59950W        W25177  21.116  29.841   5.041
59951W        W25178  15.265  36.635  13.071
59952W        W25179  10.763   9.697   4.165
59953W        W25180  17.700  40.102   2.840
59954W        W25181  14.288   9.668   0.587
59955W        W25182  18.592  16.829  14.775
59956W        W25183  36.382  12.690  12.037
59957W        W25184  36.580  23.955  13.914
59958W        W25185   9.607  12.079  14.744
59959W        W25186  31.587  44.727   3.350
59960W        W25187  18.800  27.631   4.673
59961W        W25188   0.466  44.075  13.389
59962W        W25189  36.340  35.827   5.174
59963W        W25190  24.271  24.551   1.384
59964W        W25191  20.695   9.262   3.415
59965W        W25192  12.154   4.646   1.644
59966W        W25193  35.791  20.020  14.156
59967W        W25194  34.842  13.783   2.280
59968W        W25195  39.943  23.439   1.644
59969W        W25196  15.019   1.299   4.100
59970W        W25197  15.650  37.867   0.556
59971W        W25198  31.561  34.774  14.311
59972W        W25199  28.707  11.977  11.845
59973W        W25200  21.174  21.740   0.397
59974W        W25201  16.049   2.340   3.415
59975W        W25202  23.755  25.721   2.223
59976W        W25203  10.640  16.703   0.841
59977W        W25204  38.917   4.260   2.378
59978W        W25205  15.599   5.141   2.591
59979W        W25206  43.229   3.960   2.248
59980W        W25207  16.253   1.248  12.844
59981W        W25208  38.381  25.848  12.523
59982W        W25209  41.925  32.129   4.035
59983W        W25210   1.621  40.707  13.128
59984W        W25211  11.644  35.544  13.869
59985W        W25212   1.772  25.965   1.369
59986W        W25213  23.473  26.562   1.694
59987W        W25214  43.760  31.915  13.045
59988W        W25215  23.023  34.881   1.071
59989W        W25216  10.652  27.679  11.965
59990W        W25217  28.067  18.624  12.865
59991W        W25218  32.561   9.222  12.510
59992W        W25219  27.096  38.915  12.580
59993W        W25220   7.236  37.553  13.455
59994W        W25221  11.106   1.245   0.862
59995W        W25222  42.999  16.794  10.694
59996W        W25223  39.817  30.829  11.196
59997W        W25224  30.564   2.672   3.219
59998W        W25225  43.081  22.681   0.487
59999W        W25226  22.051  41.123  11.416
60000W        W25227  37.473   1.325  10.683
60001W        W25228  42.564  10.888  12.550
60002W        W25229  12.316  21.550   1.540
60003W        W25230   6.602   4.933  12.430
60004W        W25231  36.402  35.078  14.414
60005W        W25232  37.493  22.368   5.035
60006W        W25233  41.912  14.516   3.093
60007W        W25234   7.477  24.770   2.773
60008W        W25235  28.905  25.706  13.007
60009W        W25236  44.277  26.752  12.934
60010W        W25237  26.091  23.202  13.389
60011W        W25238  25.471   0.843   2.431
60012W        W25239  27.126   3.272   2.593
60013W        W25240   2.083   6.466  11.167
60014W        W25241   5.797  24.540   4.011
60015W        W25242  23.249  21.504   2.817
60016W        W25243  23.415  33.831  11.018
60017W        W25244  23.463   6.592  10.824
60018W        W25245  40.042  42.914  12.981
60019W        W25246   1.742  31.925   4.622
60020W        W25247  17.987  13.433   0.545
60021W        W25248  26.425  11.938   1.879
60022W        W25249  26.266  12.040   2.791
60023W        W25250  13.790  24.279   0.272
60024W        W25251  36.519  32.640   4.159
60025W        W25252  27.294  35.089  13.468
60026W        W25253  14.297  21.138   0.613
60027W        W25254  26.707  10.293   0.296
60028W        W25255  28.148  24.685   2.767
60029W        W25256  43.863   0.077  11.127
60030W        W25257  37.951   2.342   0.576
60031W        W25258  23.973   6.267  12.966
60032W        W25259   1.687  18.445   2.371
60033W        W25260  34.843  32.698  13.775
60034W        W25261  39.985  19.169   0.658
60035W        W25262  20.461  25.743  13.971
60036W        W25263  19.786  40.508   3.571
60037W        W25264  35.042  18.822   2.008
60038W        W25265  13.631  43.867  13.848
60039W        W25266  33.334   1.510  11.098
60040W        W25267   2.269  38.784   3.297
60041W        W25268  44.223  41.867   1.748
60042W        W25269   8.483  39.250   0.991
60043W        W25270  40.269   2.852  13.430
60044W        W25271   2.800  32.993   0.230
60045W        W25272  20.538  12.259   3.223
60046W        W25273   5.861  29.638   2.050
60047W        W25274  34.847   2.421   1.359
60048W        W25275  14.121  30.194  13.401
60049W        W25276  36.584  40.639  12.919
60050W        W25277  22.658  26.520   4.625
60051W        W25278  17.255  22.586  12.852
60052W        W25279  40.291   6.115  13.280
60053W        W25280  21.220  27.882   2.769
60054W        W25281   1.916  41.531  13.872
60055W        W25282  26.670   4.276  12.490
60056W        W25283  44.782  30.425   1.416
60057W        W25284   5.820  17.791  13.426
60058W        W25285  41.008  41.351  10.662
60059W        W25286   4.869  16.878   0.923
60060W        W25287  42.179  25.006   4.994
60061W        W25288  16.281  31.650   0.004
60062W        W25289  26.655  12.654   3.735
60063W        W25290  22.575  41.367   2.142
60064W        W25291   2.783  42.903  13.919
60065W        W25292  11.285  35.810   3.554
60066W        W25293   7.738  12.160   4.150
60067W        W25294   3.850  40.386  12.325
60068W        W25295  20.739  27.493   2.137
60069W        W25296   5.540  28.631   0.424
60070W        W25297   2.984  13.573   2.659
60071W        W25298  36.942  35.423  13.906
60072W        W25299   6.256   7.531  10.772
60073W        W25300  38.967  23.234  14.569
60074W        W25301  29.734   0.041   1.686
60075W        W25302  26.404  13.245  10.773
60076W        W25303  30.739  18.084  10.851
60077W        W25304   1.976  32.149   0.509
60078W        W25305  23.242  11.633   2.733
60079W        W25306  33.960  33.941   4.261
60080W        W25307  44.964  25.963  13.720
60081W        W25308   9.352  19.218   1.672
60082W        W25309  28.150   9.278   3.415
60083W        W25310  33.915  10.300   0.126
60084W        W25311   3.882  40.467  12.829
60085W        W25312   8.406  30.044   4.400
60086W        W25313   4.788  37.846   3.758
60087W        W25314  21.241  15.167   4.310
60088W        W25315  10.909   8.424   0.965
60089W        W25316  23.479  23.571   0.307
60090W        W25317  44.841   9.829  12.418
60091W        W25318  34.759  29.287   0.494
60092W        W25319  30.501  35.420  13.412
60093W        W25320   0.307  44.360   0.289
60094W        W25321  39.270   6.617  14.711
60095W        W25322  18.136  27.009  12.056
60096W        W25323  30.024  44.446   3.285
60097W        W25324  18.264  33.457  14.603
60098W        W25325  10.775  20.506  14.011
60099W        W25326  25.910  31.978   0.916
60100W        W25327   0.898  18.701   3.115
60101W        W25328   6.240  26.446   2.680
60102W        W25329  36.463  39.211   3.232
60103W        W25330  16.925  42.546   1.664
60104W        W25331  20.727  42.291  12.990
60105W        W25332  31.939  38.015   4.118
60106W        W25333  20.644  39.868   4.403
60107W        W25334  25.145  43.883  12.190
60108W        W25335  33.199  40.098   4.280
60109W        W25336  38.046  32.157   3.016
60110W        W25337   4.895   9.678   3.331
60111W        W25338   6.834  36.698   1.878
60112W        W25339   7.941  22.714  11.592
60113W        W25340  23.781  10.852   0.895
60114W        W25341  17.687  25.206  12.535
60115W        W25342  13.749  27.421   4.716
60116W        W25343   5.353   8.763  11.401
60117W        W25344  24.108  41.467   1.374
60118W        W25345  34.359  28.009  10.278
60119W        W25346  30.979  39.361   0.754
60120W        W25347  17.649  39.008  10.411
60121W        W25348  43.554  15.587   3.287
60122W        W25349   7.812  22.014  14.929
60123W        W25350  24.141  15.631  13.860
60124W        W25351  27.476  15.160  11.187
60125W        W25352  26.227   9.162  12.786
60126W        W25353  41.431  36.635   2.111
60127W        W25354  40.715   4.863   1.407
60128W        W25355  28.916  13.803  14.807
60129W        W25356  25.920  20.584  12.419
60130W        W25357  31.252   6.796  11.203
60131W        W25358  14.840  31.498  14.006
60132W        W25359  14.737  26.001   4.683
60133W        W25360  29.016  28.941  14.754
60134W        W25361  26.467   0.193  11.664
60135W        W25362  43.186   0.565   2.429
60136W        W25363  42.171  33.458  13.795
60137W        W25364  21.879  39.338  11.530
60138W        W25365   2.867  39.888  13.217
60139W        W25366   5.298  31.587   0.222
60140W        W25367  18.616   3.858  12.442
60141W        W25368  38.317  33.954  11.513
60142W        W25369  34.887  43.168   0.808
60143W        W25370  10.561  22.569  11.978
60144W        W25371   6.820  40.837   1.220
60145W        W25372  41.348   5.338   2.624
60146W        W25373  25.482  36.826  11.602
60147W        W25374  13.221  35.329  11.939
60148W        W25375   8.245  23.146  10.727
60149W        W25376   5.174  30.395  11.953
60150W        W25377  35.165   3.218  12.545
60151W        W25378  16.090  31.975  12.859
60152W        W25379   9.650   9.263   0.807
60153W        W25380  11.918   1.853   3.631
60154W        W25381  34.532  27.014  12.354
60155W        W25382   7.331  38.392   1.643
60156W        W25383  21.961  41.780  14.503
60157W        W25384  20.506  43.647   4.716
60158W        W25385  13.548  25.238  14.970
60159W        W25386  29.190  23.858   0.373
60160W        W25387  24.604  27.570   3.895
60161W        W25388  11.777  13.331  10.567
60162W        W25389  28.685  15.860  13.347
60163W        W25390  24.727  20.862   2.933
60164W        W25391  36.512  11.311  10.159
60165W        W25392  23.697  33.356   4.734
60166W        W25393  17.125  27.455  13.787
60167W        W25394  11.893   5.611   0.951
60168W        W25395  35.597  40.792  14.838
60169W        W25396   9.417  12.397   3.244
60170W        W25397   3.272  43.487   0.035
60171W        W25398  42.324  35.785   2.452
60172W        W25399  13.329  41.483   4.605
60173W        W25400  12.561  12.708  12.026
60174W        W25401   5.001  41.074  11.667
60175W        W25402  11.264   7.862   0.327
60176W        W25403  41.423  44.569   2.403
60177W        W25404   3.475   3.980  12.091
60178W        W25405  22.437  26.462   1.928
60179W        W25406  15.758   0.292   3.651
60180W        W25407  32.643  39.456  11.479
60181W        W25408  10.339  31.973   9.685
60182W        W25409  18.886  40.839   1.354
60183W        W25410  36.700  29.714  11.711
60184W        W25411   8.357  43.517   1.864
60185W        W25412   1.293   3.564   3.119
60186W        W25413  41.579  35.949   1.520
60187W        W25414  29.555  15.363  12.088
60188W        W25415  20.429  19.792  11.658
60189W        W25416   2.210  12.163  14.814
60190W        W25417  34.911  15.813  14.878
60191W        W25418  24.616   0.558   2.090
60192W        W25419   8.574  27.767  13.776
60193W        W25420  29.882  13.384   2.699
60194W        W25421  36.947  32.234  11.711
60195W        W25422  35.813  39.563   3.800
60196W        W25423  44.876  25.012   0.511
60197W        W25424  21.566   6.987   2.537
60198W        W25425  39.463  12.621   3.278
60199W        W25426  21.325   5.846  13.440
60200W        W25427  37.112  42.778   2.298
60201W        W25428  13.300  26.919  12.137
60202W        W25429   0.820  27.223   1.362
60203W        W25430  35.465  31.719  14.171
60204W        W25431   7.174  23.899  12.855
60205W        W25432  20.178  17.819   4.382
60206W        W25433  42.429   0.539   3.731
60207W        W25434  14.601  17.142  11.201
60208W        W25435  12.139  23.962  12.442
60209W        W25436  17.527  12.048  13.478
60210W        W25437  27.701  23.116  13.493
60211W        W25438  20.158   2.103  12.000
60212W        W25439  37.802  12.249   1.856
60213W        W25440  30.039  24.533  11.275
60214W        W25441  35.505  13.720  13.459
60215W        W25442  19.694  16.863  12.087
60216W        W25443  12.340  38.095   3.240
60217W        W25444  26.418  24.741   2.416
60218W        W25445  14.697  29.622  14.500
60219W        W25446  11.593  25.079   4.582
60220W        W25447  40.114  17.978   4.095
60221W        W25448   3.313  26.290  14.517
60222W        W25449   0.755  14.307  14.418
60223W        W25450  11.670  13.675  13.059
60224W        W25451   9.605  30.795   9.992
60225W        W25452  21.450  24.629   2.757
60226W        W25453  29.243  27.424  12.488
60227W        W25454   0.807  36.379   2.366
60228W        W25455   6.196   6.251  12.521
60229W        W25456   1.925  11.318  10.994
60230W        W25457  26.444  14.904  12.189
60231W        W25458  25.458  27.223   2.377
60232W        W25459  27.035  33.345  11.969
60233W        W25460  13.130  14.673   4.854
60234W        W25461  15.099  16.825   0.062
60235W        W25462  36.774   9.676   2.142
60236W        W25463   3.355   6.375   3.166
60237W        W25464  19.512   4.666   1.752
60238W        W25465  33.824  35.629  11.688
60239W        W25466  39.838  43.198   1.808
60240W        W25467  33.849   0.482  11.651
60241W        W25468   2.267   6.948  11.201
60242W        W25469   5.730  17.989   2.752
60243W        W25470  33.854  20.211  14.565
60244W        W25471  26.996  43.410  13.568
60245W        W25472  42.379  36.554  11.810
60246W        W25473  20.257   6.860  10.741
60247W        W25474  36.336  26.612   3.207
60248W        W25475  14.564  10.882   2.596
60249W        W25476  43.999  30.553   4.486
60250W        W25477  38.027  24.049   2.936
60251W        W25478   0.831  20.554   0.899
60252W        W25479  22.641  24.024   2.873
60253W        W25480  43.466   8.136  12.838
60254W        W25481  14.858  39.010  10.299
60255W        W25482  33.648  13.815  12.846
60256W        W25483  23.486  27.641   1.863
60257W        W25484  25.482  27.556  12.507
60258W        W25485  34.485  15.517   1.705
60259W        W25486  32.716  33.454   0.461
60260W        W25487   1.406  44.878  12.428
60261W        W25488  41.376  42.630   1.272
60262W        W25489   6.596   8.298  13.725
60263W        W25490  31.135   8.711  10.187
60264W        W25491  43.397   1.430  13.424
60265W        W25492  24.361  35.089  12.065
60266W        W25493  14.586  40.203   4.944
60267W        W25494  29.031  42.731  14.495
60268W        W25495  38.379  10.350   2.340
60269W        W25496   6.182  31.095   0.486
60270W        W25497  17.067  17.633   2.875
60271W        W25498  39.820  19.513   4.076
60272W        W25499  25.992  38.342  12.508
60273W        W25500  13.824  22.541   1.237
60274W        W25501   1.942  28.415  13.975
60275W        W25502   7.238  13.026  13.921
60276W        W25503   8.143  28.931   2.352
60277W        W25504   8.605   0.479   0.738
60278W        W25505  25.037   3.020  11.992
60279W        W25506  38.458  27.598   4.533
60280W        W25507  29.401   1.427   1.809
60281W        W25508  33.116  27.804  10.343
60282W        W25509  29.156   6.216  14.376
60283W        W25510  13.274  35.854  11.725
60284W        W25511  40.747  36.449   3.842
60285W        W25512   7.721  23.764  12.057
60286W        W25513  23.928  33.844  12.458
60287W        W25514  22.655   7.887   3.789
60288W        W25515   1.242  10.220   3.242
60289W        W25516  43.327   8.209   2.666
60290W        W25517   9.649   4.484  12.952
60291W        W25518  28.532  21.405   3.680
60292W        W25519   2.080  10.183  14.553
60293W        W25520   5.713  31.101   2.752
60294W        W25521  17.437  23.952   4.189
60295W        W25522  16.795  12.292  13.055
60296W        W25523   3.211   4.923   5.107
60297W        W25524  28.998   1.214  13.507
60298W        W25525  23.693   4.684   1.334
60299W        W25526  42.898   2.906   0.886
60300W        W25527  35.188  43.629  13.291
60301W        W25528  25.351  31.180   0.906
60302W        W25529  15.225   0.278   4.506
60303W        W25530  23.951  28.137   0.957
60304W        W25531  40.283   9.872  12.917
60305W        W25532  25.443  13.374  13.573
60306W        W25533  41.297  28.057  13.095
60307W        W25534  40.918   0.863   4.358
60308W        W25535  22.268   3.207   0.678
60309W        W25536   5.692   0.636  12.984
60310W        W25537  28.536  13.775  13.958
60311W        W25538  41.693  28.032   3.701
60312W        W25539  13.337  17.365   2.853
60313W        W25540  37.243  27.739   4.443
60314W        W25541  27.521  20.092   3.233
60315W        W25542   5.603  41.928  11.928
60316W        W25543   1.132  31.911  13.349
60317W        W25544  24.436  36.581  11.263
60318W        W25545   0.702  38.790  11.477
60319W        W25546   3.916  21.230   0.074
60320W        W25547  20.494  31.928  10.647
60321W        W25548  14.802   0.831   4.256
60322W        W25549  26.252  20.695  11.549
60323W        W25550  26.851  17.574   3.206
60324W        W25551  38.123  25.646  13.799
60325W        W25552  10.347  36.845   3.147
60326W        W25553  16.638  37.912  11.093
60327W        W25554   0.809  15.118  11.643
60328W        W25555  18.267  26.661  11.081
60329W        W25556  28.463   1.927  12.936
60330W        W25557   6.683  41.917  12.064
60331W        W25558  25.743   2.579  13.961
60332W        W25559  31.064  23.981   0.767
60333W        W25560  26.072  10.092   3.203
60334W        W25561   4.827   7.964   4.970
60335W        W25562  26.189  44.353   2.179
60336W        W25563  29.927  34.740  14.929
60337W        W25564  39.639   3.884  10.025
60338W        W25565   9.765  36.945   4.739
60339W        W25566   3.908   2.268  12.558
60340W        W25567  11.615  42.543  12.201
60341W        W25568  33.429  17.816   0.929
60342W        W25569  12.221  35.375   3.624
60343W        W25570  18.932  11.921   3.268
60344W        W25571   9.820  37.820  13.664
60345W        W25572  23.950  19.076   0.870
60346W        W25573   6.735  31.470   3.937
60347W        W25574  34.668  14.140   0.269
60348W        W25575  23.741   8.091  11.241
60349W        W25576  34.656  38.664  11.944
60350W        W25577  43.691  23.033   3.764
60351W        W25578   2.633  41.396   0.247
60352W        W25579  23.958  40.630  10.836
60353W        W25580  14.792   8.366   4.069
60354W        W25581  32.687   8.252  13.485
60355W        W25582  35.202   2.362  12.939
60356W        W25583  40.747   0.818  12.450
60357W        W25584  41.381  26.988   1.215
60358W        W25585  29.220  19.495   3.803
60359W        W25586  10.307  11.105   1.821
60360W        W25587  36.574  13.141   1.445
60361W        W25588  16.212  40.012   4.721
60362W        W25589  44.776   8.229   1.298
60363W        W25590  20.003   4.902   1.773
60364W        W25591  36.370  11.539   0.508
60365W        W25592   2.456   7.848  13.007
60366W        W25593  22.219   8.325   1.739
60367W        W25594   0.347   9.203  11.669
60368W        W25595  22.993   8.154   0.161
60369W        W25596  28.405  38.339   4.697
60370W        W25597   1.217  29.004  11.295
60371W        W25598  27.198  27.641   1.285
60372W        W25599  22.679  23.202  13.786
60373W        W25600  14.763  20.303   1.438
60374W        W25601   2.965  29.766   9.880
60375W        W25602   2.989  24.660  10.618
60376W        W25603  15.818  27.740  14.416
60377W        W25604  27.710  35.426  13.860
60378W        W25605  42.458   6.489  11.035
60379W        W25606  44.384  33.379  14.205
60380W        W25607   1.425  16.809  11.420
60381W        W25608  40.061   4.667   4.940
60382W        W25609  26.938  17.839  11.465
60383W        W25610  10.165  31.937  13.887
60384W        W25611  28.610   2.410  14.747
60385W        W25612   6.232  29.701   1.391
60386W        W25613  38.331  12.466  11.212
60387W        W25614  36.015  18.813  12.155
60388W        W25615  25.099   0.567   0.686
60389W        W25616  23.719  29.586   2.789
60390W        W25617  37.705  31.877   3.338
60391W        W25618  36.799  26.630   2.316
60392W        W25619  19.100  36.086  13.471
60393W        W25620  20.510  27.470  14.492
60394W        W25621   4.796   3.879  12.476
60395W        W25622  26.513  14.784   1.388
60396W        W25623  12.037  29.025   2.282
60397W        W25624  30.431  30.917  11.230
60398W        W25625  42.800  25.131  14.306
60399W        W25626  44.976  31.670   0.892
60400W        W25627  16.067  35.086  10.838
60401W        W25628  31.812   1.062   4.133
60402W        W25629  27.031  43.414   2.842
60403W        W25630  20.120  42.470  11.736
60404W        W25631   0.068   2.405   2.747
60405W        W25632  22.185  29.916   4.383
60406W        W25633  19.215  44.290  12.773
60407W        W25634  41.669  26.289   1.735
60408W        W25635  37.351  17.292  11.641
60409W        W25636  40.177  13.556   0.981
60410W        W25637   7.778  25.673  11.603
60411W        W25638   3.821  36.002   4.519
60412W        W25639  19.612  33.260   4.194
60413W        W25640  29.166  27.703  13.523
60414W        W25641  30.096   8.099  14.514
60415W        W25642  26.980  36.735   1.864
60416W        W25643  29.580  30.510   0.319
60417W        W25644  25.287  16.218  14.309
60418W        W25645  31.036  33.471   3.772
60419W        W25646  44.128  27.680   9.860
60420W        W25647  28.650  15.085   0.779
60421W        W25648  35.530  44.205  10.742
60422W        W25649  22.874   6.430   0.370
60423W        W25650  17.232   7.745  11.592
60424W        W25651  15.134  15.006  13.463
60425W        W25652   2.516   2.333  13.613
60426W        W25653  20.237  28.781  11.483
60427W        W25654  16.241   0.273   1.391
60428W        W25655   8.840  20.171   3.905
60429W        W25656  35.382   8.893   2.320
60430W        W25657  16.264  25.311   2.898
60431W        W25658  11.609  42.503  13.892
60432W        W25659  21.022   9.671   3.249
60433W        W25660   4.405   5.621  14.863
60434W        W25661  39.668  16.713   3.347
60435W        W25662   8.760  37.892   4.708
60436W        W25663  23.751   5.407  14.649
60437W        W25664  42.952  11.322   4.277
60438W        W25665  30.390  36.119   3.107
60439W        W25666  13.358  33.045   1.720
60440W        W25667  21.307  37.936  14.162
60441W        W25668  10.158  32.749   3.209
60442W        W25669   0.666  18.709  13.394
60443W        W25670  29.067   8.979  10.382
60444W        W25671  16.806   8.223  11.575
60445W        W25672  36.569   3.402  10.726
60446W        W25673  22.734   2.333  14.211
60447W        W25674  27.436  35.598  13.450
60448W        W25675  27.420  43.950  11.055
60449W        W25676  30.523  21.266  14.447
60450W        W25677  16.816  40.843  13.419
60451W        W25678   6.159  44.801   1.456
60452W        W25679   5.761  41.880  13.148
60453W        W25680   3.608  14.164  12.648
60454W        W25681  42.507  27.664   1.175
60455W        W25682  30.788  27.172   3.143
60456W        W25683  15.129  12.688   3.909
60457W        W25684   1.959  44.083   1.719
60458W        W25685  29.557  15.743   4.224
60459W        W25686   6.318  40.866   1.993
60460W        W25687  41.978  38.275  14.069
60461W        W25688   4.958   4.166   3.054
60462W        W25689  30.559  22.133  12.594
60463W        W25690  15.232  20.741   4.049
60464W        W25691  15.241   0.347  13.002
60465W        W25692   5.322  20.801  14.274
60466W        W25693  14.725  41.968  13.591
60467W        W25694  20.160  44.974   4.919
60468W        W25695  39.405  24.582   3.232
60469W        W25696  21.247   4.817   4.667
60470W        W25697  44.981   5.645   0.841
60471W        W25698  22.554   4.871  14.924
60472W        W25699  20.123  41.040   0.872
60473W        W25700   9.611  31.151  12.216
60474W        W25701  15.315   3.418   1.453
60475W        W25702   6.184  26.086  11.947
60476W        W25703  28.090  35.638  12.576
60477W        W25704   0.414  22.160   3.339
60478W        W25705   3.511  21.066  11.936
60479W        W25706  21.344  23.571   3.382
60480W        W25707   8.974  31.874   4.242
60481W        W25708  43.658  14.093  13.456
60482W        W25709  29.917  25.137  13.695
60483W        W25710  22.237  18.102  12.469
60484W        W25711  11.381  29.105  10.482
60485W        W25712  11.121  36.882  10.679
60486W        W25713  24.168   8.363   3.108
60487W        W25714   6.690   4.222   3.915
60488W        W25715  35.711  16.497   1.416
60489W        W25716  40.382  27.003   2.757
60490W        W25717  18.576  16.193  12.402
60491W        W25718  19.979   1.702  11.151
60492W        W25719   1.930  10.756  13.834
60493W        W25720  22.203   4.248   2.386
60494W        W25721  38.367   0.997  11.130
60495W        W25722  19.552  16.428  12.310
60496W        W25723  22.225  13.854  14.463
60497W        W25724   4.043  41.991   5.625
60498W        W25725  25.452  29.987  14.933
60499W        W25726  26.737   2.458  14.275
60500W        W25727  25.681   7.711  12.952
60501W        W25728   9.120  43.812   0.450
60502W        W25729  29.447  14.243   4.579
60503W        W25730   0.334  36.107   2.428
60504W        W25731  36.157  22.572   2.331
60505W        W25732  22.577  35.049   0.862
60506W        W25733  41.460  18.619   3.519
60507W        W25734  24.147  23.166   0.923
60508W        W25735  19.465  20.949   0.786
60509W        W25736  38.823  26.948  10.976
60510W        W25737  38.401  29.038  11.517
60511W        W25738  19.053  32.524  12.016
60512W        W25739  33.946   6.905   1.181
60513W        W25740   0.962  22.848   4.651
60514W        W25741   6.696   5.732  13.485
60515W        W25742  28.537  21.009   4.121
60516W        W25743  25.156   6.956   3.184
60517W        W25744   9.315   6.177  12.141
60518W        W25745  27.673  23.779  13.038
60519W        W25746  20.679   5.860   4.716
60520W        W25747   7.747  27.142  13.996
60521W        W25748  34.074  24.736  12.928
60522W        W25749  13.762   1.473   3.612
60523W        W25750  18.816   7.817   1.253
60524W        W25751   2.343  10.989  11.560
60525W        W25752  26.518  42.100   2.829
60526W        W25753  10.200  40.210  11.369
60527W        W25754  21.701  18.571   0.930
60528W        W25755  29.004  29.999   0.850
60529W        W25756  20.613  18.159   0.881
60530W        W25757  42.531  23.103   1.139
60531W        W25758   3.979   1.859  12.948
60532W        W25759  38.292  20.497   2.275
60533W        W25760  34.701  14.256   9.898
60534W        W25761   7.435  43.824   2.840
60535W        W25762  14.660  21.582   3.126
60536W        W25763  25.435  39.664  12.147
60537W        W25764  26.181   4.872  14.055
60538W        W25765  18.624   8.593   3.265
60539W        W25766  30.436  42.388   0.186
60540W        W25767   8.550  26.925   3.205
60541W        W25768   0.264  25.978   0.739
60542W        W25769   1.960  31.122   0.373
60543W        W25770  37.861  21.048   1.814
60544W        W25771  20.152  13.545   2.231
60545W        W25772  30.674  26.020  13.043
60546W        W25773  21.564  29.373   1.915
60547W        W25774   9.124  26.215  14.388
60548W        W25775  10.641  20.859   4.204
60549W        W25776  15.638  14.810  13.425
60550W        W25777   6.599  42.528  14.002
60551W        W25778  41.461  24.015  14.513
60552W        W25779  21.996   5.726  12.963
60553W        W25780  12.132  12.518  11.033
60554W        W25781  32.878  12.319  13.048
60555W        W25782   3.505  10.057   1.397
60556W        W25783  44.938  25.411   2.374
60557W        W25784  27.093  19.382   1.511
60558W        W25785  22.401  17.312  11.038
60559W        W25786  39.536  31.054  14.830
60560W        W25787  20.906  27.458   2.622
60561W        W25788  44.319   3.091  11.089
60562W        W25789   6.280  37.000   0.683
60563W        W25790  42.127  11.987  13.780
60564W        W25791   6.620  11.153   4.706
60565W        W25792  20.729   4.454  14.980
60566W        W25793  11.093  42.892  10.625
60567W        W25794   4.156  15.112   3.280
60568W        W25795  11.753  22.483   4.617
60569W        W25796   4.779  15.803   3.503
60570W        W25797  38.639  11.547  14.921
60571W        W25798  27.382  16.442  11.982
60572W        W25799  20.162  35.282   0.081
60573W        W25800  17.578  32.593   2.788
60574W        W25801  10.720  42.487   3.043
60575W        W25802  15.202  36.054  10.464
60576W        W25803  33.629  35.931  13.897
60577W        W25804  18.181  21.741  11.130
60578W        W25805  12.354   0.357  11.593
60579W        W25806  26.292  41.225   9.841
60580W        W25807  15.573  17.638  13.163
60581W        W25808  15.570  20.697   4.832
60582W        W25809  29.652  13.571   0.902
60583W        W25810  30.518  40.059   0.523
60584W        W25811  29.506  41.694  11.187
60585W        W25812  21.063  43.982   1.183
60586W        W25813  22.197  13.109  11.652
60587W        W25814  30.017  36.852  14.110
60588W        W25815  14.905   9.105   3.441
60589W        W25816  18.880  20.277   2.880
60590W        W25817  14.647   1.015  12.588
60591W        W25818   1.459  40.565   4.235
60592W        W25819  27.195  13.890   3.689
60593W        W25820  42.503  28.024  11.658
60594W        W25821   3.139  34.509   2.613
60595W        W25822  33.999  11.315  10.600
60596W        W25823  27.031   0.964   2.240
60597W        W25824  20.557  42.214   2.214
60598W        W25825   3.199  44.363  14.563
60599W        W25826  30.081  24.556  13.990
60600W        W25827  30.407   1.594  11.938
60601W        W25828  16.462  36.116  13.313
60602W        W25829  34.546   7.829  10.770
60603W        W25830   6.904  30.193  11.580
60604W        W25831  25.245  14.779   3.757
60605W        W25832  24.584  22.214  13.912
60606W        W25833  20.348  15.777   3.321
60607W        W25834  34.417  23.812  13.144
60608W        W25835  32.124   5.866  10.685
60609W        W25836  29.580  18.500   4.945
60610W        W25837   8.544  32.222  14.377
60611W        W25838  41.687  19.334  12.285
60612W        W25839  10.796  31.215   1.078
60613W        W25840  37.325  26.587  11.086
60614W        W25841  31.168  42.217   4.130
60615W        W25842  20.176  20.290  13.765
60616W        W25843   9.320  36.748   0.314
60617W        W25844  10.641  12.464   2.220
60618W        W25845  34.577   3.947   0.398
60619W        W25846   3.367   8.190   2.818
60620W        W25847   7.732   3.717  14.038
60621W        W25848  30.440  20.598   1.568
60622W        W25849   0.930  35.442   1.794
60623W        W25850  12.691  44.128   0.874
60624W        W25851   3.623   7.568   0.332
60625W        W25852   9.819   3.475   0.385
60626W        W25853   5.711   0.445   0.833
60627W        W25854  10.853  26.226   2.747
60628W        W25855   2.947  44.930  13.892
60629W        W25856   3.900  17.717  12.625
60630W        W25857  16.714  33.450   1.250
60631W        W25858  11.581  17.657  11.654
60632W        W25859  29.938  31.577   0.849
60633W        W25860  28.604  25.569  14.017
60634W        W25861  26.554  27.716   0.541
60635W        W25862  10.442  25.258  13.668
60636W        W25863  10.203   4.745   4.234
60637W        W25864  14.573   2.559  14.072
60638W        W25865  12.735   2.976  13.472
60639W        W25866  22.146  39.398   0.393
60640W        W25867  33.623  30.368  13.614
60641W        W25868   0.752  36.830   2.624
60642W        W25869  14.603  43.376   0.303
60643W        W25870  42.783  28.160  11.246
60644W        W25871  25.273  16.635   2.287
60645W        W25872   3.961  10.168  11.347
60646W        W25873   5.337  42.799   3.668
60647W        W25874  19.778   2.692  11.210
60648W        W25875   7.397  29.478   4.759
60649W        W25876  29.250  33.979   3.209
60650W        W25877  19.286  14.700   0.472
60651W        W25878  44.139   6.812   1.715
60652W        W25879  20.677  44.973   4.985
60653W        W25880  15.677  12.253  12.114
60654W        W25881   1.257  11.699  10.946
60655W        W25882  41.881  34.895   4.470
60656W        W25883   5.941  41.045  12.066
60657W        W25884  30.672  39.879  14.633
60658W        W25885  10.757  39.052   0.737
60659W        W25886  26.734   9.304   1.269
60660W        W25887  36.567  17.080   0.979
60661W        W25888   1.457   6.212   1.862
60662W        W25889  35.597  19.336  13.516
60663W        W25890   4.821   9.106  10.837
60664W        W25891  28.320  43.285   3.701
60665W        W25892   7.726  36.590  11.985
60666W        W25893   0.246  37.444  12.615
60667W        W25894  24.632  23.961  14.455
60668W        W25895  38.783  20.676   2.708
60669W        W25896  41.983  35.416   1.831
60670W        W25897   1.460  15.293  13.103
60671W        W25898   2.783  30.481  10.181
60672W        W25899  17.362   6.015  12.967
60673W        W25900  15.185  43.353   0.223
60674W        W25901  44.962   9.839   3.105
60675W        W25902  38.515   3.027   2.141
60676W        W25903  14.321   8.434  10.764
60677W        W25904  21.786  10.899   0.470
60678W        W25905  15.659  24.804  10.667
60679W        W25906  37.375  29.712   3.171
60680W        W25907  34.997  23.182   2.010
60681W        W25908  26.435  41.109   1.853
60682W        W25909  28.723  14.439   1.996
60683W        W25910  34.094   1.055  14.988
60684W        W25911  33.330  10.152   5.400
60685W        W25912   5.914  11.468   2.370
60686W        W25913  19.187  31.986  13.080
60687W        W25914  41.603  11.848  12.135
60688W        W25915  34.595  41.861  12.125
60689W        W25916  10.903  22.620   0.770
60690W        W25917  25.191  37.582   4.683
60691W        W25918   4.652  17.668  11.169
60692W        W25919   5.161  29.921  14.691
60693W        W25920  16.257  21.702  11.154
60694W        W25921   5.932  16.517  13.884
60695W        W25922  36.333  26.308  14.269
60696W        W25923   6.265  42.354   4.554
60697W        W25924  19.326  32.005   3.843
60698W        W25925  29.660   6.750   3.177
60699W        W25926  24.089   4.062   0.248
60700W        W25927   6.305  31.012  14.481
60701W        W25928  19.170   3.143  13.666
60702W        W25929  30.939  29.680  12.129
60703W        W25930  33.152  35.601   1.177
60704W        W25931   2.526  25.000  12.491
60705W        W25932  32.572  27.869  11.612
60706W        W25933   1.020  41.985  13.658
60707W        W25934  44.090  16.671  11.614
60708W        W25935  28.704  12.162   4.223
60709W        W25936  12.857   3.733   3.794
60710W        W25937   5.716  32.394   3.902
60711W        W25938   4.358  25.135   0.398
60712W        W25939   4.988  41.122  14.285
60713W        W25940   0.384  43.987   0.931
60714W        W25941  22.094  16.599  13.159
60715W        W25942  43.894  35.394  11.823
60716W        W25943  16.788  41.342   2.214
60717W        W25944  27.811  21.763  12.886
60718W        W25945  35.549  41.963   3.921
60719W        W25946   8.157  32.020  11.662
60720W        W25947  11.355  14.072  10.441
60721W        W25948  18.702   6.714  13.858
60722W        W25949  41.811  33.073  11.928
60723W        W25950   2.677  28.163   3.097
60724W        W25951   5.161   3.895   4.692
60725W        W25952  15.794  21.812   1.402
60726W        W25953  42.772  18.135   0.334
60727W        W25954  44.363   0.541   1.660
60728W        W25955  14.045  15.127   1.693
60729W        W25956   9.632  10.861   1.313
60730W        W25957  38.174  16.218  14.971
60731W        W25958  39.292  28.572   0.581
60732W        W25959  32.455  32.490  12.102
60733W        W25960  22.815  25.977   2.739
60734W        W25961  42.038  26.421   3.137
60735W        W25962  14.233  11.235  11.881
60736W        W25963  42.768  33.827   4.612
60737W        W25964   6.174   7.414   3.218
60738W        W25965  38.952  18.029   3.109
60739W        W25966   1.930  33.938   2.749
60740W        W25967  38.514  15.664  13.321
60741W        W25968   6.494  12.183  14.844
60742W        W25969   7.851  15.001  12.533
60743W        W25970  15.686  13.849  13.809
60744W        W25971  27.931  19.740  13.894
60745W        W25972  16.162  44.330   2.276
60746W        W25973  26.532  25.533   4.930
60747W        W25974  39.543  29.677  13.897
60748W        W25975   7.871  36.344  12.414
60749W        W25976   9.595  39.295   0.381
60750W        W25977   2.969  25.060   0.908
60751W        W25978  12.313  10.395   1.337
60752W        W25979   4.980   2.728   2.635
60753W        W25980  24.925  31.684   3.799
60754W        W25981  41.467  35.023   4.956
60755W        W25982  33.838  33.524   0.995
60756W        W25983   0.563  35.047   0.094
60757W        W25984  34.911   2.457   2.877
60758W        W25985   0.830  28.910  14.810
60759W        W25986  21.092  12.511   2.423
60760W        W25987   4.877   2.971   4.188
60761W        W25988  28.956  23.099  12.402
60762W        W25989  34.247  37.396   0.779
60763W        W25990  19.785  19.993  10.860
60764W        W25991  23.593  24.948   1.843
60765W        W25992  41.456  10.559   3.753
60766W        W25993  15.722  34.039   5.058
60767W        W25994  26.167  32.291   2.671
60768W        W25995  34.304  12.669  11.607
60769W        W25996  15.634   5.125  10.256
60770W        W25997  19.050  20.720  10.511
60771W        W25998   4.351  27.718  12.549
60772W        W25999  20.300  18.141  13.714
60773W        W26000  43.380  42.505   2.406
60774W        W26001  20.580   4.468  11.170
60775W        W26002  43.024   4.852   3.314
60776W        W26003  14.796  16.542   0.931
60777W        W26004   1.738  32.391  10.649
60778W        W26005  32.906  12.832   2.018
60779W        W26006  16.808  31.576  12.468
60780W        W26007  41.353  29.706   2.787
60781W        W26008   8.621  44.861  13.494
60782W        W26009  25.623  11.777  14.783
60783W        W26010  38.967   9.456  12.960
60784W        W26011  17.735  43.343  13.568
60785W        W26012  31.499  31.124  10.210
60786W        W26013  43.225   9.191  13.908
60787W        W26014   6.421   1.220  11.161
60788W        W26015  24.174  36.875  13.451
60789W        W26016  27.516  30.646  10.870
60790W        W26017  11.831   9.755   0.061
60791W        W26018   2.441  35.846   3.496
60792W        W26019  31.956  37.409  12.542
60793W        W26020   3.441  37.536  11.400
60794W        W26021  37.960   8.423  14.055
60795W        W26022  39.312  43.927  14.495
60796W        W26023   1.767  14.884  10.601
60797W        W26024  19.084  22.078   0.386
60798W        W26025  23.448  41.954   4.776
60799W        W26026  22.322  26.471   5.028
60800W        W26027  43.884  15.981   4.625
60801W        W26028   0.535  10.843  11.627
60802W        W26029  12.247  29.841   1.682
60803W        W26030  32.078  34.081   0.340
60804W        W26031  41.596  31.135   0.509
60805W        W26032  41.041  42.990  12.974
60806W        W26033  43.510   3.849  11.168
60807W        W26034  44.986  39.071  13.069
60808W        W26035  22.777  13.479   4.556
60809W        W26036  17.581  34.012  10.693
60810W        W26037  38.990  42.370  12.097
60811W        W26038  24.090  43.469  11.073
60812W        W26039   4.665   1.899   0.387
60813W        W26040  25.837  35.712   4.470
60814W        W26041  11.064  11.671  11.862
60815W        W26042  31.124  12.925   3.208
60816W        W26043   2.735   0.982   4.256
60817W        W26044  11.951  40.634  13.885
60818W        W26045   1.173   0.124   4.494
60819W        W26046   0.526  33.459  12.514
60820W        W26047   7.366  30.078   0.403
60821W        W26048  44.873  38.823  10.833
60822W        W26049  22.854   3.544   3.305
60823W        W26050  41.376  23.071  12.605
60824W        W26051   4.377  39.782  10.671
60825W        W26052   6.868  27.430  12.088
60826W        W26053  26.993  28.524  14.396
60827W        W26054  44.459  32.608  14.818
60828W        W26055  18.382  20.906   3.210
60829W        W26056   9.903  27.993   1.140
60830W        W26057  35.128  37.388   0.363
60831W        W26058   0.245   1.915   1.948
60832W        W26059  33.978  29.010  10.985
60833W        W26060   1.622  40.728  12.106
60834W        W26061  10.271  19.659   2.822
60835W        W26062  28.129   9.131  12.535
60836W        W26063  22.470  24.495   2.739
60837W        W26064  26.126   4.161  14.425
60838W        W26065  26.879  43.915  12.859
60839W        W26066  43.465  16.556  10.713
60840W        W26067  17.321  41.089  14.447
60841W        W26068  19.416  40.481  14.536
60842W        W26069  44.913  17.830   4.595
60843W        W26070  25.831   1.365  12.696
60844W        W26071   9.242  19.741   3.176
60845W        W26072  39.420  18.041   4.573
60846W        W26073  23.905  41.353  14.826
60847W        W26074  33.358  37.950  13.482
60848W        W26075  19.913  28.673  12.871
60849W        W26076  43.830  44.222   4.566
60850W        W26077  15.411  34.304   9.817
60851W        W26078  44.806  39.435  12.699
60852W        W26079  20.518  33.057   0.440
60853W        W26080  25.393  25.562   4.153
60854W        W26081  15.195  13.799   0.520
60855W        W26082  10.737  30.912  11.443
60856W        W26083  42.991   0.762   0.788
60857W        W26084  16.231  27.734   1.827
60858W        W26085  26.266  25.391  14.816
60859W        W26086   8.666   4.739   2.838
60860W        W26087  30.913  16.246   3.276
60861W        W26088  14.501   4.213   3.158
60862W        W26089   0.782   8.123  13.550
60863W        W26090   9.285   2.317   2.218
60864W        W26091  19.546  34.229  14.590
60865W        W26092  31.951   5.678   0.327
60866W        W26093  25.618  15.383  14.842
60867W        W26094  10.393  44.799  13.182
60868W        W26095  11.233  18.470   3.220
60869W        W26096   5.428  28.469   3.013
60870W        W26097  38.158  12.852   3.972
60871W        W26098  39.836  29.000   2.329
60872W        W26099  42.929  40.897  11.629
60873W        W26100  39.066  38.989   3.139
60874W        W26101  39.242  22.616  13.492
60875W        W26102   4.329  40.401  11.035
60876W        W26103  32.927  40.939   1.912
60877W        W26104  31.578  22.980   4.127
60878W        W26105  23.945  25.681  11.870
60879W        W26106  19.711  34.058  13.581
60880W        W26107  19.039   8.780  12.899
60881W        W26108   4.295  24.025  13.459
60882W        W26109   4.779  10.669   1.837
60883W        W26110  11.751   5.916   0.523
60884W        W26111  24.233   4.648   3.689
60885W        W26112  15.140  13.378   1.227
60886W        W26113  19.823  29.991  10.522
60887W        W26114  42.972  34.579  14.658
60888W        W26115  32.758   1.084   2.203
60889W        W26116  35.376  43.329   0.919
60890W        W26117  19.384   7.364  10.634
60891W        W26118   0.849  40.364   5.089
60892W        W26119   3.430   8.966  13.974
60893W        W26120   5.841  29.329  14.685
60894W        W26121  23.092  21.007  14.988
60895W        W26122   6.482  22.572  13.797
60896W        W26123  18.666  40.452   2.682
60897W        W26124   2.757   7.795   3.381
60898W        W26125   1.533  24.175  11.197
60899W        W26126  30.165  15.767   1.301
60900W        W26127   4.759  19.839  14.799
60901W        W26128   6.489  43.948  13.832
60902W        W26129  39.897  42.941  11.643
60903W        W26130  29.083   6.070   3.201
60904W        W26131  36.524  31.166  12.645
60905W        W26132  36.619  39.187  12.226
60906W        W26133   9.099  30.112  13.032
60907W        W26134  10.039  13.885   0.274
60908W        W26135   9.013  15.515   2.779
60909W        W26136  14.054  15.198   3.089
60910W        W26137  11.771  35.389  13.396
60911W        W26138  40.760  33.447  13.481
60912W        W26139  32.383   1.238  12.572
60913W        W26140  24.710  13.723  14.524
60914W        W26141  18.217  29.401  12.325
60915W        W26142   8.373  24.221  10.714
60916W        W26143  44.946  25.734   4.686
60917W        W26144  13.090  43.533  10.407
60918W        W26145  21.219  25.742  12.882
60919W        W26146  15.753  22.531  14.804
60920W        W26147  24.610   3.216  13.527
60921W        W26148  22.055  15.304  11.998
60922W        W26149  12.978  28.529  13.940
60923W        W26150  17.232  11.420   1.229
60924W        W26151  22.547   3.705   2.894
60925W        W26152   6.707  39.149   3.618
60926W        W26153  23.008  41.037  11.065
60927W        W26154  20.570  26.730   3.628
60928W        W26155  18.428   2.096   4.069
60929W        W26156  26.665  23.772  12.889
60930W        W26157  12.230   6.731  12.121
60931W        W26158   4.427  18.549  13.210
60932W        W26159  29.744  42.450   1.891
60933W        W26160  29.473  17.217  14.803
60934W        W26161  40.917  44.351  13.050
60935W        W26162  26.282  28.072  13.331
60936W        W26163   4.018  13.031   3.254
60937W        W26164  15.718  43.496   1.890
60938W        W26165  27.422   9.679   0.404
60939W        W26166  22.119  10.716   1.215
60940W        W26167  12.865  11.912  13.672
60941W        W26168  28.450  38.107   9.675
60942W        W26169  34.939  22.708   5.288
60943W        W26170  12.332  17.215  12.005
60944W        W26171  16.594  16.560   2.671
60945W        W26172   5.834  11.857   3.426
60946W        W26173  33.394   3.460   3.779
60947W        W26174  41.890  12.888  11.572
60948W        W26175  18.557   3.990   4.160
60949W        W26176  29.027  16.100   0.573
60950W        W26177  11.858   5.836  13.850
60951W        W26178   1.445  12.109   1.667
60952W        W26179  37.474  23.975   3.728
60953W        W26180  29.116  21.066   3.186
60954W        W26181  23.072  25.094   3.801
60955W        W26182  24.078  28.951   2.946
60956W        W26183  23.050  32.360   3.336
60957W        W26184  13.157   1.598  11.565
60958W        W26185  39.484  38.084   1.843
60959W        W26186  30.119  19.543  12.192
60960W        W26187   2.877  12.717  12.484
60961W        W26188  43.121   0.942   1.436
60962W        W26189  15.387  36.892  13.500
60963W        W26190  10.228   9.346   2.690
60964W        W26191   7.439  42.243  14.706
60965W        W26192  36.102   2.669  13.977
60966W        W26193  32.270  22.077  14.401
60967W        W26194  21.257  38.359  12.832
60968W        W26195  22.574  11.386   3.837
60969W        W26196  38.355  33.580   2.728
60970W        W26197  26.405  32.398   3.919
60971W        W26198  28.535  23.912   2.944
60972W        W26199  27.317  31.989   4.083
60973W        W26200  33.065  34.099  14.083
60974W        W26201  27.457  13.256   5.062
60975W        W26202   9.820  22.122   2.415
60976W        W26203  17.372  34.093  14.748
60977W        W26204  30.909  37.876   1.467
60978W        W26205  35.832  42.271  13.394
60979W        W26206   8.179  25.658   3.743
60980W        W26207  39.548  15.612  12.989
60981W        W26208  44.240  44.297   0.349
60982W        W26209  38.473  34.949  14.989
60983W        W26210  30.538   7.538  12.083
60984W        W26211  24.685  23.478  11.653
60985W        W26212  27.742   0.909   2.077
60986W        W26213  16.078  19.567  14.109
60987W        W26214  15.483  10.635   4.209
60988W        W26215   7.760  26.120   4.557
60989W        W26216  31.090  44.552   3.171
60990W        W26217  29.436   9.070  12.615
60991W        W26218  44.456  39.875   4.273
60992W        W26219  10.366   2.261  12.038
60993W        W26220  39.611  30.200   2.146
60994W        W26221  32.711   1.496   3.805
60995W        W26222  13.681  41.258  13.948
60996W        W26223  25.090  14.942   4.758
60997W        W26224   1.121   8.982  11.117
60998W        W26225  23.659  18.580  10.608
60999W        W26226  44.459  43.263   1.847
61000W        W26227   2.931   7.128   0.978
61001W        W26228  15.749  35.311   3.501
61002W        W26229  14.825  22.659  12.831
61003W        W26230   2.864  12.273  13.217
61004W        W26231  41.904  13.729   0.497
61005W        W26232  25.984  36.530   3.833
61006W        W26233  12.222   0.069  10.680
61007W        W26234  35.679  17.934   2.844
61008W        W26235  19.081  31.709   2.081
61009W        W26236  39.824  12.607  12.873
61010W        W26237  30.935   3.468  14.890
61011W        W26238  16.258  31.944  11.098
61012W        W26239  32.895  38.037  12.023
61013W        W26240  35.075  32.978   0.731
61014W        W26241   9.089  19.755  14.792
61015W        W26242  41.736   5.340   4.118
61016W        W26243   4.101  42.141  14.753
61017W        W26244  43.989  12.844  12.969
61018W        W26245  34.787  25.993   0.292
61019W        W26246   3.263  14.765  11.317
61020W        W26247  10.725   5.162  13.843
61021W        W26248  29.876  31.518  13.143
61022W        W26249  33.482   7.275  10.731
61023W        W26250   6.997   4.063  14.493
61024W        W26251   9.780  12.414  10.580
61025W        W26252  22.167  28.649   0.495
61026W        W26253   2.233  12.017   3.236
61027W        W26254  29.852  20.577   3.066
61028W        W26255  24.429   9.792   3.716
61029W        W26256  15.227   7.340   0.410
61030W        W26257  15.832  15.553   0.376
61031W        W26258  12.190  31.336  12.475
61032W        W26259   3.445  31.128  11.038
61033W        W26260  11.271  20.206   2.695
61034W        W26261  40.977   6.317   3.152
61035W        W26262  24.622  39.321   4.360
61036W        W26263  30.443  30.893   2.110
61037W        W26264  14.731  17.556   1.313
61038W        W26265  21.562  21.737   0.022
61039W        W26266  36.026   3.876  14.421
61040W        W26267  29.498  11.887   1.625
61041W        W26268  22.965   9.651   2.913
61042W        W26269  23.989  28.492   1.388
61043W        W26270  14.546   0.597   4.644
61044W        W26271   0.939  37.881   2.263
61045W        W26272   4.823   6.443  11.722
61046W        W26273  31.198  34.824  10.145
61047W        W26274  39.486  12.838  11.532
61048W        W26275   3.855  34.901   2.642
61049W        W26276  12.596  14.322  13.298
61050W        W26277  35.909  25.337  13.931
61051W        W26278  18.542  33.082   2.978
61052W        W26279  22.991  36.764   4.677
61053W        W26280  14.214   8.846   4.574
61054W        W26281   2.687  19.468  10.100
61055W        W26282  35.569  28.225   0.373
61056W        W26283  23.808   1.088   3.607
61057W        W26284  43.833  12.225  10.551
61058W        W26285  31.080  18.384   5.106
61059W        W26286   8.770  13.681  10.434
61060W        W26287  44.362  24.595  14.927
61061W        W26288  14.741  10.258  13.630
61062W        W26289  17.334   2.189   4.920
61063W        W26290  30.078   6.246  12.057
61064W        W26291  32.382  35.080   3.753
61065W        W26292  27.307   5.780  14.080
61066W        W26293  12.201  41.841  12.405
61067W        W26294  10.857  21.800  10.589
61068W        W26295  23.008  30.888  10.645
61069W        W26296   2.672   5.869  12.431
61070W        W26297  25.422  21.590  14.951
61071W        W26298  34.653   2.950   1.920
61072W        W26299  11.701   5.320  12.039
61073W        W26300  19.596  16.593   3.750
61074W        W26301  24.702   7.599  12.944
61075W        W26302   9.188   5.706   4.578
61076W        W26303   2.805   2.920   2.674
61077W        W26304  18.193  39.873   3.738
61078W        W26305   5.874  21.173   0.507
61079W        W26306  25.542  40.096  14.581
61080W        W26307  43.865   8.360  12.587
61081W        W26308   9.464  17.172  13.447
61082W        W26309  36.032   9.848  14.858
61083W        W26310  12.221  29.994  14.116
61084W        W26311  23.791   6.710   1.651
61085W        W26312  28.499  38.874   4.044
61086W        W26313   0.853  37.203   1.698
61087W        W26314  33.424  10.334  13.360
61088W        W26315  14.202   8.669  14.541
61089W        W26316   5.863   9.139  14.906
61090W        W26317   7.525   8.223  10.876
61091W        W26318  13.606   0.719   0.739
61092W        W26319   2.075  30.049  11.958
61093W        W26320  10.167  41.821  14.469
61094W        W26321   4.854  15.888  13.422
61095W        W26322  15.202  22.808  11.015
61096W        W26323  25.001  22.507   0.429
61097W        W26324  17.087  21.470  13.842
61098W        W26325  13.002   2.277   4.262
61099W        W26326  10.385  15.812   0.355
61100W        W26327   2.853   0.278   3.737
61101W        W26328  42.425   0.882  14.886
61102W        W26329  28.294  22.215  14.705
61103W        W26330  21.543  20.589  14.298
61104W        W26331  38.455  11.176  14.013
61105W        W26332  13.434  32.167   5.363
61106W        W26333  29.706  25.510  11.600
61107W        W26334   0.819  11.888   2.770
61108W        W26335  40.444  42.010   0.986
61109W        W26336  22.040  38.889  14.007
61110W        W26337  26.848  32.953  14.117
61111W        W26338   5.281   4.663  13.276
61112W        W26339  24.281   0.486  12.445
61113W        W26340  10.153  23.838  11.170
61114W        W26341  44.425  41.453  12.063
61115W        W26342  40.237  39.321   0.257
61116W        W26343  36.126  33.378   4.556
61117W        W26344   1.011  12.671   0.893
61118W        W26345   4.658  18.610  14.928
61119W        W26346  27.447  10.258   3.281
61120W        W26347  41.007  17.288  10.710
61121W        W26348   8.296  28.020   0.383
61122W        W26349  25.449  36.304  11.609
61123W        W26350  40.488  26.665  13.505
61124W        W26351  26.300  24.671  13.885
61125W        W26352  31.502  33.160  11.659
61126W        W26353   9.611   3.186   1.736
61127W        W26354   3.205  38.375   3.317
61128W        W26355  41.520  27.958   0.313
61129W        W26356  15.914  29.114  13.577
61130W        W26357  33.172  18.280   0.945
61131W        W26358  25.649  38.521   1.350
61132W        W26359  13.107  21.669   3.244
61133W        W26360  29.449  21.720   1.834
61134W        W26361  29.041  31.080  11.294
61135W        W26362  43.835  14.184   4.612
61136W        W26363   5.289  17.608  13.262
61137W        W26364  12.342  12.337   4.997
61138W        W26365  31.443  32.426   3.317
61139W        W26366  30.116  30.405  13.365
61140W        W26367   4.786   2.763   1.589
61141W        W26368  16.871  23.244   0.875
61142W        W26369  17.770  20.973  12.087
61143W        W26370  32.487   5.786  14.763
61144W        W26371  42.525  32.398   3.657
61145W        W26372  44.406  14.280  14.771
61146W        W26373  10.921   3.372  12.015
61147W        W26374  39.774   5.167  11.176
61148W        W26375   7.715   4.724   0.815
61149W        W26376   0.445  10.780   3.591
61150W        W26377  42.905  35.016  12.339
61151W        W26378  28.484  35.772  12.256
61152W        W26379  39.017  36.002  14.330
61153W        W26380  22.528  10.757  13.961
61154W        W26381   6.653  38.509  14.814
61155W        W26382   4.837   5.189  12.121
61156W        W26383  41.452  25.279  12.473
61157W        W26384   3.986  18.321   1.227
61158W        W26385  24.146   3.911  13.043
61159W        W26386  15.295  16.931   2.766
61160W        W26387   2.507  41.846   3.100
61161W        W26388   8.687  26.025   2.854
61162W        W26389  42.593   5.356   1.245
61163W        W26390  19.107  12.431   3.253
61164W        W26391  42.752  32.053   1.346
61165W        W26392   9.268  39.291   2.576
61166W        W26393  24.637  36.380   4.598
61167W        W26394  34.536  42.360  12.917
61168W        W26395  28.981  10.259  12.444
61169W        W26396  41.786  38.621  11.291
61170W        W26397  10.307  43.074   3.565
61171W        W26398  28.017  35.605   3.192
61172W        W26399  36.875   8.212  13.429
61173W        W26400   2.343  33.088  14.993
61174W        W26401   2.562  43.236  11.201
61175W        W26402  16.551   4.268   4.050
61176W        W26403  44.077   0.869   1.907
61177W        W26404   3.180  44.673   4.104
61178W        W26405  24.885  23.853  11.164
61179W        W26406  25.718  32.999   0.311
61180W        W26407  20.601   9.261  11.850
61181W        W26408  20.283  27.767  13.203
61182W        W26409   5.214  25.162  10.758
61183W        W26410  38.911  21.053  11.100
61184W        W26411  27.585  18.530   0.589
61185W        W26412  25.090  28.836   3.214
61186W        W26413  11.049  22.284  10.836
61187W        W26414  18.429  42.867  12.142
61188W        W26415  17.225  44.514   0.880
61189W        W26416  18.072   7.247  13.600
61190W        W26417  38.634   9.653   2.841
61191W        W26418  12.207   5.177  11.239
61192W        W26419  44.072   8.920   1.167
61193W        W26420   3.184  26.615  14.922
61194W        W26421   8.781  20.565  11.639
61195W        W26422   5.169   4.463   2.271
61196W        W26423  30.815  15.695   4.879
61197W        W26424  42.082  31.305   0.293
61198W        W26425  34.656  35.861   4.409
61199W        W26426  22.017   7.389   4.482
61200W        W26427  26.841  43.711   2.176
61201W        W26428  21.121  26.152  12.108
61202W        W26429  24.487  30.896   1.345
61203W        W26430  40.265   9.312  13.449
61204W        W26431   5.603  13.511  11.189
61205W        W26432  12.666  27.612  11.570
61206W        W26433  30.187   4.679   0.752
61207W        W26434  30.495   2.769  10.945
61208W        W26435  21.359  23.891  11.896
61209W        W26436  36.723  24.445  12.024
61210W        W26437  43.419   4.842  11.153
61211W        W26438  36.515  25.030  12.609
61212W        W26439  38.891  25.061   4.467
61213W        W26440  10.822  29.640   2.160
61214W        W26441   6.300   0.067   5.194
61215W        W26442   2.953  20.098  13.819
61216W        W26443   0.229  40.268   3.203
61217W        W26444  40.325  41.325   3.265
61218W        W26445  43.046  36.808  12.542
61219W        W26446   5.562  23.010  11.643
61220W        W26447   7.980  43.778  10.717
61221W        W26448  32.494  33.848   3.365
61222W        W26449  32.689  33.001  12.923
61223W        W26450  14.672   6.663   0.467
61224W        W26451   0.726  33.254   4.128
61225W        W26452  23.549   0.933   0.939
61226W        W26453   3.848  27.870  12.479
61227W        W26454   3.916   9.153  13.936
61228W        W26455  28.173  22.715  13.864
61229W        W26456  35.080  13.724   2.782
61230W        W26457  13.814  31.945  13.380
61231W        W26458  15.529  44.980  13.885
61232W        W26459   2.298   5.864   0.602
61233W        W26460  16.027   0.228  11.242
61234W        W26461  11.179   4.047  12.892
61235W        W26462  20.137   0.964   4.152
61236W        W26463  44.479   1.811   3.332
61237W        W26464   7.387  44.656  13.272
61238W        W26465  13.042  35.987   0.493
61239W        W26466  20.624  29.779   3.665
61240W        W26467  19.744  22.045  10.526
61241W        W26468  12.206  42.063   4.282
61242W        W26469   3.829  21.108   2.376
61243W        W26470  23.332  16.833   0.171
61244W        W26471  43.265  39.063   2.100
61245W        W26472  24.546  26.045   0.758
61246W        W26473  36.672  44.752  12.478
61247W        W26474  37.628  18.616  11.256
61248W        W26475  44.286  30.001  13.306
61249W        W26476  42.774   9.572  13.434
61250W        W26477   8.684  31.511   3.963
61251W        W26478  31.998  16.325   4.661
61252W        W26479  24.644  28.723   4.195
61253W        W26480   9.086  18.108   4.364
61254W        W26481   7.149  38.446  11.865
61255W        W26482  39.054  14.732   4.517
61256W        W26483  12.083  35.113   0.727
61257W        W26484  17.239  16.633  10.695
61258W        W26485  35.875   8.371  10.310
61259W        W26486  27.191  21.674   4.366
61260W        W26487  38.813  15.538   2.954
61261W        W26488  41.863  35.650   3.390
61262W        W26489  34.596  25.817   9.987
61263W        W26490  17.416  23.825   0.469
61264W        W26491  35.599  21.607  10.768
61265W        W26492   3.847  44.039  10.868
61266W        W26493   1.493  18.019  10.562
61267W        W26494  16.038  32.144  10.677
61268W        W26495  23.045  10.466  13.801
61269W        W26496  13.114  23.779  10.777
61270W        W26497  10.877   0.667  14.338
61271W        W26498  11.503  23.989  13.345
61272W        W26499  41.804  41.480   4.162
61273W        W26500  12.171  43.300  13.299
61274W        W26501  15.819   4.496   3.376
61275W        W26502  22.789  20.839   3.202
61276W        W26503  24.132  23.112   4.197
61277W        W26504  24.499  20.901   4.555
61278W        W26505  34.304  32.122   0.509
61279W        W26506  19.195  40.396  13.907
61280W        W26507   7.588  35.598   0.676
61281W        W26508  40.534  31.616   4.752
61282W        W26509  25.610   5.935  10.602
61283W        W26510  43.876  13.065   2.749
61284W        W26511  17.124  22.833   0.461
61285W        W26512  29.227  35.460  11.100
61286W        W26513  40.534  27.477  13.147
61287W        W26514  38.007   8.362   3.935
61288W        W26515  11.888   7.911  13.901
61289W        W26516  36.048  19.314  11.007
61290W        W26517  15.833  12.809  10.856
61291W        W26518   3.882  40.164  10.905
61292W        W26519  15.814  21.677  12.566
61293W        W26520   2.544  41.488  11.110
61294W        W26521  28.069   9.395  12.978
61295W        W26522  25.415  20.551  12.555
61296W        W26523  16.145   1.356  14.278
61297W        W26524  29.845  19.494  11.296
61298W        W26525  13.281   0.991  10.767
61299W        W26526  16.616  35.550  12.471
61300W        W26527  13.815  43.533   2.203
61301W        W26528   0.946  26.201  10.111
61302W        W26529  25.749  28.162  11.567
61303W        W26530   9.364  26.896   0.475
61304W        W26531  42.473  34.373   2.916
61305W        W26532  36.337  44.235  11.189
61306W        W26533  41.123   5.213  14.871
61307W        W26534  22.548  32.508   3.201
61308W        W26535   9.869  30.908   3.979
61309W        W26536   8.080  18.157  11.125
61310W        W26537  37.447  27.193   2.108
61311W        W26538  33.266  42.756  13.329
61312W        W26539  22.247  30.126   3.855
61313W        W26540   2.791  12.925   2.107
61314W        W26541  44.498  33.417   3.062
61315W        W26542   8.845  26.332   2.434
61316W        W26543  19.751  38.171   3.799
61317W        W26544   7.704   9.775  13.561
61318W        W26545   9.443  36.148   1.797
61319W        W26546  12.653   4.599  12.969
61320W        W26547  20.940  43.361   1.993
61321W        W26548   6.213  38.821   3.713
61322W        W26549   4.453  38.565  12.855
61323W        W26550  38.417  38.928   2.960
61324W        W26551  18.625  19.361  13.913
61325W        W26552  22.159   7.862  11.779
61326W        W26553   2.475  12.282   0.322
61327W        W26554  43.070   4.222  14.054
61328W        W26555   2.442  13.038  11.580
61329W        W26556  31.583  32.460  14.692
61330W        W26557  27.893   3.141  11.116
61331W        W26558  37.934   2.007  12.116
61332W        W26559  41.938  19.347  11.464
61333W        W26560  11.125  38.430   3.696
61334W        W26561  15.171  31.602   1.472
61335W        W26562  11.059  35.153   0.984
61336W        W26563  39.938  13.744  12.833
61337W        W26564  19.669   8.310   0.385
61338W        W26565   9.022  14.868   1.437
61339W        W26566  20.344  41.253   4.575
61340W        W26567  29.597   9.478   3.680
61341W        W26568  33.056   8.922  13.649
61342W        W26569  33.872  16.208   3.195
61343W        W26570  37.826  41.965   4.548
61344W        W26571  39.426  37.621  13.019
61345W        W26572  15.239   4.639   1.679
61346W        W26573  21.519  25.170  11.155
61347W        W26574  25.207  21.053  12.074
61348W        W26575  22.673  32.105  14.472
61349W        W26576  18.999  38.748   4.200
61350W        W26577  13.318  26.437  14.433
61351W        W26578  16.176  36.592  12.162
61352W        W26579  13.585   3.702   0.365
61353W        W26580  22.565  15.076   2.210
61354W        W26581  24.020  38.827  11.522
61355W        W26582  35.890  21.336  14.466
61356W        W26583  12.609  18.310   0.309
61357W        W26584  25.071   5.601   3.898
61358W        W26585  30.428  23.066  14.054
61359W        W26586   6.726  35.822   3.161
61360W        W26587  21.308  18.514   2.349
61361W        W26588  27.151  14.628   4.181
61362W        W26589  28.395  42.461  13.322
61363W        W26590  11.173  44.433  14.603
61364W        W26591  37.893  34.894  12.138
61365W        W26592  28.599  19.509  13.340
61366W        W26593  20.171   3.324  12.424
61367W        W26594  39.464   6.143   1.326
61368W        W26595  44.152  18.902   2.669
61369W        W26596  14.053  20.030   1.018
61370W        W26597   4.989  38.787   0.793
61371W        W26598  25.999  18.254  14.843
61372W        W26599  23.669  13.837   3.033
61373W        W26600  25.229   6.087   3.721
61374W        W26601  23.299  44.997   2.372
61375W        W26602   9.292   1.939   0.808
61376W        W26603  19.097  25.861   4.578
61377W        W26604  32.981  26.652  13.909
61378W        W26605  21.560   0.814   1.299
61379W        W26606  38.875  13.199   2.290
61380W        W26607  30.203  25.645  12.485
61381W        W26608  10.172   0.437   0.988
61382W        W26609  17.956  22.517  10.722
61383W        W26610  11.698   2.196  14.917
61384W        W26611  28.970  27.716  12.884
61385W        W26612  43.706  44.394   2.294
61386W        W26613   3.954  31.076  13.037
61387W        W26614   3.798   2.508   4.064
61388W        W26615   5.867  13.383  13.700
61389W        W26616   4.214  38.413   3.209
61390W        W26617  11.861   7.745   3.573
61391W        W26618   2.180  31.673   0.451
61392W        W26619   1.678   5.965   3.705
61393W        W26620  25.159   8.144  14.953
61394W        W26621  43.552   0.288   0.449
61395W        W26622   2.349   4.321   4.165
61396W        W26623  41.901  29.217  13.074
61397W        W26624  24.023  42.485  12.559
61398W        W26625  39.960  32.985  10.671
61399W        W26626  30.016  36.631   2.228
61400W        W26627  14.726  13.744  12.091
61401W        W26628   3.994  26.691   4.475
61402W        W26629  22.961  41.969  14.127
61403W        W26630  14.740   6.040   3.879
61404W        W26631  19.495  39.281  11.871
61405W        W26632  39.031  36.880   4.127
61406W        W26633  42.968  41.362  14.984
61407W        W26634   2.953  43.302  13.006
61408W        W26635  43.248  24.000  11.059
61409W        W26636  36.502  28.004   1.962
61410W        W26637  42.173   9.889   5.065
61411W        W26638  12.950  41.226   4.866
61412W        W26639  10.714  39.025  13.481
61413W        W26640  17.124  30.940  11.982
61414W        W26641  24.707  14.567  13.929
61415W        W26642  38.775   9.111  11.986
61416W        W26643  15.057  13.112   3.663
61417W        W26644  19.086  43.975  14.592
61418W        W26645  24.987  27.579  13.477
61419W        W26646  44.317  21.905   2.105
61420W        W26647   9.743  23.066  12.811
61421W        W26648  44.718  30.891   3.120
61422W        W26649  27.129  14.153  11.013
61423W        W26650  39.500  21.534   3.007
61424W        W26651  13.636  24.705  14.989
61425W        W26652   4.196  16.187  14.935
61426W        W26653  34.555   8.199   3.048
61427W        W26654  22.251  35.453   1.378
61428W        W26655   8.776  19.790   4.259
61429W        W26656   9.743  30.587  10.789
61430W        W26657   3.552  14.504  11.644
61431W        W26658   9.893   9.381  14.486
61432W        W26659  32.103  38.584   4.480
61433W        W26660  34.880  24.042  12.209
61434W        W26661  44.445  13.797  14.982
61435W        W26662  32.122  44.908  12.892
61436W        W26663   9.298   2.838  12.865
61437W        W26664  43.317  13.253  12.049
61438W        W26665   4.413  25.949   0.814
61439W        W26666  36.102  30.682   4.567
61440W        W26667  28.431  36.385   0.180
61441W        W26668  30.037  21.655   4.624
61442W        W26669   4.736  39.083  14.209
61443W        W26670   7.115  18.053   0.287
61444W        W26671  28.162  41.617  14.852
61445W        W26672  32.380  34.494   0.344
61446W        W26673  20.029  31.905  10.864
61447W        W26674  32.643  26.112   0.772
61448W        W26675  43.070   8.385   9.799
61449W        W26676  29.114  39.086   0.780
61450W        W26677  14.091  19.462   2.415
61451W        W26678   8.142  13.146  14.457
61452W        W26679   4.240  17.502  12.287
61453W        W26680  34.194   4.690   1.053
61454W        W26681  12.547  38.452  12.495
61455W        W26682  43.545  30.042   0.929
61456W        W26683  39.203   7.828  14.447
61457W        W26684  44.874   8.405  14.048
61458W        W26685  35.318  15.336  12.686
61459W        W26686  25.958  38.091   2.660
61460W        W26687  11.693  11.826   0.341
61461W        W26688  23.951   9.604  12.004
61462W        W26689  24.479  35.653   1.646
61463W        W26690   9.382  16.002   0.310
61464W        W26691   3.288  29.920   3.104
61465W        W26692  36.972  42.520  10.783
61466W        W26693  10.236   1.103   4.513
61467W        W26694  36.705  24.642   4.639
61468W        W26695  19.211   6.931  14.034
61469W        W26696  12.548  29.974   1.261
61470W        W26697  44.825   5.165   0.797
61471W        W26698  25.301  35.454  11.219
61472W        W26699   9.217   7.591  14.432
61473W        W26700  11.060  43.925   0.275
61474W        W26701   5.813  43.446   0.040
61475W        W26702  33.032   1.077  13.344
61476W        W26703   6.874  30.831   4.567
61477W        W26704  13.279   1.829   3.830
61478W        W26705  28.356  33.609   4.206
61479W        W26706  39.075  37.787   3.789
61480W        W26707  32.747  14.624  12.589
61481W        W26708  36.385  21.325  14.376
61482W        W26709   2.460   8.292  10.539
61483W        W26710  13.340  14.673  11.011
61484W        W26711  36.955  11.846  12.851
61485W        W26712  14.658  21.164   2.741
61486W        W26713  39.241  19.705   2.829
61487W        W26714  39.096  42.806  13.101
61488W        W26715  33.154  19.218  12.454
61489W        W26716  24.064   5.468   3.179
61490W        W26717   4.789  32.100  11.538
61491W        W26718  29.201  36.820  12.974
61492W        W26719  22.111  27.957  11.120
61493W        W26720   7.887  19.133  14.857
61494W        W26721  42.444   0.814  12.525
61495W        W26722  14.057  21.998   2.798
61496W        W26723  28.964   7.423   3.701
61497W        W26724  17.154  16.666   1.476
61498W        W26725  35.536  35.289   2.621
61499W        W26726  11.698  11.190   0.800
61500W        W26727  19.954  24.583   3.271
61501W        W26728  29.798  38.020   0.460
61502W        W26729  39.808  28.972  12.669
61503W        W26730  26.219  34.967   0.727
61504W        W26731  20.987  18.308   4.842
61505W        W26732  26.462   7.858   1.716
61506W        W26733   4.733  27.767   2.208
61507W        W26734  29.374  37.314  10.010
61508W        W26735  30.533   9.875   0.467
61509W        W26736   4.027  21.875   0.315
61510W        W26737  18.864  15.750   4.189
61511W        W26738  13.706  27.087  12.458
61512W        W26739  39.207  32.987   2.619
61513W        W26740  27.719  43.516  14.842
61514W        W26741   0.919  21.867  12.817
61515W        W26742   9.933  16.672  14.285
61516W        W26743   6.428  41.075  10.732
61517W        W26744  39.776   3.448   0.932
61518W        W26745   7.068   6.534  14.769
61519W        W26746  10.015  18.050  12.074
61520W        W26747  13.649   3.053  13.068
61521W        W26748  39.781  39.037   2.109
61522W        W26749  38.977  19.206   0.712
61523W        W26750  35.779   9.034  14.879
61524W        W26751   0.331  16.837  11.180
61525W        W26752  28.486  42.418  14.730
61526W        W26753  34.046  41.186  13.316
61527W        W26754  16.064   1.733   1.864
61528W        W26755  39.582   8.122  14.657
61529W        W26756  34.630   7.086   3.273
61530W        W26757   5.260   8.092  11.907
61531W        W26758   6.853  11.103   2.248
61532W        W26759  41.762  14.538  11.247
61533W        W26760   9.313  27.168  13.576
61534W        W26761  20.792  12.373  13.635
61535W        W26762  27.918  19.847   4.276
61536W        W26763   0.214  34.863   4.129
61537W        W26764  19.774  25.510  14.405
61538W        W26765   3.554   9.936  12.371
61539W        W26766  32.257  12.858   1.392
61540W        W26767  20.678  17.033  12.004
61541W        W26768  24.908  30.252  11.235
61542W        W26769   4.111  39.915   0.427
61543W        W26770  35.888  12.177   0.336
61544W        W26771  33.952  32.930   3.552
61545W        W26772  36.154   9.284   2.681
61546W        W26773  15.231  16.497   0.450
61547W        W26774  28.176  32.069  13.871
61548W        W26775  10.132  25.594   2.611
61549W        W26776  33.157  33.371   4.791
61550W        W26777  29.653  39.759  12.270
61551W        W26778  32.986  38.414  14.138
61552W        W26779   3.849   1.550   3.225
61553W        W26780  14.318  31.342  11.564
61554W        W26781  19.703   6.111  10.822
61555W        W26782  37.020   8.375   3.311
61556W        W26783  15.533  14.072  10.408
61557W        W26784   3.272  42.088   2.752
61558W        W26785  17.623  33.460   3.126
61559W        W26786   2.476  24.436  11.118
61560W        W26787  34.377  27.637   1.781
61561W        W26788  44.264   3.447  11.647
61562W        W26789  27.638  10.499  13.865
61563W        W26790  22.273  20.121   1.803
61564W        W26791   2.692  11.792  11.094
61565W        W26792  44.789  33.502   0.729
61566W        W26793  13.100  26.980   4.405
61567W        W26794  31.180  13.193   4.498
61568W        W26795  23.727  10.124   2.730
61569W        W26796  18.125  30.627  14.477
61570W        W26797   3.272   3.871  13.789
61571W        W26798  38.076  26.737  14.244
61572W        W26799  24.685  38.317  14.420
61573W        W26800  17.284   0.492   3.919
61574W        W26801  28.228  30.061  12.354
61575W        W26802  14.359  43.050  10.394
61576W        W26803  27.952  12.526   1.916
61577W        W26804  37.263   9.579   2.297
61578W        W26805  41.559   7.250   3.354
61579W        W26806  14.251  35.235  14.459
61580W        W26807   6.275   7.918  13.848
61581W        W26808  13.754   1.034  11.125
61582W        W26809  42.884  36.365  10.585
61583W        W26810   5.866  31.407   3.792
61584W        W26811   6.391  20.582   0.476
61585W        W26812  18.579  43.082  14.467
61586W        W26813  15.819  39.443  13.975
61587W        W26814  16.738  15.625  12.518
61588W        W26815   0.299  19.236  12.615
61589W        W26816   1.259  17.700   0.785
61590W        W26817  27.923  41.061  12.090
61591W        W26818  33.830  43.984   0.897
61592W        W26819   0.909  37.641  11.590
61593W        W26820  28.189  18.276  10.705
61594W        W26821  12.722  42.027  12.988
61595W        W26822  40.612  29.159  11.162
61596W        W26823  40.888  23.898  12.864
61597W        W26824  19.011  41.922   4.702
61598W        W26825  18.738   5.952   0.811
61599W        W26826  33.587  14.125   2.353
61600W        W26827  35.030  30.144   2.743
61601W        W26828  11.192   5.713   4.337
61602W        W26829  10.881  42.246   0.621
61603W        W26830  28.714   9.672  11.044
61604W        W26831  24.086  25.695  13.959
61605W        W26832   6.861  44.431   3.260
61606W        W26833  11.178  37.131   3.166
61607W        W26834   9.086  14.810  14.116
61608W        W26835  29.693  19.003  11.171
61609W        W26836  40.720  12.203   1.896
61610W        W26837   9.660  16.309   3.113
61611W        W26838   0.310  16.443  12.380
61612W        W26839   0.480  36.200   3.318
61613W        W26840  41.506  17.523  11.648
61614W        W26841  27.084  44.591  12.083
61615W        W26842  42.067  26.547   3.634
61616W        W26843  34.362   7.887   2.631
61617W        W26844  43.924  16.940   1.764
61618W        W26845   9.335  34.462   1.909
61619W        W26846  12.036  33.458   0.953
61620W        W26847  24.271  32.602   3.126
61621W        W26848   6.153  21.427  10.726
61622W        W26849  37.984   4.228  11.410
61623W        W26850  32.387  39.376  14.193
61624W        W26851  42.923  24.595  11.171
61625W        W26852  34.669  44.620   1.107
61626W        W26853  16.310  19.026  14.822
61627W        W26854  36.056  44.110  12.041
61628W        W26855  27.460  43.947  13.969
61629W        W26856  42.205  19.263  12.439
61630W        W26857  24.766  35.017  11.713
61631W        W26858  18.268  13.233  13.273
61632W        W26859  27.165  10.438  12.936
61633W        W26860  13.945  21.480   3.586
61634W        W26861   8.787   0.696  12.396
61635W        W26862  33.645   9.717  11.211
61636W        W26863  36.057  41.726   0.960
61637W        W26864  23.647  23.271   4.140
61638W        W26865   0.562  12.321  13.739
61639W        W26866  19.956   9.744   1.461
61640W        W26867  18.648  22.894   2.281
61641W        W26868  39.402  30.417  14.404
61642W        W26869  27.734  38.022  12.912
61643W        W26870  16.684  20.585  11.750
61644W        W26871  39.510  35.618  11.726
61645W        W26872  25.239  32.074  11.541
61646W        W26873  37.468  17.315  10.728
61647W        W26874  10.761  32.578   0.357
61648W        W26875  14.575  18.384  12.781
61649W        W26876  17.338  14.969   3.844
61650W        W26877  29.664  29.089  11.863
61651W        W26878  10.245   1.853  13.023
61652W        W26879  34.530  40.572  14.280
61653W        W26880  11.805   9.709   3.205
61654W        W26881   0.813  27.292  14.730
61655W        W26882  40.915   5.955  14.391
61656W        W26883  13.012  18.699   1.784
61657W        W26884  22.937   3.388   2.203
61658W        W26885   7.814  34.486   1.452
61659W        W26886  41.104  18.793   2.352
61660W        W26887  23.940  29.905   4.871
61661W        W26888  32.103  33.984   2.171
61662W        W26889  22.646  21.136   0.282
61663W        W26890   6.666  16.898  10.681
61664W        W26891  30.027  43.294  14.806
61665W        W26892  23.414  23.363   0.953
61666W        W26893  25.512   7.710   4.558
61667W        W26894  31.532  36.082  12.867
61668W        W26895  17.368   9.781  13.770
61669W        W26896   8.209   4.892  12.359
61670W        W26897  40.099   9.690   2.697
61671W        W26898  30.472  28.529  11.161
61672W        W26899  35.966  39.848  12.188
61673W        W26900  39.290   2.450  12.910
61674W        W26901  14.405  19.661   0.119
61675W        W26902  44.932  22.229   3.174
61676W        W26903  19.960  32.213   0.280
61677W        W26904  19.782  28.915  10.829
61678W        W26905   3.637  21.056  13.751
61679W        W26906  35.527   6.441  14.501
61680W        W26907  19.999   1.358   2.827
61681W        W26908  12.591  14.888   2.799
61682W        W26909  37.317  40.345   1.048
61683W        W26910  40.167  35.939  14.526
61684W        W26911   2.873  41.035  10.357
61685W        W26912  40.423  16.674   3.782
61686W        W26913  38.655   2.331  10.521
61687W        W26914   1.522  29.206   4.078
61688W        W26915  28.170  14.339  11.099
61689W        W26916   4.411  14.700  12.510
61690W        W26917  35.781  37.130  13.938
61691W        W26918  34.994  19.001   2.518
61692W        W26919  30.169  23.406   2.090
61693W        W26920   4.640  24.679   4.833
61694W        W26921  10.977  18.369  12.844
61695W        W26922  40.084   9.249   4.563
61696W        W26923  25.224  42.414   0.219
61697W        W26924  26.842   8.329   1.399
61698W        W26925  39.367  29.852   1.249
61699W        W26926  26.066   1.008  14.072
61700W        W26927  25.026  11.419   1.059
61701W        W26928   7.951  10.619   0.990
61702W        W26929  12.968  38.409   3.194
61703W        W26930  12.861  20.743  10.546
61704W        W26931  20.576  18.698  12.449
61705W        W26932  22.252  19.872  14.336
61706W        W26933   2.241  44.784   2.720
61707W        W26934   1.264  24.606   4.553
61708W        W26935  29.038  35.617   2.252
61709W        W26936   7.426  14.177   4.513
61710W        W26937  25.593  40.584   1.925
61711W        W26938  19.482  40.691   4.104
61712W        W26939  15.686  34.726   1.878
61713W        W26940  13.281  12.734   2.882
61714W        W26941  39.488  17.876  12.512
61715W        W26942  28.062  20.489  11.438
61716W        W26943   1.793  41.500   4.033
61717W        W26944   8.896  44.194  11.537
61718W        W26945   4.700  30.554   3.766
61719W        W26946  13.912  20.325  13.878
61720W        W26947   6.870  32.535  12.461
61721W        W26948  15.646  44.501   0.977
61722W        W26949  32.992  31.962   1.159
61723W        W26950  39.081  44.334  13.378
61724W        W26951  17.816  21.620  11.488
61725W        W26952   9.512  37.881  12.707
61726W        W26953  37.104  40.775  10.628
61727W        W26954  39.080   7.712   3.176
61728W        W26955   5.444  30.809  14.862
61729W        W26956  29.803  34.292   1.973
61730W        W26957  12.649  22.431   2.621
61731W        W26958  10.773  40.439   4.478
61732W        W26959  12.251  15.923  10.087
61733W        W26960  30.506   5.623   0.721
61734W        W26961   2.974  35.997   4.941
61735W        W26962  33.167   4.832  11.417
61736W        W26963   7.785  38.500   1.373
61737W        W26964  26.233  37.240   0.371
61738W        W26965  40.470  36.458   0.342
61739W        W26966  40.331  26.725  11.675
61740W        W26967   3.791  38.657   4.113
61741W        W26968  42.308  43.672   4.214
61742W        W26969  18.373  40.767  14.247
61743W        W26970  19.825   8.720  11.499
61744W        W26971  36.028  24.471  14.932
61745W        W26972  18.521  22.507  10.772
61746W        W26973  12.573  38.978  14.811
61747W        W26974  18.230   0.029  11.601
61748W        W26975  21.733  36.909   1.988
61749W        W26976  31.656  35.895  12.385
61750W        W26977   0.319  14.217   2.267
61751W        W26978  21.864  12.283   3.314
61752W        W26979  34.664  44.118   1.305
61753W        W26980  12.771  39.665   3.896
61754W        W26981  19.518  43.013  10.669
61755W        W26982  38.854  12.287  12.051
61756W        W26983  30.683  35.452   5.104
61757W        W26984   5.559  13.645   4.470
61758W        W26985  22.489  31.633   1.278
61759W        W26986  41.087   8.877   3.389
61760W        W26987  36.940  37.399  10.353
61761W        W26988   3.290   2.211  14.393
61762W        W26989   7.257  18.406  13.282
61763W        W26990  18.000  20.661   2.954
61764W        W26991   5.060  41.347  12.136
61765W        W26992  36.869  39.443   4.598
61766W        W26993   2.977  34.499   0.942
61767W        W26994  35.543  13.047  14.413
61768W        W26995   3.491  17.729   4.231
61769W        W26996  42.323  10.279   3.749
61770W        W26997  10.590  12.175  14.936
61771W        W26998  16.134  14.592  12.849
61772W        W26999  29.482  28.247  10.284
61773W        W27000  26.603  38.718   4.430
61774W        W27001  21.106  40.320  12.816
61775W        W27002  34.995  15.144   2.342
61776W        W27003  30.330  41.506  13.479
61777W        W27004  37.823  21.196   3.550
61778W        W27005   8.566  32.742  13.577
61779W        W27006  42.338  29.546  14.462
61780W        W27007  12.889   0.278   1.333
61781W        W27008  42.152   7.984   2.013
61782W        W27009  43.743   9.110  14.327
61783W        W27010  29.849  35.724   2.558
61784W        W27011  15.636  41.335  10.762
61785W        W27012  27.036  38.985   4.507
61786W        W27013  16.428  13.608   0.045
61787W        W27014  17.016  32.074   0.907
61788W        W27015  41.323  38.579   1.892
61789W        W27016  42.837  26.041   4.402
61790W        W27017  32.387   9.442  14.876
61791W        W27018  16.250  15.672   3.369
61792W        W27019   3.816  37.003   0.330
61793W        W27020  22.167   1.093  12.364
61794W        W27021   2.461  10.082  13.654
61795W        W27022  43.560  16.097   4.244
61796W        W27023  22.641   4.214  14.245
61797W        W27024  12.394   8.321   1.009
61798W        W27025   2.095   9.272  13.279
61799W        W27026   7.097   6.348   4.158
61800W        W27027   4.227  10.841  12.535
61801W        W27028  30.961  41.638  14.847
61802W        W27029  25.705  26.749  14.087
61803W        W27030  34.742  10.253  14.457
61804W        W27031  19.595  43.277   0.200
61805W        W27032  42.193  30.894  12.124
61806W        W27033  38.551  41.363  14.364
61807W        W27034  10.621   0.568  13.493
61808W        W27035  24.699  14.303  12.418
61809W        W27036  30.563   3.313   4.955
61810W        W27037  38.847  15.614  11.586
61811W        W27038  26.739  44.554   1.433
61812W        W27039  14.831  26.433  13.494
61813W        W27040  10.176   5.558   4.843
61814W        W27041   0.928   2.025  11.532
61815W        W27042  18.863  10.827  11.569
61816W        W27043  14.264  22.497   3.102
61817W        W27044  20.123   5.049   0.821
61818W        W27045  19.199  27.257   2.312
61819W        W27046  41.767  36.911  14.473
61820W        W27047  32.163  12.553  12.658
61821W        W27048  39.510  29.584   0.759
61822W        W27049  34.398   7.319  10.792
61823W        W27050   7.883  42.016  11.116
61824W        W27051  33.889  20.207  11.308
61825W        W27052  11.255   5.379  13.832
61826W        W27053  26.321  38.164  13.887
61827W        W27054   8.829  10.923  11.439
61828W        W27055  23.064  17.605   1.484
61829W        W27056   8.767  31.060  11.426
61830W        W27057  37.798  17.787   0.770
61831W        W27058   1.505   6.884   1.323
61832W        W27059  33.849  17.184   0.732
61833W        W27060   7.160  38.837  12.987
61834W        W27061  32.110  19.010  13.516
61835W        W27062  24.675  28.854   0.444
61836W        W27063  13.720  29.415  13.474
61837W        W27064  17.682  15.247  11.135
61838W        W27065  11.858   4.986   2.583
61839W        W27066  43.975   2.875  13.585
61840W        W27067   6.353  21.478  12.898
61841W        W27068  36.545  28.579   2.298
61842W        W27069  24.864  13.300   3.559
61843W        W27070  43.105  24.154  13.050
61844W        W27071  20.141  19.468   0.906
61845W        W27072  25.695  42.212   0.357
61846W        W27073  18.209  39.398  13.846
61847W        W27074   4.787  34.031   3.350
61848W        W27075  38.438   4.336   4.101
61849W        W27076   3.821  30.815   1.688
61850W        W27077   9.299   3.712   1.303
61851W        W27078  31.967  37.806   0.982
61852W        W27079   6.720  15.175  13.414
61853W        W27080   9.189   9.081   0.929
61854W        W27081  32.873  32.016  10.674
61855W        W27082  37.870  25.478   4.013
61856W        W27083   3.451  23.703   1.867
61857W        W27084  34.925  37.790  11.120
61858W        W27085  36.301  24.132  10.735
61859W        W27086   9.530  39.603  11.658
61860W        W27087  21.179  14.727  14.742
61861W        W27088  26.062  29.493  11.924
61862W        W27089  22.379  10.311   1.394
61863W        W27090  17.176   2.847   2.957
61864W        W27091  11.748  42.207   1.004
61865W        W27092  23.554  12.882  12.460
61866W        W27093  27.633  28.365  12.430
61867W        W27094  36.493   9.273  13.539
61868W        W27095  18.542   1.814   4.848
61869W        W27096  31.959  33.074   1.365
61870W        W27097   6.113  34.376  11.036
61871W        W27098  27.919  23.574  13.424
61872W        W27099   9.545  41.098  12.077
61873W        W27100  42.450  12.242  12.437
61874W        W27101  31.340  43.864   4.696
61875W        W27102  10.297  34.284   2.420
61876W        W27103  44.327  39.233   4.948
61877W        W27104  33.588  11.924   2.628
61878W        W27105  18.227  15.737   3.309
61879W        W27106   9.775  18.214   3.833
61880W        W27107  26.797  31.149  14.399
61881W        W27108   6.966  28.525  14.570
61882W        W27109  17.488  43.955   4.156
61883W        W27110  42.850  26.973  13.202
61884W        W27111   5.950  34.837   0.317
61885W        W27112   8.592  13.390   2.937
61886W        W27113  23.918  33.944  14.467
61887W        W27114  18.608  34.986   2.651
61888W        W27115  15.517  13.257   4.930
61889W        W27116  31.856  44.488   1.689
61890W        W27117  22.706  17.322  10.623
61891W        W27118  38.012   4.646   2.752
61892W        W27119  26.591  32.824   0.370
61893W        W27120  29.046  15.569   4.067
61894W        W27121  35.761  26.733  12.031
61895W        W27122  39.095  32.854  11.881
61896W        W27123  35.324  34.995  12.955
61897W        W27124  10.348  33.510   1.292
61898W        W27125  15.936  36.939  13.837
61899W        W27126  16.780  18.065  12.563
61900W        W27127  27.516   9.897   1.615
61901W        W27128  43.722  43.121  12.708
61902W        W27129   2.471  29.369   3.200
61903W        W27130  21.254   1.249  14.493
61904W        W27131  19.745   5.685   0.035
61905W        W27132   0.820  42.277  12.376
61906W        W27133  12.406  32.129  11.662
61907W        W27134   4.873  25.143   0.840
61908W        W27135  44.681  29.455   0.446
61909W        W27136  30.709  24.264  12.414
61910W        W27137  28.115  22.034  12.384
61911W        W27138  13.863  25.294  14.529
61912W        W27139  16.761  33.072   2.098
61913W        W27140  17.397  14.541  11.564
61914W        W27141  37.385  44.193  12.371
61915W        W27142   2.875   4.450   2.283
61916W        W27143   7.206   5.082   2.710
61917W        W27144   5.341  24.757   3.812
61918W        W27145  21.172  28.713   2.295
61919W        W27146  23.291  20.703  10.576
61920W        W27147   0.068  17.886  12.415
61921W        W27148  30.498  10.546   4.509
61922W        W27149  35.038  11.248   1.407
61923W        W27150  34.140  28.462   4.208
61924W        W27151  17.468  26.320  12.860
61925W        W27152  22.113  43.424   3.865
61926W        W27153  32.808  12.589   0.095
61927W        W27154  15.067  23.670   3.366
61928W        W27155  24.091  36.513   1.708
61929W        W27156  12.780  38.466   2.699
61930W        W27157  22.590   4.598   3.148
61931W        W27158  33.892  11.215  13.006
61932W        W27159  36.127  31.535  14.451
61933W        W27160   6.188  20.527  11.712
61934W        W27161  30.555  32.555   0.552
61935W        W27162  14.664   8.870   4.248
61936W        W27163  15.632  36.929   3.138
61937W        W27164  24.734  31.670   4.592
61938W        W27165  43.279   1.895   4.534
61939W        W27166  35.029  43.310  10.555
61940W        W27167  18.738  15.677  10.447
61941W        W27168  34.104  17.788   1.827
61942W        W27169  39.282  18.976  10.792
61943W        W27170  12.367  19.463   4.088
61944W        W27171  11.344   5.932   3.359
61945W        W27172  26.662   6.258  12.950
61946W        W27173   4.760  42.210   2.322
61947W        W27174  19.158  12.755  12.071
61948W        W27175  24.935  24.351  11.403
61949W        W27176   5.157  37.369   1.852
61950W        W27177  35.205  37.157  13.266
61951W        W27178   6.524  37.418   0.469
61952W        W27179  42.710  22.785  14.267
61953W        W27180  43.174  15.075  14.114
61954W        W27181  17.001   4.176   3.808
61955W        W27182   5.776  12.573  13.050
61956W        W27183   7.638  39.292   3.206
61957W        W27184  21.189   0.017   2.843
61958W        W27185  27.611  28.867   5.932
61959W        W27186  33.127   4.381  12.160
61960W        W27187  38.055   2.316   1.570
61961W        W27188  40.756  22.111   4.596
61962W        W27189  23.538   0.244  13.765
61963W        W27190   8.117  31.494   3.907
61964W        W27191  11.797  38.578  10.554
61965W        W27192  15.337  40.258   3.688
61966W        W27193  17.839  39.348  12.456
61967W        W27194  30.635  25.317  12.488
61968W        W27195  18.653   8.216   2.885
61969W        W27196  35.333  23.886   3.341
61970W        W27197  34.647  29.329  13.475
61971W        W27198  38.837   3.419   5.328
61972W        W27199   1.490  30.201   1.791
61973W        W27200  26.626  30.014  14.689
61974W        W27201  11.628  36.593   4.527
61975W        W27202  36.610   3.404  14.826
61976W        W27203   4.924   0.799   3.186
61977W        W27204  41.126   7.780  11.956
61978W        W27205  12.745  41.222   1.795
61979W        W27206  34.573  26.725  13.626
61980W        W27207  30.629  42.766   1.913
61981W        W27208  26.666  23.256   2.255
61982W        W27209  32.595  22.714   2.717
61983W        W27210   7.857  17.009   4.056
61984W        W27211  35.353  27.547  14.071
61985W        W27212  12.989  29.724   1.142
61986W        W27213  37.483  32.613   1.308
61987W        W27214   6.750  26.947   0.944
61988W        W27215  20.141  23.125   4.164
61989W        W27216  36.956  11.309   2.912
61990W        W27217  18.767   2.152   2.841
61991W        W27218  12.823  37.893   3.191
61992W        W27219   7.694  40.215   1.993
61993W        W27220  35.498  25.689   1.183
61994W        W27221  33.402  26.606   2.241
61995W        W27222   7.266  11.576  12.752
61996W        W27223  21.592   9.623   4.329
61997W        W27224  44.070  15.581  11.086
61998W        W27225  29.120  23.093  13.383
61999W        W27226  37.043   0.332  14.906
62000W        W27227  43.797  13.782   0.738
62001W        W27228  35.517  15.344   0.894
62002W        W27229  38.514  30.952  11.573
62003W        W27230  43.288  18.546   1.684
62004W        W27231   9.402  40.877   0.457
62005W        W27232  22.410  11.880  11.225
62006W        W27233   7.280   2.758   4.208
62007W        W27234   2.801  26.598   2.844
62008W        W27235  23.308  41.475  11.181
62009W        W27236  17.053   6.825  13.341
62010W        W27237  42.214   0.666   0.380
62011W        W27238  43.191  32.504  10.675
62012W        W27239  39.935  33.552  14.192
62013W        W27240  28.843  35.557   0.765
62014W        W27241  31.490  34.506  11.838
62015W        W27242  37.767  28.673   2.780
62016W        W27243   5.151  36.578   4.114
62017W        W27244  35.012  37.019   4.540
62018W        W27245  27.555  38.130   2.939
62019W        W27246  28.047  10.147  10.265
62020W        W27247  19.474  23.236   2.326
62021W        W27248  33.645  21.211   0.844
62022W        W27249  12.510  21.288   0.369
62023W        W27250  14.831  13.431   4.673
62024W        W27251   1.333  36.598   2.141
62025W        W27252   5.711  13.304   3.693
62026W        W27253  37.144  21.375   4.053
62027W        W27254   7.963  36.323  11.555
62028W        W27255   1.277  24.951  13.670
62029W        W27256  23.749  39.522  12.439
62030W        W27257  33.972   8.074   4.923
62031W        W27258   0.198   9.787  10.535
62032W        W27259   8.372  28.402  14.563
62033W        W27260  22.960  23.238   1.205
62034W        W27261  22.272  40.798  12.855
62035W        W27262   0.097  25.637  11.772
62036W        W27263  35.017  16.319   1.680
62037W        W27264  31.021  28.684   0.258
62038W        W27265  26.555  13.483   4.606
62039W        W27266   2.375   8.786  10.709
62040W        W27267  27.575  25.239  12.070
62041W        W27268  26.103   3.232   1.338
62042W        W27269   3.799  34.413  13.982
62043W        W27270  27.643  32.617   2.865
62044W        W27271  34.921  19.328  12.622
62045W        W27272  29.235  40.457  11.930
62046W        W27273  19.262  19.161   4.480
62047W        W27274  38.898  29.058  12.420
62048W        W27275  24.864  31.133   0.754
62049W        W27276  44.177  26.963  12.229
62050W        W27277  25.874  40.926   4.851
62051W        W27278   5.430   6.894  12.365
62052W        W27279  41.332   2.156  12.645
62053W        W27280  18.739  32.964  11.530
62054W        W27281   2.701  32.950   4.726
62055W        W27282  27.004  37.672   0.831
62056W        W27283  36.473   2.926   2.526
62057W        W27284  43.818  11.838   4.170
62058W        W27285  21.722   8.265  14.775
62059W        W27286  29.343   8.728   5.054
62060W        W27287  33.930  12.221   2.875
62061W        W27288  23.636   9.575   1.768
62062W        W27289  12.777  33.356  11.900
62063W        W27290  41.910  24.122   1.076
62064W        W27291  21.184  15.565   0.324
62065W        W27292  29.373   6.518   4.198
62066W        W27293  14.402  21.147  11.358
62067W        W27294  31.925  43.870   3.065
62068W        W27295  17.257  17.358  12.226
62069W        W27296  40.865  32.570  13.311
62070W        W27297   5.362  23.616  14.845
62071W        W27298  44.523   1.358   4.604
62072W        W27299   6.735  38.751  11.633
62073W        W27300  23.250  43.835  10.468
62074W        W27301  27.623  18.104  11.480
62075W        W27302  22.597  35.880  11.579
62076W        W27303  28.761  23.823   4.381
62077W        W27304  22.684  37.365   0.054
62078W        W27305  22.912  21.063  10.453
62079W        W27306  40.237  14.102   0.959
62080W        W27307  13.256  17.305   5.046
62081W        W27308  18.883  34.549   1.774
62082W        W27309   7.805  18.910  10.239
62083W        W27310  41.928  26.400   0.883
62084W        W27311   4.893  27.166   9.971
62085W        W27312   8.684  33.489  10.696
62086W        W27313   8.502  14.099   5.387
62087W        W27314   7.040   3.147  13.681
62088W        W27315  30.747   6.364  13.398
62089W        W27316  39.314  15.328   3.728
62090W        W27317  15.268   4.300   0.678
62091W        W27318  41.583  44.708  14.369
62092W        W27319  21.463   7.734   1.675
62093W        W27320  18.028  21.099   2.366
62094W        W27321  34.550   5.889   1.355
62095W        W27322  13.332  12.467  14.855
62096W        W27323   2.389  23.929   4.895
62097W        W27324  26.195  31.347  11.621
62098W        W27325   6.686  38.945   4.638
62099W        W27326  43.332  38.885   1.247
62100W        W27327   6.942  42.793   3.216
62101W        W27328   5.994   4.359  13.637
62102W        W27329  42.431  24.246  14.835
62103W        W27330  37.531  40.367   1.898
62104W        W27331   2.046  32.609  12.468
62105W        W27332  43.461   6.799   9.695
62106W        W27333  35.971  11.110   2.707
62107W        W27334  13.720  34.047   0.159
62108W        W27335  35.544  26.581   2.757
62109W        W27336  39.804  29.616   3.486
62110W        W27337   4.552  31.423   3.400
62111W        W27338   3.165  11.619  11.137
62112W        W27339  34.907  22.488   0.486
62113W        W27340  36.124   6.947   4.129
62114W        W27341  23.577  23.770   1.227
62115W        W27342  22.779  34.987  11.631
62116W        W27343  29.615  44.219   2.757
62117W        W27344  14.183  10.378   1.346
62118W        W27345  42.814  20.926   1.989
62119W        W27346  18.592  23.113  13.754
62120W        W27347  18.578  30.982  10.641
62121W        W27348  35.777  10.031  10.253
62122W        W27349  18.615  28.163   0.816
62123W        W27350  23.347  26.074   3.591
62124W        W27351  44.344  29.561   1.485
62125W        W27352  39.820  44.699  11.560
62126W        W27353  41.335  30.837  12.598
62127W        W27354  13.853  44.474   0.478
62128W        W27355  33.587   8.769   1.802
62129W        W27356  29.953  41.072   3.657
62130W        W27357  27.561  36.905  14.920
62131W        W27358  11.495   8.714   2.763
62132W        W27359   0.653  12.821   2.774
62133W        W27360  19.327   2.251  14.266
62134W        W27361  12.629  15.688  13.821
62135W        W27362  14.599  17.530  13.844
62136W        W27363  36.918  35.446   2.239
62137W        W27364  23.123  44.193  10.812
62138W        W27365  33.695  34.683  10.778
62139W        W27366  42.536   3.272   0.752
62140W        W27367  27.757  20.697  12.442
62141W        W27368  37.330  15.938  10.322
62142W        W27369   2.678  17.288   2.304
62143W        W27370   3.531  20.195   4.283
62144W        W27371  13.194  43.969   1.931
62145W        W27372   9.179  10.387  13.905
62146W        W27373  35.108  36.435  11.951
62147W        W27374  38.214  31.723   3.275
62148W        W27375  12.681  33.327   0.536
62149W        W27376  22.011  37.067   3.713
62150W        W27377  41.054  42.277  11.081
62151W        W27378   5.562  24.325   2.740
62152W        W27379  41.238  15.999   1.142
62153W        W27380   5.828  29.122  13.846
62154W        W27381  39.586  38.587  12.570
62155W        W27382  10.835   6.667  11.529
62156W        W27383  14.162  32.564   0.852
62157W        W27384  15.678  10.823   0.175
62158W        W27385  20.818  33.065  11.093
62159W        W27386  21.645   7.189  11.736
62160W        W27387   4.757  31.652   1.734
62161W        W27388  21.993  11.354   0.403
62162W        W27389  27.681  12.554   3.709
62163W        W27390  38.801  14.654  14.460
62164W        W27391   4.685  22.638  14.432
62165W        W27392   8.960  19.029  13.433
62166W        W27393  36.567  29.472  13.021
62167W        W27394   9.859   2.729   1.711
62168W        W27395  44.327  35.429  12.467
62169W        W27396  15.598  33.394   1.886
62170W        W27397   7.793  26.435   4.970
62171W        W27398   5.223  19.093   3.518
62172W        W27399  30.928  24.967   0.918
62173W        W27400   9.286  12.189   0.153
62174W        W27401  33.665   6.716  14.398
62175W        W27402  23.402   1.393   3.169
62176W        W27403  26.550  28.370  10.357
62177W        W27404  16.350  16.084  12.368
62178W        W27405  14.841   1.028  14.114
62179W        W27406   2.681  42.633  13.480
62180W        W27407  35.925   2.015  11.671
62181W        W27408  12.202   9.375   1.188
62182W        W27409  27.711   0.946   0.026
62183W        W27410  21.949   0.573   3.225
62184W        W27411  15.520   4.213   4.336
62185W        W27412  19.853  35.868  13.005
62186W        W27413  19.590   5.431  13.401
62187W        W27414  29.073  18.196  12.169
62188W        W27415  29.005  12.457  10.296
62189W        W27416  13.788  19.584  14.263
62190W        W27417   9.588  21.896   4.102
62191W        W27418  30.588  30.042  12.204
62192W        W27419   3.333  26.238  12.151
62193W        W27420   1.041  44.324   3.154
62194W        W27421   3.353  16.318   4.540
62195W        W27422  21.164  40.690   0.054
62196W        W27423  23.113  17.259   1.878
62197W        W27424  31.758  39.928   4.995
62198W        W27425  39.506  20.703   1.314
62199W        W27426  19.529  27.115  12.649
62200W        W27427  22.708   6.993   2.458
62201W        W27428  35.135  11.834   3.316
62202W        W27429   8.988   8.588  13.932
62203W        W27430  12.147  26.469   1.010
62204W        W27431  25.082   9.381   0.842
62205W        W27432  30.707  27.444   1.144
62206W        W27433   6.078  21.084   2.686
62207W        W27434  13.726  25.400   2.316
62208W        W27435   8.411  24.492  12.017
62209W        W27436  24.002  14.606   1.685
62210W        W27437   9.750  21.035   3.358
62211W        W27438   4.015   2.790   2.262
62212W        W27439  33.108  42.768  10.702
62213W        W27440  16.831  16.137   2.505
62214W        W27441  25.446  26.824   2.746
62215W        W27442  44.329  32.214   1.026
62216W        W27443   1.466  34.984   0.144
62217W        W27444  34.673   7.868   1.307
62218W        W27445   8.698  28.164  11.133
62219W        W27446  10.696  29.434   4.547
62220W        W27447   3.418   7.915  11.410
62221W        W27448   4.242   7.781   2.407
62222W        W27449  23.317  25.481   3.196
62223W        W27450  15.492  42.345  14.259
62224W        W27451  34.491  13.619   0.956
62225W        W27452   9.671   0.847   2.357
62226W        W27453  10.390  34.438  13.416
62227W        W27454   0.498  32.393  14.890
62228W        W27455  26.495  22.033   4.124
62229W        W27456  11.158  37.175  13.582
62230W        W27457   4.309   1.295  13.149
62231W        W27458  29.087  37.551   3.019
62232W        W27459  32.406  25.548  11.171
62233W        W27460  26.105  30.975   4.388
62234W        W27461  24.304  18.100  10.308
62235W        W27462  17.774  40.968   0.837
62236W        W27463  28.178  29.891   0.389
62237W        W27464  43.062  43.764   0.929
62238W        W27465  17.605   8.368   4.596
62239W        W27466  40.390  41.812  10.562
62240W        W27467  18.681  44.686  11.591
62241W        W27468  17.697  42.491  11.033
62242W        W27469  34.447  10.990  14.390
62243W        W27470  42.464  23.587   1.312
62244W        W27471   9.980  23.493   0.984
62245W        W27472   3.120   8.785   1.206
62246W        W27473  34.000   1.525  11.540
62247W        W27474  24.286   5.817   0.835
62248W        W27475  37.364  24.004  11.564
62249W        W27476   1.480  15.078   0.401
62250W        W27477   4.410  20.193  13.438
62251W        W27478  11.611  42.799  12.645
62252W        W27479  28.121  43.256   4.243
62253W        W27480   0.805  40.311  13.071
62254W        W27481  31.956  39.802  10.885
62255W        W27482   1.950   9.135   1.345
62256W        W27483  33.079  10.558  14.421
62257W        W27484   0.398  27.459   2.294
62258W        W27485  20.513   2.703   0.809
62259W        W27486  37.533   6.201   1.320
62260W        W27487  31.042  31.761  12.508
62261W        W27488  35.120   1.427  12.937
62262W        W27489  13.067   8.936   0.823
62263W        W27490   9.340  41.987   2.737
62264W        W27491  20.163  19.174  11.239
62265W        W27492  41.468  21.980   1.764
62266W        W27493  43.536  22.284  13.472
62267W        W27494  39.833  27.749   3.608
62268W        W27495   8.660  20.045   2.305
62269W        W27496   6.941  12.469  10.699
62270W        W27497  42.767  20.856  13.187
62271W        W27498  26.809   9.627  13.519
62272W        W27499  28.987  26.662   4.022
62273W        W27500  25.855  23.575   1.865
62274W        W27501  12.313  14.975   5.231
62275W        W27502  40.458  42.269   3.302
62276W        W27503   6.265   1.886  12.847
62277W        W27504   7.102  33.431   4.595
62278W        W27505   1.342   0.356  13.242
62279W        W27506  12.250  44.332  14.960
62280W        W27507  33.081  17.700   1.804
62281W        W27508   0.250   8.168  14.325
62282W        W27509  36.781   5.248  12.863
62283W        W27510  42.346  15.331  12.156
62284W        W27511   5.416   0.854   0.904
62285W        W27512  12.730  23.894   3.111
62286W        W27513  29.336  14.767   3.869
62287W        W27514  16.762  26.260   0.358
62288W        W27515  22.523  43.003   4.520
62289W        W27516  26.222   2.276  14.445
62290W        W27517  11.222   0.841  12.455
62291W        W27518  28.240  28.695   2.727
62292W        W27519   3.301  36.040   4.514
62293W        W27520  11.898  33.993  11.281
62294W        W27521  13.019  32.253   2.775
62295W        W27522  40.000  38.955   3.104
62296W        W27523  17.664  20.283   4.209
62297W        W27524  38.467  39.812   4.114
62298W        W27525  43.507   1.825  11.163
62299W        W27526  16.125  36.774   3.787
62300W        W27527   0.025  34.942  10.279
62301W        W27528  14.978   1.844  13.365
62302W        W27529  34.963   8.255  13.808
62303W        W27530  15.318   4.805  12.362
62304W        W27531  24.760  31.954  13.452
62305W        W27532  10.690  16.064  13.481
62306W        W27533   8.855  14.373   3.174
62307W        W27534  33.663  35.141   0.096
62308W        W27535  13.267  32.130   0.454
62309W        W27536  18.222  19.171   0.247
62310W        W27537  16.170  27.867  12.923
62311W        W27538  17.103  31.912  12.190
62312W        W27539  13.209  43.865   3.438
62313W        W27540  26.152   4.376   2.356
62314W        W27541  38.077  32.814   1.764
62315W        W27542   0.873  12.897   4.255
62316W        W27543  37.340  39.128   3.126
62317W        W27544  35.634  31.896  14.932
62318W        W27545   8.714   8.052  11.676
62319W        W27546  43.313  28.589   0.462
62320W        W27547  27.475  15.154   9.791
62321W        W27548   2.819  17.993  12.161
62322W        W27549  34.439  28.549  11.591
62323W        W27550  42.024  26.022  10.860
62324W        W27551   2.775   3.512   1.822
62325W        W27552   3.437  27.586  11.529
62326W        W27553   8.762   7.977   4.795
62327W        W27554   6.864   5.622  11.091
62328W        W27555   8.171  10.815  10.831
62329W        W27556  13.236  10.416  11.139
62330W        W27557  14.167   0.359   4.361
62331W        W27558  10.921  20.705   0.668
62332W        W27559  42.735  14.364  13.344
62333W        W27560   5.820   4.178   1.770
62334W        W27561  12.864  30.900   4.336
62335W        W27562   5.698  30.544  12.809
62336W        W27563  34.031  14.724  13.097
62337W        W27564  17.811  29.231   1.356
62338W        W27565  24.504  27.585   1.799
62339W        W27566  43.633   9.237  11.076
62340W        W27567  35.016  21.683   0.698
62341W        W27568  22.212   7.240  12.950
62342W        W27569  23.184  18.798  13.285
62343W        W27570   0.577  39.616  11.125
62344W        W27571   2.726  41.568   2.705
62345W        W27572  35.892  18.513   2.274
62346W        W27573  15.565   0.433   4.980
62347W        W27574  37.430   0.093  14.648
62348W        W27575  20.981  15.282  13.995
62349W        W27576  31.076  37.365   3.232
62350W        W27577  13.021   6.470  12.907
62351W        W27578  14.758  12.057  11.235
62352W        W27579  25.609  19.023  12.982
62353W        W27580  26.511  36.973  11.237
62354W        W27581  13.560  12.086  10.609
62355W        W27582  15.590   9.822   0.718
62356W        W27583  27.995  27.051   3.629
62357W        W27584  39.539  13.961   2.765
62358W        W27585  29.018   7.108   4.153
62359W        W27586  23.316  32.908   0.369
62360W        W27587   7.991  30.984   3.720
62361W        W27588  13.762  37.408  12.412
62362W        W27589  30.311  44.377   0.841
62363W        W27590  11.442  35.651  12.137
62364W        W27591   8.649   3.350  11.898
62365W        W27592  42.020   2.687  11.539
62366W        W27593  29.507  17.467  14.300
62367W        W27594  14.630  37.557  13.358
62368W        W27595  29.766  36.761  12.402
62369W        W27596  13.107  29.480  10.038
62370W        W27597  30.110  11.388  10.348
62371W        W27598  10.214   9.951   1.238
62372W        W27599  17.327  38.504   0.681
62373W        W27600   3.321  35.300   4.944
62374W        W27601  11.675  23.183   1.140
62375W        W27602  43.510  20.138  13.546
62376W        W27603   4.143  40.515   3.241
62377W        W27604   8.321  12.667  14.159
62378W        W27605  14.139  22.737   1.616
62379W        W27606  10.206   8.076   1.152
62380W        W27607  41.625  14.558   2.647
62381W        W27608   1.900  14.555  13.422
62382W        W27609  12.345  37.347   4.356
62383W        W27610  24.544   3.987   5.092
62384W        W27611   5.730  44.347  14.781
62385W        W27612  42.545  12.091  13.465
62386W        W27613  13.604   5.983   3.179
62387W        W27614  34.758  44.884  14.811
62388W        W27615  39.472   0.272  12.872
62389W        W27616  22.188  20.236   0.600
62390W        W27617  30.439  24.907   4.553
62391W        W27618  28.919  26.015   3.431
62392W        W27619  28.923  39.787  14.843
62393W        W27620  17.752  36.410   3.055
62394W        W27621   0.483  40.141  11.105
62395W        W27622  14.786  39.703  11.474
62396W        W27623   3.469  39.570   0.716
62397W        W27624  39.911   5.121  14.211
62398W        W27625  25.214  32.351   1.914
62399W        W27626  38.086  40.367   0.186
62400W        W27627   6.886  34.866  14.325
62401W        W27628  42.302  28.044   0.775
62402W        W27629  12.114  10.335   2.215
62403W        W27630   2.010  16.772  10.778
62404W        W27631   0.370   4.448   4.138
62405W        W27632  37.408  37.895   2.618
62406W        W27633  26.363   6.632  12.801
62407W        W27634  24.722  26.237   4.026
62408W        W27635  43.587  27.477   3.710
62409W        W27636   1.223  25.962   4.079
62410W        W27637  15.591  23.065   0.956
62411W        W27638   8.909  16.360  13.061
62412W        W27639   5.181   9.908  14.489
62413W        W27640  18.268   6.785   2.265
62414W        W27641  38.595  32.931   1.696
62415W        W27642  39.459  40.025  13.083
62416W        W27643  37.424  35.198  11.212
62417W        W27644  35.833   7.854   2.783
62418W        W27645   3.009   7.662   3.855
62419W        W27646  16.066  21.654  13.868
62420W        W27647  42.503   9.952  12.370
62421W        W27648  38.397  30.148   1.220
62422W        W27649  32.657   5.282  13.401
62423W        W27650  20.629  18.546   0.488
62424W        W27651   1.388  21.052  11.423
62425W        W27652  21.549  24.985  13.967
62426W        W27653   7.244  16.671   3.703
62427W        W27654  26.136  17.301  13.658
62428W        W27655  40.464  44.705   0.695
62429W        W27656  44.128   9.136   0.563
62430W        W27657  44.034  14.325  14.352
62431W        W27658   0.548  11.153  14.786
62432W        W27659  12.993  15.835   2.795
62433W        W27660  27.960   0.319   4.294
62434W        W27661  23.080  30.544   3.705
62435W        W27662  37.131   3.406   3.079
62436W        W27663   6.824  10.269  11.012
62437W        W27664  25.150  41.288  11.236
62438W        W27665   5.402  15.361   0.446
62439W        W27666  23.551  30.616   0.998
62440W        W27667  19.303  28.909  12.628
62441W        W27668   9.254  38.335   3.629
62442W        W27669  35.497   0.176   4.199
62443W        W27670  34.304  16.650   4.333
62444W        W27671   3.170  20.683  13.193
62445W        W27672  12.255  43.345  14.816
62446W        W27673  17.713  28.933  10.987
62447W        W27674   9.350   6.851  13.382
62448W        W27675  38.367  32.058   0.278
62449W        W27676  10.618  40.006  14.395
62450W        W27677  21.564  39.741  13.988
62451W        W27678  11.850   1.291   2.674
62452W        W27679  20.306  29.352   4.172
62453W        W27680  18.169  38.984   1.838
62454W        W27681  23.668  25.661  12.675
62455W        W27682   4.643  30.868  12.377
62456W        W27683  14.050   7.206  11.201
62457W        W27684  30.645  41.650  14.318
62458W        W27685   6.393   3.303   1.904
62459W        W27686  27.514  35.055   2.997
62460W        W27687  25.602  12.327  10.733
62461W        W27688  17.696  36.432  10.657
62462W        W27689  34.376  37.286   2.163
62463W        W27690   2.719   0.514   2.209
62464W        W27691  13.342  20.769   9.880
62465W        W27692  11.085  28.268   2.749
62466W        W27693  10.528   7.701  12.075
62467W        W27694  44.212   2.214  13.348
62468W        W27695  16.893  12.594   0.864
62469W        W27696  17.312  42.514  10.701
62470W        W27697  29.966  39.380  10.946
62471W        W27698  27.075   4.168  11.178
62472W        W27699  15.260  19.057  13.031
62473W        W27700  36.540   5.769   1.256
62474W        W27701  41.247  26.713  14.527
62475W        W27702   2.874  21.238  11.086
62476W        W27703  19.150   8.853   2.339
62477W        W27704  32.871  30.191  11.509
62478W        W27705  31.722  44.852  11.632
62479W        W27706  37.493  25.815  11.965
62480W        W27707  11.557  27.381   1.415
62481W        W27708  19.735  10.272  10.953
62482W        W27709  12.312  42.326  14.713
62483W        W27710  11.801  20.366  14.289
62484W        W27711  11.295   9.344   1.078
62485W        W27712   7.538  44.205  12.572
62486W        W27713  17.123  23.294   4.933
62487W        W27714  37.605  17.919   4.152
62488W        W27715   9.883   8.673  13.437
62489W        W27716  34.694  43.691  10.830
62490W        W27717  14.230  43.836  10.660
62491W        W27718  24.497  41.897  13.456
62492W        W27719  21.713  36.720  12.797
62493W        W27720  11.971   2.024   2.416
62494W        W27721   4.862   9.793  13.115
62495W        W27722  37.063  42.268   2.347
62496W        W27723  28.254  37.089   0.676
62497W        W27724   5.489   3.973   3.106
62498W        W27725   4.327  42.417   1.830
62499W        W27726  36.088   0.016  10.720
62500W        W27727  31.891   1.301  12.762
62501W        W27728  10.220  44.749   3.148
62502W        W27729   0.402  28.979  12.522
62503W        W27730  12.994  23.483  12.133
62504W        W27731  23.908   5.062  14.285
62505W        W27732   3.988   2.724   9.791
62506W        W27733  39.482  20.561   0.447
62507W        W27734  20.104  18.074  10.437
62508W        W27735  34.541  44.689   4.263
62509W        W27736  32.660   1.076  12.971
62510W        W27737  16.207  25.485  14.319
62511W        W27738  42.503  20.373   0.892
62512W        W27739  32.056  17.429   5.536
62513W        W27740   3.318  29.824  12.387
62514W        W27741  30.625   0.459  11.250
62515W        W27742   8.896  25.011   0.509
62516W        W27743  34.392  36.602  14.059
62517W        W27744  38.221  18.333   2.725
62518W        W27745  33.424   4.790  10.645
62519W        W27746  12.683   7.811   1.867
62520W        W27747  18.987  17.923   3.883
62521W        W27748  42.136  40.558   0.854
62522W        W27749  11.557  36.434  10.991
62523W        W27750  15.743  27.021   4.831
62524W        W27751  34.944  14.104   3.388
62525W        W27752  40.835  42.714   3.400
62526W        W27753   4.494  27.321  10.297
62527W        W27754   5.233  16.362   3.766
62528W        W27755  12.787  30.033  13.808
62529W        W27756  33.199  12.328  14.838
62530W        W27757  28.334  30.099   5.228
62531W        W27758  27.927  14.834   1.653
62532W        W27759  16.430  37.050   1.496
62533W        W27760  28.640   7.454  14.613
62534W        W27761  20.769  17.175  13.397
62535W        W27762  38.908  40.179   3.391
62536W        W27763  39.962  13.366   3.085
62537W        W27764  16.309   4.191  11.142
62538W        W27765  25.858   0.986  14.799
62539W        W27766  20.538  40.509   1.429
62540W        W27767  28.200  28.154  14.439
62541W        W27768  31.383   0.729   2.653
62542W        W27769   5.207   9.227   0.665
62543W        W27770  34.775  17.650   3.731
62544W        W27771  15.607  44.256   3.728
62545W        W27772  34.948  38.324   1.927
62546W        W27773  35.116  34.312   2.138
62547W        W27774  38.930  19.479   3.191
62548W        W27775  31.274   6.366  12.528
62549W        W27776   6.792  34.532   0.783
62550W        W27777  21.932  35.353  11.658
62551W        W27778   0.748  10.828  11.149
62552W        W27779   5.709  23.095   4.698
62553W        W27780  27.531  13.677  14.926
62554W        W27781  17.830  28.629   2.893
62555W        W27782   8.963  41.476  11.393
62556W        W27783  39.613   8.472   4.524
62557W        W27784  25.253  38.805   0.271
62558W        W27785  30.785  44.971   3.110
62559W        W27786  10.296  36.878  12.503
62560W        W27787  14.592   0.709   2.217
62561W        W27788  36.087  14.771   1.830
62562W        W27789  25.921  39.832   1.130
62563W        W27790  29.418  18.589   3.155
62564W        W27791  42.355  42.475  10.736
62565W        W27792  12.856   8.307  11.914
62566W        W27793  26.055  32.875  13.447
62567W        W27794   7.647  21.159   0.024
62568W        W27795  21.827   3.275   3.559
62569W        W27796  43.781  34.589   0.864
62570W        W27797  15.494  21.228   3.222
62571W        W27798  34.479  24.901   0.491
62572W        W27799  40.029  27.510   2.256
62573W        W27800   8.878   9.173   1.347
62574W        W27801   3.344  14.563   2.896
62575W        W27802  35.651  15.615   1.310
62576W        W27803  38.816  17.696   0.249
62577W        W27804   3.404  14.877   0.136
62578W        W27805   8.410  16.589  13.030
62579W        W27806  24.175   9.185   1.415
62580W        W27807  24.125  33.489  14.307
62581W        W27808   0.142  29.015   4.419
62582W        W27809  19.114  19.183  14.749
62583W        W27810  33.011  38.309  14.645
62584W        W27811   5.788  40.566  11.929
62585W        W27812   2.806  33.446  14.980
62586W        W27813  43.320   6.832  13.389
62587W        W27814   5.230  25.085   2.221
62588W        W27815  37.572  40.859  10.929
62589W        W27816  10.177   8.113  13.750
62590W        W27817  20.387   1.021  11.585
62591W        W27818  41.816  25.448  11.589
62592W        W27819  20.521  23.156  12.626
62593W        W27820  43.700  15.858  13.941
62594W        W27821  44.345   9.272  12.832
62595W        W27822  43.228   8.280   1.250
62596W        W27823   5.152   4.990   3.271
62597W        W27824  39.317  10.581  11.562
62598W        W27825  40.794  19.597   0.955
62599W        W27826  14.658  39.042  12.242
62600W        W27827   1.354  24.064   1.021
62601W        W27828  35.912  35.426   1.394
62602W        W27829   6.643  32.228   3.238
62603W        W27830  26.564  35.376   2.242
62604W        W27831  23.544  44.209  13.606
62605W        W27832  10.417   1.216   3.860
62606W        W27833   5.124  34.856  11.026
62607W        W27834  21.935  14.225   2.202
62608W        W27835  28.004  37.191   0.213
62609W        W27836  39.998  16.168  11.965
62610W        W27837   3.679  36.057  11.223
62611W        W27838  30.654   0.700   4.540
62612W        W27839  43.923  18.140   3.113
62613W        W27840  26.102  28.379  12.877
62614W        W27841  29.681  10.845   3.974
62615W        W27842  18.086  16.886  12.519
62616W        W27843  44.353  27.447   2.168
62617W        W27844  28.689  23.075  10.773
62618W        W27845  42.398  20.232  14.922
62619W        W27846  35.493   5.788  11.714
62620W        W27847   1.171  21.869   2.721
62621W        W27848  11.918  30.588  11.144
62622W        W27849  24.095   9.357   1.893
62623W        W27850  29.668   8.170  13.052
62624W        W27851  13.285  29.206   4.478
62625W        W27852  23.522  32.610  13.542
62626W        W27853  11.101  24.566   4.530
62627W        W27854   3.185  18.618   0.838
62628W        W27855   0.632   9.337  11.263
62629W        W27856  39.570   1.421  10.463
62630W        W27857  28.617   3.909   3.145
62631W        W27858  16.350  17.406  11.215
62632W        W27859  21.933   3.819  13.843
62633W        W27860  36.970   6.189  13.417
62634W        W27861  39.868  14.032   2.260
62635W        W27862  12.017  38.333  11.971
62636W        W27863   2.096   6.435   4.948
62637W        W27864  38.265  21.528  10.571
62638W        W27865   9.941  24.003   0.993
62639W        W27866  12.238   0.719   4.714
62640W        W27867  21.286  41.295  11.988
62641W        W27868  43.192  18.555   9.804
62642W        W27869  29.864  19.790   3.118
62643W        W27870  25.409   6.106  12.831
62644W        W27871  27.326   5.468  11.938
62645W        W27872  40.042   9.328   4.000
62646W        W27873  12.842  42.378   3.298
62647W        W27874  43.499  42.988   1.263
62648W        W27875   5.763  30.533   3.332
62649W        W27876  44.696   8.353   2.195
62650W        W27877  16.927   7.914  13.962
62651W        W27878  32.941  11.955   2.290
62652W        W27879   2.987  36.455  10.341
62653W        W27880  22.270  13.154  13.948
62654W        W27881  19.244  36.437  13.822
62655W        W27882  24.959  22.693   3.893
62656W        W27883  20.781  33.041  14.259
62657W        W27884  13.656  10.791   2.620
62658W        W27885  22.559  38.039   4.528
62659W        W27886  35.443  24.453  11.256
62660W        W27887  35.193  17.829  11.824
62661W        W27888  21.087  34.837   3.177
62662W        W27889  29.006  30.594  12.746
62663W        W27890  21.992  31.345  11.966
62664W        W27891  28.271  15.189   1.933
62665W        W27892  14.624  42.845  12.227
62666W        W27893  31.157  15.420   1.786
62667W        W27894  25.269   8.685  13.763
62668W        W27895   1.811   6.214  12.431
62669W        W27896  37.478  27.327   4.214
62670W        W27897  26.463  29.955   2.440
62671W        W27898   2.551  23.678  10.617
62672W        W27899  44.405  21.699  11.287
62673W        W27900   0.989  43.127   0.018
62674W        W27901   5.966  15.235   5.360
62675W        W27902  25.910  38.460   0.876
62676W        W27903  28.410  44.848  14.950
62677W        W27904  42.281  23.126   3.623
62678W        W27905   0.174   3.481   4.122
62679W        W27906  21.030  32.402  12.942
62680W        W27907   1.387  19.202  13.421
62681W        W27908  44.008   9.325   2.439
62682W        W27909   4.853  39.457   0.309
62683W        W27910  44.405  22.280  10.004
62684W        W27911  22.578  30.225   1.252
62685W        W27912  14.356  29.850   0.826
62686W        W27913  13.599  18.565  11.941
62687W        W27914   3.476   4.831   4.665
62688W        W27915  32.061   5.463  14.018
62689W        W27916  12.522  23.855   0.288
62690W        W27917  14.768  28.038  14.368
62691W        W27918  37.556  18.665  14.427
62692W        W27919  44.614  44.877   3.579
62693W        W27920  38.324  26.254  10.452
62694W        W27921   9.181  27.320   4.706
62695W        W27922  24.055  28.930  12.186
62696W        W27923  37.828  24.596   2.851
62697W        W27924   2.147  15.182  12.444
62698W        W27925   3.464  36.588   2.814
62699W        W27926  21.498  15.273  12.132
62700W        W27927  14.453  35.843   3.792
62701W        W27928  31.250  10.768   2.363
62702W        W27929   5.674   9.111   4.745
62703W        W27930  25.050  43.398  11.934
62704W        W27931   3.747  39.867   2.264
62705W        W27932  35.842  31.096   2.790
62706W        W27933  36.624  11.831  10.821
62707W        W27934  23.586  44.124   9.670
62708W        W27935  22.617  21.516  10.649
62709W        W27936  38.557  12.840  12.537
62710W        W27937  38.204  19.100   4.289
62711W        W27938  20.055  33.400   3.922
62712W        W27939  39.503  26.875   3.731
62713W        W27940  39.315   3.302   3.936
62714W        W27941  40.117  43.852  14.867
62715W        W27942  38.880  14.400   4.146
62716W        W27943  20.187   8.603   3.866
62717W        W27944   0.848  28.641  11.196
62718W        W27945   0.180   7.709   2.770
62719W        W27946  36.536  28.239   0.857
62720W        W27947  34.395   0.253  14.835
62721W        W27948   8.162  41.113  14.322
62722W        W27949  26.261  18.721  14.940
62723W        W27950  40.866  36.832   0.470
62724W        W27951   2.277  13.304  12.032
62725W        W27952  20.768  43.547   2.864
62726W        W27953  35.367  31.246   2.012
62727W        W27954  12.254   0.380   0.008
62728W        W27955  38.240   9.434  14.907
62729W        W27956  39.335   1.440   3.632
62730W        W27957  21.306  30.161   1.803
62731W        W27958   1.817   0.412   0.257
62732W        W27959   6.767  34.286   4.093
62733W        W27960   8.108  29.627   4.332
62734W        W27961  18.767  33.788   3.840
62735W        W27962  41.904  37.537   1.595
62736W        W27963  40.655  19.343   1.886
62737W        W27964  12.889  33.635  12.315
62738W        W27965   1.032  11.313  12.936
62739W        W27966  12.251  37.927   1.791
62740W        W27967   3.457  33.002   3.590
62741W        W27968   6.468  36.407  14.994
62742W        W27969  40.344  10.885   1.447
62743W        W27970  43.900   3.086   4.161
62744W        W27971  29.340  44.613   5.196
62745W        W27972  33.770  33.402   2.102
62746W        W27973  42.946  13.317   2.281
62747W        W27974  43.980  19.412   0.938
62748W        W27975  11.811  23.522  11.489
62749W        W27976  31.915  42.449   2.167
62750W        W27977  32.641  26.998   2.767
62751W        W27978  29.779  17.154  12.415
62752W        W27979  22.948  14.657  11.785
62753W        W27980  17.300  16.973  11.873
62754W        W27981  41.319  35.412   4.145
62755W        W27982   7.751  30.781  12.138
62756W        W27983   6.164   5.866   4.194
62757W        W27984  18.278  35.952  11.136
62758W        W27985  36.654  44.077  13.427
62759W        W27986  34.531   9.129   1.778
62760W        W27987  33.358  20.718  12.976
62761W        W27988  18.782  38.055  14.822
62762W        W27989  10.402  25.632  14.080
62763W        W27990   2.025  34.031  11.605
62764W        W27991  31.120   6.136  14.516
62765W        W27992  22.001  40.263   4.886
62766W        W27993  15.605  37.305  14.389
62767W        W27994   6.267   9.135   2.924
62768W        W27995  30.954   0.223  14.424
62769W        W27996  27.056   3.694  10.993
62770W        W27997   7.835   7.274  11.882
62771W        W27998  11.867  11.170  13.378
62772W        W27999  31.154  28.721  11.957
62773W        W28000  30.156  18.483   3.703
62774W        W28001  20.551  44.042   0.912
62775W        W28002  40.918  24.087   2.247
62776W        W28003  24.394  28.540   2.708
62777W        W28004   1.224  24.904   0.354
62778W        W28005   0.693  25.328   3.243
62779W        W28006  40.313  17.162  11.898
62780W        W28007  13.652  34.090   3.244
62781W        W28008  36.999  40.354  13.045
62782W        W28009  17.837  21.141   2.855
62783W        W28010  34.211  38.369  11.095
62784W        W28011   8.291  28.206  13.816
62785W        W28012  33.165  20.264  11.668
62786W        W28013  28.616   0.969  12.636
62787W        W28014   3.218  14.285   4.113
62788W        W28015  19.587   5.713   1.845
62789W        W28016  36.634  24.892   1.987
62790W        W28017  42.740  44.198  12.376
62791W        W28018  44.801  37.320   3.601
62792W        W28019   7.696  41.728   2.396
62793W        W28020   8.108   8.712  11.566
62794W        W28021  33.077  39.035  11.615
62795W        W28022  12.322  13.834   0.276
62796W        W28023  22.488   7.929   2.926
62797W        W28024  12.373  43.981   2.841
62798W        W28025  36.269  24.104  12.408
62799W        W28026  43.303  19.876  12.250
62800W        W28027  31.713  42.620   4.069
62801W        W28028  13.424  40.941   4.566
62802W        W28029  33.530  27.947  11.587
62803W        W28030   1.969  36.631  14.534
62804W        W28031  36.390   2.273   4.314
62805W        W28032  34.543  37.406  12.493
62806W        W28033  43.795  24.436   2.652
62807W        W28034  27.906  39.369   3.634
62808W        W28035  43.609  18.269   4.896
62809W        W28036  19.796  29.358  13.988
62810W        W28037  20.922   3.931  14.119
62811W        W28038  32.203   0.815  10.654
62812W        W28039  14.182  11.346   4.606
62813W        W28040   4.011  17.671   4.211
62814W        W28041   4.020  33.346  14.901
62815W        W28042  24.005  37.481   1.820
62816W        W28043   3.470  27.997   1.113
62817W        W28044  34.885  14.628  11.087
62818W        W28045  24.788   5.108  14.317
62819W        W28046  22.988  43.852   3.431
62820W        W28047  34.112  21.659  14.446
62821W        W28048  16.187  25.784  14.746
62822W        W28049   0.034  19.575   3.171
62823W        W28050  42.053  16.309  13.082
62824W        W28051  19.210  19.277   3.074
62825W        W28052  16.153   1.389   1.468
62826W        W28053   9.607  15.248  13.419
62827W        W28054  12.829  18.188   1.310
62828W        W28055   3.362  37.270   4.218
62829W        W28056  38.352   8.966   0.719
62830W        W28057  44.562  34.387   3.350
62831W        W28058   1.111  22.201  14.855
62832W        W28059  44.316  36.888   0.413
62833W        W28060  43.798   5.354   2.249
62834W        W28061  37.542  30.931  10.772
62835W        W28062  23.443  38.139   1.698
62836W        W28063  25.039  23.205  12.575
62837W        W28064  42.403  36.421  13.304
62838W        W28065  44.808   0.330  13.374
62839W        W28066  20.002  36.519  13.382
62840W        W28067  28.248  25.129   0.411
62841W        W28068  21.312  38.996   3.189
62842W        W28069  37.491  42.863   0.978
62843W        W28070  26.319  31.068  13.055
62844W        W28071  11.623  28.771  13.831
62845W        W28072  28.851  16.188  14.562
62846W        W28073  36.506  33.426   3.792
62847W        W28074  12.163  16.635  14.211
62848W        W28075  14.341  25.233  14.381
62849W        W28076  32.004  21.052  13.043
62850W        W28077  17.159   3.816  14.951
62851W        W28078  33.068  29.695  13.435
62852W        W28079  34.024  18.172   3.715
62853W        W28080  15.112  28.958   3.403
62854W        W28081   2.584  23.406  13.108
62855W        W28082  31.400  22.458   3.176
62856W        W28083  15.591  35.354   4.496
62857W        W28084   6.409   6.008   0.675
62858W        W28085   5.705  14.194   2.713
62859W        W28086  19.537  17.091  14.003
62860W        W28087  11.827   3.693   0.857
62861W        W28088  33.201  28.489   3.156
62862W        W28089  41.377  12.644  14.349
62863W        W28090  10.382  22.196  10.061
62864W        W28091  13.361  14.707  13.276
62865W        W28092   9.259  11.426   3.117
62866W        W28093  15.373  27.029   0.759
62867W        W28094  18.672  11.725   4.721
62868W        W28095  29.780  30.026   0.445
62869W        W28096  43.589  23.652   4.690
62870W        W28097   4.480   2.199   4.181
62871W        W28098  23.185   3.532  10.853
62872W        W28099   7.450  40.181   3.352
62873W        W28100   0.236   6.275   1.433
62874W        W28101  26.161  40.547   0.757
62875W        W28102  26.989  38.595   3.151
62876W        W28103  32.224  14.821   3.513
62877W        W28104  18.310  33.234   1.839
62878W        W28105  13.622   5.631  10.718
62879W        W28106   6.473  30.397   9.758
62880W        W28107  39.124  11.745  14.951
62881W        W28108   2.193  22.659  11.465
62882W        W28109  12.720  10.544  13.309
62883W        W28110  33.335  22.124  14.408
62884W        W28111  37.513  35.142  14.983
62885W        W28112  44.340  38.047   0.025
62886W        W28113  35.188   9.818   1.411
62887W        W28114  32.740  25.071  11.071
62888W        W28115  15.223  15.815  13.869
62889W        W28116  15.971  30.142  14.601
62890W        W28117  35.806  18.264   4.211
62891W        W28118  10.901  23.443  13.531
62892W        W28119  11.434  26.929  11.153
62893W        W28120  24.634  27.682  14.456
62894W        W28121   5.894  26.303   0.644
62895W        W28122  17.013  15.445  11.199
62896W        W28123  32.163  41.149  10.268
62897W        W28124   1.843  44.296  13.772
62898W        W28125   6.641  14.653   1.468
62899W        W28126   5.640  22.669  11.148
62900W        W28127  39.403  21.318  13.584
62901W        W28128  35.090  40.960  11.958
62902W        W28129  10.182  20.824  12.970
62903W        W28130  44.323  20.511  11.109
62904W        W28131  29.927   2.997   1.751
62905W        W28132  10.282  23.015  14.833
62906W        W28133   2.649   2.815   5.024
62907W        W28134  25.756   4.215  12.920
62908W        W28135  11.877  21.004  13.441
62909W        W28136  33.614  36.832   0.401
62910W        W28137   4.087  16.054   0.804
62911W        W28138  23.044  15.798   0.325
62912W        W28139   9.608  29.097   3.201
62913W        W28140  21.427  18.493   1.374
62914W        W28141   9.319  32.404  13.013
62915W        W28142  13.145  14.031  12.925
62916W        W28143  23.055  37.793   2.368
62917W        W28144  31.309   5.354   0.869
62918W        W28145  40.158  26.015   1.421
62919W        W28146  13.676   3.311   0.739
62920W        W28147   7.334   1.243   4.763
62921W        W28148  11.342  10.395  11.173
62922W        W28149   6.691   6.405  14.360
62923W        W28150  12.387  21.531  10.456
62924W        W28151  20.192  38.834  11.871
62925W        W28152   0.685  37.118  14.276
62926W        W28153  43.049  40.362   1.074
62927W        W28154  28.043  23.430   3.459
62928W        W28155  11.943  13.089  10.993
62929W        W28156   2.515  31.061  11.958
62930W        W28157   4.830  40.871   3.979
62931W        W28158  25.928  26.416   2.301
62932W        W28159  42.427  23.154   1.639
62933W        W28160   8.763  11.817   3.347
62934W        W28161  34.631  38.495  14.491
62935W        W28162  40.933   7.522  14.376
62936W        W28163  43.476  13.375   2.831
62937W        W28164  39.865   4.939  14.951
62938W        W28165   6.294  41.920  13.413
62939W        W28166  23.765  29.999  12.043
62940W        W28167   1.680   9.925  10.945
62941W        W28168   5.473  22.697   4.957
62942W        W28169  17.130   9.778  10.468
62943W        W28170  41.332  40.254  12.096
62944W        W28171  35.108  34.170   3.243
62945W        W28172   4.347  34.201   1.387
62946W        W28173  24.627   5.767   0.423
62947W        W28174   4.826   1.266  13.257
62948W        W28175  28.089  19.548  12.507
62949W        W28176  39.382  14.549   1.942
62950W        W28177  24.303   9.309   3.857
62951W        W28178  27.131   2.861   1.808
62952W        W28179  32.363  25.169   0.634
62953W        W28180  13.356   2.863   4.847
62954W        W28181   8.103   8.199  11.592
62955W        W28182  42.500   6.336   5.457
62956W        W28183  30.316  42.456   2.864
62957W        W28184  28.172  23.148  11.103
62958W        W28185  22.064   9.641  13.453
62959W        W28186  29.681  27.449   1.357
62960W        W28187  23.838  37.197  12.533
62961W        W28188  29.048  28.519   3.521
62962W        W28189   6.037  24.019  13.952
62963W        W28190   6.478  15.616   1.695
62964W        W28191   9.137  18.719   2.237
62965W        W28192   6.673  43.267   3.723
62966W        W28193  15.986  11.548   0.947
62967W        W28194  12.154  12.724   1.471
62968W        W28195  20.713   2.684   1.288
62969W        W28196  37.172  37.013   2.281
62970W        W28197  37.326  22.794  13.329
62971W        W28198   0.720   1.364  11.080
62972W        W28199  17.669  20.380   1.405
62973W        W28200  25.188  31.707  12.382
62974W        W28201  23.052  14.492  13.121
62975W        W28202  36.609  24.695   0.774
62976W        W28203  33.413  28.123   0.441
62977W        W28204   6.611  21.086   2.666
62978W        W28205  17.424  25.480  11.442
62979W        W28206  24.480   2.983   3.757
62980W        W28207   0.717  27.794  14.564
62981W        W28208  17.293  17.270   3.256
62982W        W28209  31.409  37.468  13.967
62983W        W28210  40.399  23.795   5.014
62984W        W28211  17.709  32.389  13.945
62985W        W28212  12.209   2.910   3.223
62986W        W28213   5.300  13.723  11.552
62987W        W28214   3.630  29.536   2.372
62988W        W28215   3.519  30.971  13.905
62989W        W28216  27.438  24.930   3.172
62990W        W28217  16.798  19.581  11.502
62991W        W28218  15.658  35.458   9.417
62992W        W28219  25.214  31.915  10.596
62993W        W28220  31.526  20.024  12.054
62994W        W28221  37.831  20.227  13.457
62995W        W28222  34.417  34.631   1.187
62996W        W28223   1.765   0.415   1.392
62997W        W28224  19.962   2.334   2.757
62998W        W28225   8.850  13.719  13.421
62999W        W28226  24.911  33.865  12.766
63000W        W28227   6.691  42.837  10.736
63001W        W28228  12.570  20.246  14.778
63002W        W28229  44.689   3.296  13.860
63003W        W28230  17.283  14.246  14.481
63004W        W28231  37.798  31.950   4.110
63005W        W28232   0.036  43.907  11.543
63006W        W28233  22.542  27.925   0.195
63007W        W28234  43.372  30.437  14.913
63008W        W28235  34.639  18.695  14.812
63009W        W28236   4.239  29.364   4.528
63010W        W28237  20.469  34.584  10.993
63011W        W28238  34.321  15.626  12.154
63012W        W28239  28.677   7.960   0.441
63013W        W28240  29.433  35.958  12.044
63014W        W28241  41.954  17.053  10.891
63015W        W28242  24.683  41.717  12.429
63016W        W28243  18.809  11.141  11.156
63017W        W28244  18.524  36.966   4.294
63018W        W28245  29.694   8.236   1.251
63019W        W28246   2.321  15.643  11.630
63020W        W28247  17.364  44.498  14.968
63021W        W28248  18.248  36.766  14.738
63022W        W28249  25.824   8.389  12.483
63023W        W28250  12.884  16.823   4.227
63024W        W28251  44.399   7.891  13.402
63025W        W28252  19.784  13.300   0.269
63026W        W28253  29.009  32.302   2.709
63027W        W28254  10.936  11.187  14.243
63028W        W28255  44.559  41.526  14.407
63029W        W28256  21.269   4.769  10.052
63030W        W28257  32.508  33.072  12.432
63031W        W28258   4.366   6.989  13.529
63032W        W28259   6.870  19.353   3.247
63033W        W28260  44.099  34.595  11.121
63034W        W28261  19.039  18.426   1.258
63035W        W28262  37.172  29.240  13.866
63036W        W28263  17.847  26.773   1.316
63037W        W28264  33.138  35.799   4.168
63038W        W28265   1.338   8.823  11.855
63039W        W28266   8.328  28.773  11.922
63040W        W28267  13.500  42.586   0.311
63041W        W28268   7.711  30.644  14.258
63042W        W28269  16.445  22.007  13.739
63043W        W28270  29.515  34.041  10.837
63044W        W28271  32.357  30.549  13.812
63045W        W28272  22.609  14.759   0.730
63046W        W28273  15.765  41.034  12.922
63047W        W28274   9.872  41.494  14.894
63048W        W28275  37.355  31.090  11.222
63049W        W28276  22.197  41.354   1.765
63050W        W28277  15.132  33.540  12.737
63051W        W28278  16.327  40.698   2.847
63052W        W28279   2.197  33.911  14.302
63053W        W28280  13.880  38.534  13.980
63054W        W28281  13.606   4.739  11.336
63055W        W28282  13.764  35.921   0.980
63056W        W28283  15.707  18.530   1.191
63057W        W28284  34.446  38.951  11.264
63058W        W28285  15.286  41.513   1.352
63059W        W28286  10.871  43.392   0.186
63060W        W28287  31.917  22.640   2.379
63061W        W28288  40.019  43.079   3.873
63062W        W28289  12.959  12.352   2.672
63063W        W28290  20.706   4.609   1.363
63064W        W28291   8.285  38.844  11.135
63065W        W28292  21.127  19.225  13.886
63066W        W28293  21.208   9.144  11.113
63067W        W28294  44.958   1.972   2.401
63068W        W28295  15.134  21.980  10.693
63069W        W28296  12.792   1.320  13.911
63070W        W28297  16.847  34.042  14.544
63071W        W28298  28.201   7.735   0.362
63072W        W28299  11.155  36.662   4.026
63073W        W28300  35.640  37.876   4.367
63074W        W28301  21.886  27.695  14.121
63075W        W28302  42.437   6.982   1.712
63076W        W28303   0.353  21.985  13.865
63077W        W28304  26.149  11.818  11.780
63078W        W28305  36.801  12.081   3.615
63079W        W28306   9.599  19.645   1.296
63080W        W28307  19.584  11.774   3.658
63081W        W28308   1.535  37.765   0.287
63082W        W28309  32.227  28.627   4.159
63083W        W28310  12.923  34.348  13.717
63084W        W28311  18.970  29.734  14.310
63085W        W28312  32.719  20.288  13.419
63086W        W28313  27.333  21.266   1.244
63087W        W28314   9.828   4.207  11.662
63088W        W28315   2.859  38.501   3.822
63089W        W28316  15.256   9.990   1.288
63090W        W28317   1.149  30.427   5.078
63091W        W28318   2.475  37.249  14.114
63092W        W28319  16.049   6.932  13.506
63093W        W28320  22.741   3.444  13.541
63094W        W28321  38.886  22.567   2.555
63095W        W28322   8.643  21.494   0.981
63096W        W28323  16.842   6.113   0.279
63097W        W28324  37.480   1.312   2.958
63098W        W28325  20.419  12.688  12.501
63099W        W28326  25.444  15.868  14.953
63100W        W28327  14.660  18.494   4.923
63101W        W28328  36.112  16.277  11.931
63102W        W28329   1.771   2.939  12.041
63103W        W28330  23.577  43.480  11.082
63104W        W28331   9.662  27.015  11.468
63105W        W28332  14.925  44.860   4.660
63106W        W28333  41.039  39.581  12.790
63107W        W28334   3.815   6.258   3.920
63108W        W28335  17.697  43.302   0.404
63109W        W28336  32.812   6.034  11.073
63110W        W28337  34.945  15.476  10.689
63111W        W28338  31.071  15.118  14.255
63112W        W28339  33.547  11.604  13.040
63113W        W28340  41.240  32.488   4.190
63114W        W28341  42.435   5.690  12.230
63115W        W28342  44.264   3.854  10.735
63116W        W28343  44.407  21.714   3.575
63117W        W28344  43.801  22.397   4.205
63118W        W28345  11.937   4.213  13.351
63119W        W28346  23.602   8.119  14.454
63120W        W28347  21.331  37.007   2.343
63121W        W28348  17.272   7.580  14.192
63122W        W28349  18.537  23.592  13.939
63123W        W28350  32.152  24.824  13.492
63124W        W28351  10.200   9.662  11.560
63125W        W28352  14.182  37.050   4.931
63126W        W28353  29.181  24.852   0.370
63127W        W28354  32.906  20.994  12.906
63128W        W28355  11.184   2.922  11.966
63129W        W28356   5.201   9.817  10.430
63130W        W28357  24.233  40.637   1.943
63131W        W28358  40.744  25.657   2.373
63132W        W28359  21.410  14.040  13.450
63133W        W28360  39.582   5.353  14.846
63134W        W28361  29.919   9.886   0.826
63135W        W28362  35.942   1.403   3.277
63136W        W28363  29.010   2.026   1.416
63137W        W28364  40.565  40.852   1.921
63138W        W28365  27.470   7.367  12.524
63139W        W28366  16.486  11.436   3.235
63140W        W28367  27.257  29.784   3.698
63141W        W28368  15.172  36.409  13.541
63142W        W28369   8.417  31.923  10.500
63143W        W28370  33.468  43.449   2.716
63144W        W28371  37.296  29.169  12.902
63145W        W28372  42.890  10.881   4.538
63146W        W28373  39.085   0.892  13.758
63147W        W28374  26.056  34.366  12.569
63148W        W28375  20.983  22.709  12.021
63149W        W28376  42.524  36.906  13.500
63150W        W28377  41.475  42.240   3.167
63151W        W28378  22.324   9.795  13.862
63152W        W28379  13.314  13.108   2.152
63153W        W28380   0.990  24.135  12.578
63154W        W28381  36.997   1.743   0.264
63155W        W28382  36.450  43.461   1.234
63156W        W28383  38.732  35.322  14.732
63157W        W28384   0.890  32.198  12.990
63158W        W28385   5.861   9.164   3.867
63159W        W28386  25.368  44.729  11.923
63160W        W28387   7.785  21.124   4.677
63161W        W28388   4.243  11.368  12.489
63162W        W28389  33.867  27.202   1.314
63163W        W28390  23.778   1.607   3.500
63164W        W28391  18.035  42.166   3.717
63165W        W28392   6.354   4.376   2.866
63166W        W28393  40.630  24.941  14.980
63167W        W28394  34.900  33.056   3.310
63168W        W28395   8.861  43.813   3.693
63169W        W28396  11.867  21.235  14.557
63170W        W28397   2.805  22.648   2.268
63171W        W28398  42.751  36.769  11.282
63172W        W28399  34.864   6.894   3.693
63173W        W28400  29.096  30.183  12.416
63174W        W28401  40.991   1.963   0.389
63175W        W28402   2.581  17.723   3.209
63176W        W28403  15.238  36.523  12.106
63177W        W28404  25.071   5.469   0.181
63178W        W28405   5.088  14.076   0.539
63179W        W28406  43.891  39.005   4.827
63180W        W28407  40.015   6.393  10.780
63181W        W28408  23.054   5.857   4.195
63182W        W28409  16.015  18.665   4.223
63183W        W28410  10.403  37.985  14.854
63184W        W28411   7.398   0.938  13.787
63185W        W28412  35.247  44.550  13.292
63186W        W28413   2.562  23.896  11.901
63187W        W28414  33.187  41.035   3.298
63188W        W28415  14.374  30.927   3.905
63189W        W28416   5.831  10.882   4.498
63190W        W28417  28.684  22.112  10.817
63191W        W28418  17.206  31.343  12.720
63192W        W28419  26.459  12.230  13.373
63193W        W28420  44.624  13.317   4.688
63194W        W28421  12.227  24.661  14.271
63195W        W28422  22.695   6.770   2.916
63196W        W28423  26.901  37.392   4.593
63197W        W28424  15.239   8.710   0.828
63198W        W28425   2.526  35.945  13.981
63199W        W28426  10.115  42.407   5.112
63200W        W28427  25.948  33.972   0.259
63201W        W28428  42.747   6.951  11.036
63202W        W28429  33.198  32.366   2.838
63203W        W28430  37.604  42.415   1.477
63204W        W28431  27.451  34.977   4.148
63205W        W28432  23.204   0.301   1.670
63206W        W28433  21.994  14.874   3.286
63207W        W28434  21.178  20.984   2.581
63208W        W28435   4.894  38.288   0.800
63209W        W28436  35.888   4.433   1.702
63210W        W28437  34.449  29.623   1.750
63211W        W28438   6.186   6.049  10.769
63212W        W28439  42.165   8.103  14.684
63213W        W28440  33.509  18.128  14.189
63214W        W28441  36.630  27.179   4.144
63215W        W28442  42.279  34.031  12.142
63216W        W28443  33.747  37.606  14.037
63217W        W28444  33.184  20.213   4.408
63218W        W28445   4.206  12.092  13.863
63219W        W28446   1.885  40.974  13.461
63220W        W28447   4.562   4.926  11.288
63221W        W28448  40.762  29.160  12.545
63222W        W28449  32.050  30.955   2.187
63223W        W28450   3.976  33.010   3.620
63224W        W28451  44.815  22.555  12.208
63225W        W28452  39.940  34.562  11.020
63226W        W28453  24.112  23.594  13.184
63227W        W28454  42.823  34.505   4.029
63228W        W28455  35.080  20.781  14.406
63229W        W28456  19.286  11.663   0.694
63230W        W28457  43.481  27.229  14.733
63231W        W28458   8.376  16.351  10.305
63232W        W28459  24.593  11.441   1.392
63233W        W28460   9.219  32.081   2.394
63234W        W28461  21.011  35.996  10.770
63235W        W28462  40.981  23.012   4.721
63236W        W28463  35.408  18.033  13.601
63237W        W28464  11.277  10.862   4.093
63238W        W28465   6.859  37.386  12.505
63239W        W28466  13.071   9.281   1.247
63240W        W28467  15.237  34.379   1.030
63241W        W28468   2.275  23.897  12.327
63242W        W28469  32.448  18.778   2.366
63243W        W28470   2.942  43.947  11.301
63244W        W28471   2.327  13.154   2.155
63245W        W28472   9.612  17.727   3.665
63246W        W28473  10.297  39.609  13.064
63247W        W28474  19.544  29.981  12.946
63248W        W28475  11.626  12.881   2.688
63249W        W28476  43.510  33.098   0.490
63250W        W28477  37.086   7.719   0.294
63251W        W28478   9.683  43.407  13.837
63252W        W28479   7.864  42.461   0.213
63253W        W28480  15.099  41.833   2.317
63254W        W28481  33.392  20.327  14.338
63255W        W28482  28.715  19.322   0.310
63256W        W28483  36.103  41.348  11.729
63257W        W28484  25.699  31.519  11.552
63258W        W28485  18.209   4.415  10.991
63259W        W28486   4.976  31.536   1.235
63260W        W28487  39.851  42.706  12.099
63261W        W28488  17.220  36.509   4.330
63262W        W28489  41.033  36.016  13.466
63263W        W28490  29.878  21.385  13.627
63264W        W28491  10.067  16.422  12.508
63265W        W28492  32.602  35.344   4.565
63266W        W28493  15.609   2.287   3.709
63267W        W28494  31.061  20.808   4.216
63268W        W28495  38.449  17.342  12.506
63269W        W28496  23.981  42.049  12.029
63270W        W28497   5.367  30.177  12.629
63271W        W28498  15.154  42.630  13.134
63272W        W28499   1.349  22.740   1.243
63273W        W28500  28.501  44.500  14.455
63274W        W28501  36.069   0.200   1.741
63275W        W28502  25.887  20.208   4.565
63276W        W28503  39.521  13.868  10.646
63277W        W28504  43.177  25.664   0.324
63278W        W28505  26.403   8.873  13.979
63279W        W28506   1.287  10.874  14.451
63280W        W28507  24.413  38.362  14.869
63281W        W28508  20.307  37.740   1.944
63282W        W28509  44.844  28.486  12.032
63283W        W28510   2.320   2.378   4.020
63284W        W28511  13.109  15.601  13.567
63285W        W28512   1.772  23.866  12.136
63286W        W28513   2.926  23.318  10.667
63287W        W28514  11.188   9.128  13.958
63288W        W28515  33.985  22.143   2.858
63289W        W28516  28.470  21.498  13.533
63290W        W28517  33.090  29.108   1.528
63291W        W28518  28.572  35.982   0.498
63292W        W28519  33.031  39.880   0.525
63293W        W28520  19.260  31.475   3.071
63294W        W28521   5.916  23.509   4.227
63295W        W28522  29.323   1.958   1.825
63296W        W28523  23.050  19.554   2.604
63297W        W28524   8.923  26.394  12.849
63298W        W28525  10.555  39.919  10.480
63299W        W28526  20.206  29.477   2.850
63300W        W28527  40.578  28.447  14.939
63301W        W28528   6.777  41.268   0.216
63302W        W28529   8.477  29.116  10.919
63303W        W28530  23.509  26.418  10.689
63304W        W28531   6.906   1.148   0.936
63305W        W28532   7.675  35.879   1.365
63306W        W28533  37.300  32.999   3.879
63307W        W28534  35.089  34.609  10.679
63308W        W28535   5.106  42.702  13.391
63309W        W28536   7.606  43.809  11.452
63310W        W28537  21.198  44.606  12.129
63311W        W28538   3.885  42.189   2.371
63312W        W28539   8.170   3.451   3.784
63313W        W28540  34.648  21.448  11.423
63314W        W28541  20.049  20.579  12.871
63315W        W28542  38.728  35.396  13.416
63316W        W28543  42.330  13.825   2.782
63317W        W28544  40.896  11.387  14.013
63318W        W28545  11.042   6.714  10.643
63319W        W28546   4.486   6.130  13.848
63320W        W28547  37.474  26.321   1.329
63321W        W28548   1.929  16.674  11.300
63322W        W28549  26.926  34.269  14.073
63323W        W28550   9.762   5.905  12.888
63324W        W28551  13.134  26.606   1.219
63325W        W28552  37.577  17.521  12.044
63326W        W28553  23.499  31.373   0.738
63327W        W28554  30.052  40.583  14.965
63328W        W28555  22.062  42.291  14.342
63329W        W28556  11.841  39.354  11.030
63330W        W28557  12.864  37.293  14.810
63331W        W28558  29.622  16.085  14.140
63332W        W28559  34.185  28.353  12.993
63333W        W28560  33.212   1.327   2.112
63334W        W28561  32.613  13.251  12.114
63335W        W28562   4.291   8.855   4.532
63336W        W28563  21.421  19.164  12.477
63337W        W28564   6.053  33.773  10.624
63338W        W28565  40.128  41.251  12.169
63339W        W28566  25.084  24.774  14.585
63340W        W28567  25.171  24.517  12.351
63341W        W28568  29.741  14.149   1.321
63342W        W28569  20.829  40.845   1.192
63343W        W28570  32.857   2.260  11.137
63344W        W28571  34.222  14.458   9.902
63345W        W28572   6.742  36.262  13.014
63346W        W28573  13.798   2.391  10.971
63347W        W28574  26.106  31.377   0.998
63348W        W28575  33.895  19.963   2.412
63349W        W28576  42.312  33.426  14.291
63350W        W28577  41.838  18.601   4.508
63351W        W28578  38.059  40.213  13.067
63352W        W28579  36.644  28.746  11.939
63353W        W28580   8.932  30.666   0.788
63354W        W28581  15.270  14.603  14.375
63355W        W28582  30.772   7.724   2.673
63356W        W28583  16.903  21.275  14.311
63357W        W28584  28.052   8.636  12.598
63358W        W28585  42.876  12.924   4.472
63359W        W28586  41.756   1.242  11.447
63360W        W28587   0.400  26.570  12.199
63361W        W28588   8.357  30.539   4.592
63362W        W28589  26.606  21.205  12.652
63363W        W28590  23.557  36.443   0.236
63364W        W28591  39.922  17.801   1.883
63365W        W28592  42.300  25.192  12.343
63366W        W28593  16.106  38.536   4.516
63367W        W28594  12.137  25.172   1.819
63368W        W28595  18.590  23.591   3.439
63369W        W28596  33.025  38.628   0.057
63370W        W28597  12.946  40.224   0.847
63371W        W28598   3.784  31.987   5.051
63372W        W28599  17.290  41.205   0.298
63373W        W28600   3.314  32.839  14.567
63374W        W28601   7.674  21.625   0.271
63375W        W28602  20.138   5.801  10.787
63376W        W28603  28.414  12.761   1.887
63377W        W28604  22.097  28.698   2.465
63378W        W28605  18.537  20.588   3.742
63379W        W28606   0.724   9.924  14.008
63380W        W28607  26.216  21.652   0.270
63381W        W28608  40.050  25.585   2.704
63382W        W28609  42.396  17.766   0.244
63383W        W28610  40.971  13.485   2.482
63384W        W28611   0.225  30.969  12.010
63385W        W28612  16.169  22.674  10.718
63386W        W28613  22.869  17.132  11.109
63387W        W28614  17.659  41.492   1.783
63388W        W28615   4.717   7.392   4.289
63389W        W28616  37.326  27.708   1.352
63390W        W28617  26.554  36.527   3.734
63391W        W28618  17.789  41.810  12.918
63392W        W28619   7.326   1.919  14.139
63393W        W28620  27.787   2.607  14.074
63394W        W28621  33.724  18.767   2.963
63395W        W28622  44.739  13.122   1.813
63396W        W28623   5.910  14.174   0.281
63397W        W28624  37.409  43.524  11.225
63398W        W28625   9.631  17.859   2.772
63399W        W28626  41.858  33.512   1.208
63400W        W28627   8.388  15.344  10.775
63401W        W28628  30.986  43.940  10.721
63402W        W28629  33.334   8.679   3.541
63403W        W28630   2.419   8.602   1.867
63404W        W28631  28.616  31.457  11.509
63405W        W28632  11.786  31.417   0.417
63406W        W28633   7.864  16.476   3.949
63407W        W28634  11.500  39.491   0.550
63408W        W28635  39.514  36.512  12.027
63409W        W28636  34.901   6.641   0.293
63410W        W28637  11.262   8.399  11.785
63411W        W28638   0.607  41.217   1.613
63412W        W28639  15.132  34.027   2.201
63413W        W28640  16.498   3.843   1.592
63414W        W28641  28.888  14.150   2.383
63415W        W28642  31.415  29.977   1.876
63416W        W28643  13.301  39.401  10.589
63417W        W28644  38.331  39.260  14.987
63418W        W28645  17.785  14.215  13.279
63419W        W28646  30.451  11.126  10.633
63420W        W28647  23.109  38.781  14.846
63421W        W28648   6.851  21.696   1.608
63422W        W28649  10.840  10.147  12.005
63423W        W28650  25.090  17.188  12.635
63424W        W28651  15.161  12.784   2.899
63425W        W28652  19.572   0.269   4.347
63426W        W28653  42.035  31.043  10.799
63427W        W28654   7.355  38.377   2.149
63428W        W28655  22.533  28.228  11.161
63429W        W28656  26.531   4.370   1.343
63430W        W28657   4.094  40.951  13.092
63431W        W28658   2.466  14.170   5.051
63432W        W28659  42.163  14.117   4.133
63433W        W28660  13.713  15.786   2.255
63434W        W28661  23.733  21.543  13.387
63435W        W28662   5.353   4.321   1.313
63436W        W28663   7.207  37.428   3.564
63437W        W28664   9.168  11.032   1.161
63438W        W28665  14.924   7.120   1.315
63439W        W28666   6.844   6.824   0.481
63440W        W28667  23.438  10.872   1.283
63441W        W28668  38.838  24.384  10.619
63442W        W28669  37.788  43.378   3.616
63443W        W28670  33.503  39.312  11.545
63444W        W28671  19.706  28.948   1.335
63445W        W28672  33.704   7.843   0.334
63446W        W28673  26.965   6.445   4.577
63447W        W28674  28.714  14.089   4.220
63448W        W28675  24.595   1.091  11.508
63449W        W28676  27.554  33.867   4.785
63450W        W28677  24.556  37.552  14.756
63451W        W28678  39.354  42.420   1.442
63452W        W28679  36.986  21.288   2.271
63453W        W28680  31.105   0.274  11.990
63454W        W28681  15.073  19.694   3.084
63455W        W28682  36.989   6.128   0.463
63456W        W28683  20.534  39.851   3.877
63457W        W28684  26.986  20.198   0.460
63458W        W28685  43.307   5.212   3.106
63459W        W28686  37.048   8.687   0.162
63460W        W28687  32.404   2.839  12.850
63461W        W28688  23.176  44.425   4.978
63462W        W28689  24.066  21.161   2.231
63463W        W28690  22.760  36.284   3.677
63464W        W28691   6.160  12.195   4.051
63465W        W28692  23.010  13.276  14.396
63466W        W28693  17.224  16.339  12.488
63467W        W28694  28.173  28.037   0.912
63468W        W28695   4.111  26.888  14.783
63469W        W28696  26.800   2.761  11.159
63470W        W28697  15.714  25.784  14.463
63471W        W28698  37.937   9.906   4.331
63472W        W28699   4.011  16.240  13.425
63473W        W28700   2.782   5.873   1.733
63474W        W28701   5.505  41.565   2.327
63475W        W28702  15.058   7.851  14.519
63476W        W28703  15.832  10.066   4.224
63477W        W28704  34.349  33.748  13.878
63478W        W28705  31.059   8.672   4.690
63479W        W28706  34.040  27.276   2.575
63480W        W28707  39.939   9.375  14.736
63481W        W28708  14.768   5.044   3.686
63482W        W28709  43.319  12.329  11.938
63483W        W28710  11.819  40.506  11.530
63484W        W28711   4.908  19.248   2.774
63485W        W28712  35.043  43.534  14.228
63486W        W28713  33.042  14.055  13.440
63487W        W28714  26.832  34.467   4.573
63488W        W28715  40.266  21.131  14.008
63489W        W28716  16.021  31.972  13.866
63490W        W28717  24.516  14.652   0.334
63491W        W28718  37.094  12.708   2.814
63492W        W28719  34.946  35.570  13.404
63493W        W28720  40.311  40.378   1.963
63494W        W28721   2.085   3.421  13.967
63495W        W28722  20.952   8.807   3.248
63496W        W28723   0.727  24.085   4.097
63497W        W28724  21.104  28.398   0.445
63498W        W28725  41.655  35.467  13.854
63499W        W28726  25.976   8.701   3.329
63500W        W28727  33.057  12.452   2.418
63501W        W28728  17.288  21.083   0.039
63502W        W28729  24.536  21.307  13.841
63503W        W28730  32.212  29.585   0.753
63504W        W28731   0.791  32.716  14.616
63505W        W28732  41.105   2.450   0.232
63506W        W28733  17.656  43.468  10.426
63507W        W28734  15.817   7.563  11.173
63508W        W28735  40.420   0.334   1.257
63509W        W28736  34.480  36.125  11.565
63510W        W28737  29.851  20.311  11.594
63511W        W28738  24.770   4.907  13.491
63512W        W28739  28.524  12.576   2.734
63513W        W28740   9.682  19.266  14.491
63514W        W28741  34.734  27.161  12.911
63515W        W28742  15.020   3.825  12.561
63516W        W28743  40.951  16.068   3.322
63517W        W28744  32.433  43.813   2.968
63518W        W28745  24.180   2.294   3.042
63519W        W28746  30.492   5.626   1.237
63520W        W28747  24.352  30.466  13.763
63521W        W28748  17.058  12.729  13.126
63522W        W28749  24.443   4.265   3.386
63523W        W28750  33.924  34.418   4.975
63524W        W28751  39.486  13.382   0.512
63525W        W28752  30.426  30.454  11.533
63526W        W28753  39.057  39.631  13.807
63527W        W28754  21.888  29.280   1.526
63528W        W28755  32.172  18.305  12.896
63529W        W28756  43.583   4.805   3.323
63530W        W28757  29.515   5.392  13.953
63531W        W28758  12.799  17.584   3.782
63532W        W28759  10.139  34.476   1.458
63533W        W28760  36.937  30.195  12.363
63534W        W28761  35.498  24.476  10.750
63535W        W28762  42.883  29.017   2.869
63536W        W28763  26.544  43.501  13.812
63537W        W28764   4.830  23.071   4.597
63538W        W28765  26.737   2.950   0.048
63539W        W28766  28.183   6.349  13.101
63540W        W28767  44.671  12.630   3.040
63541W        W28768   6.623   4.047   1.468
63542W        W28769  37.790  31.722  12.286
63543W        W28770  39.629  35.092   3.687
63544W        W28771  28.062  37.685   4.136
63545W        W28772  13.153  21.148  12.913
63546W        W28773  27.441  21.549  10.652
63547W        W28774  14.505   8.741  13.479
63548W        W28775  12.147  38.819   1.209
63549W        W28776  35.590  43.789   0.849
63550W        W28777  17.719   8.409  14.412
63551W        W28778  31.042  43.972   3.755
63552W        W28779  26.868  12.221   0.733
63553W        W28780  14.650  40.166   2.212
63554W        W28781  38.734   7.648  14.363
63555W        W28782  15.104  36.903   3.829
63556W        W28783   6.397  12.059  12.575
63557W        W28784  28.443  25.668   4.537
63558W        W28785  30.226  21.796  12.409
63559W        W28786  26.075   2.627   2.753
63560W        W28787  17.543  42.409  11.916
63561W        W28788   8.290  18.317   1.716
63562W        W28789  38.878  34.560  11.996
63563W        W28790  33.955  12.193  10.516
63564W        W28791  29.175  43.155  14.761
63565W        W28792  12.791   7.365   2.769
63566W        W28793  19.580  29.056   3.543
63567W        W28794  36.516  31.097  11.735
63568W        W28795  22.306  19.859   1.334
63569W        W28796   9.817   4.412  11.180
63570W        W28797  40.940  23.805  13.566
63571W        W28798  22.179  40.730  13.357
63572W        W28799  38.982  14.234  10.032
63573W        W28800  25.595   7.917   5.085
63574W        W28801   9.805  27.033  14.271
63575W        W28802  25.174  10.699   1.798
63576W        W28803   9.508  26.881   1.892
63577W        W28804  20.714  34.686   2.346
63578W        W28805  18.546  38.518   4.107
63579W        W28806  28.080  12.682  14.151
63580W        W28807   2.079  10.635  11.859
63581W        W28808   2.463  18.542  14.018
63582W        W28809   1.159   3.759  12.843
63583W        W28810  35.518  32.372   3.578
63584W        W28811  38.503  30.285   4.498
63585W        W28812  15.116  35.068   3.589
63586W        W28813  12.333  24.672   0.246
63587W        W28814  10.111   8.759  10.713
63588W        W28815  26.062  13.697   2.103
63589W        W28816  12.868  19.342  13.522
63590W        W28817  31.862   6.284   1.886
63591W        W28818  18.684  12.795   2.421
63592W        W28819   9.824   5.944  14.800
63593W        W28820  15.320   1.468   0.299
63594W        W28821   8.318  15.129   3.171
63595W        W28822  18.499  31.744  13.999
63596W        W28823  10.347  19.663   0.205
63597W        W28824   8.518  19.757   0.453
63598W        W28825  34.427  43.640  12.682
63599W        W28826  20.034  14.515  14.833
63600W        W28827  35.848  31.353  14.001
63601W        W28828   1.226  21.577   1.317
63602W        W28829   2.463  44.240   1.835
63603W        W28830  17.064   2.540   0.825
63604W        W28831  44.275  38.106   3.622
63605W        W28832  16.267  22.973   4.347
63606W        W28833   1.783   0.652  13.309
63607W        W28834  10.029  10.394   3.723
63608W        W28835   1.986  23.550  10.181
63609W        W28836  20.142  42.583  10.727
63610W        W28837  43.595  26.430   2.988
63611W        W28838  13.163  33.922  13.322
63612W        W28839  17.676  25.704   2.018
63613W        W28840   3.522  22.267   0.690
63614W        W28841  16.686  37.095   3.862
63615W        W28842   8.314  21.777  13.533
63616W        W28843  34.440  35.826  12.451
63617W        W28844  15.350  15.558   2.462
63618W        W28845  12.082  36.895   4.184
63619W        W28846   7.289  20.485   2.676
63620W        W28847  12.445  26.451   4.260
63621W        W28848   5.909  12.348   2.148
63622W        W28849  34.923  27.440  10.702
63623W        W28850  10.788  28.089   3.718
63624W        W28851  36.024  10.214   3.595
63625W        W28852  14.040   7.375   4.623
63626W        W28853   3.945  28.964   1.695
63627W        W28854   0.195  30.127   1.286
63628W        W28855  32.433  43.339  12.170
63629W        W28856  41.527  21.756  11.633
63630W        W28857  17.117  10.894   2.641
63631W        W28858  44.763  11.990  13.871
63632W        W28859  17.230  16.013   4.582
63633W        W28860   2.799  33.921   2.659
63634W        W28861   6.463  33.516  14.963
63635W        W28862   5.455  32.959  10.772
63636W        W28863  29.129  31.849   1.356
63637W        W28864   6.354  13.126  10.863
63638W        W28865  34.003  14.416   2.652
63639W        W28866  43.836   4.751  13.404
63640W        W28867  37.159  15.207  12.052
63641W        W28868  36.413  11.056  10.670
63642W        W28869  42.655  18.443   4.131
63643W        W28870  43.409  32.530  12.163
63644W        W28871  18.562   3.819   2.269
63645W        W28872  28.175  29.147  11.652
63646W        W28873   7.629   5.542  12.891
63647W        W28874  22.116  17.738  11.143
63648W        W28875  21.747   1.972  13.070
63649W        W28876   4.673   7.440   3.713
63650W        W28877  30.271  27.410   3.306
63651W        W28878  34.810  23.471   2.731
63652W        W28879   5.075  27.161   1.687
63653W        W28880   0.354  26.106  11.924
63654W        W28881  43.414   8.798  11.266
63655W        W28882  30.077  30.530   2.252
63656W        W28883   5.356   9.783   2.244
63657W        W28884   4.959  25.613  10.681
63658W        W28885  40.388  36.839   3.857
63659W        W28886  16.613  16.021  13.113
63660W        W28887  35.819   7.576  11.630
63661W        W28888  42.808  29.165  12.241
63662W        W28889   0.977   8.801   4.382
63663W        W28890  22.153  36.922  13.060
63664W        W28891  43.758  44.949  10.612
63665W        W28892  16.857  36.880   0.029
63666W        W28893   2.595   2.455   2.532
63667W        W28894  10.648  22.556  11.075
63668W        W28895  24.020  16.288   2.356
63669W        W28896   7.556  38.861   2.756
63670W        W28897  35.013  25.462  11.976
63671W        W28898  37.525   7.442   1.647
63672W        W28899  23.072  34.421  12.189
63673W        W28900  36.625  26.389  14.747
63674W        W28901  15.198  31.672   4.551
63675W        W28902   9.618   1.390  13.487
63676W        W28903  38.629  18.973   2.359
63677W        W28904  22.371  18.467  12.947
63678W        W28905  30.188   0.762   0.797
63679W        W28906   3.492  31.186   0.339
63680W        W28907   6.356  40.317   4.659
63681W        W28908  11.254  30.928  11.931
63682W        W28909  35.169   1.873   3.699
63683W        W28910  26.189  11.242  12.455
63684W        W28911   4.343   4.603   1.076
63685W        W28912  20.504   5.729  11.578
63686W        W28913   4.514  37.887  13.475
63687W        W28914   4.819   7.401   1.341
63688W        W28915  10.765   9.659   3.231
63689W        W28916  42.011  19.244  14.874
63690W        W28917  14.288   1.459  12.054
63691W        W28918  30.465   0.026   4.040
63692W        W28919  19.435  42.764   0.900
63693W        W28920  23.584  38.819   1.689
63694W        W28921  26.395  40.366   3.226
63695W        W28922  22.011   0.431  12.944
63696W        W28923  10.870   7.045   2.792
63697W        W28924  15.661  15.831  13.278
63698W        W28925  22.865  29.821  14.035
63699W        W28926   9.122   3.832  13.120
63700W        W28927  42.547  26.575  12.545
63701W        W28928  44.066   2.518  14.854
63702W        W28929  27.492  22.165   1.240
63703W        W28930  37.923  22.731   4.339
63704W        W28931  36.039  26.459   4.945
63705W        W28932  20.278  10.672   2.771
63706W        W28933  21.058  21.501   4.916
63707W        W28934  20.721  15.320   0.325
63708W        W28935  23.236  13.240   4.502
63709W        W28936  24.715  43.994   4.502
63710W        W28937  43.536  26.919   3.121
63711W        W28938   1.444   9.802  12.758
63712W        W28939  44.384  16.254   2.311
63713W        W28940  32.828  19.087  14.089
63714W        W28941  18.688  42.241  10.771
63715W        W28942  41.064  18.050  11.593
63716W        W28943  20.516   3.684   1.768
63717W        W28944  33.146  30.762  12.540
63718W        W28945  19.560  24.499   3.620
63719W        W28946  16.203  23.544   4.050
63720W        W28947   0.418  32.057  12.124
63721W        W28948  41.804   6.691  12.604
63722W        W28949  11.863  44.041  13.330
63723W        W28950   3.913  11.186  14.104
63724W        W28951  36.265  40.044  11.806
63725W        W28952  19.565   6.827  12.100
63726W        W28953  37.562  31.387  11.886
63727W        W28954   8.567   5.505   0.436
63728W        W28955  43.050  37.030  11.606
63729W        W28956  21.756   6.299  12.797
63730W        W28957  38.331  33.357   1.782
63731W        W28958  39.063  32.728   0.262
63732W        W28959   5.089  31.376  11.125
63733W        W28960  18.752   7.254  12.845
63734W        W28961  27.803   5.526  10.350
63735W        W28962  33.636  21.019  13.951
63736W        W28963  11.615   0.391  13.185
63737W        W28964  17.069  17.723  12.840
63738W        W28965  19.027  32.856  13.462
63739W        W28966  41.585  27.913  14.456
63740W        W28967  10.267  39.497  10.556
63741W        W28968  10.488  44.368   1.880
63742W        W28969  26.396  31.352   4.625
63743W        W28970   1.410  34.302  12.465
63744W        W28971  28.647  25.255  12.888
63745W        W28972  37.027   7.015  13.075
63746W        W28973  18.227   7.586  11.644
63747W        W28974  18.321  44.882   2.967
63748W        W28975  37.801  38.168   2.393
63749W        W28976  15.445  35.615   2.752
63750W        W28977  41.018  11.200   4.396
63751W        W28978  43.194   8.662   3.316
63752W        W28979   9.298  14.630   2.986
63753W        W28980  24.061  44.321   2.273
63754W        W28981   9.638  11.617   0.783
63755W        W28982   7.427  28.106   2.334
63756W        W28983  17.876  20.126   1.788
63757W        W28984   7.836  17.574  14.711
63758W        W28985  32.622   6.665   4.257
63759W        W28986  35.129   5.124   4.114
63760W        W28987  16.011  25.072  11.099
63761W        W28988   3.316  44.328   2.367
63762W        W28989   3.145  40.508   0.975
63763W        W28990   5.259  44.960  11.353
63764W        W28991  12.127  27.002  14.727
63765W        W28992  22.191  26.746   4.564
63766W        W28993   4.829  41.950   1.872
63767W        W28994  13.782  28.763   3.567
63768W        W28995   1.737  33.272  11.976
63769W        W28996   7.850  13.229  12.707
63770W        W28997   8.356   8.223   4.400
63771W        W28998  44.215  22.989   1.398
63772W        W28999   1.485  12.710   0.714
63773W        W29000  10.597  25.392   3.686
63774W        W29001  19.977  10.993   2.110
63775W        W29002  38.682  29.136  11.946
63776W        W29003  37.656  37.143   2.388
63777W        W29004   0.488  12.834  14.351
63778W        W29005  11.817  17.368  12.038
63779W        W29006  21.201  31.430   4.707
63780W        W29007   6.102  37.041   1.188
63781W        W29008   1.397  23.079   0.362
63782W        W29009  28.215  38.962   4.871
63783W        W29010  28.884  43.322  13.842
63784W        W29011   8.130  23.378   3.931
63785W        W29012  37.275  12.008   1.272
63786W        W29013  14.292   6.921   4.532
63787W        W29014  16.656   8.692   3.751
63788W        W29015   5.432  16.058   0.841
63789W        W29016  42.258  16.742  12.491
63790W        W29017  20.727   1.949  13.843
63791W        W29018  20.150  19.046   3.953
63792W        W29019  18.116   0.990   0.410
63793W        W29020   7.611  24.680   2.282
63794W        W29021  19.869  12.235   0.370
63795W        W29022   4.349  44.949   0.799
63796W        W29023  10.324  42.230   2.846
63797W        W29024  33.050   4.737  13.045
63798W        W29025  30.526  32.664   3.180
63799W        W29026   5.666   1.352   1.910
63800W        W29027  20.559  41.112   2.765
63801W        W29028  38.543  36.505   1.268
63802W        W29029   8.489  14.343   0.838
63803W        W29030   1.011   1.195   1.875
63804W        W29031  22.823  16.112  11.731
63805W        W29032  15.339  39.058  10.089
63806W        W29033   8.396  34.852  10.143
63807W        W29034  13.729  25.019   3.714
63808W        W29035  11.833  41.781   4.120
63809W        W29036   8.342  42.822   3.310
63810W        W29037  30.828  25.798   4.688
63811W        W29038  29.386  10.949   3.558
63812W        W29039   9.767  12.641   4.821
63813W        W29040  35.359  12.390   2.614
63814W        W29041  20.059   0.916  10.074
63815W        W29042   5.672  26.946   4.316
63816W        W29043  10.013  37.551   5.058
63817W        W29044  39.845  30.860   2.291
63818W        W29045  18.123   9.289   3.277
63819W        W29046   7.170  29.445   2.474
63820W        W29047  39.815  42.700   4.202
63821W        W29048  32.136   1.533  11.788
63822W        W29049  30.733  19.626  10.734
63823W        W29050  21.948  43.274   1.893
63824W        W29051  36.904  39.892   2.353
63825W        W29052   9.186  16.726  13.434
63826W        W29053   2.429  14.319   3.584
63827W        W29054   6.184  22.617  12.468
63828W        W29055  26.567   8.910  11.525
63829W        W29056  19.085  21.043   1.248
63830W        W29057  31.635   5.651  12.358
63831W        W29058  33.912  15.139   2.254
63832W        W29059  13.890  35.988   1.508
63833W        W29060   8.293  31.823   1.705
63834W        W29061   4.187   2.510   3.264
63835W        W29062   1.699  23.853   3.869
63836W        W29063  33.007  22.018  13.423
63837W        W29064  14.219  27.692  14.557
63838W        W29065   7.521  42.431   1.621
63839W        W29066  42.427  39.499  10.587
63840W        W29067  32.039  26.424  13.977
63841W        W29068  22.390   5.331   4.503
63842W        W29069  17.685   2.380   2.918
63843W        W29070  34.792   4.823  14.823
63844W        W29071  24.160   3.468  14.437
63845W        W29072  22.315   0.358  11.227
63846W        W29073  32.859  43.998   0.270
63847W        W29074  14.351  26.001  14.859
63848W        W29075  38.488  26.112  12.955
63849W        W29076   8.390  20.744   0.528
63850W        W29077   5.743  28.118   0.323
63851W        W29078  17.416   9.073   1.948
63852W        W29079  20.856  33.158  12.499
63853W        W29080  36.651  23.982   4.121
63854W        W29081  30.673  20.160   0.209
63855W        W29082  24.569  24.511   1.809
63856W        W29083  11.320  14.724   3.241
63857W        W29084   1.988  33.882  10.728
63858W        W29085  27.148  21.297  11.494
63859W        W29086  13.725   9.817   1.633
63860W        W29087   8.572  24.292  13.446
63861W        W29088  21.505  44.849  11.065
63862W        W29089  38.856  32.812  14.361
63863W        W29090  42.344  43.840  12.351
63864W        W29091   7.711  19.736  13.810
63865W        W29092  12.111  18.684   0.933
63866W        W29093  27.512  40.578   0.279
63867W        W29094  43.427  19.388  12.407
63868W        W29095  40.338   0.709   0.753
63869W        W29096   4.671  29.664   4.599
63870W        W29097  39.718  40.475   0.794
63871W        W29098  34.121  35.288   4.465
63872W        W29099  14.585  37.051   1.414
63873W        W29100   9.997  37.907   0.787
63874W        W29101  31.749   8.841  11.668
63875W        W29102   2.849  43.990  14.204
63876W        W29103  30.949  25.615  14.609
63877W        W29104  28.857  21.318  13.844
63878W        W29105   9.685  20.754   3.857
63879W        W29106  22.453  40.966  14.950
63880W        W29107  33.395   7.890   2.366
63881W        W29108  22.018  23.474   0.818
63882W        W29109   6.913  44.287   0.529
63883W        W29110  39.939  32.100   1.656
63884W        W29111  26.644  30.644   3.638
63885W        W29112  22.567  33.479  10.301
63886W        W29113   7.494   2.781  12.074
63887W        W29114  10.505  14.650   5.419
63888W        W29115  32.999  18.133   0.349
63889W        W29116   8.210   7.180  14.715
63890W        W29117  42.669  40.083   3.822
63891W        W29118  22.060   4.959  14.468
63892W        W29119  39.347   9.254  13.592
63893W        W29120  23.198  23.876  14.924
63894W        W29121  26.611  44.623  11.832
63895W        W29122  31.999  22.196   3.192
63896W        W29123  30.739  26.126   1.267
63897W        W29124  23.196   4.377  12.080
63898W        W29125  26.030  31.064  13.867
63899W        W29126  29.346  15.295  11.223
63900W        W29127  44.023  18.636   4.855
63901W        W29128   3.977  15.290   1.314
63902W        W29129  35.060  34.301   2.727
63903W        W29130   5.121   7.776  14.293
63904W        W29131   4.519  23.493   0.075
63905W        W29132  33.949  37.386   3.123
63906W        W29133  25.455  24.732  10.777
63907W        W29134  39.850  25.169   4.025
63908W        W29135  23.017  28.938  12.589
63909W        W29136  44.862  14.082  14.874
63910W        W29137  34.108  37.594   0.306
63911W        W29138  21.445   4.017  12.979
63912W        W29139   0.662   7.316   3.361
63913W        W29140  16.795  16.525  13.117
63914W        W29141  20.583  29.593   4.551
63915W        W29142   1.413   9.327   4.926
63916W        W29143  41.802  14.644   1.736
63917W        W29144  21.689  20.099   0.388
63918W        W29145  24.889  25.889   0.363
63919W        W29146  15.979  25.804  13.127
63920W        W29147   4.391  19.259  14.383
63921W        W29148  32.370  36.135   0.802
63922W        W29149  10.376  12.322   3.341
63923W        W29150  16.671   6.901  14.783
63924W        W29151  17.865  24.697  14.782
63925W        W29152  35.484   3.968   2.367
63926W        W29153  32.455  19.670   0.379
63927W        W29154  30.622  31.696  14.199
63928W        W29155   0.855   2.605   5.429
63929W        W29156   4.789  12.841  14.226
63930W        W29157  18.132  23.389   3.248
63931W        W29158  40.047  42.458  11.713
63932W        W29159  39.452   3.631  11.498
63933W        W29160  23.005   5.705  11.629
63934W        W29161   3.938   5.133   2.787
63935W        W29162   1.980   8.127   0.613
63936W        W29163  44.949  23.577   9.761
63937W        W29164  33.997  43.954   1.401
63938W        W29165  35.121  10.794   2.259
63939W        W29166   1.668   8.801   2.465
63940W        W29167  19.967   5.874   2.177
63941W        W29168  11.448  38.869   2.805
63942W        W29169   9.844  19.693   0.370
63943W        W29170  43.839   7.407  10.462
63944W        W29171  34.578   2.770  11.529
63945W        W29172  44.541   7.770  10.721
63946W        W29173  41.318  23.817  11.121
63947W        W29174  22.550  15.393  14.505
63948W        W29175   4.174  33.118  11.165
63949W        W29176  11.136  19.605  11.523
63950W        W29177  25.962  44.896  12.520
63951W        W29178  38.921  42.628   1.244
63952W        W29179  22.420  17.288  10.191
63953W        W29180  27.333  19.150  13.538
63954W        W29181  17.904   7.528   4.482
63955W        W29182  19.452  40.525   1.399
63956W        W29183   3.817  37.698   0.417
63957W        W29184  36.490  44.723  10.848
63958W        W29185   0.920   0.721   2.182
63959W        W29186  24.076  19.231  13.497
63960W        W29187   4.576  38.072   3.333
63961W        W29188  30.930  40.044   2.408
63962W        W29189   6.234  14.372  14.336
63963W        W29190   2.652  39.567  11.972
63964W        W29191  27.142  34.784  12.569
63965W        W29192  25.993  16.324   3.718
63966W        W29193   2.359  41.233   2.405
63967W        W29194  32.022   4.810   2.985
63968W        W29195  14.655   2.889   4.150
63969W        W29196  39.977   9.643   0.202
63970W        W29197  29.032   1.507  11.624
63971W        W29198  30.902  43.352  10.683
63972W        W29199  32.696  16.819   4.481
63973W        W29200  24.472  28.145   0.843
63974W        W29201  37.417  17.325   3.138
63975W        W29202  33.723  21.632   3.363
63976W        W29203  19.570   2.947  13.021
63977W        W29204  28.212  31.026   0.965
63978W        W29205  13.918  22.936  11.467
63979W        W29206  37.422  39.178   1.560
63980W        W29207  12.771   3.099   4.600
63981W        W29208  19.159   9.729   0.398
63982W        W29209   1.837  38.386   3.912
63983W        W29210  21.709   0.291   1.316
63984W        W29211  22.686   5.064   2.263
63985W        W29212  23.946  14.333   2.162
63986W        W29213  32.325  22.540  12.692
63987W        W29214  16.270   0.377   1.889
63988W        W29215   1.112   8.086   0.952
63989W        W29216  22.102  22.574  10.623
63990W        W29217  22.032  33.521  10.364
63991W        W29218  40.551   4.784   3.759
63992W        W29219  11.269  42.383   4.401
63993W        W29220  21.268  44.836  11.636
63994W        W29221   8.645  43.203  12.432
63995W        W29222   5.775  41.108   2.316
63996W        W29223   7.163  34.182  11.071
63997W        W29224  20.993  20.672  13.010
63998W        W29225   2.274   5.325   1.414
63999W        W29226  44.960   0.896   3.262
64000W        W29227   6.015  35.534   1.881
64001W        W29228   1.197  44.997  10.437
64002W        W29229  40.592  12.830   2.262
64003W        W29230  42.980  26.044  13.204
64004W        W29231  12.775  36.511   0.756
64005W        W29232  25.525  20.985   1.330
64006W        W29233   2.815  31.063   1.820
64007W        W29234  25.805   1.876   1.388
64008W        W29235   4.839  17.379   3.094
64009W        W29236  44.473  25.931   4.533
64010W        W29237  32.074  16.309   2.286
64011W        W29238  44.892  24.181   4.493
64012W        W29239  16.332  17.784  13.763
64013W        W29240  27.663  34.696  13.457
64014W        W29241  30.859  29.286   1.749
64015W        W29242  20.252  34.945   3.062
64016W        W29243  42.275  28.233  11.231
64017W        W29244  34.581  42.275   4.692
64018W        W29245  32.118  41.439  13.999
64019W        W29246  28.432  42.438   2.069
64020W        W29247  14.693  41.988  12.074
64021W        W29248   8.000  14.412  13.962
64022W        W29249   2.414  14.631  11.552
64023W        W29250  21.328  29.109   4.832
64024W        W29251  36.212  31.033  14.838
64025W        W29252  32.390  18.656   4.090
64026W        W29253  32.585  21.506   0.682
64027W        W29254   9.151   1.033  11.154
64028W        W29255  38.446  21.267  10.978
64029W        W29256  16.574  32.597  13.921
64030W        W29257   0.361  13.650   3.290
64031W        W29258  36.144  35.954   2.236
64032W        W29259  25.630  11.406   1.480
64033W        W29260   8.938  11.144  13.497
64034W        W29261   4.907   3.495  11.104
64035W        W29262  14.550   7.867  13.624
64036W        W29263  20.431  27.348   2.835
64037W        W29264  41.872  40.974   2.689
64038W        W29265   9.909   6.305   2.345
64039W        W29266  14.728  27.904   3.554
64040W        W29267  18.455  35.365  11.730
64041W        W29268  28.891  27.417   0.547
64042W        W29269  32.155  31.989  13.837
64043W        W29270  16.301   6.256  14.534
64044W        W29271  25.160  34.105  14.825
64045W        W29272  32.492  32.309  14.802
64046W        W29273   4.039   3.490  10.077
64047W        W29274  22.046  30.148   1.374
64048W        W29275  19.675  18.808  12.971
64049W        W29276  14.831   4.897   4.169
64050W        W29277   0.026  36.954  14.274
64051W        W29278  11.674  19.014   1.804
64052W        W29279  16.266   7.155   0.764
64053W        W29280  12.279   9.980  12.974
64054W        W29281  22.045  43.213   0.311
64055W        W29282  18.307  17.695  10.671
64056W        W29283   4.867  35.729  12.935
64057W        W29284  41.841  37.423  13.837
64058W        W29285  18.121   9.505   1.607
64059W        W29286  36.853  12.239   1.058
64060W        W29287  31.168  34.350  12.887
64061W        W29288  25.655  15.983   4.804
64062W        W29289   0.764  29.084   3.333
64063W        W29290  34.081   5.775  11.716
64064W        W29291  25.206  42.320  11.168
64065W        W29292  13.653   3.098  11.667
64066W        W29293   8.762  16.032  14.825
64067W        W29294  16.779  27.508   0.971
64068W        W29295  21.599  36.123   4.092
64069W        W29296  17.314   8.625   1.734
64070W        W29297  31.949  19.731  13.261
64071W        W29298  43.739  21.207   4.562
64072W        W29299  39.446   3.356   4.514
64073W        W29300  13.012  38.985  10.757
64074W        W29301  22.111  20.888   2.342
64075W        W29302  21.606  39.702   0.027
64076W        W29303  13.867   5.625  11.180
64077W        W29304   7.876  12.925   4.991
64078W        W29305   7.696  36.511  11.174
64079W        W29306  39.957  14.636  11.050
64080W        W29307  17.633  40.839   2.387
64081W        W29308   4.495  11.277   2.245
64082W        W29309  28.893  15.809  10.704
64083W        W29310  13.178  16.127   4.099
64084W        W29311  22.924  33.283   3.499
64085W        W29312  38.877  35.112  11.261
64086W        W29313  42.194  15.284  14.348
64087W        W29314   8.960  37.469  14.859
64088W        W29315  42.185  19.192   5.378
64089W        W29316  43.575  11.872   0.785
64090W        W29317   0.731  43.067  11.618
64091W        W29318  38.364  35.626   3.253
64092W        W29319  11.883   4.817   2.105
64093W        W29320  39.380  18.754   1.157
64094W        W29321  32.834   2.382  12.431
64095W        W29322  39.025  30.531   1.119
64096W        W29323   1.638   9.609   0.959
64097W        W29324  23.199   4.703  11.641
64098W        W29325  43.749   4.434  11.178
64099W        W29326  13.081  20.247  12.383
64100W        W29327  11.245  33.063  12.189
64101W        W29328  35.035   3.744   2.517
64102W        W29329  32.922  32.387  14.520
64103W        W29330  38.520   4.152  12.974
64104W        W29331  17.735  19.425   0.198
64105W        W29332  10.287  30.392   3.246
64106W        W29333  39.515  27.640  13.932
64107W        W29334  30.949  22.690  13.791
64108W        W29335  13.970  25.033   2.827
64109W        W29336  36.026  43.589   2.681
64110W        W29337  23.644  19.652   0.953
64111W        W29338  15.485  13.395   3.675
64112W        W29339  34.969  37.415  14.888
64113W        W29340  11.746  13.014  11.477
64114W        W29341  20.578   5.411  14.399
64115W        W29342  20.408  18.637   4.110
64116W        W29343  32.377  20.653   0.874
64117W        W29344   3.789  42.295  12.026
64118W        W29345  15.995  41.004  13.970
64119W        W29346  14.312  39.679   1.790
64120W        W29347   7.679  36.792  13.615
64121W        W29348   2.470  38.607  14.399
64122W        W29349  38.008  16.270  13.086
64123W        W29350   2.258   4.713  12.606
64124W        W29351  31.619   3.896  11.525
64125W        W29352   7.446   8.896  12.408
64126W        W29353  10.741  10.118   1.451
64127W        W29354  19.523  31.065   3.247
64128W        W29355  34.751   7.378   1.138
64129W        W29356  11.657  31.617  14.465
64130W        W29357   9.179  42.261   1.379
64131W        W29358   8.114  34.970   3.310
64132W        W29359  36.463  42.687  11.901
64133W        W29360  37.850  18.507   3.859
64134W        W29361  19.681  19.108   1.944
64135W        W29362  26.391   0.386  10.798
64136W        W29363  39.514  24.957  14.509
64137W        W29364  15.838  27.975   1.518
64138W        W29365  27.864   6.242   2.847
64139W        W29366  38.067  19.038   1.209
64140W        W29367  24.224  38.340  11.417
64141W        W29368  33.532  38.371   4.922
64142W        W29369  15.230  17.518   1.442
64143W        W29370  31.086  40.824  14.452
64144W        W29371  32.927  44.903   0.385
64145W        W29372  42.909  24.268  13.529
64146W        W29373  19.091  34.937  10.666
64147W        W29374  34.413  30.066  14.392
64148W        W29375   7.879  39.271  13.243
64149W        W29376  44.709   9.267   1.892
64150W        W29377  29.112   1.792   0.036
64151W        W29378  22.218  26.741   0.373
64152W        W29379  14.741  31.484   3.451
64153W        W29380  34.777  43.384   3.149
64154W        W29381  44.132   3.461   0.801
64155W        W29382  43.250  41.474   3.127
64156W        W29383  22.792   8.753   1.926
64157W        W29384  44.626  15.996   5.081
64158W        W29385  20.712  41.118  11.480
64159W        W29386  17.603  30.063   4.005
64160W        W29387  33.554  13.311  13.528
64161W        W29388  36.493  23.117   4.309
64162W        W29389  17.046  16.776   2.490
64163W        W29390  26.935   6.787  12.101
64164W        W29391  35.248   5.741   1.961
64165W        W29392   4.827  21.536   2.766
64166W        W29393  25.235  38.527   1.696
64167W        W29394   1.894   1.399   1.706
64168W        W29395  20.165  39.014   0.034
64169W        W29396  28.849  36.499  13.885
64170W        W29397  37.195  14.658  11.287
64171W        W29398  36.076  27.055   3.218
64172W        W29399   2.103  24.465  10.315
64173W        W29400  17.544  43.444   1.857
64174W        W29401  40.577  16.049   4.364
64175W        W29402   5.413  15.082  11.162
64176W        W29403  24.790   3.850   4.626
64177W        W29404  44.267  29.173  13.528
64178W        W29405  15.631  32.387   9.712
64179W        W29406  26.989  38.272  14.296
64180W        W29407   7.952  31.499  11.628
64181W        W29408   3.280  27.585   1.909
64182W        W29409  23.754   1.223  11.620
64183W        W29410  40.295  16.636  13.140
64184W        W29411  34.541   7.680  14.455
64185W        W29412  12.150  27.651  11.757
64186W        W29413  22.191  24.573   4.226
64187W        W29414   7.286  24.700  11.309
64188W        W29415  11.303  10.655  13.399
64189W        W29416  39.467   4.713   9.597
64190W        W29417  29.570   6.012   4.737
64191W        W29418  18.391  29.916  11.060
64192W        W29419   6.672   9.683  12.603
64193W        W29420  41.644   7.622  12.549
64194W        W29421  15.499  33.590  11.008
64195W        W29422  36.660  21.193   4.700
64196W        W29423  37.044  15.951  11.635
64197W        W29424  41.808  29.854  10.665
64198W        W29425  22.194  32.756  12.361
64199W        W29426   7.290  23.993  14.763
64200W        W29427   1.722  28.150   3.989
64201W        W29428  42.247  17.238   3.616
64202W        W29429  16.053  30.530   1.376
64203W        W29430  21.538   4.174  10.667
64204W        W29431  20.425  42.889  11.692
64205W        W29432   3.267   7.461  12.142
64206W        W29433  10.186  20.127  14.985
64207W        W29434  32.051  33.205   4.355
64208W        W29435  21.800  29.987   3.529
64209W        W29436  13.519  28.634   0.431
64210W        W29437  11.580  30.072   4.728
64211W        W29438  33.020  28.618   0.742
64212W        W29439   2.321  28.053  13.589
64213W        W29440  15.623  38.081   2.390
64214W        W29441  23.527  43.964   0.216
64215W        W29442  34.643  14.768   9.788
64216W        W29443   4.879  11.230  11.053
64217W        W29444  42.296   5.233  12.437
64218W        W29445  12.631   7.868  13.036
64219W        W29446  28.172  44.847   0.427
64220W        W29447  23.440  17.622  10.467
64221W        W29448  26.042  24.425   2.312
64222W        W29449   2.222  37.445  14.982
64223W        W29450  19.049   8.418  14.797
64224W        W29451   1.023  39.368   4.451
64225W        W29452  35.235  44.493   3.604
64226W        W29453   7.642  19.082  14.378
64227W        W29454  28.071  21.813   3.836
64228W        W29455  35.841   3.372   0.266
64229W        W29456  15.624  32.112  11.925
64230W        W29457  19.244  25.061  10.430
64231W        W29458  34.799  10.769  10.785
64232W        W29459  24.129   9.185  12.556
64233W        W29460   1.771  28.053   0.334
64234W        W29461  40.933  32.978  13.637
64235W        W29462   7.187  28.222  13.067
64236W        W29463  14.588  44.718   0.415
64237W        W29464  25.944   5.401   0.362
64238W        W29465  41.984  17.333  14.488
64239W        W29466  35.435   2.180  13.362
64240W        W29467  18.649  25.448   3.299
64241W        W29468   4.119  36.430   4.295
64242W        W29469  13.763   3.399   4.061
64243W        W29470   2.575  34.805   1.401
64244W        W29471   1.971  44.590   0.063
64245W        W29472   5.727   5.849  12.912
64246W        W29473  13.069  38.060  11.217
64247W        W29474   2.370  24.052   3.220
64248W        W29475  39.833  37.893  11.533
64249W        W29476  21.318  36.113  14.416
64250W        W29477  13.587  39.789  14.141
64251W        W29478   1.435   1.526  14.924
64252W        W29479  35.878  41.779  10.788
64253W        W29480  12.790   8.734   3.141
64254W        W29481  40.778  37.460   2.823
64255W        W29482   8.886  10.559   3.160
64256W        W29483  22.666  31.875  11.869
64257W        W29484  14.661  24.011   3.574
64258W        W29485  28.158  16.731   3.216
64259W        W29486  37.778  22.830   4.937
64260W        W29487  27.135  26.688  10.048
64261W        W29488  37.724  40.966   3.727
64262W        W29489  33.828  12.832   0.785
64263W        W29490   0.443  22.131   0.477
64264W        W29491  12.316  29.743  12.356
64265W        W29492  20.999  10.555   3.218
64266W        W29493   7.330  32.867   3.136
64267W        W29494  12.188  21.203   3.385
64268W        W29495  22.489   6.911  11.792
64269W        W29496  18.132  31.458   4.482
64270W        W29497  33.933   4.952  10.621
64271W        W29498  26.532   1.886  11.193
64272W        W29499  32.476  29.960   2.607
64273W        W29500  16.808  11.674   3.564
64274W        W29501   6.030  26.371  13.852
64275W        W29502  44.972  11.625  12.113
64276W        W29503   1.527  36.047   3.298
64277W        W29504  40.388  34.020  10.559
64278W        W29505  24.737  37.337   1.369
64279W        W29506  39.001  40.447  10.180
64280W        W29507  33.832   1.274   1.342
64281W        W29508  16.712  39.839  10.843
64282W        W29509  17.602   5.874  13.416
64283W        W29510  37.658  22.809   3.690
64284W        W29511  26.661  12.358  12.008
64285W        W29512  44.462  18.261   1.935
64286W        W29513   0.355  38.466   4.194
64287W        W29514  17.325  14.123  13.063
64288W        W29515  31.950  40.427   4.222
64289W        W29516  29.973   1.292  11.198
64290W        W29517  17.143   6.638   2.903
64291W        W29518  30.183  28.568  10.726
64292W        W29519   1.042  14.707   0.704
64293W        W29520   5.553  27.525   3.307
64294W        W29521   1.018  34.206   4.132
64295W        W29522  43.375  28.024   2.217
64296W        W29523  10.529  40.897  10.402
64297W        W29524   9.151   3.777  12.095
64298W        W29525  32.345  33.933  14.927
64299W        W29526  30.189  22.537   1.590
64300W        W29527  39.363  30.148  14.868
64301W        W29528  29.474  20.566   0.833
64302W        W29529  32.313  37.548  11.661
64303W        W29530   5.219  10.773   3.326
64304W        W29531  26.656  30.217  12.084
64305W        W29532  21.984  21.107   3.205
64306W        W29533  13.204  44.013  10.553
64307W        W29534  35.440  15.133  13.557
64308W        W29535  24.071  13.209   0.498
64309W        W29536  31.858   6.612  13.379
64310W        W29537  13.373  24.588   1.664
64311W        W29538  28.382  19.514   5.103
64312W        W29539  27.429  33.280  11.637
64313W        W29540  33.043  16.780  11.208
64314W        W29541   3.509   9.439  13.788
64315W        W29542  40.106  26.131  14.885
64316W        W29543  12.621  21.229   3.729
64317W        W29544  43.289  23.483   0.783
64318W        W29545  29.400   1.715   0.472
64319W        W29546  37.905  20.226   0.576
64320W        W29547  25.672  24.302   0.902
64321W        W29548  14.695   4.224   1.945
64322W        W29549  25.100  42.087   4.648
64323W        W29550  37.304  37.527   2.279
64324W        W29551  36.839  28.157   4.574
64325W        W29552   7.352   8.211   4.587
64326W        W29553  29.202  17.810   1.968
64327W        W29554  10.679  27.209  10.666
64328W        W29555  23.645  33.408  12.572
64329W        W29556  11.711  12.532   2.311
64330W        W29557  14.114  41.302   2.803
64331W        W29558  28.571   9.038   0.931
64332W        W29559  27.717   9.425  11.703
64333W        W29560  18.559  12.820  10.347
64334W        W29561  43.687  33.506  14.969
64335W        W29562  34.584  13.068  11.456
64336W        W29563   4.081   1.619   4.734
64337W        W29564   9.175  44.407   0.765
64338W        W29565  23.249   3.997   4.551
64339W        W29566  20.832  31.332  11.543
64340W        W29567  33.295  19.232  14.259
64341W        W29568  19.716  44.016   1.428
64342W        W29569  29.490   3.358  11.263
64343W        W29570   3.036  20.007  12.156
64344W        W29571   6.788  40.961   4.141
64345W        W29572  26.963  10.855   3.793
64346W        W29573  14.159  17.431   3.661
64347W        W29574  12.235  31.654   0.267
64348W        W29575   2.279  41.947  12.384
64349W        W29576   5.709   0.850   2.339
64350W        W29577  25.535  27.926  10.294
64351W        W29578  37.558  41.848  11.201
64352W        W29579  38.541  16.598  14.950
64353W        W29580   9.319  40.078   1.895
64354W        W29581  28.195  24.342   3.209
64355W        W29582  18.248   9.884  11.603
64356W        W29583  18.810  34.438  11.646
64357W        W29584  11.819  42.280  10.823
64358W        W29585  35.653  21.257  11.458
64359W        W29586  39.222  36.594  11.618
64360W        W29587  17.806  27.504   4.799
64361W        W29588  35.092   9.323  13.742
64362W        W29589  21.768  10.812   3.607
64363W        W29590  43.066  35.455  11.276
64364W        W29591   6.393  43.315   5.382
64365W        W29592  29.579  33.969   1.137
64366W        W29593  34.968   1.979  11.627
64367W        W29594  33.103  18.906   4.154
64368W        W29595  36.003  12.918  13.646
64369W        W29596  40.261  21.705   0.291
64370W        W29597   9.735  41.584   4.598
64371W        W29598  44.365  12.683   4.000
64372W        W29599  10.878  36.138   3.581
64373W        W29600  40.219   3.169   0.925
64374W        W29601   8.983  19.227   2.443
64375W        W29602   6.355  18.712   5.293
64376W        W29603  18.225   8.511  14.390
64377W        W29604   2.556  28.944   2.479
64378W        W29605  37.556  41.036   1.307
64379W        W29606  33.140   4.655  10.156
64380W        W29607   6.425   7.672   1.883
64381W        W29608  32.263  37.003  12.520
64382W        W29609   6.881  33.573  12.128
64383W        W29610  18.618  14.240  12.431
64384W        W29611  20.668  29.503  14.262
64385W        W29612  14.558   8.271   4.514
64386W        W29613  13.632   6.776  14.062
64387W        W29614  23.315  34.523  13.362
64388W        W29615   0.926  37.797  12.058
64389W        W29616  16.761  18.792   4.524
64390W        W29617  17.308  20.445  14.395
64391W        W29618   4.339   7.181  14.796
64392W        W29619  33.146  28.092  10.776
64393W        W29620  18.403  38.964   4.288
64394W        W29621   9.294  25.621  12.555
64395W        W29622   1.689  16.111   0.926
64396W        W29623  26.682  17.721  12.790
64397W        W29624  29.481  40.511  14.842
64398W        W29625   9.761  13.736   2.254
64399W        W29626  17.198  16.273   1.830
64400W        W29627  14.148  18.614   5.202
64401W        W29628  40.665  28.515  11.471
64402W        W29629  34.563  23.195  14.383
64403W        W29630  26.053   8.272  10.681
64404W        W29631  20.731  12.752  12.984
64405W        W29632  21.609   8.908  11.938
64406W        W29633  12.234   1.210   4.562
64407W        W29634  25.630  26.047   4.886
64408W        W29635   5.126  10.218  13.086
64409W        W29636  30.534  27.468   1.628
64410W        W29637   3.751   9.025   4.955
64411W        W29638   9.770  10.810   0.459
64412W        W29639  41.311  10.771   3.166
64413W        W29640  25.138  31.531   2.458
64414W        W29641  32.095  34.973   2.097
64415W        W29642  44.800   4.730   1.460
64416W        W29643   0.676  21.223   3.090
64417W        W29644  22.617  19.516  11.154
64418W        W29645  29.018  22.286   4.537
64419W        W29646  26.240   3.647   1.679
64420W        W29647  10.851   8.804   4.684
64421W        W29648  18.703   0.459  11.162
64422W        W29649  38.339  43.778   2.679
64423W        W29650  42.154  31.130   3.954
64424W        W29651  42.404  24.670   3.024
64425W        W29652  20.973  16.632  11.727
64426W        W29653  34.373   2.625  12.003
64427W        W29654   7.761   4.216   0.809
64428W        W29655  37.901   5.016  13.858
64429W        W29656  10.707  38.355   2.680
64430W        W29657  24.677  24.962   2.982
64431W        W29658  43.901  30.949   0.666
64432W        W29659   7.330  42.734  13.480
64433W        W29660  36.934  26.650   2.826
64434W        W29661  24.469   8.369  12.506
64435W        W29662  19.714  38.932  10.682
64436W        W29663  20.684  44.964  12.859
64437W        W29664  43.761  23.972  13.956
64438W        W29665  21.800  25.159   1.932
64439W        W29666   7.593  29.661   4.309
64440W        W29667  16.305  37.088  12.068
64441W        W29668  25.058  17.762   3.972
64442W        W29669  11.689   3.799  10.912
64443W        W29670  44.213  12.537  10.041
64444W        W29671  44.036  19.057   4.542
64445W        W29672  16.019   4.848  13.415
64446W        W29673  27.964  18.932  11.384
64447W        W29674  20.229  42.908   3.473
64448W        W29675   6.360   7.341  14.433
64449W        W29676  35.088  13.768  12.525
64450W        W29677  29.949  31.125   4.795
64451W        W29678  34.480  35.406   4.099
64452W        W29679  38.802  43.576   0.022
64453W        W29680  40.388  23.110   4.066
64454W        W29681  30.693  27.985  10.319
64455W        W29682  30.950   0.212   0.756
64456W        W29683  41.986   8.260   4.710
64457W        W29684  38.715   3.861   4.915
64458W        W29685  11.448  34.912  11.022
64459W        W29686  19.019  16.216   4.350
64460W        W29687  10.111   6.896  10.737
64461W        W29688   1.898  34.430   1.810
64462W        W29689   1.929  14.812  11.599
64463W        W29690  28.837  39.575  12.563
64464W        W29691   5.801  38.533   3.654
64465W        W29692  32.589  18.862  11.680
64466W        W29693   0.380  33.844  10.965
64467W        W29694  40.930  30.985  13.845
64468W        W29695  43.879  25.571   1.605
64469W        W29696   3.275   0.919   2.806
64470W        W29697  43.944  36.779   0.803
64471W        W29698  33.969  38.993  14.750
64472W        W29699  22.703  41.034   0.818
64473W        W29700  40.449   2.390   1.294
64474W        W29701  35.146  41.734  11.000
64475W        W29702  34.405  17.555   3.362
64476W        W29703  34.917  16.350   3.821
64477W        W29704  36.770   2.511   4.593
64478W        W29705  37.140  16.239   1.840
64479W        W29706  27.624  22.138   1.811
64480W        W29707  23.133  42.809   4.515
64481W        W29708  17.777   1.810   0.718
64482W        W29709  27.633  25.220  14.283
64483W        W29710   8.075  26.530  11.121
64484W        W29711  34.875  43.461  12.483
64485W        W29712  28.530  42.380   3.981
64486W        W29713   7.491  33.872   3.935
64487W        W29714  39.254  10.127   0.362
64488W        W29715  27.739  43.306  14.345
64489W        W29716  11.321  13.693  14.874
64490W        W29717  37.582  36.948  14.724
64491W        W29718  18.349  11.061   4.046
64492W        W29719  26.173  30.031  11.993
64493W        W29720  24.550  43.337   4.251
64494W        W29721   0.824  25.292   4.154
64495W        W29722  44.922  10.221  10.609
64496W        W29723  40.439  26.222  14.478
64497W        W29724  44.788  40.032  13.043
64498W        W29725   9.912  22.542  10.549
64499W        W29726  16.171   5.719  14.830
64500W        W29727   7.502   7.230   0.305
64501W        W29728  18.870  42.563  14.466
64502W        W29729  23.230  24.302  12.069
64503W        W29730  34.050  12.253   0.400
64504W        W29731  10.644  44.939  10.377
64505W        W29732  11.704  16.959   0.855
64506W        W29733  10.639  23.490   4.154
64507W        W29734  13.197  13.522  12.963
64508W        W29735   5.525  10.772  11.548
64509W        W29736   0.330  40.957  13.605
64510W        W29737  11.262   2.534  14.510
64511W        W29738   8.141  22.699   4.492
64512W        W29739  36.887  35.010  14.254
64513W        W29740  38.056  21.698  12.929
64514W        W29741   3.234  24.725  11.146
64515W        W29742  39.327  38.506   3.263
64516W        W29743   1.893  37.922  12.869
64517W        W29744  21.029  17.681  12.544
64518W        W29745  40.333   9.747  10.632
64519W        W29746  31.004  35.092   5.424
64520W        W29747  30.178  40.304   0.851
64521W        W29748   2.172  34.614  10.121
64522W        W29749  32.574  20.885  13.877
64523W        W29750   0.175   7.741  12.861
64524W        W29751  22.735  35.264  13.794
64525W        W29752   1.734   6.834  13.502
64526W        W29753  25.475  13.309   0.903
64527W        W29754  38.936  13.852  14.056
64528W        W29755   8.786  24.642  12.490
64529W        W29756  34.779  28.611  14.866
64530W        W29757  41.306  10.746   4.238
64531W        W29758   6.421  27.961   4.655
64532W        W29759  28.548   0.691   1.312
64533W        W29760  23.770  42.376  14.843
64534W        W29761  16.548   2.414  14.760
64535W        W29762  28.539  42.680   3.082
64536W        W29763  36.461   2.550  12.534
64537W        W29764  16.316   3.375   0.858
64538W        W29765  27.459   3.269  12.917
64539W        W29766  38.070  19.089  14.349
64540W        W29767  43.727  40.384  12.175
64541W        W29768  39.231   6.612  14.030
64542W        W29769  12.023  32.942   3.208
64543W        W29770  25.538  25.559  10.963
64544W        W29771  13.321  22.210   4.256
64545W        W29772  22.514  44.398   3.749
64546W        W29773  23.537  16.409  14.763
64547W        W29774   9.348  14.220   4.221
64548W        W29775  32.378  38.828   4.119
64549W        W29776  29.976  23.793  13.480
64550W        W29777   8.191  33.447   4.534
64551W        W29778  25.249  11.243   2.893
64552W        W29779  34.574   9.252   3.737
64553W        W29780   5.361   5.903   3.902
64554W        W29781  25.580   8.768  13.328
64555W        W29782  39.072  25.230   3.464
64556W        W29783  42.717  24.070  12.700
64557W        W29784  15.686  25.201   3.219
64558W        W29785  12.826   1.337  13.004
64559W        W29786  25.296  20.957  10.215
64560W        W29787   0.734  18.058  12.929
64561W        W29788  13.291  16.875   2.685
64562W        W29789  28.100  22.635  11.163
64563W        W29790  38.313   9.094   3.610
64564W        W29791  31.604  20.746   0.034
64565W        W29792  20.219  39.700   5.089
64566W        W29793  18.314  10.875  13.329
64567W        W29794  34.322   8.826   2.757
64568W        W29795  13.730  35.612   4.156
64569W        W29796  25.385  38.297   4.066
64570W        W29797  15.305  26.651  11.624
64571W        W29798  20.153  34.433   1.655
64572W        W29799  32.636  35.095  13.530
64573W        W29800  12.657  30.790  12.010
64574W        W29801  41.222   3.162  10.730
64575W        W29802  25.442  18.221   2.679
64576W        W29803  39.855  24.495  11.775
64577W        W29804  40.023  11.824  12.914
64578W        W29805  34.410   6.695   4.168
64579W        W29806  16.993  10.734  13.355
64580W        W29807  22.693  25.689   0.778
64581W        W29808  33.786  22.668   3.244
64582W        W29809  30.859  40.267   4.226
64583W        W29810  22.197  35.478  12.608
64584W        W29811  11.342  39.382   1.030
64585W        W29812  43.015  36.200   1.865
64586W        W29813  20.191  32.185   2.419
64587W        W29814  15.112  31.464   3.049
64588W        W29815  39.773  36.970  10.635
64589W        W29816  33.420  29.325   1.152
64590W        W29817  24.603  35.917  13.440
64591W        W29818  12.030   0.481   0.878
64592W        W29819  23.173  26.067  12.144
64593W        W29820   4.286  21.523   2.754
64594W        W29821  41.201   1.191  11.761
64595W        W29822  33.069   3.451  14.467
64596W        W29823  33.366  17.117   0.442
64597W        W29824   9.756  10.367  11.633
64598W        W29825   1.551  14.454  11.806
64599W        W29826  40.228  22.226  14.376
64600W        W29827  32.548  39.522  10.071
64601W        W29828  18.745  37.402   2.387
64602W        W29829  12.278  28.765  13.466
64603W        W29830  13.654  17.012  12.863
64604W        W29831  24.204  41.180  14.450
64605W        W29832   6.446  43.348   0.886
64606W        W29833  29.963  13.627  11.992
64607W        W29834  10.673  11.418  10.716
64608W        W29835  25.011  23.257  13.434
64609W        W29836  30.371  34.951  12.587
64610W        W29837  20.590  39.052  11.606
64611W        W29838  31.520  40.978  12.301
64612W        W29839  42.240  18.383   1.876
64613W        W29840  41.075  14.254  11.552
64614W        W29841  34.090  21.152  13.744
64615W        W29842  15.568  34.607  12.067
64616W        W29843  32.296  42.006  14.907
64617W        W29844   7.443  40.485  11.598
64618W        W29845  35.031   9.710   0.197
64619W        W29846  36.021  41.785  13.452
64620W        W29847  26.406   6.942   4.752
64621W        W29848  20.091  37.164   0.571
64622W        W29849   1.912  14.920   4.059
64623W        W29850  37.449  32.348  10.564
64624W        W29851   7.220  42.260  13.324
64625W        W29852  41.744  36.639   3.754
64626W        W29853  43.239   0.780   4.145
64627W        W29854  10.860  22.688  11.560
64628W        W29855   2.114  37.153   5.048
64629W        W29856  37.407  44.031  13.718
64630W        W29857  30.637   7.014  12.039
64631W        W29858  21.307  24.199   0.442
64632W        W29859   1.271  36.127  14.358
64633W        W29860  23.529  14.080  14.275
64634W        W29861   5.909   2.086  11.417
64635W        W29862  16.319  14.759  10.725
64636W        W29863  16.238  26.306  11.438
64637W        W29864  44.545  32.956  13.941
64638W        W29865  35.845  11.099  14.565
64639W        W29866  12.884  36.098  12.054
64640W        W29867  31.493  24.056   2.999
64641W        W29868  24.562  24.951  14.469
64642W        W29869  34.300  29.957  12.677
64643W        W29870  23.654  43.596   2.721
64644W        W29871  39.805   1.314   0.528
64645W        W29872   5.979  17.888  11.594
64646W        W29873  19.558  30.058  12.003
64647W        W29874  12.893   6.780   1.771
64648W        W29875  36.540   6.576  11.965
64649W        W29876  42.314   8.512  12.534
64650W        W29877   3.150  16.770  10.569
64651W        W29878   1.976  26.551  12.512
64652W        W29879  34.071  40.875  14.417
64653W        W29880  42.686   6.018   0.767
64654W        W29881  31.610  34.497  11.321
64655W        W29882  13.157   2.439  14.589
64656W        W29883   0.170  31.697   1.366
64657W        W29884  34.972  42.184  11.159
64658W        W29885  12.295  43.707  12.498
64659W        W29886  16.135  14.579  11.970
64660W        W29887   7.467  36.550  14.021
64661W        W29888  11.657  21.206   1.998
64662W        W29889  24.686  23.452  14.469
64663W        W29890  42.611  30.041   3.284
64664W        W29891  15.143  35.000  12.074
64665W        W29892  41.169   8.028   0.196
64666W        W29893   5.122  24.404  11.759
64667W        W29894  28.576   1.347  13.808
64668W        W29895  14.422  15.369  11.657
64669W        W29896   6.737  33.545  11.593
64670W        W29897   2.677  13.987   2.611
64671W        W29898  32.460   2.231   0.061
64672W        W29899  40.603   7.300  12.534
64673W        W29900  44.765  42.977  11.950
64674W        W29901  28.062  14.736   4.268
64675W        W29902   2.746  21.239   2.765
64676W        W29903  15.877  14.571  11.518
64677W        W29904   1.819  12.437   1.853
64678W        W29905  28.640  33.512   0.318
64679W        W29906  41.097  20.147  13.051
64680W        W29907  19.689   4.254  12.867
64681W        W29908  20.694  37.477  11.597
64682W        W29909  25.012  43.627   0.752
64683W        W29910  42.617  32.480  13.990
64684W        W29911  27.728  29.930  12.386
64685W        W29912  23.861   5.513  12.520
64686W        W29913  35.082  19.990   4.145
64687W        W29914   9.982  43.021  13.044
64688W        W29915  44.687   2.415  13.111
64689W        W29916  44.905   7.776   4.639
64690W        W29917   3.202   2.570  11.972
64691W        W29918  12.847   0.777   4.078
64692W        W29919  17.523  34.633   0.942
64693W        W29920  19.333  12.940  13.399
64694W        W29921  25.510   0.053  14.926
64695W        W29922  13.615   7.897  11.613
64696W        W29923  32.430   6.433  13.776
64697W        W29924  18.593  34.804  14.396
64698W        W29925  12.009  15.590  10.677
64699W        W29926  36.608   0.917   4.053
64700W        W29927   0.142   3.325  11.464
64701W        W29928  10.470  27.043  11.118
64702W        W29929  44.020  17.170   2.242
64703W        W29930  29.848   1.343   4.632
64704W        W29931  29.994  30.686  12.441
64705W        W29932  15.530   6.067   3.838
64706W        W29933  21.479  27.025  10.665
64707W        W29934  22.325  20.136  11.640
64708W        W29935  31.773  16.171  14.264
64709W        W29936  41.429  21.267   3.164
64710W        W29937  25.060  37.101  11.732
64711W        W29938   4.856  31.043  14.736
64712W        W29939  28.629  24.818   1.276
64713W        W29940   1.635  36.768   4.659
64714W        W29941  35.305  13.021   4.536
64715W        W29942  44.771   4.645  13.553
64716W        W29943  25.017  15.017  14.825
64717W        W29944  20.230  24.151  13.771
64718W        W29945   5.228   6.565   1.280
64719W        W29946  17.729  32.958   3.118
64720W        W29947  33.003  14.316  13.907
64721W        W29948  19.451  17.744   3.179
64722W        W29949  20.137  41.991   1.918
64723W        W29950  35.593  43.058  13.881
64724W        W29951   0.943  28.160  12.432
64725W        W29952  28.254  31.833   1.283
64726W        W29953  31.142  12.307  11.670
64727W        W29954  17.232  41.008  10.700
64728W        W29955  11.382  14.378  14.377
64729W        W29956   5.671  38.096  13.662
64730W        W29957  26.055  13.177   0.315
64731W        W29958  27.734  16.848   2.341
64732W        W29959  36.739  10.852   1.885
64733W        W29960  31.656  42.905   2.215
64734W        W29961  20.819  23.895   1.838
64735W        W29962   9.354   9.800  14.154
64736W        W29963  32.362  10.090  11.136
64737W        W29964  22.782  31.101  14.389
64738W        W29965  18.238   5.246  14.911
64739W        W29966  37.270  20.708   3.181
64740W        W29967  20.013   5.455  12.556
64741W        W29968  16.361  19.633  12.964
64742W        W29969  20.991   1.497   4.555
64743W        W29970   9.241   2.684   0.451
64744W        W29971  18.189  25.857  11.533
64745W        W29972  33.472   0.411  12.924
64746W        W29973  34.081  17.951   1.288
64747W        W29974  14.626  26.576  14.590
64748W        W29975  23.574  41.896   1.947
64749W        W29976  27.957  16.274   3.287
64750W        W29977  28.125  43.505  12.566
64751W        W29978  25.881  36.149  10.952
64752W        W29979  16.785   7.022  10.850
64753W        W29980  17.303  44.784  12.739
64754W        W29981  24.207  39.200  13.126
64755W        W29982  27.948  12.800   9.485
64756W        W29983  15.760  16.329   1.758
64757W        W29984  31.695  23.945   3.909
64758W        W29985  31.522  18.496  12.069
64759W        W29986   9.263  17.358   1.874
64760W        W29987   3.716  10.607  12.607
64761W        W29988  12.674   5.724  11.522
64762W        W29989  39.261  34.839   1.972
64763W        W29990  34.980  38.175  14.677
64764W        W29991  34.753   2.251  14.587
64765W        W29992  43.205  30.967  14.870
64766W        W29993  34.837   6.941   0.871
64767W        W29994  43.978  19.656   0.402
64768W        W29995  30.543  31.153   3.006
64769W        W29996   2.017  42.737   3.253
64770W        W29997  19.596  43.341   1.633
64771W        W29998  16.056  30.991  11.982
64772W        W29999  20.645  12.768   2.341
64773W        W30000  25.688  41.089  14.457
64774W        W30001   0.613  33.110  12.891
64775W        W30002  29.092   7.377   4.596
64776W        W30003   2.129  20.089   4.459
64777W        W30004  38.371  43.959   4.569
64778W        W30005  15.181  22.124   1.923
64779W        W30006  19.724  36.363   4.847
64780W        W30007  17.667  31.999  12.798
64781W        W30008   2.343  31.008  13.326
64782W        W30009   5.469  30.987  12.977
64783W        W30010   0.961  18.080   1.740
64784W        W30011  19.716  25.599   2.362
64785W        W30012  38.882   6.738   0.044
64786W        W30013  44.024  21.607   0.719
64787W        W30014  33.384  33.153  14.308
64788W        W30015  20.288  16.078  11.168
64789W        W30016  28.725  29.773   1.397
64790W        W30017  25.217  32.532  13.875
64791W        W30018   0.455  36.667  14.345
64792W        W30019  41.526  43.969   1.916
64793W        W30020  44.754  12.992  13.945
64794W        W30021  32.638  43.890   3.798
64795W        W30022  25.551  43.847   1.454
64796W        W30023  24.190  15.773   1.115
64797W        W30024  29.414   8.101   2.216
64798W        W30025  16.174  37.519  10.663
64799W        W30026  10.177  33.678  12.895
64800W        W30027  35.662  38.850   4.688
64801W        W30028  40.307  37.956   1.350
64802W        W30029  13.448  12.244   2.820
64803W        W30030   1.254  17.906  12.818
64804W        W30031  26.604   7.652  11.062
64805W        W30032  40.085  43.421   2.597
64806W        W30033   3.517  30.906   1.271
64807W        W30034  40.088   5.635   3.130
64808W        W30035   1.146  11.516   3.913
64809W        W30036  19.619  10.928   4.056
64810W        W30037  31.360  13.953   2.843
64811W        W30038  24.166  33.187  13.850
64812W        W30039  15.614  11.132   4.204
64813W        W30040  27.158   9.829   4.861
64814W        W30041  44.869  12.254   3.348
64815W        W30042  27.371  25.710   2.274
64816W        W30043  16.187  41.964   1.636
64817W        W30044  20.577  39.312   3.105
64818W        W30045  23.963  24.008   0.926
64819W        W30046  11.135  32.571  13.323
64820W        W30047  18.643  27.714  11.206
64821W        W30048   5.360  38.587   3.899
64822W        W30049  18.626  37.275   0.753
64823W        W30050  20.657   0.276  11.938
64824W        W30051  29.581  16.906   2.311
64825W        W30052   1.391  37.381  13.341
64826W        W30053  22.780  32.846  12.878
64827W        W30054  32.081  20.779   3.195
64828W        W30055   1.452   9.789  12.225
64829W        W30056  35.398  33.344  10.482
64830W        W30057   0.354  39.007  10.714
64831W        W30058  37.337  44.017   2.274
64832W        W30059  14.832  43.212  10.276
64833W        W30060   3.798  39.746  11.680
64834W        W30061  30.677  24.923   9.616
64835W        W30062  15.478  44.230   5.191
64836W        W30063  36.883  33.860  14.034
64837W        W30064  40.548  25.155   4.997
64838W        W30065  36.939  23.137  12.504
64839W        W30066  18.140  28.575  11.224
64840W        W30067   2.492  44.660   0.106
64841W        W30068   3.357   2.922  10.210
64842W        W30069   6.819   8.712  13.951
64843W        W30070  33.753  26.538  14.282
64844W        W30071  34.379  29.364   2.702
64845W        W30072  37.436  20.668   2.692
64846W        W30073  26.952  39.036   2.173
64847W        W30074   7.815  11.785  13.890
64848W        W30075  44.535   0.849   4.422
64849W        W30076  28.019   8.055  12.146
64850W        W30077  21.606   5.249  14.838
64851W        W30078  18.603  19.923  14.973
64852W        W30079  15.092  40.999  12.439
64853W        W30080  16.155  19.077  11.241
64854W        W30081   7.915   3.471   0.337
64855W        W30082  26.794  42.705  12.852
64856W        W30083  12.232  41.340   2.162
64857W        W30084  11.122   0.040  11.470
64858W        W30085   7.416  30.139  10.800
64859W        W30086  16.714  34.415   3.806
64860W        W30087  10.405  44.524  10.628
64861W        W30088  16.280   3.911  11.960
64862W        W30089   0.407   5.351   4.622
64863W        W30090  14.710  15.275  11.236
64864W        W30091  37.538  10.241   3.631
64865W        W30092  38.828  32.538   3.287
64866W        W30093   3.809  41.704   3.683
64867W        W30094  10.330  18.606   2.837
64868W        W30095  31.409  34.314   3.776
64869W        W30096  12.665  19.628   4.478
64870W        W30097  12.211  22.541  13.925
64871W        W30098  31.775  41.046   0.006
64872W        W30099  33.136   7.948   1.282
64873W        W30100  32.074  11.666  14.717
64874W        W30101  44.718  23.823   3.934
64875W        W30102  15.241  34.171   4.947
64876W        W30103  19.015   1.711  12.246
64877W        W30104  22.382   8.175   4.144
64878W        W30105  31.650  19.287  11.645
64879W        W30106  17.320  41.625  12.843
64880W        W30107  25.426  35.418   0.858
64881W        W30108  44.369  35.807   4.703
64882W        W30109   2.703   2.693   0.403
64883W        W30110  41.860   6.616   0.738
64884W        W30111  38.906  21.582   2.792
64885W        W30112  24.192  24.832  10.829
64886W        W30113  10.744  37.677   3.250
64887W        W30114   8.568  34.404  10.802
64888W        W30115   9.298  14.302   1.496
64889W        W30116   5.865  41.723   1.688
64890W        W30117  44.533  12.273   0.228
64891W        W30118  23.155  25.654   0.500
64892W        W30119   8.928   8.113   2.339
64893W        W30120  15.290  34.641   0.057
64894W        W30121   2.430  38.430  11.562
64895W        W30122  38.008  41.504  13.014
64896W        W30123  14.606   6.152   2.297
64897W        W30124  29.840  23.199  12.426
64898W        W30125  12.854   1.850  12.437
64899W        W30126  28.956  31.566  12.161
64900W        W30127  24.882  41.473  12.023
64901W        W30128  28.907  35.905   4.145
64902W        W30129  40.345   5.922   1.367
64903W        W30130   6.400  16.329  14.061
64904W        W30131   4.467  37.441   3.650
64905W        W30132   5.875  24.496  13.814
64906W        W30133   2.141   4.850   1.971
64907W        W30134  41.572  41.148  12.966
64908W        W30135   8.299  15.224  13.943
64909W        W30136  19.585  35.089   3.749
64910W        W30137   3.891  15.564   1.725
64911W        W30138  15.714  15.385  12.013
64912W        W30139   0.276  15.322  10.768
64913W        W30140  11.118  30.177  14.792
64914W        W30141  36.347  20.595   2.583
64915W        W30142  43.838  11.930  13.749
64916W        W30143  42.053   4.676  13.714
64917W        W30144  33.565  39.120   0.045
64918W        W30145  26.080   0.491   9.850
64919W        W30146  27.550  22.071  11.567
64920W        W30147  19.975  12.791   0.416
64921W        W30148  28.758  33.550  10.960
64922W        W30149  35.802  25.580  12.613
64923W        W30150  42.760  15.619   0.700
64924W        W30151  31.605  22.608   1.865
64925W        W30152  43.932  39.321   3.173
64926W        W30153  34.407  42.389  14.037
64927W        W30154  24.951  29.668   4.162
64928W        W30155  22.313  44.701  14.425
64929W        W30156  32.409   3.861   3.100
64930W        W30157   7.775   1.001   3.858
64931W        W30158  22.523   2.667   4.153
64932W        W30159  14.623  34.705  13.320
64933W        W30160  11.819  18.577  14.772
64934W        W30161  43.129  15.707  10.666
64935W        W30162   1.274  39.067   0.414
64936W        W30163  25.035  13.883  12.358
64937W        W30164  38.789   2.893   4.683
64938W        W30165  18.688  44.987   1.275
64939W        W30166  35.095   8.658   3.194
64940W        W30167   6.430  17.677  12.344
64941W        W30168  10.053  42.573  13.979
64942W        W30169  33.536  19.385  14.683
64943W        W30170  16.713  13.286  11.949
64944W        W30171  38.601   1.234   4.133
64945W        W30172  28.701  28.994   0.706
64946W        W30173  19.129  17.279   0.341
64947W        W30174  37.934   0.467   2.713
64948W        W30175  13.894  36.541   4.296
64949W        W30176  18.059  34.591  10.640
64950W        W30177   2.883   4.926  11.503
64951W        W30178  32.015  21.107   2.169
64952W        W30179  23.001  24.667   0.146
64953W        W30180  18.812   1.281  10.683
64954W        W30181  22.004   2.752  13.862
64955W        W30182  38.750  44.889   0.101
64956W        W30183  17.314  29.170   4.106
64957W        W30184  28.140  39.966  13.036
64958W        W30185   4.406  17.370   1.897
64959W        W30186  39.905  21.087  14.813
64960W        W30187  38.081   6.935   4.770
64961W        W30188  26.908  13.722  14.334
64962W        W30189  28.087  38.436   5.511
64963W        W30190  34.236  14.584   3.562
64964W        W30191  25.680  23.201   3.171
64965W        W30192   2.632   1.492  11.422
64966W        W30193  18.162  37.422   0.961
64967W        W30194  26.055  17.715  14.996
64968W        W30195  27.263  42.251   4.441
64969W        W30196  42.016   8.253   4.198
64970W        W30197  33.919  43.548  12.833
64971W        W30198  42.905  35.904  12.893
64972W        W30199  37.024  16.550  12.305
64973W        W30200   9.371  44.801  11.231
64974W        W30201   4.926  23.826   3.225
64975W        W30202  32.163  44.331   1.306
64976W        W30203  44.902  41.890  12.592
64977W        W30204  27.523  36.109   1.519
64978W        W30205   2.400  35.380   4.632
64979W        W30206  23.035  17.933  10.620
64980W        W30207  17.252   6.370   1.057
64981W        W30208  36.570  34.151  14.323
64982W        W30209  25.265  15.089  13.080
64983W        W30210  15.729  34.033  13.056
64984W        W30211  24.193  24.624   3.515
64985W        W30212  22.518   7.772  12.679
64986W        W30213  36.924  40.914  12.623
64987W        W30214  38.369  24.723   4.957
64988W        W30215  38.788  32.988  12.901
64989W        W30216   0.068  36.412   2.763
64990W        W30217  33.948  26.802   5.078
64991W        W30218  36.239  15.784   4.831
64992W        W30219  34.807  42.017  14.594
64993W        W30220  38.053  25.980  10.794
64994W        W30221  33.829  41.128   0.248
64995W        W30222  31.016  10.643  12.846
64996W        W30223  13.730  41.477  11.728
64997W        W30224  16.516  29.677  14.437
64998W        W30225   9.231  16.378   5.517
64999W        W30226  14.819  20.078   3.496
65000W        W30227  10.313   1.688   3.663
65001W        W30228   0.032  14.588   3.779
65002W        W30229   7.955  43.071   5.061
65003W        W30230  24.584  17.548   3.791
65004W        W30231  39.286   0.444  12.025
65005W        W30232  23.139  43.509   2.158
65006W        W30233  28.568   5.368   0.757
65007W        W30234   3.211  29.721   3.664
65008W        W30235  19.208  15.308  13.089
65009W        W30236  32.882  23.663   2.704
65010W        W30237  42.825  29.659   1.206
65011W        W30238  22.222   3.786   3.289
65012W        W30239   3.024  41.549  11.038
65013W        W30240  22.195   9.676   0.712
65014W        W30241   6.353   4.359  10.605
65015W        W30242  13.309   2.004  14.310
65016W        W30243  44.980   9.598  13.422
65017W        W30244  21.155  19.734  10.511
65018W        W30245   6.381  35.396  14.591
65019W        W30246  25.499   4.224   0.221
65020W        W30247   2.473  14.269  14.718
65021W        W30248   3.378  36.197  11.596
65022W        W30249  37.753   5.742  13.581
65023W        W30250  28.082  40.955   3.679
65024W        W30251  22.823  29.089   4.947
65025W        W30252   5.459  28.169   3.718
65026W        W30253   3.273  38.784   3.976
65027W        W30254  38.769  17.260  12.109
65028W        W30255  43.756   3.747  12.528
65029W        W30256  13.769  35.812  13.291
65030W        W30257   1.205  23.026  14.883
65031W        W30258  34.317  18.338   4.656
65032W        W30259  15.750   2.690   0.430
65033W        W30260  36.915  39.493   3.102
65034W        W30261  26.403  34.782   4.601
65035W        W30262   3.273   4.144  11.636
65036W        W30263  43.237  23.087  13.058
65037W        W30264  10.296   7.284   0.967
65038W        W30265  41.782  39.469   1.277
65039W        W30266   2.850  15.819   2.485
65040W        W30267   1.935  39.360   2.685
65041W        W30268  36.105  22.313   4.192
65042W        W30269  23.164  31.927  11.171
65043W        W30270  34.303  28.337   2.797
65044W        W30271  26.344   0.249   4.764
65045W        W30272   0.334  16.839   0.198
65046W        W30273  10.873  42.527   2.537
65047W        W30274  36.366  30.048  11.532
65048W        W30275  44.961   9.322   0.376
65049W        W30276  15.545  32.536  12.226
65050W        W30277  36.836  44.403  11.151
65051W        W30278  38.814   3.738  12.155
65052W        W30279   4.772  43.970  13.129
65053W        W30280  24.272  33.593   3.877
65054W        W30281  39.799  44.221   4.581
65055W        W30282  26.981  35.696  10.441
65056W        W30283   4.441  44.913   4.178
65057W        W30284  41.993  35.902  13.913
65058W        W30285  22.714  42.552   4.714
65059W        W30286   4.979   8.338   4.678
65060W        W30287  21.644  24.145   2.817
65061W        W30288  34.827  19.977   3.379
65062W        W30289  12.272  29.156  14.955
65063W        W30290  22.516  37.530  11.906
65064W        W30291  11.491  38.300   4.040
65065W        W30292  28.512   2.199   2.238
65066W        W30293  38.380  20.539   3.811
65067W        W30294  40.305  24.938  13.941
65068W        W30295   9.659  10.897  10.808
65069W        W30296  41.707   4.464   3.159
65070W        W30297  27.472  30.095   3.283
65071W        W30298  34.029  19.516  10.779
65072W        W30299  14.767  10.406   2.736
65073W        W30300  42.633  16.159   4.345
65074W        W30301  41.195  33.984  12.033
65075W        W30302  31.239  27.972   0.060
65076W        W30303  14.651  40.459  14.700
65077W        W30304  24.714  44.330  13.615
65078W        W30305  15.403  24.609  13.067
65079W        W30306  36.707  37.541   1.847
65080W        W30307  39.328  23.049  12.759
65081W        W30308  21.439  39.448  11.851
65082W        W30309  14.131  39.375   2.244
65083W        W30310  24.089  22.065  10.662
65084W        W30311  10.478  37.408  10.561
65085W        W30312  36.503  40.242   2.333
65086W        W30313  20.951   4.494   1.798
65087W        W30314  17.857  41.505   3.710
65088W        W30315   4.729  17.406  12.438
65089W        W30316  27.451  19.675  12.586
65090W        W30317  14.359  32.443   5.091
65091W        W30318  33.538   1.527  13.053
65092W        W30319  26.411   7.772  14.822
65093W        W30320  44.324  31.878   0.323
65094W        W30321  18.106  15.232   4.240
65095W        W30322   1.944  26.337   3.535
65096W        W30323  15.254  32.070   4.863
65097W        W30324  44.016   4.908  12.407
65098W        W30325  16.870  33.094   3.580
65099W        W30326  35.906  34.664   3.221
65100W        W30327  34.970  36.415  14.385
65101W        W30328  10.887  16.998   4.529
65102W        W30329  24.491  43.842  14.321
65103W        W30330  31.584  15.150   0.319
65104W        W30331  31.096  22.715   1.453
65105W        W30332  14.605  43.797  13.594
65106W        W30333  15.675  35.305  12.916
65107W        W30334   7.758  19.532  12.487
65108W        W30335  14.226  44.298  12.433
65109W        W30336  27.175   7.891   0.334
65110W        W30337  25.596  16.880   0.734
65111W        W30338  32.135  43.908   9.939
65112W        W30339  11.819  13.001   3.711
65113W        W30340   2.341  28.092  14.104
65114W        W30341  23.433  23.123   3.346
65115W        W30342   4.609  20.839   1.907
65116W        W30343  19.667   1.021  11.660
65117W        W30344  24.333  43.334  12.485
65118W        W30345   4.397  11.078   0.041
65119W        W30346  25.921  35.483  12.531
65120W        W30347  19.711  22.721   1.722
65121W        W30348  21.315  43.787   0.263
65122W        W30349   8.714  18.499   0.903
65123W        W30350  39.128  44.002   1.834
65124W        W30351  38.552  27.939   1.914
65125W        W30352  35.234  25.563  14.625
65126W        W30353   0.209  27.036  12.088
65127W        W30354  28.840  28.099   4.235
65128W        W30355  12.418  19.799   3.701
65129W        W30356  24.257  27.480  14.776
65130W        W30357   5.882   4.742   2.609
65131W        W30358   1.761  36.965  10.522
65132W        W30359  20.495   7.655  12.690
65133W        W30360  13.608  41.017   3.286
65134W        W30361  21.455  18.095   4.694
65135W        W30362  39.330  22.183   0.299
65136W        W30363  20.940  41.797  12.867
65137W        W30364  41.996   8.532   0.473
65138W        W30365  31.030  26.931  14.092
65139W        W30366  27.511  22.163  14.304
65140W        W30367  40.349   2.238  11.104
65141W        W30368  27.115   9.199   3.689
65142W        W30369  33.769  31.964  12.120
65143W        W30370  37.663   2.448  14.867
65144W        W30371  43.767  41.560   2.221
65145W        W30372  35.024  19.974   2.902
65146W        W30373  28.357   9.423   0.391
65147W        W30374  19.886  22.655   4.220
65148W        W30375  44.506  37.616   2.726
65149W        W30376  29.830  11.754  13.348
65150W        W30377   4.816  44.001   0.386
65151W        W30378  19.333  11.230   0.961
65152W        W30379  30.603  40.581   0.837
65153W        W30380   6.756  31.523   1.305
65154W        W30381  18.704  25.676  12.101
65155W        W30382  18.448  25.266   2.006
65156W        W30383  22.246  11.026  14.485
65157W        W30384  29.963  20.093   0.014
65158W        W30385  22.296  43.675  14.407
65159W        W30386   8.369  35.448   1.801
65160W        W30387  42.739  21.076   3.389
65161W        W30388  36.614   4.426  10.660
65162W        W30389  15.176   0.928   2.683
65163W        W30390  10.746  26.469  13.881
65164W        W30391  16.091  19.293   0.914
65165W        W30392  42.323  20.726   1.907
65166W        W30393   4.652  11.153   1.341
65167W        W30394  35.570  30.319  11.208
65168W        W30395  33.783  15.914  13.598
65169W        W30396  33.954   4.935   3.658
65170W        W30397  18.336  29.655   3.330
65171W        W30398  38.886   8.408   1.397
65172W        W30399  13.304  40.542   3.219
65173W        W30400  13.918  34.079   4.123
65174W        W30401  39.530  10.951   1.931
65175W        W30402  18.148   8.423   0.722
65176W        W30403  23.295   5.616  14.819
65177W        W30404  41.442  30.309  13.334
65178W        W30405  18.243  18.850   1.610
65179W        W30406  40.223  16.758  14.391
65180W        W30407  43.762   8.932  10.391
65181W        W30408  31.036  38.865   1.478
65182W        W30409  26.512  20.197   0.208
65183W        W30410  12.285  31.651   2.633
65184W        W30411  14.242  26.233   0.376
65185W        W30412  10.365  38.627  10.414
65186W        W30413  31.521  34.706   2.400
65187W        W30414  18.142   9.904  14.478
65188W        W30415  32.444   4.809   4.461
65189W        W30416  34.642  18.802  11.000
65190W        W30417  35.823  32.870   1.300
65191W        W30418  36.939  43.515   1.007
65192W        W30419  41.510   5.770   3.527
65193W        W30420  30.452  30.413  13.948
65194W        W30421  43.963  42.370  13.799
65195W        W30422  14.690   8.624  14.401
65196W        W30423  20.579  44.525  10.592
65197W        W30424   7.867  32.079  13.790
65198W        W30425  40.456  39.545   3.713
65199W        W30426  29.597  43.519   4.120
65200W        W30427  28.452  31.986  11.937
65201W        W30428  43.478  25.576   1.300
65202W        W30429   5.368  10.584   1.084
65203W        W30430  23.813  44.617  11.884
65204W        W30431  38.577  19.255   1.939
65205W        W30432   3.974  13.387   2.168
65206W        W30433   1.323  38.931   1.426
65207W        W30434  35.660  44.563   1.199
65208W        W30435  25.176   4.416   2.672
65209W        W30436  33.012  11.817  14.935
65210W        W30437  31.142  29.977   3.318
65211W        W30438  30.637  22.487   1.304
65212W        W30439  18.334   1.445   0.357
65213W        W30440  20.766  27.005  13.121
65214W        W30441  27.892  38.571   9.882
65215W        W30442   1.286   2.632  12.065
65216W        W30443   9.365  13.451  14.961
65217W        W30444  38.464  34.591  13.991
65218W        W30445  37.065  37.486   2.760
65219W        W30446   2.368   6.300  14.706
65220W        W30447   0.487   7.342   1.976
65221W        W30448  31.519  10.121  14.446
65222W        W30449  34.039  20.250   4.429
65223W        W30450   9.553  26.985  13.053
65224W        W30451  36.422   9.166  12.752
65225W        W30452  11.655  38.034   0.384
65226W        W30453  40.035  36.792  12.862
65227W        W30454   4.263  38.325  14.363
65228W        W30455  32.266  35.291   1.618
65229W        W30456  40.093   5.723  13.023
65230W        W30457   3.740   7.560  11.195
65231W        W30458  10.559  30.566   2.591
65232W        W30459  44.476   5.720   2.478
65233W        W30460  25.667  39.896   3.386
65234W        W30461  20.850  10.364   1.276
65235W        W30462  14.176   9.313  11.323
65236W        W30463   2.210  29.377  13.469
65237W        W30464   4.490   7.384   0.310
65238W        W30465  41.976   0.863   4.623
65239W        W30466  31.410  23.842  11.612
65240W        W30467  27.270  37.747  14.306
65241W        W30468  38.427  13.542   3.648
65242W        W30469  36.187  10.283  10.473
65243W        W30470  22.158   3.922   4.223
65244W        W30471  12.456  39.699   0.172
65245W        W30472  13.352  11.793   1.048
65246W        W30473  44.403  22.313   2.428
65247W        W30474   7.866  22.325   2.784
65248W        W30475  42.453   8.789   0.723
65249W        W30476   7.146  26.068  12.109
65250W        W30477   8.287  37.834   4.454
65251W        W30478  35.162  22.406   4.329
65252W        W30479  37.515  30.156  10.263
65253W        W30480   9.476  18.771   4.887
65254W        W30481  27.708  20.580  10.077
65255W        W30482  21.538  22.187   4.698
65256W        W30483  35.467  40.636  13.989
65257W        W30484   4.103  26.967  10.251
65258W        W30485  37.819  26.153  11.767
65259W        W30486  41.419  23.272   3.034
65260W        W30487  29.912  25.631  12.942
65261W        W30488  21.582   3.526  12.930
65262W        W30489  21.206  38.735   2.729
65263W        W30490  10.570  43.385  14.766
65264W        W30491  30.132   8.414   1.010
65265W        W30492  11.238  12.534   2.635
65266W        W30493  28.098  43.941   0.312
65267W        W30494   2.786  12.773   4.475
65268W        W30495   0.469  15.586  11.406
65269W        W30496  43.307  11.814  12.063
65270W        W30497   2.233  24.881  11.135
65271W        W30498   3.392   6.499  11.237
65272W        W30499  17.980  26.244  12.829
65273W        W30500   0.629  27.868   3.161
65274W        W30501  23.518  37.993  13.087
65275W        W30502   0.692  16.169  11.095
65276W        W30503  10.323  16.099  12.203
65277W        W30504  16.082  29.412  14.436
65278W        W30505  11.867  36.064  13.925
65279W        W30506  44.642  31.087  10.242
65280W        W30507  30.577  22.783   0.891
65281W        W30508  28.274  30.813   5.066
65282W        W30509  37.346   2.734  13.576
65283W        W30510  14.228  14.833  10.729
65284W        W30511  21.047  10.692  11.933
65285W        W30512  39.002  19.164  12.570
65286W        W30513  24.710  31.987   4.146
65287W        W30514   9.225  44.088   3.922
65288W        W30515  31.929  23.919   2.729
65289W        W30516  14.363  42.281  12.464
65290W        W30517  28.446  13.079   2.805
65291W        W30518  23.317  18.067  12.694
65292W        W30519  44.801  13.383  11.282
65293W        W30520   8.606  23.206   3.680
65294W        W30521   6.364  24.100  10.676
65295W        W30522   5.384  11.443   4.111
65296W        W30523  33.846  38.860  13.453
65297W        W30524  13.279  15.513   3.267
65298W        W30525  28.144   7.009   3.238
65299W        W30526  40.313  43.796   1.278
65300W        W30527  18.705  39.313   2.829
65301W        W30528  33.917  16.542  14.786
65302W        W30529  17.313   9.439  12.968
65303W        W30530  18.714   1.850   1.971
65304W        W30531  12.914  40.806   4.566
65305W        W30532  15.314   6.415   1.255
65306W        W30533  44.566  38.553  14.002
65307W        W30534  17.844  20.177   3.712
65308W        W30535   5.169   7.877   2.299
65309W        W30536  26.497  19.118  11.542
65310W        W30537  33.077  44.085   1.742
65311W        W30538  32.280  44.484  12.458
65312W        W30539  39.028   0.202   1.794
65313W        W30540  31.971  32.841   0.912
65314W        W30541  44.453  37.704  13.819
65315W        W30542  23.521  34.060   2.328
65316W        W30543  36.346  12.101  13.867
65317W        W30544  16.704  14.734   3.000
65318W        W30545  36.942  32.510  10.626
65319W        W30546  41.470   3.166   1.657
65320W        W30547  33.325  11.275  14.917
65321W        W30548  19.351   4.950  12.821
65322W        W30549  39.414  44.981  11.770
65323W        W30550  23.065  14.886   3.275
65324W        W30551  44.427  35.882  10.377
65325W        W30552  27.901  13.450   1.681
65326W        W30553  19.944  43.927   2.588
65327W        W30554   0.835  30.262  10.033
65328W        W30555   6.022   0.707  12.580
65329W        W30556  30.581  20.948  14.012
65330W        W30557  23.055  32.438  14.492
65331W        W30558   9.921  44.813  14.888
65332W        W30559  19.664  29.234   4.970
65333W        W30560  22.568  42.250   0.988
65334W        W30561  18.156   4.786  12.486
65335W        W30562  37.868  33.605  10.722
65336W        W30563  19.065  36.937  12.937
65337W        W30564  36.796  25.457  13.030
65338W        W30565  19.451  27.369   0.422
65339W        W30566  20.277  34.503  12.452
65340W        W30567  41.644  27.707  12.950
65341W        W30568  19.025   2.231   4.196
65342W        W30569  35.699  18.956   0.679
65343W        W30570   8.657  17.102   4.179
65344W        W30571   9.743  44.855   2.973
65345W        W30572  39.651  40.942  12.584
65346W        W30573  18.202  21.642  12.031
65347W        W30574  18.627  33.991  11.473
65348W        W30575  33.444   7.799   0.800
65349W        W30576   3.777  27.586  14.003
65350W        W30577  23.468  37.063  12.888
65351W        W30578  13.204  38.492   0.954
65352W        W30579  35.618  16.988  12.385
65353W        W30580  16.309  14.277   4.965
65354W        W30581   2.765  34.314   0.037
65355W        W30582   7.172   1.213  13.392
65356W        W30583  22.262  25.212   2.208
65357W        W30584  16.677  22.070  10.769
65358W        W30585   0.249   1.326   3.210
65359W        W30586   8.492  33.469   1.244
65360W        W30587  40.385  37.937   4.365
65361W        W30588  19.205  28.605  14.759
65362W        W30589  16.340   7.202  10.607
65363W        W30590  36.819  42.259  12.519
65364W        W30591  39.516  13.584  14.946
65365W        W30592   5.285  23.206  13.903
65366W        W30593  35.395  22.825   2.280
65367W        W30594   2.485  15.835   1.702
65368W        W30595  15.549  30.971   0.134
65369W        W30596  28.437  21.733   1.731
65370W        W30597  39.145  23.556   2.239
65371W        W30598  24.020   7.244  14.818
65372W        W30599  41.151  41.435   3.618
65373W        W30600  11.333  18.691  14.832
65374W        W30601   7.979   0.857  11.591
65375W        W30602   4.822  27.887  12.354
65376W        W30603  26.531   6.017   4.496
65377W        W30604  30.032  22.138  12.746
65378W        W30605  15.102  29.209   2.186
65379W        W30606  41.935  15.523   4.632
65380W        W30607  38.318  31.444   1.953
65381W        W30608   3.008  33.522  10.633
65382W        W30609   6.479  12.078   2.677
65383W        W30610   0.535  22.550   2.714
65384W        W30611  35.343  11.277   0.910
65385W        W30612  44.511  16.063   0.407
65386W        W30613  22.998  36.843  12.403
65387W        W30614  29.012  31.419   1.066
65388W        W30615  27.733  15.810  13.719
65389W        W30616  16.875  28.007   1.316
65390W        W30617  35.113   5.827   2.479
65391W        W30618  28.171   3.017  11.533
65392W        W30619  28.433  36.012   1.513
65393W        W30620  37.151  42.510   4.349
65394W        W30621  28.612  22.302   2.662
65395W        W30622  43.559  17.162   4.856
65396W        W30623  34.617  18.204   2.683
65397W        W30624  35.833  34.790  11.545
65398W        W30625   4.628  23.753   0.888
65399W        W30626  40.024  13.160   0.687
65400W        W30627  24.733  39.835  11.583
65401W        W30628   0.387  21.241  13.847
65402W        W30629  16.052   2.094  11.617
65403W        W30630  23.216  16.139   1.956
65404W        W30631  43.308  38.976   2.619
65405W        W30632  16.665  36.062  12.457
65406W        W30633   1.050  25.968   0.342
65407W        W30634  37.386   2.754  13.070
65408W        W30635  35.081  28.565  11.122
65409W        W30636  40.359   5.407   0.530
65410W        W30637   1.450  14.600  13.739
65411W        W30638   9.876  37.288   4.344
65412W        W30639   7.429  28.813  12.001
65413W        W30640  13.987  21.729   1.490
65414W        W30641  12.299  36.491  11.217
65415W        W30642  21.675  30.908  11.690
65416W        W30643  17.419  27.917   2.271
65417W        W30644  29.033  43.783   1.667
65418W        W30645  40.316  43.303  11.104
65419W        W30646  33.536  20.125   2.770
65420W        W30647  19.591  23.035   2.775
65421W        W30648  24.611   5.136   2.401
65422W        W30649   2.460   0.590   3.075
65423W        W30650  44.466  36.982   5.195
65424W        W30651  37.696  18.512   9.930
65425W        W30652   6.187  30.472   0.992
65426W        W30653   5.894   6.654  12.449
65427W        W30654  37.309   8.759   0.710
65428W        W30655  28.739  42.048   2.284
65429W        W30656  41.635   6.354   3.284
65430W        W30657  33.064   6.343   1.865
65431W        W30658  12.823   8.670   4.165
65432W        W30659   8.655  43.325  11.148
65433W        W30660  17.156  27.700   1.803
65434W        W30661   4.655  38.349  13.655
65435W        W30662   2.082  39.365  14.506
65436W        W30663   2.377  10.865   1.331
65437W        W30664  23.217   7.870   1.034
65438W        W30665  38.622  37.142   4.007
65439W        W30666  32.178  14.356   2.363
65440W        W30667   9.241   1.862   5.151
65441W        W30668  27.700  24.782   3.583
65442W        W30669  33.134  39.875  14.032
65443W        W30670  34.993  26.823  12.543
65444W        W30671  40.006  27.727  10.738
65445W        W30672   3.977  28.252  10.931
65446W        W30673   0.751  24.916  11.218
65447W        W30674  19.122  12.533  13.177
65448W        W30675   1.436   5.368   1.891
65449W        W30676  23.138  29.858   4.656
65450W        W30677  13.600  18.677   4.364
65451W        W30678   6.581  33.598   1.211
65452W        W30679  34.822   2.838  12.386
65453W        W30680  19.368  12.582  11.468
65454W        W30681  36.423   1.647   1.887
65455W        W30682   2.430  17.310   1.843
65456W        W30683  19.289  33.532   2.414
65457W        W30684   4.684  34.354  11.670
65458W        W30685  21.465  31.998   0.343
65459W        W30686  24.796  27.132  13.748
65460W        W30687   6.338  42.433  10.781
65461W        W30688  35.074   1.182  14.396
65462W        W30689  31.508  31.498  12.487
65463W        W30690  11.345  10.189   3.792
65464W        W30691  31.002  32.576   4.181
65465W        W30692  12.788  26.191   3.796
65466W        W30693   5.775  44.529   3.094
65467W        W30694  21.123  41.016  11.043
65468W        W30695  32.830  31.538  11.992
65469W        W30696   1.836  32.040   1.809
65470W        W30697  14.534  36.579  11.526
65471W        W30698  36.918   4.937   3.174
65472W        W30699  31.664  40.347   4.682
65473W        W30700  28.404  30.673  13.831
65474W        W30701  16.586   4.808   1.551
65475W        W30702  18.193   9.195   1.208
65476W        W30703   8.300  44.963  12.656
65477W        W30704  18.724   3.742   2.813
65478W        W30705  13.037  13.546  13.974
65479W        W30706   8.606   7.699  12.895
65480W        W30707  23.010  17.993   2.820
65481W        W30708  22.619   3.265  11.603
65482W        W30709  33.053  12.222  11.708
65483W        W30710   7.129  34.476  13.065
65484W        W30711  40.579  12.710   0.663
65485W        W30712  36.708  28.890   3.634
65486W        W30713  12.091  22.173   0.332
65487W        W30714  34.638  16.663  12.928
65488W        W30715   6.905  20.227   3.642
65489W        W30716  24.562  13.189  10.799
65490W        W30717  11.951  11.589  14.895
65491W        W30718  16.846  29.556   0.171
65492W        W30719  42.848  27.467   3.350
65493W        W30720  27.233  16.123  12.511
65494W        W30721   8.338  40.130   3.322
65495W        W30722   1.891  20.204   3.602
65496W        W30723  40.831  25.028  10.893
65497W        W30724  28.545  24.039   4.812
65498W        W30725  42.377  37.410  12.423
65499W        W30726  44.319  24.970   3.575
65500W        W30727  29.713  17.089   2.780
65501W        W30728  37.027  26.998  13.531
65502W        W30729  43.320   2.861  12.100
65503W        W30730  26.738  28.977  13.383
65504W        W30731   3.979  25.565  12.365
65505W        W30732  26.957  35.581  14.338
65506W        W30733   1.420  39.050   4.338
65507W        W30734  30.417  21.279   0.417
65508W        W30735  28.156  32.949   4.134
65509W        W30736   1.953  17.284   1.659
65510W        W30737  10.217  29.961  14.990
65511W        W30738  43.720  12.753   0.284
65512W        W30739  35.548  12.202  13.347
65513W        W30740   5.723  33.916   2.881
65514W        W30741  19.479  16.043  13.277
65515W        W30742  30.371  12.321  11.510
65516W        W30743  42.298  34.940  14.065
65517W        W30744   7.731  31.493  14.339
65518W        W30745  39.376  25.460  10.756
65519W        W30746  25.477  12.770   4.582
65520W        W30747  25.566  10.514  11.622
65521W        W30748  23.174  34.492   2.903
65522W        W30749  15.834  13.211   3.356
65523W        W30750   2.511   2.960   0.003
65524W        W30751  12.012  44.287   3.687
65525W        W30752  21.324  15.122   0.043
65526W        W30753  28.007  36.772  13.420
65527W        W30754  22.004   1.942   1.766
65528W        W30755   1.171  43.820   3.127
65529W        W30756  26.494  23.604   0.998
65530W        W30757  35.403  41.811   4.432
65531W        W30758  10.861  16.708   1.306
65532W        W30759  37.912   5.633  12.389
65533W        W30760  42.898   2.739  11.803
65534W        W30761  31.363  24.123  14.886
65535W        W30762  43.684  22.323   4.711
65536W        W30763  28.062   9.857   4.257
65537W        W30764  36.665  38.539   1.049
65538W        W30765  15.776   4.332   0.486
65539W        W30766  41.859  39.640   3.924
65540W        W30767   7.794  42.878  12.837
65541W        W30768   1.685  21.767  12.535
65542W        W30769  38.601  44.425  11.201
65543W        W30770  29.799  31.653   1.332
65544W        W30771  23.572  24.476  13.017
65545W        W30772  33.027  28.144  11.606
65546W        W30773  43.825  37.865   3.827
65547W        W30774  19.984  19.160   4.876
65548W        W30775  35.412   5.424  11.144
65549W        W30776  24.477  33.642   1.316
65550W        W30777  21.300   8.329  11.597
65551W        W30778  24.205  21.751  13.156
65552W        W30779  23.299   6.805   1.276
65553W        W30780  14.691  25.004   4.716
65554W        W30781  31.066  26.091  12.325
65555W        W30782  11.823  28.963   0.184
65556W        W30783  37.805  28.536  14.796
65557W        W30784  29.336  20.722  14.944
65558W        W30785  35.892  43.873   1.711
65559W        W30786  18.103  11.204   2.394
65560W        W30787   8.843  39.047   0.034
65561W        W30788  30.834  11.175   1.926
65562W        W30789  36.639  14.205  13.097
65563W        W30790  30.664   6.122  14.822
65564W        W30791  14.066   2.929   1.245
65565W        W30792  44.157   3.841  13.852
65566W        W30793  43.783   4.199  11.616
65567W        W30794  33.978  13.573   3.632
65568W        W30795  14.750  33.286   2.747
65569W        W30796  12.782  13.677  12.691
65570W        W30797  11.589  14.352   4.069
65571W        W30798  24.447  19.999  11.092
65572W        W30799  39.555  29.190   2.718
65573W        W30800  14.194  36.539   2.147
65574W        W30801   8.595  37.405   4.546
65575W        W30802  37.324  19.247   1.318
65576W        W30803   6.237  29.898   2.784
65577W        W30804  42.136  16.250  12.567
65578W        W30805  21.617  26.055   1.825
65579W        W30806  40.514  32.070   4.999
65580W        W30807  44.133  33.883  11.559
65581W        W30808  28.443  24.631   4.654
65582W        W30809   9.129  29.213   2.271
65583W        W30810  34.654  15.063   3.749
65584W        W30811   7.059  41.461   1.084
65585W        W30812   4.556   8.746   4.106
65586W        W30813  43.720  38.874   9.700
65587W        W30814   0.825  43.284  13.754
65588W        W30815  13.157  21.341   4.511
65589W        W30816  32.080  39.848   0.340
65590W        W30817  26.973  11.819  11.667
65591W        W30818   3.352  29.607  14.757
65592W        W30819  31.463   8.912  11.205
65593W        W30820   9.364   8.103   2.642
65594W        W30821  43.089   3.292  13.253
65595W        W30822  38.536  27.705   4.018
65596W        W30823  18.728  15.586  13.295
65597W        W30824  25.973  44.315  11.644
65598W        W30825  32.923  36.137   2.766
65599W        W30826  32.399  30.601   3.196
65600W        W30827   0.473   1.260   0.717
65601W        W30828  25.586   6.183  11.096
65602W        W30829  14.322  40.386  14.257
65603W        W30830  33.810   8.810   2.742
65604W        W30831  18.367  40.000   1.911
65605W        W30832  43.569  10.123   1.380
65606W        W30833   7.580  38.708  10.971
65607W        W30834  18.678   5.198  13.090
65608W        W30835  42.299   5.626  14.660
65609W        W30836  33.334  27.610  10.783
65610W        W30837  36.132  12.746   4.314
65611W        W30838  28.045  16.559   1.161
65612W        W30839  39.072  11.280   1.234
65613W        W30840  35.496  28.409  14.859
65614W        W30841  42.817   7.191   4.998
65615W        W30842  11.274  43.746   3.597
65616W        W30843  26.209  16.127  13.330
65617W        W30844  34.205  21.142   5.000
65618W        W30845  28.401   6.211   0.209
65619W        W30846  29.096   9.622   3.247
65620W        W30847   6.183  19.977  13.791
65621W        W30848  43.635  16.456   4.619
65622W        W30849  17.511  33.762   3.950
65623W        W30850  19.724  23.389   1.385
65624W        W30851   2.453  20.553   0.367
65625W        W30852  29.358  43.379  13.677
65626W        W30853  10.072  16.438  10.396
65627W        W30854   2.270  10.179  13.162
65628W        W30855  38.330  32.632   3.175
65629W        W30856  13.507  20.065  14.091
65630W        W30857   6.204  12.411  13.418
65631W        W30858  20.005  19.746   3.116
65632W        W30859  21.056  39.060   4.034
65633W        W30860   9.283  38.862   2.871
65634W        W30861  28.957   0.034  14.990
65635W        W30862  43.897   4.969   1.938
65636W        W30863  38.513  40.553  12.220
65637W        W30864  26.701   4.028  12.049
65638W        W30865  11.751  18.648  10.913
65639W        W30866   6.574   6.393  14.871
65640W        W30867  44.625  16.738  11.693
65641W        W30868  24.241   0.949   3.875
65642W        W30869  27.280  36.408  10.596
65643W        W30870  43.969  17.519  10.277
65644W        W30871  36.598   2.044  11.477
65645W        W30872  10.763  14.896   1.774
65646W        W30873  16.191  35.296  12.630
65647W        W30874  40.557  28.210  14.435
65648W        W30875  30.997  22.176   1.484
65649W        W30876  10.317  35.476   9.625
65650W        W30877   6.356  38.454   2.414
65651W        W30878   3.743  18.131   4.539
65652W        W30879  25.832  15.884  13.653
65653W        W30880  10.876  15.573   0.393
65654W        W30881  38.483  31.984  10.686
65655W        W30882   1.319   6.771  11.078
65656W        W30883  31.870  35.746   5.010
65657W        W30884  21.801  34.866  12.551
65658W        W30885  26.260  37.899  11.233
65659W        W30886  34.662  27.563  11.122
65660W        W30887   0.567  42.646   2.633
65661W        W30888  12.307  26.025   0.208
65662W        W30889  33.085  32.836   2.621
65663W        W30890  12.650  26.909  13.381
65664W        W30891  21.146  38.544   2.236
65665W        W30892  33.326   0.637  13.364
65666W        W30893  28.539   4.166  11.675
65667W        W30894  33.928  10.316   2.396
65668W        W30895  20.275  25.274   5.003
65669W        W30896  41.259  24.982   0.366
65670W        W30897  38.940  16.395   0.945
65671W        W30898   1.022  21.263  12.088
65672W        W30899   7.822  17.900  10.345
65673W        W30900  21.126  39.791  14.751
65674W        W30901   1.998  20.918   3.228
65675W        W30902  37.846  10.695  11.631
65676W        W30903  12.269  14.565   3.095
65677W        W30904  18.452  41.336  10.697
65678W        W30905  33.152  35.578   2.830
65679W        W30906   7.417  39.580  13.802
65680W        W30907   2.292  10.528   4.106
65681W        W30908  15.385   8.706  10.070
65682W        W30909   0.344   4.860   1.480
65683W        W30910  12.150  38.189   3.718
65684W        W30911  26.555   6.489   3.076
65685W        W30912   1.324   1.245   1.441
65686W        W30913  17.010   4.803  10.918
65687W        W30914   4.285  25.522   3.100
65688W        W30915   6.354  27.984  12.482
65689W        W30916  28.127   2.249   0.006
65690W        W30917   5.386  25.887  11.412
65691W        W30918  42.276  39.441  11.472
65692W        W30919  15.064  12.712  14.403
65693W        W30920   9.760   8.811  11.538
65694W        W30921  41.168  11.361  10.753
65695W        W30922  41.879  25.709  14.795
65696W        W30923  43.748  43.159   4.553
65697W        W30924  22.967  30.651  12.731
65698W        W30925  41.799  21.285  13.183
65699W        W30926  20.805  39.096  13.104
65700W        W30927   7.703  32.966   4.308
65701W        W30928  26.462  39.022   1.865
65702W        W30929  34.955  38.644  12.373
65703W        W30930   0.908  35.630  11.656
65704W        W30931   9.838  19.865   0.864
65705W        W30932  44.769   1.019  11.442
65706W        W30933   3.485   6.069   5.101
65707W        W30934  29.164   8.657   2.306
65708W        W30935   1.982  38.514  11.980
65709W        W30936  14.895  16.060   3.556
65710W        W30937  27.994  18.482   2.329
65711W        W30938  38.077  31.086  12.522
65712W        W30939   4.958  28.662  13.745
65713W        W30940  33.461  14.039  14.078
65714W        W30941   2.530  31.023  13.803
65715W        W30942  10.188  25.704  11.675
65716W        W30943   1.349  12.200   3.145
65717W        W30944  44.571  38.647   2.774
65718W        W30945  27.623  20.587  10.600
65719W        W30946  38.010   6.979  14.054
65720W        W30947   3.695   4.594  11.138
65721W        W30948  18.276   3.128  14.711
65722W        W30949  12.307  36.497  13.064
65723W        W30950  17.715  32.193   2.367
65724W        W30951   9.276  25.158  13.433
65725W        W30952   3.710  38.451   3.267
65726W        W30953  15.977  22.650  12.014
65727W        W30954  13.970   2.960   4.773
65728W        W30955  25.477  16.782  12.052
65729W        W30956  43.723   2.911  11.204
65730W        W30957  36.534  26.310  13.198
65731W        W30958  25.677  14.053   0.602
65732W        W30959   4.237   7.847   2.906
65733W        W30960  35.842  35.799   5.311
65734W        W30961   0.492  34.572  12.781
65735W        W30962  19.675  12.985  14.369
65736W        W30963  25.133  35.035   5.073
65737W        W30964  14.522  18.016   5.043
65738W        W30965  31.616  44.935   1.723
65739W        W30966  13.241   6.192   4.267
65740W        W30967   9.227  16.296  14.913
65741W        W30968  12.311  41.537   4.181
65742W        W30969  22.746   4.721  12.528
65743W        W30970  25.589  28.640  12.929
65744W        W30971  42.849   6.477  11.708
65745W        W30972  10.901  19.666  12.996
65746W        W30973  18.664   9.301  13.818
65747W        W30974  27.965  22.276  12.810
65748W        W30975  30.943   9.589  13.500
65749W        W30976  43.108  17.991   4.972
65750W        W30977  29.596  11.886  13.794
65751W        W30978  33.442  15.040  14.479
65752W        W30979  24.586   1.914  14.983
65753W        W30980  21.550  34.544   3.434
65754W        W30981  40.404  40.644   1.383
65755W        W30982  25.941  38.812  10.701
65756W        W30983  42.206  35.306   2.276
65757W        W30984  18.765   5.962   1.723
65758W        W30985  21.783  44.918   3.735
65759W        W30986   5.417  29.118   0.274
65760W        W30987  18.307   7.387   2.932
65761W        W30988  18.544   8.292  14.032
65762W        W30989  20.092   6.844   3.666
65763W        W30990  36.455  42.248  12.167
65764W        W30991  17.504  33.166   2.699
65765W        W30992   8.210  34.663   1.112
65766W        W30993  26.148  37.456  10.525
65767W        W30994  25.975  32.998   2.760
65768W        W30995   2.545   6.686   4.191
65769W        W30996  20.047  21.361  13.776
65770W        W30997  23.674   4.758   0.451
65771W        W30998  13.614   7.978  14.397
65772W        W30999  20.173  13.015   2.273
65773W        W31000  18.088  18.009  14.597
65774W        W31001  32.007  23.578  12.757
65775W        W31002   0.379   6.016  12.456
65776W        W31003  26.295  41.477  11.623
65777W        W31004   7.415  40.895  14.886
65778W        W31005  42.816  38.011  12.943
65779W        W31006   4.156  22.308   1.949
65780W        W31007   1.430   7.619   1.829
65781W        W31008  30.718  16.247  13.286
65782W        W31009  28.443   5.329   2.166
65783W        W31010   5.753  40.175  13.375
65784W        W31011  43.410  19.144  13.602
65785W        W31012  37.737  10.251   0.762
65786W        W31013   0.485  38.174  14.481
65787W        W31014   7.372  16.712  13.964
65788W        W31015   3.711  24.084   0.722
65789W        W31016   5.725  32.047  13.901
65790W        W31017  22.445   8.875   4.664
65791W        W31018   6.838  32.989   3.650
65792W        W31019  35.886  36.404  12.845
65793W        W31020  26.738  14.054   2.455
65794W        W31021   3.842   9.239  14.761
65795W        W31022  31.641  22.201   0.037
65796W        W31023  43.529  17.701  13.012
65797W        W31024   9.813  44.697   0.818
65798W        W31025  43.525  14.193   0.951
65799W        W31026  22.516   1.712  14.981
65800W        W31027  34.832  27.672  13.865
65801W        W31028   3.767  18.960  14.840
65802W        W31029   1.767  24.731   2.869
65803W        W31030  21.024  11.767  11.577
65804W        W31031   0.777   7.277  12.606
65805W        W31032  39.441  39.822   1.783
65806W        W31033   5.668  24.961  13.927
65807W        W31034   3.194  15.281   1.758
65808W        W31035   8.334  11.176  13.045
65809W        W31036   6.153  20.046   4.185
65810W        W31037  39.549  41.426   3.760
65811W        W31038  24.138  27.694   3.122
65812W        W31039  19.010  22.167  11.254
65813W        W31040  11.770  37.100   4.546
65814W        W31041  39.784  20.536   2.836
65815W        W31042  33.689  38.928  12.225
65816W        W31043  15.649  32.357  10.222
65817W        W31044   0.272  23.008   2.800
65818W        W31045  44.554  17.933   4.954
65819W        W31046  14.710  25.462   3.783
65820W        W31047  28.539  24.220   1.970
65821W        W31048  24.193  27.114  12.397
65822W        W31049  31.918  26.001   3.873
65823W        W31050  26.819  30.914  14.862
65824W        W31051   4.328  10.465  13.916
65825W        W31052  28.571  27.640  12.054
65826W        W31053   3.487  12.055   0.322
65827W        W31054  31.116  13.685   0.820
65828W        W31055  44.709   1.273   4.108
65829W        W31056  28.767  40.046   5.060
65830W        W31057  10.595   8.251   3.435
65831W        W31058  23.027   3.880  12.976
65832W        W31059  36.184  44.081  14.539
65833W        W31060  11.460  33.463  12.448
65834W        W31061  12.078   3.058  11.086
65835W        W31062  10.090  19.157  13.926
65836W        W31063  13.901  43.444  14.439
65837W        W31064  38.267   9.794   2.402
65838W        W31065  30.502  39.425  14.446
65839W        W31066  37.411  31.508  10.900
65840W        W31067  37.945  29.112   2.438
65841W        W31068  40.558  11.333  13.365
65842W        W31069  39.164  30.649  14.805
65843W        W31070  19.069  43.405   2.267
65844W        W31071  11.283   6.421  14.807
65845W        W31072  15.131   1.394  14.353
65846W        W31073  11.143  39.102   1.464
65847W        W31074   5.708  38.518   4.731
65848W        W31075  38.628  14.598  11.152
65849W        W31076  28.111  13.118  13.886
65850W        W31077  23.838  16.132   4.626
65851W        W31078  14.829   0.601  11.605
65852W        W31079  26.112   2.887   2.294
65853W        W31080  31.970   0.770  14.573
65854W        W31081   3.230   5.811  14.040
65855W        W31082   7.500  20.159  11.661
65856W        W31083  39.434  22.818  13.942
65857W        W31084  44.405  41.261  13.056
65858W        W31085  28.379  24.756   4.129
65859W        W31086  26.835   2.831   4.665
65860W        W31087  13.204   6.837  13.790
65861W        W31088  41.872  23.426   3.737
65862W        W31089  12.729  12.483  12.972
65863W        W31090  17.016  16.687  13.564
65864W        W31091   1.421   3.887  13.378
65865W        W31092  27.884   6.089   0.347
65866W        W31093  10.396  10.399  11.158
65867W        W31094  24.229  27.192   4.647
65868W        W31095   1.180  35.276   4.204
65869W        W31096  17.340  10.047   0.310
65870W        W31097  20.022  29.880  12.124
65871W        W31098  32.637   4.323   4.360
65872W        W31099   5.300  19.346  14.484
65873W        W31100  23.679  21.543   2.188
65874W        W31101  34.437  21.682  12.357
65875W        W31102  37.320   4.058  10.962
65876W        W31103  14.658  26.768  13.124
65877W        W31104   0.292  35.380  10.498
65878W        W31105  16.763  33.981   2.088
65879W        W31106   6.974  24.891   2.672
65880W        W31107  31.165   7.773   3.712
65881W        W31108   9.937  25.204  12.920
65882W        W31109  10.143  18.627  13.968
65883W        W31110   7.216  32.837   3.986
65884W        W31111  21.465  35.050  14.324
65885W        W31112  41.150  35.816  12.358
65886W        W31113  16.171  12.296  11.989
65887W        W31114  39.386  25.444  14.422
65888W        W31115  40.637   3.280   1.972
65889W        W31116   5.554  12.869   1.479
65890W        W31117  14.560  18.601  14.410
65891W        W31118   3.803  23.874  11.205
65892W        W31119  20.482  39.393   3.624
65893W        W31120   9.981   2.187  13.375
65894W        W31121  19.172  13.612  13.948
65895W        W31122  11.794  33.497   0.494
65896W        W31123  39.378  21.394   0.712
65897W        W31124  30.922   3.283   2.230
65898W        W31125  34.863  28.460   0.772
65899W        W31126  34.980  33.008  11.656
65900W        W31127  20.185  11.891  12.579
65901W        W31128  39.345  18.949   2.173
65902W        W31129  39.029  15.630  13.121
65903W        W31130  31.031   9.166   1.046
65904W        W31131   3.798  20.336  14.879
65905W        W31132  40.041  12.703  12.394
65906W        W31133  41.604   1.859   5.044
65907W        W31134  39.338  33.843   4.626
65908W        W31135  36.698  30.439  10.688
65909W        W31136  21.027   7.008   4.931
65910W        W31137  41.137  29.228   2.634
65911W        W31138  16.790  37.571  14.023
65912W        W31139  14.509   1.593   3.211
65913W        W31140  24.637  38.583   1.389
65914W        W31141  33.863  43.282  12.373
65915W        W31142  32.567  41.427   0.273
65916W        W31143   4.456  19.224   4.216
65917W        W31144  33.081  29.791   1.898
65918W        W31145  18.356  24.024  13.414
65919W        W31146   3.702  12.499   2.155
65920W        W31147   2.816   9.656   2.290
65921W        W31148  39.994  22.563   0.345
65922W        W31149   4.310  11.888  14.741
65923W        W31150  12.253  38.878  14.419
65924W        W31151  26.024   2.514  14.844
65925W        W31152  42.699  32.187   0.438
65926W        W31153  36.505   0.505   4.830
65927W        W31154  18.531  28.499  10.744
65928W        W31155  35.440  12.140   4.124
65929W        W31156  11.501  44.570   0.530
65930W        W31157  38.554   9.596  11.639
65931W        W31158  17.275  12.318  12.882
65932W        W31159  27.537  42.213   3.656
65933W        W31160  30.720   0.966  13.295
65934W        W31161  28.898  33.953   0.439
65935W        W31162  37.379   9.354  10.208
65936W        W31163  14.645   9.783  12.471
65937W        W31164  44.812   0.932  12.139
65938W        W31165  20.665   4.411  14.064
65939W        W31166  14.980  43.501   3.545
65940W        W31167  31.122  13.141  12.804
65941W        W31168  25.933  34.472   0.392
65942W        W31169  29.425  19.093  12.563
65943W        W31170  27.256  33.890  14.011
65944W        W31171  22.756  23.425   3.695
65945W        W31172   2.216  34.884  13.103
65946W        W31173  24.806  34.803  12.934
65947W        W31174  15.780   8.411  14.746
65948W        W31175  20.264  36.728  14.816
65949W        W31176   8.397   4.378  13.566
65950W        W31177  18.157  26.936   1.720
65951W        W31178   0.979  18.260   2.861
65952W        W31179   6.939   4.481  10.818
65953W        W31180  43.937   3.257   3.682
65954W        W31181  19.377   7.580  14.918
65955W        W31182  35.869  11.286   0.844
65956W        W31183  22.525  12.596   3.656
65957W        W31184  13.631  41.054  13.485
65958W        W31185   9.571  32.101  11.623
65959W        W31186  15.100  12.238   0.408
65960W        W31187  28.261  13.356  13.069
65961W        W31188   8.953  31.167   1.258
65962W        W31189  36.036  24.578  13.807
65963W        W31190  41.147  37.233   4.045
65964W        W31191  43.223  44.594   2.267
65965W        W31192  12.232  42.511   2.749
65966W        W31193  43.575  31.682   3.300
65967W        W31194   1.137  39.814  12.908
65968W        W31195  41.568  43.471   2.761
65969W        W31196  29.047  31.596  11.246
65970W        W31197  37.060  13.397   2.270
65971W        W31198  11.198   4.488  13.734
65972W        W31199   8.361  12.758   1.162
65973W        W31200  33.734  44.089  12.055
65974W        W31201  37.455  19.010   2.240
65975W        W31202   6.818  10.237  10.496
65976W        W31203  32.925   8.389   0.372
65977W        W31204  12.036  20.691   4.454
65978W        W31205  26.972   6.375   1.173
65979W        W31206  24.196  41.521   4.719
65980W        W31207  29.044   7.098   2.440
65981W        W31208  12.154  35.190  11.509
65982W        W31209  44.482   1.133  14.838
65983W        W31210  13.845  30.050   3.907
65984W        W31211  40.752  24.456   1.773
65985W        W31212  25.055  34.081   3.865
65986W        W31213   3.314  33.908   3.903
65987W        W31214  36.600  36.172   3.230
65988W        W31215  22.260  38.573  11.174
65989W        W31216  20.682   3.544   2.733
65990W        W31217   9.323  26.006   1.662
65991W        W31218  19.658  14.584   4.572
65992W        W31219   8.359  16.656  14.407
65993W        W31220  34.153  13.371   5.446
65994W        W31221   2.352   8.634   0.526
65995W        W31222  30.069  10.076   4.210
65996W        W31223  26.064  26.787  11.648
65997W        W31224   6.189  25.229   3.620
65998W        W31225  41.148  30.999   3.672
65999W        W31226  39.542  20.752   2.422
66000W        W31227   4.471   3.309   1.585
66001W        W31228  40.031  12.328   2.648
66002W        W31229  13.412  31.488   2.575
66003W        W31230  34.470  32.598   3.705
66004W        W31231  44.950   6.661   3.296
66005W        W31232   2.415  25.081   4.083
66006W        W31233   8.457   3.889   4.745
66007W        W31234  23.330  44.495   0.840
66008W        W31235  32.155  42.106   1.635
66009W        W31236  36.844  20.088  11.284
66010W        W31237   5.879  34.318  10.598
66011W        W31238  34.347   8.497  12.152
66012W        W31239  23.469  19.450  12.143
66013W        W31240  27.565  21.001   3.353
66014W        W31241  34.405  12.488   4.650
66015W        W31242  18.653  42.875   0.323
66016W        W31243  18.479  32.475   1.749
66017W        W31244  39.849  26.783  12.950
66018W        W31245  42.980  43.427   4.112
66019W        W31246  15.869  34.019  10.141
66020W        W31247  12.688  39.259   1.373
66021W        W31248  35.417  36.542   3.122
66022W        W31249   6.323   7.816   4.738
66023W        W31250  12.185  25.312  12.965
66024W        W31251  12.046  38.932  10.828
66025W        W31252  14.437  20.835  12.954
66026W        W31253   3.761  12.149   4.162
66027W        W31254   0.345  20.415  13.275
66028W        W31255  21.299  21.710  12.898
66029W        W31256  17.579  28.347  13.830
66030W        W31257  19.557  29.231  11.694
66031W        W31258  29.613  22.024   0.921
66032W        W31259  35.914  35.618   2.802
66033W        W31260  36.694  43.449   1.836
66034W        W31261   5.004  40.020  14.577
66035W        W31262  14.789   0.282   1.992
66036W        W31263  44.850  26.538   4.982
66037W        W31264  35.551  23.074  12.385
66038W        W31265   2.693  21.802   1.424
66039W        W31266  16.845  31.481   4.186
66040W        W31267  27.318  40.572   2.110
66041W        W31268  17.167  26.983   3.382
66042W        W31269  39.536  11.077   0.526
66043W        W31270  23.882   7.689  14.327
66044W        W31271  14.326  11.364   3.756
66045W        W31272  12.534  23.138   2.389
66046W        W31273   8.693  10.735  14.494
66047W        W31274   4.840  22.691  11.721
66048W        W31275  35.742  26.259  11.212
66049W        W31276  21.035  42.841   2.347
66050W        W31277  33.392  12.467  13.930
66051W        W31278  36.830   6.922   2.702
66052W        W31279  26.882  15.661   0.880
66053W        W31280   3.450   2.151  13.479
66054W        W31281  31.176  40.998  13.227
66055W        W31282  22.758  30.595   2.036
66056W        W31283  28.697  35.921  10.796
66057W        W31284  25.728  37.392  12.431
66058W        W31285  15.388   9.699  14.181
66059W        W31286   2.802  19.699   3.515
66060W        W31287   9.452  20.795  13.711
66061W        W31288  44.427  25.115   4.588
66062W        W31289  31.995  35.529   0.311
66063W        W31290   2.520  29.191   2.030
66064W        W31291  21.956  31.461   0.667
66065W        W31292   4.907   1.749  11.059
66066W        W31293   9.856  43.937  14.939
66067W        W31294  40.148  35.079  14.188
66068W        W31295  40.450  18.160   1.322
66069W        W31296   7.211  21.731   4.575
66070W        W31297  30.551  23.784   0.848
66071W        W31298  18.448  11.040  10.738
66072W        W31299  23.187  29.358   4.380
66073W        W31300  16.175  25.573  11.144
66074W        W31301  17.309   3.210   1.359
66075W        W31302   6.608  38.773   0.469
66076W        W31303  32.606  12.290   0.688
66077W        W31304   6.274  26.491   0.324
66078W        W31305  20.292  35.885  14.474
66079W        W31306  44.414   1.844   0.248
66080W        W31307   6.821  21.571   2.103
66081W        W31308   3.573  14.386  14.010
66082W        W31309  25.668  31.466   1.235
66083W        W31310  34.793  33.697   4.165
66084W        W31311  23.953  43.375  13.367
66085W        W31312  36.703  11.292  11.044
66086W        W31313  18.958   9.845   1.301
66087W        W31314  12.252  41.976   2.806
66088W        W31315  37.496  44.341   1.894
66089W        W31316  23.462  18.002  13.632
66090W        W31317  23.583   7.514   0.838
66091W        W31318  42.420  16.381  12.112
66092W        W31319  19.574  28.662   1.805
66093W        W31320  27.412  30.049   2.377
66094W        W31321  39.899  29.434   3.028
66095W        W31322  26.519  23.999  11.172
66096W        W31323  37.020  38.260   2.561
66097W        W31324   3.189   2.951   1.220
66098W        W31325  37.460  17.015   4.476
66099W        W31326  44.169  16.645   0.865
66100W        W31327  10.426   1.007  10.869
66101W        W31328  23.051   8.375  11.994
66102W        W31329  20.891  27.289   4.108
66103W        W31330  36.459  37.599  14.432
66104W        W31331  27.449   0.915  12.165
66105W        W31332   1.793  19.705  11.662
66106W        W31333  15.721  16.694  11.508
66107W        W31334   6.890  24.190   2.244
66108W        W31335  20.692  34.023  14.004
66109W        W31336  36.868  37.825  14.713
66110W        W31337  33.200  41.017   4.116
66111W        W31338  34.540  26.148  12.114
66112W        W31339  32.521  36.519   2.649
66113W        W31340  44.829   6.810  11.084
66114W        W31341  14.322  25.906   2.666
66115W        W31342  36.404  20.857   0.336
66116W        W31343  12.432  12.400   3.724
66117W        W31344  43.641  27.420  12.817
66118W        W31345  28.353  34.015   0.416
66119W        W31346  14.566  23.524   3.420
66120W        W31347  39.373  12.916  14.625
66121W        W31348  30.243  26.855  12.050
66122W        W31349  16.800  32.620   3.365
66123W        W31350  21.004  31.155   0.958
66124W        W31351   7.213  14.095  10.753
66125W        W31352  13.145  26.446  10.289
66126W        W31353  31.668  39.191   5.449
66127W        W31354  25.672  22.339  10.024
66128W        W31355   6.673  37.615   0.018
66129W        W31356  28.440  12.083   0.885
66130W        W31357  35.790  30.493   0.893
66131W        W31358  32.876  44.809   2.949
66132W        W31359   0.726  15.100  12.585
66133W        W31360  37.650  24.815  14.865
66134W        W31361  10.140  35.897   4.046
66135W        W31362  25.275  18.285   0.242
66136W        W31363  42.646  31.157   4.196
66137W        W31364  44.325  31.657   1.532
66138W        W31365  34.644  34.384   3.346
66139W        W31366   3.911  31.689  12.052
66140W        W31367  15.071   0.820  14.833
66141W        W31368   5.216   2.555   1.801
66142W        W31369  11.767  41.397  10.741
66143W        W31370   6.585  42.748   4.634
66144W        W31371  38.070  35.129   2.244
66145W        W31372  22.609  12.932   4.513
66146W        W31373  10.141  38.937   4.542
66147W        W31374  11.394  25.076  10.462
66148W        W31375  16.623  28.448   1.436
66149W        W31376  39.524  20.137   1.784
66150W        W31377  26.444   0.412   1.196
66151W        W31378  35.141  44.080   2.646
66152W        W31379  27.458  39.349   0.873
66153W        W31380  27.408   7.702   0.808
66154W        W31381   9.305  42.443   0.472
66155W        W31382  10.357  41.633  14.968
66156W        W31383  10.911  14.946   4.184
66157W        W31384  22.474  14.860  14.428
66158W        W31385   6.429  14.570  12.587
66159W        W31386  38.297  13.582  12.871
66160W        W31387  41.532  26.441  13.459
66161W        W31388  13.192  26.045   0.348
66162W        W31389   8.652   9.112  14.186
66163W        W31390  27.221  25.054  14.024
66164W        W31391  12.689  39.472   2.462
66165W        W31392   8.100  14.822  13.245
66166W        W31393   8.600   4.275   0.031
66167W        W31394  16.390  16.059   4.524
66168W        W31395  24.209  23.794  11.649
66169W        W31396  10.388  33.385  14.596
66170W        W31397  44.402  23.314  12.426
66171W        W31398   6.613  43.478   1.366
66172W        W31399  33.551  31.840  12.568
66173W        W31400  44.976  23.698   4.816
66174W        W31401  13.864  14.706   1.395
66175W        W31402  24.715  20.280   0.765
66176W        W31403   7.098  33.945  11.539
66177W        W31404   8.199  27.105   0.814
66178W        W31405  11.571  38.849  10.121
66179W        W31406   9.686   3.706  11.743
66180W        W31407  11.109  30.573  11.570
66181W        W31408  37.587  20.447  13.921
66182W        W31409  33.287  34.914  11.523
66183W        W31410  10.543  32.989  14.051
66184W        W31411  20.689  32.053  13.194
66185W        W31412  13.235   2.194   2.358
66186W        W31413  23.635   2.000  12.891
66187W        W31414  34.572  34.035  10.728
66188W        W31415  14.301  39.145   1.798
66189W        W31416  10.931   5.125  14.565
66190W        W31417  36.250  19.686  12.406
66191W        W31418  24.062  39.087  14.928
66192W        W31419  11.847  35.076  12.928
66193W        W31420  33.589  11.162   3.365
66194W        W31421   7.488   4.213   3.667
66195W        W31422   0.236  30.915   3.176
66196W        W31423   3.468  10.250   1.896
66197W        W31424  42.335  17.501   0.745
66198W        W31425  15.201  30.987   0.944
66199W        W31426  22.731  12.401  14.963
66200W        W31427  20.113  20.314   1.468
66201W        W31428  13.084  20.661   0.412
66202W        W31429  36.057   7.638   1.264
66203W        W31430   5.274  28.591  11.571
66204W        W31431  41.952  40.504  14.257
66205W        W31432   6.813  31.876  13.432
66206W        W31433  22.239  39.027  12.017
66207W        W31434   0.090  32.733   1.304
66208W        W31435   6.393  42.822   0.906
66209W        W31436  42.487  22.529  13.272
66210W        W31437   4.431  16.168  10.476
66211W        W31438   0.018   2.217   4.122
66212W        W31439  34.459  13.637  13.337
66213W        W31440   8.582   1.427   4.111
66214W        W31441   4.849  36.478   4.519
66215W        W31442  14.786  14.287  13.581
66216W        W31443  28.177  43.853   2.171
66217W        W31444  44.414  17.661   5.382
66218W        W31445  27.672  31.896  13.434
66219W        W31446  34.552  25.635  12.192
66220W        W31447  15.790  11.109  11.118
66221W        W31448  14.054  32.904   0.389
66222W        W31449  39.051  12.253   2.934
66223W        W31450  37.584  43.062   2.361
66224W        W31451  17.248  15.190  13.992
66225W        W31452  25.846  43.711   2.364
66226W        W31453  22.699   3.279   1.674
66227W        W31454  27.230  36.602   2.341
66228W        W31455  44.250  12.321  12.886
66229W        W31456  11.694   5.905  14.348
66230W        W31457  21.150  17.870   2.896
66231W        W31458  24.648   9.909  12.497
66232W        W31459  25.000  35.842  13.025
66233W        W31460  19.366  24.740  11.388
66234W        W31461  12.320   9.777   0.251
66235W        W31462   9.818  27.642  13.040
66236W        W31463  21.585  37.754   0.172
66237W        W31464  28.313   7.660  11.899
66238W        W31465  42.727   5.690   9.915
66239W        W31466  21.829  44.869   4.547
66240W        W31467  12.821  42.344  14.580
66241W        W31468  28.998  32.642   3.694
66242W        W31469  39.095  20.482  12.929
66243W        W31470  18.591  38.390   2.071
66244W        W31471  23.112  40.128  11.910
66245W        W31472  37.154  35.904   2.462
66246W        W31473  32.359   9.453   2.640
66247W        W31474  17.083  19.041  14.389
66248W        W31475  13.874  13.399  13.057
66249W        W31476  37.327   8.189   0.400
66250W        W31477   8.233  36.269   2.693
66251W        W31478  31.092  30.982   1.152
66252W        W31479  12.693   4.704  10.565
66253W        W31480   5.226  20.989   4.550
66254W        W31481  14.809  35.220  10.904
66255W        W31482  13.096  22.470  11.126
66256W        W31483  39.228  38.210   2.296
66257W        W31484   5.766  28.696   4.729
66258W        W31485  38.015   3.043   2.371
66259W        W31486  14.313  33.954   4.867
66260W        W31487  24.129   8.224   4.625
66261W        W31488  11.543  19.186   5.066
66262W        W31489   2.817  16.846  14.893
66263W        W31490   6.760  39.525   1.036
66264W        W31491  43.584  19.116  12.881
66265W        W31492   5.718  15.125  11.580
66266W        W31493  18.363  36.956  13.710
66267W        W31494  33.890  44.319  10.209
66268W        W31495  19.166  24.477  12.484
66269W        W31496  20.850  24.753   3.940
66270W        W31497  18.257  16.316  11.671
66271W        W31498  10.699  20.624  13.007
66272W        W31499  20.948  24.687  13.077
66273W        W31500  35.944  17.361   4.134
66274W        W31501  27.574  13.734   2.912
66275W        W31502  10.342  39.828  11.038
66276W        W31503  29.521  43.273   0.521
66277W        W31504  16.689  29.669   0.658
66278W        W31505  22.284  29.470   1.023
66279W        W31506  15.157   5.149  11.987
66280W        W31507  28.395  40.434   4.931
66281W        W31508  23.516  32.860  14.793
66282W        W31509  17.818  19.704  13.338
66283W        W31510   5.966  43.356  10.629
66284W        W31511  39.062  21.095   2.846
66285W        W31512  11.113  24.495   2.736
66286W        W31513  10.389   8.331  10.681
66287W        W31514  23.460  18.882  10.978
66288W        W31515  36.590  10.659  14.674
66289W        W31516   0.489   0.748   0.418
66290W        W31517  24.583  15.680  13.112
66291W        W31518  18.980  27.772  13.014
66292W        W31519  25.323  23.084   2.413
66293W        W31520  31.032  11.844   3.197
66294W        W31521  39.490  32.545  13.219
66295W        W31522  38.915   1.250   9.949
66296W        W31523  14.526   9.391  11.680
66297W        W31524  33.586  31.699   0.229
66298W        W31525  11.134   4.837   4.583
66299W        W31526  29.951  38.022   4.068
66300W        W31527   7.300  43.516   1.788
66301W        W31528  37.106  36.998  12.083
66302W        W31529   0.259  33.599  12.960
66303W        W31530   3.287   1.763   1.156
66304W        W31531  21.713  15.275  13.607
66305W        W31532  11.208  14.186  12.538
66306W        W31533   1.186  41.760   1.790
66307W        W31534  36.784  12.176   1.565
66308W        W31535  20.573  37.902   2.371
66309W        W31536   3.719  10.900   3.678
66310W        W31537  39.513  43.655  11.965
66311W        W31538  18.216  18.556  13.827
66312W        W31539  14.329  26.717   4.716
66313W        W31540  17.525  16.128   0.399
66314W        W31541   5.829   7.382  11.554
66315W        W31542  41.221   2.765   0.791
66316W        W31543  35.121  31.878  14.873
66317W        W31544  19.101  29.347   1.874
66318W        W31545  29.097   1.931   4.739
66319W        W31546  33.132  35.081  10.735
66320W        W31547  33.462  41.626   1.700
66321W        W31548  36.449  38.343   3.675
66322W        W31549  12.334   9.826   2.335
66323W        W31550  16.583  25.026   1.527
66324W        W31551   2.888  14.741   1.218
66325W        W31552  43.361   4.948  13.610
66326W        W31553  26.645  14.677   4.125
66327W        W31554   1.870  43.954  12.151
66328W        W31555  40.501  30.948  11.459
66329W        W31556  14.091   6.097  11.192
66330W        W31557  23.929  23.242   3.257
66331W        W31558  30.156  33.393  12.039
66332W        W31559  41.351  38.850  12.336
66333W        W31560  30.960  28.747   4.987
66334W        W31561  13.661  24.440  14.377
66335W        W31562  26.084  30.721   0.242
66336W        W31563   0.513   0.775   0.946
66337W        W31564  41.574  32.986   0.528
66338W        W31565  21.025   3.626  13.506
66339W        W31566  22.221  18.309   0.376
66340W        W31567  28.162  23.968   3.616
66341W        W31568   1.662  40.071  14.915
66342W        W31569  43.837  22.101   0.867
66343W        W31570  35.621  10.538   0.442
66344W        W31571  31.404  21.488   3.186
66345W        W31572  43.828   6.681  11.135
66346W        W31573  40.814  11.773  13.381
66347W        W31574  36.304   9.676   1.918
66348W        W31575   4.232   9.393  11.493
66349W        W31576  31.151  11.593   2.769
66350W        W31577  37.944  10.197   2.571
66351W        W31578   0.709  30.027   1.340
66352W        W31579  34.375  20.719  12.922
66353W        W31580  43.462  42.926   2.697
66354W        W31581  37.513   7.282  14.742
66355W        W31582  13.247  36.790   0.898
66356W        W31583  37.187  13.215   3.020
66357W        W31584  33.069   7.105   0.663
66358W        W31585   8.492  16.586   3.116
66359W        W31586   7.796  43.533  14.410
66360W        W31587  10.230  31.010  14.271
66361W        W31588  44.916  35.541  10.817
66362W        W31589   6.003   0.891   4.102
66363W        W31590   4.378  15.286   0.440
66364W        W31591  20.095   7.664  12.315
66365W        W31592  28.454   1.609   4.535
66366W        W31593  31.411  28.627   5.200
66367W        W31594  44.173  22.216   4.649
66368W        W31595  18.517  20.569  13.581
66369W        W31596  34.913  40.075   4.761
66370W        W31597  12.501  17.704   3.309
66371W        W31598  16.806   2.447   4.743
66372W        W31599  15.516  41.258  12.017
66373W        W31600  33.041  34.801   2.663
66374W        W31601   1.284  20.588   0.445
66375W        W31602  13.146   8.731   0.346
66376W        W31603  10.575  16.555  12.452
66377W        W31604  40.206  24.009  13.824
66378W        W31605  19.197   6.832   4.641
66379W        W31606   2.252  36.099  10.808
66380W        W31607  20.729  21.977   4.256
66381W        W31608  15.825  37.990  11.642
66382W        W31609  35.046  25.510   0.991
66383W        W31610  28.868  30.656   1.506
66384W        W31611  43.484   7.165  12.574
66385W        W31612  35.409  29.128   3.373
66386W        W31613  15.573  39.406   4.470
66387W        W31614  23.445  16.333  12.878
66388W        W31615  21.022  17.562   1.444
66389W        W31616  25.437  30.707   2.218
66390W        W31617  32.132   9.286  11.423
66391W        W31618  29.425  44.992  13.819
66392W        W31619  34.514  44.954  14.368
66393W        W31620  20.856  36.818  11.093
66394W        W31621  38.404  13.085   1.987
66395W        W31622  27.022  25.167  12.089
66396W        W31623   6.173  18.872   1.755
66397W        W31624   7.228   6.618   3.741
66398W        W31625   3.467   0.037   3.215
66399W        W31626  32.918  10.210   4.597
66400W        W31627  33.645  33.837   0.415
66401W        W31628   4.125   5.438   4.076
66402W        W31629  10.107  17.568   3.659
66403W        W31630  17.001  33.466   5.072
66404W        W31631   9.461   0.525   1.179
66405W        W31632   6.626  38.014   2.323
66406W        W31633  30.704  38.957   3.161
66407W        W31634  26.882  31.656   3.705
66408W        W31635  33.447   6.080   3.175
66409W        W31636  31.326  25.856  14.349
66410W        W31637  33.603   3.317  10.760
66411W        W31638  12.755   6.814  12.082
66412W        W31639   5.262  35.259   3.754
66413W        W31640  31.180   0.762   9.902
66414W        W31641  20.122  29.698   1.463
66415W        W31642  12.109  24.295   0.966
66416W        W31643  22.599  38.051  11.890
66417W        W31644   4.422  10.756   0.473
66418W        W31645  18.432  38.198   0.255
66419W        W31646  13.060  23.634   1.371
66420W        W31647  17.337  24.970  10.803
66421W        W31648  16.921  19.280   4.617
66422W        W31649  42.326   7.866   4.625
66423W        W31650   3.839  32.982   1.153
66424W        W31651  14.387  35.427  14.005
66425W        W31652  12.711  37.522   4.029
66426W        W31653  23.945  19.643  12.001
66427W        W31654   3.414  29.752  12.891
66428W        W31655  12.950  30.650   2.255
66429W        W31656   8.290   4.796   1.971
66430W        W31657   7.653   1.889   2.368
66431W        W31658   6.128  34.022   3.828
66432W        W31659  29.301  16.687  13.069
66433W        W31660  15.962   7.646   4.807
66434W        W31661  17.197  39.950  12.862
66435W        W31662  20.138  31.045  12.507
66436W        W31663   3.693  38.734   1.771
66437W        W31664  23.792  31.633  12.429
66438W        W31665   7.844  43.794  14.871
66439W        W31666  28.597  15.606   0.882
66440W        W31667  34.897  12.844  14.120
66441W        W31668   0.314   6.532  11.023
66442W        W31669  32.893  43.964  11.976
66443W        W31670  19.632  22.449   1.271
66444W        W31671  12.934   5.623   2.166
66445W        W31672  28.365  11.186   1.984
66446W        W31673  31.119  19.296  12.862
66447W        W31674  40.034  27.326   0.028
66448W        W31675   2.740  36.504   3.258
66449W        W31676   4.722  37.571   1.607
66450W        W31677  17.639  24.150  11.151
66451W        W31678   9.876  19.127   2.202
66452W        W31679  17.827   4.169  13.468
66453W        W31680   1.466  36.126   1.947
66454W        W31681  26.580  29.897   2.929
66455W        W31682  35.572   9.867   4.767
66456W        W31683   4.737   1.271   4.350
66457W        W31684  24.607   6.643   1.427
66458W        W31685   2.573  20.797   5.085
66459W        W31686  12.066  34.553   2.144
66460W        W31687   3.439  10.784  14.363
66461W        W31688  21.207  27.708   2.245
66462W        W31689   5.242  10.272  12.043
66463W        W31690  35.116   3.781   1.554
66464W        W31691  14.823  24.394  10.545
66465W        W31692  21.154  37.500  10.496
66466W        W31693   9.645  34.584  12.654
66467W        W31694  30.107  14.050  13.085
66468W        W31695  37.425  38.622  13.761
66469W        W31696  27.582  27.766  13.175
66470W        W31697   0.056  21.656  14.344
66471W        W31698  37.420  33.001   4.923
66472W        W31699  34.622  28.103   3.263
66473W        W31700   5.899  35.397  14.401
66474W        W31701  38.103  19.034   0.690
66475W        W31702  13.612   1.352  11.518
66476W        W31703  10.826  27.827   2.671
66477W        W31704  14.900  19.446  12.894
66478W        W31705  43.780   7.866   3.374
66479W        W31706   2.933  38.293  14.597
66480W        W31707  22.521   9.155  12.933
66481W        W31708   7.840  38.634   4.187
66482W        W31709   9.562   2.730   0.040
66483W        W31710  38.325  41.213  14.809
66484W        W31711  39.839  16.945  12.638
66485W        W31712  37.959   1.514   2.847
66486W        W31713   4.925  33.408  11.968
66487W        W31714  12.658  14.792  10.682
66488W        W31715  38.786  31.865  12.956
66489W        W31716  36.479   4.639   3.213
66490W        W31717  41.864  30.501  14.816
66491W        W31718   9.660  42.665   3.598
66492W        W31719  11.563  24.606   4.068
66493W        W31720  18.287  35.347   3.290
66494W        W31721  15.133  22.646  11.889
66495W        W31722  35.106  12.288  13.577
66496W        W31723  43.707   1.855  13.437
66497W        W31724  13.272  19.185   4.030
66498W        W31725  19.520  35.844   4.040
66499W        W31726  24.991  15.767   0.182
66500W        W31727  21.270   4.956  11.045
66501W        W31728  44.843  21.435  12.566
66502W        W31729  39.989  31.100  13.837
66503W        W31730  37.844  23.697   0.794
66504W        W31731  14.856  31.071   2.289
66505W        W31732  38.554  38.445   2.801
66506W        W31733  36.602  15.596   0.279
66507W        W31734   7.016  34.072  14.053
66508W        W31735  12.575  16.315  10.668
66509W        W31736   1.291  33.060  12.742
66510W        W31737  44.260  17.527  11.133
66511W        W31738  33.828  38.383  14.014
66512W        W31739  34.052   2.160   0.936
66513W        W31740  21.240  24.417  11.040
66514W        W31741  44.362  40.136   2.696
66515W        W31742  36.304   0.525  11.643
66516W        W31743  28.218   6.667  14.463
66517W        W31744   8.569  27.419   2.267
66518W        W31745  44.581  11.934  14.804
66519W        W31746  27.913  27.990  12.221
66520W        W31747  39.250  28.166  12.527
66521W        W31748   2.534  16.281  13.890
66522W        W31749   4.458  31.046   3.776
66523W        W31750  11.867  31.868   4.099
66524W        W31751  37.969  32.095  12.586
66525W        W31752  39.309  26.416   4.642
66526W        W31753  30.613  35.831   2.138
66527W        W31754  22.662  27.329  11.318
66528W        W31755  44.028   8.472  14.912
66529W        W31756   3.172  28.394   1.391
66530W        W31757  25.453   0.225   1.226
66531W        W31758   7.178  39.073  12.517
66532W        W31759  26.190  38.842  10.245
66533W        W31760   6.364   2.971   0.790
66534W        W31761  25.639  38.588  12.239
66535W        W31762   1.546  14.165  13.422
66536W        W31763  24.962  23.383   0.255
66537W        W31764  16.270   4.077  14.863
66538W        W31765  34.245  25.201  11.337
66539W        W31766  22.094  29.502  12.464
66540W        W31767   6.296  27.968   1.890
66541W        W31768   4.979  12.818   4.218
66542W        W31769  37.211  34.753  12.964
66543W        W31770   2.404  31.549  12.080
66544W        W31771  39.074  10.786  14.917
66545W        W31772   3.710  24.024   2.785
66546W        W31773  14.289  23.479  12.409
66547W        W31774   2.737  20.621  12.963
66548W        W31775  39.651   0.398  11.134
66549W        W31776  38.605  12.900  10.533
66550W        W31777  38.520  37.581  10.460
66551W        W31778  39.990  26.420   2.353
66552W        W31779   0.291   6.560   3.667
66553W        W31780  25.669  40.648   2.891
66554W        W31781  37.707  13.259   3.261
66555W        W31782  38.308  30.611  12.426
66556W        W31783   5.686  42.291  14.055
66557W        W31784  26.236  27.658   0.985
66558W        W31785  43.517  27.095   5.293
66559W        W31786  24.225   2.629   4.066
66560W        W31787  35.058  14.505  13.062
66561W        W31788  16.665  23.269   2.344
66562W        W31789  36.942  38.352  13.819
66563W        W31790   7.957  39.371  10.376
66564W        W31791   2.242  33.807   1.754
66565W        W31792  37.272  11.019  13.357
66566W        W31793   6.211  36.147  11.595
66567W        W31794  27.894  28.167   5.328
66568W        W31795  10.674  34.853  14.765
66569W        W31796  21.732  12.815  12.815
66570W        W31797  20.758  15.608   3.739
66571W        W31798   1.760   0.843  12.395
66572W        W31799   9.363  30.156   4.552
66573W        W31800  13.680   6.996  13.583
66574W        W31801  30.307  32.986  11.159
66575W        W31802  41.883  25.958   2.913
66576W        W31803  42.865  43.400  14.890
66577W        W31804   0.932   7.009  13.992
66578W        W31805  42.285   0.035   3.638
66579W        W31806  39.878  39.836   4.223
66580W        W31807  18.738   2.500  12.971
66581W        W31808   9.501  34.551   2.859
66582W        W31809  35.551  18.743   1.853
66583W        W31810  32.821  23.994   0.192
66584W        W31811  43.711   1.204  12.183
66585W        W31812  10.078  19.233   0.398
66586W        W31813   7.932  27.097  12.621
66587W        W31814  42.316  15.193  11.204
66588W        W31815  18.796  16.945  13.754
66589W        W31816  27.422  34.404   0.349
66590W        W31817  43.210   6.036  13.856
66591W        W31818  33.760  12.984   5.410
66592W        W31819  14.621  34.638  13.844
66593W        W31820  16.829   8.844   0.549
66594W        W31821  28.912   2.195   0.947
66595W        W31822  15.964  16.121   1.300
66596W        W31823  17.059  33.274   2.470
66597W        W31824  43.529   2.751   4.116
66598W        W31825  31.562  31.043   3.107
66599W        W31826   4.710  23.565  10.161
66600W        W31827  15.795  33.878   3.304
66601W        W31828  25.287  43.029  13.396
66602W        W31829  27.044   3.350  14.837
66603W        W31830  28.220   9.120  13.818
66604W        W31831   0.169  28.073  12.077
66605W        W31832  23.448  18.601   1.500
66606W        W31833  28.936  41.529   1.393
66607W        W31834   6.400   8.807   1.913
66608W        W31835  31.186  33.360   3.285
66609W        W31836  23.225  22.074  10.680
66610W        W31837  10.270  12.260   1.251
66611W        W31838  27.012  37.254   1.768
66612W        W31839  20.350  31.065   1.352
66613W        W31840  19.250  23.416   1.091
66614W        W31841  20.675  10.578  10.624
66615W        W31842   3.423  22.479   2.513
66616W        W31843  12.273  18.588  14.510
66617W        W31844  35.856   6.870  14.281
66618W        W31845  34.135  16.925   3.921
66619W        W31846   9.234  41.761   1.284
66620W        W31847  24.100  13.620  12.870
66621W        W31848  11.257  30.439  12.057
66622W        W31849  20.046  14.105   3.148
66623W        W31850   7.369  24.084  10.733
66624W        W31851  38.394  37.907   3.969
66625W        W31852   7.299  21.281   0.433
66626W        W31853   6.535   7.266   0.420
66627W        W31854  27.476  39.531  13.305
66628W        W31855   4.452  30.844   0.484
66629W        W31856   3.516  42.999   1.861
66630W        W31857  33.456  44.908   4.752
66631W        W31858   4.927  32.971   0.743
66632W        W31859  35.854  17.693  14.322
66633W        W31860  21.096  30.574  11.149
66634W        W31861  27.354  26.260  10.305
66635W        W31862  24.040  43.373   2.467
66636W        W31863  34.865   8.869  14.895
66637W        W31864  41.636   8.409  13.820
66638W        W31865  22.035  18.045  10.387
66639W        W31866  35.388  36.295   2.690
66640W        W31867   4.336  21.698  11.979
66641W        W31868  38.839   0.246  13.345
66642W        W31869  18.694  36.878   2.513
66643W        W31870  32.131   1.452   1.816
66644W        W31871  44.411   9.708   1.405
66645W        W31872  18.310  34.055   3.835
66646W        W31873  25.523  21.663   3.558
66647W        W31874  29.247  39.364  14.868
66648W        W31875  32.875  11.411  13.820
66649W        W31876  24.093  20.156  11.902
66650W        W31877  40.541   0.232   3.402
66651W        W31878   3.642  41.196   3.725
66652W        W31879  32.304  28.118  10.821
66653W        W31880  28.863  41.972   4.097
66654W        W31881   5.984  15.637   5.005
66655W        W31882  28.195   9.918   0.331
66656W        W31883  43.735  34.348  13.430
66657W        W31884  19.059  44.956   3.574
66658W        W31885  36.376   0.261  12.102
66659W        W31886   4.990   7.872   3.689
66660W        W31887  10.235  20.547   1.230
66661W        W31888   9.505  27.637  11.195
66662W        W31889  14.693  38.927   4.634
66663W        W31890  25.656  42.666  14.218
66664W        W31891  37.118  30.789  13.034
66665W        W31892  19.319  17.012   4.904
66666W        W31893  30.142  28.775   0.334
66667W        W31894  42.795  11.649   1.161
66668W        W31895   6.075   9.579   0.625
66669W        W31896   0.886  13.547   2.027
66670W        W31897   1.310  36.870  12.847
66671W        W31898   9.784  36.574  10.347
66672W        W31899  25.983  12.799  11.543
66673W        W31900  28.623  26.704   3.284
66674W        W31901   5.211   1.304   1.419
66675W        W31902  16.841  34.413   2.362
66676W        W31903  14.745   1.969  12.383
66677W        W31904   5.911  37.864  14.619
66678W        W31905  42.923  39.959  12.628
66679W        W31906   2.910   4.980   1.656
66680W        W31907  40.061  18.305   1.805
66681W        W31908   2.859  22.518  11.986
66682W        W31909  17.236  16.112   0.842
66683W        W31910  30.972  15.305   0.174
66684W        W31911   9.860  14.266  12.924
66685W        W31912   8.923  32.925   1.704
66686W        W31913   5.292  44.198   0.360
66687W        W31914   6.718  37.925   0.427
66688W        W31915   0.998  38.666  14.382
66689W        W31916  30.403  11.928   9.768
66690W        W31917  16.411  30.177   1.834
66691W        W31918  19.504  42.995  14.135
66692W        W31919  13.185   4.786   4.222
66693W        W31920   2.130  34.058  12.918
66694W        W31921  27.903   4.507   4.055
66695W        W31922  31.016  13.745   2.139
66696W        W31923  31.048   8.629   2.855
66697W        W31924  16.125  15.067   2.107
66698W        W31925  24.725  11.192   3.323
66699W        W31926  13.619  36.361   2.961
66700W        W31927  42.270  17.471   1.708
66701W        W31928  42.270   5.182   0.261
66702W        W31929  30.230  10.939  11.087
66703W        W31930  36.511  15.150   0.534
66704W        W31931  43.668  29.187   3.309
66705W        W31932  31.145  13.229   2.061
66706W        W31933  17.593  17.584  12.542
66707W        W31934  37.932  42.592   1.136
66708W        W31935  34.632  12.783   3.833
66709W        W31936  29.179  23.733  12.893
66710W        W31937  23.132  36.377   1.795
66711W        W31938  27.212  36.173  12.765
66712W        W31939  30.318  11.412   9.855
66713W        W31940  30.034   3.299  13.540
66714W        W31941  43.781  33.415  11.410
66715W        W31942   1.730  14.421  10.843
66716W        W31943  10.684  14.090   4.199
66717W        W31944  39.016   4.499  14.793
66718W        W31945  42.414  29.944   2.349
66719W        W31946  22.704  11.970   2.263
66720W        W31947  36.939  36.614  14.347
66721W        W31948  11.817  37.071  14.334
66722W        W31949  18.408  44.352   5.010
66723W        W31950  31.675   2.865   3.809
66724W        W31951  12.626  38.298  13.464
66725W        W31952  29.953  23.949   1.677
66726W        W31953  29.842  27.706   2.177
66727W        W31954  32.699  30.721  12.856
66728W        W31955  41.358  36.395  14.787
66729W        W31956  32.594  43.889   4.869
66730W        W31957  38.353  17.854   0.514
66731W        W31958  35.593  36.980   3.288
66732W        W31959  28.523   6.831  12.006
66733W        W31960  41.073   6.236  14.816
66734W        W31961  20.562  10.531   4.981
66735W        W31962  25.489  27.050   0.940
66736W        W31963  19.823  43.754  14.113
66737W        W31964  28.924  28.856  13.921
66738W        W31965  43.300  13.621   1.852
66739W        W31966  40.407   8.607  12.462
66740W        W31967  34.197  19.329  12.075
66741W        W31968  31.028   8.589  11.133
66742W        W31969  33.724  44.378  13.453
66743W        W31970   2.807  36.942  12.060
66744W        W31971  14.186  29.354   0.766
66745W        W31972   1.826  42.279  12.959
66746W        W31973  13.093   4.275  13.168
66747W        W31974  27.732  44.890  14.974
66748W        W31975   7.351  17.060   4.039
66749W        W31976   4.031  41.973   4.102
66750W        W31977  36.351  35.906   2.702
66751W        W31978   9.997  28.123  12.229
66752W        W31979  10.411  29.899  11.977
66753W        W31980  22.261  44.448  12.764
66754W        W31981   0.973  39.168  13.740
66755W        W31982  26.360  10.902  12.051
66756W        W31983  10.666   3.409  12.482
66757W        W31984   3.864  23.681  14.426
66758W        W31985  28.184  42.606  13.783
66759W        W31986  18.350  42.900   1.761
66760W        W31987   3.492  38.849   3.519
66761W        W31988   7.153   9.679   2.748
66762W        W31989  12.341  10.635   3.094
66763W        W31990  30.888   8.680  13.498
66764W        W31991  41.439  34.473   3.241
66765W        W31992   7.951  41.344   0.811
66766W        W31993  27.030   7.141   1.647
66767W        W31994  39.262  17.156  12.013
66768W        W31995  30.207  23.145   4.879
66769W        W31996  41.817  39.925   4.389
66770W        W31997  21.518  31.682  14.927
66771W        W31998  13.213  12.532   4.823
66772W        W31999  29.863  31.499  12.611
66773W        W32000   3.208  17.641   3.719
66774W        W32001  27.310  43.833   3.628
66775W        W32002   9.853   1.891   1.260
66776W        W32003  36.536  41.222   4.193
66777W        W32004   0.750   0.054  10.702
66778W        W32005   9.694   2.145  14.004
66779W        W32006   9.317  41.890  10.417
66780W        W32007  12.478  40.897  14.625
66781W        W32008   5.168  16.102   3.332
66782W        W32009  16.074  31.612  13.433
66783W        W32010   1.583  33.440   0.441
66784W        W32011  13.146  11.315   0.534
66785W        W32012  41.066  31.104   1.428
66786W        W32013   4.974  44.891  14.811
66787W        W32014  33.629  30.606   4.502
66788W        W32015  20.899  39.090   3.517
66789W        W32016  24.199  26.735   3.314
66790W        W32017  14.251  39.559   0.388
66791W        W32018  25.695  34.958   3.370
66792W        W32019  44.929   3.805   2.394
66793W        W32020   2.014  42.048   9.708
66794W        W32021   2.508   8.846   2.871
66795W        W32022  37.496  28.146   1.630
66796W        W32023  40.255   7.934  11.500
66797W        W32024  18.645  32.877   2.006
66798W        W32025  21.845  27.727  12.927
66799W        W32026  10.431  16.775   4.005
66800W        W32027  34.797   0.879  13.998
66801W        W32028  32.627   4.118  14.641
66802W        W32029   7.778  34.850  13.354
66803W        W32030  33.583  23.396  11.287
66804W        W32031  38.425  36.869  13.415
66805W        W32032   5.447  31.421   1.047
66806W        W32033   8.153  32.870  14.825
66807W        W32034   4.828  26.901   1.280
66808W        W32035  28.125  11.871   3.149
66809W        W32036  18.286   3.233  13.704
66810W        W32037   4.392   4.334   3.471
66811W        W32038   9.175  25.458   1.817
66812W        W32039   3.816  30.702  13.512
66813W        W32040  43.978  24.683  11.196
66814W        W32041  16.846   4.578  13.513
66815W        W32042  22.166   4.029  14.852
66816W        W32043   1.702  24.815   3.666
66817W        W32044   4.372  16.627  12.213
66818W        W32045  43.058  15.175   1.875
66819W        W32046   3.027  42.251   1.469
66820W        W32047  31.236  41.089   2.257
66821W        W32048  23.452  27.301   0.895
66822W        W32049  25.420  16.262   4.405
66823W        W32050  42.343  31.886  12.071
66824W        W32051   4.249   1.904  12.446
66825W        W32052  11.352  37.424  13.147
66826W        W32053  28.619  38.725  11.024
66827W        W32054  17.629  22.886  13.072
66828W        W32055  12.907  40.321  10.569
66829W        W32056  20.541  26.854   2.921
66830W        W32057  19.097   3.071   1.883
66831W        W32058  33.622  25.604  11.931
66832W        W32059  41.837  10.228  14.159
66833W        W32060   7.945  32.205   2.375
66834W        W32061  17.380   4.306   1.232
66835W        W32062   8.593  35.174   0.219
66836W        W32063   9.306  11.218   1.680
66837W        W32064  27.507  41.120   0.289
66838W        W32065  41.543  16.250   0.185
66839W        W32066  14.531  21.397   1.426
66840W        W32067   9.292  34.016   2.851
66841W        W32068  30.593  32.864  13.136
66842W        W32069  43.944  16.088  11.059
66843W        W32070  31.896   2.540  12.009
66844W        W32071  39.132  12.942   9.675
66845W        W32072  25.517  23.107  13.518
66846W        W32073  14.357  24.795   1.945
66847W        W32074  26.691  37.033   3.771
66848W        W32075   7.941  17.245   0.836
66849W        W32076   0.497   1.345  11.552
66850W        W32077  18.089  14.303  14.090
66851W        W32078  17.721   9.240  10.987
66852W        W32079  37.951  37.585   4.551
66853W        W32080  42.511  39.953   1.718
66854W        W32081  36.884  33.380  13.254
66855W        W32082  25.291  25.079   4.266
66856W        W32083  31.227  40.787  12.700
66857W        W32084  11.795  13.517   3.689
66858W        W32085  17.895  44.828   4.421
66859W        W32086  11.116   8.199  12.584
66860W        W32087  13.684   9.235   4.127
66861W        W32088  26.008  10.081  11.251
66862W        W32089   1.446  25.699   3.659
66863W        W32090   4.230  18.583   2.206
66864W        W32091   8.661  26.713  13.800
66865W        W32092  13.190  33.331  14.768
66866W        W32093   4.364  28.565   1.877
66867W        W32094  35.470   1.447  13.873
66868W        W32095  31.362  17.155  14.447
66869W        W32096  14.241  19.238   4.410
66870W        W32097  38.315  16.317  11.478
66871W        W32098  11.035  38.400  12.123
66872W        W32099   8.825  33.668  14.631
66873W        W32100  15.373  35.636  13.934
66874W        W32101   1.191  40.636   0.945
66875W        W32102  21.286  16.245   1.795
66876W        W32103  43.343  24.100   4.620
66877W        W32104  15.308   1.138   3.630
66878W        W32105  33.109  30.408  12.898
66879W        W32106  36.415  41.042  13.879
66880W        W32107  36.345  19.725   2.752
66881W        W32108  32.156  36.955  13.453
66882W        W32109  32.857  43.302   1.636
66883W        W32110   6.705  25.102   1.431
66884W        W32111   3.505  33.691   2.385
66885W        W32112  41.366  19.268   2.326
66886W        W32113  18.800  35.748   0.293
66887W        W32114  14.056  29.226  13.908
66888W        W32115  38.823  18.981  13.871
66889W        W32116  22.828   9.091   1.281
66890W        W32117  28.636  43.168   1.424
66891W        W32118   8.629  36.782   1.191
66892W        W32119  12.164  41.027   4.073
66893W        W32120  12.300   4.261   1.265
66894W        W32121  28.894  17.073   1.307
66895W        W32122  42.256  19.132  11.083
66896W        W32123   4.960  42.777   4.083
66897W        W32124  42.411  19.465   1.812
66898W        W32125  10.678  33.493   0.880
66899W        W32126  32.393   9.630   3.794
66900W        W32127  42.995  20.772   4.541
66901W        W32128  29.372  18.677   2.191
66902W        W32129  30.649   4.214  13.729
66903W        W32130  42.859   7.175  14.462
66904W        W32131  27.471   2.725  10.370
66905W        W32132   5.328   1.053   4.502
66906W        W32133  15.705  12.647  14.813
66907W        W32134  36.222  26.882  10.451
66908W        W32135  44.570  32.553  13.597
66909W        W32136  21.793  35.075  10.592
66910W        W32137  30.612   8.188   4.291
66911W        W32138  17.943  17.494   0.302
66912W        W32139   7.327  43.710  13.551
66913W        W32140  14.613  12.547   3.112
66914W        W32141   8.367  44.259   0.399
66915W        W32142  16.287  39.907  12.108
66916W        W32143   1.515   0.354  12.728
66917W        W32144  20.585  33.143  13.406
66918W        W32145  31.426  32.580   4.446
66919W        W32146  17.148   9.466   1.751
66920W        W32147  37.481  30.925  13.426
66921W        W32148  16.648  23.063   4.696
66922W        W32149  34.806   6.764  12.429
66923W        W32150  26.100  13.715  10.951
66924W        W32151  29.548   3.383   0.832
66925W        W32152  36.264  10.342  12.559
66926W        W32153  15.961   9.595  11.240
66927W        W32154  25.977  17.823  14.036
66928W        W32155  40.001  16.299  14.246
66929W        W32156  33.649  22.606  11.552
66930W        W32157  12.910  39.288  13.810
66931W        W32158  33.780  43.852  11.588
66932W        W32159  13.190  18.705   2.315
66933W        W32160   2.184  32.203   4.625
66934W        W32161  23.212  40.567  10.879
66935W        W32162  14.337  32.359  13.969
66936W        W32163  35.547   7.433  14.446
66937W        W32164  19.217  44.959   2.163
66938W        W32165  38.266  41.715   2.794
66939W        W32166  28.697  23.207  13.674
66940W        W32167  16.790  43.777  10.543
66941W        W32168   2.689  39.233   1.101
66942W        W32169  26.003  20.538   3.010
66943W        W32170  44.259  12.525  14.229
66944W        W32171  27.615   3.168   3.140
66945W        W32172   4.750  34.500   1.520
66946W        W32173  25.001   2.757  13.924
66947W        W32174  35.512  26.701   0.374
66948W        W32175  42.804  27.003   1.895
66949W        W32176  24.175  35.045   3.327
66950W        W32177   8.480  29.305   4.152
66951W        W32178   1.158   2.414  14.186
66952W        W32179  30.544  44.276  12.566
66953W        W32180  15.309   6.124  14.819
66954W        W32181   8.413  16.101   0.929
66955W        W32182   9.924  13.865  14.284
66956W        W32183  39.419  14.031   1.935
66957W        W32184  14.183  39.875   1.251
66958W        W32185  36.398  21.111  14.847
66959W        W32186  19.337  42.825   5.019
66960W        W32187  16.302  23.648   2.653
66961W        W32188  43.522  29.686   3.214
66962W        W32189   9.696   3.193   2.627
66963W        W32190  27.716  17.742   1.862
66964W        W32191  34.158  24.116  14.076
66965W        W32192  33.399  16.497  12.567
66966W        W32193  17.665  38.260   3.197
66967W        W32194  40.819  28.500  10.665
66968W        W32195  15.288  34.284  11.488
66969W        W32196  16.188  40.527   4.762
66970W        W32197  39.043  26.125  14.410
66971W        W32198   0.511  33.452   1.365
66972W        W32199  43.261  34.977  11.291
66973W        W32200  33.330  41.596   0.816
66974W        W32201  18.593  21.202  13.742
66975W        W32202   9.938  36.002  12.927
66976W        W32203   7.028  19.866   4.841
66977W        W32204  20.374  16.121   0.492
66978W        W32205  34.306  20.814  11.947
66979W        W32206  31.573   8.397   0.734
66980W        W32207  36.283  10.917  13.451
66981W        W32208  21.745  32.421  11.574
66982W        W32209  28.215  29.249  14.517
66983W        W32210  17.247  35.255   0.786
66984W        W32211  39.989   0.249  12.687
66985W        W32212   5.900   9.899   4.557
66986W        W32213   3.982   3.425   2.709
66987W        W32214   3.950  44.803   0.014
66988W        W32215  28.253  34.464  12.880
66989W        W32216  44.396  43.666   0.689
66990W        W32217  31.825  30.165  10.905
66991W        W32218  30.794  42.334  13.844
66992W        W32219  42.720   3.321   5.068
66993W        W32220  24.593  25.797  13.936
66994W        W32221  22.878  40.098  10.222
66995W        W32222  15.361  21.057  12.765
66996W        W32223  32.317   3.841   0.719
66997W        W32224  25.521   0.420  13.978
66998W        W32225  19.906  16.055  14.289
66999W        W32226  13.740  10.619   1.251
67000W        W32227  26.256  40.236  14.246
67001W        W32228  18.734  31.953   4.701
67002W        W32229  17.653  35.545  12.149
67003W        W32230   1.241  31.652  11.079
67004W        W32231  35.844  43.229   4.430
67005W        W32232  29.506  12.671   0.899
67006W        W32233  24.281   6.752  13.543
67007W        W32234   2.304  26.960   0.427
67008W        W32235  32.198  21.206  14.015
67009W        W32236  40.851  10.301   0.304
67010W        W32237  18.252   1.079   1.756
67011W        W32238  35.179  42.998  14.931
67012W        W32239  25.236  33.487  11.139
67013W        W32240  25.899   9.969  13.404
67014W        W32241  13.551  23.478   2.855
67015W        W32242  19.905  41.881   1.445
67016W        W32243  15.912  31.407  12.432
67017W        W32244  30.516  24.302   0.957
67018W        W32245  26.567  32.384   4.415
67019W        W32246   8.573  26.647   3.663
67020W        W32247  36.805  14.948   4.765
67021W        W32248  13.894   3.275   0.271
67022W        W32249  19.931  32.930  14.620
67023W        W32250  16.431  16.729   0.897
67024W        W32251  17.604  42.468   3.645
67025W        W32252  27.223  42.444  12.973
67026W        W32253  20.043   1.468   4.116
67027W        W32254  12.598  20.677  12.403
67028W        W32255  27.722   8.416  10.745
67029W        W32256  41.090  16.021   4.246
67030W        W32257  34.072  13.313   0.407
67031W        W32258  23.037  16.106   3.785
67032W        W32259  37.092   3.531  13.100
67033W        W32260  30.124  35.517   0.443
67034W        W32261  40.426  37.422   0.011
67035W        W32262  33.283  37.807  10.460
67036W        W32263   0.478  37.418  11.516
67037W        W32264  35.945  13.889   3.834
67038W        W32265  39.230   5.494   2.113
67039W        W32266  38.138  26.958   2.727
67040W        W32267   4.779  22.714  11.216
67041W        W32268  40.996   8.509  11.651
67042W        W32269   2.367  33.612   0.896
67043W        W32270  42.749  38.396  11.541
67044W        W32271  15.097  28.313  13.408
67045W        W32272  27.390   5.683   1.437
67046W        W32273  27.240  11.231   1.201
67047W        W32274  29.592  12.147   4.647
67048W        W32275  24.067  40.801   3.464
67049W        W32276   8.705  39.077  11.462
67050W        W32277  23.605   0.706  11.705
67051W        W32278  30.935  20.019   3.672
67052W        W32279   4.947  30.744   1.746
67053W        W32280  32.740   0.313  13.500
67054W        W32281   8.697   8.188  14.594
67055W        W32282  25.336  44.494   2.628
67056W        W32283  37.456   6.997  12.021
67057W        W32284   3.727   0.934   2.563
67058W        W32285  42.195  39.054  14.283
67059W        W32286  13.687  10.817  11.979
67060W        W32287  12.679   1.430   4.754
67061W        W32288   2.345  41.464   1.951
67062W        W32289  17.390   9.337  14.830
67063W        W32290  41.884  11.904  11.491
67064W        W32291  30.528  14.332  12.152
67065W        W32292  20.198  16.013   2.330
67066W        W32293  16.886  20.740  14.288
67067W        W32294   5.285  20.530   4.284
67068W        W32295  43.223  41.902  11.573
67069W        W32296  34.491  23.642  11.131
67070W        W32297  35.714  13.744   4.974
67071W        W32298   1.468  11.054   2.728
67072W        W32299  38.723   6.807   1.536
67073W        W32300   3.701   9.616   0.112
67074W        W32301   3.033  31.909  10.217
67075W        W32302  12.188  11.759   1.236
67076W        W32303  32.985  34.027   2.058
67077W        W32304   5.723  19.739  14.895
67078W        W32305  24.994  11.859  11.179
67079W        W32306  40.502   8.504   9.933
67080W        W32307  27.456  38.131   4.683
67081W        W32308  11.754  33.984   0.073
67082W        W32309  34.110   2.064   3.419
67083W        W32310   6.345  26.772  14.684
67084W        W32311  40.876  38.427  11.581
67085W        W32312   3.532   3.234   0.940
67086W        W32313  28.513  22.352  11.236
67087W        W32314  10.279  17.103   2.735
67088W        W32315  22.505  35.657  14.045
67089W        W32316  42.998  27.715  11.200
67090W        W32317  34.021  21.006  10.957
67091W        W32318   5.903  17.635  11.143
67092W        W32319   2.044  44.137   0.907
67093W        W32320  42.366  41.776  11.136
67094W        W32321  17.343   0.668  14.330
67095W        W32322   6.313  31.638   3.673
67096W        W32323   3.495   5.876   3.130
67097W        W32324   2.302  31.839   2.466
67098W        W32325  39.860  16.551  12.305
67099W        W32326  15.178   3.245   2.258
67100W        W32327  14.811  21.704  14.324
67101W        W32328  26.956  21.064  13.421
67102W        W32329  18.337  28.129  13.987
67103W        W32330  41.975  24.380   2.826
67104W        W32331  27.514  41.698   3.597
67105W        W32332  34.861  36.603   1.399
67106W        W32333  14.320  11.507  13.125
67107W        W32334  15.123  35.437  14.797
67108W        W32335  43.342  20.902   4.931
67109W        W32336  36.891  19.835  14.262
67110W        W32337  25.741   8.313  13.539
67111W        W32338  44.529  37.369  10.813
67112W        W32339  35.784  42.389  11.407
67113W        W32340  29.527   8.802  11.816
67114W        W32341  18.244  32.018   2.354
67115W        W32342  10.118  42.852   0.468
67116W        W32343  25.275  35.654   0.366
67117W        W32344  39.330  17.446  10.775
67118W        W32345  32.814   1.955   1.768
67119W        W32346  15.343  24.134  13.536
67120W        W32347  38.318  32.033  13.886
67121W        W32348   5.989  38.199  10.743
67122W        W32349  40.491  13.854   4.708
67123W        W32350  40.728  12.725   1.721
67124W        W32351  44.599   1.348   0.319
67125W        W32352  18.041   2.322  13.344
67126W        W32353  20.144  35.937  13.964
67127W        W32354  43.964  25.221   4.360
67128W        W32355  37.020  24.770   3.262
67129W        W32356  15.663   2.731  12.227
67130W        W32357  23.210  28.439  13.904
67131W        W32358  33.038   5.910   1.143
67132W        W32359  11.185  25.025   1.808
67133W        W32360  24.570  44.411  10.652
67134W        W32361  10.178  27.456   3.222
67135W        W32362   1.286   0.522   4.155
67136W        W32363  29.679  35.461  11.330
67137W        W32364  42.785   0.493  12.718
67138W        W32365  13.577  29.070   2.171
67139W        W32366  21.721  33.118   3.739
67140W        W32367  27.675  38.394   2.434
67141W        W32368  21.383  22.548  14.662
67142W        W32369  42.366  21.253   1.703
67143W        W32370   7.335  36.770  11.403
67144W        W32371  17.514  35.917  10.621
67145W        W32372   5.422  10.444  13.439
67146W        W32373  15.876  36.145   2.651
67147W        W32374  14.123  12.093  12.460
67148W        W32375  32.626  19.033  12.179
67149W        W32376   9.726  29.798   0.359
67150W        W32377  27.914  34.158  14.828
67151W        W32378  23.221   9.277   5.019
67152W        W32379   0.040  44.283  14.835
67153W        W32380  21.141  24.208   2.716
67154W        W32381  26.568   9.796  13.973
67155W        W32382  23.584  41.262   0.193
67156W        W32383  22.219  44.422  14.854
67157W        W32384  16.377   8.406   1.212
67158W        W32385  39.875  15.191  13.012
67159W        W32386  26.953  28.006  14.799
67160W        W32387  20.981  23.433  11.115
67161W        W32388  20.345   6.956   1.287
67162W        W32389  37.998  43.537  12.148
67163W        W32390  33.221  44.412   4.259
67164W        W32391  20.959  24.421  12.604
67165W        W32392  13.206  17.254  13.035
67166W        W32393   4.726  38.752   5.017
67167W        W32394   1.377  12.918   1.159
67168W        W32395  28.241  24.847   0.907
67169W        W32396  19.980  17.605   0.339
67170W        W32397  37.397   0.263   4.175
67171W        W32398   0.232  31.128   2.637
67172W        W32399   0.174   9.121  11.197
67173W        W32400  42.238  12.941  11.916
67174W        W32401  28.501  36.639   9.919
67175W        W32402   6.175  11.978   5.125
67176W        W32403  11.818  27.610   2.416
67177W        W32404   9.286  14.704   2.451
67178W        W32405   9.779  35.742   1.879
67179W        W32406   3.195  19.658  11.831
67180W        W32407  25.665  44.469   0.887
67181W        W32408  26.154  39.519  10.988
67182W        W32409  25.164  36.265   4.650
67183W        W32410   7.916  44.730   2.930
67184W        W32411   6.466  21.786  11.626
67185W        W32412  33.149  13.741  12.668
67186W        W32413  37.331  31.455   3.187
67187W        W32414   9.192  27.568  13.893
67188W        W32415  21.052  37.134  11.453
67189W        W32416  36.314   9.775   0.340
67190W        W32417  44.890  27.160   1.478
67191W        W32418  28.038  28.678  12.582
67192W        W32419  40.045   3.056   2.721
67193W        W32420  32.397  18.744   0.793
67194W        W32421  33.076  32.388   2.349
67195W        W32422  18.988  23.305  14.045
67196W        W32423  13.132  14.688  14.701
67197W        W32424  22.090  29.870  11.131
67198W        W32425  24.170  27.948  13.092
67199W        W32426  29.985  33.213   2.703
67200W        W32427  24.299  43.952   4.090
67201W        W32428   1.548   6.369   4.172
67202W        W32429  29.056   4.314  12.480
67203W        W32430  40.008  16.231  13.265
67204W        W32431   3.725  26.650   3.019
67205W        W32432  15.544  19.185  13.519
67206W        W32433  29.474  15.325   0.449
67207W        W32434  22.451  32.567  10.074
67208W        W32435  28.531  34.516   2.809
67209W        W32436   8.091  16.444   9.886
67210W        W32437   9.352  22.153   2.738
67211W        W32438   8.842  33.835   1.361
67212W        W32439   8.218  18.027  11.607
67213W        W32440  32.544  10.257   2.206
67214W        W32441  23.523  36.029  12.998
67215W        W32442   1.507  16.737  14.544
67216W        W32443  23.969  32.564  14.496
67217W        W32444  19.570  20.620   4.131
67218W        W32445  36.253  19.648   1.847
67219W        W32446  42.812  34.853  11.867
67220W        W32447  31.175  18.785   1.979
67221W        W32448  35.497   9.392   3.354
67222W        W32449   9.823  12.139   4.094
67223W        W32450  33.992  40.883  11.220
67224W        W32451  22.083  19.716   3.096
67225W        W32452  36.517  34.055   1.613
67226W        W32453  41.016   1.474  14.217
67227W        W32454  27.585  18.370   0.096
67228W        W32455   1.583  28.415  11.757
67229W        W32456   9.629   7.418   0.279
67230W        W32457  26.728  31.979   0.546
67231W        W32458   5.405  24.526  10.798
67232W        W32459  35.981  38.295  12.977
67233W        W32460  23.201  27.627   3.600
67234W        W32461   2.215  33.636  11.109
67235W        W32462  39.061  26.656  10.253
67236W        W32463  32.665  27.823   3.154
67237W        W32464  24.017  34.881  13.612
67238W        W32465  37.911   2.266  12.591
67239W        W32466  41.962  19.790   0.457
67240W        W32467  13.138  32.547   1.839
67241W        W32468  34.369  18.145   3.119
67242W        W32469   6.735  18.159  14.328
67243W        W32470  35.960   4.924  11.579
67244W        W32471  37.854   4.958   2.285
67245W        W32472   4.501  23.411   2.870
67246W        W32473  13.060  33.463   1.829
67247W        W32474  36.279   1.432   0.837
67248W        W32475  23.186  27.310  11.602
67249W        W32476  18.699   3.957  14.001
67250W        W32477   8.743  32.197   5.454
67251W        W32478  37.258  14.703  10.769
67252W        W32479  40.611  31.468   2.097
67253W        W32480  42.455  20.455   4.170
67254W        W32481  32.487   4.772  10.184
67255W        W32482  40.955  23.029   4.174
67256W        W32483   5.017  21.623   2.288
67257W        W32484  25.756  42.255  10.614
67258W        W32485  35.183   8.817  10.711
67259W        W32486   7.913  27.522   1.325
67260W        W32487   7.472   4.248  14.351
67261W        W32488  16.754  29.070  13.280
67262W        W32489  17.626  37.753   3.309
67263W        W32490  17.452  34.634  12.246
67264W        W32491  29.638  11.393  12.078
67265W        W32492  31.327   9.311   4.001
67266W        W32493  31.674  18.740  11.626
67267W        W32494  10.233  12.036  12.936
67268W        W32495  17.114  44.164  12.849
67269W        W32496  40.481  35.499  14.354
67270W        W32497  18.381   7.132  14.920
67271W        W32498  16.598  32.957   1.129
67272W        W32499  12.772  14.715   3.251
67273W        W32500  38.104  22.636  11.482
67274W        W32501   4.976  36.760  12.989
67275W        W32502   9.152  17.988  14.479
67276W        W32503   1.927  14.274   1.469
67277W        W32504   8.359  28.465   3.161
67278W        W32505  20.495  24.429   3.771
67279W        W32506  15.532  30.885  11.259
67280W        W32507  29.153  42.937   1.392
67281W        W32508  12.119  23.530  10.659
67282W        W32509  27.016  11.285   1.665
67283W        W32510  29.053  30.890   2.493
67284W        W32511  26.526   6.168  12.273
67285W        W32512  28.780  35.151   1.434
67286W        W32513  21.954   7.735  12.637
67287W        W32514  33.468  40.599   0.817
67288W        W32515  25.683  35.066  12.713
67289W        W32516   3.366  24.467  10.202
67290W        W32517  19.673   2.348  13.449
67291W        W32518  18.097  13.372   4.483
67292W        W32519  31.529  34.994   1.944
67293W        W32520  16.219  42.438  11.716
67294W        W32521   5.766  16.639   4.471
67295W        W32522   8.195  38.416  12.956
67296W        W32523  13.474  30.740  13.777
67297W        W32524   6.984  29.035  13.762
67298W        W32525  28.572  34.039  11.649
67299W        W32526   7.855  39.105  11.198
67300W        W32527  43.967  35.573   3.241
67301W        W32528  30.949  37.573  12.657
67302W        W32529  14.958  17.752  11.188
67303W        W32530  16.217   5.798  10.915
67304W        W32531  33.551   9.254   2.708
67305W        W32532  38.821   0.768  13.345
67306W        W32533  22.873  36.488   2.253
67307W        W32534   2.496  30.410   2.282
67308W        W32535  15.180  12.092  10.894
67309W        W32536   8.704  16.817   2.656
67310W        W32537  39.680   3.839  12.237
67311W        W32538  37.477   9.489  13.337
67312W        W32539   0.548  41.515  12.524
67313W        W32540  15.889  17.701  14.008
67314W        W32541   0.199  39.377   2.646
67315W        W32542  27.231  25.183  10.670
67316W        W32543  14.287  27.219   2.359
67317W        W32544  27.458  33.051   2.662
67318W        W32545   2.914   9.231   1.425
67319W        W32546  41.997  12.171   3.730
67320W        W32547  35.604  20.047   0.728
67321W        W32548   7.493  39.578  13.300
67322W        W32549  19.548  17.867  12.034
67323W        W32550  33.207  17.754   4.591
67324W        W32551  37.863  25.565   0.223
67325W        W32552  21.093  29.535   4.609
67326W        W32553  41.428  43.017   4.042
67327W        W32554  24.094  38.775   2.214
67328W        W32555  12.608   1.656  12.047
67329W        W32556  29.652  21.003  13.363
67330W        W32557  13.871  17.046  13.715
67331W        W32558  42.832   5.987  11.532
67332W        W32559  28.145  31.624   2.240
67333W        W32560  31.865  21.146  11.617
67334W        W32561  28.952  14.835  10.578
67335W        W32562   2.948   5.428  10.694
67336W        W32563  19.467  27.690  14.366
67337W        W32564   5.485  15.353   9.891
67338W        W32565  20.635  20.453  10.939
67339W        W32566   0.752  30.954  14.301
67340W        W32567  41.581  40.707  12.140
67341W        W32568  32.595  39.047  13.081
67342W        W32569  35.714  11.677  10.675
67343W        W32570   7.875  32.120   0.250
67344W        W32571  35.988  15.107   2.659
67345W        W32572   8.304  16.775   3.990
67346W        W32573  17.593   5.368   1.375
67347W        W32574  36.526  40.533  14.949
67348W        W32575  43.072  44.832  11.521
67349W        W32576  41.729  40.535  13.367
67350W        W32577  16.701   0.389   1.039
67351W        W32578   6.031  26.777  14.202
67352W        W32579  28.017  13.604   0.695
67353W        W32580  21.572  12.141   0.813
67354W        W32581  23.691  43.505   0.414
67355W        W32582   5.308  37.808   3.759
67356W        W32583  36.117  29.212   2.301
67357W        W32584  26.931  27.183   2.359
67358W        W32585  31.491  23.653  12.691
67359W        W32586  38.846  36.937  12.518
67360W        W32587  13.772  26.154  14.483
67361W        W32588   9.369  22.543  12.485
67362W        W32589  10.617  12.381  12.947
67363W        W32590   6.357  32.624  11.499
67364W        W32591  38.902  22.942   0.854
67365W        W32592   2.809  16.572  13.537
67366W        W32593   6.266  44.026   2.364
67367W        W32594  30.105  38.563   1.357
67368W        W32595  37.065  29.488   1.406
67369W        W32596   4.706   8.327   3.824
67370W        W32597  21.031  26.988   2.802
67371W        W32598  12.096  30.499  10.190
67372W        W32599  42.526  32.110  14.846
67373W        W32600  18.743  26.709   3.672
67374W        W32601  18.593  35.715  13.911
67375W        W32602   9.123  31.549   0.443
67376W        W32603  36.498  38.130  14.547
67377W        W32604  44.769  29.573  13.082
67378W        W32605  43.295  39.326   0.335
67379W        W32606   6.917   5.349  12.399
67380W        W32607  24.057  26.737   1.067
67381W        W32608  40.838  41.324   3.217
67382W        W32609  13.244   4.410  12.685
67383W        W32610   0.864  44.843   1.501
67384W        W32611  12.618  15.894  14.746
67385W        W32612   4.247   0.106   2.770
67386W        W32613  28.534  26.646  12.527
67387W        W32614   7.435   4.777  14.302
67388W        W32615  28.209   0.613   0.882
67389W        W32616  28.886   6.885   3.710
67390W        W32617   1.259  44.436  12.147
67391W        W32618  24.014  21.595  14.189
67392W        W32619  15.717  43.407  14.438
67393W        W32620  38.734  32.592  11.041
67394W        W32621  42.808  27.408  14.396
67395W        W32622  42.361   8.380  13.401
67396W        W32623  28.049  18.168   1.877
67397W        W32624  29.708  20.224   2.722
67398W        W32625  38.098   1.594  13.377
67399W        W32626  14.664  18.377   2.499
67400W        W32627  36.624  44.242   3.863
67401W        W32628  18.731  22.054   4.466
67402W        W32629  39.773  44.739  14.954
67403W        W32630   5.826  16.864   1.564
67404W        W32631   6.804  42.391   0.436
67405W        W32632  24.128  32.383  14.991
67406W        W32633  15.327  24.717   1.667
67407W        W32634  12.826  32.864   0.422
67408W        W32635  42.081  30.079   0.076
67409W        W32636  27.175  17.155   3.435
67410W        W32637  34.871  27.584   0.975
67411W        W32638  14.462  34.390  11.123
67412W        W32639   0.780  13.268  14.678
67413W        W32640  27.022  27.086   9.725
67414W        W32641  36.910   5.666  14.386
67415W        W32642  26.252  32.851  12.444
67416W        W32643  34.534  24.454  14.733
67417W        W32644  14.330  41.789   3.699
67418W        W32645  24.434  35.076   2.870
67419W        W32646  33.782  27.659   1.693
67420W        W32647  18.609  12.508   0.336
67421W        W32648  29.113   0.898   3.161
67422W        W32649  16.165  44.315  14.138
67423W        W32650  39.966   3.141  14.062
67424W        W32651  30.220  13.239   3.075
67425W        W32652  43.877  28.433   2.843
67426W        W32653   8.580  24.144   1.297
67427W        W32654   1.258  21.816   1.752
67428W        W32655  25.436  37.835   4.308
67429W        W32656  30.591  17.281   4.136
67430W        W32657   7.004  21.942  13.405
67431W        W32658  12.783  43.091   0.995
67432W        W32659  43.495  18.235  10.076
67433W        W32660   0.223  12.720  13.899
67434W        W32661  22.417  20.381   1.338
67435W        W32662  37.942  14.175   3.322
67436W        W32663  24.231  37.444   1.363
67437W        W32664   5.267   3.671  13.543
67438W        W32665  42.357  26.018   3.174
67439W        W32666  13.338  30.798  12.469
67440W        W32667  17.599  31.405   4.600
67441W        W32668  35.083  24.355  14.100
67442W        W32669  17.764  30.388  11.449
67443W        W32670  39.788  18.243   2.797
67444W        W32671  35.645   6.150  10.587
67445W        W32672  14.545  39.559   0.901
67446W        W32673   5.004  35.981   0.328
67447W        W32674  16.892  30.407  11.196
67448W        W32675  28.929   8.419  14.115
67449W        W32676  26.432  11.201  14.266
67450W        W32677  34.609  10.539  12.087
67451W        W32678   1.870  21.203   3.751
67452W        W32679  36.787  32.078   1.678
67453W        W32680  41.452  12.274   1.834
67454W        W32681  16.460  17.169   3.195
67455W        W32682  28.528  33.361   0.823
67456W        W32683  36.048   2.615  12.939
67457W        W32684   9.083  18.939   0.265
67458W        W32685  14.221  41.904  11.291
67459W        W32686   0.123   0.865  12.541
67460W        W32687  21.685  20.575  13.482
67461W        W32688  33.654  42.754  14.821
67462W        W32689  30.882  17.659  11.692
67463W        W32690  25.666  37.770   4.784
67464W        W32691  18.587   7.323   0.368
67465W        W32692  27.897  27.185   5.351
67466W        W32693  12.388   7.808   0.577
67467W        W32694  34.236  22.027   0.905
67468W        W32695  25.675  34.940   2.110
67469W        W32696  20.071  42.889   2.013
67470W        W32697  34.899   5.343   3.204
67471W        W32698  43.931   6.032   2.723
67472W        W32699  22.247   6.192  12.982
67473W        W32700  20.110   8.405  10.603
67474W        W32701   7.663   3.272  13.074
67475W        W32702  17.272  36.703  11.993
67476W        W32703   5.429   5.805   0.618
67477W        W32704  31.617  14.357  11.106
67478W        W32705  12.031  36.256  11.719
67479W        W32706  39.985   8.398  11.548
67480W        W32707  42.934  31.470  11.457
67481W        W32708  11.803  14.606   2.330
67482W        W32709  25.852  43.299   4.670
67483W        W32710  26.507  10.898   4.636
67484W        W32711  16.436  36.791  14.004
67485W        W32712  28.725  30.155   2.312
67486W        W32713  18.080   6.487  11.134
67487W        W32714  13.954  25.271   0.947
67488W        W32715  32.172  36.014  13.585
67489W        W32716  19.156  27.756  11.204
67490W        W32717  11.300  31.251  14.731
67491W        W32718   5.431   8.297  14.596
67492W        W32719  16.204   6.216  10.630
67493W        W32720   0.903  36.934   9.946
67494W        W32721   6.417  16.020  13.072
67495W        W32722   0.309  19.685   2.755
67496W        W32723  25.575  17.837   0.754
67497W        W32724  39.844   3.407   0.012
67498W        W32725  30.897  12.162  12.095
67499W        W32726  15.952  21.469  12.113
67500W        W32727  40.269  21.084   1.743
67501W        W32728  39.594  32.840  12.031
67502W        W32729  10.615  22.126   4.168
67503W        W32730  42.638  41.325  11.856
67504W        W32731  43.129  44.333  11.437
67505W        W32732  19.107  14.103  10.806
67506W        W32733  17.059  40.023   0.918
67507W        W32734  44.263  37.363   1.894
67508W        W32735  16.994  20.950   3.230
67509W        W32736   6.340  36.359  13.982
67510W        W32737  31.312  39.368   0.351
67511W        W32738  16.531  14.144   4.526
67512W        W32739  33.584  11.305  14.435
67513W        W32740   7.391  27.651  14.955
67514W        W32741  21.592  13.391  12.128
67515W        W32742  20.795  20.137   2.147
67516W        W32743  17.647   0.358   2.416
67517W        W32744   1.466  35.086  13.609
67518W        W32745  34.961  29.998   1.009
67519W        W32746   8.701   3.943  13.560
67520W        W32747  36.002  29.449   0.660
67521W        W32748   7.295   7.118   1.709
67522W        W32749  20.609   4.214   4.499
67523W        W32750  21.755  34.355  13.510
67524W        W32751  14.333   5.663  12.043
67525W        W32752  36.810   6.913   4.480
67526W        W32753  40.487  40.923  13.784
67527W        W32754  26.803  27.453   1.885
67528W        W32755  31.897   3.871  13.756
67529W        W32756   1.960  41.828   2.396
67530W        W32757  38.858   3.803  13.147
67531W        W32758  33.947  36.435   1.873
67532W        W32759  21.526  14.226   0.925
67533W        W32760  32.357  30.483  10.690
67534W        W32761  19.351  22.663   4.285
67535W        W32762  27.095  16.581   0.276
67536W        W32763   1.782   2.757   1.703
67537W        W32764  39.334  33.003   3.658
67538W        W32765  27.760   1.506   3.243
67539W        W32766  40.012   4.252  10.390
67540W        W32767  42.010   1.757   4.086
67541W        W32768  10.124  41.721  13.559
67542W        W32769   8.634  10.483   1.795
67543W        W32770   6.153  42.114  11.442
67544W        W32771  33.041  25.781   1.797
67545W        W32772   9.317  33.440  10.948
67546W        W32773   6.604   9.769   4.027
67547W        W32774  39.579   5.093  13.020
67548W        W32775  22.511  32.495  11.048
67549W        W32776  26.787  29.056  14.370
67550W        W32777  20.546  35.144   4.617
67551W        W32778  13.243  40.119   4.100
67552W        W32779  31.493  22.488  12.063
67553W        W32780  11.146  37.907   2.517
67554W        W32781   1.359  30.379   3.184
67555W        W32782  28.008  33.986   1.788
67556W        W32783   4.986  16.552   4.176
67557W        W32784  10.137  13.784   1.783
67558W        W32785  38.904   7.277   2.373
67559W        W32786  15.583  13.580  13.336
67560W        W32787  12.133  12.830  14.325
67561W        W32788  13.974   0.918  14.277
67562W        W32789   3.289  40.928   2.351
67563W        W32790  11.090   9.258  14.668
67564W        W32791  33.532  38.043   4.118
67565W        W32792   0.030   9.087  13.453
67566W        W32793  16.738  36.926  11.089
67567W        W32794   5.549  36.847  11.548
67568W        W32795  12.904   1.225   1.308
67569W        W32796   2.422  22.293   2.129
67570W        W32797  44.516  13.274   3.637
67571W        W32798   8.813   3.998   0.429
67572W        W32799  12.507  22.708  13.262
67573W        W32800  41.805  36.819  13.020
67574W        W32801  31.170  40.573  12.217
67575W        W32802   4.734  20.654   5.100
67576W        W32803   0.338  42.073   1.913
67577W        W32804  16.141  26.975   4.474
67578W        W32805  23.067   4.488  13.416
67579W        W32806  38.047  18.232   0.756
67580W        W32807   2.681   7.516   4.234
67581W        W32808   7.378  14.124   0.597
67582W        W32809   1.440  26.205   3.642
67583W        W32810   0.253   0.607  13.401
67584W        W32811  31.605  11.525  13.505
67585W        W32812  39.142  37.181  12.951
67586W        W32813  19.361  41.556   4.542
67587W        W32814  18.830  39.327  12.546
67588W        W32815  15.059  12.855  12.993
67589W        W32816  33.954  30.372   2.013
67590W        W32817  33.518  34.108  14.354
67591W        W32818  22.687  29.852   3.747
67592W        W32819  29.970  18.962   3.627
67593W        W32820  21.788  10.600  13.651
67594W        W32821  29.873  30.669   4.054
67595W        W32822  31.189  39.022   3.688
67596W        W32823  37.611  28.605  10.707
67597W        W32824  17.461   2.415   3.413
67598W        W32825  13.186  15.974   0.874
67599W        W32826  34.502   5.780   2.286
67600W        W32827  27.879  33.462   4.102
67601W        W32828   9.089  22.990  13.380
67602W        W32829  35.102  41.835  12.042
67603W        W32830   8.598  26.597  10.999
67604W        W32831  30.874  14.767   1.744
67605W        W32832  19.250   8.768  10.619
67606W        W32833  26.547  44.965  14.114
67607W        W32834  35.524  25.498   0.681
67608W        W32835  27.940  18.618  14.381
67609W        W32836   3.461  41.736  12.502
67610W        W32837  15.820  23.143   2.352
67611W        W32838  44.296  22.091   0.623
67612W        W32839  20.584  35.159  14.120
67613W        W32840  25.134  29.934  14.325
67614W        W32841  11.318  27.200   3.676
67615W        W32842  14.962   5.192  12.940
67616W        W32843  19.133  23.431   0.055
67617W        W32844   6.346  21.772   2.303
67618W        W32845   3.916   3.121  14.930
67619W        W32846  40.708  16.015  13.186
67620W        W32847  27.633  38.346   0.952
67621W        W32848  16.071  26.173  12.762
67622W        W32849  25.456  14.921   1.418
67623W        W32850   8.257   7.454   0.439
67624W        W32851  42.432   8.968   5.164
67625W        W32852  21.671   8.702  13.804
67626W        W32853   5.199  12.377  14.535
67627W        W32854  26.299  25.571  12.053
67628W        W32855   8.850   5.706  12.340
67629W        W32856  43.000  27.959  11.673
67630W        W32857   7.359  43.458  14.126
67631W        W32858   3.137  35.650   4.163
67632W        W32859  38.597  10.597   0.354
67633W        W32860  30.514   7.391  14.447
67634W        W32861  29.538   7.153   4.756
67635W        W32862  14.748  36.661  14.465
67636W        W32863  19.236  44.921   0.568
67637W        W32864  36.367  28.914   2.651
67638W        W32865  32.595  37.883  10.492
67639W        W32866  15.672  19.094   4.207
67640W        W32867   1.937  29.770   0.993
67641W        W32868  41.401  27.511  13.614
67642W        W32869  44.500  40.920   1.800
67643W        W32870  38.951  42.202   3.193
67644W        W32871  18.807   6.200   1.261
67645W        W32872  44.292  42.317  11.093
67646W        W32873  23.762   6.834  11.883
67647W        W32874  14.356  44.694  10.461
67648W        W32875  12.549   6.365  11.998
67649W        W32876  27.963   2.260  10.965
67650W        W32877  34.599  23.176   3.112
67651W        W32878  40.068  19.225   3.713
67652W        W32879   3.908  42.803   0.680
67653W        W32880  38.547   3.884  10.251
67654W        W32881  14.504   5.448  12.975
67655W        W32882  14.304  25.004  13.818
67656W        W32883  15.856  24.172   3.335
67657W        W32884   4.743   7.350   2.727
67658W        W32885  14.259  20.683  11.165
67659W        W32886  28.179  20.080  12.519
67660W        W32887  14.192  40.886  10.145
67661W        W32888  34.515  34.912   0.463
67662W        W32889  18.210  37.735  11.631
67663W        W32890  10.163  33.795   0.310
67664W        W32891   6.810  40.276  10.421
67665W        W32892  21.231  42.215  13.017
67666W        W32893  31.296  10.291   1.048
67667W        W32894  37.286   5.650   3.287
67668W        W32895   4.822   1.854   1.587
67669W        W32896  33.077  16.718   9.973
67670W        W32897  34.536  22.708  14.181
67671W        W32898   4.995  16.660   2.298
67672W        W32899  17.310  38.987   0.884
67673W        W32900  17.066  13.105   3.589
67674W        W32901  38.407  13.961   3.372
67675W        W32902  38.054  40.735  12.972
67676W        W32903  14.499  10.887   3.219
67677W        W32904  38.598   3.376  10.102
67678W        W32905  40.945  17.586  11.366
67679W        W32906  13.781  14.413  10.983
67680W        W32907  11.241  36.517  13.067
67681W        W32908  24.457  35.139   1.827
67682W        W32909   5.372  19.139  12.571
67683W        W32910   2.924   6.325  11.692
67684W        W32911  25.121  24.394  12.869
67685W        W32912  14.953   2.805   4.563
67686W        W32913   7.160  43.359  14.652
67687W        W32914  43.487  11.695  14.060
67688W        W32915   7.683   9.396  14.891
67689W        W32916   0.981   5.369  13.773
67690W        W32917  10.880  43.530  13.346
67691W        W32918  33.119  29.297   2.011
67692W        W32919   0.937  23.586  12.350
67693W        W32920  42.399   2.702  12.852
67694W        W32921  25.235  19.621  12.043
67695W        W32922  23.232  37.652   1.280
67696W        W32923  39.624  23.454   2.429
67697W        W32924  43.959  33.123   0.234
67698W        W32925  33.696   8.221   3.566
67699W        W32926  20.124   3.979  13.045
67700W        W32927  31.004  12.159   1.396
67701W        W32928   4.639   5.364  11.687
67702W        W32929  20.295  22.698   2.397
67703W        W32930  38.165  39.955   1.287
67704W        W32931  44.705  34.870   4.135
67705W        W32932   2.909  12.023  14.438
67706W        W32933  31.585  27.244   0.726
67707W        W32934   9.230  26.470  12.112
67708W        W32935  38.480  28.955   3.894
67709W        W32936  34.220  16.011   4.148
67710W        W32937  25.973   7.371  14.322
67711W        W32938  35.926  38.796  10.591
67712W        W32939  34.813  14.188   2.879
67713W        W32940   4.839  21.716   1.802
67714W        W32941  26.284  32.917  14.441
67715W        W32942  39.165   8.737   0.434
67716W        W32943  41.338  17.831  12.100
67717W        W32944  28.231  16.377  11.096
67718W        W32945  36.358  33.485  11.275
67719W        W32946   5.315  29.455   1.425
67720W        W32947  35.821  13.222   2.809
67721W        W32948  29.577  34.588  13.337
67722W        W32949  32.152  22.451   2.791
67723W        W32950  36.466  20.085  12.900
67724W        W32951  30.977  23.694   1.401
67725W        W32952  26.068   3.879  11.848
67726W        W32953  21.586  16.867  11.959
67727W        W32954  36.693  21.344   0.205
67728W        W32955  23.650  28.088  13.240
67729W        W32956  22.020  16.545   4.027
67730W        W32957  40.516   0.693  13.341
67731W        W32958  36.720  18.590  13.560
67732W        W32959  14.302  39.842  12.076
67733W        W32960  44.785  44.108   3.575
67734W        W32961  42.737  12.594  14.070
67735W        W32962  25.090  22.432  11.503
67736W        W32963  26.157  41.961  10.737
67737W        W32964  30.191   8.169   0.551
67738W        W32965  28.947  25.022  13.605
67739W        W32966  43.485  24.311   2.101
67740W        W32967  32.998  29.129  13.814
67741W        W32968  34.531  29.443  14.953
67742W        W32969  39.273  20.625   2.866
67743W        W32970   6.871  41.009   1.729
67744W        W32971  21.332  25.538  14.636
67745W        W32972   6.208  20.324  14.171
67746W        W32973  21.897  19.409  12.608
67747W        W32974  20.038   5.766  12.949
67748W        W32975   0.817  25.594  14.108
67749W        W32976  23.695  44.432   1.889
67750W        W32977   9.649  25.599  13.896
67751W        W32978  21.194  41.547  12.458
67752W        W32979  40.416  37.895  14.759
67753W        W32980  11.171   7.409  11.172
67754W        W32981  33.114  37.217   1.199
67755W        W32982  40.939  10.453  14.819
67756W        W32983  12.621  12.725   2.768
67757W        W32984  15.287  30.622   4.596
67758W        W32985  29.604   8.690  12.308
67759W        W32986  39.780   1.861   4.465
67760W        W32987  19.314   8.350  11.155
67761W        W32988   3.279  23.440   3.332
67762W        W32989  24.268   0.594  11.268
67763W        W32990   3.753  20.846  10.815
67764W        W32991  12.188   4.722   4.489
67765W        W32992   7.675  44.893  11.568
67766W        W32993  14.848   5.031  12.463
67767W        W32994  21.610  26.131   3.824
67768W        W32995  19.206  23.472  13.393
67769W        W32996   3.653  12.156   3.651
67770W        W32997  34.969  42.027  13.463
67771W        W32998  21.036  17.630  11.992
67772W        W32999  16.087  21.801   3.535
67773W        W33000   7.153  40.038   2.776
67774W        W33001  21.607  44.597  10.628
67775W        W33002  38.347  25.491   0.957
67776W        W33003   2.218  41.241   4.093
67777W        W33004  24.267   6.559   0.390
67778W        W33005  27.528   2.526   1.682
67779W        W33006  43.242   3.332  11.883
67780W        W33007  26.610   9.762  13.047
67781W        W33008  37.071   8.929  11.480
67782W        W33009  36.607  31.611  10.566
67783W        W33010  34.172  29.511  11.186
67784W        W33011  44.368  25.030   4.083
67785W        W33012  28.124  20.379   1.651
67786W        W33013  25.734  23.176  13.031
67787W        W33014  32.903  33.065  13.498
67788W        W33015  13.179  21.038  14.886
67789W        W33016  41.025  28.949  12.096
67790W        W33017  17.699  37.588  11.749
67791W        W33018  42.472  35.812  14.096
67792W        W33019   4.387   6.707   3.887
67793W        W33020   6.555  31.435   1.804
67794W        W33021  14.799  25.751   2.875
67795W        W33022   0.733   0.935  13.912
67796W        W33023  17.048  11.023   0.347
67797W        W33024  23.347   5.586  12.542
67798W        W33025  36.414   9.286   2.240
67799W        W33026  19.693  11.773   2.208
67800W        W33027   7.310  34.669  13.523
67801W        W33028  41.421  33.044   3.043
67802W        W33029  34.575   6.891  12.882
67803W        W33030   9.129  40.333  14.862
67804W        W33031  19.630  22.586  12.522
67805W        W33032  14.605   6.442   1.847
67806W        W33033  28.050   2.930  14.405
67807W        W33034  41.225  18.068  10.523
67808W        W33035  10.171   2.679  13.422
67809W        W33036  21.826  36.027  14.457
67810W        W33037   0.944  10.626   4.384
67811W        W33038  38.907  33.895   1.113
67812W        W33039  11.813  43.269   0.427
67813W        W33040   3.483  25.459  11.523
67814W        W33041  39.331  24.975   0.276
67815W        W33042  31.635  29.373   5.327
67816W        W33043  34.279  26.058   2.192
67817W        W33044  34.985  29.459   4.566
67818W        W33045  32.661  10.789  14.637
67819W        W33046  39.701   3.938   4.553
67820W        W33047  22.296   2.921  10.813
67821W        W33048  24.919  25.152  13.474
67822W        W33049  15.562   8.338   2.106
67823W        W33050  40.737  11.781  10.755
67824W        W33051  13.797  40.107   1.011
67825W        W33052   6.634  28.835   0.973
67826W        W33053  36.578  44.616  13.882
67827W        W33054  44.906  22.971   0.209
67828W        W33055  29.201  24.650  14.876
67829W        W33056  16.172  33.069   2.974
67830W        W33057  12.733  10.705   3.918
67831W        W33058  17.307  23.152  13.437
67832W        W33059   4.832  39.811  11.449
67833W        W33060   2.013  10.775   1.691
67834W        W33061  40.247  23.506  14.015
67835W        W33062  23.594  41.388   2.122
67836W        W33063   7.254  40.915  11.373
67837W        W33064  30.629  23.296  14.460
67838W        W33065  18.145   6.555  14.371
67839W        W33066  32.570  26.018   1.835
67840W        W33067  21.706  21.101  13.460
67841W        W33068  16.209   8.138   3.342
67842W        W33069  20.710   4.818   2.385
67843W        W33070  20.106  39.482  13.065
67844W        W33071  24.643  41.276  10.667
67845W        W33072  26.388   4.168   1.820
67846W        W33073  16.282   6.738   4.516
67847W        W33074  22.825  12.206   3.880
67848W        W33075  31.004  21.694   4.793
67849W        W33076  12.750  18.559   3.805
67850W        W33077   7.160  23.849  13.860
67851W        W33078  19.490  35.212   1.691
67852W        W33079  12.304  25.475  11.180
67853W        W33080  15.030   3.369  12.341
67854W        W33081  10.833  32.669   2.267
67855W        W33082  17.541  11.160   4.173
67856W        W33083  35.176  35.457  13.931
67857W        W33084  14.489  37.942  13.007
67858W        W33085  30.666  23.375   5.054
67859W        W33086  34.061  34.544  11.474
67860W        W33087  10.892  36.709   3.579
67861W        W33088  27.024  37.074  12.652
67862W        W33089  44.389  31.886   1.993
67863W        W33090  19.594   5.377   3.255
67864W        W33091  24.361   8.886   2.394
67865W        W33092  37.920  37.835   2.783
67866W        W33093  35.299   8.177  12.315
67867W        W33094  43.322   6.233   4.638
67868W        W33095   3.451  14.354   2.389
67869W        W33096   1.940  42.725   0.878
67870W        W33097  26.563  32.599  12.798
67871W        W33098  16.764  19.628  12.011
67872W        W33099  38.406  42.762   1.085
67873W        W33100  40.620   2.277   0.097
67874W        W33101  35.303  22.185   3.747
67875W        W33102  44.014  16.153   0.689
67876W        W33103   1.386  20.352  12.551
67877W        W33104  14.309  34.574  11.589
67878W        W33105  15.072  17.264  11.320
67879W        W33106  37.574   3.749  13.877
67880W        W33107  29.821   7.683  11.920
67881W        W33108  41.169  41.376   4.515
67882W        W33109  13.148  36.109  14.998
67883W        W33110  42.950   4.633   0.411
67884W        W33111  39.079  17.394  13.379
67885W        W33112   6.619  35.382  12.997
67886W        W33113  41.360  15.366  14.862
67887W        W33114  25.970  39.804   1.647
67888W        W33115  11.254  16.424   0.258
67889W        W33116   5.232  19.078   4.950
67890W        W33117  17.102  41.284   4.032
67891W        W33118  43.726  17.221  13.003
67892W        W33119  24.129  18.355   2.177
67893W        W33120  25.095  44.845  13.655
67894W        W33121  35.424  16.039   1.492
67895W        W33122  23.469  38.533  13.756
67896W        W33123   7.542   2.316  12.973
67897W        W33124  30.555  41.304   1.915
67898W        W33125   8.827  34.961   0.635
67899W        W33126  26.655   8.851   2.239
67900W        W33127   6.470   7.288   2.769
67901W        W33128  26.762   9.279   4.083
67902W        W33129  13.309  35.315   4.149
67903W        W33130  35.352  44.770   0.767
67904W        W33131  27.976  11.697  14.932
67905W        W33132   0.058  28.929  10.753
67906W        W33133  17.581  43.362  11.985
67907W        W33134   9.840  31.214  11.394
67908W        W33135  36.075  36.400   3.738
67909W        W33136   3.745  29.964  14.001
67910W        W33137  11.465   4.471  12.930
67911W        W33138  33.213  37.559   0.819
67912W        W33139  42.585  41.505   1.238
67913W        W33140   9.143  10.677  12.708
67914W        W33141  28.051  26.089   0.880
67915W        W33142   3.741  24.283   3.715
67916W        W33143  14.834  33.574   1.398
67917W        W33144  40.991  43.862   4.255
67918W        W33145  13.638  19.242   2.637
67919W        W33146  39.467  36.615   4.695
67920W        W33147  36.119  35.983   3.148
67921W        W33148  17.431  18.230  12.078
67922W        W33149  43.910   5.737  10.683
67923W        W33150  21.653  18.597   4.604
67924W        W33151  23.303   7.304   0.415
67925W        W33152  13.627  12.084  12.550
67926W        W33153   4.136  13.789   4.411
67927W        W33154  25.673  24.747   1.191
67928W        W33155  25.549   0.715  13.413
67929W        W33156   0.247  30.662  10.523
67930W        W33157   9.920   9.594  11.135
67931W        W33158  19.766  19.749   0.293
67932W        W33159  42.271   7.259   0.308
67933W        W33160  15.714  21.678   2.301
67934W        W33161  37.519   8.615  14.279
67935W        W33162  33.057   8.167  13.085
67936W        W33163  28.952  15.051   4.095
67937W        W33164  37.523  33.871   4.350
67938W        W33165   2.353  20.523   4.331
67939W        W33166   0.962  36.338   1.884
67940W        W33167  43.554   9.257  14.807
67941W        W33168  36.536  13.786   2.665
67942W        W33169  10.276  41.703  11.047
67943W        W33170   7.318   5.526   4.615
67944W        W33171  13.345  26.389  13.132
67945W        W33172  35.898  19.421   2.740
67946W        W33173  22.162  11.862   2.752
67947W        W33174  14.736   7.164   0.356
67948W        W33175   5.599  16.190   3.070
67949W        W33176   8.460  33.728   0.407
67950W        W33177   3.670  41.487  12.931
67951W        W33178   6.169  26.073  10.522
67952W        W33179  36.386  33.021   0.417
67953W        W33180  27.886   9.305  13.469
67954W        W33181  41.812  16.117  14.014
67955W        W33182   5.158  18.772  10.655
67956W        W33183  16.075   1.582   0.999
67957W        W33184   1.378  20.515  11.563
67958W        W33185   8.879  14.784   1.954
67959W        W33186  17.692  28.251  14.376
67960W        W33187  32.849  40.560  13.258
67961W        W33188  44.831  24.766   0.060
67962W        W33189   5.827  33.891  14.480
67963W        W33190  21.678  37.727   1.602
67964W        W33191  20.454  42.749  13.779
67965W        W33192  33.846  43.226  14.924
67966W        W33193  40.850  14.733  11.601
67967W        W33194  30.091  34.987   0.377
67968W        W33195   2.018   1.251  10.919
67969W        W33196  16.687   7.812   2.379
67970W        W33197  20.807  25.822   1.697
67971W        W33198  40.562  34.811   2.780
67972W        W33199  24.708  10.772  14.353
67973W        W33200   5.911  28.237  12.404
67974W        W33201  38.449  17.058   1.818
67975W        W33202  10.269  35.533   0.715
67976W        W33203  11.677  25.030   1.597
67977W        W33204  38.817  31.627  12.476
67978W        W33205   5.244  22.690   0.700
67979W        W33206  21.242  36.636   0.942
67980W        W33207   8.901  37.150  13.845
67981W        W33208  24.830  42.401  12.019
67982W        W33209  43.346  16.062   3.256
67983W        W33210  35.111  38.050   4.575
67984W        W33211  40.710  41.836  13.298
67985W        W33212  11.812   4.286  12.206
67986W        W33213  26.023   3.554   0.304
67987W        W33214  13.173  43.295  11.902
67988W        W33215  31.328  43.411   0.206
67989W        W33216  36.434  28.030   1.384
67990W        W33217   5.758  13.719   2.478
67991W        W33218  10.641   0.502   3.735
67992W        W33219  43.926  27.751   1.384
67993W        W33220  12.726  19.426  12.555
67994W        W33221   5.314   6.763  11.715
67995W        W33222  40.793  32.100   1.796
67996W        W33223   4.257  29.093  13.835
67997W        W33224  33.166  25.574   2.646
67998W        W33225  16.278  10.118  14.404
67999W        W33226  41.984  37.851  10.644
68000W        W33227  31.375  24.132  13.970
68001W        W33228  40.316  37.896  12.466
68002W        W33229  38.947  19.911  10.585
68003W        W33230  19.065  10.798   0.778
68004W        W33231  28.027  39.998  14.952
68005W        W33232  22.085  17.454  12.859
68006W        W33233  42.088  11.922   4.170
68007W        W33234   0.397  35.134   0.589
68008W        W33235  22.438  10.123  12.052
68009W        W33236  37.910  29.507  13.335
68010W        W33237   9.153   3.484  14.404
68011W        W33238  31.678  17.250  10.593
68012W        W33239   1.315  18.626   2.714
68013W        W33240   1.595  20.492  10.151
68014W        W33241  28.053  41.038  11.156
68015W        W33242   9.483  10.473  11.217
68016W        W33243   4.125   1.693  13.953
68017W        W33244   3.590  27.439  13.164
68018W        W33245  34.878  11.053  11.222
68019W        W33246  14.589  43.897  11.725
68020W        W33247  27.556  40.122  14.272
68021W        W33248  23.331  41.603  14.244
68022W        W33249  36.817  18.221   2.121
68023W        W33250  14.303  42.408  12.959
68024W        W33251  10.260  29.152  11.538
68025W        W33252  22.901   8.691  14.938
68026W        W33253  37.408   5.753   0.038
68027W        W33254   2.428  38.301  12.107
68028W        W33255   6.409  36.039   2.674
68029W        W33256   8.165  12.641  10.969
68030W        W33257   8.417   5.748   3.155
68031W        W33258  18.943  33.226  13.832
68032W        W33259  38.802   1.344   0.381
68033W        W33260  41.061  30.599  13.054
68034W        W33261  23.802  44.679  10.262
68035W        W33262  43.600  15.604   0.267
68036W        W33263   6.474  42.056   4.143
68037W        W33264  37.363  11.447   2.606
68038W        W33265  38.309  44.765  10.975
68039W        W33266  32.692  25.994  11.094
68040W        W33267  28.655  20.920   4.613
68041W        W33268  24.156   7.490   5.049
68042W        W33269  27.106   0.276   4.050
68043W        W33270  33.875  35.100  14.423
68044W        W33271  30.618  40.781   2.784
68045W        W33272  13.758   5.439   0.980
68046W        W33273  12.964   5.830  14.704
68047W        W33274   9.610  23.088   2.184
68048W        W33275  37.636  14.032   0.243
68049W        W33276  12.885   8.848   1.767
68050W        W33277  19.828  23.153   0.394
68051W        W33278  41.394   6.538  12.873
68052W        W33279  14.626  27.907   4.497
68053W        W33280  24.551  15.433  14.259
68054W        W33281  38.498  19.661  13.660
68055W        W33282  42.880  14.251   9.988
68056W        W33283  30.947   8.288  12.633
68057W        W33284  14.046  23.417   0.921
68058W        W33285  42.925   9.223  12.549
68059W        W33286  33.032  12.510  12.127
68060W        W33287  17.623  43.926  11.203
68061W        W33288  22.112  28.525   1.990
68062W        W33289  18.068   3.154   3.265
68063W        W33290  40.874  26.311   2.686
68064W        W33291  22.242   5.498   3.051
68065W        W33292   5.272  17.282   3.910
68066W        W33293   3.943  44.943  13.819
68067W        W33294  38.450  18.446  13.053
68068W        W33295  39.045  41.290  14.526
68069W        W33296   5.716  24.144   3.579
68070W        W33297   6.937  35.071   1.830
68071W        W33298  30.677  18.257  10.361
68072W        W33299   1.467   0.970   1.916
68073W        W33300  43.542  17.912  12.543
68074W        W33301   1.251  35.045   1.125
68075W        W33302  12.083  44.939  14.105
68076W        W33303  28.907  29.451  14.788
68077W        W33304  26.130  21.370   2.736
68078W        W33305  31.855   1.394   3.187
68079W        W33306  12.637   4.365  14.026
68080W        W33307  28.455  25.107  13.852
68081W        W33308  18.323  31.207   0.342
68082W        W33309   7.082   4.410  11.703
68083W        W33310  40.019  24.182   1.101
68084W        W33311  25.276  44.310   1.731
68085W        W33312  42.472  16.761   3.641
68086W        W33313  37.630  34.819   4.145
68087W        W33314  30.124  12.683   1.625
68088W        W33315  22.980  13.541   1.735
68089W        W33316  14.534  27.110   1.925
68090W        W33317  31.172   2.133  10.163
68091W        W33318  33.156   3.549  10.843
68092W        W33319  13.868  15.365   4.380
68093W        W33320  19.711  27.277   2.111
68094W        W33321  38.480  22.713   2.243
68095W        W33322  19.712   5.008   4.658
68096W        W33323  13.836  21.016   9.945
68097W        W33324  31.679  30.938   1.813
68098W        W33325  26.090  19.965  11.562
68099W        W33326  12.301  37.402  10.248
68100W        W33327  32.369  27.250  13.897
68101W        W33328  23.820  43.837  13.814
68102W        W33329  17.254  35.548   4.617
68103W        W33330  43.167  39.442   1.396
68104W        W33331  44.819  42.974   2.423
68105W        W33332  31.709  15.064  11.726
68106W        W33333   4.903   5.827   1.316
68107W        W33334  39.286  34.115   4.185
68108W        W33335  25.738  29.836  14.243
68109W        W33336  28.470  25.017  13.327
68110W        W33337  21.636  25.899  11.604
68111W        W33338  26.092  16.308  13.807
68112W        W33339   8.809  26.468  10.519
68113W        W33340  19.203   8.083   0.421
68114W        W33341  20.080   6.770  12.021
68115W        W33342   2.911  40.363  10.938
68116W        W33343  10.346  24.944  14.885
68117W        W33344   8.429   5.764  13.196
68118W        W33345  13.038   7.457  10.123
68119W        W33346   9.233  29.587   0.349
68120W        W33347  37.570   1.993   4.519
68121W        W33348  26.961  44.842  13.845
68122W        W33349  37.026   4.910   2.654
68123W        W33350  38.251  13.672  12.119
68124W        W33351  43.107  20.001  13.201
68125W        W33352   7.142   2.825   3.352
68126W        W33353  11.885  31.455  14.890
68127W        W33354  35.223  13.269   0.745
68128W        W33355  29.581  10.223  10.314
68129W        W33356  26.632   9.883  14.493
68130W        W33357  24.661  39.044  12.901
68131W        W33358   0.980  18.362   4.607
68132W        W33359  21.601  18.712  12.309
68133W        W33360   2.981  30.287   0.273
68134W        W33361  29.616  18.146   1.153
68135W        W33362  16.129  11.221   4.099
68136W        W33363  40.039  37.512  11.258
68137W        W33364  29.077  31.990   3.167
68138W        W33365  31.603  18.644   3.672
68139W        W33366  43.023  42.803  12.164
68140W        W33367  31.610  32.046   0.018
68141W        W33368  43.873  33.725   4.546
68142W        W33369   8.567  15.247   2.744
68143W        W33370  41.896   6.937   1.160
68144W        W33371  23.596  22.177   1.490
68145W        W33372   5.120  26.141   4.110
68146W        W33373  14.689   5.924  12.950
68147W        W33374  38.413  35.270  11.077
68148W        W33375  21.230   2.638   2.179
68149W        W33376  36.584  42.760  12.397
68150W        W33377  41.501   5.906  14.771
68151W        W33378  42.296   2.404   0.007
68152W        W33379   9.931  40.760  12.024
68153W        W33380  22.739  15.682   0.855
68154W        W33381  38.351  12.696  14.533
68155W        W33382  30.068  25.270   0.023
68156W        W33383  44.918  30.502  12.665
68157W        W33384   6.212  16.299  11.660
68158W        W33385  29.511  19.701   0.312
68159W        W33386   0.222  12.924   0.523
68160W        W33387  39.473  20.801  13.539
68161W        W33388  29.660  42.198   0.599
68162W        W33389  20.270   6.319  13.335
68163W        W33390  36.414   2.031  14.502
68164W        W33391  37.091  39.820  10.631
68165W        W33392  23.831  30.430   2.619
68166W        W33393  10.905  28.105  14.126
68167W        W33394  42.553  37.941   0.833
68168W        W33395  34.502  29.121   3.147
68169W        W33396  40.280   5.419  12.578
68170W        W33397  39.384   2.634   0.661
68171W        W33398  19.589  18.299   2.347
68172W        W33399  26.607  28.907   4.589
68173W        W33400  42.916  31.538  14.314
68174W        W33401  15.657  39.481  11.906
68175W        W33402  36.099  16.815  12.490
68176W        W33403  44.053  10.312   1.270
68177W        W33404  26.146  32.467  13.733
68178W        W33405   8.314   1.263   2.254
68179W        W33406   0.471  38.518   2.435
68180W        W33407  20.107  19.634  13.120
68181W        W33408   2.703  38.350  11.016
68182W        W33409  11.772  28.386  14.797
68183W        W33410  42.601   4.201  14.844
68184W        W33411  38.844  10.428  11.690
68185W        W33412  25.709  28.983   1.873
68186W        W33413  23.613   5.487  10.271
68187W        W33414  28.013  28.075   1.412
68188W        W33415  28.238  16.515  13.694
68189W        W33416  22.446  42.234  13.368
68190W        W33417   6.471   7.856   1.002
68191W        W33418   9.139  28.762  12.981
68192W        W33419  27.068  29.338   3.439
68193W        W33420  13.308  20.160  11.398
68194W        W33421  36.862  24.676   3.737
68195W        W33422  24.115  25.934  12.675
68196W        W33423  24.231  29.433   2.876
68197W        W33424   7.256  14.552  12.982
68198W        W33425  22.434  41.496   0.732
68199W        W33426  23.999  18.102   0.898
68200W        W33427   7.898   3.870   3.575
68201W        W33428  29.058  37.450   0.378
68202W        W33429  32.076  11.376   1.349
68203W        W33430  19.748  13.207  13.499
68204W        W33431   1.809  19.456   2.203
68205W        W33432  23.043  12.924  11.476
68206W        W33433   8.985  29.987  13.957
68207W        W33434   7.716   3.292  14.355
68208W        W33435  40.400  22.236   3.761
68209W        W33436  21.807  32.898  11.330
68210W        W33437  22.369  44.305  11.154
68211W        W33438  40.708  44.746  12.789
68212W        W33439  15.865  34.402   3.269
68213W        W33440  29.782  34.387  12.929
68214W        W33441   3.720   6.893  10.488
68215W        W33442   8.966   7.263   4.180
68216W        W33443   2.697  27.948  13.157
68217W        W33444   9.156   8.360  13.418
68218W        W33445  33.606  25.898  11.502
68219W        W33446   4.882  20.142   4.263
68220W        W33447  19.132  21.026  14.435
68221W        W33448  29.099  12.618   3.563
68222W        W33449   5.423  43.947  14.519
68223W        W33450  42.082  16.867  11.640
68224W        W33451  20.015  41.004  14.997
68225W        W33452  25.665  32.483   0.483
68226W        W33453  20.022   1.192  11.283
68227W        W33454  17.779  33.796  13.447
68228W        W33455  20.247  23.610  12.532
68229W        W33456  37.986   3.998  14.101
68230W        W33457  34.492   6.397  12.948
68231W        W33458   5.982  26.150  12.880
68232W        W33459  11.820  16.017   4.800
68233W        W33460  35.686  34.970   2.249
68234W        W33461   5.988  36.347  14.376
68235W        W33462   2.329  41.843  11.398
68236W        W33463  10.894  44.381   4.119
68237W        W33464  11.120  10.959  13.799
68238W        W33465  42.594  13.369  14.435
68239W        W33466  19.276  37.965  13.722
68240W        W33467  10.794   5.714  12.273
68241W        W33468  44.617  28.209   3.256
68242W        W33469  14.332  27.579   1.903
68243W        W33470   2.309  22.096   1.642
68244W        W33471  29.632   9.309   4.165
68245W        W33472  28.961   4.434  11.581
68246W        W33473  23.267  16.003   2.863
68247W        W33474  35.396  42.444  11.024
68248W        W33475  20.710  38.288  13.491
68249W        W33476  33.507  31.378  11.451
68250W        W33477  17.587   9.177   3.906
68251W        W33478  20.602  34.367  12.007
68252W        W33479  22.575   8.923  13.446
68253W        W33480  15.736  27.766  13.180
68254W        W33481  24.759  16.310   2.798
68255W        W33482   0.455   5.028   1.972
68256W        W33483  26.166  37.123  14.052
68257W        W33484  23.246  31.545   1.182
68258W        W33485  17.009  11.158   3.387
68259W        W33486  24.441  14.288   1.998
68260W        W33487   2.339  39.863   3.425
68261W        W33488  14.782   1.305  12.132
68262W        W33489  24.637  41.942   0.896
68263W        W33490  31.222  20.483  14.404
68264W        W33491  44.347   8.026  11.152
68265W        W33492  10.718   7.299   2.316
68266W        W33493  31.636  28.987  11.970
68267W        W33494  41.782  30.879  13.853
68268W        W33495  33.602  32.446  13.355
68269W        W33496  42.527   6.672  12.878
68270W        W33497  43.093  13.222  11.568
68271W        W33498  34.056  29.340   4.402
68272W        W33499   0.904  30.096   3.167
68273W        W33500  33.043  42.274   1.352
68274W        W33501  23.842   2.085   3.341
68275W        W33502  15.069  16.254   2.196
68276W        W33503  26.181  34.934  12.596
68277W        W33504  40.592  14.548   0.064
68278W        W33505  37.262  38.064  13.050
68279W        W33506   4.829   9.292  13.060
68280W        W33507  28.576  36.341   2.342
68281W        W33508  36.150  28.919  14.807
68282W        W33509  16.602  42.730  12.447
68283W        W33510   6.195  11.063  12.504
68284W        W33511   4.432   6.612  12.115
68285W        W33512   8.305  19.591   2.914
68286W        W33513  20.878  27.780  10.760
68287W        W33514  43.312  34.884  12.048
68288W        W33515   4.169   8.297   1.616
68289W        W33516  10.411  18.067   0.708
68290W        W33517  19.110  33.062   2.262
68291W        W33518  19.588  18.264  11.198
68292W        W33519  20.593  19.051  12.022
68293W        W33520  13.865  31.988  12.468
68294W        W33521   5.394  22.121   1.359
68295W        W33522  23.458  40.041  11.070
68296W        W33523  10.096  44.316  11.018
68297W        W33524  10.572  16.019  14.035
68298W        W33525  30.309  41.021   1.454
68299W        W33526  36.840  19.111  13.005
68300W        W33527  35.334  43.204  13.031
68301W        W33528  27.489   5.162   1.418
68302W        W33529  25.777  20.266  12.810
68303W        W33530  39.879  20.770  14.305
68304W        W33531  18.069  25.762   1.237
68305W        W33532  27.917   6.482  12.604
68306W        W33533   1.289  10.643  13.937
68307W        W33534  42.470  19.678   2.301
68308W        W33535  40.304  41.423   1.987
68309W        W33536  35.406  25.200  11.028
68310W        W33537  37.530  20.212  12.129
68311W        W33538  38.202  33.415  14.443
68312W        W33539  21.317   1.026  11.249
68313W        W33540  36.338  28.709   0.417
68314W        W33541  13.379  10.199  12.868
68315W        W33542  21.772  19.829  11.807
68316W        W33543   8.952  35.928  14.716
68317W        W33544  33.459  41.108   0.682
68318W        W33545  41.738  15.349  10.550
68319W        W33546  10.802   8.676  13.447
68320W        W33547  40.775  18.647  12.852
68321W        W33548  12.825  35.806  14.714
68322W        W33549   2.769  27.628   1.690
68323W        W33550  40.996   3.211   2.947
68324W        W33551  17.695  30.951   2.684
68325W        W33552  23.205  30.564   0.601
68326W        W33553  41.813  20.564   3.136
68327W        W33554  16.784  38.537   3.750
68328W        W33555  10.103   2.270   1.713
68329W        W33556   3.558   8.223  12.670
68330W        W33557  42.421  35.002  12.160
68331W        W33558  36.460  10.880   1.227
68332W        W33559   4.413  42.946   1.872
68333W        W33560  13.260  29.128  10.422
68334W        W33561  40.454  23.528   0.876
68335W        W33562  33.932   0.151  14.634
68336W        W33563  26.557  14.335   1.664
68337W        W33564  22.115  36.585   2.824
68338W        W33565  13.585  23.678   3.366
68339W        W33566  29.694  31.997   0.666
68340W        W33567   7.603  11.625  11.520
68341W        W33568  24.222  30.444   0.249
68342W        W33569  18.857  42.619   2.602
68343W        W33570   9.129  19.976  13.460
68344W        W33571  14.355  18.762  13.055
68345W        W33572  22.982  41.269  12.738
68346W        W33573   6.204  35.327   3.667
68347W        W33574  21.558   0.808  10.190
68348W        W33575  37.604  39.866   4.160
68349W        W33576  35.877  15.267   1.690
68350W        W33577  28.084  27.479   1.539
68351W        W33578  33.436  34.538   4.152
68352W        W33579  22.508  36.754  13.852
68353W        W33580  29.397  28.434  12.482
68354W        W33581  21.186  22.639  13.867
68355W        W33582  35.123  27.187   3.147
68356W        W33583  43.822  11.507  12.826
68357W        W33584  29.952   1.305   1.370
68358W        W33585  26.729  35.448   0.345
68359W        W33586   8.878  12.508  10.586
68360W        W33587  41.204  28.872  12.563
68361W        W33588  20.289  34.381   0.240
68362W        W33589  21.233   7.663   5.044
68363W        W33590  25.682  36.856   4.124
68364W        W33591  34.811  30.022   4.821
68365W        W33592  15.085  10.297   4.124
68366W        W33593  18.241  34.599   2.611
68367W        W33594  43.966  31.627   3.653
68368W        W33595  13.758  37.891   4.387
68369W        W33596  41.479  35.824   2.707
68370W        W33597  31.364  33.502  13.071
68371W        W33598  44.021  10.859  12.337
68372W        W33599   6.982  27.562  13.890
68373W        W33600  38.835  27.569  12.122
68374W        W33601  43.976   3.385   2.664
68375W        W33602  39.505   8.704  10.684
68376W        W33603   1.674  44.741  13.024
68377W        W33604  34.769  41.700   3.777
68378W        W33605  34.189  14.764   0.273
68379W        W33606   4.385  29.103   2.220
68380W        W33607  42.826  19.502  14.539
68381W        W33608  25.633   9.120  10.644
68382W        W33609  11.126  33.993  14.334
68383W        W33610  35.660  41.404  13.473
68384W        W33611   7.247  27.140   0.887
68385W        W33612  39.215  41.795  10.847
68386W        W33613  10.772  14.369   1.802
68387W        W33614  42.836   2.855   4.668
68388W        W33615  17.187  13.351   2.706
68389W        W33616  44.418  12.604  12.086
68390W        W33617  17.004  40.310  14.221
68391W        W33618  36.105   0.275   4.556
68392W        W33619   3.668  41.870   4.456
68393W        W33620  37.329  12.178  12.080
68394W        W33621  22.523  40.109   0.896
68395W        W33622  17.270  12.670  11.792
68396W        W33623   9.388  30.712  14.021
68397W        W33624  27.702   9.728  11.140
68398W        W33625   2.938  43.047  12.570
68399W        W33626  12.835  40.108   3.631
68400W        W33627  12.746  10.120   1.396
68401W        W33628  24.581   8.911   0.224
68402W        W33629  37.777   3.282   1.249
68403W        W33630  38.918  40.795  13.143
68404W        W33631  25.034   7.196  12.775
68405W        W33632  10.222  17.842   0.225
68406W        W33633  42.823  19.824   1.249
68407W        W33634  34.547   8.965   0.298
68408W        W33635  12.124   1.238   4.023
68409W        W33636   5.360  44.039  13.460
68410W        W33637  28.497  35.529   1.749
68411W        W33638  22.663  12.817  14.612
68412W        W33639   7.635   5.985  11.610
68413W        W33640  29.384   3.409  10.767
68414W        W33641  18.091  32.783   1.899
68415W        W33642  13.025  28.030  11.208
68416W        W33643  17.615  27.213   1.192
68417W        W33644  26.981   4.777  14.942
68418W        W33645  35.611  20.578   4.818
68419W        W33646  41.534  33.409   0.796
68420W        W33647  29.261   7.356   0.724
68421W        W33648  26.228  28.569  13.883
68422W        W33649   0.901  23.858   4.536
68423W        W33650  28.225  42.085  11.220
68424W        W33651   7.487  33.419  14.997
68425W        W33652  19.194  24.002   4.152
68426W        W33653  11.808   5.319   3.429
68427W        W33654  42.055   5.200  14.494
68428W        W33655  35.288   3.334  11.195
68429W        W33656  15.342  27.118  10.485
68430W        W33657  31.964  26.724  12.163
68431W        W33658  31.471  20.667   0.544
68432W        W33659   2.813  41.966  11.220
68433W        W33660  19.233  41.299   2.724
68434W        W33661  41.691  26.536   4.993
68435W        W33662  26.871  40.523   2.346
68436W        W33663  21.752  37.168   3.271
68437W        W33664   3.797  16.919  13.912
68438W        W33665  25.329  25.586  14.545
68439W        W33666  17.042  44.188  14.374
68440W        W33667  41.600  32.676  13.103
68441W        W33668  32.981  16.162  13.820
68442W        W33669   4.865  16.912  12.360
68443W        W33670  11.883  22.819   1.641
68444W        W33671  19.740   2.310   0.966
68445W        W33672  11.851  38.015   0.896
68446W        W33673  39.150  10.611   4.345
68447W        W33674   6.970  23.673   0.274
68448W        W33675   3.568  23.046  11.350
68449W        W33676  26.788  36.371   2.205
68450W        W33677  28.041  10.165  12.479
68451W        W33678  43.863  41.587  14.883
68452W        W33679  17.168  42.231   0.275
68453W        W33680  14.025  38.341  12.148
68454W        W33681   8.592  32.348   1.873
68455W        W33682  20.958   8.717   1.800
68456W        W33683  15.187  16.128  12.025
68457W        W33684  38.403  36.267   2.703
68458W        W33685  41.148  22.607  12.469
68459W        W33686  42.621  43.909   0.683
68460W        W33687  18.248  42.422   4.784
68461W        W33688  23.199  20.721   4.155
68462W        W33689  10.430  21.070   2.667
68463W        W33690   5.297  38.308  14.436
68464W        W33691   6.457  10.321  13.385
68465W        W33692  43.472  39.211  12.539
68466W        W33693  12.019  41.541   1.297
68467W        W33694  34.040  26.947  11.107
68468W        W33695   2.855  38.175   1.466
68469W        W33696  13.120  22.863   4.903
68470W        W33697  11.898  36.522  14.301
68471W        W33698  21.413  18.917   4.212
68472W        W33699  41.315  34.388  13.589
68473W        W33700  35.986  12.378  13.580
68474W        W33701  24.713  33.537   0.832
68475W        W33702  15.179  37.973   0.294
68476W        W33703  18.825  23.119   3.633
68477W        W33704  37.611  26.477  14.352
68478W        W33705  17.714  36.902  11.217
68479W        W33706  10.326  35.442  12.879
68480W        W33707  23.351   3.238  14.877
68481W        W33708  37.951  33.964   4.647
68482W        W33709  21.219  15.146   3.797
68483W        W33710  10.950  13.611  11.619
68484W        W33711  41.089   5.033   5.448
68485W        W33712  28.593  22.623   4.653
68486W        W33713   5.086  43.181   9.867
68487W        W33714  26.275  30.242  12.921
68488W        W33715   5.971  27.707   4.684
68489W        W33716  10.284  21.520  11.771
68490W        W33717  37.314  42.235  14.484
68491W        W33718  36.787  32.977   3.794
68492W        W33719  23.735   0.795  14.099
68493W        W33720  21.462   4.238   3.594
68494W        W33721   3.105  42.998  13.490
68495W        W33722  21.721  19.575  13.634
68496W        W33723  29.846  15.215  11.089
68497W        W33724  22.071  18.556   2.850
68498W        W33725  12.815  17.461  12.126
68499W        W33726  37.786  10.350   5.120
68500W        W33727   6.315  24.233  11.767
68501W        W33728  44.461   3.753   3.248
68502W        W33729  35.537   6.525  12.115
68503W        W33730   3.226  39.813  13.998
68504W        W33731  42.206  40.116   3.192
68505W        W33732  15.523   3.166   1.850
68506W        W33733  25.653  12.048   9.734
68507W        W33734  22.244  44.946  13.828
68508W        W33735  24.486  15.354   0.907
68509W        W33736  29.538  19.253  13.918
68510W        W33737  34.111  29.352  13.037
68511W        W33738  35.887  14.678  12.853
68512W        W33739   6.278  40.817  14.266
68513W        W33740  17.995  21.463  10.746
68514W        W33741  33.462  34.863   3.248
68515W        W33742  39.991   8.126   3.308
68516W        W33743   3.836  17.969  13.077
68517W        W33744  34.952  32.588  12.757
68518W        W33745  42.093  44.993  13.758
68519W        W33746   4.895  20.100  10.378
68520W        W33747  29.511  20.813   3.543
68521W        W33748  37.095  21.465  13.832
68522W        W33749   8.657  29.161  11.376
68523W        W33750  15.363  33.521  10.487
68524W        W33751   5.779  14.851   1.919
68525W        W33752  41.755   4.933  12.021
68526W        W33753  30.159  28.937  11.102
68527W        W33754   7.189  35.576  14.962
68528W        W33755  36.631  13.376   0.850
68529W        W33756   1.322  11.263   0.265
68530W        W33757  20.377  28.017  10.756
68531W        W33758  34.877  39.858   2.667
68532W        W33759  19.656   9.805   0.516
68533W        W33760  20.250  11.213  14.867
68534W        W33761  21.340  41.921  11.493
68535W        W33762  30.953  41.232   0.592
68536W        W33763  43.555  38.877   0.340
68537W        W33764  34.061  43.494  14.553
68538W        W33765   0.832   9.086   0.872
68539W        W33766  27.184  41.631  13.775
68540W        W33767  42.236  27.595  11.686
68541W        W33768  18.841  25.731  11.077
68542W        W33769   4.995   7.360  13.571
68543W        W33770  26.683   7.351   4.600
68544W        W33771  40.103   8.352   4.545
68545W        W33772  23.536  42.773   0.257
68546W        W33773   7.209  14.797  14.251
68547W        W33774  33.099  11.470   2.291
68548W        W33775  34.050  25.871   1.751
68549W        W33776  38.365  15.016  11.155
68550W        W33777  22.502  43.228   0.600
68551W        W33778   2.610   0.263  13.394
68552W        W33779  42.087  12.254   4.569
68553W        W33780  33.386  25.106  10.241
68554W        W33781  11.327   8.617  13.897
68555W        W33782  30.619  29.024   0.386
68556W        W33783   1.756  12.675   4.768
68557W        W33784   8.965  33.046  13.470
68558W        W33785  26.469  10.344  14.734
68559W        W33786   7.707  16.058  14.093
68560W        W33787  31.210  42.782  13.003
68561W        W33788  16.212   5.072   1.853
68562W        W33789   1.733  26.534   1.964
68563W        W33790   2.301   6.808  10.708
68564W        W33791  38.336   2.952  13.480
68565W        W33792  28.794  24.138  12.898
68566W        W33793  19.925   1.782  13.444
68567W        W33794  21.004  14.757   3.024
68568W        W33795  32.823  30.648   2.788
68569W        W33796   4.291   0.777   4.260
68570W        W33797  35.566   0.839  13.350
68571W        W33798   8.247   9.353  13.431
68572W        W33799  33.372  32.826   1.336
68573W        W33800  21.645  14.348  11.190
68574W        W33801  12.274  10.934  11.281
68575W        W33802   5.714  24.116  10.903
68576W        W33803  40.280  15.869   0.449
68577W        W33804  41.274  40.896  10.721
68578W        W33805  10.273  34.193  12.549
68579W        W33806  28.577  41.181   3.094
68580W        W33807   9.116  24.370  14.356
68581W        W33808  23.644  11.072   4.647
68582W        W33809  43.380  16.975   3.313
68583W        W33810  42.300  36.966   1.661
68584W        W33811  21.317  32.854  12.949
68585W        W33812  33.532  25.050   3.351
68586W        W33813   3.616  38.328   4.475
68587W        W33814  34.629  38.065   0.351
68588W        W33815  35.796  16.853   4.118
68589W        W33816  20.795  31.948  13.776
68590W        W33817  44.542  10.341  10.251
68591W        W33818  14.131   8.861   0.046
68592W        W33819  27.670  44.501   1.360
68593W        W33820  44.331  42.342   1.979
68594W        W33821  14.004  40.355   1.454
68595W        W33822   0.165   5.275  14.413
68596W        W33823  18.234  18.134  13.072
68597W        W33824  25.545   4.947   3.611
68598W        W33825  24.212  44.385   1.764
68599W        W33826  41.226  23.629  14.797
68600W        W33827  29.060  20.292   3.421
68601W        W33828   9.293   6.370  10.778
68602W        W33829  24.019  25.232  11.083
68603W        W33830   2.393  33.082  13.446
68604W        W33831  39.772   6.174  13.252
68605W        W33832  37.953  16.043   1.280
68606W        W33833   0.027  38.414   2.086
68607W        W33834  39.333  22.257   2.832
68608W        W33835  31.268  30.441  14.696
68609W        W33836  34.143   0.255  14.193
68610W        W33837   2.748  27.520   2.665
68611W        W33838  36.543  25.662   2.351
68612W        W33839  34.630  31.535   3.885
68613W        W33840  14.963  35.915   3.755
68614W        W33841  21.811  15.817  13.441
68615W        W33842  43.039  36.007   0.812
68616W        W33843   5.287  12.558   0.036
68617W        W33844  38.287  27.089  10.970
68618W        W33845  34.032  31.353  13.017
68619W        W33846   6.339  21.585  14.976
68620W        W33847  41.018   5.687  13.856
68621W        W33848  16.291  37.832   4.623
68622W        W33849  21.158  24.662  14.926
68623W        W33850  38.525  35.116  12.145
68624W        W33851  31.023  17.941   5.539
68625W        W33852  27.503  34.644  11.076
68626W        W33853  28.982   5.388  11.224
68627W        W33854  32.143  31.478  13.381
68628W        W33855  17.980   6.133   4.656
68629W        W33856  17.775  33.817  14.504
68630W        W33857   9.249  25.215  11.608
68631W        W33858  31.450  19.083  14.888
68632W        W33859  36.081  22.764   2.843
68633W        W33860  13.857  22.105   4.210
68634W        W33861  29.135  23.536  11.020
68635W        W33862   6.434  36.909   0.200
68636W        W33863   9.865  30.079  10.721
68637W        W33864  17.872  11.753   0.001
68638W        W33865  12.576   6.732   4.604
68639W        W33866   9.720  31.822  14.105
68640W        W33867  32.927  17.893   4.131
68641W        W33868  36.949  32.245   1.220
68642W        W33869  24.188  39.790   3.151
68643W        W33870  40.922  25.354   0.196
68644W        W33871  28.668  39.178   0.414
68645W        W33872  21.684  24.481  13.872
68646W        W33873   6.265  44.452  13.067
68647W        W33874  39.160  16.040  11.813
68648W        W33875   4.414   1.397   2.085
68649W        W33876  27.463  26.122  12.699
68650W        W33877  43.553  33.196  13.074
68651W        W33878  44.359  27.411   0.331
68652W        W33879  15.687  43.813   0.359
68653W        W33880   1.789   8.931  14.362
68654W        W33881   5.400   8.174  14.077
68655W        W33882  29.935  36.550   9.822
68656W        W33883  44.071  44.419   1.286
68657W        W33884  31.392   4.102   1.423
68658W        W33885  22.191  26.833  12.482
68659W        W33886  33.770  10.875  10.395
68660W        W33887  13.036   7.020  12.847
68661W        W33888  38.085  41.037   4.190
68662W        W33889  38.468  22.540   0.830
68663W        W33890  29.418  42.869   1.876
68664W        W33891   4.601  11.761  13.764
68665W        W33892  40.884  38.968   4.720
68666W        W33893  29.970  26.602  14.793
68667W        W33894   9.411  40.548  14.463
68668W        W33895  26.727  24.034  12.013
68669W        W33896  44.791   1.495  13.347
68670W        W33897  37.613  39.827   4.673
68671W        W33898  29.891  11.205   0.286
68672W        W33899  40.555  32.621   2.652
68673W        W33900  28.770  27.018   1.735
68674W        W33901  44.005  11.232  11.564
68675W        W33902  22.166  13.262   0.665
68676W        W33903  32.168  24.549   4.595
68677W        W33904  20.505  32.474  12.920
68678W        W33905  15.245   1.579   1.306
68679W        W33906  14.728  35.914   4.619
68680W        W33907  28.555  21.991  12.671
68681W        W33908  24.688  34.613   2.756
68682W        W33909  33.165   1.348   4.051
68683W        W33910  43.090  32.473   3.100
68684W        W33911  42.322  33.278   3.260
68685W        W33912   2.849   3.757   2.417
68686W        W33913  14.708   1.208   1.715
68687W        W33914  28.178  11.447  12.902
68688W        W33915  43.396  25.113   1.085
68689W        W33916  36.161  41.103  12.562
68690W        W33917  19.564  39.823   0.870
68691W        W33918  27.846  10.237   5.025
68692W        W33919  43.273   4.441   3.118
68693W        W33920  37.866  35.682   3.200
68694W        W33921  16.705  20.473  13.837
68695W        W33922  17.955  20.555  13.369
68696W        W33923   1.671  37.069   3.740
68697W        W33924  29.630  40.289   3.434
68698W        W33925  12.932   0.720   3.057
68699W        W33926   1.855  22.513  11.105
68700W        W33927   8.446  28.748   2.724
68701W        W33928  42.474   6.315  10.343
68702W        W33929   4.867  35.985  13.876
68703W        W33930  40.369  15.178   2.701
68704W        W33931  40.577  39.368  14.840
68705W        W33932   8.238  40.419   4.288
68706W        W33933  28.225  21.579  12.602
68707W        W33934  22.098   8.073   2.175
68708W        W33935  38.432  33.995  13.155
68709W        W33936  41.380  39.122  14.079
68710W        W33937  20.650  39.146  10.570
68711W        W33938  44.918  21.514   2.816
68712W        W33939   1.852  18.951  13.468
68713W        W33940  35.963  23.609   1.333
68714W        W33941  36.025  28.640   3.811
68715W        W33942  39.364  33.701  10.173
68716W        W33943   9.079  24.890  13.821
68717W        W33944  10.213  24.575  12.349
68718W        W33945   2.545  30.591   1.797
68719W        W33946   0.385  10.270  10.382
68720W        W33947  27.943   7.576  14.012
68721W        W33948   3.538  40.461  10.686
68722W        W33949  18.199  21.239  14.076
68723W        W33950  44.079  28.322  13.513
68724W        W33951   3.965  22.555   3.279
68725W        W33952  39.081  38.303   3.774
68726W        W33953  40.407  14.734   3.048
68727W        W33954  14.156  37.841  12.003
68728W        W33955  29.734   4.757  14.399
68729W        W33956  23.976   0.296  10.948
68730W        W33957  16.199  10.681  12.492
68731W        W33958   0.438  32.339  11.052
68732W        W33959  33.929   6.135   0.992
68733W        W33960   9.311  29.624  11.444
68734W        W33961  32.117  39.794   2.149
68735W        W33962  24.720  35.165   3.292
68736W        W33963  10.349  20.504  10.995
68737W        W33964  16.724   4.741   0.568
68738W        W33965  26.650  12.233  10.780
68739W        W33966  20.994  21.111   0.690
68740W        W33967  24.012  10.993  12.974
68741W        W33968  41.551   3.516  13.810
68742W        W33969  15.005  39.303   0.876
68743W        W33970   0.328  16.044  12.036
68744W        W33971  39.389  27.995   1.312
68745W        W33972  15.231  31.912   2.817
68746W        W33973  10.070  35.719   2.316
68747W        W33974  12.815  23.614  11.669
68748W        W33975  17.594  19.333   1.461
68749W        W33976  39.475  37.568  11.403
68750W        W33977  10.084  26.588   3.363
68751W        W33978   7.323  17.332   1.690
68752W        W33979  43.087  15.506  11.140
68753W        W33980   4.248  15.213  10.551
68754W        W33981  42.937  22.171   0.411
68755W        W33982  31.076  24.581  14.842
68756W        W33983  41.036  21.329   1.008
68757W        W33984   2.911  19.139   2.342
68758W        W33985   5.693   9.560  12.587
68759W        W33986  38.065   4.518  11.825
68760W        W33987   1.175  10.684  10.892
68761W        W33988  34.466  23.099   0.138
68762W        W33989  44.385  41.024  14.480
68763W        W33990   8.670  27.359  11.372
68764W        W33991  44.805   2.216   4.645
68765W        W33992  31.210   3.821  13.015
68766W        W33993  35.049  39.786  14.000
68767W        W33994   1.525  16.603  10.964
68768W        W33995  18.071  42.256   0.788
68769W        W33996  13.685  21.635   4.540
68770W        W33997  35.550  28.868  13.614
68771W        W33998   0.378  36.559   0.485
68772W        W33999   6.734  13.287  13.223
68773W        W34000  17.166  39.974   4.692
68774W        W34001  30.120  11.651  12.885
68775W        W34002  24.867  44.571  10.266
68776W        W34003  14.007  16.359   1.476
68777W        W34004  34.518   8.092  11.220
68778W        W34005  38.321  30.953  12.043
68779W        W34006  11.233   4.792   1.895
68780W        W34007  38.190  33.446  11.071
68781W        W34008   4.082   8.954   4.042
68782W        W34009  18.095  14.114   0.768
68783W        W34010  19.503  16.788  13.534
68784W        W34011  15.541  42.985   3.244
68785W        W34012  23.507  40.429  12.967
68786W        W34013  22.465  36.062  14.892
68787W        W34014   7.970  40.529   0.362
68788W        W34015   6.908  24.285  13.856
68789W        W34016  32.435  36.654   0.873
68790W        W34017  22.467   4.265  12.562
68791W        W34018  32.643  42.502  11.937
68792W        W34019  22.987  35.372   0.888
68793W        W34020  25.718  38.468   0.328
68794W        W34021  17.487  16.726   2.758
68795W        W34022  29.073  37.364  13.008
68796W        W34023   8.248  13.136   0.819
68797W        W34024  13.749  12.715   2.676
68798W        W34025  42.726  30.567  14.297
68799W        W34026  44.510  17.265  14.686
68800W        W34027  42.886  10.828  12.946
68801W        W34028  36.886  10.250  14.787
68802W        W34029   4.950  24.851  12.630
68803W        W34030   5.106  30.394  13.401
68804W        W34031  14.559  27.507  14.918
68805W        W34032   0.867  11.640  14.509
68806W        W34033  28.320  30.722  10.198
68807W        W34034  32.810  17.013   1.236
68808W        W34035  38.968   3.846  11.180
68809W        W34036  43.939  11.539   2.862
68810W        W34037  37.050  14.307  11.605
68811W        W34038  25.430  34.970  13.571
68812W        W34039   8.839  13.731   2.650
68813W        W34040  26.533  20.615  13.086
68814W        W34041  32.004   0.307  11.498
68815W        W34042  31.541  22.828  12.485
68816W        W34043   9.612  13.552  11.066
68817W        W34044   1.312   8.864   0.689
68818W        W34045   7.705  14.768  12.060
68819W        W34046  31.022   6.918   0.028
68820W        W34047  36.567  19.275  14.455
68821W        W34048  22.199  14.631   4.256
68822W        W34049   1.485  44.781   0.779
68823W        W34050  37.222  31.660  12.826
68824W        W34051  43.887  41.041   2.197
68825W        W34052  33.557  42.537  14.305
68826W        W34053  27.824  23.397   2.983
68827W        W34054   3.183   8.992  14.432
68828W        W34055   2.921  41.786  10.084
68829W        W34056  31.370  20.850  11.662
68830W        W34057  20.253  34.452   2.845
68831W        W34058  11.811  31.149   0.967
68832W        W34059  16.749   6.845  11.535
68833W        W34060  32.195  16.601  10.227
68834W        W34061  34.098   4.921  14.271
68835W        W34062  16.768   7.706  11.386
68836W        W34063  38.822  30.147  11.689
68837W        W34064  27.974  29.948  13.202
68838W        W34065   8.706  41.781  12.171
68839W        W34066   6.408  38.317   0.249
68840W        W34067   8.634  17.095  14.425
68841W        W34068  20.243   6.423   3.394
68842W        W34069  24.657  24.132  10.798
68843W        W34070   7.307  10.870   2.297
68844W        W34071  32.621   8.236   3.782
68845W        W34072   1.236  30.222   0.084
68846W        W34073  11.755  34.004   1.344
68847W        W34074  31.338   4.380  11.722
68848W        W34075   4.853  10.697  14.216
68849W        W34076  32.474  29.657  12.947
68850W        W34077  13.315   2.164  13.657
68851W        W34078   7.386   5.216   3.253
68852W        W34079  26.052   5.123  14.908
68853W        W34080  30.028  43.781  12.042
68854W        W34081  34.034  13.220   4.530
68855W        W34082  10.495  38.540  13.388
68856W        W34083  33.870  27.629  10.718
68857W        W34084  40.165  33.929  12.078
68858W        W34085   5.385   3.926  11.912
68859W        W34086   2.798  43.917  12.949
68860W        W34087   3.657  32.306  13.860
68861W        W34088  21.138  29.485  14.944
68862W        W34089  37.125  11.853   4.563
68863W        W34090  12.851   5.495  11.088
68864W        W34091  37.426  31.429   1.175
68865W        W34092  40.127  26.891  11.158
68866W        W34093   7.888  29.932   1.527
68867W        W34094   4.006   9.987  10.151
68868W        W34095  12.810  33.150  10.683
68869W        W34096  23.271  19.609  12.948
68870W        W34097  21.737  11.201  11.680
68871W        W34098   6.702  21.060   3.927
68872W        W34099  21.672   9.294  14.763
68873W        W34100   8.624  35.849  14.316
68874W        W34101  39.765  33.984   4.093
68875W        W34102  34.449  33.735  14.817
68876W        W34103  11.084  22.497  11.974
68877W        W34104   3.767  11.258   4.051
68878W        W34105  21.002  20.134  13.160
68879W        W34106   7.096  20.681   4.717
68880W        W34107  43.046   4.150  13.143
68881W        W34108  43.077  27.445   3.814
68882W        W34109  15.665  39.993   0.805
68883W        W34110  37.896  29.015  10.619
68884W        W34111  26.532  16.740  12.906
68885W        W34112  33.426   0.059   0.430
68886W        W34113   4.456  36.948   2.211
68887W        W34114  11.910  21.206  12.085
68888W        W34115  13.205   2.034   5.008
68889W        W34116  33.454   6.621  12.554
68890W        W34117  13.370  41.746   2.793
68891W        W34118  43.821   8.646   4.113
68892W        W34119  35.048  11.772  12.793
68893W        W34120  40.306  35.279   0.883
68894W        W34121  40.477  18.231   0.774
68895W        W34122  41.939   3.014  14.519
68896W        W34123   2.266  15.856  12.088
68897W        W34124   6.263  14.886   1.203
68898W        W34125   5.873  27.425   4.235
68899W        W34126   9.194  35.815   2.170
68900W        W34127  26.094  30.725  10.822
68901W        W34128  34.218  18.601   2.886
68902W        W34129  41.391  31.180  14.025
68903W        W34130  38.492  35.010   1.489
68904W        W34131   2.492   1.309  12.474
68905W        W34132   2.039  15.345  11.100
68906W        W34133  40.259   1.250  11.186
68907W        W34134  24.610   2.735  12.007
68908W        W34135  27.467  29.943   9.786
68909W        W34136  43.492   1.693  10.644
68910W        W34137  33.581   8.332   2.615
68911W        W34138   8.892   6.507   2.379
68912W        W34139  39.827  18.991  12.376
68913W        W34140  15.679   8.777   2.401
68914W        W34141   6.239  18.743   4.243
68915W        W34142  16.798  25.497   1.728
68916W        W34143  18.283   9.251   2.795
68917W        W34144   4.464  25.073  11.341
68918W        W34145   4.045  38.361  12.561
68919W        W34146  15.907   6.333   4.077
68920W        W34147   4.874   6.875  11.433
68921W        W34148  34.378  11.561  12.515
68922W        W34149  18.119   4.762  11.583
68923W        W34150  19.558  30.678  13.072
68924W        W34151   9.338   0.976   3.611
68925W        W34152   7.970  14.513  12.418
68926W        W34153  25.988  10.820   0.399
68927W        W34154  13.544  13.218   2.826
68928W        W34155  23.676  32.122  12.659
68929W        W34156  34.425   5.439   4.696
68930W        W34157  15.741  23.007   0.007
68931W        W34158   8.952  11.362  11.232
68932W        W34159  21.133  42.000   1.010
68933W        W34160   3.645  26.034  13.883
68934W        W34161  33.374  14.756  11.055
68935W        W34162   7.878  42.731  11.913
68936W        W34163  23.302  13.688  12.541
68937W        W34164  27.618  35.926   1.986
68938W        W34165  27.619   6.096  11.209
68939W        W34166  24.153  41.722   3.721
68940W        W34167   0.956  36.565  14.420
68941W        W34168  39.015   8.671   0.970
68942W        W34169  19.456  35.197   2.860
68943W        W34170   3.561  40.305   4.009
68944W        W34171  27.907  11.154  10.317
68945W        W34172  17.748  19.558  14.692
68946W        W34173  29.433  10.181  14.859
68947W        W34174  20.766   1.254   0.786
68948W        W34175  39.749  31.738  14.352
68949W        W34176  25.068   8.877   0.869
68950W        W34177   4.941  29.675  13.716
68951W        W34178  10.784  20.083   3.878
68952W        W34179  31.135   1.777  12.012
68953W        W34180  14.470  12.162  12.076
68954W        W34181  36.824   3.180   0.297
68955W        W34182   2.490  37.464   2.308
68956W        W34183  31.184  34.646  12.459
68957W        W34184   8.155   0.569   1.004
68958W        W34185   6.815   8.786   2.275
68959W        W34186  11.864  10.628   1.224
68960W        W34187  43.804  11.813  10.850
68961W        W34188  11.547  27.493  13.884
68962W        W34189  39.407  28.525  10.737
68963W        W34190  26.722   5.813   2.215
68964W        W34191   6.847  17.539   1.856
68965W        W34192  42.681  32.694   0.351
68966W        W34193  28.401  11.727   4.062
68967W        W34194  18.891  41.988  11.234
68968W        W34195  26.745  18.216   1.036
68969W        W34196  27.346  14.832   0.549
68970W        W34197  12.798  23.650  13.605
68971W        W34198  26.289  20.598   0.433
68972W        W34199  38.437  40.466  11.230
68973W        W34200  26.666   2.267   3.433
68974W        W34201  35.035  11.595   2.853
68975W        W34202   1.099  26.736   4.461
68976W        W34203  36.033   2.863   3.404
68977W        W34204  37.434  12.300  11.206
68978W        W34205  38.513  39.548   0.392
68979W        W34206  34.115  23.072   2.191
68980W        W34207  30.644  32.128   3.658
68981W        W34208  15.521  41.249   2.728
68982W        W34209  36.773  25.201   0.793
68983W        W34210  24.636   9.900   1.398
68984W        W34211  18.729  32.070   3.289
68985W        W34212  28.155  14.242  10.193
68986W        W34213  28.796  37.048  10.110
68987W        W34214   5.368  15.743   1.376
68988W        W34215   6.849  37.132   0.026
68989W        W34216  38.402  33.339   4.093
68990W        W34217  44.533  27.509  12.318
68991W        W34218  26.264  30.529   4.576
68992W        W34219  14.138  33.383  13.010
68993W        W34220  27.116  35.450   3.133
68994W        W34221  27.898  15.418   3.570
68995W        W34222   8.050  11.682  11.172
68996W        W34223  36.102  39.176   2.856
68997W        W34224  14.094  44.440   0.941
68998W        W34225  23.691  22.597   0.105
68999W        W34226  42.466  21.327  12.139
69000W        W34227  19.229  14.520  12.591
69001W        W34228  29.357  28.531  11.195
69002W        W34229   7.496  29.633  14.815
69003W        W34230  10.550  34.303  11.626
69004W        W34231  28.883   2.503   2.381
69005W        W34232  34.517  16.157   0.950
69006W        W34233  13.784  37.446  13.962
69007W        W34234  32.396  14.353  11.785
69008W        W34235  38.720  41.324  11.723
69009W        W34236  33.350  32.963   0.335
69010W        W34237  38.444  41.742  11.598
69011W        W34238  32.095  22.555  13.626
69012W        W34239   5.552  44.460   2.627
69013W        W34240  38.909  38.598  10.033
69014W        W34241  20.072  37.527   2.341
69015W        W34242  19.196  44.918   4.493
69016W        W34243  13.155  28.357   1.112
69017W        W34244  43.905  42.390   3.294
69018W        W34245  29.398  40.571   5.234
69019W        W34246  29.667   0.242  10.773
69020W        W34247  35.478  14.176   5.151
69021W        W34248  10.790  12.653   2.867
69022W        W34249  43.406  34.327  12.518
69023W        W34250   0.033  24.739   3.235
69024W        W34251  31.000  15.413  13.410
69025W        W34252  22.231  36.388  10.748
69026W        W34253  14.921  15.975   1.283
69027W        W34254   7.596  30.599   2.721
69028W        W34255   5.613  31.241   1.901
69029W        W34256   2.413  23.144  11.449
69030W        W34257   5.797   3.769   3.640
69031W        W34258   5.737  39.011   3.865
69032W        W34259   7.124  40.077  11.593
69033W        W34260  43.100   7.258   0.008
69034W        W34261  31.866  10.170  14.826
69035W        W34262  17.859  41.860  14.853
69036W        W34263  12.832   2.480   2.494
69037W        W34264  29.924  24.790   4.593
69038W        W34265  33.902  43.450  10.613
69039W        W34266  18.552  41.358   1.370
69040W        W34267  10.704   0.141  14.318
69041W        W34268  21.990   8.776   2.659
69042W        W34269  37.539  16.509  12.935
69043W        W34270   3.515   6.217   0.783
69044W        W34271  19.292  12.205   1.981
69045W        W34272   4.302  16.053  14.058
69046W        W34273   0.372  39.817  14.756
69047W        W34274  10.292  21.475   2.373
69048W        W34275  39.922  38.790  11.078
69049W        W34276  24.190   8.158   3.596
69050W        W34277  26.069  19.435  13.037
69051W        W34278   6.844  27.184  12.557
69052W        W34279  17.950  24.021  14.220
69053W        W34280  15.829  43.313  12.431
69054W        W34281  12.361   8.223   1.923
69055W        W34282  34.016  17.358   3.066
69056W        W34283  31.042  20.009  14.866
69057W        W34284  36.852  38.411   3.099
69058W        W34285   2.767   9.756  14.001
69059W        W34286  32.069  40.781  13.176
69060W        W34287  27.967  20.545  12.894
69061W        W34288  39.497  31.438   1.350
69062W        W34289  13.756  27.429  13.871
69063W        W34290  21.435   4.737  13.829
69064W        W34291  30.933  29.150  10.638
69065W        W34292   5.495  43.039   3.209
69066W        W34293  43.890  25.724  13.036
69067W        W34294  10.014  29.040   0.565
69068W        W34295   8.834  20.961   5.081
69069W        W34296  39.522   6.883   5.008
69070W        W34297  35.622  31.646   0.930
69071W        W34298   8.917  20.231   1.356
69072W        W34299   1.431  22.689   4.540
69073W        W34300  20.648  20.043   4.037
69074W        W34301  25.724  27.517   4.595
69075W        W34302  15.518  33.536   0.629
69076W        W34303   7.151  40.596   0.651
69077W        W34304  12.351  13.366  11.173
69078W        W34305  22.643  38.465   0.460
69079W        W34306  24.805   2.704  13.013
69080W        W34307  13.466   1.781   3.329
69081W        W34308  31.629   8.580  14.727
69082W        W34309  23.518   5.500  11.642
69083W        W34310  36.669  10.867   3.229
69084W        W34311  16.427  33.695  14.507
69085W        W34312  10.228  37.873  10.765
69086W        W34313  15.580  14.797   3.619
69087W        W34314  29.588  42.022  10.729
69088W        W34315   7.916  28.700  12.211
69089W        W34316  11.232  43.777   2.160
69090W        W34317  35.054  35.425   1.011
69091W        W34318  22.572  19.305  11.627
69092W        W34319  28.030  23.688  12.461
69093W        W34320  15.146  30.670   3.762
69094W        W34321  37.116  33.373  11.379
69095W        W34322  11.277  15.121  14.736
69096W        W34323  34.290  24.178  13.507
69097W        W34324  12.903  35.606  14.237
69098W        W34325  15.344   1.300   0.785
69099W        W34326  31.866  21.288   4.426
69100W        W34327  42.048  23.229  11.280
69101W        W34328  34.989  35.507   4.196
69102W        W34329  30.147  11.323   5.557
69103W        W34330  12.931   2.270   0.544
69104W        W34331  28.675   1.223  10.489
69105W        W34332   4.208  29.983  14.773
69106W        W34333   5.385  20.462  12.435
69107W        W34334  38.608  44.862   1.679
69108W        W34335  38.814  35.896   4.048
69109W        W34336  19.101  41.933   0.368
69110W        W34337  21.693  34.842  13.404
69111W        W34338  19.174  34.864  11.537
69112W        W34339  10.702   9.852  11.564
69113W        W34340  19.081   2.884   1.028
69114W        W34341   2.969  21.556  12.024
69115W        W34342  25.667  26.666   3.547
69116W        W34343  43.359  22.054  12.949
69117W        W34344   8.361  30.950  14.767
69118W        W34345  23.736  30.030   1.783
69119W        W34346  34.108  36.595  10.634
69120W        W34347  34.247  29.147   0.835
69121W        W34348  23.059  42.057   2.633
69122W        W34349  10.047   1.685  13.499
69123W        W34350  40.343  18.793   3.080
69124W        W34351  21.916  30.428  13.542
69125W        W34352  44.744  13.582   3.999
69126W        W34353   4.232   5.665  13.731
69127W        W34354  28.531  20.602  14.565
69128W        W34355  41.347  36.405   4.553
69129W        W34356  32.371  37.589  10.870
69130W        W34357  32.558  34.306  11.738
69131W        W34358   0.594  16.596  11.992
69132W        W34359  37.810  28.115  13.797
69133W        W34360  37.466  20.454  13.123
69134W        W34361  43.443  40.288   3.014
69135W        W34362   4.629   1.777  13.975
69136W        W34363  24.108   3.074  10.684
69137W        W34364  30.729  44.560  13.527
69138W        W34365  24.173  20.757  13.576
69139W        W34366  36.619  41.289   3.272
69140W        W34367  21.662  32.142   3.448
69141W        W34368   9.405  16.370   2.267
69142W        W34369  29.516  13.687  14.706
69143W        W34370  12.812   4.183  11.420
69144W        W34371  20.730   3.857   3.732
69145W        W34372  34.436  37.881   3.199
69146W        W34373  16.528  17.046   1.316
69147W        W34374  38.597  21.499   1.679
69148W        W34375  41.023  18.848  13.267
69149W        W34376  42.909  22.639  11.549
69150W        W34377  19.616  19.559   2.816
69151W        W34378  25.900  44.533  12.109
69152W        W34379  14.395  37.931   1.251
69153W        W34380   6.833  17.620  14.359
69154W        W34381  41.405  35.870   3.899
69155W        W34382  11.391  14.653  12.395
69156W        W34383  13.631   6.179   3.680
69157W        W34384  34.480  40.020   2.347
69158W        W34385   1.383  13.530  11.652
69159W        W34386  41.940  24.012  14.228
69160W        W34387  12.725  29.411  14.862
69161W        W34388  27.889  14.646  12.355
69162W        W34389  41.945  11.263   0.907
69163W        W34390  19.517  19.070  10.449
69164W        W34391  21.632  43.521  14.799
69165W        W34392  15.761   7.815  14.985
69166W        W34393  29.940  39.427   1.726
69167W        W34394  33.041  12.632  11.221
69168W        W34395  38.156  11.898   4.546
69169W        W34396  43.696  42.741   1.692
69170W        W34397  17.333  32.777   2.364
69171W        W34398   0.757   1.289   3.223
69172W        W34399   8.754  27.767   1.264
69173W        W34400  19.057  20.975  12.025
69174W        W34401  25.493  22.676  10.929
69175W        W34402  24.246  41.689  12.797
69176W        W34403  28.519  33.913   1.752
69177W        W34404  17.324   8.794   4.654
69178W        W34405  14.582  23.105  14.121
69179W        W34406   0.708   2.232  11.943
69180W        W34407  39.029  38.030  13.557
69181W        W34408  14.829  32.720  10.284
69182W        W34409   4.457   1.959  14.426
69183W        W34410  43.370  34.851  12.550
69184W        W34411  10.837   0.895  10.588
69185W        W34412  43.762  42.021  14.634
69186W        W34413  17.686  39.909  13.108
69187W        W34414   6.699   7.390  14.815
69188W        W34415  15.606  40.212  11.199
69189W        W34416   1.637   9.388  12.543
69190W        W34417  24.782  35.867   4.513
69191W        W34418  32.535  27.207  14.769
69192W        W34419  43.886  24.980  10.779
69193W        W34420   8.869  44.351   5.023
69194W        W34421  43.414  41.824  13.973
69195W        W34422   1.217  15.858   4.156
69196W        W34423  28.056  33.854   2.705
69197W        W34424  32.092  27.686   0.320
69198W        W34425  30.520  35.006   2.304
69199W        W34426  40.582  43.952  13.792
69200W        W34427  14.790  31.700  12.573
69201W        W34428  38.606   4.189  14.883
69202W        W34429   6.335  32.632  13.428
69203W        W34430  26.670   6.914  11.614
69204W        W34431  39.329  13.131   1.967
69205W        W34432  21.854  16.073   4.212
69206W        W34433  12.685  21.325  13.759
69207W        W34434  31.605  35.196  13.984
69208W        W34435   1.476   4.167  12.950
69209W        W34436  23.241  26.912   2.446
69210W        W34437  38.998  21.719   0.823
69211W        W34438  15.295   7.474   2.211
69212W        W34439   9.253   2.359  11.107
69213W        W34440   1.300   2.857  14.440
69214W        W34441  24.461  28.061  13.976
69215W        W34442  19.349  22.257   5.057
69216W        W34443   1.789   7.173   0.550
69217W        W34444  15.600  26.137   1.755
69218W        W34445  40.338  44.074  11.561
69219W        W34446  42.997  28.418  14.474
69220W        W34447  38.359   7.493  12.789
69221W        W34448  16.063   4.344  12.100
69222W        W34449  24.408   5.284   4.054
69223W        W34450  41.902  10.574  12.161
69224W        W34451  18.640  28.137  14.846
69225W        W34452  35.813  26.602   3.222
69226W        W34453  22.113  34.633  14.732
69227W        W34454  32.160   9.003   0.976
69228W        W34455  29.811  36.719   5.406
69229W        W34456  31.844   8.256   4.307
69230W        W34457  38.152  27.540  11.493
69231W        W34458  21.117  20.752  11.703
69232W        W34459  44.723   3.808  14.039
69233W        W34460  33.885   0.956  14.152
69234W        W34461  37.513  17.363   0.549
69235W        W34462  25.870  38.376   3.727
69236W        W34463  11.220  28.934  10.952
69237W        W34464  17.484  27.076  13.601
69238W        W34465   9.734  15.797   3.073
69239W        W34466  38.614  43.134  12.925
69240W        W34467  13.151  24.641   3.152
69241W        W34468   1.450   9.266   2.221
69242W        W34469  21.722  20.084   5.025
69243W        W34470  32.815  21.548   4.202
69244W        W34471  15.039  36.304   0.112
69245W        W34472  36.183  34.581   1.108
69246W        W34473   9.634   8.229  13.565
69247W        W34474  35.406  13.540   4.599
69248W        W34475  36.391  15.101  11.671
69249W        W34476  12.304  22.103  12.134
69250W        W34477  23.468  34.379  12.897
69251W        W34478  26.547  11.264   2.284
69252W        W34479   8.644  14.061  14.744
69253W        W34480  12.899  19.177   1.599
69254W        W34481  33.837  35.078  12.575
69255W        W34482  42.463  36.120  14.518
69256W        W34483  31.907   8.708  14.316
69257W        W34484  29.740  17.833  13.000
69258W        W34485   5.464  42.472  14.929
69259W        W34486  35.409  31.055   1.185
69260W        W34487  42.228   5.710   0.375
69261W        W34488   9.126   6.190  11.247
69262W        W34489  23.869  26.081  11.347
69263W        W34490  33.081   0.459   4.148
69264W        W34491  20.220  38.372   2.856
69265W        W34492  31.644  19.683   1.713
69266W        W34493  25.788  37.884  10.438
69267W        W34494  33.535   4.250   4.993
69268W        W34495  36.816  39.945   0.395
69269W        W34496  19.151  35.064  14.840
69270W        W34497  26.493   5.778  13.060
69271W        W34498   4.150  13.706   4.936
69272W        W34499  39.447  19.264  11.189
69273W        W34500   6.599   7.196  12.999
69274W        W34501   9.160  42.543  13.509
69275W        W34502   8.818  33.981   4.050
69276W        W34503  29.418   7.148  10.268
69277W        W34504  41.074  19.584   4.408
69278W        W34505  37.894  15.720  12.036
69279W        W34506   2.780  42.767  14.814
69280W        W34507  12.236  10.935  12.003
69281W        W34508   1.740  11.999   3.412
69282W        W34509   3.690  16.591   2.737
69283W        W34510  22.138  14.561  11.726
69284W        W34511   2.243  32.785  13.036
69285W        W34512   3.209  37.028   3.719
69286W        W34513  37.452  26.611   0.694
69287W        W34514   4.351  13.046   0.802
69288W        W34515  12.051  41.776   4.695
69289W        W34516  20.791  26.513  11.857
69290W        W34517  17.274   7.380   3.706
69291W        W34518   5.701  21.464   3.348
69292W        W34519  31.389  40.403  14.614
69293W        W34520  17.283  16.993   4.650
69294W        W34521  25.245   4.910  14.462
69295W        W34522  16.602   4.840  10.583
69296W        W34523  39.356  20.141   3.617
69297W        W34524  36.247  29.838  14.762
69298W        W34525  25.020  18.552   4.678
69299W        W34526   9.643  43.461  11.104
69300W        W34527   5.162  33.845   1.056
69301W        W34528  37.639  11.849   4.566
69302W        W34529   2.797  40.398  11.446
69303W        W34530  30.061   2.754  13.577
69304W        W34531  18.221  42.288   4.276
69305W        W34532  28.628  26.298  11.983
69306W        W34533   2.212  38.767  13.968
69307W        W34534  21.155  23.407   4.306
69308W        W34535  38.232  44.243   2.897
69309W        W34536   3.133  17.058  12.129
69310W        W34537  38.847   3.769   9.839
69311W        W34538  33.017  14.108  10.208
69312W        W34539  33.398  20.745  11.578
69313W        W34540  43.048  19.050  14.360
69314W        W34541  38.340   1.819  14.650
69315W        W34542  33.151  13.716   9.891
69316W        W34543   3.741  40.456  14.251
69317W        W34544  34.162   5.148   1.296
69318W        W34545  10.164  28.530   2.290
69319W        W34546  11.805  40.868   0.978
69320W        W34547  12.780   1.829   0.209
69321W        W34548  17.703  19.756   2.690
69322W        W34549  18.595  22.951   4.061
69323W        W34550   0.202   8.655   3.757
69324W        W34551   2.341  10.256  10.408
69325W        W34552  42.587   3.494   2.491
69326W        W34553  35.605  25.469   4.552
69327W        W34554  38.596  10.444  11.125
69328W        W34555  27.953  35.097   3.251
69329W        W34556  33.170  19.332   0.547
69330W        W34557   7.278  42.406   4.120
69331W        W34558   6.288  36.394  13.446
69332W        W34559  13.507  12.771  11.204
69333W        W34560   0.502  44.971   3.335
69334W        W34561   6.246  39.843  13.867
69335W        W34562  42.539  37.493  12.911
69336W        W34563  14.886  24.811   1.950
69337W        W34564  35.059  20.875   2.314
69338W        W34565  34.531  37.855   0.836
69339W        W34566  33.208  44.351  13.383
69340W        W34567   1.440  42.832   0.658
69341W        W34568  39.317   1.068   1.603
69342W        W34569  25.053  25.849  11.828
69343W        W34570  20.580  15.690   2.850
69344W        W34571  42.497  27.451   2.096
69345W        W34572  28.483  31.536   3.994
69346W        W34573  12.243  23.820   4.843
69347W        W34574   9.091  12.463   5.031
69348W        W34575  38.556  44.477  14.331
69349W        W34576  10.155  30.771  13.428
69350W        W34577  39.518   7.913   1.799
69351W        W34578  18.578  22.071   0.329
69352W        W34579  42.790  18.859  11.800
69353W        W34580  13.141   4.691   3.291
69354W        W34581  43.769  42.841  10.070
69355W        W34582  35.389   4.117  12.831
69356W        W34583  37.392  34.244   1.912
69357W        W34584  35.864  25.629   2.866
69358W        W34585  40.377  17.338   2.415
69359W        W34586  27.722  16.339  12.614
69360W        W34587  20.138   4.857  11.729
69361W        W34588  21.573  26.383  11.482
69362W        W34589  20.655   1.076   4.558
69363W        W34590  32.711  35.851  11.019
69364W        W34591  22.232  24.075   4.085
69365W        W34592  29.636  34.314   3.440
69366W        W34593  43.889  26.937   0.969
69367W        W34594  36.981  15.073   2.986
69368W        W34595  29.470  28.510   2.209
69369W        W34596   1.933   9.391   0.363
69370W        W34597  26.043  41.312   3.627
69371W        W34598  11.747  28.064   2.163
69372W        W34599  13.578  26.179   1.966
69373W        W34600  23.754  29.957   3.170
69374W        W34601  10.238   4.268   1.233
69375W        W34602  37.935  33.920  11.152
69376W        W34603  12.521  37.909  14.006
69377W        W34604  15.656  17.421  14.383
69378W        W34605   4.888  13.816  13.509
69379W        W34606  41.813  29.031   1.728
69380W        W34607  15.886  24.465   0.874
69381W        W34608  35.957   7.864  10.481
69382W        W34609  18.065  26.096   0.330
69383W        W34610   8.824   3.496   3.251
69384W        W34611  16.698  24.585  13.011
69385W        W34612   3.277   8.455  13.986
69386W        W34613  18.616  20.459  11.557
69387W        W34614  26.671  13.081  14.867
69388W        W34615   6.922  34.589  13.885
69389W        W34616   9.301  32.474   3.302
69390W        W34617  22.597   8.551  12.174
69391W        W34618   2.848  15.102   2.722
69392W        W34619  26.400  22.064  12.591
69393W        W34620  31.311   7.575  14.741
69394W        W34621   9.880  34.112  12.881
69395W        W34622  18.683  35.426   2.971
69396W        W34623  21.816  10.143   2.391
69397W        W34624   6.839  18.050   1.813
69398W        W34625  40.319   6.868  12.418
69399W        W34626  15.719  32.053   2.193
69400W        W34627  16.215  40.932   3.325
69401W        W34628  37.721   5.176  11.139
69402W        W34629   8.847  26.533  11.780
69403W        W34630   5.584  42.790  11.399
69404W        W34631  34.996  26.708  10.109
69405W        W34632  19.777  31.138  12.871
69406W        W34633   7.791  11.632   0.928
69407W        W34634  14.075  14.979  14.295
69408W        W34635  41.081  19.496  11.561
69409W        W34636  18.170   4.412   0.208
69410W        W34637  27.689  28.869  10.659
69411W        W34638  41.751  32.328   1.676
69412W        W34639  17.461  28.798   1.072
69413W        W34640  44.968  28.952  14.225
69414W        W34641  15.980  36.569   2.199
69415W        W34642  42.243  43.215   1.995
69416W        W34643   9.790   2.223   4.710
69417W        W34644  21.782  32.400   0.406
69418W        W34645   1.832  25.859   4.921
69419W        W34646  13.484   1.551  11.955
69420W        W34647  38.780  23.107   0.027
69421W        W34648  40.385  28.161  13.086
69422W        W34649  27.327   4.463  14.343
69423W        W34650   2.704  31.705   9.858
69424W        W34651  24.919  35.519  12.573
69425W        W34652  20.243  35.633  11.751
69426W        W34653  10.760  34.501  10.687
69427W        W34654  27.119  38.844  14.371
69428W        W34655  24.108  39.500  13.528
69429W        W34656  14.808  28.049   1.719
69430W        W34657  39.992  36.564   0.030
69431W        W34658  33.160  42.949   3.185
69432W        W34659  42.764  17.898  14.879
69433W        W34660   2.682  31.171   4.144
69434W        W34661   2.153  37.506  12.631
69435W        W34662  11.736  25.716  11.030
69436W        W34663  29.809   5.541  13.549
69437W        W34664   4.175  21.950   2.337
69438W        W34665   7.810  41.556   0.333
69439W        W34666  30.150  27.032   0.076
69440W        W34667  10.732   8.184   0.226
69441W        W34668  44.378   6.251   0.418
69442W        W34669  18.213  24.515  13.424
69443W        W34670  41.124  28.141   2.686
69444W        W34671  20.034   6.193   4.923
69445W        W34672  30.983  39.905   4.585
69446W        W34673   7.181  15.330  14.192
69447W        W34674  19.504  44.377  11.919
69448W        W34675  22.358   0.178  12.056
69449W        W34676  39.080  26.399   0.416
69450W        W34677  25.684  34.029   3.269
69451W        W34678  17.775  40.624   2.828
69452W        W34679  13.337  13.811  11.537
69453W        W34680  36.490   0.445   2.616
69454W        W34681  44.358  22.749  12.460
69455W        W34682  30.268  41.481   1.199
69456W        W34683   6.468   1.437   2.283
69457W        W34684   4.526  36.482  12.101
69458W        W34685  32.743  44.272   4.132
69459W        W34686   8.785  36.521  14.924
69460W        W34687  19.578  11.202   2.918
69461W        W34688  43.869  31.395  11.648
69462W        W34689   3.617  24.710   4.310
69463W        W34690   2.929   8.882  13.961
69464W        W34691   9.782  34.041   4.094
69465W        W34692  35.800   9.628  11.111
69466W        W34693  39.022  32.540  13.012
69467W        W34694  18.098   5.062  14.427
69468W        W34695  44.039  41.899   3.320
69469W        W34696  26.306  14.637  14.394
69470W        W34697  10.685  19.785  11.687
69471W        W34698  19.079   6.844  13.014
69472W        W34699  30.053  42.087  12.037
69473W        W34700   3.511  26.108   4.997
69474W        W34701  36.318   9.366   4.589
69475W        W34702  19.278  36.773   3.710
69476W        W34703  14.543  30.763   4.920
69477W        W34704  42.807   7.606   4.645
69478W        W34705  15.071  18.288  11.195
69479W        W34706   3.402  16.092  14.030
69480W        W34707   5.701  33.729   3.795
69481W        W34708  43.777   3.741  14.489
69482W        W34709  14.375  14.170  13.854
69483W        W34710  22.685  30.155  13.378
69484W        W34711   8.404  42.415   1.962
69485W        W34712  35.900   5.969  11.476
69486W        W34713  16.692  40.041  13.063
69487W        W34714  37.827  38.775  12.752
69488W        W34715  19.442   0.564   2.330
69489W        W34716  23.543  41.282   2.628
69490W        W34717   0.373   2.182  14.925
69491W        W34718   7.026  44.305   1.990
69492W        W34719  24.457  37.436   4.206
69493W        W34720  35.523  44.469   2.670
69494W        W34721   5.244  23.182   2.476
69495W        W34722  34.618  33.150  12.989
69496W        W34723  27.913  41.113  13.924
69497W        W34724   0.852  13.148  12.792
69498W        W34725  38.074  40.607  13.892
69499W        W34726  37.051  35.296   0.983
69500W        W34727  24.224  16.783  11.186
69501W        W34728  30.702  39.723   4.180
69502W        W34729  37.961  11.793   2.246
69503W        W34730  17.753   0.946  11.962
69504W        W34731  24.075  39.342   1.285
69505W        W34732  36.995   9.466  13.562
69506W        W34733  41.058  15.302   0.382
69507W        W34734   7.375  36.025   1.764
69508W        W34735  44.065  31.475   2.615
69509W        W34736  17.887  42.733  14.781
69510W        W34737   2.742  13.757  12.431
69511W        W34738  35.810  24.063  10.576
69512W        W34739  29.481  39.322   1.491
69513W        W34740  15.675  43.040  11.624
69514W        W34741  42.911  35.142   0.984
69515W        W34742   8.729  18.206  11.781
69516W        W34743   9.697  37.431  11.532
69517W        W34744  19.827   7.112  10.563
69518W        W34745  40.795  30.333   2.733
69519W        W34746  37.350   1.419  13.837
69520W        W34747   0.790  15.523  10.979
69521W        W34748  34.479  29.353  12.087
69522W        W34749  44.134  26.178  13.134
69523W        W34750  41.698   2.888  13.007
69524W        W34751  31.235  39.612  11.293
69525W        W34752   8.298  22.408  11.377
69526W        W34753  40.095  44.389  13.398
69527W        W34754  21.115   0.878  10.820
69528W        W34755  24.146   6.999   2.345
69529W        W34756   8.650   3.324  11.392
69530W        W34757  34.148  16.557   2.205
69531W        W34758   1.625   5.402   0.411
69532W        W34759  41.817   8.483   2.188
69533W        W34760   0.012  23.095   0.722
69534W        W34761  34.823  25.533   0.507
69535W        W34762  28.027  30.621   1.800
69536W        W34763  32.657  25.256  13.381
69537W        W34764  41.497  23.495  14.372
69538W        W34765  23.038  11.034  11.320
69539W        W34766  22.355   8.727  11.225
69540W        W34767   9.443  43.317  11.582
69541W        W34768  35.658   3.021  11.484
69542W        W34769  35.031  16.503   2.169
69543W        W34770  20.757  35.544  14.498
69544W        W34771   1.003  11.876   1.843
69545W        W34772   1.993  23.099   3.920
69546W        W34773   8.143  35.992   4.888
69547W        W34774  17.186  38.306  13.730
69548W        W34775  13.219  34.959   2.195
69549W        W34776  34.525  28.787   4.126
69550W        W34777  32.013   3.892  10.733
69551W        W34778  10.966   4.461  13.160
69552W        W34779  33.520  42.359   1.127
69553W        W34780  34.829  13.563  12.061
69554W        W34781  13.335  16.623   3.878
69555W        W34782   2.426  24.411   2.285
69556W        W34783  32.313  21.419   4.234
69557W        W34784  21.470  21.645   1.370
69558W        W34785  11.195  29.163  14.505
69559W        W34786  39.703  33.915  12.308
69560W        W34787  26.752   1.181  11.394
69561W        W34788  36.562  40.329  13.335
69562W        W34789  25.974  37.517  14.416
69563W        W34790  23.567  32.168  11.412
69564W        W34791  41.263  28.234  11.558
69565W        W34792  42.048  27.955   0.329
69566W        W34793  10.396  11.923  11.118
69567W        W34794   0.070   5.878   4.181
69568W        W34795  16.652  16.548   1.371
69569W        W34796   3.025  38.070   2.457
69570W        W34797  33.128  32.418  10.452
69571W        W34798   5.082  39.578  14.862
69572W        W34799   8.976  30.917   0.323
69573W        W34800   5.848  28.543  10.652
69574W        W34801  43.443  36.811   3.767
69575W        W34802  39.810  22.721  12.654
69576W        W34803   6.222  24.707   3.701
69577W        W34804   9.184  13.497   1.928
69578W        W34805  43.499  36.846   1.517
69579W        W34806  24.729   5.663   1.397
69580W        W34807  12.392  26.994  11.954
69581W        W34808  34.493   7.182  12.475
69582W        W34809  34.585  25.337  11.707
69583W        W34810  43.220  35.497   2.372
69584W        W34811  36.895  17.502  12.542
69585W        W34812  35.602  44.592   2.136
69586W        W34813   8.367   3.181   0.492
69587W        W34814  34.455  26.035  10.453
69588W        W34815   5.934   5.900   0.565
69589W        W34816  44.144  14.175   0.201
69590W        W34817  16.463  30.447   2.744
69591W        W34818  42.963  26.479   0.788
69592W        W34819  39.502  38.373   4.223
69593W        W34820  28.107   4.066   3.166
69594W        W34821  30.413   3.348  11.683
69595W        W34822  11.032  11.509  13.852
69596W        W34823  23.359  14.807  11.499
69597W        W34824  18.494  44.461  10.941
69598W        W34825  13.689  21.058  12.920
69599W        W34826  14.401  31.874  11.586
69600W        W34827  29.448  11.445  12.556
69601W        W34828  17.050  27.968   4.660
69602W        W34829  12.918  20.293  12.865
69603W        W34830  42.197  27.942   4.684
69604W        W34831  31.780   2.174  12.627
69605W        W34832   5.801  23.829  13.451
69606W        W34833  18.242  19.493   3.216
69607W        W34834  41.455  42.915  14.047
69608W        W34835   1.463  28.419  14.428
69609W        W34836  22.708  39.889  10.757
69610W        W34837  10.149  41.288  12.577
69611W        W34838   0.245   4.781  14.542
69612W        W34839  44.206  17.081   0.067
69613W        W34840  32.383   7.651   4.355
69614W        W34841  12.083  18.728   3.263
69615W        W34842  38.371  13.939   1.376
69616W        W34843  44.882   4.991   2.837
69617W        W34844  17.566  10.725   0.721
69618W        W34845  20.087  35.818   3.294
69619W        W34846  36.648  33.403   4.664
69620W        W34847  30.349  10.974  10.151
69621W        W34848  22.153  39.119   3.588
69622W        W34849  30.356  37.902  13.005
69623W        W34850  12.289  25.241   0.888
69624W        W34851  35.542  24.803   2.272
69625W        W34852  33.202  13.216  10.037
69626W        W34853  24.111  43.858   9.730
69627W        W34854  35.035  36.543  11.033
69628W        W34855  35.891  15.189   1.178
69629W        W34856  44.132  27.570   3.644
69630W        W34857  12.380  32.618  14.006
69631W        W34858  18.026   2.142  14.858
69632W        W34859  19.592  14.111   3.674
69633W        W34860   7.741  24.221   1.454
69634W        W34861   8.755   3.230   1.733
69635W        W34862  43.836  31.903  11.607
69636W        W34863  28.107  27.218   3.154
69637W        W34864  44.920  15.068   0.761
69638W        W34865  15.766   1.926   3.274
69639W        W34866   3.306  30.004  14.300
69640W        W34867  31.546  14.387   1.024
69641W        W34868   0.703  44.889   4.445
69642W        W34869  15.199  25.667  14.774
69643W        W34870  11.786  41.729  13.195
69644W        W34871  12.426   1.865  11.181
69645W        W34872  36.194   1.976   2.233
69646W        W34873  22.049  26.029  13.327
69647W        W34874  27.964  44.058  13.888
69648W        W34875  39.685   3.821   1.332
69649W        W34876   9.718  23.973   3.085
69650W        W34877   3.452  28.233   4.027
69651W        W34878   7.063  13.352   3.479
69652W        W34879  38.471  40.045   0.309
69653W        W34880  29.651   8.303   4.192
69654W        W34881   8.398  31.586  11.436
69655W        W34882   6.427  30.204   1.369
69656W        W34883  31.892  34.493   3.803
69657W        W34884  25.984  30.539   1.277
69658W        W34885  18.000   1.207  11.118
69659W        W34886  36.402  25.400   2.850
69660W        W34887  41.382   9.025   2.724
69661W        W34888  42.656  35.910   4.223
69662W        W34889   2.801  30.274   5.546
69663W        W34890   5.001  30.855  12.042
69664W        W34891   2.346  14.970  13.879
69665W        W34892  34.561  35.922   2.359
69666W        W34893  25.437  10.596  13.164
69667W        W34894  17.807  19.031   0.524
69668W        W34895  37.384  42.781   2.772
69669W        W34896  19.590  28.168   0.886
69670W        W34897  34.683  40.785   0.057
69671W        W34898  22.992  15.338   2.345
69672W        W34899  20.036  44.954   4.381
69673W        W34900  23.454  15.375  13.732
69674W        W34901  18.179  33.064  14.922
69675W        W34902  23.329   5.825   0.901
69676W        W34903   0.863   2.428  11.001
69677W        W34904  43.334  32.013  10.706
69678W        W34905  12.279  20.137  14.351
69679W        W34906  13.786  39.801   0.034
69680W        W34907  21.117   1.987   4.511
69681W        W34908  16.107  11.604   4.910
69682W        W34909  23.272  25.721  10.574
69683W        W34910  32.210  20.148   0.340
69684W        W34911  37.415  12.730   0.482
69685W        W34912  18.157  27.923  14.952
69686W        W34913  15.534  39.643   2.271
69687W        W34914  39.116  21.999  11.882
69688W        W34915   4.380  40.488  13.016
69689W        W34916  30.151  11.411   4.606
69690W        W34917   1.962  35.131   4.429
69691W        W34918  17.964  19.431   4.400
69692W        W34919  37.473   1.402  11.576
69693W        W34920  39.751  27.899  11.140
69694W        W34921  14.094  22.224  12.724
69695W        W34922  12.078  20.599  13.128
69696W        W34923   1.573  28.119   1.840
69697W        W34924  28.465   2.013   0.751
69698W        W34925   3.428  13.990  11.567
69699W        W34926  41.049   3.745  12.572
69700W        W34927  16.312  30.898   4.818
69701W        W34928  16.879  28.356  14.886
69702W        W34929  30.414  25.581  12.956
69703W        W34930  20.169  35.174  11.544
69704W        W34931   2.941  24.330  11.006
69705W        W34932  39.107  24.844  13.655
69706W        W34933  17.521  18.511  13.377
69707W        W34934  20.192  29.954  10.923
69708W        W34935   4.276  23.730   0.487
69709W        W34936  24.170  12.679   0.711
69710W        W34937  13.165   7.006   3.881
69711W        W34938  32.544  28.775  14.992
69712W        W34939  26.679   8.293   0.916
69713W        W34940  20.165  33.103  11.547
69714W        W34941  31.019  44.790  13.168
69715W        W34942   9.754  29.139  10.619
69716W        W34943  24.541  12.785  12.505
69717W        W34944  32.880   9.251  14.937
69718W        W34945  14.760   1.398  13.524
69719W        W34946  23.649  44.164  11.684
69720W        W34947  11.669  16.707   2.649
69721W        W34948  22.901  15.121  14.259
69722W        W34949  30.998  42.533   3.725
69723W        W34950   6.166   4.143   3.726
69724W        W34951  19.552  33.853  14.963
69725W        W34952   5.782  17.049   2.048
69726W        W34953   3.238  24.189  10.600
69727W        W34954  25.721   3.648   2.407
69728W        W34955  21.107  13.627  14.141
69729W        W34956  14.314  43.414   3.104
69730W        W34957  38.020  38.048  11.212
69731W        W34958  43.337  35.260   0.711
69732W        W34959   3.461  40.485   5.027
69733W        W34960   3.394  29.171   1.476
69734W        W34961  41.287  38.529   3.543
69735W        W34962   0.861   5.377   3.324
69736W        W34963  31.931   4.663   0.450
69737W        W34964  36.036  42.094  13.872
69738W        W34965  29.476  18.627   1.257
69739W        W34966  41.291   0.777  11.481
69740W        W34967  40.800  10.900  10.910
69741W        W34968  10.116  15.821   1.844
69742W        W34969  35.639   3.117  13.492
69743W        W34970  19.584  29.145  14.419
69744W        W34971  25.966  22.653   2.361
69745W        W34972   6.916  19.092  10.640
69746W        W34973  22.653  21.835  14.046
69747W        W34974   7.754  16.060  12.503
69748W        W34975  41.074  39.336   2.511
69749W        W34976   3.322   5.235  12.543
69750W        W34977  33.976  22.271  11.160
69751W        W34978  44.549  40.805  12.579
69752W        W34979   2.368  33.031   5.128
69753W        W34980   5.295  15.090  10.285
69754W        W34981  31.991   8.456   3.193
69755W        W34982  32.265   0.906  14.983
69756W        W34983  42.440  20.795  12.119
69757W        W34984   1.823   0.248  14.515
69758W        W34985  12.231  20.993  11.697
69759W        W34986  26.998  19.214  14.964
69760W        W34987  28.456  30.487   4.090
69761W        W34988  41.525  44.269   1.386
69762W        W34989  13.365   3.853   1.776
69763W        W34990   8.165  29.733  12.134
69764W        W34991  21.297  43.243   4.258
69765W        W34992  25.464   9.578   1.711
69766W        W34993  11.439  39.315   4.391
69767W        W34994  13.265  21.694  12.915
69768W        W34995   4.243   0.918   3.302
69769W        W34996  15.643   4.224   1.749
69770W        W34997  14.588  19.428  11.194
69771W        W34998  39.487  12.309   4.710
69772W        W34999   8.189  36.546   3.570
69773W        W35000   0.466   4.876  13.007
69774W        W35001  36.994  28.451   0.947
69775W        W35002  23.075  41.272  13.320
69776W        W35003   9.728  10.587   4.532
69777W        W35004   2.515  31.898   1.418
69778W        W35005  16.357  28.432   4.434
69779W        W35006  39.339   9.137   2.276
69780W        W35007   1.410  20.955  11.944
69781W        W35008   0.392  31.547   4.629
69782W        W35009  21.547  17.853  14.444
69783W        W35010  20.193  12.655  13.536
69784W        W35011  12.852  39.942   0.410
69785W        W35012  24.100   9.831   2.154
69786W        W35013  16.037  22.228   3.230
69787W        W35014  12.725  21.601   4.663
69788W        W35015  40.632   7.727   4.953
69789W        W35016   5.719   7.928   2.238
69790W        W35017  36.061  38.143   2.566
69791W        W35018  14.211  24.480  11.146
69792W        W35019  35.834  38.931  12.588
69793W        W35020  38.460   8.368  12.473
69794W        W35021  43.752  11.111   4.198
69795W        W35022  18.713   9.656   0.157
69796W        W35023  10.238   9.632  10.704
69797W        W35024  18.168  40.894   2.291
69798W        W35025   8.001   1.455  14.568
69799W        W35026   8.924  37.988  14.921
69800W        W35027  39.535  36.936  13.771
69801W        W35028  26.703  11.055   0.753
69802W        W35029  10.804  18.220  13.310
69803W        W35030  34.889  13.781   4.793
69804W        W35031  43.320  32.434   0.851
69805W        W35032  41.099  30.070  10.953
69806W        W35033  28.451  17.297   1.253
69807W        W35034   8.888   0.021  14.924
69808W        W35035   3.246  14.027   1.344
69809W        W35036  16.319  14.353   1.156
69810W        W35037  30.252   3.321   3.522
69811W        W35038  22.147  42.689   0.214
69812W        W35039  40.898  25.250  13.482
69813W        W35040  32.027  43.350  14.403
69814W        W35041   5.335  13.599   2.206
69815W        W35042  11.281  27.266   2.315
69816W        W35043  31.663   3.705   2.321
69817W        W35044   5.472  41.411  10.323
69818W        W35045  21.588  44.033  13.984
69819W        W35046  16.135  30.507   3.641
69820W        W35047   2.854  32.094  14.216
69821W        W35048   3.490  26.908   2.629
69822W        W35049  36.691   7.786  14.948
69823W        W35050  40.716   0.283  12.013
69824W        W35051  20.275  33.874   0.260
69825W        W35052   8.943  37.847  11.906
69826W        W35053  18.971  25.401  14.813
69827W        W35054  14.581   7.822  11.575
69828W        W35055   4.378   9.348  10.713
69829W        W35056  36.399  29.574  14.313
69830W        W35057   1.193  39.916  10.549
69831W        W35058  26.760  37.167  13.120
69832W        W35059  23.280   4.253  13.947
69833W        W35060   0.364  25.593   4.972
69834W        W35061  41.862  31.676  11.980
69835W        W35062  35.404   7.096   2.813
69836W        W35063   6.244  42.949  11.948
69837W        W35064  40.667  26.219   3.181
69838W        W35065  42.429   0.027  12.059
69839W        W35066  23.087   2.908  13.837
69840W        W35067   8.525  11.840  11.010
69841W        W35068  19.758  29.152  12.701
69842W        W35069  29.941   0.953  10.364
69843W        W35070  13.457  29.679  14.344
69844W        W35071   1.916  32.929   2.720
69845W        W35072  23.649   8.444   3.103
69846W        W35073  44.299  22.244  12.605
69847W        W35074   8.514  43.328   1.004
69848W        W35075  29.504  16.307   4.103
69849W        W35076  20.309  16.823   2.683
69850W        W35077  41.310   1.683  11.720
69851W        W35078   0.781  14.711  11.999
69852W        W35079   5.369  34.029  12.149
69853W        W35080  30.319  28.681  14.328
69854W        W35081  36.892  37.874   2.240
69855W        W35082  31.671  12.301   1.212
69856W        W35083  26.815  14.768   0.825
69857W        W35084  21.664   7.787   2.150
69858W        W35085  42.193  30.928  12.989
69859W        W35086  25.132  40.365   1.972
69860W        W35087  37.853  44.018   2.640
69861W        W35088  11.955  24.474  10.525
69862W        W35089  41.433  35.319   2.615
69863W        W35090  39.568  36.787   2.407
69864W        W35091  36.480  16.250  14.392
69865W        W35092  30.540  38.316   2.038
69866W        W35093  28.097  31.382   4.272
69867W        W35094  37.115  35.811  12.957
69868W        W35095  20.584  43.311  11.423
69869W        W35096  34.707  10.438  11.209
69870W        W35097  16.742  44.879  11.513
69871W        W35098  31.952   9.431  11.868
69872W        W35099  39.902   4.979  13.497
69873W        W35100  31.234  39.782  13.465
69874W        W35101  29.639   7.290  12.524
69875W        W35102  27.921   2.218   1.835
69876W        W35103  29.036  15.990  12.497
69877W        W35104  19.889  44.325   3.806
69878W        W35105  29.197   9.843   1.582
69879W        W35106  11.999  27.919   5.470
69880W        W35107  14.070  20.123  12.454
69881W        W35108  37.917  41.456  13.538
69882W        W35109  21.153  25.175   3.630
69883W        W35110  29.570  10.087  11.630
69884W        W35111  29.420  39.323   3.915
69885W        W35112  38.440  28.457   4.721
69886W        W35113  42.404   8.707   0.208
69887W        W35114  15.802  26.013  11.908
69888W        W35115  26.553  17.630   2.783
69889W        W35116   4.411   2.320  10.656
69890W        W35117  11.094  42.971   0.397
69891W        W35118  39.896  25.332  14.453
69892W        W35119  44.323   6.698  11.015
69893W        W35120  16.868  36.333   1.858
69894W        W35121  28.650  38.293   2.826
69895W        W35122  12.586  23.738  10.691
69896W        W35123  42.299  30.058   4.752
69897W        W35124  27.845  40.024  11.942
69898W        W35125  41.033  30.530  13.601
69899W        W35126  13.241  34.150  12.858
69900W        W35127   0.752  30.635  10.694
69901W        W35128   7.360  39.538   2.688
69902W        W35129  29.024   5.528   0.556
69903W        W35130   5.508  25.617   3.328
69904W        W35131  27.530  37.285   1.877
69905W        W35132  19.244   4.433  13.085
69906W        W35133  21.077  14.196   3.283
69907W        W35134  20.180  42.941   2.503
69908W        W35135  26.737   8.393  11.517
69909W        W35136  24.914  42.602  11.484
69910W        W35137   7.452   3.451  13.528
69911W        W35138  44.008  18.363   2.657
69912W        W35139  12.902  19.764   0.372
69913W        W35140   5.470   4.446  13.737
69914W        W35141  34.516   3.925  13.863
69915W        W35142   8.617  22.140   0.426
69916W        W35143  13.143  25.377   0.315
69917W        W35144  21.298  24.511   3.240
69918W        W35145  23.651  21.687   3.168
69919W        W35146  18.364  34.231  10.870
69920W        W35147  40.580  39.442  12.607
69921W        W35148  23.948  33.967   2.688
69922W        W35149  42.968  23.420  10.925
69923W        W35150  26.383   0.999   1.411
69924W        W35151   1.367  44.512  10.355
69925W        W35152  12.459  30.249  12.434
69926W        W35153  30.580   4.281   0.933
69927W        W35154  14.323  28.948   2.658
69928W        W35155  41.479  18.198   2.804
69929W        W35156  12.410  35.961  11.902
69930W        W35157  32.636  30.956   0.389
69931W        W35158  32.946  41.236  12.839
69932W        W35159  42.792  11.845  11.363
69933W        W35160   3.335  40.529  14.579
69934W        W35161   7.288  44.954  11.920
69935W        W35162  43.744  44.814   1.418
69936W        W35163   3.265  42.842   2.289
69937W        W35164  44.901  24.477  13.065
69938W        W35165  30.395  44.728   1.266
69939W        W35166  11.194  28.683  12.942
69940W        W35167   1.391   0.703  13.659
69941W        W35168  31.399  44.388  13.140
69942W        W35169   7.705   2.884   1.219
69943W        W35170  33.939  27.737   4.648
69944W        W35171  32.086   7.119   2.702
69945W        W35172  21.099  14.494   0.755
69946W        W35173  40.805   9.834  13.838
69947W        W35174  21.995  20.513  11.808
69948W        W35175  42.344   9.831   1.656
69949W        W35176  30.528  25.653   5.087
69950W        W35177  10.930  30.169  14.261
69951W        W35178  13.794   6.476  11.392
69952W        W35179  32.949  42.342  13.224
69953W        W35180  19.563  42.576  11.535
69954W        W35181   3.524  28.452  13.787
69955W        W35182  16.740  18.753  13.017
69956W        W35183  10.248  23.739   2.268
69957W        W35184  18.111  24.126  12.100
69958W        W35185   6.197  42.043   0.362
69959W        W35186  19.251   3.796  10.733
69960W        W35187  39.407   2.250  11.026
69961W        W35188  25.605  41.425   1.352
69962W        W35189  17.035  19.818   3.822
69963W        W35190  27.525  35.635   4.771
69964W        W35191  32.644   2.394  12.941
69965W        W35192  19.046  25.365  12.585
69966W        W35193  20.313  11.911   0.961
69967W        W35194   4.374  25.070   2.856
69968W        W35195  31.387  21.167  10.323
69969W        W35196  32.058  10.115  10.663
69970W        W35197  40.932  40.030  14.883
69971W        W35198  44.445  40.484  10.291
69972W        W35199  20.347  14.218  14.448
69973W        W35200  15.426  12.218   2.684
69974W        W35201  12.278   3.224  14.290
69975W        W35202  30.867  42.875   4.519
69976W        W35203   0.699  12.793  11.128
69977W        W35204  23.403   5.065  14.804
69978W        W35205  17.025   2.457  14.984
69979W        W35206  21.702  15.321   1.760
69980W        W35207  30.509  41.343  13.938
69981W        W35208   8.445  41.516  14.969
69982W        W35209  11.420  11.529  14.991
69983W        W35210  21.202   4.931   2.520
69984W        W35211   5.754  43.755  10.849
69985W        W35212  29.679  32.424  13.928
69986W        W35213  27.198  35.332  13.923
69987W        W35214   3.166  43.447   1.464
69988W        W35215  32.205  39.852  12.323
69989W        W35216  12.662  37.779   2.325
69990W        W35217  27.523  40.055   1.261
69991W        W35218  43.051  27.866   4.134
69992W        W35219   7.965  42.190   1.840
69993W        W35220  21.088  12.188  11.312
69994W        W35221  41.868  22.184  11.680
69995W        W35222  37.184  10.729   1.612
69996W        W35223  27.305  25.623  10.943
69997W        W35224  34.125  22.041  12.666
69998W        W35225   8.403  35.989   1.885
69999W        W35226  15.618  39.437   0.838
70000W        W35227  26.502  42.620  12.438
70001W        W35228  43.944   0.239  14.615
70002W        W35229  26.029  12.436  13.101
70003W        W35230  19.952   7.758  14.943
70004W        W35231  44.498  10.500   2.711
70005W        W35232  35.474  10.899   4.769
70006W        W35233  37.587   5.667   2.345
70007W        W35234  43.719  30.189   0.248
70008W        W35235  17.150  35.284  10.139
70009W        W35236  44.943  12.984  14.824
70010W        W35237   6.378  29.377  12.870
70011W        W35238  28.754   6.278   1.205
70012W        W35239  15.266   1.474  12.007
70013W        W35240  22.293  19.480  12.969
70014W        W35241  23.769  19.515  13.004
70015W        W35242   3.143  21.691   0.339
70016W        W35243   7.148   0.283  13.379
70017W        W35244  30.966  29.170  14.403
70018W        W35245  43.227  34.445   1.754
70019W        W35246  29.579   2.840  11.396
70020W        W35247  39.356  25.410  11.267
70021W        W35248  35.419   3.121   4.589
70022W        W35249  44.511  37.031  14.390
70023W        W35250  20.573  12.354   0.812
70024W        W35251  22.726   2.969  12.034
70025W        W35252   0.276   0.944  13.019
70026W        W35253  27.047  35.478   1.322
70027W        W35254  44.868  24.116   2.109
70028W        W35255  21.590  14.353   3.570
70029W        W35256   7.725  37.612  12.137
70030W        W35257  28.395   9.247  13.350
70031W        W35258  29.143  38.922  10.995
70032W        W35259  24.037   9.126  14.403
70033W        W35260  39.285  23.178  14.979
70034W        W35261  40.079  34.630   2.858
70035W        W35262  40.747  29.186   1.429
70036W        W35263  30.594  34.978  13.060
70037W        W35264  28.202   4.720   0.361
70038W        W35265   4.722  44.474   5.023
70039W        W35266  44.193  32.221  14.554
70040W        W35267  24.620   9.632   0.796
70041W        W35268  27.960  44.461   3.728
70042W        W35269  12.919  44.770  10.400
70043W        W35270  24.700  16.195   1.897
70044W        W35271  15.099  11.145  14.532
70045W        W35272  40.074   2.208   2.545
70046W        W35273  19.327   6.582   1.895
70047W        W35274  33.120  28.917  11.165
70048W        W35275   1.957   1.961  11.582
70049W        W35276  18.134  13.523   0.039
70050W        W35277  30.538  17.718   0.883
70051W        W35278   9.411  33.580  12.437
70052W        W35279  37.390   4.159  13.577
70053W        W35280  33.162   9.849   0.273
70054W        W35281  33.245  34.990   3.682
70055W        W35282  12.683  14.750   0.981
70056W        W35283  37.616  42.440   4.556
70057W        W35284  16.400  13.364  11.007
70058W        W35285  27.455   6.798  14.798
70059W        W35286  28.148  19.441   2.617
70060W        W35287  36.293   5.509   4.113
70061W        W35288   3.353  10.004   3.255
70062W        W35289  42.440  44.921  14.915
70063W        W35290   4.723  10.756  11.202
70064W        W35291  30.640  44.842   4.495
70065W        W35292  40.866   5.988  12.559
70066W        W35293  41.878   0.251   1.548
70067W        W35294  29.697  40.994   2.922
70068W        W35295  38.897  12.294  13.757
70069W        W35296  37.804  40.296   3.338
70070W        W35297   4.969  40.067   3.206
70071W        W35298  36.097   0.805  13.382
70072W        W35299  42.289  26.962   1.881
70073W        W35300  41.766  34.065   0.127
70074W        W35301  42.814  26.589   4.204
70075W        W35302   3.753   7.668   4.144
70076W        W35303   3.485  24.420   2.449
70077W        W35304  31.797  39.735   2.724
70078W        W35305   6.273  29.351   0.435
70079W        W35306  42.963  35.081  10.470
70080W        W35307  11.938  37.339  14.951
70081W        W35308  35.590  27.121   3.400
70082W        W35309  22.007   8.935  14.948
70083W        W35310   4.640  18.440  11.489
70084W        W35311   3.209  34.527   3.137
70085W        W35312  44.537  42.993  14.453
70086W        W35313  44.397   7.479   4.743
70087W        W35314   0.423  34.734   1.477
70088W        W35315  30.949  25.750   5.365
70089W        W35316  40.435   2.234  11.905
70090W        W35317  43.047  23.948   0.735
70091W        W35318   4.863  23.568   0.452
70092W        W35319  12.659  11.468   2.861
70093W        W35320   5.209  16.834   2.784
70094W        W35321   9.127  44.968  13.482
70095W        W35322  20.297  17.582   1.975
70096W        W35323  21.072  39.509   2.314
70097W        W35324  34.326   2.460  11.133
70098W        W35325  29.048  14.682  11.050
70099W        W35326  18.744   9.540  12.507
70100W        W35327   6.471  30.557  12.407
70101W        W35328   9.913  40.948   0.670
70102W        W35329  14.452   5.932  11.595
70103W        W35330   8.908  35.479   4.280
70104W        W35331  43.709  29.947  14.733
70105W        W35332  30.440  17.229  10.608
70106W        W35333  44.878  34.445   1.649
70107W        W35334  19.479  41.559   1.367
70108W        W35335  35.133  41.363  12.637
70109W        W35336   7.131  15.549  12.584
70110W        W35337   7.598   0.028  13.529
70111W        W35338  31.430  41.416   0.733
70112W        W35339  38.488  28.411  13.579
70113W        W35340  42.833  35.962   2.316
70114W        W35341   5.701  33.989   1.923
70115W        W35342  42.187  18.264  10.987
70116W        W35343  13.248   2.660  13.526
70117W        W35344  18.324  22.371  14.973
70118W        W35345  17.079  17.830  11.844
70119W        W35346  33.987  36.921  12.960
70120W        W35347  30.621   9.785   1.360
70121W        W35348  33.210   8.707  14.116
70122W        W35349   1.050  34.790   4.309
70123W        W35350  38.264   6.662   1.733
70124W        W35351  28.981  34.157   1.785
70125W        W35352   5.845  26.264  11.279
70126W        W35353  26.034  35.515   2.297
70127W        W35354  24.649  12.689  10.718
70128W        W35355  19.258  14.220   0.261
70129W        W35356  28.321   6.278  11.741
70130W        W35357   5.000  17.162  13.317
70131W        W35358  17.020  26.125  11.022
70132W        W35359   2.510  37.996   2.315
70133W        W35360  22.154  23.416   3.296
70134W        W35361  12.085  14.086   3.157
70135W        W35362   8.384  28.466   0.953
70136W        W35363  32.341  35.340   3.288
70137W        W35364  42.204  16.335  14.473
70138W        W35365   4.372  14.596  14.035
70139W        W35366  41.064   6.202   2.324
70140W        W35367   2.044  28.487  13.464
70141W        W35368   2.676  34.065   0.830
70142W        W35369  16.344  36.939  13.506
70143W        W35370   6.014   1.572  11.345
70144W        W35371  17.615  17.257  11.001
70145W        W35372  17.347   2.815   1.732
70146W        W35373  27.034   2.966  12.892
70147W        W35374  16.142  40.267  10.884
70148W        W35375  15.374  33.819  14.553
70149W        W35376   5.163  27.958  14.151
70150W        W35377   3.725  16.803  11.388
70151W        W35378  30.548   0.187   1.106
70152W        W35379   0.845  44.841   3.693
70153W        W35380  17.405  23.160  14.305
70154W        W35381   8.234  14.318  14.984
70155W        W35382  12.802  12.551  12.478
70156W        W35383  15.747  39.569   3.998
70157W        W35384  22.472  21.706   1.123
70158W        W35385  25.295  26.190   0.266
70159W        W35386   0.238  22.133  10.220
70160W        W35387  36.809   5.879  10.119
70161W        W35388   5.273  35.256  10.693
70162W        W35389  19.826   4.392   3.594
70163W        W35390  40.904  13.101   3.202
70164W        W35391  38.568  18.788  11.206
70165W        W35392  15.036  23.673  13.472
70166W        W35393  13.955  10.703   0.270
70167W        W35394  24.020  22.770  12.848
70168W        W35395  19.990   5.751   4.088
70169W        W35396   1.239  14.146  13.853
70170W        W35397  26.631  11.196   1.265
70171W        W35398   9.446  42.509   4.550
70172W        W35399   1.734  10.095  13.103
70173W        W35400  25.009  27.631  10.719
70174W        W35401  39.327  13.581   1.680
70175W        W35402  33.307  32.127   0.207
70176W        W35403  20.259   1.326  14.192
70177W        W35404  26.935  11.134  13.712
70178W        W35405  22.231  20.754  14.809
70179W        W35406  18.121   6.780  12.544
70180W        W35407  37.926  28.073   1.255
70181W        W35408  18.586  11.631  13.509
70182W        W35409  23.703   6.732  11.360
70183W        W35410   6.239   2.786   2.166
70184W        W35411  34.173  14.267   0.440
70185W        W35412  23.857  23.963   5.154
70186W        W35413  41.012  14.644   2.192
70187W        W35414  35.531  38.494  10.692
70188W        W35415   6.474  40.818   4.612
70189W        W35416  32.165   5.708  12.476
70190W        W35417  20.457  43.222   2.166
70191W        W35418  16.915  19.621   3.337
70192W        W35419  17.311  37.370  14.076
70193W        W35420   3.308  20.670  12.218
70194W        W35421  32.832   3.750   0.697
70195W        W35422   1.883  43.313  12.940
70196W        W35423  20.746  11.913   0.095
70197W        W35424  34.418  21.548   1.408
70198W        W35425  25.157  42.845  12.924
70199W        W35426  40.349  42.885   1.163
70200W        W35427  36.490  32.858   2.296
70201W        W35428  24.298   1.798   5.392
70202W        W35429  10.400  31.754   1.757
70203W        W35430  21.449  19.161   4.695
70204W        W35431  27.721  44.859  13.395
70205W        W35432  44.244  31.275  11.970
70206W        W35433  12.855   0.414  11.518
70207W        W35434  11.156  30.376   0.276
70208W        W35435  41.356  17.124   0.828
70209W        W35436  33.587  28.696  11.099
70210W        W35437  27.255  27.642   4.731
70211W        W35438  18.220   5.809   3.961
70212W        W35439  26.452  27.145   2.180
70213W        W35440  26.776  28.197   4.295
70214W        W35441  27.884  22.582  12.375
70215W        W35442  36.469  28.044  11.207
70216W        W35443  38.517   1.987  13.364
70217W        W35444  36.098  19.246  13.471
70218W        W35445  31.876  14.315   1.774
70219W        W35446  17.324  13.160   4.066
70220W        W35447  37.525  38.289   0.405
70221W        W35448  27.185  12.620   4.582
70222W        W35449  40.757  18.382  13.976
70223W        W35450  14.228  39.697  11.067
70224W        W35451  23.236   5.004   4.571
70225W        W35452  17.875  27.007   2.693
70226W        W35453  15.199  10.976   0.870
70227W        W35454  23.645  31.088   4.144
70228W        W35455   6.835  35.901   4.131
70229W        W35456  12.361  39.522   1.673
70230W        W35457  19.015  38.825   1.376
70231W        W35458  32.966   7.219   3.445
70232W        W35459  39.907  39.801  11.918
70233W        W35460  26.605  24.043   4.401
70234W        W35461  18.824  39.249  10.613
70235W        W35462  44.041  20.554  12.949
70236W        W35463  13.122   1.180   2.227
70237W        W35464  31.915  25.115   4.252
70238W        W35465  17.381   5.296   2.527
70239W        W35466  40.908  33.014   0.018
70240W        W35467  12.087  24.664   1.762
70241W        W35468  43.858  20.345  14.791
70242W        W35469  39.331   2.402  11.997
70243W        W35470   3.259  32.053  11.107
70244W        W35471   9.244  33.780   3.313
70245W        W35472  30.798  36.830  13.855
70246W        W35473  17.492  15.614  13.006
70247W        W35474  44.902  20.943   0.429
70248W        W35475  33.197  42.231  10.799
70249W        W35476  22.007  21.666   0.824
70250W        W35477  13.441  30.985   3.999
70251W        W35478   0.797   4.689  12.611
70252W        W35479  32.075  17.520  11.373
70253W        W35480   6.018  40.585  12.392
70254W        W35481   1.487  43.057  14.096
70255W        W35482   6.291  41.523   3.307
70256W        W35483   1.762   2.214  14.819
70257W        W35484  26.627  17.856   3.574
70258W        W35485  18.605  39.485  11.953
70259W        W35486   3.271  34.185  14.979
70260W        W35487  12.732  25.383  14.999
70261W        W35488  31.702  25.504   3.788
70262W        W35489   7.252  36.891  11.904
70263W        W35490  26.645  26.638   2.195
70264W        W35491   8.601  21.669   4.959
70265W        W35492   3.722  17.519  11.670
70266W        W35493  34.952  21.275  13.555
70267W        W35494  11.442  28.781  14.871
70268W        W35495   7.712  27.736  11.078
70269W        W35496   3.527  28.433  11.098
70270W        W35497  10.272   8.377  14.697
70271W        W35498   0.946  18.873  14.875
70272W        W35499   2.173  28.526   0.847
70273W        W35500  30.819  44.493   1.636
70274W        W35501   9.638  42.791  12.731
70275W        W35502  35.994  44.525  14.368
70276W        W35503  11.154  23.019  13.007
70277W        W35504  18.598  14.103  13.369
70278W        W35505   2.659  10.137   4.178
70279W        W35506  34.916  25.137   0.205
70280W        W35507  30.763  30.491  14.825
70281W        W35508  33.071  18.147  12.993
70282W        W35509  27.501  40.428  13.852
70283W        W35510  24.580  32.776   2.671
70284W        W35511   1.215  15.146   1.808
70285W        W35512  24.507  18.493   3.840
70286W        W35513  30.857  15.805   0.447
70287W        W35514  28.172  30.591  12.432
70288W        W35515  30.984  26.599   0.746
70289W        W35516  18.233  26.460  10.007
70290W        W35517  37.915  25.666  11.660
70291W        W35518  32.526  15.689  11.706
70292W        W35519  28.976   1.746  10.689
70293W        W35520  43.365  12.703  11.066
70294W        W35521  35.044   7.780  10.588
70295W        W35522  39.321  44.994  11.248
70296W        W35523  43.607  40.767  14.879
70297W        W35524  11.265  21.038  14.057
70298W        W35525  10.610  17.140  12.432
70299W        W35526  35.820   5.434  11.529
70300W        W35527   8.412  43.795  11.059
70301W        W35528   5.646  13.370  13.243
70302W        W35529  41.771   8.879  11.286
70303W        W35530  35.163  36.708   3.908
70304W        W35531   6.531  21.061   0.780
70305W        W35532  17.234  31.375   2.336
70306W        W35533  33.535  27.017   3.119
70307W        W35534  17.685  38.734   1.848
70308W        W35535   6.730  31.663  12.349
70309W        W35536  31.720  28.189  14.971
70310W        W35537  44.253  10.234   3.087
70311W        W35538   6.625  25.774  11.225
70312W        W35539   4.940   5.634   2.656
70313W        W35540  31.905   5.736  13.379
70314W        W35541  18.629   5.926  14.798
70315W        W35542  11.274  16.282  11.368
70316W        W35543   6.271  35.642   2.325
70317W        W35544  18.253  13.771  12.034
70318W        W35545  11.414  12.226  12.599
70319W        W35546  26.395  36.752   4.614
70320W        W35547  33.932  13.393  12.861
70321W        W35548  15.162   2.579   4.139
70322W        W35549  28.545   9.361  14.127
70323W        W35550  19.044  11.200   2.906
70324W        W35551  27.259  40.814   1.638
70325W        W35552  23.700  27.610   2.832
70326W        W35553  29.551  23.233   0.700
70327W        W35554  34.106  34.403  10.964
70328W        W35555   2.416  27.136   0.907
70329W        W35556  43.832  18.893  12.466
70330W        W35557  11.148  28.982  13.986
70331W        W35558  42.713  12.934  12.138
70332W        W35559   5.086  19.036  13.019
70333W        W35560  12.751  16.774   2.403
70334W        W35561   0.828  16.147  12.082
70335W        W35562  15.617  31.722  11.546
70336W        W35563   9.693   6.790   2.601
70337W        W35564  38.111  33.460   1.281
70338W        W35565  20.936   9.754  10.657
70339W        W35566  34.065  24.732  14.721
70340W        W35567  20.111  21.260   2.197
70341W        W35568  10.343   2.714   1.923
70342W        W35569  36.567  31.422   2.820
70343W        W35570   2.325  16.757  11.630
70344W        W35571  40.767  27.177  12.350
70345W        W35572  17.527  43.543  14.960
70346W        W35573  44.961  25.508   3.757
70347W        W35574  31.737  21.227  14.908
70348W        W35575  33.867  13.817   0.360
70349W        W35576   8.434  43.788  13.276
70350W        W35577  33.321  34.855  12.459
70351W        W35578  25.602   5.117   1.072
70352W        W35579  37.888  29.198  12.418
70353W        W35580  21.362  10.357   1.339
70354W        W35581  13.532  14.435   0.292
70355W        W35582  16.368  34.033  12.087
70356W        W35583   3.579  10.397  11.574
70357W        W35584  27.822   9.217  14.771
70358W        W35585  40.439   0.613   4.899
70359W        W35586  23.280  25.546  11.067
70360W        W35587  31.676  14.290  13.529
70361W        W35588  26.343  11.129   4.173
70362W        W35589  18.189  36.378  11.415
70363W        W35590  40.442  19.030   0.456
70364W        W35591  16.210  31.476   3.599
70365W        W35592  10.411  23.527  14.798
70366W        W35593   8.169  19.076  14.412
70367W        W35594  25.477  31.062  11.314
70368W        W35595  23.060   5.699  12.967
70369W        W35596  22.421   7.806  11.356
70370W        W35597  17.946   1.355   2.833
70371W        W35598  22.355   3.160   4.153
70372W        W35599  27.632  38.063  14.433
70373W        W35600   0.101  31.089   0.025
70374W        W35601  35.349  31.196  14.061
70375W        W35602  16.142  16.030   3.713
70376W        W35603  23.490  44.916   1.862
70377W        W35604  41.504   7.122  12.531
70378W        W35605   5.842  31.463  10.626
70379W        W35606  10.824  19.770   0.462
70380W        W35607  17.284  27.049  11.131
70381W        W35608   0.903  25.010  14.548
70382W        W35609   6.474  14.061  11.191
70383W        W35610  29.686  10.528   3.550
70384W        W35611  12.179  25.258  12.132
70385W        W35612  43.438  30.080   4.796
70386W        W35613  24.620  10.650  12.981
70387W        W35614  34.500   0.791   0.767
70388W        W35615  21.645  23.246   3.160
70389W        W35616   1.312  22.016   4.455
70390W        W35617  43.861   2.413  11.075
70391W        W35618  39.211   4.934   2.092
70392W        W35619   0.918  30.651   3.199
70393W        W35620  44.596  28.117   5.127
70394W        W35621  40.306  34.396  14.240
70395W        W35622  15.600  37.101   1.838
70396W        W35623  15.762   4.670   4.036
70397W        W35624   0.228  18.588   1.817
70398W        W35625  25.987  18.510   0.341
70399W        W35626  43.425   0.990  10.075
70400W        W35627  16.356  25.486   1.989
70401W        W35628   0.855  13.886   4.543
70402W        W35629  12.112  13.658   1.937
70403W        W35630  15.567   6.839  13.197
70404W        W35631  19.199   5.175  11.588
70405W        W35632  16.614  16.655  11.481
70406W        W35633  13.203  36.499   0.420
70407W        W35634  28.080   9.069  10.466
70408W        W35635  28.876   1.626   2.656
70409W        W35636  10.103   5.508   0.253
70410W        W35637   0.031  34.918  14.983
70411W        W35638  35.389  25.242  13.891
70412W        W35639  42.011   0.790  11.164
70413W        W35640  18.254  22.053   4.259
70414ION    NA+35641  41.101   5.162  12.981
70415ION    NA+35642  10.944   4.408   1.680
70416ION    NA+35643  44.881   0.486   1.497
70417ION    NA+35644   2.374   3.975   3.227
70418ION    NA+35645  37.568  18.993   5.353
70419ION    NA+35646  24.700  25.312   1.208
70420ION    NA+35647  41.785  15.112   2.515
70421ION    NA+35648  11.293  20.204  13.416
70422ION    NA+35649   1.388  37.077   1.889
70423ION    NA+35650  29.466  36.152   0.461
70424ION    NA+35651  22.590   8.461   0.287
70425ION    NA+35652   0.216  10.670  10.725
70426ION    NA+35653  24.676  37.597   3.754
70427ION    NA+35654   8.152  21.888  11.443
70428ION    NA+35655   5.442   1.407  14.077
70429ION    NA+35656  37.277  41.567  14.835
70430ION    NA+35657  21.508  35.988   2.345
70431ION    NA+35658  11.888  29.239   4.935
70432ION    NA+35659  13.295  27.956   4.115
70433ION    NA+35660  22.742  26.820  12.647
70434ION    NA+35661  38.495  38.310   0.833
70435ION    NA+35662  44.603  18.400  10.979
70436ION    NA+35663  43.941  31.227  14.344
70437ION    NA+35664   4.291  35.465  12.465
70438ION    NA+35665   2.152  23.517   2.289
70439ION    NA+35666  36.016   5.819   2.743
70440ION    NA+35667  17.253   2.186  10.750
70441ION    NA+35668  21.349  22.027  14.630
70442ION    NA+35669   7.726  34.151  12.134
70443ION    NA+35670   9.743  17.259   2.085
70444ION    NA+35671  23.943  24.530  10.394
70445ION    NA+35672  43.617  15.628  14.398
70446ION    NA+35673  28.706   2.422  13.003
70447ION    NA+35674  10.581  17.686   3.887
70448ION    NA+35675  20.293  18.965   1.037
70449ION    NA+35676  15.968   7.130   2.813
70450ION    NA+35677  31.172  37.895   3.092
70451ION    NA+35678  33.240  11.697  14.442
70452ION    NA+35679  43.469  41.264  14.895
70453ION    NA+35680  31.655  35.733   2.186
70454ION    NA+35681  16.532  40.392  14.401
70455ION    NA+35682   6.711  28.331   3.865
70456ION    NA+35683  12.923  32.902  12.081
70457ION    NA+35684  17.000  26.746   2.396
70458ION    NA+35685   6.848   3.019  11.075
70459ION    NA+35686  24.586  24.664   4.242
70460ION    NA+35687  44.866  28.252   2.250
70461ION    NA+35688  41.719  25.900  13.450
70462ION    NA+35689  18.751  37.218  13.950
70463ION    NA+35690   8.244  35.122  13.171
70464ION    NA+35691  36.244  37.094  14.304
70465ION    NA+35692   0.770  25.131  13.476
70466ION    NA+35693  14.057   8.730   5.494
70467ION    NA+35694   5.428  29.591   0.498
70468ION    NA+35695  33.418  26.430   1.395
70469ION    NA+35696  22.034  40.678   4.490
70470ION    NA+35697   0.950  28.603   4.543
70471ION    NA+35698  20.087  19.331   0.130
70472ION    NA+35699  35.931  30.556  14.755
70473ION    NA+35700  19.060  11.890   1.624
70474ION    NA+35701  14.314  14.464   2.406
70475ION    NA+35702  25.856  11.286   4.153
70476ION    NA+35703   4.417  11.099   0.864
70477ION    NA+35704  31.273   9.848  13.122
70478ION    NA+35705  43.608  25.472  11.619
70479ION    NA+35706   2.672  27.873   9.749
70480ION    NA+35707  44.042  34.053   2.048
70481ION    NA+35708  19.067  31.550  12.836
70482ION    NA+35709  24.571  28.926   3.103
70483ION    NA+35710  28.344  30.637   1.304
70484ION    NA+35711  14.823   8.744   2.664
70485ION    NA+35712   2.324  21.800  12.040
70486ION    NA+35713  20.542   0.405  13.798
70487ION    NA+35714  32.068  21.727   0.785
70488ION    NA+35715  41.490  19.269  14.833
70489ION    NA+35716  10.647  39.085   3.177
70490ION    NA+35717  25.215  31.552  11.365
70491ION    NA+35718  39.272   4.179   5.453
70492ION    NA+35719  37.167  28.528   1.433
70493ION    NA+35720  29.888   5.035   1.658
70494ION    NA+35721  30.547  11.430  12.532
70495ION    NA+35722  18.672  17.287  14.500
70496ION    NA+35723  44.500  40.569   1.385
70497ION    NA+35724  32.054  20.254   3.279
70498ION    NA+35725  28.216   9.065   0.055
70499ION    NA+35726   7.345  28.978  13.280
70500ION    NA+35727  25.248  14.886   0.673
70501ION    NA+35728  25.276  40.666   0.258
70502ION    NA+35729  11.868  36.640   1.774
70503ION    NA+35730  23.538  15.593   2.505
70504ION    NA+35731  21.196  32.669  13.442
70505ION    NA+35732  14.579   6.866  11.445
70506ION    NA+35733  38.669  21.995   3.389
70507ION    NA+35734  13.703   5.278   5.019
70508ION    NA+35735  15.087  27.815   2.122
70509ION    NA+35736  27.709  36.882  12.998
70510ION    NA+35737   8.178  44.032   0.804
70511ION    NA+35738  11.446   6.751   0.539
70512ION    NA+35739  11.341   2.224  11.660
70513ION    NA+35740  37.065  31.393  14.917
70514ION    NA+35741  20.442   6.589   9.745
70515ION    NA+35742  32.596  26.951   0.404
70516ION    NA+35743  17.848  11.817   3.595
70517ION    NA+35744   3.617   3.799   3.746
70518ION    NA+35745  14.384  26.932  10.803
70519ION    NA+35746   1.840  31.830   3.235
70520ION    NA+35747   2.944   4.600  12.014
70521ION    NA+35748   7.277   1.151   3.587
70522ION    NA+35749  42.794  25.325  12.456
70523ION    NA+35750  41.078  33.549  13.038
70524ION    NA+35751  36.856  13.564   3.817
70525ION    NA+35752  21.117  30.662   0.848
70526ION    NA+35753  18.667  10.804  12.901
70527ION    NA+35754  27.993  14.401   1.239
70528ION    NA+35755  33.379   5.327   1.771
70529ION    NA+35756  14.415  35.575  11.716
70530ION    NA+35757  31.547  27.734   0.894
70531ION    NA+35758  39.285  12.686   2.786
70532ION    NA+35759  27.792  13.267   4.197
70533ION    NA+35760   7.811  42.833  14.846
70534ION    NA+35761   1.517  31.769  12.056
70535ION    NA+35762  31.884  19.761  11.767
70536ION    NA+35763  19.260  18.100   4.445
70537ION    NA+35764  36.948  15.822   4.373
70538ION    NA+35765  14.091   3.619   9.852
70539ION    NA+35766   6.737  29.511   2.161
70540ION    NA+35767  10.878  12.969  11.666
70541ION    NA+35768  22.823  29.007  10.925
70542ION    NA+35769   9.812  41.136   3.638
70543ION    NA+35770  39.467  37.856   4.184
70544ION    NA+35771  21.282   7.495   2.354
70545ION    NA+35772   1.653  21.610   4.491
70546ION    NA+35773  37.818  33.292   1.810
70547ION    NA+35774  18.288   0.212  12.913
70548ION    NA+35775  35.057   0.567   0.867
70549ION    NA+35776  20.719  26.456   4.525
70550ION    NA+35777   6.373  10.272  10.744
70551ION    NA+35778  24.607  15.847  14.611
70552ION    NA+35779  44.404  16.818  14.454
70553ION    NA+35780  37.126  43.915   3.169
70554ION    NA+35781  41.781  32.538   2.397
70555ION    NA+35782  11.881  22.593  11.495
70556ION    NA+35783  14.163   4.511  14.373
70557ION    NA+35784  28.534  28.029   1.700
70558ION    NA+35785  44.935   3.621  11.085
70559ION    NA+35786  11.050   1.246   3.221
70560ION    NA+35787  16.882  44.587  11.100
70561ION    NA+35788  36.921   4.455   3.407
70562ION    NA+35789   7.529   6.560  14.359
70563ION    NA+35790  28.207   5.282  12.042
70564ION    NA+35791  30.035  43.779   3.987
70565ION    NA+35792  17.091  33.604  12.927
70566ION    NA+35793  23.170   5.324  11.020
70567ION    NA+35794  23.936   2.277  14.832
70568ION    NA+35795  40.330  11.822  11.576
70569ION    NA+35796  11.010  21.907   1.839
70570ION    NA+35797   2.926  27.062  13.566
70571ION    NA+35798   8.689   4.756   5.049
70572ION    NA+35799   3.487   2.165   4.326
70573ION    NA+35800  21.063  35.937   3.240
70574ION    NA+35801  15.711   8.620   3.357
70575ION    NA+35802  25.636   8.530   0.839
70576ION    NA+35803  42.653   9.519  11.589
70577ION    NA+35804  29.338  34.040   2.126
70578ION    NA+35805   8.601  31.669   4.569
70579ION    NA+35806  15.597  18.668  10.818
70580ION    NA+35807   7.352   6.421   0.737
70581ION    NA+35808  32.384  21.329   2.548
70582ION    NA+35809   6.485   1.766   3.550
70583ION    NA+35810   0.719  42.659   3.501
70584ION    NA+35811  23.625  22.326  13.779
70585ION    NA+35812  25.101  13.500   1.697
70586ION    NA+35813   2.491  21.319   4.954
70587ION    NA+35814  15.100  11.401  12.105
70588ION    NA+35815  21.557  15.090  14.564
70589ION    NA+35816   5.588  27.172  13.850
70590ION    NA+35817   6.372   6.200  13.068
70591ION    NA+35818  41.117  16.226  10.872
70592ION    NA+35819   5.137   1.256   4.031
70593ION    NA+35820  37.310  10.790  11.543
70594ION    NA+35821  41.640   9.837  10.493
70595ION    NA+35822  43.187  18.044  11.960
70596ION    NA+35823  36.040   7.620   0.713
70597ION    NA+35824  18.636  37.637  13.021
70598ION    NA+35825  34.874  30.533  14.782
70599ION    NA+35826  40.874  36.509  14.606
70600ION    NA+35827  36.822  27.519  14.264
70601ION    NA+35828  15.989  12.631  11.288
70602ION    NA+35829  20.667  33.388   2.394
70603ION    NA+35830  29.186  24.733  13.011
70604ION    NA+35831   8.545  10.160   3.075
70605ION    NA+35832   8.243  19.854  11.960
70606ION    NA+35833  21.166  24.351  12.023
70607ION    NA+35834  17.634   7.414  11.204
70608ION    NA+35835  22.177  10.292   2.785
70609ION    NA+35836   1.905  28.553   5.281
70610ION    NA+35837  25.141   8.345   3.407
70611ION    NA+35838  41.318  10.560   0.404
70612ION    NA+35839  42.127  26.737   1.431
70613ION    NA+35840  24.146   7.443   1.294
70614ION    NA+35841  26.535   3.245   1.824
70615ION    NA+35842  28.908  35.804   2.739
70616ION    NA+35843  38.816  26.078  11.914
70617ION    NA+35844  41.578  36.455  10.932
70618ION    NA+35845  27.401  32.589   0.040
70619ION    NA+35846  40.246  16.476  10.952
70620ION    NA+35847  39.457  38.299   2.776
70621ION    NA+35848   9.886  31.334  14.023
70622ION    NA+35849   7.334  12.589  10.379
70623ION    NA+35850  40.206  41.542  11.614
70624ION    NA+35851  18.846  31.347   0.361
70625ION    NA+35852   5.460   6.559  14.633
70626ION    NA+35853   6.260   8.201   0.624
70627ION    NA+35854  37.767  35.726   0.539
70628ION    NA+35855  21.473  29.436  14.278
70629ION    NA+35856  43.971   2.440   4.200
70630ION    NA+35857  36.436   9.220   0.402
70631ION    NA+35858  38.697  23.253   0.500
70632ION    NA+35859  24.550  14.057   1.016
70633ION    NA+35860  37.083   9.557  12.358
70634ION    NA+35861  14.958  20.962  13.109
70635ION    NA+35862  29.209   9.166  14.946
70636ION    NA+35863  26.118  13.566   3.050
70637ION    NA+35864  38.517  32.144   3.244
70638ION    NA+35865  10.245  20.059  11.737
70639ION    NA+35866  13.400  41.862   1.913
70640ION    NA+35867  22.266  15.219   1.380
70641ION    NA+35868  26.513   3.018  10.820
70642ION    NA+35869  19.020  33.858   1.611
70643ION    NA+35870  12.239   0.478   3.279
70644ION    NA+35871  12.107  23.160  10.225
70645ION    NA+35872  41.937  22.011   2.033
70646ION    NA+35873  10.786  31.731   3.456
70647ION    NA+35874  31.519  10.787   5.378
70648ION    NA+35875  19.913  21.499  13.296
70649ION    NA+35876   5.364  19.375   4.390
70650ION    NA+35877  10.526  12.296   1.746
70651ION    NA+35878  21.829  32.909  12.705
70652ION    NA+35879   2.779  21.738   3.657
70653ION    NA+35880   8.927  12.914   1.839
70654ION    NA+35881  19.621  43.367   3.659
70655ION    NA+35882  24.549   4.754   0.466
70656ION    NA+35883  19.813  20.236   3.186
70657ION    NA+35884   4.044   4.364  13.612
70658ION    NA+35885  39.811  14.935  14.812
70659ION    NA+35886  23.410   2.694   4.215
70660ION    NA+35887  31.738  35.744   9.903
70661ION    NA+35888  37.899  19.959   1.053
70662ION    NA+35889  42.573   9.094   3.293
70663ION    NA+35890  36.878  37.755   0.229
70664ION    NA+35891  23.008  23.208  13.367
70665ION    NA+35892  35.326   4.915  10.902
70666ION    NA+35893  12.646   9.862   2.795
70667ION    NA+35894  14.324  28.392  12.965
70668ION    NA+35895  32.863  18.749   3.270
70669ION    NA+35896  14.997  33.032  12.853
70670ION    NA+35897  44.468  36.846  11.552
70671ION    NA+35898  21.886  33.180   0.494
70672ION    NA+35899  25.277   1.927  10.803
70673ION    NA+35900  19.756  15.506   1.462
70674ION    NA+35901  12.010  33.062   1.301
70675ION    NA+35902  36.954   3.745  10.806
70676ION    NA+35903  16.690  18.052   1.994
70677ION    NA+35904   9.397  41.273  14.911
70678ION    NA+35905  28.302  40.053   4.248
70679ION    NA+35906  37.706  37.249  10.731
70680ION    NA+35907  31.709   0.962  12.170
70681ION    NA+35908  42.467  44.953  13.341
70682ION    NA+35909  32.073  15.219   0.179
70683ION    NA+35910  30.100  28.823   1.245
70684ION    NA+35911  33.432  17.519   2.333
70685ION    NA+35912   4.186  39.554  11.945
70686ION    NA+35913  38.492  19.470   2.408
70687ION    NA+35914   1.781   3.514   0.783
70688ION    NA+35915  30.774  41.751  13.286
70689ION    NA+35916   9.798  38.292  14.045
70690ION    NA+35917   4.228  40.369  14.447
70691ION    NA+35918  43.431  14.982  10.698
70692ION    NA+35919  17.206  16.745  14.029
70693ION    NA+35920  13.845   6.398  11.938
70694ION    NA+35921  18.186  31.243   1.865
70695ION    NA+35922  17.526  13.576  11.464
70696ION    NA+35923  29.808   2.195  12.719
70697ION    NA+35924  29.029   5.883  10.396
70698ION    NA+35925  38.546  35.042   2.004
70699ION    NA+35926  40.321  16.728   0.196
70700ION    NA+35927   6.786  39.609  14.499
70701ION    NA+35928  10.707  13.307  13.004
70702ION    NA+35929  16.472  20.333   0.332
70703ION    NA+35930  15.882   4.467  10.467
70704ION    NA+35931  34.002   8.813  12.403
70705ION    NA+35932  30.941  32.624   4.698
70706ION    NA+35933   4.795   8.658  13.580
70707ION    NA+35934  24.178  21.962   0.498
70708ION    NA+35935   4.956  12.960  13.249
70709ION    NA+35936  34.699  26.668  13.099
70710ION    NA+35937   3.963  17.819   2.968
70711ION    NA+35938  23.668  15.262  10.759
70712ION    NA+35939  36.391  30.700  12.064
70713ION    NA+35940  26.220   1.243   1.830
70714ION    NA+35941  11.121  21.860   3.315
70715ION    NA+35942  39.805  21.010  13.848
70716ION    NA+35943  26.679   9.481   0.264
70717ION    NA+35944  26.870  32.977   1.784
70718ION    NA+35945  29.786  34.288  13.720
70719ION    NA+35946   1.029  30.905  11.911
70720ION    NA+35947   4.317  27.624   4.596
70721ION    NA+35948  17.028  11.127  12.496
70722ION    NA+35949  33.432  34.184  12.864
70723ION    NA+35950  23.810  27.644   0.756
70724ION    NA+35951  12.561  22.257  13.547
70725ION    NA+35952  11.858  15.861  12.921
70726ION    NA+35953  13.777  38.362   1.557
70727ION    NA+35954  37.614  24.138   2.629
70728ION    NA+35955   7.965   1.835  10.527
70729ION    NA+35956  11.586  43.834   0.228
70730ION    NA+35957   6.023  23.266  10.753
70731ION    NA+35958   8.158  29.751  12.912
70732ION    NA+35959  16.235   9.295   4.125
70733ION    NA+35960   3.457  35.559   3.725
70734ION    NA+35961  13.307  39.864   2.745
70735ION    NA+35962  33.340  43.770   0.909
70736ION    NA+35963  16.666  28.188  11.632
70737ION    NA+35964  18.280   2.312  14.386
70738ION    NA+35965  39.256  31.656  13.692
70739ION    NA+35966  40.893  35.598  11.573
70740ION    NA+35967  17.898   8.261  12.592
70741ION    NA+35968  13.341  33.141  10.593
70742ION    NA+35969  10.495   7.399   2.774
70743ION    NA+35970   2.426  28.992   1.021
70744ION    NA+35971  40.147  19.086  13.326
70745ION    NA+35972  40.752  17.053   3.702
70746ION    NA+35973  36.997  39.057  14.357
70747ION    NA+35974   8.967  14.725   0.323
70748ION    NA+35975  26.215   6.138  12.715
70749ION    NA+35976  17.783  24.422   4.227
70750ION    NA+35977   9.003   3.795  10.787
70751ION    NA+35978  18.082   0.520   1.236
70752ION    NA+35979  34.400   1.214  11.559
70753ION    NA+35980  34.513  15.516   2.262
70754ION    NA+35981   0.660  38.864   5.042
70755ION    NA+35982  30.646   4.691   2.223
70756ION    NA+35983  39.122  22.077   1.256
70757ION    NA+35984  22.690  15.387   0.416
70758ION    NA+35985  43.061   1.779  10.893
70759ION    NA+35986  24.109  40.640  13.617
70760ION    NA+35987   0.756  35.881   3.602
70761ION    NA+35988  15.806  27.605   4.771
70762ION    NA+35989   5.956  44.759  12.714
70763ION    NA+35990  32.090  33.342  10.719
70764ION    NA+35991  42.995  36.384  11.096
70765ION    NA+35992  29.742  11.833   3.347
70766ION    NA+35993   4.765  17.021  12.860
70767ION    NA+35994  17.809  43.470  12.496
70768ION    NA+35995  38.787  30.623  13.150
70769ION    NA+35996  31.206  19.274   5.028
70770ION    NA+35997  26.711   8.688  11.965
70771ION    NA+35998  31.891  25.988  13.715
70772ION    NA+35999  28.736  32.100  14.012
70773ION    NA+36000   7.975  33.122  12.117
70774ION    NA+36001  44.741  29.348  11.577
70775ION    NA+36002  44.604  41.763   0.844
70776ION    NA+36003  10.948  44.761   3.587
70777ION    NA+36004   1.374  24.477  12.495
70778ION    NA+36005  27.681   0.412  10.237
70779ION    NA+36006  31.661   9.645  12.223
70780ION    NA+36007  17.035  17.229   0.431
70781ION    NA+36008  40.412  15.502   0.101
70782ION    NA+36009   8.184  31.391   0.030
70783ION    NA+36010  20.917   1.911   1.915
70784ION    NA+36011  25.237  21.937  11.531
70785ION    NA+36012  32.597  40.521  10.655
70786ION    NA+36013  29.254   2.842   2.447
70787ION    NA+36014  21.873  19.041   3.061
70788ION    NA+36015   0.422  21.933   2.015
70789ION    NA+36016  25.885  30.504   2.437
70790ION    NA+36017   8.087  16.846  10.239
70791ION    NA+36018  40.168  42.223  14.604
70792ION    NA+36019   2.303   6.077   2.424
70793ION    NA+36020  33.485  32.927  13.520
70794ION    NA+36021  16.684   1.495   3.846
70795ION    NA+36022   7.749  36.067  12.001
70796ION    NA+36023  23.312  25.545  14.995
70797ION    NA+36024   0.595  19.338   0.657
70798ION    NA+36025  16.799  35.452   4.111
70799ION    NA+36026  15.766  21.239   4.591
70800ION    NA+36027  38.646  10.826   3.218
70801ION    NA+36028  16.784  21.129   1.038
70802ION    NA+36029  19.074  12.964  11.211
70803ION    NA+36030  17.645   2.488  12.862
70804ION    NA+36031  28.771   8.214  14.686
70805ION    NA+36032  11.566  11.535  11.739
70806ION    NA+36033   3.486   0.174  12.039
70807ION    NA+36034  34.953  34.197   0.700
70808ION    NA+36035  19.697   9.088  14.588
70809ION    NA+36036  22.428  28.772   2.859
70810ION    NA+36037  30.000   6.064   3.516
70811ION    NA+36038   5.457   5.446   2.211
70812ION    NA+36039   4.218  10.624  11.259
70813ION    NA+36040  13.432  34.197  13.677
70814ION    NA+36041   2.399   7.061   2.278
70815ION    NA+36042  27.785  27.891  12.695
70816ION    NA+36043  16.224  29.991   1.364
70817ION    NA+36044  22.343  29.629  11.544
70818ION    NA+36045  28.946  13.078  13.513
70819ION    NA+36046  34.833   9.568  13.071
70820ION    NA+36047  38.161   0.692  14.502
70821ION    NA+36048  38.320   9.788   0.298
70822ION    NA+36049  16.033  31.173   2.080
70823ION    NA+36050   6.685  29.172  12.491
70824ION    NA+36051  33.370  31.233   3.972
70825ION    NA+36052  42.708  30.244  10.750
70826ION    NA+36053   6.244  34.489   4.047
70827ION    NA+36054  36.883  10.532  12.543
70828ION    NA+36055  26.204  34.026   3.312
70829ION    NA+36056  44.118   7.837   2.994
70830ION    NA+36057  26.285  15.442   2.814
70831ION    NA+36058  31.154  27.982   2.257
70832ION    NA+36059  32.271   8.842  11.664
70833ION    NA+36060  11.650  15.130  10.980
70834ION    NA+36061  41.723  15.425   3.672
70835ION    NA+36062  24.215   0.475   1.686
70836ION    NA+36063   1.505  25.593  12.978
70837ION    NA+36064   5.040  18.039  14.292
70838ION    NA+36065   4.258  24.679  10.007
70839ION    NA+36066   0.389   7.545  10.858
70840ION    NA+36067   5.987  30.057  12.000
70841ION    NA+36068   9.756  33.659   3.232
70842ION    NA+36069   0.499   5.808  13.801
70843ION    NA+36070  20.720  38.302   0.867
70844ION    NA+36071  24.464  32.125  13.072
70845ION    NA+36072  22.033   4.683   0.442
70846ION    NA+36073  27.515  22.616   3.020
70847ION    NA+36074  35.788   1.443   1.649
70848ION    NA+36075  36.535   3.212   5.185
70849ION    NA+36076   3.423  23.645  11.978
70850ION    NA+36077  22.286  23.567   0.025
70851ION    NA+36078   8.791   1.462  10.948
70852ION    NA+36079  36.303  26.151   2.313
70853ION    NA+36080  38.718  34.327   1.327
70854ION    NA+36081  32.896  23.760   3.858
70855ION    NA+36082  10.208   9.343   4.593
70856ION    NA+36083  23.197   1.735   1.176
70857ION    NA+36084   8.388  34.039   3.767
70858ION    NA+36085  11.203   3.019  14.720
70859ION    NA+36086  26.856   7.926   2.107
70860ION    NA+36087  32.676  40.101  13.428
70861ION    NA+36088  40.843  21.078   0.090
70862ION    NA+36089  31.791   8.712   4.506
70863ION    NA+36090  29.843  18.929  11.950
70864ION    NA+36091  34.845  39.734  10.359
70865ION    NA+36092  25.309  31.321   3.826
70866ION    NA+36093  37.224  16.765   2.306
70867ION    NA+36094   8.001  30.327  12.228
70868ION    NA+36095  10.992  15.594  12.497
70869ION    NA+36096  15.151  38.654  14.876
70870ION    NA+36097  14.657  16.554   2.279
70871ION    NA+36098  20.661   0.245   5.430
70872ION    NA+36099   7.198   6.174  11.226
70873ION    NA+36100  22.046  43.423   0.819
70874ION    NA+36101   1.220  10.269  11.630
70875ION    NA+36102  38.531  14.048   2.880
70876ION    NA+36103  44.293  16.201   1.438
70877ION    NA+36104   6.207   4.757  10.962
70878ION    NA+36105  36.050   4.260  14.754
70879ION    NA+36106  44.664  17.075  10.684
70880ION    NA+36107   8.266   2.862   4.162
70881ION    NA+36108  36.229  34.698  13.737
70882ION    NA+36109  20.689   5.333   2.256
70883ION    NA+36110  20.086   8.401  13.928
70884ION    NA+36111  15.207  37.576   0.910
70885ION    NA+36112  22.811  31.935   4.590
70886ION    NA+36113  39.971   3.431   3.651
70887ION    NA+36114  41.456  21.049   1.171
70888ION    NA+36115   1.004  34.043   4.605
70889ION    NA+36116  20.909  11.024   0.346
70890ION    NA+36117  15.097  28.049   4.223
70891ION    NA+36118  22.805  27.846   2.824
70892ION    NA+36119  15.008  12.495  11.151
70893ION    NA+36120  37.405  39.486  13.019
70894ION    NA+36121  35.237   8.478  14.509
70895ION    NA+36122  12.417   3.473   1.617
70896ION    NA+36123   4.045  21.469   2.098
70897ION    NA+36124   3.905  21.272   3.764
70898ION    NA+36125  29.020  18.124  11.132
70899ION    NA+36126   8.649  16.142  13.475
70900ION    NA+36127   4.472  36.956  13.355
70901ION    NA+36128  42.946  11.357  11.328
70902ION    NA+36129  33.312  14.714   1.985
70903ION    NA+36130  19.677  15.304  10.646
70904ION    NA+36131   1.375  39.933  13.682
70905ION    NA+36132  11.125  29.025  12.477
70906ION    NA+36133  22.214  27.705  10.688
70907ION    NA+36134  16.114  21.262   0.238
70908ION    NA+36135  15.338   0.876  10.808
70909ION    NA+36136  16.181   5.504  13.867
70910ION    NA+36137  27.217   4.014  13.436
70911ION    NA+36138  41.313   2.202  11.786
70912ION    NA+36139  10.559  41.979   0.326
70913ION    NA+36140   3.231  18.325   2.816
70914ION    NA+36141  44.022  25.257   0.489
70915ION    NA+36142  24.130  38.668  12.940
70916ION    NA+36143  13.251  17.995   0.459
70917ION    NA+36144  11.095  27.461   0.288
70918ION    NA+36145   0.067  32.837  13.998
70919ION    NA+36146  30.773  25.454   3.531
70920ION    NA+36147  34.241  25.928  13.769
70921ION    NA+36148  43.661  43.285  13.541
70922ION    NA+36149  23.784  39.502   4.101
70923ION    NA+36150  10.654   2.996  11.715
70924ION    NA+36151  16.555  15.150   4.615
70925ION    NA+36152  29.349  43.577   0.927
70926ION    NA+36153  34.934  38.105  13.299
70927ION    NA+36154  31.316  23.165  14.893
70928ION    NA+36155  37.779  25.881  11.213
70929ION    NA+36156  30.227  24.415  12.553
70930ION    NA+36157  25.730  36.922   2.473
70931ION    NA+36158  15.054  35.942  12.568
70932ION    NA+36159   1.263   4.443  12.555
70933ION    NA+36160  17.465  30.267   3.014
70934ION    NA+36161  15.762  21.510  11.409
70935ION    NA+36162  36.003  20.193  13.120
70936ION    NA+36163   7.640  15.373  14.935
70937ION    NA+36164   7.513  41.366   9.868
70938ION    NA+36165  13.764   8.012  13.479
70939ION    NA+36166  15.850  32.586  13.127
70940ION    NA+36167  25.238  19.032  10.624
70941ION    NA+36168   3.151  21.406   1.897
70942ION    NA+36169  29.997  28.756   3.622
70943ION    NA+36170   0.548   9.500  10.785
70944ION    NA+36171   4.325  12.350  13.023
70945ION    NA+36172  40.163  12.378   3.153
70946ION    NA+36173   5.651  26.330  14.182
70947ION    NA+36174  11.319  36.512   0.916
70948ION    NA+36175   6.854  16.637   0.094
70949ION    NA+36176  19.712  20.450   1.131
70950ION    NA+36177   5.010  40.989  10.768
70951ION    NA+36178  40.063  26.231   2.896
70952ION    NA+36179  37.969  27.045   5.014
70953ION    NA+36180  39.063  29.691  14.985
70954ION    NA+36181  13.069  23.476   4.844
70955ION    NA+36182  21.347  40.175   0.015
70956ION    NA+36183   3.591  25.626  12.011
70957ION    NA+36184  15.089  36.072  13.920
70958ION    NA+36185  25.692  14.389   3.734
70959ION    NA+36186  35.280  12.051   5.127
70960ION    NA+36187   5.707  40.669  13.229
70961ION    NA+36188   7.442  38.842  14.447
70962ION    NA+36189  43.878  33.850  13.410
70963ION    NA+36190  25.420  15.852  12.105
70964ION    NA+36191  27.105  40.637   4.396
70965ION    NA+36192  29.619  22.929  11.186
70966ION    NA+36193  15.611  38.554   4.139
70967ION    NA+36194  29.938  30.500   0.716
70968ION    NA+36195  31.393  21.209   1.311
70969ION    NA+36196   8.136  36.465   4.599
70970ION    NA+36197  44.976  37.056   1.423
70971ION    NA+36198  34.996  18.447   0.069
70972ION    NA+36199  18.393  41.004   3.281
70973ION    NA+36200  29.376  21.697   4.009
70974ION    NA+36201   4.185  40.460  11.520
70975ION    NA+36202  20.210  29.475  11.841
70976ION    NA+36203  41.487   0.386  11.765
70977ION    NA+36204  32.062  44.805   4.005
70978ION    NA+36205  34.595  26.466   0.226
70979ION    NA+36206   5.166   4.684  12.511
70980ION    NA+36207   4.498  27.581   3.212
70981ION    NA+36208   0.840  15.607  13.329
70982ION    NA+36209   5.026  10.971   2.859
70983ION    NA+36210   0.532   0.919  10.904
70984ION    NA+36211  18.393  38.893   0.637
70985ION    NA+36212  24.723  31.583  14.566
70986ION    NA+36213  19.606  38.236  14.144
70987ION    NA+36214  31.919   9.870   3.518
70988ION    NA+36215  23.469  27.073  13.650
70989ION    NA+36216  19.830  32.231   4.085
70990ION    NA+36217  32.014  36.282   3.190
70991ION    NA+36218  15.409  21.412  12.339
70992ION    NA+36219  18.970  36.474   1.857
70993ION    NA+36220  37.667  26.276   1.861
70994ION    NA+36221  33.254   5.856   9.937
70995ION    NA+36222  36.880  43.693  11.671
70996ION    NA+36223  38.115  27.677   3.728
70997ION    NA+36224  12.153   8.840   1.210
70998ION    NA+36225   9.368  34.513  14.431
70999ION    NA+36226  31.443  35.179  11.092
71000ION    NA+36227  19.054   9.711  11.989
71001ION    NA+36228  33.414  43.379   3.329
71002ION    NA+36229   8.234  11.924   0.863
71003ION    NA+36230  26.830   0.707   5.346
71004ION    NA+36231  15.114  11.932   4.851
71005ION    NA+36232  17.084  13.285  14.630
71006ION    NA+36233   0.957  19.346   3.235
71007ION    NA+36234  14.714  14.486  10.620
71008ION    NA+36235   8.909  28.545  14.712
71009ION    NA+36236   2.430  35.891  11.690
71010ION    NA+36237  39.211  36.928   0.185
71011ION    NA+36238  33.747  25.141  11.188
71012ION    NA+36239  15.253  26.755   3.638
71013ION    NA+36240  26.887  29.159   0.576
71014ION    NA+36241  19.809  34.261   2.074
71015ION    NA+36242  23.160  22.837  14.902
71016ION    NA+36243  23.489  10.902  13.006
71017ION    NA+36244   9.899  37.520   2.323
71018ION    NA+36245  34.626  38.707   2.987
71019ION    NA+36246  31.331  44.398   1.690
71020ION    NA+36247  22.522  18.795  13.791
71021ION    NA+36248  20.122  30.485   2.894
71022ION    NA+36249   5.459  12.250   2.763
71023ION    NA+36250  22.212  39.273   1.837
71024ION    NA+36251  10.003  38.047  12.276
71025ION    NA+36252  35.311  38.331   9.778
71026ION    NA+36253  10.103   2.381   2.894
71027ION    NA+36254  31.923   4.398   2.195
71028ION    NA+36255   4.948   7.784  11.508
71029ION    NA+36256  30.023  27.273   0.518
71030ION    NA+36257   5.392  28.250   9.516
71031ION    NA+36258  16.558  12.139  14.948
71032ION    NA+36259  15.073   7.490  12.484
71033ION    NA+36260   7.961  30.049   3.455
71034ION    NA+36261  34.745   7.094   4.167
71035ION    NA+36262  26.351  39.220  14.051
71036ION    NA+36263  29.045  32.636   1.766
71037ION    NA+36264  34.460   1.019   4.588
71038ION    NA+36265  15.100   2.076   4.576
71039ION    NA+36266  10.966  30.572   4.318
71040ION    NA+36267  30.510   7.403   0.363
71041ION    NA+36268  40.065  11.979   4.787
71042ION    NA+36269   8.099  32.585   1.803
71043ION    NA+36270  35.193  40.506   1.200
71044ION    NA+36271  14.168  19.703   4.638
71045ION    NA+36272  11.839  12.069  12.385
71046ION    NA+36273  25.516  23.978   0.492
71047ION    NA+36274  40.908  44.776  13.391
71048ION    NA+36275  42.758  32.688  12.433
71049ION    NA+36276  28.209  13.294   9.871
71050ION    NA+36277  17.799  32.131  11.457
71051ION    NA+36278   3.931  39.059   3.743
71052ION    NA+36279  15.300  18.013   2.840
71053ION    NA+36280  22.697  37.624   3.207
71054ION    NA+36281  27.236  17.096   0.163
71055ION    NA+36282  27.571  21.254   2.901
71056ION    NA+36283  31.677  38.152   1.236
71057ION    NA+36284  44.436  27.344   1.268
71058ION    NA+36285   2.961  11.272   1.565
71059ION    NA+36286  43.311  22.819   3.435
71060ION    NA+36287  10.020  23.731   2.739
71061ION    NA+36288  18.433   7.006  13.238
71062ION    NA+36289  12.853   3.637  12.082
71063ION    NA+36290   0.958  16.442   2.931
71064ION    NA+36291  27.159  30.442   2.124
71065ION    NA+36292  36.192  31.267   1.511
71066ION    NA+36293  40.982  37.397  10.249
71067ION    NA+36294  30.605   2.391   4.397
71068ION    NA+36295  35.978  27.901   0.473
71069ION    NA+36296   5.881  42.722   2.887
71070ION    NA+36297  14.282   4.446   1.629
71071ION    NA+36298  14.825  12.322   0.854
71072ION    NA+36299  14.218  20.621  12.530
71073ION    NA+36300  37.439   4.207  11.550
71074ION    NA+36301  42.271  25.589   0.126
71075ION    NA+36302  21.429  35.641   4.861
71076ION    NA+36303  24.863  36.914   3.026
71077ION    NA+36304  33.523   0.474  12.045
71078ION    NA+36305  27.531   8.718  12.602
71079ION    NA+36306  42.930   0.825   3.729
71080ION    NA+36307  35.350   7.627  13.995
71081ION    NA+36308   8.541  33.492   5.293
71082ION    NA+36309   1.795   0.914   1.159
71083ION    NA+36310   7.723  18.677   0.002
71084ION    NA+36311  10.733  44.880   2.604
71085ION    NA+36312  34.218  40.955   4.251
71086ION    NA+36313  29.239  13.390  12.643
71087ION    NA+36314  11.377  25.415   2.806
71088ION    NA+36315  28.148  37.044  12.234
71089ION    NA+36316  38.839  12.528   1.467
71090ION    NA+36317  36.274  30.029  14.109
71091ION    NA+36318  27.178  28.935  13.115
71092ION    NA+36319  29.540   2.703  13.537
71093ION    NA+36320  13.164   8.115  11.469
71094ION    NA+36321  24.766   9.986   0.433
71095ION    NA+36322  14.713  12.974   4.065
71096ION    NA+36323   6.714  21.852   0.614
71097ION    NA+36324  44.739   0.593  11.768
71098ION    NA+36325   1.592  25.006  11.827
71099ION    NA+36326  32.891  18.978  11.070
71100ION    NA+36327  20.244  26.500  11.691
71101ION    NA+36328   9.757  30.258   0.116
71102ION    NA+36329   5.221  22.408  11.057
71103ION    NA+36330   9.611  18.364   1.701
71104ION    NA+36331  23.477   0.204  11.137
71105ION    NA+36332  13.861  12.545   4.757
71106ION    NA+36333  35.700  33.684   0.882
71107ION    NA+36334  20.796  21.703   1.964
71108ION    NA+36335  43.587  22.361   5.224
71109ION    NA+36336   7.715  29.551  13.738
71110ION    NA+36337  35.640  15.358   4.206
71111ION    NA+36338  28.535  13.774  12.924
71112ION    NA+36339   5.758  20.804   4.241
71113ION    NA+36340  41.765  30.689  12.835
71114ION    NA+36341   5.735   6.886   2.188
71115ION    NA+36342   5.826  10.362   3.239
71116ION    NA+36343  32.677  40.035  14.746
71117ION    NA+36344   3.677   1.591  14.749
71118ION    NA+36345  26.499  14.661  11.192
71119ION    NA+36346  19.206  35.989  14.545
71120ION    NA+36347   2.923   1.810   0.788
71121ION    NA+36348  41.651   2.047  13.981
71122ION    NA+36349  22.239  19.216   2.147
71123ION    NA+36350   5.658  35.543  13.338
71124ION    NA+36351  18.899  28.642   2.643
71125ION    NA+36352  22.655  42.424   1.941
71126ION    NA+36353  43.264  11.286  14.564
71127ION    NA+36354  36.305   5.296  11.691
71128ION    NA+36355   4.321  44.085  11.954
71129ION    NA+36356  21.560  16.417   3.810
71130ION    NA+36357   4.293   2.462  14.414
71131ION    NA+36358   5.362  33.108   0.467
71132ION    NA+36359  17.147  24.005   2.050
71133ION    NA+36360  29.193   5.244  12.203
71134ION    NA+36361   7.586  15.354  13.658
71135ION    NA+36362  33.755  42.859  12.009
71136ION    NA+36363  18.907   9.346   3.921
71137ION    NA+36364  13.922  15.489   2.643
71138ION    NA+36365  30.648   9.136  13.442
71139ION    NA+36366  24.648  10.867   4.611
71140ION    NA+36367  31.901  13.214  14.301
71141ION    NA+36368  12.650  28.615  12.612
71142ION    NA+36369  24.850  40.113  13.456
71143ION    NA+36370  36.818  17.583  13.226
71144ION    NA+36371  27.052  25.906  10.576
71145ION    NA+36372  14.805  29.157   0.409
71146ION    NA+36373  19.625  26.606   2.716
71147ION    NA+36374  29.061  19.376  14.053
71148ION    NA+36375  37.972  42.262   3.229
71149ION    NA+36376  43.736  14.022   2.272
71150ION    NA+36377   9.721  10.886  11.571
71151ION    NA+36378  30.932  23.645   2.474
71152ION    NA+36379  11.728  28.129   1.320
71153ION    NA+36380  11.951  18.937  12.353
71154ION    NA+36381  16.446  27.644   4.004
71155ION    NA+36382   3.022  25.957  11.417
71156ION    NA+36383   2.007  19.436  10.599
71157ION    NA+36384  16.617  36.989   0.492
71158ION    NA+36385   0.453  24.077   5.420
71159ION    NA+36386  29.137   5.531   1.222
71160ION    NA+36387  12.651  15.198  13.036
71161ION    NA+36388  39.036  13.267  14.807
71162ION    NA+36389  14.522  23.759  12.050
71163ION    NA+36390   3.435  42.528  13.375
71164ION    NA+36391  39.210  30.234   3.451
71165ION    NA+36392  30.636  30.175   3.238
71166ION    NA+36393  43.928  30.349  11.703
71167ION    NA+36394  27.188  28.120  10.696
71168ION    NA+36395  30.704  16.590   4.790
71169ION    NA+36396   6.620  22.490  11.233
71170ION    NA+36397  32.706  28.615  11.139
71171ION    NA+36398   6.438  40.062  12.917
71172ION    NA+36399   3.359   5.823  12.944
71173ION    NA+36400  43.561  15.570   1.178
71174ION    NA+36401  30.551  44.457  11.158
71175ION    NA+36402   9.002  27.230   3.127
71176ION    NA+36403   2.250  10.742  12.435
71177ION    NA+36404  34.080   9.827   4.303
71178ION    NA+36405  39.821  30.033   0.652
71179ION    NA+36406  22.795  28.933   1.788
71180ION    NA+36407  43.062  16.238   4.625
71181ION    NA+36408   9.954  37.746  13.132
71182ION    NA+36409  18.409   7.681  10.632
71183ION    NA+36410  24.660  36.679  14.892
71184ION    NA+36411  28.037  27.465   0.290
71185ION    NA+36412   4.765   6.372   1.397
71186ION    NA+36413   0.995  44.833   0.543
71187ION    NA+36414  14.650  31.383  13.546
71188ION    NA+36415  44.033  43.887  11.394
71189ION    NA+36416   7.177   4.663  11.264
71190ION    NA+36417   5.668  43.929  10.341
71191ION    NA+36418  21.042  16.489   4.562
71192ION    NA+36419  36.061  26.750  14.197
71193ION    NA+36420  28.459   2.955  11.957
71194ION    NA+36421  19.963   0.052  14.889
71195ION    NA+36422  37.018   7.260   1.462
71196ION    NA+36423  13.165   4.634  11.040
71197ION    NA+36424  17.362   0.288  10.851
71198ION    NA+36425  14.581  13.183  14.754
71199ION    NA+36426  14.875  43.693  14.972
71200ION    NA+36427  13.345  14.722   2.362
71201ION    NA+36428  26.654  33.606  11.760
71202ION    NA+36429  17.670  21.191   0.578
71203ION    NA+36430  32.184  44.781   4.998
71204ION    NA+36431  41.191  11.092  11.183
71205ION    NA+36432  14.400  29.036   1.747
71206ION    NA+36433  43.933  10.756   3.357
71207ION    NA+36434   4.174  23.795   2.910
71208ION    NA+36435  10.271  26.556  13.588
71209ION    NA+36436  19.349  26.488  10.656
71210ION    NA+36437  25.714   6.896   4.058
71211ION    NA+36438  44.601   7.256   3.439
71212ION    NA+36439  21.380  15.304   0.923
71213ION    NA+36440  23.465  32.550  11.748
71214ION    NA+36441   5.423  34.369   2.148
71215ION    NA+36442  33.340   5.123  10.257
71216ION    NA+36443  43.316  28.420   4.734
71217ION    NA+36444  42.938  27.152   1.406
71218ION    NA+36445   1.266  34.495   2.437
71219ION    NA+36446   1.391  23.586   0.339
71220ION    NA+36447   7.847  22.562  13.426
71221ION    NA+36448  15.065  25.102   3.875
71222ION    NA+36449  35.675   4.263  11.575
71223ION    NA+36450  11.203   2.311  12.661
71224ION    NA+36451   1.732  19.205  13.925
71225ION    NA+36452   3.683  11.253  10.696
71226ION    NA+36453  17.163  24.683  14.316
71227ION    NA+36454  21.282  26.607  11.915
71228ION    NA+36455  34.702   2.413   2.007
71229ION    NA+36456   8.445  37.910   1.892
71230ION    NA+36457  20.766  22.983  13.974
71231ION    NA+36458  27.761   5.314   2.925
71232ION    NA+36459  15.077  31.359  14.450
71233ION    NA+36460  24.141  34.291  10.795
71234ION    NA+36461   8.417  13.393   1.237
71235ION    NA+36462  23.527  34.821   1.226
71236ION    NA+36463  18.262   5.881   2.877
71237ION    NA+36464  21.045   9.341  13.816
71238ION    NA+36465  18.668  34.256   0.343
71239ION    NA+36466  26.027  27.195  12.032
71240ION    NA+36467   2.885  14.761   3.120
71241ION    NA+36468  13.248  19.272   4.574
71242ION    NA+36469  24.318  35.779   5.416
71243ION    NA+36470  13.440  44.441  13.289
71244ION    NA+36471   5.431  16.969  11.243
71245ION    NA+36472  33.916  24.941  12.153
71246ION    NA+36473   2.418  17.399   0.302
71247ION    NA+36474  30.176  42.056   0.495
71248ION    NA+36475  44.755   1.741   3.783
71249ION    NA+36476  43.798  34.205   1.221
71250ION    NA+36477  28.025  39.925   0.480
71251ION    NA+36478  20.580  16.701  13.525
71252ION    NA+36479  44.266   5.710  11.701
71253ION    NA+36480   1.876  29.711  11.324
71254ION    NA+36481  41.232  29.859  13.005
71255ION    NA+36482  12.223   7.255   1.831
71256ION    NA+36483  18.993   0.679   2.112
71257ION    NA+36484   5.897  12.816   1.889
71258ION    NA+36485   9.883  42.315  12.829
71259ION    NA+36486  30.425  15.983   3.090
71260ION    NA+36487   8.849   0.932   1.339
71261ION    NA+36488  33.295  36.127  13.104
71262ION    NA+36489   7.685  10.385  11.883
71263ION    NA+36490   8.314   4.603   4.025
71264ION    NA+36491  23.033  14.084   4.494
71265ION    NA+36492  20.667   2.224   0.487
71266ION    NA+36493  36.269  18.991  13.026
71267ION    NA+36494   2.774  25.331  10.838
71268ION    NA+36495  39.755  33.935  11.774
71269ION    NA+36496  36.367  40.256   4.335
71270ION    NA+36497  23.222   3.720  14.954
71271ION    NA+36498  25.732  40.157   3.829
71272ION    NA+36499   2.194  42.398  12.618
71273ION    NA+36500  31.881   4.871  13.422
71274ION    NA+36501  42.889  44.555   1.853
71275ION    NA+36502  34.222  16.269   2.746
71276ION    NA+36503  23.854  11.577   4.684
71277ION    NA+36504  38.698  19.986   0.616
71278ION    NA+36505  28.565   7.233   3.435
71279ION    NA+36506   2.694   4.521  11.047
71280ION    NA+36507   8.175   9.707   3.887
71281ION    NA+36508  24.358  15.205   3.449
71282ION    NA+36509  14.292  40.441  13.245
71283ION    NA+36510  34.596  29.539   2.249
71284ION    NA+36511  22.289   2.740   2.425
71285ION    NA+36512   0.756  30.453   0.253
71286ION    NA+36513  22.648   8.649  13.012
71287ION    NA+36514  18.013  33.794  10.963
71288ION    NA+36515   5.794  44.342   4.163
71289ION    NA+36516   0.838  40.528  11.123
71290ION    NA+36517   1.538  10.515   1.295
71291ION    NA+36518   2.902   6.613   4.643
71292ION    NA+36519  24.312   0.034   3.508
71293ION    NA+36520  11.206   3.466   2.945
71294ION    NA+36521   5.684  11.609  13.076
71295ION    NA+36522  28.436  36.839  10.401
71296ION    NA+36523   2.682  42.971   3.739
71297ION    NA+36524   1.158  27.714   0.958
71298ION    NA+36525   0.099  44.220   4.688
71299ION    NA+36526  21.986  22.853  11.086
71300ION    NA+36527  18.675   6.958   9.856
71301ION    NA+36528  39.724  30.715  14.103
71302ION    NA+36529  12.509   8.801   2.687
71303ION    NA+36530  13.376   5.968  13.508
71304ION    NA+36531   8.038  34.061   5.155
71305ION    NA+36532  28.660  13.332  14.949
71306ION    NA+36533   1.231  43.102  11.779
71307ION    NA+36534   1.667  24.372   2.470
71308ION    NA+36535  42.145  39.608   3.111
71309ION    NA+36536   5.017  13.450   2.763
71310ION    NA+36537  30.661  29.665   4.472
71311ION    NA+36538  39.042  13.439   1.109
71312ION    NA+36539  39.413   9.661  10.784
71313ION    NA+36540  27.020  25.492  13.816
71314ION    NA+36541  11.271  16.699  10.433
71315ION    NA+36542  17.094  34.263  12.175
71316ION    NA+36543  35.002   0.465  11.073
71317ION    NA+36544  42.613  33.107   0.702
71318ION    NA+36545  43.124  25.186   4.707
71319ION    NA+36546  31.091  25.074   9.894
71320ION    NA+36547   1.717   1.723  12.468
71321ION    NA+36548  23.926  39.464  11.466
71322ION    NA+36549  34.637  30.244  10.979
71323ION    NA+36550  31.554   3.316   1.019
71324ION    NA+36551  34.150   9.713   1.957
71325ION    NA+36552  37.880  10.208  12.760
71326ION    NA+36553  44.880  40.525  12.939
71327ION    NA+36554   7.518  32.053  10.757
71328ION    NA+36555  27.708  35.365   0.283
71329ION    NA+36556  13.114  15.933   4.663
71330ION    NA+36557  31.362  37.316  14.451
71331ION    NA+36558  39.797  20.761  10.124
71332ION    NA+36559   2.140   9.516   4.971
71333ION    NA+36560   5.133  14.894  10.751
71334ION    NA+36561  10.847  28.116  12.168
71335ION    NA+36562  21.298  15.837   3.035
71336ION    NA+36563  18.506  21.604  10.716
71337ION    NA+36564  13.214  27.525   2.780
71338ION    NA+36565   3.414   6.271   2.657
71339ION    NA+36566  21.762  33.490  13.517
71340ION    NA+36567  13.263  12.870  10.431
71341ION    NA+36568  23.100  22.294   1.461
71342ION    NA+36569  40.317   8.173  13.999
71343ION    NA+36570  41.441  35.452   3.109
71344ION    NA+36571  28.769  23.037  14.568
71345ION    NA+36572  36.681   1.267   1.146
71346ION    NA+36573  28.321  39.990   3.170
71347ION    NA+36574  14.584  42.768   1.942
71348ION    NA+36575   7.746  25.533  13.431
71349ION    NA+36576  35.164  19.440   4.902
71350ION    NA+36577  29.907  12.284  12.150
71351ION    NA+36578  16.725  23.013  11.781
71352ION    NA+36579  33.670  35.847  12.221
71353ION    NA+36580  27.209  16.871   0.991
71354ION    NA+36581  36.183  37.541   1.838
71355ION    NA+36582   9.273  15.962   2.940
71356ION    NA+36583  27.250  29.171   4.928
71357ION    NA+36584   6.720  17.699   0.289
71358ION    NA+36585   6.948  11.516   4.474
71359ION    NA+36586  29.643  11.289   0.733
71360ION    NA+36587  13.035  34.045  12.023
71361ION    NA+36588  34.575   6.264  12.461
71362ION    NA+36589  17.716  17.533   3.380
71363ION    NA+36590  14.606  36.720   1.866
71364ION    NA+36591  32.402  32.636   1.746
71365ION    NA+36592   1.314   9.430  13.423
71366ION    NA+36593  28.095  26.565  10.600
71367ION    NA+36594  33.085  25.265   4.228
71368ION    NA+36595  12.559  43.447   3.602
71369ION    NA+36596  20.760  33.117   3.388
71370ION    NA+36597  31.049  22.033  12.744
71371ION    NA+36598  29.151  14.269   3.726
71372ION    NA+36599  37.052  21.370   1.422
71373ION    NA+36600  34.393  37.284  12.998
71374ION    NA+36601   3.314   5.232   3.820
71375ION    NA+36602  29.878   0.981  12.180
71376ION    NA+36603  35.621  36.608  14.103
71377ION    NA+36604  27.228  21.497  14.327
71378ION    NA+36605   2.869   5.021  13.326
71379ION    NA+36606   9.534   2.984  10.433
71380ION    NA+36607  17.011   5.107   0.317
71381ION    NA+36608  15.803  38.744   0.630
71382ION    NA+36609  21.283  12.019  12.752
71383ION    NA+36610  16.357  11.918   2.450
71384ION    NA+36611   9.359  21.200  14.452
71385ION    NA+36612   8.231  28.279   3.643
71386ION    NA+36613  43.173  39.465  14.485
71387ION    NA+36614  19.063  18.463   3.534
71388ION    NA+36615   0.033   1.524  14.423
71389ION    NA+36616  44.625  23.675   4.437
71390ION    NA+36617   9.253  25.742  11.638
71391ION    NA+36618  29.996   6.987   3.488
71392ION    NA+36619  39.802  33.666  13.350
71393ION    NA+36620  20.055   5.925   1.664
71394ION    NA+36621  13.415   4.864  12.492
71395ION    NA+36622   8.707  34.718  11.684
71396ION    NA+36623  18.208  24.150   0.565
71397ION    NA+36624  39.557   7.166  12.967
71398ION    NA+36625  36.627  40.071  12.792
71399ION    NA+36626  18.904   5.308  10.698
71400ION    NA+36627  41.976  24.978   3.999
71401ION    NA+36628  33.602  14.906  11.931
71402ION    NA+36629   6.141  32.004  14.905
71403ION    NA+36630  28.944  16.083   3.206
71404ION    NA+36631  15.297  11.473  13.890
71405ION    NA+36632  17.899  25.194   3.788
71406ION    NA+36633  40.522  23.219  14.367
71407ION    NA+36634  17.467  42.186  13.113
71408ION    NA+36635  40.439   3.634   0.797
71409ION    NA+36636  35.896  33.851  12.067
71410ION    NA+36637  22.103  43.935  13.955
71411ION    NA+36638  20.693  21.487   0.481
71412ION    NA+36639   3.423  30.652   2.054
71413ION    NA+36640  33.130  11.705   2.764
71414ION    NA+36641  16.106  40.210   2.846
71415ION    NA+36642  14.290  10.796  14.795
71416ION    NA+36643  30.019  23.894   3.904
71417ION    NA+36644  15.269  12.232   3.689
71418ION    NA+36645   6.575   5.660  10.636
71419ION    NA+36646  28.616  33.083  10.683
71420ION    NA+36647  17.068  22.272  13.483
71421ION    NA+36648  12.754   5.984  12.825
71422ION    NA+36649  28.630  16.618  14.942
71423ION    NA+36650  20.174  42.455   1.167
71424ION    NA+36651   1.294  23.638   1.789
71425ION    NA+36652  35.035   2.457  10.693
71426ION    NA+36653  26.772  43.422  14.684
71427ION    NA+36654  20.840  34.896  13.716
71428ION    NA+36655  13.220  28.724  13.512
71429ION    NA+36656  17.341   3.208  10.776
71430ION    NA+36657  31.690   3.363  12.377
71431ION    NA+36658   0.361  41.296   3.051
71432ION    NA+36659  28.249  14.615   2.066
71433ION    NA+36660  12.259  13.803  12.994
71434ION    NA+36661  11.691  22.400  13.322
71435ION    NA+36662  10.870  17.263  11.160
71436ION    NA+36663  21.083  14.058  13.830
71437ION    NA+36664  11.761  12.803   3.182
71438ION    NA+36665   2.344  28.885  13.449
71439ION    NA+36666  21.895  21.984  13.752
71440ION    NA+36667   0.420  33.372  11.162
71441ION    NA+36668   5.955   3.555  13.833
71442ION    NA+36669  14.257  20.548   3.636
71443ION    NA+36670  12.793  20.811  11.558
71444ION    NA+36671  43.042   9.125  13.416
71445ION    NA+36672  44.914  22.520  13.795
71446ION    NA+36673  23.249  23.074  10.753
71447ION    NA+36674  29.888  16.316  14.519
71448ION    NA+36675  20.300  31.403  11.489
71449ION    NA+36676  40.550  23.499   3.268
71450ION    NA+36677  38.584  32.707  13.325
71451ION    NA+36678  14.779  39.812  12.813
71452ION    NA+36679  26.764   5.869  11.393
71453ION    NA+36680  21.408  21.067   1.492
71454ION    NA+36681   0.259  27.776   0.900
71455ION    NA+36682  39.913  32.207   3.284
71456ION    NA+36683  40.480  18.862  11.259
71457ION    NA+36684  41.712  10.944   3.960
71458ION    NA+36685  27.964  10.663   1.318
71459ION    NA+36686  33.601  29.578   4.479
71460ION    NA+36687  21.757  23.977   5.372
71461ION    NA+36688  42.168  21.755  12.252
71462ION    NA+36689  20.262  15.514   2.396
71463ION    NA+36690   3.186  36.617  13.990
71464ION    NA+36691  43.668   2.025   2.507
71465ION    NA+36692  13.601  10.917  13.289
71466ION    NA+36693  36.718  19.808   3.095
71467ION    NA+36694   9.355  25.898   0.328
71468ION    NA+36695  10.637  41.605  14.401
71469ION    NA+36696  43.015  14.823  11.593
71470ION    NA+36697  12.446  27.925   0.616
71471ION    NA+36698  38.812  20.887  13.036
71472ION    NA+36699   7.229   6.137   1.965
71473ION    NA+36700  34.121  34.576   0.770
71474ION    NA+36701  14.304  37.679  10.119
71475ION    NA+36702   8.059  36.566  13.872
71476ION    NA+36703  33.040  29.765  12.505
71477ION    NA+36704  24.427  13.558  13.620
71478ION    NA+36705  12.764  25.141   2.777
71479ION    NA+36706   0.773   1.638  12.786
71480ION    NA+36707  12.656  30.161   1.776
71481ION    NA+36708  16.608  35.132  10.788
71482ION    NA+36709  18.296   8.423  11.293
71483ION    NA+36710  40.452  24.288   2.199
71484ION    NA+36711  41.428  26.558   0.941
71485ION    NA+36712  36.851  21.051   0.582
71486ION    NA+36713  32.953   5.186  13.852
71487ION    NA+36714  28.345  24.465  12.542
71488ION    NA+36715   1.973  38.349   1.736
71489ION    NA+36716   9.027  13.527   0.457
71490ION    NA+36717   5.952  33.342   2.354
71491ION    NA+36718  33.338  44.938   3.471
71492ION    NA+36719  40.846  11.854   4.175
71493ION    NA+36720  31.053   0.088  13.587
71494ION    NA+36721  44.395  28.979  12.895
71495ION    NA+36722  38.631  37.113   3.243
71496ION    NA+36723  26.374  33.707  10.411
71497ION    NA+36724  23.099  29.113   3.372
71498ION    NA+36725   8.997  19.192  13.963
71499ION    NA+36726  14.689  15.774  14.372
71500ION    NA+36727  37.206  36.682  11.088
71501ION    NA+36728  16.017  17.740  12.860
71502ION    NA+36729  23.974   4.230   3.576
71503ION    NA+36730  13.996  13.720  14.823
71504ION    NA+36731  15.061   9.079  14.889
71505ION    NA+36732  12.079  19.733   3.315
71506ION    NA+36733  44.691   3.441   2.080
71507ION    NA+36734   9.378   0.221   1.612
71508ION    NA+36735  24.331   7.668  14.634
71509ION    NA+36736  10.808  41.867   1.849
71510ION    NA+36737  28.938  18.536   4.498
71511ION    NA+36738   8.949  22.598  10.811
71512ION    NA+36739  26.742  32.071   1.596
71513ION    NA+36740   7.081   7.978   2.787
71514ION    NA+36741  15.003  33.437  14.505
71515ION    NA+36742   4.226  27.669  14.270
71516ION    NA+36743  31.602  41.967  10.967
71517ION    NA+36744  29.209  11.849  11.774
71518ION    NA+36745  38.047  35.552   4.428
71519ION    NA+36746   7.664  11.604   4.859
71520ION    NA+36747   8.146  20.250  14.436
71521ION    NA+36748  11.866   3.105  11.553
71522ION    NA+36749  14.663  40.955  10.638
71523ION    NA+36750  10.870  20.781   0.157
71524ION    NA+36751  31.445   5.828   0.735
71525ION    NA+36752   6.200  32.709   3.087
71526ION    NA+36753  34.406  18.363  13.959
71527ION    NA+36754   8.450  22.820  11.649
71528ION    NA+36755  34.213  37.801  14.843
71529ION    NA+36756  39.002   8.331  11.486
71530ION    NA+36757   2.808  41.084  10.878
71531ION    NA+36758  22.572  24.584  12.795
71532ION    NA+36759   6.224  12.290  11.339
71533ION    NA+36760  36.663  28.219  10.762
71534ION    NA+36761   4.893  41.296   4.271
71535ION    NA+36762  27.800  12.419  10.264
71536ION    NA+36763  27.456  39.985   2.668
71537ION    NA+36764  40.829  38.365   2.828
71538ION    NA+36765  40.305   3.694  11.200
71539ION    NA+36766  20.863  10.184  14.323
71540ION    NA+36767   5.025  38.477  11.672
71541ION    NA+36768  42.465  13.448  13.562
71542ION    NA+36769  28.097  32.904  14.577
71543ION    NA+36770  10.979  16.259   2.065
71544ION    NA+36771   4.274  43.838  13.004
71545ION    NA+36772  30.645  17.347  11.379
71546ION    NA+36773   9.842   8.814   1.297
71547ION    NA+36774  30.248  39.374   3.964
71548ION    NA+36775  36.322   6.737   4.612
71549ION    NA+36776   3.831  17.105   4.265
71550ION    NA+36777  23.153  19.298  13.368
71551ION    NA+36778  31.008  16.450  11.631
71552ION    NA+36779   4.669   0.342   0.775
71553ION    NA+36780   3.256  21.308  10.716
71554ION    NA+36781   2.688  14.720  13.015
71555ION    NA+36782  42.607  28.388   2.537
71556ION    NA+36783  20.662  30.076   4.785
71557ION    NA+36784  28.572  14.298  13.937
71558ION    NA+36785  13.356  22.370   0.535
71559ION    NA+36786  14.305  13.450   0.592
71560ION    NA+36787  31.026   8.421   4.121
71561ION    NA+36788  40.251   9.900   4.049
71562ION    NA+36789  35.588  44.529  11.138
71563ION    NA+36790   1.975  31.463  13.980
71564ION    NA+36791   1.317   8.491  11.060
71565ION    NA+36792  21.939   9.016   4.520
71566ION    NA+36793  23.531  18.627   0.544
71567ION    NA+36794   2.388  39.759  13.118
71568ION    NA+36795  30.456  37.138  14.068
71569ION    NA+36796  29.695   2.154   2.964
71570ION    NA+36797  44.970  27.238   3.001
71571ION    NA+36798  31.951  42.231   1.177
71572ION    NA+36799  18.871  31.917   1.524
71573ION    NA+36800  43.067  28.683  10.245
71574ION    NA+36801  11.590  18.414   4.483
71575ION    NA+36802  31.773  10.355   4.691
71576ION    NA+36803  12.316   4.465  13.617
71577ION    NA+36804  27.272  26.505   2.856
71578ION    NA+36805  18.265  25.330   2.974
71579ION    NA+36806  35.712   1.126   0.676
71580ION    NA+36807  43.084  31.973  11.168
71581ION    NA+36808   6.489  10.946  10.114
71582ION    NA+36809  23.843  44.864  14.597
71583ION    NA+36810  14.855  13.716  11.591
71584ION    NA+36811  33.538   2.212  13.956
71585ION    NA+36812  26.241  23.893  12.104
71586ION    NA+36813  40.022  29.880  14.640
71587ION    NA+36814  21.269  17.735   1.889
71588ION    NA+36815  38.518  10.942  12.994
71589ION    NA+36816   3.308  26.445   2.774
71590ION    NA+36817   9.239   5.247   0.037
71591ION    NA+36818  34.923  39.411   1.655
71592ION    NA+36819  18.698  39.834   4.732
71593ION    NA+36820  44.133  31.977   2.501
71594ION    NA+36821  21.689   3.750   0.336
71595ION    NA+36822  12.190  23.995   1.402
71596ION    NA+36823  25.418  13.132   4.231
71597ION    NA+36824  43.370  13.075   0.513
71598ION    NA+36825   8.626  19.979  10.857
71599ION    NA+36826  12.191  35.024   2.296
71600ION    NA+36827   7.285  34.598   0.028
71601ION    NA+36828  44.365  38.265  13.145
71602ION    NA+36829   6.796  43.931   1.165
71603ION    NA+36830  21.995  27.681   0.261
71604ION    NA+36831  41.983  14.085   3.568
71605ION    NA+36832   0.438  36.258  14.911
71606ION    NA+36833  10.352  34.893   3.658
71607ION    NA+36834  15.305  44.128  11.919
71608ION    NA+36835  34.458  39.039   2.479
71609ION    NA+36836  35.349  17.650   1.058
71610ION    NA+36837   1.521  15.450   4.281
71611ION    NA+36838  21.187  41.189   1.022
71612ION    NA+36839  42.120   2.593  12.022
71613ION    NA+36840  14.110  29.582   3.780
71614ION    NA+36841  39.002  21.833  12.773
71615ION    NA+36842  36.152  22.977  13.584
71616ION    NA+36843  22.591  26.676   0.945
71617ION    NA+36844  23.590  34.577   2.228
71618ION    NA+36845  28.918  19.045  11.587
71619ION    NA+36846   2.516  31.690   0.916
71620ION    NA+36847  39.862  24.744  14.851
71621ION    NA+36848   3.666  25.534  14.059
71622ION    NA+36849   9.954   5.427   3.848
71623ION    NA+36850  27.819  19.477   4.624
71624ION    NA+36851  35.430  26.331   0.760
71625ION    NA+36852  18.841  17.793   3.006
71626ION    NA+36853  43.095  17.631  12.748
71627ION    NA+36854  20.209  25.623  13.509
71628ION    NA+36855  10.080  17.951   2.515
71629ION    NA+36856  43.121  17.474   4.973
71630ION    NA+36857  36.898   8.567  14.675
71631ION    NA+36858  28.154  38.607  13.268
71632ION    NA+36859  21.847   9.895  14.043
71633ION    NA+36860   5.056  44.831  12.285
71634ION    NA+36861   9.969  41.110  13.699
71635ION    NA+36862  38.569  43.442  13.354
71636ION    NA+36863  28.664  25.967  14.927
71637ION    NA+36864   6.256  29.957   0.924
71638ION    NA+36865  20.292  14.219  11.294
71639ION    NA+36866  33.697  29.988  13.252
71640ION    NA+36867  17.500  18.756  12.481
71641ION    NA+36868   5.314   0.797   1.390
71642ION    NA+36869  35.680  17.250   0.203
71643ION    NA+36870   8.206  32.843  13.940
71644ION    NA+36871  13.890  23.041   3.913
71645ION    NA+36872  24.173  36.594  13.012
71646ION    NA+36873  25.185  19.241   1.919
71647ION    NA+36874   8.882   3.763  14.046
71648ION    NA+36875  26.725   3.426   0.820
71649ION    NA+36876   7.890  21.233   9.754
71650ION    NA+36877   8.457  44.199  14.068
71651ION    NA+36878  18.558  44.779   1.764
71652ION    NA+36879  27.104   5.869  12.237
71653ION    NA+36880  16.214  39.350   4.089
71654ION    NA+36881   7.545  28.494   1.897
71655ION    NA+36882   9.343   9.678  13.129
71656ION    NA+36883  14.268  16.894  14.084
71657ION    NA+36884  32.726  21.924   4.860
71658ION    NA+36885  33.505  17.984   3.215
71659ION    NA+36886  20.601  41.598   4.240
71660ION    NA+36887  27.647  38.112   4.089
71661ION    NA+36888  16.558  42.563  12.936
71662ION    NA+36889  17.539   9.521  11.780
71663ION    NA+36890  39.286   6.705   1.021
71664ION    NA+36891  14.266  21.561  13.513
71665ION    NA+36892  13.328   0.892   2.686
71666ION    NA+36893   7.417   7.182  11.065
71667ION    NA+36894  19.120  14.078   0.745
71668ION    NA+36895  28.960   5.852  11.445
71669ION    NA+36896  18.815  44.875   2.784
71670ION    NA+36897  20.756  21.756   2.974
71671ION    NA+36898  44.411  22.576   4.920
71672ION    NA+36899  26.413  15.328  13.869
71673ION    NA+36900  24.427  39.084  13.623
71674ION    NA+36901  36.583  14.375   3.299
71675ION    NA+36902  22.878  36.468  14.433
71676ION    NA+36903  11.280  11.390   4.094
71677ION    NA+36904   9.984   5.184  14.346
71678ION    NA+36905  36.055   0.997  10.773
71679ION    NA+36906   2.592  39.399   4.050
71680ION    NA+36907   1.261  11.120   4.227
71681ION    NA+36908  42.012   1.907  13.023
71682ION    NA+36909   9.400   1.791  12.706
71683ION    NA+36910  12.588   1.777  14.715
71684ION    NA+36911  32.300   2.892   1.152
71685ION    NA+36912  41.747  10.096  13.659
71686ION    NA+36913  21.742   9.404   1.415
71687ION    NA+36914   7.317  40.384  13.266
71688ION    NA+36915   6.656   5.665   3.414
71689ION    NA+36916   5.879   1.825   1.814
71690ION    NA+36917  16.311  28.428  13.734
71691ION    NA+36918   7.310  39.521   1.627
71692ION    NA+36919  32.496  10.200   4.313
71693ION    NA+36920   9.095   2.139  13.500
71694ION    NA+36921  39.026  43.487  11.297
71695ION    NA+36922  18.926  33.682  11.113
71696ION    NA+36923  18.774  19.016   4.675
71697ION    NA+36924  34.578  16.211  14.885
71698ION    NA+36925  17.521  12.534  13.302
71699ION    NA+36926  44.371  28.223   0.795
71700ION    NA+36927  11.893  43.862   1.613
71701ION    NA+36928   1.603   9.851   4.114
71702ION    NA+36929  22.650  44.975   1.029
71703ION    NA+36930  31.506  31.896   1.492
71704ION    NA+36931  26.145  33.351  12.582
71705ION    NA+36932  30.951  12.381   3.192
71706ION    NA+36933  14.645  21.945  14.960
71707ION    NA+36934   5.982   4.749  14.934
71708ION    NA+36935  41.204  22.578   4.090
71709ION    NA+36936  10.279  35.358  14.350
71710ION    NA+36937  44.445  25.323  13.437
71711ION    NA+36938   9.833  42.051  14.009
71712ION    NA+36939  42.601  15.433   2.753
71713ION    NA+36940  35.020  37.446   2.744
71714ION    NA+36941  32.399   4.431   3.793
71715ION    NA+36942   5.120  12.331   4.302
71716ION    NA+36943  36.533   5.274   1.406
71717ION    NA+36944  25.126  41.055   3.693
71718ION    NA+36945  13.490   9.502   4.528
71719ION    NA+36946  35.704   8.798  10.864
71720ION    NA+36947  20.333   3.488  13.036
71721ION    NA+36948   7.338   5.308   1.416
71722ION    NA+36949  33.478  30.719  10.784
71723ION    NA+36950  31.277  35.238  14.381
71724ION    NA+36951  21.698   9.198  11.516
71725ION    NA+36952  42.601  22.427  12.657
71726ION    NA+36953  25.223   5.797  10.920
71727ION    NA+36954  29.700  28.835  10.858
71728ION    NA+36955  27.440   1.477   2.817
71729ION    NA+36956  10.581  40.846   2.420
71730ION    NA+36957  26.103  18.925  12.941
71731ION    NA+36958  17.302  20.079   4.640
71732ION    NA+36959  42.064  33.464  10.594
71733ION    NA+36960   7.921  44.152  11.661
71734ION    NA+36961  33.738  26.991   4.326
71735ION    NA+36962   2.322  26.444   0.311
71736ION    NA+36963  29.453   2.380   0.712
71737ION    NA+36964   7.964  25.874   1.865
71738ION    NA+36965  17.173   8.789  10.006
71739ION    NA+36966  34.366  25.080  14.420
71740ION    NA+36967  38.903   0.564   2.613
71741ION    NA+36968  27.168  42.589  14.789
71742ION    NA+36969  36.216  42.937   9.926
71743ION    NA+36970  10.079   4.118   1.705
71744ION    NA+36971   2.597  36.004   3.007
71745ION    NA+36972   0.054  10.037  11.259
71746ION    NA+36973  36.502   6.024  14.292
71747ION    NA+36974  37.090  34.101  10.737
71748ION    NA+36975   0.475   0.846   3.228
71749ION    NA+36976  26.886  24.223  14.574
71750ION    NA+36977  17.979  34.072  12.214
71751ION    NA+36978  33.951   6.680   4.626
71752ION    NA+36979   8.354  30.521   2.335
71753ION    NA+36980  33.215  21.476   3.452
71754ION    NA+36981  26.596   4.388  14.356
71755ION    NA+36982  32.757  26.903  14.433
71756ION    NA+36983   6.360  27.563  14.753
71757ION    NA+36984  37.169  25.727   3.224
71758ION    NA+36985  39.978  31.239   1.975
71759ION    NA+36986  37.482  27.754  12.904
71760ION    NA+36987  10.637   1.367   1.873
71761ION    NA+36988  32.504  16.548  12.345
71762ION    NA+36989  30.022  10.943  14.873
71763ION    NA+36990  42.578   7.735   2.236
71764ION    NA+36991  27.134   7.429  11.443
71765ION    NA+36992  29.517  26.680  14.541
71766ION    NA+36993  32.330  24.461   1.322
71767ION    NA+36994  28.261  44.852   2.516
71768ION    NA+36995  42.230  12.502  13.905
71769ION    NA+36996  32.479  22.381  10.289
71770ION    NA+36997  29.752  35.774  12.391
71771ION    NA+36998  17.557  15.355   2.418
71772ION    NA+36999  24.709  22.406  14.425
71773ION    NA+37000  21.712  35.560  14.202
71774ION    NA+37001  31.443  20.519   3.897
71775ION    NA+37002  39.304   5.600   4.945
71776ION    NA+37003  33.903   0.002   0.613
71777ION    NA+37004  11.691  18.757  11.405
71778ION    NA+37005  25.411  41.088   4.651
71779ION    NA+37006  42.429  28.394  11.996
71780ION    NA+37007   0.508   4.939  11.162
71781ION    NA+37008  33.655  22.084  12.414
71782ION    NA+37009  13.298  37.885   4.052
71783ION    NA+37010  35.891  21.098  14.926
71784ION    NA+37011  43.290  15.682  11.763
71785ION    NA+37012  31.402   2.610   0.328
71786ION    NA+37013  16.099  28.502   1.455
71787ION    NA+37014  25.027   2.132  14.842
71788ION    NA+37015  14.094  38.907   2.839
71789ION    NA+37016  34.997  23.867  13.929
71790ION    NA+37017  36.046  10.360  12.023
71791ION    NA+37018  41.251  27.929   5.106
71792ION    NA+37019   4.908  29.890  12.652
71793ION    NA+37020  10.157  10.386   3.127
71794ION    NA+37021   6.724  41.131  14.388
71795ION    NA+37022  13.000  29.314   1.485
71796ION    NA+37023   7.468  19.243   1.731
71797ION    NA+37024   0.003  41.245  11.179
71798ION    NA+37025  26.120  18.578   1.352
71799ION    NA+37026  22.989  16.324  12.176
71800ION    NA+37027  42.181  38.751  13.857
71801ION    NA+37028  33.343  27.127   0.152
71802ION    NA+37029  18.120  19.294  11.568
71803ION    NA+37030  44.217  43.504   1.145
71804ION    NA+37031  20.635  41.955   1.774
71805ION    NA+37032  14.810  15.111   1.212
71806ION    NA+37033  15.695  40.506  10.788
71807ION    NA+37034  21.191   1.321   3.336
71808ION    NA+37035  31.370  24.625  14.291
71809ION    NA+37036  13.818  40.252  14.106
71810ION    NA+37037  18.080  14.519   1.403
71811ION    NA+37038   8.700   6.361   1.414
71812ION    NA+37039  43.486  30.715   5.353
71813ION    NA+37040   5.189  26.904  10.289
71814ION    NA+37041  32.429  30.639   5.220
71815ION    NA+37042  40.322   1.224   2.705
71816ION    NA+37043  20.715  12.253  14.132
71817ION    NA+37044  16.426  27.254   1.755
71818ION    NA+37045   9.429   0.632  11.324
71819ION    NA+37046   0.914  27.260  12.568
71820ION    NA+37047  12.392  32.129   1.243
71821ION    NA+37048  41.096  34.360   4.098
71822ION    NA+37049   2.314  18.567   9.816
71823ION    NA+37050   0.979   1.845   9.681
71824ION    NA+37051   2.931  42.581   2.858
71825ION    NA+37052  25.576  20.081  14.052
71826ION    NA+37053  40.917  17.967  13.342
71827ION    NA+37054  12.473  10.860   1.596
71828ION    NA+37055   8.350  26.539   2.369
71829ION    NA+37056  24.784  20.748   3.896
71830ION    NA+37057  13.053  26.502   0.718
71831ION    NA+37058   8.706  37.400   1.072
71832ION    NA+37059  40.275  12.196  13.643
71833ION    NA+37060  34.872   8.442  11.357
71834ION    NA+37061  43.181  42.187   0.897
71835ION    NA+37062  14.201  44.377  14.049
71836ION    NA+37063  12.132  15.784   4.082
71837ION    NA+37064   6.450  40.050   4.196
71838ION    NA+37065   5.719  32.276  12.000
71839ION    NA+37066  29.834  24.277   4.638
71840ION    NA+37067  14.793   6.418   1.305
71841ION    NA+37068  40.493  20.747  13.162
71842ION    NA+37069  31.095  30.199   1.476
71843ION    NA+37070   1.695   8.193  12.520
71844ION    NA+37071  36.210  40.330   3.266
71845ION    NA+37072  34.432   7.262  14.152
71846ION    NA+37073  34.968  21.010  12.575
71847ION    NA+37074  42.721  30.963  12.937
71848ION    NA+37075  36.020   9.151   1.311
71849ION    NA+37076  30.465  19.239   1.353
71850ION    NA+37077  13.708  22.828   5.021
71851ION    NA+37078  14.425  11.596  14.129
71852ION    NA+37079   2.745  40.318   1.259
71853ION    NA+37080  13.053  40.634   4.098
71854ION    NA+37081  41.246   9.739  11.972
71855ION    NA+37082   3.043  15.546  12.371
71856ION    NA+37083  24.088  34.501   3.359
71857ION    NA+37084  40.523  40.456   0.475
71858ION    NA+37085  10.247  12.201  10.649
71859ION    NA+37086  33.598  32.247   3.387
71860ION    NA+37087   7.207   1.936   2.644
71861ION    NA+37088  44.874  30.705   9.990
71862ION    NA+37089  35.233   8.154   0.456
71863ION    NA+37090  14.351  19.766  10.757
71864ION    NA+37091  37.750  30.564   3.177
71865ION    NA+37092  38.259   7.335  12.053
71866ION    NA+37093  11.464  33.526  13.368
71867ION    NA+37094  25.712  42.098   2.505
71868ION    NA+37095  29.723  29.638  13.275
71869ION    NA+37096  25.590  24.745  12.143
71870ION    NA+37097  20.073  40.395   2.697
71871ION    NA+37098  14.880  23.586   3.845
71872ION    NA+37099  38.880   6.089  12.548
71873ION    NA+37100  30.808  21.747   1.962
71874ION    NA+37101  36.115  18.312  11.107
71875ION    NA+37102   2.613  43.172  13.372
71876ION    NA+37103  20.602   7.373  10.766
71877ION    NA+37104   2.304   8.155   4.174
71878ION    NA+37105  26.843  14.696  14.371
71879ION    NA+37106   2.802  16.064   0.330
71880ION    NA+37107  30.219   2.318   1.193
71881ION    NA+37108  31.082  16.670   2.341
71882ION    NA+37109  26.514  30.398   0.493
71883ION    NA+37110   9.299  11.653  13.050
71884ION    NA+37111   2.039  13.787   4.923
71885ION    NA+37112  38.620  10.703   4.516
71886ION    NA+37113  14.756  32.738  10.790
71887ION    NA+37114  24.555  37.824  14.327
71888ION    NA+37115  12.299   3.230   4.769
71889ION    NA+37116  33.447  20.974   2.619
71890ION    NA+37117   2.441  43.780   2.532
71891ION    NA+37118   9.103  23.587   2.368
71892ION    NA+37119  38.479  30.094   0.690
71893ION    NA+37120   4.517  42.719  12.491
71894ION    NA+37121  35.585  37.610   0.464
71895ION    NA+37122  43.370  42.987  11.798
71896ION    NA+37123  39.095   6.856  11.785
71897ION    NA+37124  39.073   0.329  14.314
71898ION    NA+37125  16.062  44.030   3.877
71899ION    NA+37126  33.469  13.577  11.846
71900ION    NA+37127  11.166  39.866   2.703
71901ION    NA+37128   9.874   3.877  11.273
71902ION    NA+37129   0.256  33.940   2.950
71903ION    NA+37130  17.811  26.487   2.597
71904ION    NA+37131  14.841  22.814  12.295
71905ION    NA+37132  35.780  40.272  10.484
71906ION    NA+37133  31.209  25.950   1.068
71907ION    NA+37134  19.938  33.478   1.188
71908ION    NA+37135  33.606  38.257  11.669
71909ION    NA+37136  12.792  24.655   0.498
71910ION    NA+37137  36.667  34.509  12.970
71911ION    NA+37138   6.659   1.231  13.466
71912ION    NA+37139  34.341  38.396  14.050
71913ION    NA+37140  32.386  10.289  12.466
71914ION    NA+37141   5.635  35.248   2.088
71915ION    NA+37142  11.487  10.717   1.683
71916ION    NA+37143  42.565  11.672   2.052
71917ION    NA+37144  34.588  44.045   1.840
71918ION    NA+37145  12.404  40.343  14.641
71919ION    NA+37146   4.279  42.963   2.889
71920ION    NA+37147   6.975  32.576  14.913
71921ION    NA+37148  43.295   6.690   2.702
71922ION    NA+37149  22.461  27.240  14.617
71923ION    NA+37150  31.535  34.432   9.954
71924ION    NA+37151  26.244  36.190  13.224
71925ION    NA+37152  37.582  20.320   3.279
71926ION    NA+37153  38.289  34.137  12.008
71927ION    NA+37154   4.317  39.948  13.111
71928ION    NA+37155  27.041   2.202   9.685
71929ION    NA+37156  26.566  28.173  12.905
71930ION    NA+37157  14.812   3.561  13.834
71931ION    NA+37158  38.937   9.519   1.038
71932ION    NA+37159  12.936  21.465   1.574
71933ION    NA+37160  38.156   1.692   9.472
71934ION    NA+37161  17.923  13.456  13.646
71935ION    NA+37162   6.110  13.370  11.320
71936ION    NA+37163  10.960   5.671  11.775
71937ION    NA+37164  41.856  12.642  12.065
71938ION    NA+37165  36.625  36.103  10.672
71939ION    NA+37166  21.920  44.147  12.542
71940ION    NA+37167   0.999  42.062  11.453
71941ION    NA+37168  43.310   8.907   0.259
71942ION    NA+37169   8.113   6.829  12.957
71943ION    NA+37170   1.396  38.536  13.598
71944ION    NA+37171  35.854   6.686   3.715
71945ION    NA+37172   2.961   2.483   2.886
71946ION    NA+37173   7.052   9.273   2.447
71947ION    NA+37174  21.343   6.140  12.503
71948ION    NA+37175  25.370  33.114   1.755
71949ION    NA+37176  11.096  27.366   1.180
71950ION    NA+37177  42.975  36.567   3.236
71951ION    NA+37178   6.237  36.984   4.567
71952ION    NA+37179  44.920  26.140  11.651
71953ION    NA+37180  31.698  27.807   3.077
71954ION    NA+37181   2.054   8.659   1.501
71955ION    NA+37182   8.862  31.910   2.048
71956ION    NA+37183  42.807  20.285  10.313
71957ION    NA+37184  35.722  42.427   2.538
71958ION    NA+37185   9.125  42.270   0.034
71959ION    NA+37186  38.334   4.696   1.430
71960ION    NA+37187  10.231  26.017  12.746
71961ION    NA+37188  30.233  37.224   0.741
71962ION    NA+37189   7.502  13.630   3.428
71963ION    NA+37190  18.675  20.334  11.062
71964ION    NA+37191   2.527  18.142  14.356
71965ION    NA+37192  44.547  41.213   3.691
71966ION    NA+37193  42.055  30.789   0.212
71967ION    NA+37194  18.496  11.601  14.480
71968ION    NA+37195  15.654  39.675   9.797
71969ION    NA+37196  44.716  35.449   1.209
71970ION    NA+37197   9.563  24.048  12.522
71971ION    NA+37198  41.484  19.278   4.280
71972ION    NA+37199  29.056  44.969  13.003
71973ION    NA+37200  13.272  23.710  11.259
71974ION    NA+37201   0.511  21.201  13.310
71975ION    NA+37202  33.782   6.400  13.533
71976ION    NA+37203   1.044  14.623   3.982
71977ION    NA+37204   3.621  43.509  13.686
71978ION    NA+37205  14.811  42.840   3.795
71979ION    NA+37206  44.330  19.601  12.766
71980ION    NA+37207   8.359  29.073   1.856
71981ION    NA+37208  37.981  35.711   1.399
71982ION    NA+37209  20.484  17.476  12.900
71983ION    NA+37210  30.154   9.935  12.110
71984ION    NA+37211  28.578   0.272  11.432
71985ION    NA+37212  33.873  17.919   4.143
71986ION    NA+37213  25.719   1.918  12.099
71987ION    NA+37214  11.674  35.232   4.336
71988ION    NA+37215  16.993  29.291   1.104
71989ION    NA+37216  26.380  32.363  12.356
71990ION    NA+37217  15.599  28.266  12.010
71991ION    NA+37218   8.119  16.027   3.772
71992ION    NA+37219  21.578  22.738  13.165
71993ION    NA+37220  18.108  27.177   4.353
71994ION    NA+37221  32.898  37.452  14.492
71995ION    NA+37222   6.042  30.549   4.325
71996ION    NA+37223  24.593  23.574  13.499
71997ION    NA+37224   4.343   5.134   9.818
71998ION    NA+37225  19.839   5.190  14.895
71999ION    NA+37226   0.437   0.090  14.233
72000ION    NA+37227   8.775  40.549  13.014
72001ION    NA+37228  11.994  10.572   3.471
72002ION    NA+37229  17.737  35.375  13.587
72003ION    NA+37230  26.389  22.732   1.609
72004ION    NA+37231  34.343  19.946   3.222
72005ION    NA+37232  21.828  21.542   2.001
72006ION    NA+37233  26.120   3.837  11.348
72007ION    NA+37234  28.711  38.759  11.905
72008ION    NA+37235  11.166  10.129   4.586
72009ION    NA+37236  37.062  22.027   0.316
72010ION    NA+37237  24.786  35.801   0.361
72011ION    NA+37238  27.468  43.807  11.979
72012ION    NA+37239  18.956   9.192   5.070
72013ION    NA+37240  23.280  23.810   0.745
72014ION    NA+37241  27.982  20.049  13.002
72015ION    NA+37242  11.883   0.919  13.039
72016ION    NA+37243  12.939  42.330  12.579
72017ION    NA+37244   6.553  27.608   1.593
72018ION    NA+37245  36.759  42.599  13.318
72019ION    NA+37246  16.034  33.407  14.295
72020ION    NA+37247  16.149  11.320  12.061
72021ION    NA+37248  30.120  11.848  14.334
72022ION    NA+37249  37.883  22.214  11.308
72023ION    NA+37250  44.827   2.494  10.110
72024ION    NA+37251  18.957  28.290  13.073
72025ION    NA+37252   3.725  30.647  12.002
72026ION    NA+37253   1.986   5.746   1.229
72027ION    NA+37254   9.750  38.617   1.479
72028ION    NA+37255  36.523   0.517  13.640
72029ION    NA+37256   2.781  41.868  14.061
72030ION    NA+37257  29.832  27.370   3.002
72031ION    NA+37258  27.188   2.166  13.756
72032ION    NA+37259   4.679  24.384  12.057
72033ION    NA+37260   0.360  44.048   3.738
72034ION    NA+37261  21.606  33.245   2.707
72035ION    NA+37262  15.214  42.054   4.814
72036ION    NA+37263   0.438   6.850  11.933
72037ION    NA+37264  16.680  38.308   1.903
72038ION    NA+37265   0.566  15.825   4.998
72039ION    NA+37266  40.559   1.283  14.450
72040ION    NA+37267  37.944  17.601   0.301
72041ION    NA+37268  37.191  35.856  11.277
72042ION    NA+37269  19.019  19.585  12.516
72043ION    NA+37270  12.275  31.865   2.098
72044ION    NA+37271  14.010  11.744   0.852
72045ION    NA+37272  42.617  15.634  14.368
72046ION    NA+37273  29.104  16.728  11.589
72047ION    NA+37274  26.787  40.561  12.671
72048ION    NA+37275  14.402  23.650  10.685
72049ION    NA+37276  41.348  36.727   0.763
72050ION    NA+37277  34.609   1.932   3.693
72051ION    NA+37278  38.487  30.918   3.753
72052ION    NA+37279  30.369   4.201   3.436
72053ION    NA+37280  36.140  13.385  14.361
72054ION    NA+37281  12.985  28.393   2.082
72055ION    NA+37282  32.706   2.877  13.841
72056ION    NA+37283   5.371  36.878   2.814
72057ION    NA+37284  20.604  28.517  13.751
72058ION    NA+37285  26.603   6.316   0.740
72059ION    NA+37286   3.933  40.009   3.189
72060ION    NA+37287  15.553   0.443   4.106
72061ION    NA+37288   8.636   7.744   5.305
72062ION    NA+37289  25.969  37.856  13.203
72063ION    NA+37290  11.815  22.340   3.212
72064ION    NA+37291  24.740  28.170  14.438
72065ION    NA+37292   8.149  20.816  12.215
72066ION    NA+37293  19.671  28.423   1.340
72067ION    NA+37294  16.755  40.936   2.568
72068ION    NA+37295  32.536   9.422  12.996
72069ION    NA+37296  42.752   3.776  13.981
72070ION    NA+37297  39.112  31.404  12.882
72071ION    NA+37298  30.864  22.087  11.762
72072ION    NA+37299   8.434  17.917   3.336
72073ION    NA+37300  20.334   8.302   2.465
72074ION    NA+37301  22.129   5.931  13.959
72075ION    NA+37302  11.782  30.679  10.643
72076ION    NA+37303   9.778   6.780   3.096
72077ION    NA+37304  12.844  40.194  13.853
72078ION    NA+37305  15.413  28.767   2.133
72079ION    NA+37306  37.056  34.838   1.244
72080ION    NA+37307  43.535  23.928  11.482
72081ION    NA+37308  26.939  13.698  13.506
72082ION    NA+37309  11.121  19.482   3.050
72083ION    NA+37310  13.041  25.184  12.537
72084ION    NA+37311   1.940   5.566   4.049
72085ION    NA+37312  24.572  29.943   1.369
72086ION    NA+37313  39.368  36.065   5.122
72087ION    NA+37314  44.325   3.369   4.089
72088ION    NA+37315   9.288  24.696  11.566
72089ION    NA+37316  16.000   5.953   0.269
72090ION    NA+37317   2.777  42.201   4.821
72091ION    NA+37318  25.908  35.136   4.679
72092ION    NA+37319  38.697  36.369   2.265
72093ION    NA+37320   7.424  27.692   3.579
72094ION    NA+37321  34.428  22.302   0.485
72095ION    NA+37322  32.924  32.440   0.059
72096ION    NA+37323  40.426  12.520  10.804
72097ION    NA+37324  31.478   8.904   2.764
72098ION    NA+37325   4.791  16.635  11.935
72099ION    NA+37326   5.743  42.806   1.228
72100ION    NA+37327  30.038  33.929  14.477
72101ION    NA+37328   1.669  39.997  11.945
72102ION    NA+37329  41.972   8.440   2.692
72103ION    NA+37330  12.868   8.319   1.821
72104ION    NA+37331  26.625  36.828   3.291
72105ION    NA+37332  21.863   6.705   2.156
72106ION    NA+37333  20.236  16.536   0.190
72107ION    NA+37334   3.627  38.233   1.865
72108ION    NA+37335  32.406   1.601   4.655
72109ION    NA+37336  44.516  26.365   3.287
72110ION    NA+37337  19.421  33.277   5.179
72111ION    NA+37338   8.821  34.526   4.525
72112ION    NA+37339  35.938  18.537   0.456
72113ION    NA+37340  14.212   9.359  14.071
72114ION    NA+37341  10.229  44.773  11.159
72115ION    NA+37342  21.665   1.209  14.824
72116ION    NA+37343  40.992  29.241   0.108
72117ION    NA+37344   3.241  20.442  10.141
72118ION    NA+37345  10.233  10.505   4.638
72119ION    NA+37346  43.311  18.164   3.686
72120ION    NA+37347  25.578  30.842  13.957
72121ION    NA+37348  36.553  38.580   0.185
72122ION    NA+37349  43.921  36.284  10.730
72123ION    NA+37350  22.009  12.357   4.126
72124ION    NA+37351  12.687   0.839  13.692
72125ION    NA+37352  15.357  23.879   2.061
72126ION    NA+37353  12.357  21.463   0.855
72127ION    NA+37354  14.076  41.964   4.127
72128ION    NA+37355  23.931  26.845   1.599
72129ION    NA+37356  44.367  31.698   4.216
72130ION    NA+37357   2.793   1.231  11.857
72131ION    NA+37358  28.058   7.825   2.793
72132ION    NA+37359  15.208  19.532   2.592
72133ION    NA+37360  14.605  39.621   2.246
72134ION    NA+37361  21.461  29.791   2.198
72135ION    NA+37362  24.020  32.908  14.877
72136ION    NA+37363   7.157   7.468  13.704
72137ION    NA+37364  31.477  38.075  11.136
72138ION    NA+37365  16.167  43.470  14.735
72139ION    NA+37366  44.348  44.897  14.582
72140ION    NA+37367   0.674  32.289  14.368
72141ION    NA+37368  29.735  13.222  14.548
72142ION    NA+37369  44.566  14.493   0.231
72143ION    NA+37370  21.748   4.243  11.383
72144ION    NA+37371  16.377  24.148   3.313
72145ION    NA+37372  31.898  11.250  13.854
72146ION    NA+37373  37.394   0.789  13.040
72147ION    NA+37374  24.663   1.054   3.523
72148ION    NA+37375  22.623   7.254  12.138
72149ION    NA+37376  37.841   9.521   5.478
72150ION    NA+37377  23.758   4.651  12.478
72151ION    NA+37378   4.274  30.483  13.631
72152ION    NA+37379  20.578  37.387   2.416
72153ION    NA+37380   5.480  44.916  14.638
72154ION    NA+37381  41.139   8.559  13.889
72155ION    NA+37382  26.476  12.725  10.790
72156ION    NA+37383   0.536  33.300   2.048
72157ION    NA+37384  39.964  44.285   0.069
72158ION    NA+37385   7.847   6.388   3.110
72159ION    NA+37386  40.265  17.838   2.315
72160ION    NA+37387  23.177  39.631  10.996
72161ION    NA+37388  24.546  18.108   0.879
72162ION    NA+37389  19.021  35.982   3.453
72163ION    NA+37390  20.109  21.356   1.282
72164ION    NA+37391  11.183   6.631   2.676
72165ION    NA+37392   2.866   2.547   1.536
72166ION    NA+37393  11.712  13.779   0.847
72167ION    NA+37394   9.238  12.447  14.706
72168ION    NA+37395   3.534  30.003   2.645
72169ION    NA+37396  30.173  12.487   0.102
72170ION    NA+37397  22.204  21.278   1.309
72171ION    NA+37398  16.234  12.678  12.568
72172ION    NA+37399  29.520  21.487   1.381
72173ION    NA+37400  34.401  21.354   2.769
72174ION    NA+37401  23.905  10.177  13.341
72175ION    NA+37402  42.056  32.075   3.125
72176ION    NA+37403  16.507   4.899  13.266
72177ION    NA+37404  42.946   2.892   1.403
72178ION    NA+37405  23.244  40.493   4.786
72179ION    NA+37406   7.332  33.894   2.349
72180ION    NA+37407  12.094   9.604   4.573
72181ION    NA+37408   8.637  24.786  14.775
72182ION    NA+37409  14.390  16.667  11.214
72183ION    NA+37410  18.823   0.827   4.603
72184ION    NA+37411  14.167  25.309  10.860
72185ION    NA+37412  38.907  37.073  13.467
72186ION    NA+37413  19.735   9.865   4.189
72187ION    NA+37414  35.324  37.465  12.011
72188ION    NA+37415  38.363  11.531  13.627
72189ION    NA+37416  26.035  41.371   0.303
72190ION    NA+37417  14.943  37.588  11.596
72191ION    NA+37418   1.240  39.465  12.527
72192ION    NA+37419  15.199  14.999  14.746
72193ION    NA+37420  11.053   0.833   4.814
72194ION    NA+37421   8.048  26.895   3.329
72195ION    NA+37422  35.328  13.208  13.419
72196ION    NA+37423  21.401   6.516   0.308
72197ION    NA+37424  13.186   0.371   4.109
72198ION    NA+37425  10.172   5.140  12.086
72199ION    NA+37426   6.518  30.183  13.137
72200ION    NA+37427  37.992  30.005  11.577
72201ION    NA+37428  11.082   6.398   4.123
72202ION    NA+37429  11.761  38.440  14.046
72203ION    NA+37430   0.717  24.142  13.717
72204ION    NA+37431  23.684  24.451   4.618
72205ION    NA+37432  14.239  18.047  13.543
72206ION    NA+37433  43.593  17.357   1.967
72207ION    NA+37434  10.340  26.403   4.263
72208ION    NA+37435  21.470   0.399   2.119
72209ION    NA+37436  39.375  29.560   1.731
72210ION    NA+37437  12.388  10.174   0.830
72211ION    NA+37438   0.653  24.580   2.380
72212ION    NA+37439  11.634  11.003  10.743
72213ION    NA+37440  35.989  24.899  14.199
72214ION    NA+37441   8.795  35.810   3.201
72215ION    NA+37442  24.659  14.759   2.601
72216ION    NA+37443   2.497   9.825   3.642
72217ION    NA+37444  24.432  28.505  11.516
72218ION    NA+37445   4.470  25.287  12.658
72219ION    NA+37446  28.946  37.811  12.120
72220ION    NA+37447   6.723  22.419   4.285
72221ION    NA+37448  41.556  32.860  14.509
72222ION    NA+37449  18.002   0.808   2.089
72223ION    NA+37450   5.665  44.587  13.805
72224ION    NA+37451  17.728  12.692   0.114
72225ION    NA+37452  11.719  38.435   3.026
72226ION    NA+37453   0.812  43.596  12.864
72227ION    NA+37454  41.329  37.704   0.981
72228ION    NA+37455  29.789  15.590   2.574
72229ION    NA+37456   8.944  32.026   0.173
72230ION    CL-37457  16.111  12.240  11.464
72231ION    CL-37458  30.646  14.219   1.179
72232ION    CL-37459  40.279  32.005  10.690
72233ION    CL-37460  39.558   2.299   0.285
72234ION    CL-37461  23.643  19.331   1.378
72235ION    CL-37462   5.618  44.207  10.697
72236ION    CL-37463   9.580   2.279   1.763
72237ION    CL-37464  36.814  44.712   4.035
72238ION    CL-37465  44.321  32.223  11.993
72239ION    CL-37466   2.597  36.010   2.561
72240ION    CL-37467  44.238   8.823  10.716
72241ION    CL-37468  17.273  30.229  14.857
72242ION    CL-37469  41.917   4.410   4.451
72243ION    CL-37470  27.353   1.766  13.908
72244ION    CL-37471  42.286  15.098   1.160
72245ION    CL-37472  38.400  23.900  14.426
72246ION    CL-37473  34.808   8.581  14.434
72247ION    CL-37474  31.417   4.884  10.240
72248ION    CL-37475  24.150   0.751   4.368
72249ION    CL-37476  31.886  23.502  11.540
72250ION    CL-37477  34.068  28.470  11.100
72251ION    CL-37478   6.333  41.324  14.294
72252ION    CL-37479  36.593   0.528  14.082
72253ION    CL-37480  22.028   0.393   5.586
72254ION    CL-37481  19.301  38.848  11.679
72255ION    CL-37482  11.306  15.399   1.153
72256ION    CL-37483  25.804  30.384   2.014
72257ION    CL-37484   9.747  35.339  12.155
72258ION    CL-37485  12.910  15.277   0.368
72259ION    CL-37486   0.310  44.891  13.852
72260ION    CL-37487  24.270   7.317  14.365
72261ION    CL-37488  17.252  21.869  13.532
72262ION    CL-37489  17.458  44.202  10.074
72263ION    CL-37490   8.460  36.056  14.822
72264ION    CL-37491  19.370  33.637  11.216
72265ION    CL-37492   5.168   1.011  11.484
72266ION    CL-37493   3.807  31.911   2.823
72267ION    CL-37494  18.957   0.149   3.106
72268ION    CL-37495  31.949  37.635  12.065
72269ION    CL-37496  12.666  40.219  14.273
72270ION    CL-37497  39.889  11.972  13.635
72271ION    CL-37498  13.205  11.738  12.476
72272ION    CL-37499  40.261  31.444   1.699
72273ION    CL-37500  12.128  40.589  14.906
72274ION    CL-37501  17.697   9.120   1.471
72275ION    CL-37502  39.840  31.120   4.152
72276ION    CL-37503  18.159  27.097  13.045
72277ION    CL-37504   0.850   9.513  10.431
72278ION    CL-37505   9.190  32.284  11.940
72279ION    CL-37506  32.690  31.059  13.279
72280ION    CL-37507   9.299  23.853  14.425
72281ION    CL-37508  43.743  32.992   3.702
72282ION    CL-37509  12.066  16.201   3.914
72283ION    CL-37510   6.755   0.930  13.152
72284ION    CL-37511  21.443  31.733   4.204
72285ION    CL-37512  33.950  14.320   4.464
72286ION    CL-37513  44.461  44.602   1.865
72287ION    CL-37514  39.867  14.490  14.270
72288ION    CL-37515  39.737  30.329  11.252
72289ION    CL-37516   7.686   0.118   4.398
72290ION    CL-37517  20.053  24.927   0.273
72291ION    CL-37518  11.311  19.314  14.947
72292ION    CL-37519   2.624  43.621   2.159
72293ION    CL-37520  22.801  29.129  10.477
72294ION    CL-37521  16.544  40.126  14.041
72295ION    CL-37522  41.090  20.428   4.455
72296ION    CL-37523  14.510  15.294   1.500
72297ION    CL-37524  25.970  41.158  11.379
72298ION    CL-37525  24.867  25.540  14.825
72299ION    CL-37526  24.301  22.496  14.244
72300ION    CL-37527   3.244  25.475   4.105
72301ION    CL-37528   1.591  25.242  11.441
72302ION    CL-37529  25.752  22.139   3.448
72303ION    CL-37530  35.594  24.787  14.022
72304ION    CL-37531  30.454   8.655  11.349
72305ION    CL-37532   5.434  40.779  12.894
72306ION    CL-37533   3.771   0.020  12.346
72307ION    CL-37534  16.837  23.009  12.214
72308ION    CL-37535  18.223  25.468   4.943
72309ION    CL-37536  30.684  16.905   4.462
72310ION    CL-37537  26.085  39.996   2.115
72311ION    CL-37538   3.274  32.888   0.454
72312ION    CL-37539  32.933   3.322  11.249
72313ION    CL-37540  23.462  36.461  11.680
72314ION    CL-37541   6.240  12.970  11.506
72315ION    CL-37542   5.900   6.993   4.980
72316ION    CL-37543   7.259   7.801   2.418
72317ION    CL-37544  28.437  33.994   3.875
72318ION    CL-37545  33.750  17.973  12.417
72319ION    CL-37546  41.414  40.436   3.678
72320ION    CL-37547  20.696  35.311  13.631
72321ION    CL-37548  29.926  16.844  12.816
72322ION    CL-37549  28.143  15.961  11.942
72323ION    CL-37550  29.711  26.755  12.066
72324ION    CL-37551  17.983   0.630   1.664
72325ION    CL-37552   2.207   7.295  10.531
72326ION    CL-37553  17.859  13.133   4.083
72327ION    CL-37554  28.175  20.307  13.312
72328ION    CL-37555   6.243  20.893  12.088
72329ION    CL-37556  43.024   7.365  13.509
72330ION    CL-37557   9.422  24.649   1.063
72331ION    CL-37558  21.148  27.195   1.934
72332ION    CL-37559  12.372  10.378   3.615
72333ION    CL-37560  18.579  27.639  14.848
72334ION    CL-37561   6.245  35.694  10.728
72335ION    CL-37562  44.045  17.066  14.550
72336ION    CL-37563  30.556  38.348   1.523
72337ION    CL-37564  23.705  39.422   0.860
72338ION    CL-37565  18.536  12.716  12.556
72339ION    CL-37566   8.339  15.112   2.303
72340ION    CL-37567   0.244   3.988  14.957
72341ION    CL-37568  38.527  25.712   3.411
72342ION    CL-37569   3.479  36.004   2.058
72343ION    CL-37570  21.507  10.811   4.070
72344ION    CL-37571  16.042   8.706   1.459
72345ION    CL-37572  32.133  32.530   2.084
72346ION    CL-37573   2.837  25.728  11.052
72347ION    CL-37574  42.307  18.962   1.745
72348ION    CL-37575  24.045  26.462  12.634
72349ION    CL-37576  40.236  42.609  14.389
72350ION    CL-37577  42.205  15.291   2.568
72351ION    CL-37578   8.402   2.830   2.390
72352ION    CL-37579  38.540   3.629  10.985
72353ION    CL-37580   0.753   2.431   4.945
72354ION    CL-37581   0.652   0.891  11.336
72355ION    CL-37582  10.406  34.472   0.945
72356ION    CL-37583  14.721  33.068   4.546
72357ION    CL-37584  44.097   4.723   3.303
72358ION    CL-37585  43.357  12.929   4.236
72359ION    CL-37586  28.926   0.107  11.661
72360ION    CL-37587  21.578  39.093   2.737
72361ION    CL-37588   5.410  39.383  13.567
72362ION    CL-37589  36.237  24.995  10.953
72363ION    CL-37590  34.732  28.768   0.392
72364ION    CL-37591  21.702   1.520  14.496
72365ION    CL-37592  33.290  38.381  11.960
72366ION    CL-37593  34.988  39.644   5.103
72367ION    CL-37594   0.856   8.948   9.810
72368ION    CL-37595  31.011  29.779   1.602
72369ION    CL-37596  16.271   4.414  10.676
72370ION    CL-37597  30.591  41.419  13.049
72371ION    CL-37598  22.111  35.570  14.406
72372ION    CL-37599   8.872  24.988   3.190
72373ION    CL-37600   2.550  42.640   3.463
72374ION    CL-37601  20.455  43.985   2.765
72375ION    CL-37602  13.125   5.392   0.406
72376ION    CL-37603  19.471  43.930  13.158
72377ION    CL-37604  10.571  20.482  14.975
72378ION    CL-37605  26.031   5.920  10.284
72379ION    CL-37606  24.965  26.822  12.788
72380ION    CL-37607  40.896  12.790  14.206
72381ION    CL-37608  18.880  11.087  10.430
72382ION    CL-37609  16.845   4.386   4.788
72383ION    CL-37610  21.372  26.181   9.906
72384ION    CL-37611  43.267   7.331  12.141
72385ION    CL-37612  34.516   9.630   1.700
72386ION    CL-37613  29.420  19.671  12.835
72387ION    CL-37614  36.037  41.007   0.495
72388ION    CL-37615  26.038  41.819   0.293
72389ION    CL-37616   1.734  17.840  13.033
72390ION    CL-37617  22.904  39.245  12.826
72391ION    CL-37618  14.578   6.670  10.219
72392ION    CL-37619  33.808   0.406   0.444
72393ION    CL-37620  23.672  23.153  10.899
72394ION    CL-37621  36.520  14.177  10.797
72395ION    CL-37622  26.432  20.767   1.158
72396ION    CL-37623  10.728  28.672  10.867
72397ION    CL-37624   9.819  20.870  10.428
72398ION    CL-37625  40.635  44.366   2.017
72399ION    CL-37626   8.701  24.634   0.194
72400ION    CL-37627  39.575  13.460  11.930
72401ION    CL-37628   1.396  39.762  12.224
72402ION    CL-37629   1.292   7.107   0.894
72403ION    CL-37630   8.252   4.409  13.071
72404ION    CL-37631  23.573  34.270  14.693
72405ION    CL-37632  44.143  10.412   3.553
72406ION    CL-37633  41.701  26.602   1.304
72407ION    CL-37634  30.725   2.379  10.063
72408ION    CL-37635  30.314  41.156  11.741
72409ION    CL-37636  20.114   5.482  13.397
72410ION    CL-37637  15.803  13.688   0.811
72411ION    CL-37638  26.141  19.836  10.451
72412ION    CL-37639  10.014  37.894  12.705
72413ION    CL-37640  10.136  42.656  12.684
72414ION    CL-37641  40.687  16.404  10.859
72415ION    CL-37642  12.683  21.471   1.195
72416ION    CL-37643  23.733   2.524   3.954
72417ION    CL-37644  38.306  19.984   0.853
72418ION    CL-37645  29.331  16.682  13.603
72419ION    CL-37646  44.229  35.954  13.505
72420ION    CL-37647   0.400   3.127   0.441
72421ION    CL-37648  31.900  22.438  12.390
72422ION    CL-37649  35.812  44.147  11.189
72423ION    CL-37650  11.214  22.163   0.053
72424ION    CL-37651  35.012   0.138   1.020
72425ION    CL-37652  31.347  34.979  14.750
72426ION    CL-37653  31.993   3.536  12.100
72427ION    CL-37654  22.747  40.910  13.054
72428ION    CL-37655   9.185  35.672   3.371
72429ION    CL-37656  38.409  32.372  10.326
72430ION    CL-37657   0.342  19.983  13.554
72431ION    CL-37658   7.188  44.695   3.641
72432ION    CL-37659  11.405  15.100  11.355
72433ION    CL-37660  11.307  20.762   0.301
72434ION    CL-37661  26.464  14.392   5.010
72435ION    CL-37662  40.728   8.404  14.016
72436ION    CL-37663  26.340   1.661   1.939
72437ION    CL-37664   1.146  17.943  11.959
72438ION    CL-37665  29.164  17.244   2.289
72439ION    CL-37666  20.904  40.228   0.029
72440ION    CL-37667   9.695  25.245   2.678
72441ION    CL-37668  33.821   1.450  14.756
72442ION    CL-37669   2.161   5.775   3.706
72443ION    CL-37670   5.574  44.780  14.212
72444ION    CL-37671   6.151  12.920  13.003
72445ION    CL-37672  34.044  13.281  13.342
72446ION    CL-37673  36.501  19.549  11.120
72447ION    CL-37674  33.131  15.673   3.399
72448ION    CL-37675   7.413  22.990   1.825
72449ION    CL-37676  40.859  38.396   0.042
72450ION    CL-37677  31.980   4.830   4.812
72451ION    CL-37678  19.066  31.298  14.975
72452ION    CL-37679  26.735  28.060   3.303
72453ION    CL-37680  27.028  21.661   3.865
72454ION    CL-37681  17.050  29.469  11.013
72455ION    CL-37682  33.836  36.412   2.399
72456ION    CL-37683  36.243  33.651  12.266
72457ION    CL-37684   5.940  14.163   1.658
72458ION    CL-37685  32.114  32.329  11.649
72459ION    CL-37686  35.198  42.853   4.911
72460ION    CL-37687  40.841   2.937   3.405
72461ION    CL-37688   5.111   0.993   3.671
72462ION    CL-37689  10.562  21.412   0.153
72463ION    CL-37690  27.911   0.021  14.003
72464ION    CL-37691  40.507  20.543   3.561
72465ION    CL-37692  22.096  30.625  11.581
72466ION    CL-37693  16.310  15.245   2.546
72467ION    CL-37694  13.266  35.754   5.093
72468ION    CL-37695   3.738  31.554  12.975
72469ION    CL-37696  12.306   7.405  14.736
72470ION    CL-37697  31.607  25.846   0.894
72471ION    CL-37698  26.403  12.939   1.733
72472ION    CL-37699   1.462   0.201  14.128
72473ION    CL-37700   4.019   7.164  11.029
72474ION    CL-37701  42.571  26.883   1.439
72475ION    CL-37702   9.858  10.382   1.370
72476ION    CL-37703   5.963  23.470   1.799
72477ION    CL-37704  15.351  23.577  13.886
72478ION    CL-37705   8.343  43.799   3.431
72479ION    CL-37706  11.757  18.320   3.192
72480ION    CL-37707   5.007  37.317   9.832
72481ION    CL-37708  36.883  24.449   0.372
72482ION    CL-37709  18.284   4.527  10.360
72483ION    CL-37710  20.933  11.347   2.167
72484ION    CL-37711  13.544  44.335  12.868
72485ION    CL-37712  14.062  43.368   2.649
72486ION    CL-37713  21.916   4.011  11.728
72487ION    CL-37714  40.954  23.348  14.431
72488ION    CL-37715  26.259  36.671  10.779
72489ION    CL-37716  27.240  42.135  14.776
72490ION    CL-37717  22.672  29.829  11.314
72491ION    CL-37718  28.036  36.451   3.544
72492ION    CL-37719  18.626  38.683   0.970
72493ION    CL-37720  34.176  25.099   2.173
72494ION    CL-37721  31.085  29.419  12.977
72495ION    CL-37722  17.477  43.810  13.626
72496ION    CL-37723  15.064  35.116   0.206
72497ION    CL-37724  44.258   8.971  14.326
72498ION    CL-37725  18.136  33.431   4.026
72499ION    CL-37726  16.827   2.494   4.130
72500ION    CL-37727  23.768  23.502  11.831
72501ION    CL-37728   1.125   9.736  13.140
72502ION    CL-37729  20.191  43.254   0.015
72503ION    CL-37730  37.659  30.138   3.272
72504ION    CL-37731  16.697  14.661  13.524
72505ION    CL-37732  20.572  38.040  12.431
72506ION    CL-37733  16.736  18.482   2.114
72507ION    CL-37734  31.911  35.186  12.510
72508ION    CL-37735  21.814  21.293   1.569
72509ION    CL-37736  29.417  19.536   2.374
72510ION    CL-37737   2.633   2.439  11.222
72511ION    CL-37738  30.018  23.546  10.100
72512ION    CL-37739  42.572  17.462   2.228
72513ION    CL-37740  34.904  43.171  11.021
72514ION    CL-37741   0.962  42.596  14.903
72515ION    CL-37742  37.340  10.601   0.822
72516ION    CL-37743   6.414  41.224   2.918
72517ION    CL-37744  43.427  29.042  14.826
72518ION    CL-37745  11.110  19.592   1.294
72519ION    CL-37746  27.111  37.873  11.170
72520ION    CL-37747  30.006  35.889   3.384
72521ION    CL-37748  17.104  33.471   4.057
72522ION    CL-37749   0.467  34.145   0.254
72523ION    CL-37750  32.906  26.994   0.061
72524ION    CL-37751  26.820  38.622   1.880
72525ION    CL-37752  40.821  25.207  12.070
72526ION    CL-37753   6.329  12.241   3.546
72527ION    CL-37754  37.111  25.763  10.133
72528ION    CL-37755  44.118  41.492  10.726
72529ION    CL-37756   3.903  28.047   2.366
72530ION    CL-37757  34.665  37.812  14.825
72531ION    CL-37758  38.610  32.329   2.848
72532ION    CL-37759  34.602  13.275  14.172
72533ION    CL-37760   6.286  29.792   3.305
72534ION    CL-37761  32.727  33.800  11.674
72535ION    CL-37762  39.981   7.025  12.980
72536ION    CL-37763  12.729   3.150   1.653
72537ION    CL-37764  14.316  37.588  10.586
72538ION    CL-37765  17.471  25.970  14.119
72539ION    CL-37766  29.884   0.688   4.993
72540ION    CL-37767  24.252  29.939   1.058
72541ION    CL-37768  21.900  44.565  12.388
72542ION    CL-37769  19.016  28.731  13.034
72543ION    CL-37770  36.044  41.822   4.124
72544ION    CL-37771  23.168   2.330   3.152
72545ION    CL-37772  26.167  25.457   0.344
72546ION    CL-37773  31.862  38.248  11.280
72547ION    CL-37774  27.768  32.802  14.875
72548ION    CL-37775  44.093  33.272   4.659
72549ION    CL-37776  18.641  39.835  14.662
72550ION    CL-37777   3.511  19.315   2.945
72551ION    CL-37778  37.580  44.223   0.884
72552ION    CL-37779   6.305  25.214   5.243
72553ION    CL-37780  16.184  18.154  12.835
72554ION    CL-37781   5.600  14.886  10.715
72555ION    CL-37782  22.653  36.624   4.092
72556ION    CL-37783  34.956  35.406  10.286
72557ION    CL-37784  41.274  34.229  11.570
72558ION    CL-37785   7.570  27.032  11.695
72559ION    CL-37786  22.779  28.961   3.084
72560ION    CL-37787  33.643  31.460  10.906
72561ION    CL-37788  23.634  12.165   1.970
72562ION    CL-37789  10.733  31.038  12.351
72563ION    CL-37790   9.669  44.968   4.230
72564ION    CL-37791  31.250  35.585  14.090
72565ION    CL-37792   4.151   1.961   3.362
72566ION    CL-37793  14.302  13.437   0.030
72567ION    CL-37794  35.072  19.280   1.155
72568ION    CL-37795  25.070  22.178  14.587
72569ION    CL-37796   2.790  29.701   1.937
72570ION    CL-37797  28.901   1.091   2.681
72571ION    CL-37798  30.624   4.226   4.572
72572ION    CL-37799  16.297  30.701   3.179
72573ION    CL-37800   0.417  19.463  14.405
72574ION    CL-37801  38.556  11.290  13.289
72575ION    CL-37802  41.034  31.536   2.387
72576ION    CL-37803  28.546  36.913   2.399
72577ION    CL-37804   6.248  22.999  13.974
72578ION    CL-37805  29.993  10.595  10.071
72579ION    CL-37806  13.499  24.380   1.207
72580ION    CL-37807  10.549  15.571  12.511
72581ION    CL-37808  25.217   7.549  13.578
72582ION    CL-37809  25.350  30.623  13.641
72583ION    CL-37810  29.174   7.616  11.639
72584ION    CL-37811  32.303  14.318  11.260
72585ION    CL-37812  20.646  26.317   1.648
72586ION    CL-37813  11.588  11.842  12.077
72587ION    CL-37814  25.976  15.128   2.729
72588ION    CL-37815  21.447   0.151   0.838
72589ION    CL-37816  43.998   5.373  12.653
72590ION    CL-37817  20.376  43.216  13.979
72591ION    CL-37818  37.080  10.957  13.848
72592ION    CL-37819  31.345  42.104  11.308
72593ION    CL-37820  15.195  24.674  10.919
72594ION    CL-37821   4.434   5.796   4.480
72595ION    CL-37822  35.659  28.566   1.297
72596ION    CL-37823  26.795  16.974   1.141
72597ION    CL-37824  24.155   0.983  12.335
72598ION    CL-37825   8.778  31.785   2.470
72599ION    CL-37826  24.802  17.916   1.190
72600ION    CL-37827   6.950   9.215   2.017
72601ION    CL-37828  34.782  44.356   3.270
72602ION    CL-37829  14.677  33.046  12.544
72603ION    CL-37830   3.009  44.404   3.650
72604ION    CL-37831  16.520  30.087  13.236
72605ION    CL-37832   9.273  14.874   0.034
72606ION    CL-37833  12.479  21.698   3.925
72607ION    CL-37834  17.099  17.662  10.652
72608ION    CL-37835  44.808  22.542  14.229
72609ION    CL-37836  42.475  17.760   1.173
72610ION    CL-37837  42.630  41.367   4.848
72611ION    CL-37838  20.185   7.638   4.151
72612ION    CL-37839  44.010   7.434  11.330
72613ION    CL-37840  18.192  29.428  14.931
72614ION    CL-37841  39.052  10.946   3.359
72615ION    CL-37842  41.888  32.355   2.797
72616ION    CL-37843  15.029  35.811  13.562
72617ION    CL-37844  19.918  38.010  14.373
72618ION    CL-37845  42.567  25.134  12.790
72619ION    CL-37846   5.766  33.134   4.591
72620ION    CL-37847  29.729  34.257   5.018
72621ION    CL-37848  25.795  16.037  11.943
72622ION    CL-37849  12.823   8.889  14.965
72623ION    CL-37850  11.360  38.456  11.712
72624ION    CL-37851  40.100  23.059  14.430
72625ION    CL-37852   9.270  27.467   0.484
72626ION    CL-37853  30.339  27.508   0.732
72627ION    CL-37854  21.464  33.074   0.610
72628ION    CL-37855  34.050  31.067  12.582
72629ION    CL-37856  40.785  13.793  12.571
72630ION    CL-37857  44.680  29.047  13.243
72631ION    CL-37858  34.688  36.930   0.296
72632ION    CL-37859   1.596  17.953   4.742
72633ION    CL-37860  14.359  25.735   1.790
72634ION    CL-37861  16.806  25.773  13.399
72635ION    CL-37862  38.338  36.939  12.546
72636ION    CL-37863   0.462  28.775  14.381
72637ION    CL-37864  17.201  12.803   1.633
72638ION    CL-37865  27.420  33.330   4.306
72639ION    CL-37866  32.527  23.435  14.041
72640ION    CL-37867  24.136  36.393  10.882
72641ION    CL-37868  41.943   9.777  13.904
72642ION    CL-37869  26.720  35.759   1.895
72643ION    CL-37870  44.720  17.115   3.083
72644ION    CL-37871  11.960  30.385  14.341
72645ION    CL-37872  17.215  44.981  14.810
72646ION    CL-37873  13.522   6.615  12.172
72647ION    CL-37874  24.992  16.042  14.723
72648ION    CL-37875  37.140   2.813  12.614
72649ION    CL-37876   4.804  41.529  11.693
72650ION    CL-37877  30.581  35.415   1.206
72651ION    CL-37878  16.894   6.555  14.319
72652ION    CL-37879  31.813  11.381   3.579
72653ION    CL-37880  17.338  19.052  13.924
72654ION    CL-37881  21.151  28.619   5.087
72655ION    CL-37882  14.085  38.355   1.233
72656ION    CL-37883  43.857  32.080  13.576
72657ION    CL-37884  26.752  20.468  12.632
72658ION    CL-37885   2.641  20.486  14.526
72659ION    CL-37886  23.897  27.136  11.910
72660ION    CL-37887   0.518  12.762   0.919
72661ION    CL-37888  31.911  21.978  11.443
72662ION    CL-37889   5.729  16.985  13.842
72663ION    CL-37890  16.029  27.023   1.691
72664ION    CL-37891  26.073  35.033  11.688
72665ION    CL-37892  26.580  14.966  14.117
72666ION    CL-37893  40.913  28.237  11.113
72667ION    CL-37894   4.175  39.010  14.108
72668ION    CL-37895   6.700  36.691   2.443
72669ION    CL-37896  23.239  28.950   1.738
72670ION    CL-37897   7.863  12.347  11.589
72671ION    CL-37898  23.054  23.747   1.126
72672ION    CL-37899  12.153  15.388   4.311
72673ION    CL-37900  20.366  42.144   1.459
72674ION    CL-37901   1.201   1.897   1.695
72675ION    CL-37902  24.279  25.130  12.014
72676ION    CL-37903  29.979   0.845   2.133
72677ION    CL-37904  17.204  26.073   0.093
72678ION    CL-37905  35.106   2.423   2.201
72679ION    CL-37906  26.061  23.478   3.410
72680ION    CL-37907  36.257  26.723  14.597
72681ION    CL-37908  29.519   2.557   2.707
72682ION    CL-37909   5.011  40.353   0.426
72683ION    CL-37910   2.997  25.362   0.493
72684ION    CL-37911  19.836  29.668  11.694
72685ION    CL-37912  26.914  19.267   2.442
72686ION    CL-37913   5.569  26.745  14.004
72687ION    CL-37914  14.972  42.350  14.063
72688ION    CL-37915  26.068  35.216   1.365
72689ION    CL-37916  35.829  29.039   2.688
72690ION    CL-37917  38.884  39.422  10.100
72691ION    CL-37918  40.011  15.293   0.023
72692ION    CL-37919   8.215  27.074  10.829
72693ION    CL-37920  36.843  13.188  13.567
72694ION    CL-37921  22.091  14.890  13.509
72695ION    CL-37922  36.289  24.191   3.330
72696ION    CL-37923  33.462  34.340   3.286
72697ION    CL-37924  43.825  43.196   3.698
72698ION    CL-37925  18.975   7.935  14.979
72699ION    CL-37926  26.950   5.851  11.810
72700ION    CL-37927  18.688   1.003   2.192
72701ION    CL-37928  26.846  25.894  13.722
72702ION    CL-37929  23.607  19.761  11.189
72703ION    CL-37930  19.818  21.080  13.427
72704ION    CL-37931  24.717  20.720   3.452
72705ION    CL-37932  37.242  14.480  13.882
72706ION    CL-37933  27.695  19.274  13.907
72707ION    CL-37934  41.502  15.982  10.894
72708ION    CL-37935  16.362   1.608   4.135
72709ION    CL-37936  25.607  38.353  14.320
72710ION    CL-37937  33.940  10.792   3.213
72711ION    CL-37938  25.930  13.892   3.312
72712ION    CL-37939   5.534   7.037   2.558
72713ION    CL-37940  17.575   0.205   4.230
72714ION    CL-37941  33.564  41.275  13.471
72715ION    CL-37942  41.010  28.785   0.088
72716ION    CL-37943  42.671  29.802  10.850
72717ION    CL-37944   0.098  33.208   0.432
72718ION    CL-37945   8.545   8.451   2.691
72719ION    CL-37946  24.413  38.781  13.278
72720ION    CL-37947  35.058  24.055   4.191
72721ION    CL-37948  19.187   7.365  12.052
72722ION    CL-37949  30.270  36.531   2.664
72723ION    CL-37950  17.750   9.918   2.231
72724ION    CL-37951  18.027   8.593  12.865
72725ION    CL-37952   4.882  18.613   2.931
72726ION    CL-37953  29.364  42.905   4.066
72727ION    CL-37954  25.875   6.413  12.821
72728ION    CL-37955  24.949  32.437   4.115
72729ION    CL-37956  17.217  10.543   0.341
72730ION    CL-37957  31.098  35.465  11.111
72731ION    CL-37958   0.919  20.287  11.664
72732ION    CL-37959  15.885  25.046  14.024
72733ION    CL-37960   0.426  44.713  12.450
72734ION    CL-37961  16.824  13.637  14.722
72735ION    CL-37962  43.549  32.201   3.040
72736ION    CL-37963   2.416  29.879   3.221
72737ION    CL-37964   8.548  17.488   3.283
72738ION    CL-37965  34.463  22.747   0.551
72739ION    CL-37966  44.958  36.549  12.582
72740ION    CL-37967  24.004  13.862  14.945
72741ION    CL-37968   5.446  42.719   2.780
72742ION    CL-37969  33.315   1.286   0.602
72743ION    CL-37970  34.150  20.937   1.350
72744ION    CL-37971   9.729  44.962   1.735
72745ION    CL-37972  19.657  29.547   0.748
72746ION    CL-37973  44.017  36.038   1.852
72747ION    CL-37974  19.670   3.625  10.425
72748ION    CL-37975  42.752  37.091  14.333
72749ION    CL-37976   9.091   0.583   1.532
72750ION    CL-37977  18.002  43.759  12.776
72751ION    CL-37978  26.821   6.626  13.824
72752ION    CL-37979  34.548  34.425   0.741
72753ION    CL-37980   5.868  31.877  12.129
72754ION    CL-37981  10.693   3.916  12.948
72755ION    CL-37982  29.934  18.328  13.509
72756ION    CL-37983  36.014  34.810  14.122
72757ION    CL-37984  44.942  17.281   4.596
72758ION    CL-37985  13.368   1.336   2.656
72759ION    CL-37986  36.571  38.840   0.559
72760ION    CL-37987  20.299  44.525   5.122
72761ION    CL-37988   1.620   8.714   1.600
72762ION    CL-37989  26.421  44.258  11.415
72763ION    CL-37990   5.032  22.722  10.786
72764ION    CL-37991   2.075   1.465   4.578
72765ION    CL-37992  27.474  26.890   2.744
72766ION    CL-37993  17.659  18.158   0.729
72767ION    CL-37994  39.282  33.105   1.178
72768ION    CL-37995   6.001  40.222   0.376
72769ION    CL-37996   9.813  28.125  12.733
72770ION    CL-37997  10.551  12.900  12.913
72771ION    CL-37998  28.638   5.770   2.470
72772ION    CL-37999  36.904  18.126   0.271
72773ION    CL-38000  18.283  38.370   3.674
72774ION    CL-38001   4.878   4.182   3.569
72775ION    CL-38002  18.730  33.878   0.573
72776ION    CL-38003   3.753  15.832   3.397
72777ION    CL-38004  30.252   2.210  12.777
72778ION    CL-38005  15.170  39.472  11.163
72779ION    CL-38006   8.941  32.442   0.006
72780ION    CL-38007  39.697   6.510   1.047
72781ION    CL-38008  25.458  23.563   0.334
72782ION    CL-38009   9.831  17.594   2.380
72783ION    CL-38010   8.471  41.324   0.857
72784ION    CL-38011  37.167   8.784   2.036
72785ION    CL-38012  29.816   2.332   0.982
72786ION    CL-38013  31.448  12.318  10.497
72787ION    CL-38014  41.924   4.202  10.617
72788ION    CL-38015  16.332  14.119   2.334
72789ION    CL-38016  29.178  43.903   1.184
72790ION    CL-38017   4.402  28.910   2.717
72791ION    CL-38018  33.894  32.872   2.140
72792ION    CL-38019  13.606   2.836   0.382
72793ION    CL-38020  12.430  32.002   1.693
72794ION    CL-38021   3.290  19.641  12.443
72795ION    CL-38022  39.241  36.820   0.618
72796ION    CL-38023  28.968  35.992   4.696
72797ION    CL-38024   0.106  36.203   0.220
72798ION    CL-38025   8.689  13.420   0.738
72799ION    CL-38026   1.937  27.035  14.579
72800ION    CL-38027  35.328  42.207   2.598
72801ION    CL-38028  37.160  11.063  11.219
72802ION    CL-38029  25.395  20.022  12.565
72803ION    CL-38030  36.025  37.353  14.602
72804ION    CL-38031  11.383  32.964  14.481
72805ION    CL-38032  30.014   6.531   3.489
72806ION    CL-38033   5.999   4.562   0.340
72807ION    CL-38034  30.963  12.654   4.905
72808ION    CL-38035  21.645  44.967  10.185
72809ION    CL-38036  35.165  32.122   4.994
72810ION    CL-38037  43.734   2.779   0.780
72811ION    CL-38038  39.592   3.854   5.438
72812ION    CL-38039  30.325  15.847   0.375
72813ION    CL-38040  13.552  12.652   4.433
72814ION    CL-38041  28.075  13.810   3.105
72815ION    CL-38042  37.392  37.103  11.024
72816ION    CL-38043  23.952  41.068  13.608
72817ION    CL-38044  14.341  13.609   1.014
72818ION    CL-38045  40.963   0.382   4.143
72819ION    CL-38046   6.670  44.785   4.973
72820ION    CL-38047  32.449  26.152  12.468
72821ION    CL-38048   7.138  14.514   1.420
72822ION    CL-38049  20.690  37.473   5.087
72823ION    CL-38050  11.594  36.504  11.539
72824ION    CL-38051   1.759  32.252   3.109
72825ION    CL-38052  41.481  26.171  12.048
72826ION    CL-38053   9.977   2.700   3.184
72827ION    CL-38054   8.234  33.636   3.863
72828ION    CL-38055  38.643   1.574  12.041
72829ION    CL-38056   7.975   3.199   4.175
72830ION    CL-38057  39.780  32.221   1.145
72831ION    CL-38058  10.404  22.118  14.418
72832ION    CL-38059   6.016   2.248   1.870
72833ION    CL-38060  44.453  34.425   0.434
72834ION    CL-38061  31.888  11.893  11.290
72835ION    CL-38062  33.350  31.671   9.920
72836ION    CL-38063  31.902  20.005   1.357
72837ION    CL-38064  35.793   2.394   3.335
72838ION    CL-38065  33.789  37.947  14.901
72839ION    CL-38066  31.142  13.224  13.809
72840ION    CL-38067  37.181  24.027   2.636
72841ION    CL-38068   2.163  19.553  10.190
72842ION    CL-38069  37.051  36.219  11.028
72843ION    CL-38070  28.882  36.077  13.568
72844ION    CL-38071  10.688  10.534   2.454
72845ION    CL-38072   6.627   0.546   2.802
72846ION    CL-38073  11.439  22.093   3.086
72847ION    CL-38074  20.477  18.872   1.432
72848ION    CL-38075  25.534  38.745   2.177
72849ION    CL-38076  20.992  32.223   1.573
72850ION    CL-38077  43.381   6.661  11.407
72851ION    CL-38078  24.008  21.741   3.797
72852ION    CL-38079  37.452  13.697  14.527
72853ION    CL-38080   0.880  36.213  14.804
72854ION    CL-38081  22.443  36.572  14.350
72855ION    CL-38082  24.055  39.559  11.894
72856ION    CL-38083  15.638  28.259  13.290
72857ION    CL-38084   5.628  24.511  14.269
72858ION    CL-38085  23.331  36.439  14.371
72859ION    CL-38086  15.758  26.420  11.538
72860ION    CL-38087  21.772  42.891  11.259
72861ION    CL-38088  31.733   2.393   0.118
72862ION    CL-38089   4.779  15.608   2.592
72863ION    CL-38090  44.557  25.223  13.866
72864ION    CL-38091  38.648  22.804   0.428
72865ION    CL-38092  16.163  10.143  12.549
72866ION    CL-38093  14.361  24.012  12.379
72867ION    CL-38094   3.954  35.809   0.498
72868ION    CL-38095  14.766  29.865  11.216
72869ION    CL-38096   4.561   9.003  13.395
72870ION    CL-38097  25.949  40.387   4.145
72871ION    CL-38098  34.034  16.637   2.941
72872ION    CL-38099  13.483  22.430   0.112
72873ION    CL-38100   4.478  41.132   4.236
72874ION    CL-38101  36.619   2.142   1.887
72875ION    CL-38102  10.327  12.256   5.098
72876ION    CL-38103  32.717  17.022   3.252
72877ION    CL-38104  20.518   8.458  13.823
72878ION    CL-38105  21.874  21.775   2.389
72879ION    CL-38106   2.052   6.703   0.385
72880ION    CL-38107  13.053  11.764   4.147
72881ION    CL-38108   9.650  42.321  11.416
72882ION    CL-38109  34.845  13.951  10.308
72883ION    CL-38110   4.928  14.583  11.043
72884ION    CL-38111   3.847  38.466   2.189
72885ION    CL-38112  17.604   9.160  11.516
72886ION    CL-38113   9.107  43.271   1.404
72887ION    CL-38114   0.832  33.118   1.767
72888ION    CL-38115   7.196  11.541   4.873
72889ION    CL-38116   1.462   3.599  10.314
72890ION    CL-38117  31.724  20.397   3.558
72891ION    CL-38118   2.696  35.485   1.715
72892ION    CL-38119  10.085  40.099  14.019
72893ION    CL-38120  35.210   9.608  13.326
72894ION    CL-38121   1.708   9.400  13.652
72895ION    CL-38122  28.539  38.851  13.283
72896ION    CL-38123  39.315  31.616  13.242
72897ION    CL-38124  29.402  36.585   0.549
72898ION    CL-38125  18.810  12.106   1.325
72899ION    CL-38126  21.131  12.093  12.329
72900ION    CL-38127  13.962   6.032  11.694
72901ION    CL-38128  25.538  16.583   1.730
72902ION    CL-38129  26.405  15.063  11.367
72903ION    CL-38130  33.603   1.612   2.267
72904ION    CL-38131  35.893  41.814  11.634
72905ION    CL-38132  12.854  29.766   1.657
72906ION    CL-38133  36.076   8.756  10.606
72907ION    CL-38134  27.884  17.787  12.452
72908ION    CL-38135  36.995  27.858  14.028
72909ION    CL-38136  23.714  18.028   2.299
72910ION    CL-38137   3.243  31.230  10.056
72911ION    CL-38138  43.135  36.586   0.951
72912ION    CL-38139  24.453  32.634   1.300
72913ION    CL-38140   9.345  30.397   0.008
72914ION    CL-38141  23.612  39.564  11.134
72915ION    CL-38142  18.788  21.460   1.222
72916ION    CL-38143  13.021   5.999  13.193
72917ION    CL-38144  44.976  27.256   3.447
72918ION    CL-38145  42.792  37.061  12.112
72919ION    CL-38146  12.553  36.494  10.756
72920ION    CL-38147  12.758  40.299   4.082
72921ION    CL-38148  17.357  26.492   2.565
72922ION    CL-38149   2.538  40.755  10.719
72923ION    CL-38150  31.031   3.913  13.959
72924ION    CL-38151  44.475  20.301  14.168
72925ION    CL-38152  20.139  31.803  11.345
72926ION    CL-38153  36.510  29.150   0.225
72927ION    CL-38154  16.612  27.594   1.488
72928ION    CL-38155   2.021  12.636  14.468
72929ION    CL-38156  43.598  17.268   1.519
72930ION    CL-38157  21.237   0.074   2.338
72931ION    CL-38158  34.378   9.530  13.039
72932ION    CL-38159  24.988  20.067   0.370
72933ION    CL-38160  30.835  19.630  13.434
72934ION    CL-38161   9.263   1.978  13.110
72935ION    CL-38162  42.791  27.994   2.674
72936ION    CL-38163   2.500  12.786   0.886
72937ION    CL-38164   1.533  24.825  12.251
72938ION    CL-38165  20.519  39.605  13.821
72939ION    CL-38166  27.837  37.305   5.201
72940ION    CL-38167  29.277  18.934   0.797
72941ION    CL-38168   8.660  23.269   1.355
72942ION    CL-38169  17.733  11.708   1.876
72943ION    CL-38170  44.661  43.568   1.122
72944ION    CL-38171   2.463  17.886   4.102
72945ION    CL-38172  26.327  15.672  13.585
72946ION    CL-38173  42.973  27.500  10.253
72947ION    CL-38174  17.957  15.388   2.615
72948ION    CL-38175  35.584  44.204   3.849
72949ION    CL-38176  43.599  17.451   2.413
72950ION    CL-38177  36.428  25.932  12.196
72951ION    CL-38178  21.125  18.826   3.752
72952ION    CL-38179  33.975   3.312   0.647
72953ION    CL-38180  44.329   7.603   3.323
72954ION    CL-38181   1.025   3.170  13.054
72955ION    CL-38182  33.204  23.732  10.643
72956ION    CL-38183  28.173  17.802   4.143
72957ION    CL-38184   0.230   9.642  11.090
72958ION    CL-38185  38.110   4.527  14.305
72959ION    CL-38186  18.396  17.614  14.372
72960ION    CL-38187  12.297  32.084   0.801
72961ION    CL-38188  33.598  23.522  11.995
72962ION    CL-38189  37.493  36.626   3.113
72963ION    CL-38190   2.708  30.667   4.135
72964ION    CL-38191  29.587  13.560  12.403
72965ION    CL-38192  17.745  23.134   3.795
72966ION    CL-38193  22.216  25.480   0.987
72967ION    CL-38194  29.630   2.091   3.421
72968ION    CL-38195  29.550  12.056  11.988
72969ION    CL-38196  33.514  31.645  14.447
72970ION    CL-38197  39.073   4.230  12.894
72971ION    CL-38198  42.002  30.217   2.193
72972ION    CL-38199  38.542   3.911   2.315
72973ION    CL-38200  16.009  10.031  14.961
72974ION    CL-38201  22.687   2.937   2.484
72975ION    CL-38202  30.726  28.226   4.588
72976ION    CL-38203  43.082  42.535   0.636
72977ION    CL-38204   8.076   4.431   9.715
72978ION    CL-38205  30.268  42.090  11.362
72979ION    CL-38206  44.870  24.154  12.483
72980ION    CL-38207   3.660  43.155   0.188
72981ION    CL-38208  42.372  22.057  12.522
72982ION    CL-38209  16.269   9.245  11.046
72983ION    CL-38210   0.441  27.017   1.694
72984ION    CL-38211   1.131  42.594   3.331
72985ION    CL-38212  39.729  29.474  10.734
72986ION    CL-38213  28.944  42.502   2.177
72987ION    CL-38214  18.947  18.056   3.361
72988ION    CL-38215  12.902  12.980  12.818
72989ION    CL-38216  34.150  36.938  10.228
72990ION    CL-38217  38.837  39.327   4.883
72991ION    CL-38218  35.098  44.345   0.417
72992ION    CL-38219  34.660  22.131  13.984
72993ION    CL-38220   7.326  13.616   3.838
72994ION    CL-38221   3.202  41.094  11.111
72995ION    CL-38222  30.586  33.668  11.974
72996ION    CL-38223  17.259  21.092  12.903
72997ION    CL-38224   6.952   0.467   0.160
72998ION    CL-38225  32.098  38.253   1.341
72999ION    CL-38226  23.655  33.908  13.765
73000ION    CL-38227   4.599  23.915   2.829
73001ION    CL-38228  34.986  26.939   4.526
73002ION    CL-38229  26.136  21.648  13.317
73003ION    CL-38230   4.165   5.468   0.738
73004ION    CL-38231  30.700   0.153  13.850
73005ION    CL-38232  14.611   6.013   1.242
73006ION    CL-38233   0.938  16.692   3.308
73007ION    CL-38234  20.739  36.474   5.095
73008ION    CL-38235   4.459  23.168  12.984
73009ION    CL-38236  37.885  34.134  14.047
73010ION    CL-38237   2.319   0.623  13.145
73011ION    CL-38238  10.040  43.486  14.751
73012ION    CL-38239  22.581  11.326  14.755
73013ION    CL-38240  38.709  11.891  10.044
73014ION    CL-38241  33.612  10.497   0.912
73015ION    CL-38242  26.981   7.405   0.378
73016ION    CL-38243  14.039  41.377  12.115
73017ION    CL-38244   0.995  30.953   2.198
73018ION    CL-38245  24.442  40.316  13.567
73019ION    CL-38246   2.706  21.492   1.849
73020ION    CL-38247  31.413  20.868   1.600
73021ION    CL-38248  39.338  28.165  13.034
73022ION    CL-38249   5.932  18.442   5.106
73023ION    CL-38250  36.523   8.830   3.963
73024ION    CL-38251  17.534  34.145  12.148
73025ION    CL-38252   1.471  19.462  14.182
73026ION    CL-38253   4.152   4.054  13.917
73027ION    CL-38254  44.730   0.503  11.332
73028ION    CL-38255  38.247  19.057  14.835
73029ION    CL-38256  24.827  10.428   0.398
73030ION    CL-38257   7.365  19.194  12.813
73031ION    CL-38258  33.591  32.944   0.864
73032ION    CL-38259  36.320  14.746   2.338
73033ION    CL-38260  31.040  32.122  12.001
73034ION    CL-38261  40.885  29.685   0.118
73035ION    CL-38262  39.552  41.481  13.535
73036ION    CL-38263   4.367  10.358  11.588
73037ION    CL-38264  38.690  23.702   0.428
73038ION    CL-38265  36.779  19.192  13.932
73039ION    CL-38266  22.865  24.404  12.510
73040ION    CL-38267  20.396  30.537   2.545
73041ION    CL-38268  11.216   7.344  12.587
73042ION    CL-38269  30.714  38.687  10.780
73043ION    CL-38270  34.410  29.971  11.254
73044ION    CL-38271  34.448  33.068  14.389
73045ION    CL-38272  11.835  23.102  10.589
73046ION    CL-38273  32.918  41.677   4.583
73047ION    CL-38274  41.871  21.041   3.303
73048ION    CL-38275  14.034  36.689  11.535
73049ION    CL-38276  37.934  35.802   0.957
73050ION    CL-38277   5.517  34.807   2.054
73051ION    CL-38278  12.238  11.600   4.723
73052ION    CL-38279   0.705  27.747   0.963
73053ION    CL-38280  24.943  22.448   1.894
73054ION    CL-38281  30.247  19.058   1.007
73055ION    CL-38282  35.753  23.008  13.383
73056ION    CL-38283  14.285   6.590  13.390
73057ION    CL-38284  30.093  29.515  13.057
73058ION    CL-38285  24.535  37.481   1.834
73059ION    CL-38286  39.146   3.877   1.372
73060ION    CL-38287   1.710   8.176  12.974
73061ION    CL-38288   4.224  14.762   1.991
73062ION    CL-38289  16.609  32.555   2.878
73063ION    CL-38290  33.411  32.032  11.734
73064ION    CL-38291  38.888   5.633   2.719
73065ION    CL-38292  21.288  16.484   4.167
73066ION    CL-38293  29.559  23.354  11.313
73067ION    CL-38294  41.818  18.163   2.096
73068ION    CL-38295  20.509  15.269  12.128
73069ION    CL-38296  27.879  43.548   3.885
73070ION    CL-38297  32.319   1.326   4.297
73071ION    CL-38298   2.949   1.292  12.273
73072ION    CL-38299  16.981  35.083   3.917
73073ION    CL-38300  28.683  30.368  10.265
73074ION    CL-38301   7.234  28.562   2.214
73075ION    CL-38302  42.971  31.527   3.937
73076ION    CL-38303  14.575  16.813  12.404
73077ION    CL-38304  38.696  32.092  12.118
73078ION    CL-38305   4.454  31.381   1.224
73079ION    CL-38306  11.560  17.578  13.477
73080ION    CL-38307  10.668  21.685   2.041
73081ION    CL-38308  35.584  21.742  13.961
73082ION    CL-38309   8.118  43.852  11.947
73083ION    CL-38310  21.493  11.865  13.127
73084ION    CL-38311  29.342  40.614  11.045
73085ION    CL-38312   0.781  41.111  13.916
73086ION    CL-38313  24.784   5.825  10.844
73087ION    CL-38314  26.801  32.501   1.787
73088ION    CL-38315   7.977  24.635   2.919
73089ION    CL-38316  28.117  39.738   4.508
73090ION    CL-38317  42.979  14.371  11.544
73091ION    CL-38318  38.599  40.853   2.303
73092ION    CL-38319  26.040  37.480   0.801
73093ION    CL-38320  29.185  28.520  13.596
73094ION    CL-38321  16.075   2.948  14.812
73095ION    CL-38322  20.104  23.742  14.740
73096ION    CL-38323  22.569  31.554  13.019
73097ION    CL-38324  35.766  31.083  11.993
73098ION    CL-38325  44.021   5.528   2.714
73099ION    CL-38326  16.702  41.521  11.203
73100ION    CL-38327  19.604  41.759  13.546
73101ION    CL-38328  36.467  36.178  10.217
73102ION    CL-38329   2.231  43.020   0.425
73103ION    CL-38330  31.073  17.248   0.389
73104ION    CL-38331  20.047  42.817   0.921
73105ION    CL-38332  40.896  29.575   3.281
73106ION    CL-38333  30.311   1.036  12.082
73107ION    CL-38334   5.191   8.821   3.313
73108ION    CL-38335  18.768  38.202   2.653
73109ION    CL-38336  21.047  44.230   0.320
73110ION    CL-38337  26.581   7.381   3.202
73111ION    CL-38338  32.153  34.395  14.845
73112ION    CL-38339  13.874  10.637  14.752
73113ION    CL-38340  23.777  22.093   0.345
73114ION    CL-38341   3.873   1.168  11.189
73115ION    CL-38342  21.343  11.132   0.359
73116ION    CL-38343   3.615  35.768   4.087
73117ION    CL-38344  41.727   2.416  11.872
73118ION    CL-38345  16.183  23.781  14.487
73119ION    CL-38346   8.600   0.971   0.944
73120ION    CL-38347  17.358  39.683  11.355
73121ION    CL-38348  16.877  24.967  14.124
73122ION    CL-38349  31.941  17.652   3.229
73123ION    CL-38350  31.406   8.551   4.328
73124ION    CL-38351  38.918  30.975  12.893
73125ION    CL-38352  44.382  13.543   3.197
73126ION    CL-38353  23.974  27.168   1.909
73127ION    CL-38354  31.542   1.229   2.779
73128ION    CL-38355  42.675  13.033  10.788
73129ION    CL-38356  43.555  14.220  14.522
73130ION    CL-38357   0.859  20.236   1.395
73131ION    CL-38358   0.980  16.706  14.581
73132ION    CL-38359  14.640  34.789   3.776
73133ION    CL-38360  18.221  19.631   1.459
73134ION    CL-38361  30.081  34.551  13.497
73135ION    CL-38362   8.559  13.156  14.166
73136ION    CL-38363  12.134  22.367  13.436
73137ION    CL-38364  26.705  31.674   1.366
73138ION    CL-38365  14.887  39.234   4.999
73139ION    CL-38366  15.528  18.597   4.375
73140ION    CL-38367  14.543  38.957  11.749
73141ION    CL-38368  38.067   3.113   1.840
73142ION    CL-38369  41.561   3.784  12.479
73143ION    CL-38370  44.992  10.451  11.054
73144ION    CL-38371  37.560  22.110  13.733
73145ION    CL-38372  18.812   3.373  12.865
73146ION    CL-38373  12.958  41.282   0.432
73147ION    CL-38374  13.344  21.252  14.456
73148ION    CL-38375  41.730  19.245  10.190
73149ION    CL-38376  19.272   7.177   2.523
73150ION    CL-38377   9.127  16.133   1.902
73151ION    CL-38378   2.701  35.541  11.749
73152ION    CL-38379  31.861   2.983   1.070
73153ION    CL-38380  44.004  20.218   1.137
73154ION    CL-38381  12.866  28.271  10.752
73155ION    CL-38382  21.885   5.279   4.498
73156ION    CL-38383  27.687  38.477   4.354
73157ION    CL-38384  36.311   1.868   4.009
73158ION    CL-38385   2.815  35.174   5.012
73159ION    CL-38386  30.316   5.796  12.668
73160ION    CL-38387  11.240  22.193   1.570
73161ION    CL-38388  12.809   6.290   3.981
73162ION    CL-38389   2.314  28.068  11.815
73163ION    CL-38390  10.353  31.630   3.513
73164ION    CL-38391  23.075  35.273   3.306
73165ION    CL-38392  43.225  22.855   3.873
73166ION    CL-38393  36.101  32.473   4.960
73167ION    CL-38394  28.325  34.906  14.515
73168ION    CL-38395   1.059  38.953   9.662
73169ION    CL-38396  11.770  30.252  10.515
73170ION    CL-38397  21.944   7.807  11.065
73171ION    CL-38398  16.278  23.563   0.475
73172ION    CL-38399   7.281  41.796   1.450
73173ION    CL-38400  36.087  35.964  11.105
73174ION    CL-38401  24.458  44.638   3.357
73175ION    CL-38402  32.236   1.454  14.198
73176ION    CL-38403  28.927  42.526  13.318
73177ION    CL-38404  39.409  43.706  11.376
73178ION    CL-38405  20.973  12.372  14.472
73179ION    CL-38406  25.993  39.382  14.264
73180ION    CL-38407   1.606  40.269  13.495
73181ION    CL-38408  20.060   7.612  14.097
73182ION    CL-38409  10.891   6.349   3.722
73183ION    CL-38410  38.769  15.877   4.331
73184ION    CL-38411  33.128  31.048   0.546
73185ION    CL-38412  23.032  22.786  10.465
73186ION    CL-38413   3.865  34.394  11.247
73187ION    CL-38414   3.388  30.358   2.398
73188ION    CL-38415  17.003  11.646   0.816
73189ION    CL-38416   8.015  13.614   1.322
73190ION    CL-38417  19.603  15.209  14.785
73191ION    CL-38418   3.955  44.112   0.486
73192ION    CL-38419  37.214  34.483   1.461
73193ION    CL-38420  23.424   8.379  13.830
73194ION    CL-38421   6.984  31.806   0.931
73195ION    CL-38422  17.221  23.673   2.341
73196ION    CL-38423  35.308   0.920   0.698
73197ION    CL-38424  31.911  15.773   2.839
73198ION    CL-38425  40.983   2.637   5.125
73199ION    CL-38426  10.164  12.555   1.659
73200ION    CL-38427  35.136  18.021   4.966
73201ION    CL-38428  18.104  25.351   3.398
73202ION    CL-38429  27.941  16.354   9.733
73203ION    CL-38430   9.410   0.052  13.075
73204ION    CL-38431  30.242  26.436   2.688
73205ION    CL-38432   6.015  13.812  11.238
73206ION    CL-38433  27.948  41.417   5.086
73207ION    CL-38434  13.197  16.497   3.344
73208ION    CL-38435  41.094  27.429  13.216
73209ION    CL-38436  32.543  41.907   2.382
73210ION    CL-38437  16.886  38.691   2.041
73211ION    CL-38438  29.852   1.800   2.700
73212ION    CL-38439  15.700  10.310   1.467
73213ION    CL-38440  21.233   6.806   0.006
73214ION    CL-38441  43.792  34.541   4.384
73215ION    CL-38442  37.695  35.101  13.880
73216ION    CL-38443   7.683  32.658   5.146
73217ION    CL-38444   5.473  36.346   1.026
73218ION    CL-38445  23.919  39.713   3.732
73219ION    CL-38446   3.195  32.457  13.084
73220ION    CL-38447   9.505   1.658  12.281
73221ION    CL-38448   4.592  34.099  10.357
73222ION    CL-38449  20.009   6.258  12.061
73223ION    CL-38450  38.553  42.257   1.911
73224ION    CL-38451  44.559  31.921   3.882
73225ION    CL-38452  35.582   2.655  13.216
73226ION    CL-38453  25.860  14.430   4.152
73227ION    CL-38454  23.641  10.554   3.289
73228ION    CL-38455  34.302  35.481   2.214
73229ION    CL-38456  20.980  38.691   9.993
73230ION    CL-38457  15.391  23.713   1.648
73231ION    CL-38458  32.811  23.940   3.455
73232ION    CL-38459  27.444  22.553   2.584
73233ION    CL-38460  26.080  42.788  12.792
73234ION    CL-38461  27.421  11.274  11.845
73235ION    CL-38462   1.804   5.477  12.806
73236ION    CL-38463  18.346  23.474  13.458
73237ION    CL-38464  25.495  18.356   4.529
73238ION    CL-38465  24.972  17.514  12.213
73239ION    CL-38466  16.131  24.764  14.952
73240ION    CL-38467  40.589  29.997  10.845
73241ION    CL-38468  30.187  17.384   1.473
73242ION    CL-38469   9.263  39.348   3.099
73243ION    CL-38470  11.945  18.592   4.270
73244ION    CL-38471   5.545  33.469  13.439
73245ION    CL-38472  35.825  33.376   1.190
73246ION    CL-38473   1.606  36.709   1.719
73247ION    CL-38474   5.922  12.130  13.936
73248ION    CL-38475  23.518  12.702  14.335
73249ION    CL-38476  16.287   3.414  10.713
73250ION    CL-38477  20.684  39.898  10.378
73251ION    CL-38478  24.893  31.183   3.921
73252ION    CL-38479  27.346  35.042  14.365
73253ION    CL-38480  31.623   1.172   1.330
73254ION    CL-38481   0.358   7.976  10.738
73255ION    CL-38482   1.342  13.302   3.075
73256ION    CL-38483  32.013  21.550   2.440
73257ION    CL-38484  12.919  30.297   5.249
73258ION    CL-38485  20.635  14.687   1.974
73259ION    CL-38486   2.490  32.584  14.850
73260ION    CL-38487  44.503   7.698   0.067
73261ION    CL-38488  34.392  38.602   2.604
73262ION    CL-38489  43.318  35.809  14.322
73263ION    CL-38490  32.698  31.716  11.108
73264ION    CL-38491  18.827   7.010  13.454
73265ION    CL-38492  22.243  42.425   2.112
73266ION    CL-38493  41.091   5.804  12.044
73267ION    CL-38494   1.083  33.364   0.356
73268ION    CL-38495  34.923  19.151  10.494
73269ION    CL-38496  23.029  42.454  13.331
73270ION    CL-38497  24.596  43.464  10.928
73271ION    CL-38498  16.576   7.466  14.583
73272ION    CL-38499  42.029  40.306   1.306
73273ION    CL-38500  13.118  17.506  12.571
73274ION    CL-38501  33.803   9.836   2.224
73275ION    CL-38502   7.365  14.979  13.765
73276ION    CL-38503  37.271  25.490   2.859
73277ION    CL-38504  11.536  19.080  12.458
73278ION    CL-38505  14.614   2.931  12.005
73279ION    CL-38506  26.351  37.934  13.421
73280ION    CL-38507  27.546  19.526   3.295
73281ION    CL-38508  44.428  22.139   3.265
73282ION    CL-38509  12.157  44.169   4.825
73283ION    CL-38510  25.604  41.672   2.583
73284ION    CL-38511  12.609  39.876  10.816
73285ION    CL-38512  22.614  12.126   2.748
73286ION    CL-38513   7.719   6.839   4.402
73287ION    CL-38514   8.937  40.014   1.514
73288ION    CL-38515  43.026  18.018  10.642
73289ION    CL-38516  42.521  28.834   2.558
73290ION    CL-38517  16.580  22.368   1.352
73291ION    CL-38518  34.416  15.606   0.772
73292ION    CL-38519  16.427  35.254  11.176
73293ION    CL-38520  29.494   5.328   2.877
73294ION    CL-38521  28.955  33.821   2.220
73295ION    CL-38522  24.368  37.619  12.972
73296ION    CL-38523   5.950  23.145   3.835
73297ION    CL-38524  13.893  23.250   3.516
73298ION    CL-38525  14.722  11.946  14.153
73299ION    CL-38526  44.693  23.067   3.623
73300ION    CL-38527   1.873  15.108  14.325
73301ION    CL-38528  37.143  25.566  14.673
73302ION    CL-38529  22.545  38.067  14.694
73303ION    CL-38530   4.016  38.631   3.647
73304ION    CL-38531  28.967  42.563   4.917
73305ION    CL-38532  34.953  44.679   4.779
73306ION    CL-38533  40.071   2.572  10.775
73307ION    CL-38534  14.122  35.493  14.877
73308ION    CL-38535  40.613  23.570  11.515
73309ION    CL-38536  11.647  40.980   4.144
73310ION    CL-38537  14.564  25.447  11.011
73311ION    CL-38538  20.506  33.380   3.650
73312ION    CL-38539  39.599   1.782  11.184
73313ION    CL-38540  17.465   4.272   1.747
73314ION    CL-38541   3.304  26.998  13.313
73315ION    CL-38542  41.445  23.382   2.080
73316ION    CL-38543  17.153  36.976   4.097
73317ION    CL-38544  36.967  32.811   0.983
73318ION    CL-38545   9.188  16.394   2.866
73319ION    CL-38546  39.679  30.439   0.776
73320ION    CL-38547  26.309  31.987  10.187
73321ION    CL-38548  44.382  18.670  12.212
73322ION    CL-38549  23.423  40.807  11.925
73323ION    CL-38550  27.231  25.050   2.708
73324ION    CL-38551  42.782  24.685   1.114
73325ION    CL-38552   0.205  34.197  12.517
73326ION    CL-38553  19.418   5.244   0.035
73327ION    CL-38554  31.249  38.748  14.286
73328ION    CL-38555  42.981   9.609   4.969
73329ION    CL-38556  36.059  36.724  14.098
73330ION    CL-38557  31.509  36.332   1.814
73331ION    CL-38558  28.229  14.432   1.648
73332ION    CL-38559  11.239  39.502  12.159
73333ION    CL-38560  41.876  13.970   3.148
73334ION    CL-38561  44.440   3.718   1.839
73335ION    CL-38562  24.060  20.206   5.013
73336ION    CL-38563  30.134  15.780   2.803
73337ION    CL-38564  40.906   1.995  11.808
73338ION    CL-38565  23.442  25.641  12.211
73339ION    CL-38566  27.604  37.742   3.828
73340ION    CL-38567  27.666  12.721  13.317
73341ION    CL-38568  19.465  26.039  12.697
73342ION    CL-38569  10.992  30.631   3.877
73343ION    CL-38570   0.475   7.868   4.134
73344ION    CL-38571  24.902  26.542   5.160
73345ION    CL-38572   9.078  32.694  10.444
73346ION    CL-38573  16.403   7.016   2.837
73347ION    CL-38574  27.787  14.532   0.850
73348ION    CL-38575  22.069  41.435   2.324
73349ION    CL-38576  14.050  30.943  10.671
73350ION    CL-38577  32.745  43.727  10.559
73351ION    CL-38578  13.091  23.354  14.874
73352ION    CL-38579  13.734   4.623  12.705
73353ION    CL-38580  16.279  28.082  14.036
73354ION    CL-38581  44.294  31.450  14.507
73355ION    CL-38582  22.683  44.616   1.294
73356ION    CL-38583  19.404   2.357   0.194
73357ION    CL-38584  42.431  32.657  12.129
73358ION    CL-38585   9.121  11.732   1.789
73359ION    CL-38586  28.241  29.890   3.506
73360ION    CL-38587  18.042  14.878   5.056
73361ION    CL-38588   8.129  26.219   2.137
73362ION    CL-38589  20.401  37.058   4.481
73363ION    CL-38590   7.790  10.818  11.836
73364ION    CL-38591  24.245  11.339   3.150
73365ION    CL-38592  11.123  27.834   0.030
73366ION    CL-38593  25.685  10.007  13.985
73367ION    CL-38594  28.500  33.986  12.668
73368ION    CL-38595  17.711  26.211  12.370
73369ION    CL-38596  18.706  36.124   1.952
73370ION    CL-38597   2.368   0.973   3.395
73371ION    CL-38598  15.022  21.791  14.776
73372ION    CL-38599  22.104  15.172   2.434
73373ION    CL-38600  12.378  21.098  13.412
73374ION    CL-38601  14.769  17.993   0.054
73375ION    CL-38602   1.159  37.440   2.043
73376ION    CL-38603   3.268  25.869  11.804
73377ION    CL-38604  35.124  19.570   4.459
73378ION    CL-38605  28.686  44.721   2.483
73379ION    CL-38606  32.336  32.011  12.571
73380ION    CL-38607  34.586  18.358   0.223
73381ION    CL-38608  17.567  14.225   4.627
73382ION    CL-38609  40.036   8.005  13.679
73383ION    CL-38610  24.939  18.784   3.775
73384ION    CL-38611   1.199  25.777  12.710
73385ION    CL-38612  43.278   3.798  11.645
73386ION    CL-38613   3.617  21.386   1.961
73387ION    CL-38614  35.022  31.223   4.997
73388ION    CL-38615  16.137  28.130   2.912
73389ION    CL-38616  36.671  38.137   0.090
73390ION    CL-38617  43.922  34.252   1.657
73391ION    CL-38618  14.774   1.965  10.919
73392ION    CL-38619  34.957  24.123   0.616
73393ION    CL-38620  23.470  37.144  10.949
73394ION    CL-38621  40.329  42.973   1.683
73395ION    CL-38622   3.708   9.745  14.615
73396ION    CL-38623  17.866   2.230  14.230
73397ION    CL-38624  42.817   9.627   1.717
73398ION    CL-38625  30.636   4.518   3.616
73399ION    CL-38626  24.189  35.489   2.666
73400ION    CL-38627  15.322  37.816  11.537
73401ION    CL-38628  12.188  24.216  10.925
73402ION    CL-38629  16.749  27.068   2.171
73403ION    CL-38630  37.798   7.029  10.734
73404ION    CL-38631  40.865  17.923  13.783
73405ION    CL-38632  36.212   1.821  13.457
73406ION    CL-38633   2.797  10.357  11.157
73407ION    CL-38634   2.819   7.234  11.320
73408ION    CL-38635  19.854  12.272   4.372
73409ION    CL-38636   3.948   9.755  13.635
73410ION    CL-38637  16.525  36.348  12.855
73411ION    CL-38638   3.924  26.220   4.242
73412ION    CL-38639  42.328  40.317   0.352
73413ION    CL-38640   9.587  43.508  12.194
73414ION    CL-38641  42.318   7.054  11.979
73415ION    CL-38642  18.532  38.539  14.316
73416ION    CL-38643  29.756  34.096  14.145
73417ION    CL-38644  33.339   6.317  13.553
73418ION    CL-38645  38.176  24.220   5.070
73419ION    CL-38646  33.826  28.371   0.245
73420ION    CL-38647  18.321  10.708   4.541
73421ION    CL-38648  37.949  24.461   4.126
73422ION    CL-38649  37.305  37.510  11.942
73423ION    CL-38650   6.953  16.300   4.044
73424ION    CL-38651   7.707  44.424  11.362
73425ION    CL-38652  21.087  14.445  13.603
73426ION    CL-38653   4.609  12.685  13.147
73427ION    CL-38654   0.055   5.836  13.749
73428ION    CL-38655  14.590  29.549   0.438
73429ION    CL-38656   0.816  16.457   2.501
73430ION    CL-38657   3.471  32.296   4.641
73431ION    CL-38658  44.397  42.517  13.569
73432ION    CL-38659  21.607   0.935   0.181
73433ION    CL-38660  20.475   3.599  14.397
73434ION    CL-38661   6.254  33.976  14.765
73435ION    CL-38662  18.127   0.485  13.225
73436ION    CL-38663  22.836  19.050  13.584
73437ION    CL-38664   3.255   6.020   0.390
73438ION    CL-38665  15.662  34.495  10.222
73439ION    CL-38666  44.083  26.412   3.184
73440ION    CL-38667  41.364  43.541   4.085
73441ION    CL-38668  32.447  38.045  13.012
73442ION    CL-38669   3.465  18.699  12.155
73443ION    CL-38670  40.153  43.474  10.395
73444ION    CL-38671  15.108   4.162  11.813
73445ION    CL-38672  25.530  26.723  10.736
73446ION    CL-38673  44.380  27.117  14.875
73447ION    CL-38674  20.988  15.483   0.808
73448ION    CL-38675  22.781  28.680  11.245
73449ION    CL-38676  26.139  30.220   0.331
73450ION    CL-38677  41.424   9.399   2.347
73451ION    CL-38678  13.591  25.083   1.911
73452ION    CL-38679  36.595  27.091   3.288
73453ION    CL-38680   1.443   3.807   0.823
73454ION    CL-38681  17.052  42.325  12.031
73455ION    CL-38682  22.205  38.829   1.776
73456ION    CL-38683  23.505   7.311   3.684
73457ION    CL-38684  26.962  43.014  14.769
73458ION    CL-38685  12.313  13.627   2.416
73459ION    CL-38686  39.072  19.203  14.289
73460ION    CL-38687  29.068   1.270   0.736
73461ION    CL-38688  40.829  23.426   4.997
73462ION    CL-38689  38.496  38.222  11.327
73463ION    CL-38690  20.441  30.982  11.582
73464ION    CL-38691  27.576  11.370  13.605
73465ION    CL-38692  39.854  14.861  11.598
73466ION    CL-38693  13.754  27.751   0.245
73467ION    CL-38694  35.917   5.483   2.460
73468ION    CL-38695  26.873  40.626  13.106
73469ION    CL-38696  27.932  37.029  12.634
73470ION    CL-38697  14.552  35.031   1.064
73471ION    CL-38698   5.155   8.567  13.847
73472ION    CL-38699  34.548  26.215  14.859
73473ION    CL-38700  32.239  33.150  11.092
73474ION    CL-38701  33.214  32.916  13.879
73475ION    CL-38702   6.650  38.478  13.412
73476ION    CL-38703  21.425   4.670   1.675
73477ION    CL-38704  14.487  42.376   2.136
73478ION    CL-38705  25.042  37.942   0.912
73479ION    CL-38706  16.381  28.857  13.591
73480ION    CL-38707  15.004  14.776   0.966
73481ION    CL-38708  22.957   3.602   0.294
73482ION    CL-38709  35.288  13.888   2.085
73483ION    CL-38710  20.497  42.335  13.469
73484ION    CL-38711  43.650  25.431   0.310
73485ION    CL-38712  20.270   7.351  10.462
73486ION    CL-38713  10.949   9.131  11.152
73487ION    CL-38714  34.608  29.812  12.288
73488ION    CL-38715  36.459  39.964   3.202
73489ION    CL-38716  28.746  21.173  10.891
73490ION    CL-38717   5.260   6.621  14.220
73491ION    CL-38718   3.730  38.290   4.982
73492ION    CL-38719   3.698  24.001   1.253
73493ION    CL-38720  39.625   7.418   2.718
73494ION    CL-38721  30.418   2.450   3.996
73495ION    CL-38722  41.830  38.576  13.640
73496ION    CL-38723   0.818  33.168  11.142
73497ION    CL-38724   8.610  13.075   1.558
73498ION    CL-38725   2.232  20.726   0.806
73499ION    CL-38726  32.450  41.523  14.760
73500ION    CL-38727  42.517  18.643  11.235
73501ION    CL-38728  36.665  20.193  10.373
73502ION    CL-38729  11.793   0.007  14.797
73503ION    CL-38730  14.629  40.518   4.107
73504ION    CL-38731  24.682   1.740   1.375
73505ION    CL-38732   3.446  11.718   4.102
73506ION    CL-38733   8.861  29.426  10.748
73507ION    CL-38734   8.206   9.061  13.892
73508ION    CL-38735  36.568  17.905  13.041
73509ION    CL-38736  29.008  22.971   4.002
73510ION    CL-38737  20.030  16.002  11.619
73511ION    CL-38738  13.987  27.158  13.348
73512ION    CL-38739  37.921  44.004  12.435
73513ION    CL-38740   0.893  43.817  13.245
73514ION    CL-38741  29.349  29.027  11.056
73515ION    CL-38742   2.180   5.473   0.932
73516ION    CL-38743  44.055  29.168  12.649
73517ION    CL-38744  19.350  12.259  13.548
73518ION    CL-38745  40.720   1.055  14.097
73519ION    CL-38746  24.756  19.450  13.079
73520ION    CL-38747  35.672  27.575  10.802
73521ION    CL-38748  17.553  19.726   3.721
73522ION    CL-38749   9.314  13.917  13.010
73523ION    CL-38750   5.214   9.101  11.920
73524ION    CL-38751   4.593  43.300   0.578
73525ION    CL-38752  44.896  14.422   1.366
73526ION    CL-38753  26.953   9.832   0.300
73527ION    CL-38754   5.491  22.146  11.318
73528ION    CL-38755  33.706   6.478   1.341
73529ION    CL-38756  43.488   8.305  13.856
73530ION    CL-38757  17.806  24.859   4.101
73531ION    CL-38758  15.219  14.680  12.871
73532ION    CL-38759  41.498  28.078  12.571
73533ION    CL-38760  33.711  25.302  12.340
73534ION    CL-38761  13.160  29.237   1.053
73535ION    CL-38762  35.372  31.690   3.331
73536ION    CL-38763  16.347  22.052   4.204
73537ION    CL-38764  20.374  16.725  13.920
73538ION    CL-38765   2.066  24.444   3.770
73539ION    CL-38766   8.692  13.297  12.123
73540ION    CL-38767  28.255  10.776  11.596
73541ION    CL-38768  40.111  29.016   2.788
73542ION    CL-38769   5.494  38.801  14.398
73543ION    CL-38770  23.874  13.024   1.516
73544ION    CL-38771  33.606   2.938   3.601
73545ION    CL-38772  17.502   9.865  12.074
73546ION    CL-38773  24.244  38.521   1.752
73547ION    CL-38774  19.063  43.908  11.125
73548ION    CL-38775  41.443  37.974   3.780
73549ION    CL-38776  27.932  23.376  11.513
73550ION    CL-38777   1.218   1.155  13.954
73551ION    CL-38778   6.278  41.042   4.192
73552ION    CL-38779  29.158  38.543  10.661
73553ION    CL-38780  23.692  44.969   2.718
73554ION    CL-38781  37.469  22.972  12.841
73555ION    CL-38782   9.661  19.098  12.441
73556ION    CL-38783  22.319  33.912   4.561
73557ION    CL-38784  11.108  27.316   0.728
73558ION    CL-38785  39.287  20.637   3.756
73559ION    CL-38786  34.655  39.152   2.880
73560ION    CL-38787  17.420  29.292   0.974
73561ION    CL-38788  16.639  21.252   1.444
73562ION    CL-38789   0.225  20.612   3.140
73563ION    CL-38790  42.127  20.604  13.969
73564ION    CL-38791  25.389  35.690  14.323
73565ION    CL-38792  41.741   3.371   4.130
73566ION    CL-38793  26.153   8.451  14.092
73567ION    CL-38794  37.723  26.326  11.294
73568ION    CL-38795  44.515  25.614  10.455
73569ION    CL-38796  27.919  36.331   1.803
73570ION    CL-38797  35.242  43.821   5.158
73571ION    CL-38798  22.198  38.950   0.046
73572ION    CL-38799   8.427  31.876   4.213
73573ION    CL-38800  44.196   3.149  12.056
73574ION    CL-38801   0.783  41.479  12.986
73575ION    CL-38802  41.877   4.251  11.615
73576ION    CL-38803  44.435  28.727  14.896
73577ION    CL-38804  23.658   1.251   2.733
73578ION    CL-38805  30.284  13.532  13.264
73579ION    CL-38806  39.263   2.822  14.472
73580ION    CL-38807  33.908  14.299  10.281
73581ION    CL-38808  10.673  39.531  11.335
73582ION    CL-38809  37.442  42.737  10.724
73583ION    CL-38810  41.295  15.539   5.003
73584ION    CL-38811  10.753   2.162   4.938
73585ION    CL-38812  26.678   9.744  11.191
73586ION    CL-38813  43.116  17.742  12.294
73587ION    CL-38814  22.787  13.856   4.191
73588ION    CL-38815  35.281  10.857   3.421
73589ION    CL-38816   2.594  21.832  12.394
73590ION    CL-38817  18.089  44.352  14.500
73591ION    CL-38818   7.304   3.977   0.854
73592ION    CL-38819  38.854   6.854   1.033
73593ION    CL-38820  21.057  40.363   2.289
73594ION    CL-38821  36.925  21.210   1.001
73595ION    CL-38822   3.196  27.971   0.232
73596ION    CL-38823  27.781  34.365   2.587
73597ION    CL-38824   0.207  17.677   1.732
73598ION    CL-38825  24.247  21.617  11.416
73599ION    CL-38826  17.089  44.997  11.067
73600ION    CL-38827   9.636  32.572   4.679
73601ION    CL-38828  19.517   1.049  13.850
73602ION    CL-38829  14.497  40.103  13.017
73603ION    CL-38830  44.329  19.691  13.205
73604ION    CL-38831   4.984  24.060  12.112
73605ION    CL-38832  27.751  21.073  10.684
73606ION    CL-38833   3.092  18.558   2.443
73607ION    CL-38834  29.945   5.655   3.707
73608ION    CL-38835  30.784  25.397   9.801
73609ION    CL-38836  19.528   7.197   0.366
73610ION    CL-38837  24.454  10.120   2.394
73611ION    CL-38838  16.371  27.241  10.194
73612ION    CL-38839  35.410  20.730   4.353
73613ION    CL-38840   0.468  39.183   4.754
73614ION    CL-38841  11.122  25.001  12.459
73615ION    CL-38842  10.665  43.540   4.687
73616ION    CL-38843   8.295   4.916   3.707
73617ION    CL-38844  33.161   0.306   2.215
73618ION    CL-38845   9.327   0.788  13.865
73619ION    CL-38846  37.111  43.000   4.131
73620ION    CL-38847  10.735   0.415   0.263
73621ION    CL-38848  27.768  38.363  13.284
73622ION    CL-38849   6.652  21.036  13.926
73623ION    CL-38850  17.976   8.630  14.839
73624ION    CL-38851  35.343  33.942   0.721
73625ION    CL-38852  39.097  17.393   0.950
73626ION    CL-38853  29.795  36.222  12.466
73627ION    CL-38854   5.800   5.222  13.155
73628ION    CL-38855  35.799  36.619   2.741
73629ION    CL-38856   0.936  44.410  14.465
73630ION    CL-38857  42.126  11.738   1.996
73631ION    CL-38858  13.770  11.611  10.701
73632ION    CL-38859  36.103  42.581   2.736
73633ION    CL-38860   6.443  22.295  11.592
73634ION    CL-38861  39.809  25.185  10.561
73635ION    CL-38862  10.442  23.008   4.314
73636ION    CL-38863  29.121  15.827   1.020
73637ION    CL-38864  19.528  14.588  12.176
73638ION    CL-38865  27.249   0.656   5.146
73639ION    CL-38866   5.659   6.468   0.036
73640ION    CL-38867  15.541  35.753  10.745
73641ION    CL-38868  42.314  31.712   3.206
73642ION    CL-38869   3.677  38.440  11.003
73643ION    CL-38870  38.178  13.133   3.447
73644ION    CL-38871   2.779  15.698  12.026
73645ION    CL-38872  31.592  22.990  13.409
73646ION    CL-38873  20.422  38.179  11.448
73647ION    CL-38874  18.260   6.408  12.893
73648ION    CL-38875  12.628  32.850  13.623
73649ION    CL-38876   1.304  25.202   3.695
73650ION    CL-38877   3.384  15.446  12.662
73651ION    CL-38878  41.395  18.848   4.336
73652ION    CL-38879  43.398  26.729  14.879
73653ION    CL-38880  12.965  28.801   1.894
73654ION    CL-38881  36.652  27.773  10.805
73655ION    CL-38882   0.113  15.812   4.906
73656ION    CL-38883  16.767   9.314  12.498
73657ION    CL-38884  13.645  15.263  14.292
73658ION    CL-38885  37.756  20.723   3.367
73659ION    CL-38886  30.025  23.981   4.353
73660ION    CL-38887   6.970   1.885   1.339
73661ION    CL-38888  18.054  39.123   0.434
73662ION    CL-38889  10.685   7.526  14.426
73663ION    CL-38890   1.843  40.863   2.679
73664ION    CL-38891  12.161   8.542  14.301
73665ION    CL-38892  34.938  24.932   2.798
73666ION    CL-38893  42.030  42.894  11.983
73667ION    CL-38894  19.308  33.386  14.810
73668ION    CL-38895   8.200  22.385   1.443
73669ION    CL-38896   5.133   4.261  11.565
73670ION    CL-38897  35.745  18.285  11.355
73671ION    CL-38898   3.176  10.377  13.502
73672ION    CL-38899  34.069  24.520  12.051
73673ION    CL-38900   2.490  41.371   3.249
73674ION    CL-38901   3.364   2.594   4.346
73675ION    CL-38902  26.035  18.903  11.620
73676ION    CL-38903  18.827  30.630  10.316
73677ION    CL-38904  34.143   0.441   2.343
73678ION    CL-38905  42.606   9.097  11.423
73679ION    CL-38906   8.177  43.917  14.271
73680ION    CL-38907  22.231  27.499  14.918
73681ION    CL-38908  44.582  12.061   2.252
73682ION    CL-38909  29.424  41.907   2.821
73683ION    CL-38910  27.833  23.045   4.681
73684ION    CL-38911  41.729   0.423   3.012
73685ION    CL-38912   1.029  10.690  13.449
73686ION    CL-38913  42.738   2.230  14.819
73687ION    CL-38914   4.456   6.551   1.666
73688ION    CL-38915  15.743  33.228  10.153
73689ION    CL-38916  21.907  23.472   0.246
73690ION    CL-38917  23.981  44.457  13.418
73691ION    CL-38918  27.195   0.897  12.640
73692ION    CL-38919  10.908  12.086   1.878
73693ION    CL-38920  13.948   1.056  12.098
73694ION    CL-38921  42.762   1.845   0.741
73695ION    CL-38922  15.153  21.673   3.682
73696ION    CL-38923  42.887  30.555  10.451
73697ION    CL-38924   5.631  19.333   4.764
73698ION    CL-38925  23.549   9.263  14.280
73699ION    CL-38926  18.376   6.469   1.099
73700ION    CL-38927  14.058  24.926  12.046
73701ION    CL-38928  22.891  16.846   2.853
73702ION    CL-38929  32.755  24.971  12.858
73703ION    CL-38930   5.440  38.522  11.832
73704ION    CL-38931  41.580  11.046   3.547
73705ION    CL-38932  37.932  31.650  11.602
73706ION    CL-38933  10.279   6.711   4.839
73707ION    CL-38934  41.598  19.375  13.653
73708ION    CL-38935  34.373  16.760  13.490
73709ION    CL-38936   3.513  24.648  10.696
73710ION    CL-38937  25.010   0.800   3.404
73711ION    CL-38938  26.988   2.577  13.775
73712ION    CL-38939  42.066  39.508  10.984
73713ION    CL-38940  44.080  44.283  10.201
73714ION    CL-38941  28.118  40.726  12.450
73715ION    CL-38942  43.061  35.524   4.942
73716ION    CL-38943   5.514   2.758   3.594
73717ION    CL-38944  20.185   5.952   3.178
73718ION    CL-38945  22.270  13.958   1.228
73719ION    CL-38946  16.108   1.825  11.192
73720ION    CL-38947  11.649  33.893  13.549
73721ION    CL-38948  16.487  44.915   0.492
73722ION    CL-38949  36.504  34.673  13.363
73723ION    CL-38950  38.974   0.161   2.403
73724ION    CL-38951  27.991  24.490  14.499
73725ION    CL-38952  37.116  21.533   1.840
73726ION    CL-38953  17.489   9.206   4.390
73727ION    CL-38954  16.240   7.780  13.081
73728ION    CL-38955  43.408  12.726   2.848
73729ION    CL-38956  29.507  27.084   2.891
73730ION    CL-38957   2.728  12.288   5.011
73731ION    CL-38958  15.507  44.525  11.871
73732ION    CL-38959   8.154  15.309   1.340
73733ION    CL-38960   0.672   6.339   3.213
73734ION    CL-38961  13.537  23.550  13.934
73735ION    CL-38962  27.894  42.343   3.310
73736ION    CL-38963  21.262   3.445   2.929
73737ION    CL-38964  42.776   0.861   2.397
73738ION    CL-38965  34.680  37.071  13.267
73739ION    CL-38966   3.872   7.772  12.014
73740ION    CL-38967  10.515   4.249   1.700
73741ION    CL-38968  24.361  13.998  13.669
73742ION    CL-38969  41.699   7.430  13.917
73743ION    CL-38970  21.304   6.579  12.564
73744ION    CL-38971  42.718   9.840  11.903
73745ION    CL-38972  25.719  17.092  11.692
73746ION    CL-38973   0.261  25.459   1.959
73747ION    CL-38974  12.579  28.335   0.736
73748ION    CL-38975  36.657  13.399   4.181
73749ION    CL-38976  39.016  12.569  12.456
73750ION    CL-38977  18.469  33.763  11.026
73751ION    CL-38978  14.239  41.098  10.644
73752ION    CL-38979  26.115  36.176  13.658
73753ION    CL-38980  42.910  41.107  11.147
73754ION    CL-38981  31.036  11.010   4.223
73755ION    CL-38982  11.277  24.982   2.770
73756ION    CL-38983  17.782  29.965   2.893
73757ION    CL-38984   2.771  17.255   3.284
73758ION    CL-38985  37.150   7.797   4.312
73759ION    CL-38986  13.104   5.110  12.273
73760ION    CL-38987  26.733  33.413   1.756
73761ION    CL-38988  22.912   6.511   3.593
73762ION    CL-38989  13.320   5.456   3.774
73763ION    CL-38990  30.748  22.550   0.455
73764ION    CL-38991   2.964  23.857  10.271
73765ION    CL-38992  35.743  22.714  14.487
73766ION    CL-38993  39.888  38.817  11.594
73767ION    CL-38994  40.368   1.702   9.700
73768ION    CL-38995  26.386  36.087  11.580
73769ION    CL-38996  43.052  33.953  11.879
73770ION    CL-38997  28.014  25.623   3.733
73771ION    CL-38998  38.665   4.783   1.716
73772ION    CL-38999  16.094  36.991  10.501
73773ION    CL-39000   2.341   4.877   0.012
73774ION    CL-39001  27.945   8.747   0.217
73775ION    CL-39002  28.888  13.479  12.968
73776ION    CL-39003  30.468  33.914  14.631
73777ION    CL-39004  37.045   1.957  12.105
73778ION    CL-39005  18.043  23.655  11.963
73779ION    CL-39006  36.374   2.905  11.977
73780ION    CL-39007  16.250  20.238   0.708
73781ION    CL-39008  17.315  30.694   3.061
73782ION    CL-39009  17.178  19.049  10.634
73783ION    CL-39010  23.145  43.778  11.147
73784ION    CL-39011   5.171  39.896   2.681
73785ION    CL-39012   3.371  24.840  14.727
73786ION    CL-39013  21.484  19.163   2.881
73787ION    CL-39014  36.474  30.936   1.617
73788ION    CL-39015   1.540  26.240   0.975
73789ION    CL-39016  16.455  44.209   3.994
73790ION    CL-39017  29.936  37.525   0.596
73791ION    CL-39018   4.880  15.264  10.547
73792ION    CL-39019   8.652  41.926   3.596
73793ION    CL-39020  42.531  33.895  12.999
73794ION    CL-39021  35.179  10.559   0.706
73795ION    CL-39022   2.740  32.522   1.639
73796ION    CL-39023  35.237  23.519  14.081
73797ION    CL-39024  41.652  22.590   4.124
73798ION    CL-39025  40.053  36.889  13.846
73799ION    CL-39026  12.232   5.792   0.610
73800ION    CL-39027  16.473  37.912   1.994
73801ION    CL-39028  33.595  32.923  11.202
73802ION    CL-39029  14.720  30.834   3.535
73803ION    CL-39030  31.884  13.814  13.406
73804ION    CL-39031  19.216  19.291   1.824
73805ION    CL-39032   7.218  35.578   3.215
73806ION    CL-39033  18.542  39.501   1.807
73807ION    CL-39034  16.352   5.234  13.538
73808ION    CL-39035  32.655  18.599   3.635
73809ION    CL-39036  18.746  36.270   3.250
73810ION    CL-39037  26.479  39.271  10.169
73811ION    CL-39038   3.361  12.796  14.455
73812ION    CL-39039   8.098  30.045  12.571
73813ION    CL-39040  32.659  37.915   2.770
73814ION    CL-39041  34.372  19.795   1.689
73815ION    CL-39042   8.391  34.751  12.969
73816ION    CL-39043  11.612  32.861   1.341
73817ION    CL-39044  17.412  34.923  14.796
73818ION    CL-39045  27.643  10.105  12.144
73819ION    CL-39046  16.581  40.571  11.633
73820ION    CL-39047  32.919  27.492  12.889
73821ION    CL-39048   3.214  30.238   9.941
73822ION    CL-39049  18.854  33.964  12.417
73823ION    CL-39050  24.417  34.926  13.264
73824ION    CL-39051  44.510  19.721   1.842
73825ION    CL-39052  26.808  20.343   3.690
73826ION    CL-39053  37.881  25.514  10.961
73827ION    CL-39054  40.322  28.061  12.098
73828ION    CL-39055   4.999  12.280   4.742
73829ION    CL-39056  24.400  40.542   2.618
73830ION    CL-39057  28.706  44.416  13.955
73831ION    CL-39058   4.649  33.030  13.503
73832ION    CL-39059  34.381  15.888   2.501
73833ION    CL-39060  25.413  20.203  11.151
73834ION    CL-39061  23.170  22.582   1.795
73835ION    CL-39062  44.910   8.947   3.427
73836ION    CL-39063   6.856   1.251   4.964
73837ION    CL-39064  24.653  14.590  11.113
73838ION    CL-39065  44.503  15.022   2.073
73839ION    CL-39066  40.374  28.633   4.879
73840ION    CL-39067  33.690  24.707  11.106
73841ION    CL-39068  34.410   2.793  13.243
73842ION    CL-39069   3.325  37.987   1.628
73843ION    CL-39070  23.541  16.259   4.180
73844ION    CL-39071  19.521   4.693  14.078
73845ION    CL-39072  44.239  44.468  14.498
73846ION    CL-39073  26.252  28.580   2.235
73847ION    CL-39074  30.446  24.819   1.078
73848ION    CL-39075  12.324  17.414   3.702
73849ION    CL-39076   1.381  22.888   4.073
73850ION    CL-39077  22.628  32.029   5.016
73851ION    CL-39078  35.112  11.644  14.489
73852ION    CL-39079  25.608  14.812   0.928
73853ION    CL-39080  17.601  12.482   0.487
73854ION    CL-39081  44.958  26.482  10.680
73855ION    CL-39082  22.040   5.295   3.484
73856ION    CL-39083  34.380  20.792   0.242
73857ION    CL-39084  24.176   8.847   0.724
73858ION    CL-39085  43.112  15.280  11.638
73859ION    CL-39086  15.537  27.299  14.398
73860ION    CL-39087  25.668  24.236   3.972
73861ION    CL-39088  24.227  28.112  11.583
73862ION    CL-39089  15.680  41.654   4.968
73863ION    CL-39090  16.615  31.846  12.052
73864ION    CL-39091   9.879  19.851  10.758
73865ION    CL-39092   5.275  23.853   3.625
73866ION    CL-39093  34.062  24.561   3.866
73867ION    CL-39094  31.140  29.004   5.447
73868ION    CL-39095  22.898  26.419  12.526
73869ION    CL-39096  28.753  36.573   5.262
73870ION    CL-39097   3.124   1.860   2.595
73871ION    CL-39098   6.715  13.901   0.532
73872ION    CL-39099  20.070  33.131   0.927
73873ION    CL-39100   9.281  37.589  10.688
73874ION    CL-39101  13.545  33.974  14.048
73875ION    CL-39102   7.427  24.643  10.820
73876ION    CL-39103  28.476  33.136   4.968
73877ION    CL-39104  43.359  25.948   2.187
73878ION    CL-39105  39.429  13.377   3.819
73879ION    CL-39106  28.872   3.040   2.291
73880ION    CL-39107   0.049  23.725   4.309
73881ION    CL-39108  21.131  37.441  11.858
73882ION    CL-39109  23.748  10.553  13.132
73883ION    CL-39110  30.165   3.895   3.168
73884ION    CL-39111   9.205  42.857  10.699
73885ION    CL-39112   8.986  21.682   1.299
73886ION    CL-39113  36.113  30.241  14.479
73887ION    CL-39114  33.150  34.404   4.616
73888ION    CL-39115  19.490   6.092  13.885
73889ION    CL-39116  32.536  29.214  13.598
73890ION    CL-39117  25.173  39.840  13.287
73891ION    CL-39118  22.725  30.962   4.222
73892ION    CL-39119  22.469  24.494  13.907
73893ION    CL-39120  37.611  17.378  11.210
73894ION    CL-39121  27.421  14.160   5.182
73895ION    CL-39122  17.195  31.226  14.855
73896ION    CL-39123  32.142  10.067   4.580
73897ION    CL-39124  16.784  44.201  10.872
73898ION    CL-39125  24.225  23.570   4.888
73899ION    CL-39126   4.234  32.840   3.173
73900ION    CL-39127   0.338  25.045  10.421
73901ION    CL-39128  39.894  20.968  12.010
73902ION    CL-39129  30.981  42.489  14.303
73903ION    CL-39130  27.902  11.791   4.121
73904ION    CL-39131  10.641  27.531   2.281
73905ION    CL-39132  41.615  14.612  13.077
73906ION    CL-39133  22.845   2.842  14.339
73907ION    CL-39134   6.363  22.167   4.361
73908ION    CL-39135  41.218  18.755   0.964
73909ION    CL-39136  38.758  17.855  12.648
73910ION    CL-39137  12.042  21.401   0.531
73911ION    CL-39138   3.922  19.686   2.112
73912ION    CL-39139  11.287   3.139   0.145
73913ION    CL-39140  33.875  21.070  11.748
73914ION    CL-39141  26.702  19.826  11.867
73915ION    CL-39142   4.318  27.615  11.548
73916ION    CL-39143   8.364  34.739  11.970
73917ION    CL-39144  15.014  41.218  11.956
73918ION    CL-39145  20.228  25.670   3.234
73919ION    CL-39146  35.623  25.317   2.180
73920ION    CL-39147  11.339  16.467   2.237
73921ION    CL-39148  33.958  17.985   4.578
73922ION    CL-39149  26.116  43.702   2.972
73923ION    CL-39150  10.976  42.707   5.143
73924ION    CL-39151  13.676  38.345   0.228
73925ION    CL-39152  27.572  22.336   0.237
73926ION    CL-39153  16.658   9.777  14.244
73927ION    CL-39154   4.686  41.491  13.051
73928ION    CL-39155   0.613   3.316   9.868
73929ION    CL-39156  35.083  36.294  12.784
73930ION    CL-39157  17.872  39.715   4.120
73931ION    CL-39158  13.426  35.301   1.022
73932ION    CL-39159  43.022  17.684  13.193
73933ION    CL-39160   7.778  18.298  11.506
73934ION    CL-39161  15.692   7.003  14.516
73935ION    CL-39162  22.569  21.975  10.903
73936ION    CL-39163  36.013  31.135   4.896
73937ION    CL-39164  18.302  29.424   1.464
73938ION    CL-39165  33.435  30.800   4.062
73939ION    CL-39166  44.111  25.260  13.134
73940ION    CL-39167  13.354  30.099  13.047
73941ION    CL-39168  17.030   9.209   2.283
73942ION    CL-39169  17.330  34.409   3.157
73943ION    CL-39170  26.352  22.912   2.018
73944ION    CL-39171  36.261  16.214  13.856
73945ION    CL-39172  13.177  44.720  14.904
73946ION    CL-39173  38.882   0.961   2.844
73947ION    CL-39174  22.314  18.018   9.940
73948ION    CL-39175  22.950   1.476  14.892
73949ION    CL-39176  13.285   4.210  11.091
73950ION    CL-39177  32.263   9.462  14.364
73951ION    CL-39178  30.149  28.489  12.522
73952ION    CL-39179  40.898  21.415   3.855
73953ION    CL-39180  44.695  12.211   0.732
73954ION    CL-39181   7.909  25.781   1.424
73955ION    CL-39182   1.751   5.368   4.436
73956ION    CL-39183  16.486  35.780   4.144
73957ION    CL-39184  42.365  30.552  14.992
73958ION    CL-39185  33.883   2.371  12.506
73959ION    CL-39186  26.508  36.176  12.856
73960ION    CL-39187  22.205  12.660   1.944
73961ION    CL-39188   6.411  17.908   4.053
73962ION    CL-39189   7.194  15.215   2.955
73963ION    CL-39190   0.883   0.817   5.277
73964ION    CL-39191   6.416  14.446  10.339
73965ION    CL-39192   2.502  27.138  13.713
73966ION    CL-39193   5.352  18.278  12.445
73967ION    CL-39194  21.971  12.386  14.406
73968ION    CL-39195  34.087  13.807   3.185
73969ION    CL-39196  39.943  22.472   1.787
73970ION    CL-39197  26.442  35.465  14.302
73971ION    CL-39198  30.062  18.205   2.922
73972ION    CL-39199  42.276   5.417   4.989
73973ION    CL-39200  27.746  31.122  10.907
73974ION    CL-39201  35.665  10.158  11.914
73975ION    CL-39202  11.366   4.025   0.824
73976ION    CL-39203   2.643   5.756  14.645
73977ION    CL-39204  20.555  41.198   4.048
73978ION    CL-39205   3.560  18.026   2.956
73979ION    CL-39206  38.832  36.521   1.868
73980ION    CL-39207  30.054  16.674  14.307
73981ION    CL-39208  31.307  35.547   2.400
73982ION    CL-39209   1.077  20.428  14.106
73983ION    CL-39210  40.140  35.040   2.529
73984ION    CL-39211  19.907  15.100   1.349
73985ION    CL-39212  39.953  32.395  13.445
73986ION    CL-39213  13.614   5.919  13.895
73987ION    CL-39214  20.835  26.154   4.218
73988ION    CL-39215  44.562  15.656  10.879
73989ION    CL-39216  14.799  22.686   0.916
73990ION    CL-39217  38.534   7.683   1.678
73991ION    CL-39218   1.851  38.936  11.067
73992ION    CL-39219  44.456  18.244   1.393
73993ION    CL-39220  26.895  28.872   0.919
73994ION    CL-39221   4.793  12.569   0.209
73995ION    CL-39222   4.161  24.414  14.253
73996ION    CL-39223  29.663  35.338  12.290
73997ION    CL-39224  24.935  25.865  13.078
73998ION    CL-39225  36.437  16.700  10.196
73999ION    CL-39226   6.371  10.616  10.446
74000ION    CL-39227   4.367  37.643   4.150
74001ION    CL-39228  27.389  16.992   0.580
74002ION    CL-39229   7.671  13.656  13.937
74003ION    CL-39230  43.751   7.785  10.006
74004ION    CL-39231  35.850   1.533   2.082
74005ION    CL-39232  36.448  21.383  10.927
74006ION    CL-39233   0.408  32.643  14.238
74007ION    CL-39234  14.434  22.169  11.209
74008ION    CL-39235  36.371   2.248   0.449
74009ION    CL-39236   7.690  29.268  13.367
74010ION    CL-39237  12.235  15.038   1.066
74011ION    CL-39238  21.695   0.574   1.761
74012ION    CL-39239   9.173  38.991  10.636
74013ION    CL-39240  34.055  29.195  10.411
74014ION    CL-39241  28.222  30.071  11.102
74015ION    CL-39242  15.688   5.791  14.992
74016ION    CL-39243  34.420  35.883   0.371
74017ION    CL-39244  12.128  22.524   3.483
74018ION    CL-39245  10.289  44.510  11.519
74019ION    CL-39246  35.752   6.288  11.080
74020ION    CL-39247  34.098  26.929   4.067
74021ION    CL-39248  28.904  39.158  11.845
74022ION    CL-39249  21.482  18.055   2.115
74023ION    CL-39250  17.616  39.092  14.527
74024ION    CL-39251  29.233   7.278  12.820
74025ION    CL-39252   2.541   2.541   3.040
74026ION    CL-39253  20.454   0.737   9.776
74027ION    CL-39254  27.147   7.710  12.700
74028ION    CL-39255  12.869   7.833  11.652
74029ION    CL-39256  41.313  18.966  14.561
74030ION    CL-39257  23.022  16.086  12.556
74031ION    CL-39258  29.633  21.039   3.085
74032ION    CL-39259  23.381   2.968   1.635
74033ION    CL-39260  19.935  25.860  13.768
74034ION    CL-39261  19.427  30.376  14.840
74035ION    CL-39262  41.844  41.723   4.942
74036ION    CL-39263   1.496  41.685   3.130
74037ION    CL-39264   7.996  28.958  10.955
74038ION    CL-39265  33.660  11.679  10.770
74039ION    CL-39266  39.087  30.116   3.035
74040ION    CL-39267  26.261  13.148   2.929
74041ION    CL-39268  26.637  17.117   2.118
74042ION    CL-39269  44.064   1.442   1.216
74043ION    CL-39270  14.878   6.453   2.791
74044ION    CL-39271   1.896   8.026  12.147
74045ION    CL-39272  37.386  14.734  12.664
  45.00000  45.00000  15.00000
